Protein in INSANE! Membrane UpperLeaflet>POPC=1.0 LowerLeaflet>POPC=1.0
12914
    1AU     AUC    1   5.741   5.813   6.012
    1AU     AUC    2   6.021   5.811   5.840
    1AU     AUC    3   5.989   5.799   6.179
    1AU     AUC    4   5.466   5.811   5.852
    1AU     AUC    5   5.488   5.853   6.206
    1AU     AUC    6   5.580   6.088   6.017
    1AU     AUC    7   5.930   6.085   5.995
    1AU     AUC    8   5.548   5.554   6.021
    1AU     AUC    9   5.899   5.523   6.015
    1AU     AUC   10   5.739   5.640   6.290
    1AU     AUC   11   5.744   5.998   6.278
    1AU     AUC   12   5.727   5.646   5.745
    1AU     AUC   13   5.761   5.965   5.725
    1AU     AUC   14   6.342   5.798   5.689
    1AU     AUC   15   6.345   5.783   6.028
    1AU     AUC   16   6.291   5.777   6.378
    1AU     AUC   17   5.146   5.823   5.687
    1AU     AUC   18   5.138   5.866   6.050
    1AU     AUC   19   5.191   5.891   6.404
    1AU     AUC   20   5.432   6.405   5.999
    1AU     AUC   21   5.785   6.424   5.946
    1AU     AUC   22   6.114   6.368   5.972
    1AU     AUC   23   5.328   5.276   6.028
    1AU     AUC   24   5.688   5.214   5.996
    1AU     AUC   25   6.067   5.214   6.003
    1AU     AUC   26   5.719   5.455   6.586
    1AU     AUC   27   5.755   5.814   6.618
    1AU     AUC   28   5.788   6.169   6.565
    1AU     AUC   29   5.748   5.466   5.469
    1AU     AUC   30   5.736   5.798   5.398
    1AU     AUC   31   5.747   6.117   5.409
    1AU     AUC   32   6.013   5.581   6.509
    1AU     AUC   33   6.057   5.976   6.496
    1AU     AUC   34   6.064   5.636   5.528
    1AU     AUC   35   6.060   5.983   5.531
    1AU     AUC   36   5.438   5.683   6.532
    1AU     AUC   37   5.480   6.048   6.519
    1AU     AUC   38   5.423   5.629   5.563
    1AU     AUC   39   5.408   5.955   5.512
    1AU     AUC   40   6.276   6.089   5.820
    1AU     AUC   41   6.213   6.081   6.188
    1AU     AUC   42   5.268   6.123   5.850
    1AU     AUC   43   5.289   6.181   6.217
    1AU     AUC   44   6.236   5.494   5.863
    1AU     AUC   45   6.184   5.459   6.197
    1AU     AUC   46   5.210   5.521   5.873
    1AU     AUC   47   5.269   5.573   6.224
    1AU     AUC   48   5.604   6.339   6.278
    1AU     AUC   49   5.951   6.292   6.272
    1AU     AUC   50   5.519   5.353   6.307
    1AU     AUC   51   5.855   5.285   6.284
    1AU     AUC   52   5.578   6.236   5.689
    1AU     AUC   53   5.965   6.259   5.660
    1AU     AUC   54   5.528   5.345   5.725
    1AU     AUC   55   5.930   5.355   5.732
    1AU    AUSL   56   6.310   5.706   6.745
    1AU    AUSL   57   6.017   5.263   6.687
    1AU     AUL   58   6.304   5.313   6.860
    1AU       S   59   6.325   4.886   6.665
    1AU     LIG   60   6.278   4.466   6.822
    1AU     LIG   61   6.444   4.175   7.156
    1AU     LIG   62   6.696   4.143   7.545
    1AU     LIG   63   6.860   3.944   7.934
    1AU     LIG   64   6.909   3.620   8.272
    1AU       S   65   6.574   5.700   6.887
    1AU     LIG   66   6.737   5.848   7.289
    1AU     LIG   67   6.849   5.674   7.707
    1AU     LIG   68   7.049   5.502   8.099
    1AU     LIG   69   7.278   5.538   8.508
    1AU     LIG   70   7.563   5.675   8.850
    1AU    AUSL   71   5.913   5.617   6.915
    1AU    AUSL   72   5.642   5.983   6.957
    1AU     AUL   73   5.874   5.884   7.215
    1AU       S   74   6.253   5.606   7.214
    1AU     LIG   75   5.939   5.300   7.473
    1AU     LIG   76   5.959   5.085   7.894
    1AU     LIG   77   6.273   4.980   8.240
    1AU     LIG   78   6.442   4.830   8.659
    1AU     LIG   79   6.470   4.895   9.124
    1AU       S   80   5.445   5.734   7.193
    1AU     LIG   81   5.489   5.597   7.653
    1AU     LIG   82   5.225   5.623   8.044
    1AU     LIG   83   5.124   5.776   8.475
    1AU     LIG   84   5.179   6.064   8.857
    1AU     LIG   85   5.050   6.085   9.301
    1AU    AUSL   86   5.963   6.000   6.677
    1AU    AUSL   87   6.410   6.101   6.603
    1AU     AUL   88   6.228   6.014   6.936
    1AU       S   89   5.880   6.352   7.094
    1AU     LIG   90   6.124   6.567   7.386
    1AU     LIG   91   6.374   6.578   7.795
    1AU     LIG   92   6.347   6.560   8.289
    1AU     LIG   93   6.387   6.691   8.749
    1AU     LIG   94   6.661   6.747   9.122
    1AU       S   95   6.575   6.302   6.808
    1AU     LIG   96   6.962   6.208   6.972
    1AU     LIG   97   7.264   6.451   7.223
    1AU     LIG   98   7.460   6.686   7.579
    1AU     LIG   99   7.802   6.730   7.914
    1AU     LIG  100   8.234   6.881   8.059
    1AU    AUSL  101   6.207   5.839   5.380
    1AU    AUSL  102   6.139   6.274   5.352
    1AU     AUL  103   6.299   6.166   5.099
    1AU       S  104   6.166   5.872   4.784
    1AU     LIG  105   6.503   5.846   4.461
    1AU     LIG  106   6.765   5.612   4.142
    1AU     LIG  107   6.918   5.427   3.726
    1AU     LIG  108   7.292   5.343   3.413
    1AU     LIG  109   7.702   5.383   3.145
    1AU       S  110   6.541   6.482   5.350
    1AU     LIG  111   6.748   6.670   4.964
    1AU     LIG  112   7.014   6.873   4.592
    1AU     LIG  113   7.203   6.922   4.137
    1AU     LIG  114   7.489   7.054   3.764
    1AU     LIG  115   7.789   7.346   3.521
    1AU    AUSL  116   6.014   5.563   5.095
    1AU    AUSL  117   6.479   5.515   5.439
    1AU     AUL  118   6.407   5.696   5.159
    1AU       S  119   6.575   5.250   5.217
    1AU     LIG  120   6.717   4.893   4.909
    1AU     LIG  121   6.914   4.479   4.811
    1AU     LIG  122   7.224   4.236   4.556
    1AU     LIG  123   7.567   4.290   4.222
    1AU     LIG  124   8.021   4.403   4.091
    1AU       S  125   6.154   5.644   4.766
    1AU     LIG  126   6.401   5.339   4.555
    1AU     LIG  127   6.452   5.207   4.107
    1AU     LIG  128   6.436   5.230   3.638
    1AU     LIG  129   6.572   5.086   3.204
    1AU     LIG  130   6.770   4.915   2.793
    1AU    AUSL  131   5.858   5.990   5.175
    1AU    AUSL  132   5.619   5.612   5.268
    1AU     AUL  133   5.734   5.630   4.947
    1AU       S  134   5.281   5.630   4.815
    1AU     LIG  135   5.176   5.327   4.493
    1AU     LIG  136   5.082   5.116   4.093
    1AU     LIG  137   4.980   5.146   3.650
    1AU     LIG  138   4.948   4.965   3.215
    1AU     LIG  139   4.831   5.032   2.763
    1AU       S  140   5.935   6.027   4.826
    1AU     LIG  141   5.975   5.875   4.338
    1AU     LIG  142   6.274   5.694   4.003
    1AU     LIG  143   6.484   5.739   3.575
    1AU     LIG  144   6.466   5.856   3.111
    1AU     LIG  145   6.455   6.116   2.722
    1AU    AUSL  146   5.234   5.943   6.796
    1AU    AUSL  147   5.538   6.289   6.671
    1AU     AUL  148   5.406   6.220   7.001
    1AU       S  149   5.268   5.846   7.258
    1AU     LIG  150   4.986   5.648   7.559
    1AU     LIG  151   4.731   5.482   7.920
    1AU     LIG  152   4.462   5.328   8.284
    1AU     LIG  153   4.042   5.346   8.527
    1AU     LIG  154   3.844   5.579   8.892
    1AU       S  155   5.152   6.553   6.791
    1AU     LIG  156   5.004   6.739   7.188
    1AU     LIG  157   4.837   6.956   7.585
    1AU     LIG  158   4.774   7.227   7.977
    1AU     LIG  159   4.611   7.388   8.405
    1AU     LIG  160   4.521   7.720   8.748
    1AU    AUSL  161   5.536   5.637   6.701
    1AU    AUSL  162   5.077   5.569   6.628
    1AU     AUL  163   5.095   5.659   6.875
    1AU       S  164   4.901   5.226   6.764
    1AU     LIG  165   4.485   5.030   6.712
    1AU     LIG  166   4.160   4.754   6.892
    1AU     LIG  167   3.938   4.539   7.244
    1AU     LIG  168   3.757   4.317   7.618
    1AU     LIG  169   3.398   4.286   7.937
    1AU       S  170   5.487   5.544   7.103
    1AU     LIG  171   5.260   5.251   7.371
    1AU     LIG  172   5.144   5.177   7.806
    1AU     LIG  173   4.980   5.166   8.248
    1AU     LIG  174   4.874   4.951   8.654
    1AU     LIG  175   4.905   4.942   9.123
    1AU    AUSL  176   5.194   5.716   5.304
    1AU    AUSL  177   5.373   5.314   5.455
    1AU     AUL  178   5.412   5.342   5.148
    1AU       S  179   5.070   5.579   4.940
    1AU     LIG  180   4.766   5.613   4.636
    1AU     LIG  181   4.710   5.470   4.204
    1AU     LIG  182   4.617   5.531   3.743
    1AU     LIG  183   4.327   5.586   3.352
    1AU     LIG  184   3.948   5.632   3.033
    1AU       S  185   5.002   5.198   5.308
    1AU     LIG  186   4.792   4.837   5.108
    1AU     LIG  187   4.521   4.503   4.897
    1AU     LIG  188   4.326   4.241   4.558
    1AU     LIG  189   4.208   4.074   4.134
    1AU     LIG  190   4.277   3.859   3.720
    1AU    AUSL  191   5.446   5.998   5.071
    1AU    AUSL  192   5.023   6.105   5.444
    1AU     AUL  193   5.079   5.994   5.129
    1AU       S  194   4.783   6.304   5.294
    1AU     LIG  195   4.675   6.548   4.957
    1AU     LIG  196   4.588   6.770   4.560
    1AU     LIG  197   4.282   6.791   4.190
    1AU     LIG  198   3.894   6.866   3.913
    1AU     LIG  199   3.591   7.171   3.726
    1AU       S  200   5.358   5.869   4.774
    1AU     LIG  201   5.151   5.821   4.357
    1AU     LIG  202   5.122   5.611   3.938
    1AU     LIG  203   5.055   5.634   3.486
    1AU     LIG  204   5.109   5.835   3.081
    1AU     LIG  205   4.883   6.071   2.766
    1AU    AUSL  206   6.561   6.310   6.006
    1AU    AUSL  207   6.489   6.081   5.594
    1AU     AUL  208   6.817   6.368   5.745
    1AU       S  209   6.605   6.139   5.430
    1AU     LIG  210   6.943   6.202   5.112
    1AU     LIG  211   7.109   6.372   4.707
    1AU     LIG  212   7.445   6.589   4.459
    1AU     LIG  213   7.725   6.829   4.171
    1AU     LIG  214   8.002   7.124   3.934
    1AU       S  215   7.013   6.363   6.162
    1AU     LIG  216   7.458   6.443   6.012
    1AU     LIG  217   7.936   6.479   5.961
    1AU     LIG  218   8.368   6.669   5.978
    1AU     LIG  219   8.590   6.987   6.203
    1AU     LIG  220   8.820   7.307   6.455
    1AU    AUSL  221   6.727   5.898   5.909
    1AU    AUSL  222   6.644   5.584   6.253
    1AU     AUL  223   6.834   5.809   6.371
    1AU       S  224   6.990   5.985   5.957
    1AU     LIG  225   7.469   5.937   5.934
    1AU     LIG  226   7.963   5.984   5.827
    1AU     LIG  227   8.392   6.205   5.735
    1AU     LIG  228   8.836   6.294   5.534
    1AU     LIG  229   9.125   6.413   5.188
    1AU       S  230   6.912   5.394   6.131
    1AU     LIG  231   7.230   5.087   6.325
    1AU     LIG  232   7.678   4.869   6.300
    1AU     LIG  233   8.150   4.711   6.298
    1AU     LIG  234   8.637   4.808   6.366
    1AU     LIG  235   9.136   4.784   6.434
    1AU    AUSL  236   6.415   5.940   6.209
    1AU    AUSL  237   6.228   6.345   6.280
    1AU     AUL  238   6.598   6.254   6.344
    1AU       S  239   6.560   6.567   6.687
    1AU     LIG  240   6.891   6.725   6.970
    1AU     LIG  241   7.224   6.987   7.202
    1AU     LIG  242   7.405   7.407   7.386
    1AU     LIG  243   7.595   7.869   7.409
    1AU     LIG  244   7.929   8.178   7.577
    1AU       S  245   7.017   6.166   6.158
    1AU     LIG  246   7.401   6.128   6.412
    1AU     LIG  247   7.852   6.102   6.312
    1AU     LIG  248   8.305   6.247   6.261
    1AU     LIG  249   8.650   6.540   6.476
    1AU     LIG  250   9.078   6.604   6.687
    1AU    AUSL  251   5.125   6.408   6.053
    1AU    AUSL  252   5.170   6.180   6.444
    1AU     AUL  253   4.882   6.526   6.296
    1AU       S  254   5.032   6.341   6.690
    1AU     LIG  255   4.724   6.330   7.003
    1AU     LIG  256   4.582   6.526   7.418
    1AU     LIG  257   4.404   6.743   7.811
    1AU     LIG  258   4.062   6.810   8.143
    1AU     LIG  259   3.693   6.996   8.376
    1AU       S  260   5.126   6.792   5.981
    1AU     LIG  261   4.744   7.014   5.831
    1AU     LIG  262   4.295   7.189   5.913
    1AU     LIG  263   3.840   7.374   5.952
    1AU     LIG  264   3.378   7.542   5.933
    1AU     LIG  265   2.966   7.794   5.959
    1AU    AUSL  266   5.059   6.020   5.853
    1AU    AUSL  267   5.189   6.475   5.635
    1AU     AUL  268   4.896   6.377   5.747
    1AU       S  269   4.686   5.803   5.461
    1AU     LIG  270   4.315   6.063   5.343
    1AU     LIG  271   3.837   6.172   5.315
    1AU     LIG  272   3.356   6.203   5.439
    1AU     LIG  273   2.971   6.504   5.373
    1AU     LIG  274   2.603   6.702   5.135
    1AU       S  275   5.002   6.718   5.408
    1AU     LIG  276   4.929   6.989   5.026
    1AU     LIG  277   4.927   7.409   4.786
    1AU     LIG  278   4.818   7.882   4.684
    1AU     LIG  279   4.496   8.225   4.549
    1AU     LIG  280   4.145   8.563   4.514
    1AU    AUSL  281   4.816   6.082   6.225
    1AU    AUSL  282   4.762   5.718   5.909
    1AU     AUL  283   4.653   6.026   5.917
    1AU       S  284   4.468   5.630   6.114
    1AU     LIG  285   4.101   5.485   5.836
    1AU     LIG  286   3.737   5.220   5.762
    1AU     LIG  287   3.320   5.116   5.624
    1AU     LIG  288   2.877   5.122   5.716
    1AU     LIG  289   2.453   5.032   5.558
    1AU       S  290   4.700   6.055   6.445
    1AU     LIG  291   4.225   6.101   6.541
    1AU     LIG  292   3.749   6.150   6.704
    1AU     LIG  293   3.366   6.441   6.804
    1AU     LIG  294   2.901   6.440   6.654
    1AU     LIG  295   2.415   6.522   6.622
    1AU    AUSL  296   6.452   5.224   6.075
    1AU    AUSL  297   6.247   5.490   6.387
    1AU     AUL  298   6.577   5.378   6.470
    1AU       S  299   6.755   5.132   6.101
    1AU     LIG  300   6.906   4.737   6.111
    1AU     LIG  301   7.329   4.576   6.052
    1AU     LIG  302   7.774   4.407   6.066
    1AU     LIG  303   8.165   4.171   6.200
    1AU     LIG  304   8.447   3.816   6.380
    1AU       S  305   6.470   4.947   6.518
    1AU     LIG  306   6.779   4.691   6.748
    1AU     LIG  307   6.897   4.418   7.117
    1AU     LIG  308   7.186   4.172   7.401
    1AU     LIG  309   7.505   4.171   7.751
    1AU     LIG  310   7.889   4.137   8.032
    1AU    AUSL  311   6.427   5.602   5.852
    1AU    AUSL  312   6.349   5.153   5.659
    1AU     AUL  313   6.630   5.326   5.698
    1AU       S  314   6.978   5.476   5.942
    1AU     LIG  315   7.237   5.074   5.823
    1AU     LIG  316   7.684   4.844   5.782
    1AU     LIG  317   8.148   4.645   5.786
    1AU     LIG  318   8.638   4.638   5.713
    1AU     LIG  319   9.009   4.699   5.412
    1AU       S  320   6.539   4.999   5.359
    1AU     LIG  321   6.463   4.533   5.264
    1AU     LIG  322   6.688   4.129   5.113
    1AU     LIG  323   6.956   3.846   4.852
    1AU     LIG  324   7.291   3.500   4.788
    1AU     LIG  325   7.664   3.192   4.681
    1AU    AUSL  326   4.922   5.339   6.082
    1AU    AUSL  327   5.091   5.557   5.687
    1AU     AUL  328   4.737   5.428   5.787
    1AU       S  329   4.903   5.353   5.369
    1AU     LIG  330   4.502   5.256   5.205
    1AU     LIG  331   4.235   4.896   5.072
    1AU     LIG  332   4.008   4.601   4.765
    1AU     LIG  333   3.816   4.289   4.445
    1AU     LIG  334   3.501   4.089   4.135
    1AU       S  335   4.483   5.359   6.181
    1AU     LIG  336   4.270   4.999   5.999
    1AU     LIG  337   3.860   4.763   5.955
    1AU     LIG  338   3.382   4.787   6.038
    1AU     LIG  339   3.034   4.569   6.289
    1AU     LIG  340   2.619   4.334   6.378
    1AU    AUSL  341   5.059   5.736   6.237
    1AU    AUSL  342   5.269   5.328   6.326
    1AU     AUL  343   4.861   5.514   6.400
    1AU       S  344   4.957   5.086   6.529
    1AU     LIG  345   4.750   4.741   6.381
    1AU     LIG  346   4.496   4.447   6.627
    1AU     LIG  347   4.168   4.224   6.902
    1AU     LIG  348   3.855   4.005   7.193
    1AU     LIG  349   3.568   3.617   7.258
    1AU       S  350   4.459   5.680   6.269
    1AU     LIG  351   3.993   5.773   6.232
    1AU     LIG  352   3.609   5.625   6.037
    1AU     LIG  353   3.315   5.306   6.096
    1AU     LIG  354   2.945   5.072   6.229
    1AU     LIG  355   2.623   4.852   6.463
    1AU    AUSL  356   5.802   6.497   6.397
    1AU    AUSL  357   5.360   6.568   6.379
    1AU     AUL  358   5.626   6.612   6.708
    1AU       S  359   5.243   6.768   6.487
    1AU     LIG  360   4.995   7.037   6.766
    1AU     LIG  361   4.861   7.270   7.162
    1AU     LIG  362   4.735   7.688   7.368
    1AU     LIG  363   4.442   8.079   7.414
    1AU     LIG  364   4.053   8.357   7.518
    1AU       S  365   5.823   6.951   6.454
    1AU     LIG  366   5.952   7.173   6.831
    1AU     LIG  367   5.960   7.619   6.982
    1AU     LIG  368   5.936   7.894   7.388
    1AU     LIG  369   5.984   8.136   7.817
    1AU     LIG  370   5.941   8.508   8.132
    1AU    AUSL  371   5.604   6.747   6.080
    1AU    AUSL  372   5.937   6.701   5.671
    1AU     AUL  373   5.641   6.946   5.805
    1AU       S  374   5.666   6.966   6.281
    1AU     LIG  375   5.619   7.409   6.507
    1AU     LIG  376   5.536   7.854   6.719
    1AU     LIG  377   5.431   8.327   6.829
    1AU     LIG  378   5.372   8.815   6.878
    1AU     LIG  379   5.402   9.271   6.744
    1AU       S  380   5.935   7.011   5.438
    1AU     LIG  381   6.219   7.374   5.327
    1AU     LIG  382   6.393   7.828   5.210
    1AU     LIG  383   6.692   8.250   5.203
    1AU     LIG  384   6.759   8.748   5.186
    1AU     LIG  385   6.614   9.195   5.010
    1AU    AUSL  386   6.054   6.684   6.088
    1AU    AUSL  387   6.090   6.407   6.696
    1AU     AUL  388   6.179   6.658   6.439
    1AU       S  389   6.319   6.499   6.886
    1AU     LIG  390   6.604   6.441   7.284
    1AU     LIG  391   6.914   6.697   7.518
    1AU     LIG  392   7.135   7.073   7.706
    1AU     LIG  393   7.224   7.410   8.022
    1AU     LIG  394   7.220   7.598   8.460
    1AU       S  395   6.006   6.994   6.148
    1AU     LIG  396   6.140   7.373   6.402
    1AU     LIG  397   6.385   7.745   6.619
    1AU     LIG  398   6.729   8.112   6.666
    1AU     LIG  399   6.884   8.572   6.745
    1AU     LIG  400   6.843   8.985   6.936
    1AU    AUSL  401   5.676   5.160   6.440
    1AU    AUSL  402   6.099   5.091   6.286
    1AU     AUL  403   5.875   4.978   6.656
    1AU       S  404   5.665   4.598   6.502
    1AU     LIG  405   5.633   4.232   6.723
    1AU     LIG  406   5.483   3.804   6.735
    1AU     LIG  407   5.492   3.411   6.977
    1AU     LIG  408   5.528   3.241   7.422
    1AU     LIG  409   5.564   3.225   7.903
    1AU       S  410   6.245   4.883   6.350
    1AU     LIG  411   6.504   4.481   6.356
    1AU     LIG  412   6.686   4.178   6.693
    1AU     LIG  413   6.902   3.905   7.032
    1AU     LIG  414   7.020   3.460   7.195
    1AU     LIG  415   7.343   3.099   7.340
    1AU    AUSL  416   5.348   4.939   6.186
    1AU    AUSL  417   5.390   5.244   6.748
    1AU     AUL  418   5.396   4.974   6.531
    1AU       S  419   5.463   4.547   6.344
    1AU     LIG  420   5.116   4.380   6.567
    1AU     LIG  421   4.976   3.944   6.622
    1AU     LIG  422   5.066   3.475   6.630
    1AU     LIG  423   4.918   3.016   6.646
    1AU     LIG  424   4.899   2.669   6.955
    1AU       S  425   5.122   5.147   6.876
    1AU     LIG  426   4.872   4.730   6.897
    1AU     LIG  427   4.534   4.497   7.145
    1AU     LIG  428   4.279   4.207   7.431
    1AU     LIG  429   4.132   4.031   7.850
    1AU     LIG  430   4.200   3.839   8.289
    1AU    AUSL  431   5.777   4.861   6.127
    1AU    AUSL  432   5.541   5.110   5.832
    1AU     AUL  433   5.430   4.767   5.935
    1AU       S  434   5.789   4.677   5.673
    1AU     LIG  435   5.551   4.283   5.495
    1AU     LIG  436   5.341   3.858   5.411
    1AU     LIG  437   5.136   3.415   5.370
    1AU     LIG  438   4.902   2.973   5.366
    1AU     LIG  439   4.773   2.587   5.101
    1AU       S  440   5.791   4.670   6.258
    1AU     LIG  441   6.034   4.281   6.390
    1AU     LIG  442   6.055   3.868   6.639
    1AU     LIG  443   6.072   3.403   6.790
    1AU     LIG  444   6.182   2.935   6.783
    1AU     LIG  445   6.110   2.442   6.736
    1AU    AUSL  446   5.747   6.459   5.342
    1AU    AUSL  447   6.219   6.393   5.759
    1AU     AUL  448   6.079   6.581   5.353
    1AU       S  449   5.721   6.779   5.128
    1AU     LIG  450   5.981   7.120   4.941
    1AU     LIG  451   6.041   7.578   4.876
    1AU     LIG  452   6.153   7.838   4.503
    1AU     LIG  453   6.136   8.119   4.139
    1AU     LIG  454   5.959   8.549   4.102
    1AU       S  455   6.433   6.583   5.633
    1AU     LIG  456   6.585   6.980   5.374
    1AU     LIG  457   6.854   7.177   5.011
    1AU     LIG  458   7.203   7.377   4.737
    1AU     LIG  459   7.540   7.719   4.669
    1AU     LIG  460   7.689   8.175   4.677
    1AU    AUSL  461   5.591   6.462   5.772
    1AU    AUSL  462   5.456   6.173   5.455
    1AU     AUL  463   5.449   6.608   5.480
    1AU       S  464   5.700   6.959   5.340
    1AU     LIG  465   5.690   7.438   5.255
    1AU     LIG  466   5.673   7.930   5.220
    1AU     LIG  467   5.405   8.348   5.247
    1AU     LIG  468   5.337   8.849   5.313
    1AU     LIG  469   5.322   9.349   5.220
    1AU       S  470   5.155   6.456   5.156
    1AU     LIG  471   5.285   6.688   4.815
    1AU     LIG  472   5.075   6.974   4.493
    1AU     LIG  473   5.048   7.138   4.033
    1AU     LIG  474   4.944   7.377   3.619
    1AU     LIG  475   4.607   7.682   3.465
    1AU    AUSL  476   5.743   5.092   5.433
    1AU    AUSL  477   5.123   5.116   5.766
    1AU     AUL  478   5.388   4.957   5.498
    1AU       S  479   4.930   5.071   5.553
    1AU     LIG  480   4.521   4.852   5.545
    1AU     LIG  481   4.297   4.478   5.368
    1AU     LIG  482   4.117   4.183   5.042
    1AU     LIG  483   3.783   3.923   4.823
    1AU     LIG  484   3.426   3.588   4.828
    1AU       S  485   5.798   4.713   5.484
    1AU     LIG  486   5.950   4.403   5.177
    1AU     LIG  487   5.751   3.989   5.061
    1AU     LIG  488   5.527   3.573   5.021
    1AU     LIG  489   5.484   3.212   4.723
    1AU     LIG  490   5.632   2.977   4.336
    1AU    AUSL  491   5.971   5.090   5.824
    1AU    AUSL  492   6.029   5.410   5.488
    1AU     AUL  493   6.085   5.063   5.426
    1AU       S  494   6.045   4.741   5.762
    1AU     LIG  495   6.078   4.271   5.654
    1AU     LIG  496   5.844   3.872   5.541
    1AU     LIG  497   5.976   3.495   5.273
    1AU     LIG  498   6.244   3.127   5.122
    1AU     LIG  499   6.557   2.754   5.184
    1AU       S  500   6.342   5.213   5.085
    1AU     LIG  501   6.221   4.799   4.874
    1AU     LIG  502   6.399   4.378   4.764
    1AU     LIG  503   6.707   4.127   4.488
    1AU     LIG  504   7.007   4.130   4.105
    1AU     LIG  505   7.136   3.928   3.696
    2POPC   NC3  506   2.162   7.887   8.073
    2POPC   PO4  507   2.390   8.440   8.255
    2POPC   GL1  508   2.360   8.307   7.729
    2POPC   GL2  509   2.278   7.934   7.596
    2POPC   C1A  510   2.267   8.271   7.249
    2POPC   D2A  511   2.161   8.438   6.855
    2POPC   C3A  512   2.224   8.292   6.424
    2POPC   C4A  513   2.391   8.447   6.016
    2POPC   C1B  514   1.863   7.908   7.401
    2POPC   C2B  515   1.689   7.786   7.003
    2POPC   C3B  516   1.744   7.846   6.569
    2POPC   C4B  517   1.710   8.174   6.266
    3POPC   NC3  518   1.956   2.736   8.263
    3POPC   PO4  519   1.605   3.180   7.949
    3POPC   GL1  520   1.781   2.957   7.614
    3POPC   GL2  521   2.040   2.936   7.767
    3POPC   C1A  522   1.743   2.699   7.222
    3POPC   D2A  523   1.801   2.546   6.773
    3POPC   C3A  524   1.632   2.869   6.487
    3POPC   C4A  525   1.748   3.007   6.079
    3POPC   C1B  526   2.255   2.775   7.393
    3POPC   C2B  527   2.416   2.816   6.996
    3POPC   C3B  528   2.332   2.654   6.631
    3POPC   C4B  529   2.117   2.801   6.351
    4POPC   NC3  530   8.146   9.756   8.005
    4POPC   PO4  531   8.107   9.153   8.180
    4POPC   GL1  532   8.385   9.334   7.812
    4POPC   GL2  533   8.119   9.523   7.570
    4POPC   C1A  534   8.512   9.291   7.371
    4POPC   D2A  535   8.261   9.531   7.050
    4POPC   C3A  536   8.370   9.618   6.630
    4POPC   C4A  537   8.398   9.411   6.190
    4POPC   C1B  538   7.845   9.780   7.313
    4POPC   C2B  539   7.700   9.917   6.902
    4POPC   C3B  540   7.639   9.757   6.509
    4POPC   C4B  541   7.996   9.701   6.296
    5POPC   NC3  542   1.936   0.534   7.944
    5POPC   PO4  543   1.526   0.018   8.067
    5POPC   GL1  544   1.645   0.126   7.633
    5POPC   GL2  545   1.973   0.298   7.512
    5POPC   C1A  546   1.715   0.054   7.184
    5POPC   D2A  547   1.854   0.336   6.878
    5POPC   C3A  548   1.878   0.168   6.491
    5POPC   C4A  549   1.713   0.190   6.099
    5POPC   C1B  550   1.923   0.689   7.256
    5POPC   C2B  551   1.820   0.841   6.809
    5POPC   C3B  552   2.003   0.689   6.379
    5POPC   C4B  553   1.922   0.587   5.904
    6POPC   NC3  554   7.326   9.319   8.116
    6POPC   PO4  555   7.562   9.942   8.046
    6POPC   GL1  556   7.524   9.630   7.727
    6POPC   GL2  557   7.188   9.757   7.667
    6POPC   C1A  558   7.622   9.324   7.393
    6POPC   D2A  559   7.764   9.398   6.923
    6POPC   C3A  560   7.608   9.265   6.478
    6POPC   C4A  561   7.724   9.386   6.008
    6POPC   C1B  562   7.335   9.700   7.243
    6POPC   C2B  563   7.224   9.687   6.861
    6POPC   C3B  564   7.168   9.511   6.480
    6POPC   C4B  565   7.240   9.677   6.092
    7POPC   NC3  566  10.888   0.419   7.991
    7POPC   PO4  567   0.072   0.725   8.073
    7POPC   GL1  568   0.126   0.537   7.697
    7POPC   GL2  569  11.288   0.458   7.629
    7POPC   C1A  570   0.137   0.661   7.289
    7POPC   D2A  571  11.292   0.655   7.018
    7POPC   C3A  572  11.439   0.519   6.633
    7POPC   C4A  573  11.257   0.532   6.245
    7POPC   C1B  574  10.931   0.397   7.336
    7POPC   C2B  575  10.823   0.477   6.905
    7POPC   C3B  576  10.910   0.284   6.528
    7POPC   C4B  577  10.645   0.096   6.202
    8POPC   NC3  578  10.592   7.273   8.097
    8POPC   PO4  579  10.613   7.939   8.117
    8POPC   GL1  580  10.664   7.653   7.737
    8POPC   GL2  581  10.355   7.446   7.692
    8POPC   C1A  582  10.675   7.506   7.275
    8POPC   D2A  583  10.652   7.676   6.842
    8POPC   C3A  584  10.464   7.450   6.483
    8POPC   C4A  585  10.626   7.454   6.075
    8POPC   C1B  586  10.196   7.277   7.325
    8POPC   C2B  587  10.292   7.216   6.902
    8POPC   C3B  588  10.104   7.040   6.566
    8POPC   C4B  589   9.969   7.361   6.283
    9POPC   NC3  590   1.921   8.883   8.057
    9POPC   PO4  591   1.907   8.262   7.966
    9POPC   GL1  592   1.939   8.571   7.622
    9POPC   GL2  593   2.259   8.813   7.648
    9POPC   C1A  594   1.774   8.392   7.219
    9POPC   D2A  595   1.692   8.298   6.793
    9POPC   C3A  596   1.819   8.618   6.480
    9POPC   C4A  597   1.838   8.665   6.028
    9POPC   C1B  598   2.132   8.824   7.199
    9POPC   C2B  599   2.189   8.920   6.734
    9POPC   C3B  600   2.152   8.968   6.280
    9POPC   C4B  601   1.936   9.274   6.006
   10POPC   NC3  602   9.385   1.740   8.071
   10POPC   PO4  603   8.745   1.962   8.006
   10POPC   GL1  604   8.857   1.956   7.581
   10POPC   GL2  605   8.986   2.311   7.617
   10POPC   C1A  606   8.925   1.738   7.151
   10POPC   D2A  607   9.194   1.987   6.795
   10POPC   C3A  608   9.363   1.815   6.424
   10POPC   C4A  609   9.042   1.955   6.144
   10POPC   C1B  610   8.986   2.244   7.190
   10POPC   C2B  611   8.719   2.103   6.863
   10POPC   C3B  612   8.627   1.958   6.468
   10POPC   C4B  613   8.580   2.199   6.070
   11POPC   NC3  614  11.266   5.955   8.077
   11POPC   PO4  615  10.680   6.329   8.064
   11POPC   GL1  616  10.911   6.134   7.695
   11POPC   GL2  617  10.997   5.760   7.666
   11POPC   C1A  618  11.045   6.019   7.247
   11POPC   D2A  619  11.269   5.763   6.913
   11POPC   C3A  620  11.158   5.832   6.483
   11POPC   C4A  621  11.056   6.256   6.333
   11POPC   C1B  622  11.300   5.532   7.387
   11POPC   C2B  623  11.420   5.265   7.014
   11POPC   C3B  624  11.460   5.405   6.578
   11POPC   C4B  625  11.240   5.420   6.156
   12POPC   NC3  626   0.393   0.272   8.053
   12POPC   PO4  627   0.852   0.786   7.958
   12POPC   GL1  628   0.639   0.575   7.676
   12POPC   GL2  629   0.771   0.278   7.596
   12POPC   C1A  630   0.667   0.689   7.262
   12POPC   D2A  631   0.469   0.571   6.875
   12POPC   C3A  632   0.621   0.753   6.503
   12POPC   C4A  633   0.773   0.688   6.073
   12POPC   C1B  634   0.442   0.222   7.292
   12POPC   C2B  635   0.256   0.102   6.885
   12POPC   C3B  636   0.385   0.241   6.468
   12POPC   C4B  637   0.263   0.575   6.201
   13POPC   NC3  638   2.931   2.891   8.105
   13POPC   PO4  639   2.296   3.048   8.208
   13POPC   GL1  640   2.542   2.967   7.783
   13POPC   GL2  641   2.694   2.642   7.718
   13POPC   C1A  642   2.727   2.999   7.346
   13POPC   D2A  643   2.768   3.211   6.944
   13POPC   C3A  644   2.735   2.984   6.596
   13POPC   C4A  645   2.886   2.666   6.364
   13POPC   C1B  646   2.660   2.446   7.302
   13POPC   C2B  647   2.755   2.446   6.858
   13POPC   C3B  648   2.599   2.255   6.484
   13POPC   C4B  649   2.469   2.462   6.134
   14POPC   NC3  650  11.295   8.769   8.011
   14POPC   PO4  651  10.644   8.886   7.860
   14POPC   GL1  652  10.892   8.630   7.591
   14POPC   GL2  653  11.223   8.748   7.520
   14POPC   C1A  654  10.902   8.678   7.139
   14POPC   D2A  655  11.228   8.713   6.833
   14POPC   C3A  656  10.999   8.846   6.493
   14POPC   C4A  657  10.893   8.744   6.085
   14POPC   C1B  658  11.400   9.053   7.232
   14POPC   C2B  659  11.264   9.250   6.834
   14POPC   C3B  660  11.469   9.109   6.505
   14POPC   C4B  661  11.370   8.850   6.143
   15POPC   NC3  662   8.592  11.368   8.000
   15POPC   PO4  663   9.058  10.975   8.292
   15POPC   GL1  664   8.913  11.039   7.781
   15POPC   GL2  665   9.014  11.261   7.532
   15POPC   C1A  666   8.755  10.870   7.324
   15POPC   D2A  667   8.872  11.059   6.878
   15POPC   C3A  668   8.939  10.850   6.437
   15POPC   C4A  669   8.936  10.930   5.976
   15POPC   C1B  670   8.592  11.358   7.320
   15POPC   C2B  671   8.492  11.410   6.891
   15POPC   C3B  672   8.731  11.425   6.505
   15POPC   C4B  673   9.154  11.357   6.378
   16POPC   NC3  674   7.011  11.245   7.865
   16POPC   PO4  675   6.874  10.655   8.098
   16POPC   GL1  676   6.687  10.854   7.689
   16POPC   GL2  677   6.707  11.184   7.484
   16POPC   C1A  678   6.830  10.757   7.261
   16POPC   D2A  679   6.769  11.023   6.889
   16POPC   C3A  680   6.720  10.828   6.455
   16POPC   C4A  681   6.495  11.039   6.081
   16POPC   C1B  682   6.407  11.352   7.206
   16POPC   C2B  683   6.293  11.229   6.792
   16POPC   C3B  684   6.613  11.337   6.511
   16POPC   C4B  685   6.522   0.071   6.197
   17POPC   NC3  686   0.538   8.105   8.130
   17POPC   PO4  687   0.045   7.683   7.860
   17POPC   GL1  688   0.215   8.008   7.635
   17POPC   GL2  689   0.541   8.137   7.630
   17POPC   C1A  690   0.212   8.079   7.211
   17POPC   D2A  691   0.460   8.073   6.875
   17POPC   C3A  692   0.211   8.057   6.513
   17POPC   C4A  693   0.184   8.213   6.111
   17POPC   C1B  694   0.698   8.411   7.335
   17POPC   C2B  695   0.742   8.511   6.903
   17POPC   C3B  696   0.875   8.211   6.607
   17POPC   C4B  697   0.680   7.981   6.294
   18POPC   NC3  698   4.010  11.054   7.913
   18POPC   PO4  699   4.661  11.427   8.032
   18POPC   GL1  700   4.411  11.453   7.666
   18POPC   GL2  701   4.396  11.120   7.601
   18POPC   C1A  702   4.413  11.432   7.176
   18POPC   D2A  703   4.263   0.069   6.763
   18POPC   C3A  704   4.215  11.312   6.393
   18POPC   C4A  705   4.219  11.381   5.942
   18POPC   C1B  706   4.316  10.926   7.231
   18POPC   C2B  707   4.353  11.032   6.810
   18POPC   C3B  708   4.609  10.899   6.471
   18POPC   C4B  709   4.432  10.923   6.084
   19POPC   NC3  710   5.854  11.159   7.981
   19POPC   PO4  711   6.546  11.204   8.026
   19POPC   GL1  712   6.244  11.112   7.659
   19POPC   GL2  713   6.098  11.450   7.626
   19POPC   C1A  714   6.124  10.933   7.207
   19POPC   D2A  715   5.787  10.748   6.954
   19POPC   C3A  716   5.757  10.858   6.514
   19POPC   C4A  717   5.995  11.085   6.194
   19POPC   C1B  718   5.814  11.345   7.301
   19POPC   C2B  719   5.757  11.241   6.881
   19POPC   C3B  720   5.662  11.357   6.489
   19POPC   C4B  721   5.465   0.119   6.249
   20POPC   NC3  722   6.424   1.013   8.141
   20POPC   PO4  723   6.252   1.624   7.981
   20POPC   GL1  724   6.471   1.327   7.683
   20POPC   GL2  725   6.593   0.980   7.672
   20POPC   C1A  726   6.585   1.392   7.255
   20POPC   D2A  727   6.536   1.619   6.870
   20POPC   C3A  728   6.422   1.399   6.501
   20POPC   C4A  729   6.326   1.379   6.058
   20POPC   C1B  730   6.844   0.954   7.325
   20POPC   C2B  731   6.683   1.002   6.925
   20POPC   C3B  732   6.844   0.965   6.545
   20POPC   C4B  733   6.773   1.157   6.188
   21POPC   NC3  734   0.402   6.311   8.106
   21POPC   PO4  735   0.591   7.002   7.997
   21POPC   GL1  736   0.275   6.835   7.707
   21POPC   GL2  737   0.380   6.480   7.628
   21POPC   C1A  738   0.090   6.736   7.287
   21POPC   D2A  739   0.234   6.510   6.922
   21POPC   C3A  740   0.062   6.728   6.580
   21POPC   C4A  741   0.214   6.872   6.171
   21POPC   C1B  742   0.599   6.600   7.268
   21POPC   C2B  743   0.746   6.429   6.857
   21POPC   C3B  744   0.550   6.543   6.449
   21POPC   C4B  745   0.520   6.454   5.995
   22POPC   NC3  746   2.392   6.199   8.189
   22POPC   PO4  747   2.212   6.781   8.098
   22POPC   GL1  748   1.885   6.819   7.806
   22POPC   GL2  749   1.909   6.492   7.695
   22POPC   C1A  750   1.874   6.943   7.382
   22POPC   D2A  751   1.903   6.763   6.964
   22POPC   C3A  752   2.081   6.952   6.593
   22POPC   C4A  753   2.219   6.755   6.191
   22POPC   C1B  754   2.062   6.300   7.294
   22POPC   C2B  755   1.893   6.256   6.867
   22POPC   C3B  756   1.884   6.470   6.470
   22POPC   C4B  757   1.781   6.345   6.049
   23POPC   NC3  758  11.117   7.726   8.038
   23POPC   PO4  759  10.948   8.443   8.117
   23POPC   GL1  760  10.928   8.139   7.751
   23POPC   GL2  761  11.258   8.242   7.682
   23POPC   C1A  762  11.074   7.863   7.367
   23POPC   D2A  763  11.149   7.608   6.977
   23POPC   C3A  764  11.068   7.809   6.549
   23POPC   C4A  765  11.051   7.959   6.123
   23POPC   C1B  766  11.261   8.325   7.235
   23POPC   C2B  767  11.308   8.193   6.810
   23POPC   C3B  768  11.257   8.371   6.388
   23POPC   C4B  769  11.244   8.375   5.931
   24POPC   NC3  770   0.105   4.251   8.293
   24POPC   PO4  771   0.743   4.403   8.279
   24POPC   GL1  772   0.412   4.274   7.873
   24POPC   GL2  773   0.298   4.546   7.661
   24POPC   C1A  774   0.330   4.115   7.393
   24POPC   D2A  775   0.491   4.177   6.944
   24POPC   C3A  776   0.304   4.023   6.553
   24POPC   C4A  777   0.378   4.090   6.089
   24POPC   C1B  778   0.585   4.551   7.298
   24POPC   C2B  779   0.605   4.662   6.840
   24POPC   C3B  780   0.417   4.525   6.440
   24POPC   C4B  781   0.080   4.510   6.136
   25POPC   NC3  782   1.152   1.142   8.067
   25POPC   PO4  783   1.524   1.631   8.067
   25POPC   GL1  784   1.237   1.524   7.707
   25POPC   GL2  785   1.211   1.164   7.582
   25POPC   C1A  786   1.250   1.554   7.243
   25POPC   D2A  787   1.027   1.444   6.846
   25POPC   C3A  788   1.245   1.577   6.502
   25POPC   C4A  789   1.352   1.440   6.118
   25POPC   C1B  790   1.141   1.008   7.181
   25POPC   C2B  791   1.193   0.952   6.771
   25POPC   C3B  792   1.065   1.073   6.393
   25POPC   C4B  793   1.181   0.989   5.976
   26POPC   NC3  794   1.221   9.595   8.095
   26POPC   PO4  795   1.686   9.230   7.847
   26POPC   GL1  796   1.465   9.604   7.612
   26POPC   GL2  797   1.187   9.839   7.671
   26POPC   C1A  798   1.406   9.745   7.192
   26POPC   D2A  799   1.224   9.420   6.953
   26POPC   C3A  800   1.321   9.398   6.542
   26POPC   C4A  801   1.236   9.529   6.170
   26POPC   C1B  802   0.933   9.697   7.372
   26POPC   C2B  803   0.929   9.845   6.971
   26POPC   C3B  804   1.118   9.852   6.599
   26POPC   C4B  805   0.862   9.844   6.245
   27POPC   NC3  806   5.278   2.548   8.211
   27POPC   PO4  807   5.466   1.956   8.076
   27POPC   GL1  808   5.402   1.738   7.674
   27POPC   GL2  809   5.772   1.733   7.552
   27POPC   C1A  810   5.323   1.893   7.232
   27POPC   D2A  811   5.621   2.068   6.921
   27POPC   C3A  812   5.491   2.107   6.486
   27POPC   C4A  813   5.725   2.157   6.097
   27POPC   C1B  814   5.658   1.525   7.183
   27POPC   C2B  815   5.532   1.595   6.741
   27POPC   C3B  816   5.851   1.746   6.442
   27POPC   C4B  817   6.128   1.827   6.097
   28POPC   NC3  818   7.679   0.275   7.964
   28POPC   PO4  819   7.162  11.432   8.270
   28POPC   GL1  820   7.106   0.242   7.832
   28POPC   GL2  821   7.264   0.593   7.834
   28POPC   C1A  822   7.157   0.153   7.323
   28POPC   D2A  823   6.943   0.011   6.935
   28POPC   C3A  824   7.125  11.498   6.520
   28POPC   C4A  825   7.020   0.159   6.095
   28POPC   C1B  826   7.270   0.645   7.381
   28POPC   C2B  827   7.406   0.497   6.969
   28POPC   C3B  828   7.451   0.389   6.529
   28POPC   C4B  829   7.290   0.589   6.145
   29POPC   NC3  830   7.960   8.730   8.103
   29POPC   PO4  831   8.585   8.623   8.111
   29POPC   GL1  832   8.346   8.818   7.729
   29POPC   GL2  833   8.000   9.020   7.689
   29POPC   C1A  834   8.090   8.632   7.360
   29POPC   D2A  835   7.898   8.773   6.947
   29POPC   C3A  836   8.140   8.651   6.589
   29POPC   C4A  837   8.000   8.541   6.186
   29POPC   C1B  838   8.055   9.119   7.273
   29POPC   C2B  839   8.361   9.002   6.982
   29POPC   C3B  840   8.377   9.102   6.590
   29POPC   C4B  841   8.024   9.069   6.302
   30POPC   NC3  842   6.373   9.610   8.198
   30POPC   PO4  843   6.888   9.194   8.097
   30POPC   GL1  844   6.738   9.520   7.747
   30POPC   GL2  845   6.450   9.785   7.710
   30POPC   C1A  846   6.808   9.637   7.282
   30POPC   D2A  847   6.756   9.502   6.841
   30POPC   C3A  848   6.735   9.768   6.464
   30POPC   C4A  849   6.773   9.434   6.139
   30POPC   C1B  850   6.273   9.690   7.333
   30POPC   C2B  851   6.357   9.795   6.952
   30POPC   C3B  852   6.229   9.676   6.563
   30POPC   C4B  853   6.128   9.832   6.191
   31POPC   NC3  854   2.357   5.353   8.216
   31POPC   PO4  855   3.066   5.298   8.172
   31POPC   GL1  856   2.727   5.464   7.834
   31POPC   GL2  857   2.593   5.819   7.845
   31POPC   C1A  858   2.691   5.533   7.335
   31POPC   D2A  859   2.874   5.544   6.873
   31POPC   C3A  860   2.673   5.479   6.450
   31POPC   C4A  861   2.866   5.528   6.027
   31POPC   C1B  862   2.621   6.028   7.415
   31POPC   C2B  863   2.725   6.028   6.949
   31POPC   C3B  864   2.648   6.002   6.479
   31POPC   C4B  865   2.247   6.144   6.278
   32POPC   NC3  866   8.103   2.056   8.224
   32POPC   PO4  867   7.903   1.557   7.836
   32POPC   GL1  868   8.117   1.797   7.558
   32POPC   GL2  869   8.326   2.029   7.750
   32POPC   C1A  870   8.425   1.630   7.270
   32POPC   D2A  871   8.481   1.559   6.825
   32POPC   C3A  872   8.056   1.621   6.628
   32POPC   C4A  873   7.791   1.594   6.237
   32POPC   C1B  874   8.442   2.139   7.337
   32POPC   C2B  875   8.242   1.995   6.958
   32POPC   C3B  876   8.132   2.150   6.576
   32POPC   C4B  877   8.193   1.891   6.213
   33POPC   NC3  878   4.595  10.958   8.049
   33POPC   PO4  879   4.207  10.372   8.251
   33POPC   GL1  880   4.515  10.280   7.741
   33POPC   GL2  881   4.283  10.422   7.442
   33POPC   C1A  882   4.724  10.299   7.303
   33POPC   D2A  883   4.649  10.624   6.966
   33POPC   C3A  884   4.726  10.403   6.560
   33POPC   C4A  885   4.742  10.515   6.131
   33POPC   C1B  886   4.028  10.123   7.246
   33POPC   C2B  887   3.919   9.959   6.846
   33POPC   C3B  888   3.929  10.138   6.414
   33POPC   C4B  889   4.265  10.423   6.296
   34POPC   NC3  890   7.323   8.119   8.007
   34POPC   PO4  891   6.763   8.299   7.952
   34POPC   GL1  892   7.115   8.477   7.659
   34POPC   GL2  893   7.448   8.358   7.571
   34POPC   C1A  894   7.129   8.453   7.193
   34POPC   D2A  895   7.265   8.213   6.798
   34POPC   C3A  896   7.113   8.326   6.372
   34POPC   C4A  897   6.777   8.142   6.129
   34POPC   C1B  898   7.652   8.363   7.172
   34POPC   C2B  899   7.765   8.321   6.740
   34POPC   C3B  900   7.614   8.235   6.336
   34POPC   C4B  901   7.661   8.290   5.882
   35POPC   NC3  902   0.987   6.795   7.885
   35POPC   PO4  903   0.941   6.144   8.120
   35POPC   GL1  904   1.053   6.333   7.697
   35POPC   GL2  905   1.388   6.485   7.726
   35POPC   C1A  906   1.090   6.544   7.265
   35POPC   D2A  907   0.985   6.866   6.924
   35POPC   C3A  908   1.068   6.659   6.495
   35POPC   C4A  909   1.028   6.511   6.060
   35POPC   C1B  910   1.584   6.487   7.294
   35POPC   C2B  911   1.439   6.591   6.873
   35POPC   C3B  912   1.559   6.855   6.563
   35POPC   C4B  913   1.486   6.755   6.149
   36POPC   NC3  914   3.267   5.716   8.150
   36POPC   PO4  915   3.051   6.282   8.317
   36POPC   GL1  916   3.060   6.153   7.802
   36POPC   GL2  917   3.070   5.814   7.663
   36POPC   C1A  918   3.131   6.160   7.276
   36POPC   D2A  919   3.214   5.964   6.821
   36POPC   C3A  920   3.319   6.175   6.375
   36POPC   C4A  921   3.366   6.397   5.949
   36POPC   C1B  922   3.215   5.651   7.262
   36POPC   C2B  923   3.583   5.639   6.974
   36POPC   C3B  924   3.561   5.698   6.537
   36POPC   C4B  925   3.145   5.706   6.386
   37POPC   NC3  926   8.319   0.612   8.003
   37POPC   PO4  927   8.126   0.019   8.021
   37POPC   GL1  928   8.332   0.205   7.644
   37POPC   GL2  929   8.053   0.440   7.583
   37POPC   C1A  930   8.421   0.355   7.192
   37POPC   D2A  931   8.090   0.339   6.833
   37POPC   C3A  932   8.202   0.390   6.388
   37POPC   C4A  933   8.324   0.103   6.024
   37POPC   C1B  934   7.830   0.665   7.235
   37POPC   C2B  935   7.799   0.774   6.781
   37POPC   C3B  936   7.796   0.688   6.308
   37POPC   C4B  937   7.723   0.671   5.860
   38POPC   NC3  938   1.567   2.607   7.918
   38POPC   PO4  939   1.014   2.952   8.105
   38POPC   GL1  940   1.017   2.736   7.730
   38POPC   GL2  941   1.267   2.965   7.642
   38POPC   C1A  942   1.193   2.561   7.320
   38POPC   D2A  943   1.305   2.672   6.895
   38POPC   C3A  944   1.354   2.459   6.495
   38POPC   C4A  945   1.372   2.633   6.084
   38POPC   C1B  946   1.020   3.107   7.325
   38POPC   C2B  947   0.885   2.974   6.951
   38POPC   C3B  948   1.076   3.020   6.582
   38POPC   C4B  949   0.897   2.899   6.212
   39POPC   NC3  950   0.596   2.736   8.121
   39POPC   PO4  951   0.744   2.131   7.978
   39POPC   GL1  952   0.556   2.452   7.696
   39POPC   GL2  953   0.278   2.700   7.697
   39POPC   C1A  954   0.675   2.677   7.338
   39POPC   D2A  955   0.810   2.428   6.999
   39POPC   C3A  956   0.881   2.559   6.601
   39POPC   C4A  957   0.885   2.396   6.157
   39POPC   C1B  958   0.159   2.753   7.247
   39POPC   C2B  959   0.399   2.722   6.865
   39POPC   C3B  960   0.442   2.748   6.422
   39POPC   C4B  961   0.110   2.757   6.120
   40POPC   NC3  962   5.004   1.805   8.095
   40POPC   PO4  963   4.754   2.473   8.152
   40POPC   GL1  964   4.922   2.238   7.780
   40POPC   GL2  965   4.718   1.978   7.704
   40POPC   C1A  966   4.893   2.205   7.282
   40POPC   D2A  967   5.124   2.218   6.855
   40POPC   C3A  968   5.012   2.309   6.400
   40POPC   C4A  969   5.270   2.430   6.030
   40POPC   C1B  970   4.883   1.670   7.389
   40POPC   C2B  971   4.845   1.806   6.938
   40POPC   C3B  972   5.044   1.817   6.535
   40POPC   C4B  973   4.854   1.688   6.147
   41POPC   NC3  974   8.851  10.620   8.059
   41POPC   PO4  975   8.350  10.123   8.211
   41POPC   GL1  976   8.468  10.413   7.810
   41POPC   GL2  977   8.793  10.347   7.635
   41POPC   C1A  978   8.403  10.450   7.314
   41POPC   D2A  979   8.522  10.211   6.898
   41POPC   C3A  980   8.549  10.483   6.512
   41POPC   C4A  981   8.506  10.647   6.064
   41POPC   C1B  982   8.905  10.194   7.242
   41POPC   C2B  983   9.023  10.325   6.813
   41POPC   C3B  984   8.925  10.180   6.406
   41POPC   C4B  985   8.961  10.434   6.079
   42POPC   NC3  986   7.527   2.222   8.041
   42POPC   PO4  987   7.828   1.703   8.340
   42POPC   GL1  988   7.454   1.732   7.863
   42POPC   GL2  989   7.616   1.969   7.619
   42POPC   C1A  990   7.519   1.603   7.321
   42POPC   D2A  991   7.751   1.869   6.969
   42POPC   C3A  992   7.651   1.989   6.495
   42POPC   C4A  993   7.349   1.860   6.149
   42POPC   C1B  994   7.356   2.079   7.241
   42POPC   C2B  995   7.262   1.938   6.819
   42POPC   C3B  996   7.177   2.216   6.466
   42POPC   C4B  997   6.930   2.154   6.082
   43POPC   NC3  998   7.604   1.228   7.969
   43POPC   PO4  999   6.900   1.231   8.058
   43POPC   GL1 1000   6.993   1.367   7.650
   43POPC   GL2 1001   7.234   1.111   7.639
   43POPC   C1A 1002   7.088   1.384   7.205
   43POPC   D2A 1003   6.988   1.410   6.783
   43POPC   C3A 1004   7.266   1.432   6.433
   43POPC   C4A 1005   7.159   1.430   5.980
   43POPC   C1B 1006   7.494   1.082   7.287
   43POPC   C2B 1007   7.254   0.979   6.928
   43POPC   C3B 1008   7.361   0.917   6.524
   43POPC   C4B 1009   7.479   1.065   6.117
   44POPC   NC3 1010   1.912   9.653   7.835
   44POPC   PO4 1011   2.326   9.166   8.051
   44POPC   GL1 1012   2.309   9.398   7.661
   44POPC   GL2 1013   2.050   9.255   7.483
   44POPC   C1A 1014   2.334   9.621   7.234
   44POPC   D2A 1015   2.343   9.385   6.853
   44POPC   C3A 1016   2.110   9.447   6.485
   44POPC   C4A 1017   2.132   9.730   6.154
   44POPC   C1B 1018   1.878   9.294   7.066
   44POPC   C2B 1019   1.720   9.623   6.790
   44POPC   C3B 1020   1.659   9.742   6.373
   44POPC   C4B 1021   1.698   9.925   5.991
   45POPC   NC3 1022  11.056   3.465   8.008
   45POPC   PO4 1023   0.102   3.227   7.736
   45POPC   GL1 1024  11.188   3.461   7.525
   45POPC   GL2 1025  11.018   3.824   7.664
   45POPC   C1A 1026  10.868   3.650   7.210
   45POPC   D2A 1027  10.747   3.436   6.845
   45POPC   C3A 1028  11.071   3.203   6.641
   45POPC   C4A 1029  11.028   3.196   6.199
   45POPC   C1B 1030  11.302   3.936   7.353
   45POPC   C2B 1031  11.319   3.747   6.953
   45POPC   C3B 1032  11.143   3.714   6.548
   45POPC   C4B 1033  11.436   3.509   6.268
   46POPC   NC3 1034   8.823   8.232   8.015
   46POPC   PO4 1035   8.476   7.764   7.793
   46POPC   GL1 1036   8.850   7.906   7.578
   46POPC   GL2 1037   8.834   8.254   7.503
   46POPC   C1A 1038   9.022   7.856   7.154
   46POPC   D2A 1039   9.051   7.983   6.702
   46POPC   C3A 1040   8.928   7.795   6.299
   46POPC   C4A 1041   8.650   7.766   5.906
   46POPC   C1B 1042   8.836   8.352   7.055
   46POPC   C2B 1043   9.157   8.480   6.767
   46POPC   C3B 1044   9.128   8.341   6.332
   46POPC   C4B 1045   8.931   8.177   5.956
   47POPC   NC3 1046   1.529   8.266   8.234
   47POPC   PO4 1047   0.974   7.922   8.083
   47POPC   GL1 1048   1.050   8.090   7.687
   47POPC   GL2 1049   0.991   7.770   7.564
   47POPC   C1A 1050   1.249   8.239   7.286
   47POPC   D2A 1051   1.258   8.536   6.944
   47POPC   C3A 1052   1.319   8.441   6.485
   47POPC   C4A 1053   1.059   8.329   6.114
   47POPC   C1B 1054   1.191   7.719   7.168
   47POPC   C2B 1055   1.280   8.004   6.814
   47POPC   C3B 1056   1.259   7.943   6.370
   47POPC   C4B 1057   1.505   7.718   6.113
   48POPC   NC3 1058   0.605  10.418   8.109
   48POPC   PO4 1059   0.060  10.063   8.249
   48POPC   GL1 1060   0.280  10.136   7.789
   48POPC   GL2 1061   0.371  10.496   7.671
   48POPC   C1A 1062   0.611  10.123   7.413
   48POPC   D2A 1063   0.468  10.050   6.975
   48POPC   C3A 1064   0.719  10.192   6.631
   48POPC   C4A 1065   0.718  10.382   6.240
   48POPC   C1B 1066   0.209  10.409   7.271
   48POPC   C2B 1067   0.341  10.534   6.874
   48POPC   C3B 1068   0.270  10.449   6.464
   48POPC   C4B 1069   0.208  10.772   6.191
   49POPC   NC3 1070   1.208   3.377   8.073
   49POPC   PO4 1071   0.751   3.895   7.904
   49POPC   GL1 1072   1.154   3.810   7.649
   49POPC   GL2 1073   1.410   3.543   7.646
   49POPC   C1A 1074   1.275   3.718   7.196
   49POPC   D2A 1075   1.082   3.472   6.858
   49POPC   C3A 1076   1.107   3.705   6.449
   49POPC   C4A 1077   1.122   3.619   6.009
   49POPC   C1B 1078   1.524   3.265   7.305
   49POPC   C2B 1079   1.470   3.140   6.917
   49POPC   C3B 1080   1.472   3.351   6.540
   49POPC   C4B 1081   1.304   3.194   6.171
   50POPC   NC3 1082   1.901   7.089   8.234
   50POPC   PO4 1083   1.284   7.068   8.088
   50POPC   GL1 1084   1.406   7.010   7.669
   50POPC   GL2 1085   1.276   7.352   7.660
   50POPC   C1A 1086   1.397   6.973   7.220
   50POPC   D2A 1087   1.328   7.283   6.914
   50POPC   C3A 1088   1.156   7.162   6.530
   50POPC   C4A 1089   1.375   7.245   6.177
   50POPC   C1B 1090   0.988   7.254   7.358
   50POPC   C2B 1091   0.812   7.369   6.975
   50POPC   C3B 1092   0.989   7.620   6.659
   50POPC   C4B 1093   0.966   7.538   6.226
   51POPC   NC3 1094   3.449   9.479   8.269
   51POPC   PO4 1095   3.485  10.140   8.166
   51POPC   GL1 1096   3.476   9.921   7.786
   51POPC   GL2 1097   3.670   9.629   7.762
   51POPC   C1A 1098   3.553   9.943   7.347
   51POPC   D2A 1099   3.257   9.826   7.038
   51POPC   C3A 1100   3.468   9.794   6.670
   51POPC   C4A 1101   3.457   9.981   6.300
   51POPC   C1B 1102   3.471   9.437   7.373
   51POPC   C2B 1103   3.333   9.333   6.920
   51POPC   C3B 1104   3.514   9.327   6.471
   51POPC   C4B 1105   3.799   9.291   6.093
   52POPC   NC3 1106   8.965   3.312   8.226
   52POPC   PO4 1107   9.139   3.883   8.105
   52POPC   GL1 1108   9.227   3.604   7.730
   52POPC   GL2 1109   8.986   3.320   7.720
   52POPC   C1A 1110   9.096   3.590   7.277
   52POPC   D2A 1111   8.816   3.549   6.908
   52POPC   C3A 1112   8.961   3.643   6.487
   52POPC   C4A 1113   8.860   3.822   6.082
   52POPC   C1B 1114   8.849   3.141   7.324
   52POPC   C2B 1115   9.034   3.095   6.932
   52POPC   C3B 1116   8.790   3.133   6.577
   52POPC   C4B 1117   8.655   3.348   6.185
   53POPC   NC3 1118   1.730   5.317   7.995
   53POPC   PO4 1119   2.193   5.785   8.187
   53POPC   GL1 1120   2.136   5.589   7.763
   53POPC   GL2 1121   1.782   5.690   7.653
   53POPC   C1A 1122   2.150   5.712   7.297
   53POPC   D2A 1123   1.919   5.733   6.894
   53POPC   C3A 1124   2.159   5.685   6.502
   53POPC   C4A 1125   1.993   5.478   6.121
   53POPC   C1B 1126   1.650   5.962   7.307
   53POPC   C2B 1127   1.406   6.094   6.951
   53POPC   C3B 1128   1.457   6.183   6.516
   53POPC   C4B 1129   1.735   5.895   6.289
   54POPC   NC3 1130  11.056   9.807   8.141
   54POPC   PO4 1131  11.493   9.276   8.090
   54POPC   GL1 1132  11.463   9.440   7.657
   54POPC   GL2 1133  11.164   9.630   7.691
   54POPC   C1A 1134  11.283   9.580   7.217
   54POPC   D2A 1135  11.284   9.847   6.834
   54POPC   C3A 1136  11.443   9.633   6.483
   54POPC   C4A 1137  11.468   9.637   6.057
   54POPC   C1B 1138  10.874   9.849   7.399
   54POPC   C2B 1139  10.813   9.670   6.960
   54POPC   C3B 1140  10.919   9.586   6.523
   54POPC   C4B 1141  11.099   9.300   6.240
   55POPC   NC3 1142  10.780   5.081   8.057
   55POPC   PO4 1143  10.172   5.450   8.115
   55POPC   GL1 1144  10.286   5.274   7.702
   55POPC   GL2 1145  10.450   4.956   7.673
   55POPC   C1A 1146  10.381   5.384   7.272
   55POPC   D2A 1147  10.473   5.260   6.833
   55POPC   C3A 1148  10.190   5.255   6.513
   55POPC   C4A 1149  10.179   4.910   6.254
   55POPC   C1B 1150  10.674   4.807   7.309
   55POPC   C2B 1151  10.616   4.759   6.868
   55POPC   C3B 1152  10.662   4.894   6.435
   55POPC   C4B 1153  10.574   4.681   6.030
   56POPC   NC3 1154   5.936   0.484   8.126
   56POPC   PO4 1155   5.281   0.333   8.273
   56POPC   GL1 1156   5.475   0.496   7.795
   56POPC   GL2 1157   5.711   0.748   7.744
   56POPC   C1A 1158   5.783   0.393   7.389
   56POPC   D2A 1159   5.709   0.247   6.938
   56POPC   C3A 1160   6.032   0.205   6.603
   56POPC   C4A 1161   5.982   0.109   6.158
   56POPC   C1B 1162   6.113   0.793   7.494
   56POPC   C2B 1163   6.153   0.852   7.032
   56POPC   C3B 1164   5.863   0.726   6.696
   56POPC   C4B 1165   5.783   0.558   6.296
   57POPC   NC3 1166   9.510  10.988   8.198
   57POPC   PO4 1167   9.212  10.643   7.751
   57POPC   GL1 1168   9.471  10.992   7.637
   57POPC   GL2 1169   9.495  11.362   7.694
   57POPC   C1A 1170   9.469  11.149   7.207
   57POPC   D2A 1171   9.719  11.024   6.845
   57POPC   C3A 1172   9.514  10.965   6.438
   57POPC   C4A 1173   9.764  11.021   6.054
   57POPC   C1B 1174   9.797   0.003   7.364
   57POPC   C2B 1175   9.659   0.051   6.896
   57POPC   C3B 1176   9.678  11.446   6.435
   57POPC   C4B 1177   9.760   0.019   5.984
   58POPC   NC3 1178  10.550   8.335   8.343
   58POPC   PO4 1179   9.979   8.472   7.922
   58POPC   GL1 1180  10.071   8.301   7.578
   58POPC   GL2 1181  10.257   7.996   7.679
   58POPC   C1A 1182  10.173   8.227   7.172
   58POPC   D2A 1183  10.345   8.081   6.806
   58POPC   C3A 1184  10.261   8.312   6.467
   58POPC   C4A 1185  10.260   8.188   6.048
   58POPC   C1B 1186  10.590   8.014   7.359
   58POPC   C2B 1187  10.816   8.185   7.003
   58POPC   C3B 1188  10.780   8.252   6.558
   58POPC   C4B 1189  10.583   7.917   6.318
   59POPC   NC3 1190   4.626   1.214   8.048
   59POPC   PO4 1191   4.120   0.764   8.088
   59POPC   GL1 1192   4.012   1.039   7.739
   59POPC   GL2 1193   4.356   1.029   7.648
   59POPC   C1A 1194   3.888   0.932   7.300
   59POPC   D2A 1195   4.137   0.942   6.931
   59POPC   C3A 1196   3.977   0.956   6.551
   59POPC   C4A 1197   4.301   1.147   6.400
   59POPC   C1B 1198   4.270   1.286   7.287
   59POPC   C2B 1199   4.517   1.412   6.941
   59POPC   C3B 1200   4.574   1.536   6.543
   59POPC   C4B 1201   4.163   1.650   6.365
   60POPC   NC3 1202   1.350   4.919   8.164
   60POPC   PO4 1203   2.047   5.025   8.148
   60POPC   GL1 1204   1.963   4.906   7.737
   60POPC   GL2 1205   1.899   5.195   7.535
   60POPC   C1A 1206   2.024   4.748   7.322
   60POPC   D2A 1207   1.925   5.044   6.987
   60POPC   C3A 1208   1.877   4.813   6.604
   60POPC   C4A 1209   1.814   5.019   6.236
   60POPC   C1B 1210   2.278   5.218   7.336
   60POPC   C2B 1211   2.351   5.365   6.895
   60POPC   C3B 1212   2.243   5.185   6.471
   60POPC   C4B 1213   2.447   5.188   6.052
   61POPC   NC3 1214   9.802   5.165   8.232
   61POPC   PO4 1215   9.757   4.506   8.026
   61POPC   GL1 1216   9.931   4.864   7.740
   61POPC   GL2 1217   9.773   5.212   7.729
   61POPC   C1A 1218  10.057   4.986   7.294
   61POPC   D2A 1219  10.102   4.866   6.836
   61POPC   C3A 1220   9.755   4.969   6.503
   61POPC   C4A 1221   9.651   4.777   6.099
   61POPC   C1B 1222   9.556   5.088   7.354
   61POPC   C2B 1223   9.548   5.188   6.908
   61POPC   C3B 1224   9.330   5.264   6.520
   61POPC   C4B 1225   9.414   5.223   6.088
   62POPC   NC3 1226  11.287  11.118   8.047
   62POPC   PO4 1227  10.745   0.008   8.140
   62POPC   GL1 1228  11.071   0.000   7.781
   62POPC   GL2 1229  10.814  11.422   7.565
   62POPC   C1A 1230  11.292   0.026   7.365
   62POPC   D2A 1231  11.052   0.026   6.979
   62POPC   C3A 1232  11.315  11.488   6.627
   62POPC   C4A 1233  11.225   0.009   6.200
   62POPC   C1B 1234  11.000  11.109   7.308
   62POPC   C2B 1235  11.144  11.030   6.893
   62POPC   C3B 1236  11.262  10.994   6.456
   62POPC   C4B 1237  10.994  10.794   6.133
   63POPC   NC3 1238  10.208   3.394   8.226
   63POPC   PO4 1239  10.676   3.298   7.762
   63POPC   GL1 1240  10.288   3.277   7.581
   63POPC   GL2 1241  10.197   3.595   7.746
   63POPC   C1A 1242  10.313   3.286   7.117
   63POPC   D2A 1243  10.253   3.353   6.670
   63POPC   C3A 1244  10.599   3.498   6.354
   63POPC   C4A 1245  10.614   3.324   5.912
   63POPC   C1B 1246  10.157   3.750   7.338
   63POPC   C2B 1247  10.354   3.768   6.930
   63POPC   C3B 1248  10.200   3.869   6.536
   63POPC   C4B 1249  10.228   3.725   6.105
   64POPC   NC3 1250   6.736   0.069   8.244
   64POPC   PO4 1251   6.385   0.559   8.216
   64POPC   GL1 1252   6.338   0.403   7.763
   64POPC   GL2 1253   6.588   0.126   7.721
   64POPC   C1A 1254   6.299   0.351   7.282
   64POPC   D2A 1255   6.487   0.260   6.861
   64POPC   C3A 1256   6.406   0.596   6.559
   64POPC   C4A 1257   6.274   0.517   6.145
   64POPC   C1B 1258   6.773   0.462   7.462
   64POPC   C2B 1259   6.901   0.539   7.010
   64POPC   C3B 1260   6.914   0.457   6.550
   64POPC   C4B 1261   6.776   0.634   6.141
   65POPC   NC3 1262   4.671  10.368   8.216
   65POPC   PO4 1263   5.001  10.978   8.281
   65POPC   GL1 1264   4.954  10.628   7.864
   65POPC   GL2 1265   4.744  10.738   7.561
   65POPC   C1A 1266   5.182  10.422   7.470
   65POPC   D2A 1267   5.105  10.433   6.960
   65POPC   C3A 1268   5.155  10.115   6.617
   65POPC   C4A 1269   5.049  10.116   6.161
   65POPC   C1B 1270   5.115  10.863   7.253
   65POPC   C2B 1271   5.290  10.898   6.805
   65POPC   C3B 1272   5.172  10.666   6.405
   65POPC   C4B 1273   5.227  10.571   5.934
   66POPC   NC3 1274   0.022   5.425   8.054
   66POPC   PO4 1275   0.015   4.682   8.095
   66POPC   GL1 1276  11.197   4.817   7.817
   66POPC   GL2 1277  11.176   5.188   7.757
   66POPC   C1A 1278  11.174   4.873   7.372
   66POPC   D2A 1279  11.115   4.656   7.001
   66POPC   C3A 1280  11.144   4.888   6.648
   66POPC   C4A 1281  11.145   4.754   6.255
   66POPC   C1B 1282  10.857   5.281   7.438
   66POPC   C2B 1283  10.927   5.161   7.019
   66POPC   C3B 1284  10.938   5.363   6.613
   66POPC   C4B 1285  10.629   5.397   6.302
   67POPC   NC3 1286   7.912  10.277   8.079
   67POPC   PO4 1287   8.452   9.933   7.714
   67POPC   GL1 1288   8.066  10.144   7.608
   67POPC   GL2 1289   8.008  10.532   7.657
   67POPC   C1A 1290   7.889  10.283   7.212
   67POPC   D2A 1291   8.072  10.437   6.837
   67POPC   C3A 1292   8.155  10.137   6.523
   67POPC   C4A 1293   7.773  10.212   6.356
   67POPC   C1B 1294   7.807  10.752   7.359
   67POPC   C2B 1295   7.699  10.793   6.918
   67POPC   C3B 1296   7.960  10.899   6.618
   67POPC   C4B 1297   8.094  10.624   6.334
   68POPC   NC3 1298   4.544   2.823   8.452
   68POPC   PO4 1299   3.981   2.556   8.102
   68POPC   GL1 1300   4.188   2.632   7.699
   68POPC   GL2 1301   4.002   2.932   7.647
   68POPC   C1A 1302   4.498   2.590   7.315
   68POPC   D2A 1303   4.537   2.318   6.929
   68POPC   C3A 1304   4.589   2.558   6.542
   68POPC   C4A 1305   4.481   2.439   6.118
   68POPC   C1B 1306   3.987   2.731   7.230
   68POPC   C2B 1307   4.174   2.764   6.795
   68POPC   C3B 1308   4.163   2.795   6.324
   68POPC   C4B 1309   4.431   2.944   5.974
   69POPC   NC3 1310   1.392   6.199   8.195
   69POPC   PO4 1311   1.245   5.528   8.017
   69POPC   GL1 1312   1.232   5.858   7.714
   69POPC   GL2 1313   1.298   5.610   7.484
   69POPC   C1A 1314   1.031   6.011   7.284
   69POPC   D2A 1315   0.948   5.887   6.810
   69POPC   C3A 1316   0.937   6.138   6.418
   69POPC   C4A 1317   0.825   6.056   5.962
   69POPC   C1B 1318   1.596   5.448   7.203
   69POPC   C2B 1319   1.402   5.584   6.820
   69POPC   C3B 1320   1.261   5.707   6.416
   69POPC   C4B 1321   1.496   5.417   6.215
   70POPC   NC3 1322   3.525   0.089   8.141
   70POPC   PO4 1323   3.335  10.828   8.115
   70POPC   GL1 1324   3.516  10.954   7.708
   70POPC   GL2 1325   3.587  11.314   7.705
   70POPC   C1A 1326   3.782  10.984   7.322
   70POPC   D2A 1327   3.923  11.272   7.006
   70POPC   C3A 1328   3.761  11.167   6.588
   70POPC   C4A 1329   3.758  11.231   6.131
   70POPC   C1B 1330   3.338  11.297   7.318
   70POPC   C2B 1331   3.161  11.362   6.892
   70POPC   C3B 1332   3.297  11.345   6.435
   70POPC   C4B 1333   3.354  10.910   6.278
   71POPC   NC3 1334  11.124   4.454   8.243
   71POPC   PO4 1335  11.418   3.897   8.026
   71POPC   GL1 1336  11.371   4.274   7.791
   71POPC   GL2 1337  11.030   4.330   7.760
   71POPC   C1A 1338  11.424   4.436   7.365
   71POPC   D2A 1339  11.497   4.244   6.980
   71POPC   C3A 1340  11.375   4.329   6.568
   71POPC   C4A 1341  11.391   4.028   6.217
   71POPC   C1B 1342  10.941   4.325   7.352
   71POPC   C2B 1343  10.995   4.158   6.941
   71POPC   C3B 1344  10.885   4.434   6.575
   71POPC   C4B 1345  10.963   4.286   6.176
   72POPC   NC3 1346   9.371   4.275   8.083
   72POPC   PO4 1347   9.998   3.880   8.152
   72POPC   GL1 1348   9.824   3.952   7.727
   72POPC   GL2 1349  10.004   4.196   7.538
   72POPC   C1A 1350   9.587   3.807   7.342
   72POPC   D2A 1351   9.327   3.865   6.925
   72POPC   C3A 1352   9.432   3.885   6.481
   72POPC   C4A 1353   9.795   4.043   6.290
   72POPC   C1B 1354   9.762   4.552   7.350
   72POPC   C2B 1355   9.641   4.677   6.935
   72POPC   C3B 1356   9.627   4.473   6.528
   72POPC   C4B 1357   9.350   4.357   6.199
   73POPC   NC3 1358   2.666   8.121   8.063
   73POPC   PO4 1359   2.188   7.461   8.258
   73POPC   GL1 1360   2.105   7.439   7.829
   73POPC   GL2 1361   1.791   7.332   7.774
   73POPC   C1A 1362   2.135   7.476   7.376
   73POPC   D2A 1363   2.192   7.747   7.023
   73POPC   C3A 1364   2.178   7.540   6.618
   73POPC   C4A 1365   2.014   7.629   6.177
   73POPC   C1B 1366   1.644   7.405   7.340
   73POPC   C2B 1367   1.844   7.292   6.958
   73POPC   C3B 1368   1.718   7.337   6.538
   73POPC   C4B 1369   1.854   7.125   6.164
   74POPC   NC3 1370  10.590   1.288   8.352
   74POPC   PO4 1371  10.106   0.817   8.284
   74POPC   GL1 1372  10.239   1.016   7.868
   74POPC   GL2 1373  10.242   1.398   7.818
   74POPC   C1A 1374  10.350   1.054   7.425
   74POPC   D2A 1375  10.031   0.986   7.110
   74POPC   C3A 1376  10.079   1.051   6.669
   74POPC   C4A 1377  10.466   1.044   6.385
   74POPC   C1B 1378  10.152   1.500   7.342
   74POPC   C2B 1379  10.326   1.402   6.936
   74POPC   C3B 1380  10.259   1.509   6.494
   74POPC   C4B 1381  10.380   1.460   6.031
   75POPC   NC3 1382   0.558   4.740   8.031
   75POPC   PO4 1383   0.501   5.414   8.011
   75POPC   GL1 1384   0.524   5.111   7.674
   75POPC   GL2 1385   0.172   5.042   7.694
   75POPC   C1A 1386   0.649   5.057   7.239
   75POPC   D2A 1387   0.393   5.136   6.854
   75POPC   C3A 1388   0.590   5.057   6.482
   75POPC   C4A 1389   0.873   4.762   6.367
   75POPC   C1B 1390   0.175   4.875   7.262
   75POPC   C2B 1391   0.097   4.728   6.830
   75POPC   C3B 1392   0.103   4.945   6.418
   75POPC   C4B 1393   0.268   5.333   6.173
   76POPC   NC3 1394   0.977   7.444   8.093
   76POPC   PO4 1395   0.429   7.707   8.341
   76POPC   GL1 1396   0.565   7.662   7.847
   76POPC   GL2 1397   0.426   7.366   7.666
   76POPC   C1A 1398   0.552   7.706   7.343
   76POPC   D2A 1399   0.311   7.520   7.024
   76POPC   C3A 1400   0.495   7.627   6.640
   76POPC   C4A 1401   0.454   7.510   6.246
   76POPC   C1B 1402   0.506   7.108   7.332
   76POPC   C2B 1403   0.429   6.981   6.950
   76POPC   C3B 1404   0.381   7.132   6.581
   76POPC   C4B 1405   0.691   7.054   6.289
   77POPC   NC3 1406   2.038   4.366   8.035
   77POPC   PO4 1407   1.515   3.817   8.085
   77POPC   GL1 1408   1.561   4.143   7.741
   77POPC   GL2 1409   1.905   4.161   7.579
   77POPC   C1A 1410   1.507   4.319   7.296
   77POPC   D2A 1411   1.737   4.088   6.945
   77POPC   C3A 1412   1.615   4.161   6.495
   77POPC   C4A 1413   1.701   4.515   6.203
   77POPC   C1B 1414   2.196   4.010   7.219
   77POPC   C2B 1415   2.304   4.091   6.777
   77POPC   C3B 1416   2.111   4.331   6.437
   77POPC   C4B 1417   2.205   4.707   6.181
   78POPC   NC3 1418   7.123  10.247   8.023
   78POPC   PO4 1419   7.559  10.721   8.081
   78POPC   GL1 1420   7.495  10.471   7.668
   78POPC   GL2 1421   7.549  10.144   7.588
   78POPC   C1A 1422   7.328  10.630   7.228
   78POPC   D2A 1423   7.082  10.632   6.831
   78POPC   C3A 1424   7.382  10.526   6.518
   78POPC   C4A 1425   7.616  10.805   6.270
   78POPC   C1B 1426   7.184  10.163   7.326
   78POPC   C2B 1427   7.282  10.189   6.909
   78POPC   C3B 1428   7.225  10.036   6.500
   78POPC   C4B 1429   7.098  10.183   6.148
   79POPC   NC3 1430   2.017   1.115   8.073
   79POPC   PO4 1431   2.297   1.624   7.838
   79POPC   GL1 1432   2.068   1.326   7.578
   79POPC   GL2 1433   1.723   1.331   7.694
   79POPC   C1A 1434   2.119   1.155   7.136
   79POPC   D2A 1435   2.308   0.971   6.739
   79POPC   C3A 1436   2.102   1.191   6.384
   79POPC   C4A 1437   2.243   1.483   6.082
   79POPC   C1B 1438   1.632   1.127   7.303
   79POPC   C2B 1439   1.537   1.287   6.907
   79POPC   C3B 1440   1.580   1.169   6.491
   79POPC   C4B 1441   1.667   0.979   6.123
   80POPC   NC3 1442  10.401   9.113   8.181
   80POPC   PO4 1443  10.623   9.729   8.289
   80POPC   GL1 1444  10.546   9.707   7.808
   80POPC   GL2 1445  10.179   9.779   7.707
   80POPC   C1A 1446  10.469   9.554   7.343
   80POPC   D2A 1447  10.296   9.655   6.917
   80POPC   C3A 1448  10.367   9.572   6.470
   80POPC   C4A 1449  10.600   9.865   6.213
   80POPC   C1B 1450  10.146   9.994   7.292
   80POPC   C2B 1451   9.954  10.038   6.852
   80POPC   C3B 1452  10.144  10.074   6.403
   80POPC   C4B 1453  10.172   9.894   5.939
   81POPC   NC3 1454   1.881   3.547   8.005
   81POPC   PO4 1455   2.393   4.010   8.031
   81POPC   GL1 1456   2.215   3.752   7.669
   81POPC   GL2 1457   2.223   3.389   7.669
   81POPC   C1A 1458   1.835   3.686   7.365
   81POPC   D2A 1459   1.775   3.547   6.930
   81POPC   C3A 1460   1.961   3.775   6.589
   81POPC   C4A 1461   2.284   3.863   6.291
   81POPC   C1B 1462   2.050   3.221   7.269
   81POPC   C2B 1463   1.971   3.037   6.863
   81POPC   C3B 1464   1.973   3.268   6.490
   81POPC   C4B 1465   1.778   3.543   6.183
   82POPC   NC3 1466  10.310   2.113   8.009
   82POPC   PO4 1467   9.833   1.648   8.050
   82POPC   GL1 1468   9.681   1.730   7.642
   82POPC   GL2 1469   9.301   1.619   7.582
   82POPC   C1A 1470   9.911   1.954   7.312
   82POPC   D2A 1471  10.118   1.883   6.914
   82POPC   C3A 1472   9.868   1.845   6.510
   82POPC   C4A 1473   9.920   1.687   6.125
   82POPC   C1B 1474   9.416   1.869   7.227
   82POPC   C2B 1475   9.666   2.087   6.891
   82POPC   C3B 1476   9.603   2.322   6.485
   82POPC   C4B 1477   9.389   2.361   6.069
   83POPC   NC3 1478   0.825   5.688   8.204
   83POPC   PO4 1479   0.209   5.868   8.004
   83POPC   GL1 1480   0.362   5.757   7.649
   83POPC   GL2 1481   0.649   5.997   7.699
   83POPC   C1A 1482   0.318   5.458   7.312
   83POPC   D2A 1483   0.640   5.539   7.019
   83POPC   C3A 1484   0.490   5.570   6.591
   83POPC   C4A 1485   0.754   5.660   6.267
   83POPC   C1B 1486   0.512   6.087   7.262
   83POPC   C2B 1487   0.441   6.031   6.815
   83POPC   C3B 1488   0.432   6.043   6.355
   83POPC   C4B 1489   0.089   5.815   6.216
   84POPC   NC3 1490  10.339  10.109   8.103
   84POPC   PO4 1491  10.013  10.764   8.083
   84POPC   GL1 1492  10.166  10.444   7.723
   84POPC   GL2 1493  10.479  10.197   7.634
   84POPC   C1A 1494  10.304  10.525   7.289
   84POPC   D2A 1495  10.244  10.805   6.948
   84POPC   C3A 1496  10.255  10.633   6.558
   84POPC   C4A 1497  10.210  10.774   6.131
   84POPC   C1B 1498  10.815  10.395   7.408
   84POPC   C2B 1499  10.789  10.688   7.067
   84POPC   C3B 1500  10.808  10.713   6.619
   84POPC   C4B 1501  10.628  10.470   6.258
   85POPC   NC3 1502   4.420   0.460   7.891
   85POPC   PO4 1503   4.020  11.479   8.106
   85POPC   GL1 1504   3.942   0.195   7.679
   85POPC   GL2 1505   4.003   0.547   7.623
   85POPC   C1A 1506   4.027   0.258   7.201
   85POPC   D2A 1507   3.926   0.496   6.805
   85POPC   C3A 1508   4.044   0.326   6.376
   85POPC   C4A 1509   4.134   0.378   5.945
   85POPC   C1B 1510   4.334   0.664   7.303
   85POPC   C2B 1511   4.426   0.507   6.937
   85POPC   C3B 1512   4.397   0.655   6.539
   85POPC   C4B 1513   4.586   0.541   6.192
   86POPC   NC3 1514   1.947   1.800   8.104
   86POPC   PO4 1515   2.016   2.461   7.885
   86POPC   GL1 1516   2.048   2.250   7.539
   86POPC   GL2 1517   1.958   1.886   7.569
   86POPC   C1A 1518   2.141   2.330   7.125
   86POPC   D2A 1519   2.022   2.047   6.813
   86POPC   C3A 1520   2.070   2.216   6.406
   86POPC   C4A 1521   1.846   2.454   6.117
   86POPC   C1B 1522   1.833   1.622   7.205
   86POPC   C2B 1523   1.960   1.520   6.762
   86POPC   C3B 1524   1.807   1.622   6.343
   86POPC   C4B 1525   1.923   1.888   5.997
   87POPC   NC3 1526   9.569   3.723   8.113
   87POPC   PO4 1527   9.812   3.160   8.246
   87POPC   GL1 1528   9.757   3.334   7.802
   87POPC   GL2 1529   9.466   3.151   7.820
   87POPC   C1A 1530   9.841   3.364   7.308
   87POPC   D2A 1531   9.848   3.702   6.905
   87POPC   C3A 1532   9.806   3.538   6.471
   87POPC   C4A 1533   9.809   3.123   6.499
   87POPC   C1B 1534   9.371   3.184   7.386
   87POPC   C2B 1535   9.466   3.352   6.954
   87POPC   C3B 1536   9.322   3.285   6.537
   87POPC   C4B 1537   9.337   3.462   6.153
   88POPC   NC3 1538   8.832   9.043   8.153
   88POPC   PO4 1539   9.229   8.480   8.054
   88POPC   GL1 1540   8.918   8.704   7.738
   88POPC   GL2 1541   8.880   9.074   7.656
   88POPC   C1A 1542   8.687   8.763   7.326
   88POPC   D2A 1543   8.845   8.849   6.905
   88POPC   C3A 1544   8.697   8.678   6.520
   88POPC   C4A 1545   8.441   8.821   6.170
   88POPC   C1B 1546   8.995   9.230   7.228
   88POPC   C2B 1547   8.794   9.330   6.794
   88POPC   C3B 1548   8.835   9.174   6.330
   88POPC   C4B 1549   9.158   9.117   5.958
   89POPC   NC3 1550   2.674   1.347   8.073
   89POPC   PO4 1551   2.297   0.751   8.125
   89POPC   GL1 1552   2.460   0.984   7.709
   89POPC   GL2 1553   2.767   1.222   7.608
   89POPC   C1A 1554   2.598   0.949   7.236
   89POPC   D2A 1555   2.929   0.960   6.918
   89POPC   C3A 1556   2.774   0.880   6.495
   89POPC   C4A 1557   2.461   0.886   6.191
   89POPC   C1B 1558   3.089   1.395   7.363
   89POPC   C2B 1559   3.072   1.459   6.930
   89POPC   C3B 1560   3.074   1.285   6.517
   89POPC   C4B 1561   2.706   1.399   6.259
   90POPC   NC3 1562   9.619   8.235   8.098
   90POPC   PO4 1563   9.437   7.675   8.055
   90POPC   GL1 1564   9.323   8.068   7.709
   90POPC   GL2 1565   9.548   8.376   7.644
   90POPC   C1A 1566   9.280   8.272   7.266
   90POPC   D2A 1567   9.474   8.121   6.950
   90POPC   C3A 1568   9.535   8.180   6.575
   90POPC   C4A 1569   9.449   7.953   6.215
   90POPC   C1B 1570   9.736   8.011   7.354
   90POPC   C2B 1571   9.893   7.847   6.891
   90POPC   C3B 1572   9.941   7.925   6.404
   90POPC   C4B 1573   9.807   8.353   6.192
   91POPC   NC3 1574   6.708   1.648   8.007
   91POPC   PO4 1575   7.061   2.212   7.948
   91POPC   GL1 1576   6.992   1.889   7.614
   91POPC   GL2 1577   6.602   1.818   7.557
   91POPC   C1A 1578   6.897   1.852   7.165
   91POPC   D2A 1579   6.766   2.077   6.811
   91POPC   C3A 1580   6.870   1.814   6.492
   91POPC   C4A 1581   6.739   1.666   6.159
   91POPC   C1B 1582   6.230   1.770   7.286
   91POPC   C2B 1583   6.117   1.919   6.880
   91POPC   C3B 1584   6.350   1.981   6.517
   91POPC   C4B 1585   6.221   2.313   6.235
   92POPC   NC3 1586   6.280   3.394   8.275
   92POPC   PO4 1587   6.619   2.994   8.133
   92POPC   GL1 1588   6.445   3.251   7.745
   92POPC   GL2 1589   6.492   3.601   7.823
   92POPC   C1A 1590   6.377   3.238   7.239
   92POPC   D2A 1591   6.616   3.241   6.829
   92POPC   C3A 1592   6.409   3.250   6.407
   92POPC   C4A 1593   6.482   3.193   5.948
   92POPC   C1B 1594   6.578   3.681   7.382
   92POPC   C2B 1595   6.445   3.708   6.955
   92POPC   C3B 1596   6.619   3.692   6.556
   92POPC   C4B 1597   6.487   3.715   6.134
   93POPC   NC3 1598   8.117   1.349   8.190
   93POPC   PO4 1599   7.787   0.770   7.983
   93POPC   GL1 1600   7.948   1.057   7.634
   93POPC   GL2 1601   8.275   1.237   7.658
   93POPC   C1A 1602   7.962   1.285   7.212
   93POPC   D2A 1603   7.647   1.349   6.852
   93POPC   C3A 1604   7.820   1.171   6.472
   93POPC   C4A 1605   7.974   1.098   6.011
   93POPC   C1B 1606   8.299   0.847   7.346
   93POPC   C2B 1607   8.327   0.790   6.885
   93POPC   C3B 1608   8.245   0.907   6.458
   93POPC   C4B 1609   8.314   1.351   6.280
   94POPC   NC3 1610   6.417  10.733   8.113
   94POPC   PO4 1611   6.569  10.037   8.121
   94POPC   GL1 1612   6.532  10.343   7.785
   94POPC   GL2 1613   6.849  10.387   7.627
   94POPC   C1A 1614   6.400  10.557   7.392
   94POPC   D2A 1615   6.520  10.561   6.910
   94POPC   C3A 1616   6.244  10.686   6.543
   94POPC   C4A 1617   6.244  10.613   6.055
   94POPC   C1B 1618   6.640  10.113   7.327
   94POPC   C2B 1619   6.803  10.040   6.921
   94POPC   C3B 1620   6.793  10.295   6.562
   94POPC   C4B 1621   6.483  10.207   6.302
   95POPC   NC3 1622   6.884   2.632   8.041
   95POPC   PO4 1623   7.566   2.680   8.201
   95POPC   GL1 1624   7.348   2.711   7.770
   95POPC   GL2 1625   7.387   2.425   7.605
   95POPC   C1A 1626   7.038   2.681   7.365
   95POPC   D2A 1627   7.081   2.466   6.927
   95POPC   C3A 1628   7.074   2.718   6.511
   95POPC   C4A 1629   6.905   3.087   6.245
   95POPC   C1B 1630   7.508   2.578   7.202
   95POPC   C2B 1631   7.573   2.354   6.835
   95POPC   C3B 1632   7.598   2.524   6.444
   95POPC   C4B 1633   7.446   2.857   6.161
   96POPC   NC3 1634  11.112   2.106   8.111
   96POPC   PO4 1635  11.424   1.481   8.049
   96POPC   GL1 1636  11.298   1.794   7.745
   96POPC   GL2 1637  11.369   1.557   7.508
   96POPC   C1A 1638  11.086   1.962   7.358
   96POPC   D2A 1639  11.080   1.773   6.948
   96POPC   C3A 1640  11.148   2.022   6.567
   96POPC   C4A 1641  11.167   1.847   6.150
   96POPC   C1B 1642   0.058   1.809   7.195
   96POPC   C2B 1643   0.049   1.779   6.769
   96POPC   C3B 1644   0.137   1.913   6.398
   96POPC   C4B 1645   0.263   1.533   6.275
   97POPC   NC3 1646   5.254   0.781   8.158
   97POPC   PO4 1647   5.075   1.356   8.071
   97POPC   GL1 1648   4.983   1.133   7.700
   97POPC   GL2 1649   5.236   0.908   7.591
   97POPC   C1A 1650   4.756   1.103   7.293
   97POPC   D2A 1651   4.668   0.947   6.861
   97POPC   C3A 1652   4.919   0.835   6.513
   97POPC   C4A 1653   4.756   1.044   6.156
   97POPC   C1B 1654   5.237   1.278   7.297
   97POPC   C2B 1655   5.052   1.341   6.898
   97POPC   C3B 1656   5.047   1.324   6.464
   97POPC   C4B 1657   5.297   1.401   6.109
   98POPC   NC3 1658   0.305   3.655   7.855
   98POPC   PO4 1659   0.309   3.063   8.237
   98POPC   GL1 1660   0.597   3.100   7.759
   98POPC   GL2 1661   0.831   3.388   7.705
   98POPC   C1A 1662   0.495   3.148   7.249
   98POPC   D2A 1663   0.077   3.190   6.975
   98POPC   C3A 1664   0.070   3.081   6.521
   98POPC   C4A 1665   0.390   3.200   6.162
   98POPC   C1B 1666   0.766   3.587   7.264
   98POPC   C2B 1667   0.570   3.600   6.808
   98POPC   C3B 1668   0.605   3.657   6.322
   98POPC   C4B 1669   0.616   3.655   5.834
   99POPC   NC3 1670  10.280   6.582   7.964
   99POPC   PO4 1671  10.795   7.016   7.780
   99POPC   GL1 1672  10.453   6.902   7.603
   99POPC   GL2 1673  10.613   6.562   7.590
   99POPC   C1A 1674  10.485   6.852   7.174
   99POPC   D2A 1675  10.481   6.692   6.742
   99POPC   C3A 1676  10.586   6.950   6.421
   99POPC   C4A 1677  10.342   7.040   6.108
   99POPC   C1B 1678  10.484   6.338   7.247
   99POPC   C2B 1679  10.334   6.211   6.865
   99POPC   C3B 1680  10.414   6.265   6.431
   99POPC   C4B 1681  10.227   6.156   6.032
  100POPC   NC3 1682  10.529   5.835   8.087
  100POPC   PO4 1683   9.940   6.181   7.972
  100POPC   GL1 1684  10.310   6.118   7.698
  100POPC   GL2 1685  10.200   5.779   7.683
  100POPC   C1A 1686  10.589   5.853   7.392
  100POPC   D2A 1687  10.768   5.643   7.040
  100POPC   C3A 1688  10.695   5.867   6.672
  100POPC   C4A 1689  10.704   5.897   6.232
  100POPC   C1B 1690  10.113   5.922   7.255
  100POPC   C2B 1691  10.254   5.713   6.880
  100POPC   C3B 1692  10.244   5.763   6.429
  100POPC   C4B 1693  10.310   5.656   5.976
  101POPC   NC3 1694  11.440   2.866   8.040
  101POPC   PO4 1695  10.812   3.131   8.238
  101POPC   GL1 1696  11.002   2.937   7.765
  101POPC   GL2 1697  11.289   2.856   7.569
  101POPC   C1A 1698  10.952   3.028   7.261
  101POPC   D2A 1699  11.204   2.806   6.979
  101POPC   C3A 1700  10.987   2.656   6.669
  101POPC   C4A 1701  11.144   2.731   6.326
  101POPC   C1B 1702  11.227   2.463   7.360
  101POPC   C2B 1703  11.398   2.275   6.980
  101POPC   C3B 1704   0.025   2.425   6.574
  101POPC   C4B 1705  11.371   2.303   6.172
  102POPC   NC3 1706   3.629   2.914   8.055
  102POPC   PO4 1707   3.080   2.451   8.035
  102POPC   GL1 1708   3.285   2.694   7.714
  102POPC   GL2 1709   3.643   2.557   7.655
  102POPC   C1A 1710   3.260   2.877   7.290
  102POPC   D2A 1711   3.136   2.779   6.851
  102POPC   C3A 1712   3.309   2.942   6.453
  102POPC   C4A 1713   3.298   2.874   5.982
  102POPC   C1B 1714   3.567   2.420   7.208
  102POPC   C2B 1715   3.627   2.572   6.760
  102POPC   C3B 1716   3.685   2.600   6.307
  102POPC   C4B 1717   3.609   2.465   5.888
  103POPC   NC3 1718   9.543   7.239   8.126
  103POPC   PO4 1719  10.199   7.029   8.098
  103POPC   GL1 1720   9.931   7.063   7.747
  103POPC   GL2 1721   9.825   7.412   7.710
  103POPC   C1A 1722   9.770   6.987   7.314
  103POPC   D2A 1723   9.764   7.227   6.895
  103POPC   C3A 1724   9.597   7.060   6.459
  103POPC   C4A 1725   9.770   6.936   6.039
  103POPC   C1B 1726   9.520   7.547   7.390
  103POPC   C2B 1727   9.431   7.616   6.960
  103POPC   C3B 1728   9.561   7.586   6.549
  103POPC   C4B 1729   9.286   7.418   6.254
  104POPC   NC3 1730   5.454  10.370   8.443
  104POPC   PO4 1731   5.913   9.765   8.215
  104POPC   GL1 1732   5.685   9.936   7.866
  104POPC   GL2 1733   5.918   9.724   7.687
  104POPC   C1A 1734   5.589   9.973   7.411
  104POPC   D2A 1735   5.868   9.900   7.025
  104POPC   C3A 1736   5.707   9.910   6.577
  104POPC   C4A 1737   5.535   9.791   6.136
  104POPC   C1B 1738   5.740   9.496   7.302
  104POPC   C2B 1739   5.866   9.433   6.858
  104POPC   C3B 1740   5.790   9.430   6.408
  104POPC   C4B 1741   6.077   9.304   6.092
  105POPC   NC3 1742   1.982  11.380   8.153
  105POPC   PO4 1743   1.732  10.799   8.066
  105POPC   GL1 1744   1.760  11.108   7.720
  105POPC   GL2 1745   2.075  11.298   7.665
  105POPC   C1A 1746   1.868  11.069   7.281
  105POPC   D2A 1747   1.700  11.099   6.900
  105POPC   C3A 1748   1.964  11.077   6.544
  105POPC   C4A 1749   1.945  10.901   6.149
  105POPC   C1B 1750   2.282  11.440   7.295
  105POPC   C2B 1751   2.123  11.392   6.894
  105POPC   C3B 1752   2.346  11.439   6.490
  105POPC   C4B 1753   2.111  11.382   6.135
  106POPC   NC3 1754   4.113  10.060   7.927
  106POPC   PO4 1755   4.705   9.542   8.001
  106POPC   GL1 1756   4.475   9.761   7.730
  106POPC   GL2 1757   4.185   9.567   7.684
  106POPC   C1A 1758   4.457   9.831   7.296
  106POPC   D2A 1759   4.313   9.629   6.902
  106POPC   C3A 1760   4.366   9.905   6.540
  106POPC   C4A 1761   4.614   9.899   6.187
  106POPC   C1B 1762   3.949   9.618   7.296
  106POPC   C2B 1763   3.827   9.448   6.880
  106POPC   C3B 1764   3.933   9.619   6.460
  106POPC   C4B 1765   4.221   9.598   6.104
  107POPC   NC3 1766   2.645   9.525   8.065
  107POPC   PO4 1767   2.280   9.994   7.857
  107POPC   GL1 1768   2.647   9.783   7.623
  107POPC   GL2 1769   3.008   9.678   7.707
  107POPC   C1A 1770   2.804   9.909   7.249
  107POPC   D2A 1771   2.747   9.970   6.830
  107POPC   C3A 1772   2.425   9.842   6.643
  107POPC   C4A 1773   2.581   9.641   6.329
  107POPC   C1B 1774   2.965   9.424   7.315
  107POPC   C2B 1775   2.844   9.476   6.892
  107POPC   C3B 1776   3.043   9.567   6.510
  107POPC   C4B 1777   2.927   9.334   6.110
  108POPC   NC3 1778   6.865   8.736   8.023
  108POPC   PO4 1779   7.549   8.517   8.053
  108POPC   GL1 1780   7.520   8.841   7.736
  108POPC   GL2 1781   7.204   9.003   7.714
  108POPC   C1A 1782   7.497   8.845   7.277
  108POPC   D2A 1783   7.397   8.701   6.848
  108POPC   C3A 1784   7.627   8.752   6.486
  108POPC   C4A 1785   7.409   8.664   6.131
  108POPC   C1B 1786   7.125   9.224   7.324
  108POPC   C2B 1787   7.296   9.193   6.900
  108POPC   C3B 1788   7.164   8.997   6.488
  108POPC   C4B 1789   7.278   9.158   6.069
  109POPC   NC3 1790  10.513   2.883   7.918
  109POPC   PO4 1791  10.744   2.213   7.867
  109POPC   GL1 1792  10.487   2.464   7.601
  109POPC   GL2 1793  10.121   2.401   7.482
  109POPC   C1A 1794  10.729   2.553   7.245
  109POPC   D2A 1795  10.883   2.250   6.955
  109POPC   C3A 1796  10.688   2.251   6.533
  109POPC   C4A 1797  10.460   2.569   6.358
  109POPC   C1B 1798  10.257   2.779   7.240
  109POPC   C2B 1799  10.582   2.895   6.904
  109POPC   C3B 1800  10.618   3.019   6.493
  109POPC   C4B 1801  10.257   3.120   6.227
  110POPC   NC3 1802   9.653   8.788   8.058
  110POPC   PO4 1803   9.289   9.293   7.871
  110POPC   GL1 1804   9.378   8.899   7.634
  110POPC   GL2 1805   9.720   8.838   7.539
  110POPC   C1A 1806   9.287   8.784   7.201
  110POPC   D2A 1807   9.315   9.041   6.819
  110POPC   C3A 1808   9.206   8.858   6.438
  110POPC   C4A 1809   9.421   8.701   6.096
  110POPC   C1B 1810   9.749   8.520   7.217
  110POPC   C2B 1811   9.891   8.462   6.819
  110POPC   C3B 1812   9.695   8.703   6.534
  110POPC   C4B 1813   9.908   8.846   6.171
  111POPC   NC3 1814   3.122  10.404   8.079
  111POPC   PO4 1815   2.550  10.738   8.042
  111POPC   GL1 1816   2.836  10.638   7.726
  111POPC   GL2 1817   2.762  10.275   7.731
  111POPC   C1A 1818   3.021  10.733   7.343
  111POPC   D2A 1819   2.759  10.784   6.971
  111POPC   C3A 1820   2.963  10.725   6.586
  111POPC   C4A 1821   2.784  10.615   6.213
  111POPC   C1B 1822   2.612  10.400   7.327
  111POPC   C2B 1823   2.382  10.406   6.964
  111POPC   C3B 1824   2.543  10.376   6.594
  111POPC   C4B 1825   2.563  10.134   6.236
  112POPC   NC3 1826   7.828  11.134   7.987
  112POPC   PO4 1827   8.448  10.903   7.958
  112POPC   GL1 1828   8.219  11.164   7.631
  112POPC   GL2 1829   7.910  11.413   7.586
  112POPC   C1A 1830   8.213  11.013   7.212
  112POPC   D2A 1831   8.430  10.784   6.919
  112POPC   C3A 1832   8.456  10.985   6.556
  112POPC   C4A 1833   8.494  11.132   6.172
  112POPC   C1B 1834   8.065   0.007   7.233
  112POPC   C2B 1835   8.011  11.330   6.862
  112POPC   C3B 1836   8.148  11.384   6.469
  112POPC   C4B 1837   7.988  11.134   6.138
  113POPC   NC3 1838   2.374   2.174   7.928
  113POPC   PO4 1839   2.490   1.695   8.319
  113POPC   GL1 1840   2.734   1.825   7.815
  113POPC   GL2 1841   2.827   2.141   7.708
  113POPC   C1A 1842   2.453   1.961   7.347
  113POPC   D2A 1843   2.534   1.997   6.919
  113POPC   C3A 1844   2.371   1.782   6.525
  113POPC   C4A 1845   2.420   1.948   6.105
  113POPC   C1B 1846   2.940   1.930   7.329
  113POPC   C2B 1847   3.080   2.014   6.914
  113POPC   C3B 1848   3.108   2.221   6.535
  113POPC   C4B 1849   2.920   1.969   6.206
  114POPC   NC3 1850   4.382   9.212   8.027
  114POPC   PO4 1851   3.763   9.212   8.061
  114POPC   GL1 1852   3.859   9.163   7.624
  114POPC   GL2 1853   4.091   8.910   7.682
  114POPC   C1A 1854   4.110   9.148   7.216
  114POPC   D2A 1855   4.083   8.971   6.788
  114POPC   C3A 1856   4.202   9.169   6.382
  114POPC   C4A 1857   4.275   9.127   5.915
  114POPC   C1B 1858   4.379   8.728   7.369
  114POPC   C2B 1859   4.568   8.765   6.961
  114POPC   C3B 1860   4.574   8.847   6.508
  114POPC   C4B 1861   4.309   8.683   6.156
  115POPC   NC3 1862  11.000   1.392   7.862
  115POPC   PO4 1863  10.548   1.730   8.215
  115POPC   GL1 1864  10.629   1.732   7.733
  115POPC   GL2 1865  10.349   1.884   7.577
  115POPC   C1A 1866  10.672   1.630   7.258
  115POPC   D2A 1867  10.597   1.833   6.820
  115POPC   C3A 1868  10.742   1.719   6.425
  115POPC   C4A 1869  10.681   1.860   5.979
  115POPC   C1B 1870  10.470   2.104   7.238
  115POPC   C2B 1871  10.355   2.373   6.921
  115POPC   C3B 1872  10.121   2.273   6.573
  115POPC   C4B 1873  10.309   1.980   6.293
  116POPC   NC3 1874  10.950   6.742   8.108
  116POPC   PO4 1875  11.465   6.334   8.232
  116POPC   GL1 1876  11.404   6.356   7.775
  116POPC   GL2 1877  11.280   6.694   7.717
  116POPC   C1A 1878   0.003   6.232   7.331
  116POPC   D2A 1879  11.274   6.310   6.913
  116POPC   C3A 1880   0.002   6.194   6.584
  116POPC   C4A 1881   0.057   6.376   6.210
  116POPC   C1B 1882  11.076   6.528   7.373
  116POPC   C2B 1883  10.923   6.670   6.999
  116POPC   C3B 1884  11.024   6.742   6.581
  116POPC   C4B 1885  11.207   6.745   6.195
  117POPC   NC3 1886   2.152  10.434   7.947
  117POPC   PO4 1887   1.557   9.947   8.021
  117POPC   GL1 1888   1.547  10.200   7.632
  117POPC   GL2 1889   1.699  10.528   7.639
  117POPC   C1A 1890   1.689  10.172   7.197
  117POPC   D2A 1891   2.024  10.037   6.902
  117POPC   C3A 1892   2.030  10.110   6.450
  117POPC   C4A 1893   1.799  10.380   6.165
  117POPC   C1B 1894   1.997  10.570   7.305
  117POPC   C2B 1895   1.838  10.577   6.897
  117POPC   C3B 1896   2.048  10.586   6.563
  117POPC   C4B 1897   2.274  10.533   6.193
  118POPC   NC3 1898   2.781   0.501   8.092
  118POPC   PO4 1899   2.241   0.184   7.949
  118POPC   GL1 1900   2.434   0.459   7.701
  118POPC   GL2 1901   2.738   0.290   7.626
  118POPC   C1A 1902   2.398   0.489   7.273
  118POPC   D2A 1903   2.393   0.299   6.897
  118POPC   C3A 1904   2.454   0.480   6.527
  118POPC   C4A 1905   2.322   0.363   6.141
  118POPC   C1B 1906   2.803   0.172   7.194
  118POPC   C2B 1907   2.884   0.269   6.760
  118POPC   C3B 1908   2.834   0.171   6.344
  118POPC   C4B 1909   3.097   0.149   5.987
  119POPC   NC3 1910   2.911  11.020   8.068
  119POPC   PO4 1911   3.057   0.103   8.072
  119POPC   GL1 1912   2.969  11.338   7.684
  119POPC   GL2 1913   2.592  11.249   7.719
  119POPC   C1A 1914   2.822  11.187   7.279
  119POPC   D2A 1915   2.614  11.287   6.907
  119POPC   C3A 1916   2.817  11.212   6.542
  119POPC   C4A 1917   2.930  11.151   6.136
  119POPC   C1B 1918   2.388  10.933   7.406
  119POPC   C2B 1919   2.249  10.902   6.969
  119POPC   C3B 1920   2.445  10.885   6.571
  119POPC   C4B 1921   2.457  11.012   6.164
  120POPC   NC3 1922   1.521  10.397   8.121
  120POPC   PO4 1923   0.939  10.726   8.126
  120POPC   GL1 1924   1.201  10.633   7.787
  120POPC   GL2 1925   1.028  10.331   7.735
  120POPC   C1A 1926   1.109  10.706   7.351
  120POPC   D2A 1927   0.860  10.551   6.982
  120POPC   C3A 1928   1.096  10.605   6.570
  120POPC   C4A 1929   1.538  10.702   6.438
  120POPC   C1B 1930   1.123  10.191   7.317
  120POPC   C2B 1931   1.269  10.246   6.922
  120POPC   C3B 1932   1.552  10.195   6.620
  120POPC   C4B 1933   1.328  10.168   6.251
  121POPC   NC3 1934   9.821   1.187   8.127
  121POPC   PO4 1935   9.148   1.353   8.007
  121POPC   GL1 1936   9.460   1.134   7.725
  121POPC   GL2 1937   9.800   1.224   7.626
  121POPC   C1A 1938   9.572   0.867   7.345
  121POPC   D2A 1939   9.562   1.014   6.904
  121POPC   C3A 1940   9.283   1.092   6.559
  121POPC   C4A 1941   9.532   0.941   6.218
  121POPC   C1B 1942   9.667   1.398   7.259
  121POPC   C2B 1943   9.807   1.481   6.873
  121POPC   C3B 1944   9.714   1.361   6.473
  121POPC   C4B 1945   9.993   1.179   6.175
  122POPC   NC3 1946   9.902   0.363   8.147
  122POPC   PO4 1947   9.477   0.871   8.174
  122POPC   GL1 1948   9.770   0.743   7.834
  122POPC   GL2 1949   9.598   0.443   7.741
  122POPC   C1A 1950  10.008   0.575   7.464
  122POPC   D2A 1951  10.044   0.333   7.066
  122POPC   C3A 1952   9.816   0.536   6.717
  122POPC   C4A 1953   9.984   0.687   6.332
  122POPC   C1B 1954   9.442   0.350   7.343
  122POPC   C2B 1955   9.331   0.523   6.961
  122POPC   C3B 1956   9.306   0.329   6.568
  122POPC   C4B 1957   9.576   0.422   6.233
  123POPC   NC3 1958   5.091  11.419   8.398
  123POPC   PO4 1959   5.597   0.040   7.919
  123POPC   GL1 1960   5.370  11.261   7.607
  123POPC   GL2 1961   5.039  11.119   7.764
  123POPC   C1A 1962   5.299  11.345   7.150
  123POPC   D2A 1963   5.227   0.021   6.739
  123POPC   C3A 1964   5.158  11.230   6.414
  123POPC   C4A 1965   5.435  11.028   6.133
  123POPC   C1B 1966   4.840  11.262   7.393
  123POPC   C2B 1967   4.830  11.165   6.956
  123POPC   C3B 1968   4.709  11.370   6.615
  123POPC   C4B 1969   4.676  11.355   6.190
  124POPC   NC3 1970   0.380   9.115   8.282
  124POPC   PO4 1971   0.536   8.574   8.059
  124POPC   GL1 1972   0.531   8.826   7.685
  124POPC   GL2 1973   0.180   8.941   7.689
  124POPC   C1A 1974   0.521   8.878   7.224
  124POPC   D2A 1975   0.350   9.051   6.859
  124POPC   C3A 1976   0.642   8.891   6.565
  124POPC   C4A 1977   0.630   8.530   6.316
  124POPC   C1B 1978   0.183   8.558   7.409
  124POPC   C2B 1979   0.208   8.529   6.939
  124POPC   C3B 1980   0.180   8.649   6.493
  124POPC   C4B 1981   0.343   9.015   6.178
  125POPC   NC3 1982   4.195   0.359   8.337
  125POPC   PO4 1983   3.596   0.540   8.251
  125POPC   GL1 1984   3.510   0.515   7.779
  125POPC   GL2 1985   3.281   0.257   7.636
  125POPC   C1A 1986   3.596   0.499   7.303
  125POPC   D2A 1987   3.564   0.166   6.970
  125POPC   C3A 1988   3.554   0.282   6.519
  125POPC   C4A 1989   3.614   0.232   6.062
  125POPC   C1B 1990   3.095   0.557   7.313
  125POPC   C2B 1991   3.274   0.593   6.862
  125POPC   C3B 1992   3.159   0.567   6.388
  125POPC   C4B 1993   3.303   0.644   5.958
  126POPC   NC3 1994   0.915   8.856   8.055
  126POPC   PO4 1995   1.440   8.660   8.478
  126POPC   GL1 1996   1.434   8.754   7.922
  126POPC   GL2 1997   1.233   9.057   7.728
  126POPC   C1A 1998   1.529   8.796   7.399
  126POPC   D2A 1999   1.691   8.812   6.939
  126POPC   C3A 2000   1.725   9.108   6.592
  126POPC   C4A 2001   1.520   9.062   6.192
  126POPC   C1B 2002   1.014   8.831   7.384
  126POPC   C2B 2003   0.961   8.972   6.972
  126POPC   C3B 2004   1.182   8.930   6.620
  126POPC   C4B 2005   1.073   8.811   6.252
  127POPC   NC3 2006   9.653  10.525   7.903
  127POPC   PO4 2007   9.166  10.240   8.168
  127POPC   GL1 2008   9.351  10.161   7.670
  127POPC   GL2 2009   9.739  10.211   7.523
  127POPC   C1A 2010   9.405  10.185   7.168
  127POPC   D2A 2011   9.430   9.994   6.767
  127POPC   C3A 2012   9.418  10.269   6.405
  127POPC   C4A 2013   9.397  10.190   5.962
  127POPC   C1B 2014   9.793  10.536   7.205
  127POPC   C2B 2015   9.740  10.515   6.759
  127POPC   C3B 2016   9.806  10.565   6.327
  127POPC   C4B 2017   9.895  10.313   6.005
  128POPC   NC3 2018   3.406   8.979   7.899
  128POPC   PO4 2019   2.951   8.483   7.886
  128POPC   GL1 2020   3.244   8.668   7.525
  128POPC   GL2 2021   3.629   8.687   7.544
  128POPC   C1A 2022   3.130   8.799   7.095
  128POPC   D2A 2023   3.178   8.497   6.742
  128POPC   C3A 2024   3.154   8.695   6.379
  128POPC   C4A 2025   3.075   9.070   6.529
  128POPC   C1B 2026   3.618   8.975   7.191
  128POPC   C2B 2027   3.535   8.899   6.755
  128POPC   C3B 2028   3.755   8.864   6.384
  128POPC   C4B 2029   3.831   8.793   5.967
  129POPC   NC3 2030  10.540   0.689   8.338
  129POPC   PO4 2031  10.300   0.215   7.972
  129POPC   GL1 2032  10.498   0.315   7.620
  129POPC   GL2 2033  10.568   0.651   7.657
  129POPC   C1A 2034  10.512   0.107   7.198
  129POPC   D2A 2035  10.482   0.113   6.749
  129POPC   C3A 2036  10.129   0.171   6.496
  129POPC   C4A 2037  10.185   0.291   6.052
  129POPC   C1B 2038  10.449   0.615   7.210
  129POPC   C2B 2039  10.334   0.633   6.788
  129POPC   C3B 2040  10.467   0.535   6.418
  129POPC   C4B 2041  10.770   0.631   6.186
  130POPC   NC3 2042   2.485   7.149   8.075
  130POPC   PO4 2043   2.571   7.698   7.923
  130POPC   GL1 2044   2.567   7.367   7.598
  130POPC   GL2 2045   2.329   7.049   7.592
  130POPC   C1A 2046   2.611   7.466   7.147
  130POPC   D2A 2047   2.650   7.764   6.788
  130POPC   C3A 2048   2.639   7.552   6.391
  130POPC   C4A 2049   2.355   7.252   6.217
  130POPC   C1B 2050   2.298   7.067   7.106
  130POPC   C2B 2051   2.540   7.140   6.711
  130POPC   C3B 2052   2.692   6.893   6.339
  130POPC   C4B 2053   2.596   6.948   5.864
  131POPC   NC3 2054   1.121   1.877   8.083
  131POPC   PO4 2055   1.691   2.293   8.257
  131POPC   GL1 2056   1.574   2.105   7.832
  131POPC   GL2 2057   1.233   2.244   7.735
  131POPC   C1A 2058   1.580   2.176   7.354
  131POPC   D2A 2059   1.371   2.173   6.950
  131POPC   C3A 2060   1.564   2.002   6.584
  131POPC   C4A 2061   1.484   2.096   6.160
  131POPC   C1B 2062   1.049   2.036   7.360
  131POPC   C2B 2063   0.917   1.936   6.927
  131POPC   C3B 2064   1.041   2.048   6.492
  131POPC   C4B 2065   1.057   1.856   6.053
  132POPC   NC3 2066   5.172   9.616   8.012
  132POPC   PO4 2067   5.100  10.219   8.164
  132POPC   GL1 2068   4.968  10.021   7.708
  132POPC   GL2 2069   4.945   9.663   7.560
  132POPC   C1A 2070   5.116   9.984   7.229
  132POPC   D2A 2071   5.368   9.767   6.955
  132POPC   C3A 2072   5.039   9.618   6.689
  132POPC   C4A 2073   5.080   9.619   6.283
  132POPC   C1B 2074   5.042   9.417   7.173
  132POPC   C2B 2075   4.922   9.117   6.823
  132POPC   C3B 2076   5.038   9.099   6.380
  132POPC   C4B 2077   5.159   9.244   5.929
  133POPC   NC3 2078   5.783   1.622   8.048
  133POPC   PO4 2079   5.943   0.951   8.143
  133POPC   GL1 2080   5.972   1.210   7.781
  133POPC   GL2 2081   5.628   1.255   7.676
  133POPC   C1A 2082   6.083   1.282   7.343
  133POPC   D2A 2083   6.060   1.418   6.899
  133POPC   C3A 2084   5.906   1.235   6.529
  133POPC   C4A 2085   6.110   0.969   6.261
  133POPC   C1B 2086   5.668   0.989   7.296
  133POPC   C2B 2087   5.554   1.106   6.895
  133POPC   C3B 2088   5.444   1.008   6.491
  133POPC   C4B 2089   5.624   1.004   6.085
  134POPC   NC3 2090   9.448   9.612   8.163
  134POPC   PO4 2091   9.874  10.094   7.994
  134POPC   GL1 2092   9.656   9.751   7.714
  134POPC   GL2 2093   9.744   9.399   7.681
  134POPC   C1A 2094   9.703   9.738   7.267
  134POPC   D2A 2095   9.822   9.499   6.932
  134POPC   C3A 2096   9.732   9.644   6.540
  134POPC   C4A 2097   9.731   9.875   6.186
  134POPC   C1B 2098   9.560   9.224   7.278
  134POPC   C2B 2099   9.801   8.975   6.971
  134POPC   C3B 2100   9.917   9.160   6.570
  134POPC   C4B 2101   9.556   9.210   6.296
  135POPC   NC3 2102   8.756   1.525   7.834
  135POPC   PO4 2103   8.489   1.021   8.131
  135POPC   GL1 2104   8.664   0.912   7.710
  135POPC   GL2 2105   8.950   1.076   7.658
  135POPC   C1A 2106   8.665   1.170   7.272
  135POPC   D2A 2107   8.882   1.178   6.910
  135POPC   C3A 2108   8.684   1.149   6.566
  135POPC   C4A 2109   8.675   0.946   6.202
  135POPC   C1B 2110   9.198   1.218   7.291
  135POPC   C2B 2111   9.291   1.481   6.909
  135POPC   C3B 2112   8.959   1.586   6.623
  135POPC   C4B 2113   9.004   1.431   6.253
  136POPC   NC3 2114   9.012   0.905   8.139
  136POPC   PO4 2115   8.694   0.349   7.972
  136POPC   GL1 2116   9.053   0.537   7.789
  136POPC   GL2 2117   9.144   0.212   7.754
  136POPC   C1A 2118   9.089   0.709   7.382
  136POPC   D2A 2119   8.795   0.699   7.074
  136POPC   C3A 2120   8.953   0.721   6.659
  136POPC   C4A 2121   9.109   0.689   6.253
  136POPC   C1B 2122   8.926   0.237   7.361
  136POPC   C2B 2123   8.906   0.211   6.939
  136POPC   C3B 2124   8.600   0.377   6.686
  136POPC   C4B 2125   8.692   0.394   6.239
  137POPC   NC3 2126   3.624   1.038   8.107
  137POPC   PO4 2127   2.905   0.943   8.019
  137POPC   GL1 2128   3.239   0.960   7.679
  137POPC   GL2 2129   3.507   1.231   7.639
  137POPC   C1A 2130   3.365   0.974   7.234
  137POPC   D2A 2131   3.545   1.135   6.896
  137POPC   C3A 2132   3.471   0.941   6.527
  137POPC   C4A 2133   3.458   1.147   6.170
  137POPC   C1B 2134   3.755   1.416   7.295
  137POPC   C2B 2135   3.983   1.424   6.868
  137POPC   C3B 2136   3.745   1.408   6.494
  137POPC   C4B 2137   3.686   1.665   6.146
  138POPC   NC3 2138   3.737  10.500   8.286
  138POPC   PO4 2139   4.268  10.682   7.859
  138POPC   GL1 2140   3.853  10.504   7.708
  138POPC   GL2 2141   3.492  10.439   7.747
  138POPC   C1A 2142   3.644  10.475   7.280
  138POPC   D2A 2143   3.514  10.254   6.907
  138POPC   C3A 2144   3.550  10.482   6.524
  138POPC   C4A 2145   3.851  10.732   6.259
  138POPC   C1B 2146   3.172  10.258   7.415
  138POPC   C2B 2147   3.024  10.347   6.976
  138POPC   C3B 2148   3.056  10.229   6.504
  138POPC   C4B 2149   3.265  10.411   6.117
  139POPC   NC3 2150  11.214  10.246   8.530
  139POPC   PO4 2151  10.826  10.185   8.032
  139POPC   GL1 2152  11.201  10.138   7.742
  139POPC   GL2 2153  11.356  10.448   7.705
  139POPC   C1A 2154  11.266  10.137   7.270
  139POPC   D2A 2155  10.911  10.188   6.948
  139POPC   C3A 2156  10.943  10.104   6.496
  139POPC   C4A 2157  10.973  10.196   6.017
  139POPC   C1B 2158  11.259  10.660   7.306
  139POPC   C2B 2159  11.294  10.546   6.876
  139POPC   C3B 2160  11.266  10.485   6.442
  139POPC   C4B 2161  11.403  10.110   6.260
  140POPC   NC3 2162   3.354   2.079   8.101
  140POPC   PO4 2163   3.448   1.504   8.073
  140POPC   GL1 2164   3.291   1.764   7.685
  140POPC   GL2 2165   3.318   2.158   7.604
  140POPC   C1A 2166   3.403   1.788   7.240
  140POPC   D2A 2167   3.518   1.647   6.870
  140POPC   C3A 2168   3.298   1.731   6.493
  140POPC   C4A 2169   3.170   1.546   6.076
  140POPC   C1B 2170   3.736   2.026   7.525
  140POPC   C2B 2171   3.900   1.866   7.113
  140POPC   C3B 2172   3.811   1.948   6.610
  140POPC   C4B 2173   3.520   2.120   6.255
  141POPC   NC3 2174   2.768   3.732   8.086
  141POPC   PO4 2175   3.255   3.218   8.070
  141POPC   GL1 2176   3.028   3.189   7.696
  141POPC   GL2 2177   2.737   3.427   7.662
  141POPC   C1A 2178   3.096   3.374   7.298
  141POPC   D2A 2179   3.289   3.275   6.902
  141POPC   C3A 2180   3.047   3.398   6.535
  141POPC   C4A 2181   2.960   3.215   6.147
  141POPC   C1B 2182   2.491   3.512   7.265
  141POPC   C2B 2183   2.309   3.435   6.844
  141POPC   C3B 2184   2.515   3.426   6.425
  141POPC   C4B 2185   2.792   3.796   6.271
  142POPC   NC3 2186   8.779  10.034   8.030
  142POPC   PO4 2187   9.058   9.427   8.328
  142POPC   GL1 2188   9.087   9.724   7.832
  142POPC   GL2 2189   8.821   9.591   7.637
  142POPC   C1A 2190   9.207   9.758   7.368
  142POPC   D2A 2191   9.311   9.537   6.976
  142POPC   C3A 2192   9.223   9.482   6.561
  142POPC   C4A 2193   9.262   9.799   6.310
  142POPC   C1B 2194   8.745   9.701   7.171
  142POPC   C2B 2195   8.912   9.826   6.784
  142POPC   C3B 2196   8.784   9.696   6.370
  142POPC   C4B 2197   8.473   9.912   6.123
  143POPC   NC3 2198   7.206  10.955   8.285
  143POPC   PO4 2199   7.461  11.384   7.827
  143POPC   GL1 2200   7.488  11.038   7.610
  143POPC   GL2 2201   7.184  10.849   7.646
  143POPC   C1A 2202   7.648  11.203   7.211
  143POPC   D2A 2203   7.552   0.023   6.914
  143POPC   C3A 2204   7.629  11.331   6.520
  143POPC   C4A 2205   7.463  11.299   6.139
  143POPC   C1B 2206   7.153  11.133   7.245
  143POPC   C2B 2207   7.288  11.101   6.855
  143POPC   C3B 2208   7.199  11.006   6.482
  143POPC   C4B 2209   6.973  11.165   6.147
  144POPC   NC3 2210   8.644   2.409   8.015
  144POPC   PO4 2211   9.106   2.885   8.142
  144POPC   GL1 2212   9.096   2.812   7.718
  144POPC   GL2 2213   8.758   2.818   7.710
  144POPC   C1A 2214   9.143   2.730   7.282
  144POPC   D2A 2215   8.877   2.628   6.876
  144POPC   C3A 2216   9.024   2.663   6.453
  144POPC   C4A 2217   9.035   3.025   6.168
  144POPC   C1B 2218   8.641   2.613   7.331
  144POPC   C2B 2219   8.400   2.477   6.953
  144POPC   C3B 2220   8.537   2.471   6.525
  144POPC   C4B 2221   8.577   2.773   6.205
  145POPC   NC3 2222  11.331   1.051   8.332
  145POPC   PO4 2223  10.737   1.009   8.004
  145POPC   GL1 2224  11.036   0.896   7.703
  145POPC   GL2 2225  11.387   1.049   7.728
  145POPC   C1A 2226  10.866   0.898   7.287
  145POPC   D2A 2227  10.690   0.994   6.896
  145POPC   C3A 2228  10.994   0.851   6.597
  145POPC   C4A 2229  11.097   1.012   6.216
  145POPC   C1B 2230  11.325   1.099   7.283
  145POPC   C2B 2231  11.207   1.257   6.864
  145POPC   C3B 2232  11.270   1.450   6.447
  145POPC   C4B 2233  11.396   1.388   5.984
  146POPC   NC3 2234   5.112   0.092   7.915
  146POPC   PO4 2235   4.791   0.703   8.027
  146POPC   GL1 2236   4.759   0.693   7.599
  146POPC   GL2 2237   4.980   0.450   7.618
  146POPC   C1A 2238   4.865   0.606   7.176
  146POPC   D2A 2239   4.842   0.202   7.028
  146POPC   C3A 2240   4.822   0.351   6.630
  146POPC   C4A 2241   4.983   0.232   6.263
  146POPC   C1B 2242   5.286   0.355   7.320
  146POPC   C2B 2243   5.381   0.632   7.001
  146POPC   C3B 2244   5.356   0.502   6.598
  146POPC   C4B 2245   5.290   0.622   6.202
  147POPC   NC3 2246   5.213   7.674   8.522
  147POPC   PO4 2247   5.293   7.796   8.074
  147POPC   GL1 2248   5.177   7.859   7.612
  147POPC   GL2 2249   4.949   8.145   7.517
  147POPC   C1A 2250   5.233   7.930   7.150
  147POPC   D2A 2251   5.006   8.045   6.775
  147POPC   C3A 2252   5.220   8.123   6.381
  147POPC   C4A 2253   5.031   8.061   5.968
  147POPC   C1B 2254   5.005   8.426   7.139
  147POPC   C2B 2255   4.968   8.564   6.705
  147POPC   C3B 2256   4.896   8.505   6.285
  147POPC   C4B 2257   5.132   8.583   5.907
  148POPC   NC3 2258   0.778  11.153   8.173
  148POPC   PO4 2259   0.166  11.359   8.090
  148POPC   GL1 2260   0.219  11.466   7.672
  148POPC   GL2 2261   0.540  11.319   7.707
  148POPC   C1A 2262   0.234  11.245   7.258
  148POPC   D2A 2263   0.139  11.013   6.865
  148POPC   C3A 2264   0.240  11.231   6.501
  148POPC   C4A 2265   0.216  11.431   6.088
  148POPC   C1B 2266   0.603  10.926   7.420
  148POPC   C2B 2267   0.633  11.004   6.964
  148POPC   C3B 2268   0.619  10.838   6.540
  148POPC   C4B 2269   0.590  11.099   6.175
  149POPC   NC3 2270   0.840   5.521   7.710
  149POPC   PO4 2271   0.966   4.929   7.933
  149POPC   GL1 2272   1.101   5.106   7.600
  149POPC   GL2 2273   1.401   5.142   7.674
  149POPC   C1A 2274   1.158   5.189   7.182
  149POPC   D2A 2275   0.983   5.001   6.854
  149POPC   C3A 2276   0.965   5.349   6.640
  149POPC   C4A 2277   1.025   5.245   6.245
  149POPC   C1B 2278   1.542   4.884   7.369
  149POPC   C2B 2279   1.469   4.812   6.963
  149POPC   C3B 2280   1.417   5.061   6.593
  149POPC   C4B 2281   1.348   4.880   6.198
  150POPC   NC3 2282   1.095   4.160   8.083
  150POPC   PO4 2283   1.640   4.609   8.001
  150POPC   GL1 2284   1.288   4.608   7.706
  150POPC   GL2 2285   1.076   4.325   7.615
  150POPC   C1A 2286   1.074   4.697   7.290
  150POPC   D2A 2287   1.055   4.453   6.941
  150POPC   C3A 2288   1.277   4.538   6.581
  150POPC   C4A 2289   1.188   4.406   6.177
  150POPC   C1B 2290   0.885   4.098   7.286
  150POPC   C2B 2291   0.936   3.963   6.866
  150POPC   C3B 2292   0.816   4.179   6.489
  150POPC   C4B 2293   0.873   4.027   6.077
  151POPC   NC3 2294   0.417   0.994   7.907
  151POPC   PO4 2295   0.816   1.512   8.093
  151POPC   GL1 2296   0.716   1.377   7.712
  151POPC   GL2 2297   0.355   1.447   7.652
  151POPC   C1A 2298   0.787   1.338   7.295
  151POPC   D2A 2299   0.694   1.062   6.921
  151POPC   C3A 2300   0.599   1.253   6.547
  151POPC   C4A 2301   0.794   1.428   6.157
  151POPC   C1B 2302   0.321   1.163   7.273
  151POPC   C2B 2303   0.165   0.993   6.871
  151POPC   C3B 2304   0.083   1.014   6.432
  151POPC   C4B 2305   0.394   1.076   6.117
  152POPC   NC3 2306   0.414   1.818   8.063
  152POPC   PO4 2307  11.481   2.392   8.098
  152POPC   GL1 2308   0.062   2.240   7.662
  152POPC   GL2 2309   0.268   1.971   7.625
  152POPC   C1A 2310   0.330   2.290   7.260
  152POPC   D2A 2311   0.418   2.088   6.901
  152POPC   C3A 2312   0.514   2.242   6.531
  152POPC   C4A 2313   0.369   2.329   6.148
  152POPC   C1B 2314   0.566   1.808   7.331
  152POPC   C2B 2315   0.514   1.585   6.937
  152POPC   C3B 2316   0.636   1.752   6.533
  152POPC   C4B 2317   0.568   1.887   6.088
  153POPC   NC3 2318   9.461   6.264   8.045
  153POPC   PO4 2319   9.270   6.878   8.176
  153POPC   GL1 2320   9.461   6.738   7.755
  153POPC   GL2 2321   9.769   6.575   7.715
  153POPC   C1A 2322   9.470   6.556   7.291
  153POPC   D2A 2323   9.567   6.747   6.861
  153POPC   C3A 2324   9.518   6.553   6.421
  153POPC   C4A 2325   9.208   6.254   6.312
  153POPC   C1B 2326   9.984   6.445   7.364
  153POPC   C2B 2327  10.046   6.652   7.014
  153POPC   C3B 2328   9.971   6.497   6.642
  153POPC   C4B 2329  10.084   6.620   6.276
  154POPC   NC3 2330   2.615   8.778   8.051
  154POPC   PO4 2331   3.066   9.294   8.071
  154POPC   GL1 2332   2.761   9.179   7.713
  154POPC   GL2 2333   2.792   8.876   7.588
  154POPC   C1A 2334   2.535   9.150   7.271
  154POPC   D2A 2335   2.687   8.979   6.865
  154POPC   C3A 2336   2.578   9.167   6.454
  154POPC   C4A 2337   2.432   9.314   5.980
  154POPC   C1B 2338   2.620   8.635   7.264
  154POPC   C2B 2339   2.667   8.465   6.846
  154POPC   C3B 2340   2.636   8.648   6.437
  154POPC   C4B 2341   2.669   8.874   6.046
  155POPC   NC3 2342   0.240   7.351   8.121
  155POPC   PO4 2343  11.050   7.243   8.230
  155POPC   GL1 2344  11.303   7.215   7.817
  155POPC   GL2 2345  11.097   7.405   7.600
  155POPC   C1A 2346   0.009   7.234   7.361
  155POPC   D2A 2347  11.439   7.161   6.883
  155POPC   C3A 2348   0.004   7.539   6.602
  155POPC   C4A 2349  11.498   7.726   6.173
  155POPC   C1B 2350  11.029   7.139   7.207
  155POPC   C2B 2351  10.811   7.173   6.829
  155POPC   C3B 2352  10.976   7.300   6.433
  155POPC   C4B 2353  11.365   7.229   6.238
  156POPC   NC3 2354  10.165   4.294   8.010
  156POPC   PO4 2355  10.729   4.621   8.062
  156POPC   GL1 2356  10.521   4.436   7.662
  156POPC   GL2 2357  10.509   4.051   7.709
  156POPC   C1A 2358  10.267   4.519   7.257
  156POPC   D2A 2359  10.007   4.281   6.957
  156POPC   C3A 2360  10.145   4.416   6.549
  156POPC   C4A 2361  10.047   4.448   6.137
  156POPC   C1B 2362  10.521   4.086   7.277
  156POPC   C2B 2363  10.512   4.238   6.870
  156POPC   C3B 2364  10.684   3.982   6.530
  156POPC   C4B 2365  10.472   4.182   6.203
  157POPC   NC3 2366  10.335  11.247   8.073
  157POPC   PO4 2367   9.724  11.402   8.153
  157POPC   GL1 2368   9.947  11.171   7.770
  157POPC   GL2 2369  10.232  11.366   7.591
  157POPC   C1A 2370   9.962  11.019   7.332
  157POPC   D2A 2371  10.127  11.307   6.986
  157POPC   C3A 2372  10.135  11.146   6.546
  157POPC   C4A 2373  10.193  11.292   6.122
  157POPC   C1B 2374  10.476  11.086   7.331
  157POPC   C2B 2375  10.647  11.164   6.931
  157POPC   C3B 2376  10.832  11.263   6.555
  157POPC   C4B 2377  10.603  11.059   6.278
  158POPC   NC3 2378   1.355  11.076   8.048
  158POPC   PO4 2379   0.839   0.084   8.057
  158POPC   GL1 2380   1.134  11.425   7.739
  158POPC   GL2 2381   0.999  11.098   7.687
  158POPC   C1A 2382   1.357  11.224   7.356
  158POPC   D2A 2383   1.140  11.060   6.980
  158POPC   C3A 2384   1.311  11.117   6.596
  158POPC   C4A 2385   1.580  11.234   6.267
  158POPC   C1B 2386   0.850  11.358   7.312
  158POPC   C2B 2387   0.780   0.026   6.915
  158POPC   C3B 2388   0.849  11.305   6.545
  158POPC   C4B 2389   1.081  11.077   6.157
  159POPC   NC3 2390   0.224   9.671   8.055
  159POPC   PO4 2391   0.780   9.330   8.145
  159POPC   GL1 2392   0.488   9.336   7.793
  159POPC   GL2 2393   0.524   9.683   7.663
  159POPC   C1A 2394   0.350   9.321   7.352
  159POPC   D2A 2395   0.682   9.400   7.050
  159POPC   C3A 2396   0.818   9.375   6.630
  159POPC   C4A 2397   0.822   9.237   6.221
  159POPC   C1B 2398   0.207   9.811   7.354
  159POPC   C2B 2399   0.217   9.590   6.931
  159POPC   C3B 2400   0.452   9.721   6.565
  159POPC   C4B 2401   0.381   9.996   6.211
  160POPC   NC3 2402   9.805   5.726   7.997
  160POPC   PO4 2403   9.144   5.948   7.966
  160POPC   GL1 2404   9.498   5.951   7.636
  160POPC   GL2 2405   9.723   5.680   7.523
  160POPC   C1A 2406   9.624   6.060   7.209
  160POPC   D2A 2407   9.468   6.240   6.839
  160POPC   C3A 2408   9.617   6.025   6.492
  160POPC   C4A 2409   9.351   5.731   6.239
  160POPC   C1B 2410   9.877   5.471   7.207
  160POPC   C2B 2411   9.762   5.648   6.841
  160POPC   C3B 2412   9.763   5.518   6.442
  160POPC   C4B 2413   9.847   5.785   6.115
  161POPC   NC3 2414   6.131  10.131   8.058
  161POPC   PO4 2415   5.957  10.732   8.132
  161POPC   GL1 2416   6.042  10.545   7.751
  161POPC   GL2 2417   5.830  10.819   7.596
  161POPC   C1A 2418   6.086  10.167   7.434
  161POPC   D2A 2419   6.084  10.352   7.051
  161POPC   C3A 2420   6.158  10.180   6.692
  161POPC   C4A 2421   5.983  10.296   6.347
  161POPC   C1B 2422   5.684  10.477   7.384
  161POPC   C2B 2423   5.566  10.287   7.020
  161POPC   C3B 2424   5.568  10.410   6.639
  161POPC   C4B 2425   5.492  10.278   6.259
  162POPC   NC3 2426   4.336   2.264   8.033
  162POPC   PO4 2427   4.542   1.670   8.079
  162POPC   GL1 2428   4.412   1.580   7.668
  162POPC   GL2 2429   4.201   1.883   7.683
  162POPC   C1A 2430   4.421   1.810   7.239
  162POPC   D2A 2431   4.303   1.883   6.808
  162POPC   C3A 2432   4.564   2.036   6.468
  162POPC   C4A 2433   4.426   1.924   6.058
  162POPC   C1B 2434   4.163   2.229   7.365
  162POPC   C2B 2435   4.028   2.310   6.948
  162POPC   C3B 2436   4.136   2.323   6.528
  162POPC   C4B 2437   4.012   2.198   6.142
  163POPC   NC3 2438   8.907   5.574   8.055
  163POPC   PO4 2439   9.468   5.442   8.110
  163POPC   GL1 2440   9.293   5.460   7.677
  163POPC   GL2 2441   9.037   5.696   7.549
  163POPC   C1A 2442   9.363   5.567   7.194
  163POPC   D2A 2443   9.272   5.729   6.759
  163POPC   C3A 2444   8.927   5.576   6.456
  163POPC   C4A 2445   8.949   5.440   6.004
  163POPC   C1B 2446   9.112   6.018   7.201
  163POPC   C2B 2447   8.948   6.115   6.769
  163POPC   C3B 2448   8.762   6.052   6.364
  163POPC   C4B 2449   8.789   6.373   6.028
  164POPC   NC3 2450   7.819   2.969   7.930
  164POPC   PO4 2451   8.188   2.484   8.082
  164POPC   GL1 2452   7.941   2.354   7.694
  164POPC   GL2 2453   7.847   2.642   7.562
  164POPC   C1A 2454   7.955   2.334   7.192
  164POPC   D2A 2455   7.956   2.686   6.831
  164POPC   C3A 2456   8.086   2.640   6.379
  164POPC   C4A 2457   7.989   2.322   6.084
  164POPC   C1B 2458   8.177   2.812   7.288
  164POPC   C2B 2459   8.418   2.977   6.900
  164POPC   C3B 2460   8.284   3.111   6.454
  164POPC   C4B 2461   8.265   3.101   5.958
  165POPC   NC3 2462   1.156   0.412   7.975
  165POPC   PO4 2463   1.608   0.913   7.982
  165POPC   GL1 2464   1.514   0.669   7.582
  165POPC   GL2 2465   1.145   0.637   7.524
  165POPC   C1A 2466   1.439   0.607   7.103
  165POPC   D2A 2467   1.008   0.501   6.907
  165POPC   C3A 2468   1.086   0.561   6.471
  165POPC   C4A 2469   1.519   0.582   6.429
  165POPC   C1B 2470   1.212   0.219   7.316
  165POPC   C2B 2471   1.311   0.057   6.883
  165POPC   C3B 2472   1.268   0.101   6.430
  165POPC   C4B 2473   0.866   0.175   6.198
  166POPC   NC3 2474   9.561   2.776   8.168
  166POPC   PO4 2475  10.136   2.597   7.960
  166POPC   GL1 2476   9.889   2.851   7.670
  166POPC   GL2 2477   9.586   2.650   7.671
  166POPC   C1A 2478   9.719   2.845   7.229
  166POPC   D2A 2479   9.868   2.558   6.953
  166POPC   C3A 2480  10.124   2.777   6.684
  166POPC   C4A 2481   9.973   2.687   6.278
  166POPC   C1B 2482   9.513   2.365   7.321
  166POPC   C2B 2483   9.357   2.472   6.916
  166POPC   C3B 2484   9.449   2.817   6.713
  166POPC   C4B 2485   9.477   2.816   6.272
  167POPC   NC3 2486  10.470   8.462   7.841
  167POPC   PO4 2487  10.053   8.850   8.297
  167POPC   GL1 2488  10.137   8.926   7.791
  167POPC   GL2 2489  10.246   9.260   7.721
  167POPC   C1A 2490  10.200   8.756   7.319
  167POPC   D2A 2491  10.415   8.607   6.918
  167POPC   C3A 2492  10.293   8.811   6.533
  167POPC   C4A 2493  10.391   8.671   6.120
  167POPC   C1B 2494  10.068   9.249   7.319
  167POPC   C2B 2495  10.287   9.141   6.948
  167POPC   C3B 2496  10.639   9.178   6.676
  167POPC   C4B 2497  10.604   9.147   6.224
  168POPC   NC3 2498   1.627   1.171   3.925
  168POPC   PO4 2499   0.976   0.944   3.949
  168POPC   GL1 2500   1.235   1.117   4.230
  168POPC   GL2 2501   1.042   1.372   4.381
  168POPC   C1A 2502   1.458   1.120   4.612
  168POPC   D2A 2503   1.333   1.178   5.049
  168POPC   C3A 2504   1.587   1.368   5.385
  168POPC   C4A 2505   1.668   0.956   5.611
  168POPC   C1B 2506   0.926   0.992   4.632
  168POPC   C2B 2507   0.888   0.873   5.074
  168POPC   C3B 2508   1.126   0.955   5.462
  168POPC   C4B 2509   1.142   1.405   5.642
  169POPC   NC3 2510  10.865   3.432   3.841
  169POPC   PO4 2511  10.187   3.450   3.824
  169POPC   GL1 2512  10.196   3.682   4.215
  169POPC   GL2 2513  10.565   3.680   4.242
  169POPC   C1A 2514  10.097   3.512   4.637
  169POPC   D2A 2515  10.215   3.223   5.000
  169POPC   C3A 2516   9.969   3.221   5.382
  169POPC   C4A 2517  10.118   3.329   5.779
  169POPC   C1B 2518  10.577   3.562   4.704
  169POPC   C2B 2519  10.380   3.706   5.118
  169POPC   C3B 2520  10.405   3.703   5.588
  169POPC   C4B 2521  10.704   3.823   5.935
  170POPC   NC3 2522   9.749   5.697   3.734
  170POPC   PO4 2523   9.325   5.351   3.926
  170POPC   GL1 2524   9.642   5.447   4.200
  170POPC   GL2 2525   9.645   5.798   4.253
  170POPC   C1A 2526   9.677   5.446   4.633
  170POPC   D2A 2527   9.431   5.463   4.988
  170POPC   C3A 2528   9.634   5.629   5.347
  170POPC   C4A 2529   9.530   5.603   5.770
  170POPC   C1B 2530   9.822   5.943   4.698
  170POPC   C2B 2531   9.864   6.050   5.151
  170POPC   C3B 2532   9.581   6.224   5.485
  170POPC   C4B 2533   9.492   6.093   5.910
  171POPC   NC3 2534   3.647  10.276   3.974
  171POPC   PO4 2535   3.949  10.823   4.010
  171POPC   GL1 2536   3.767  10.632   4.349
  171POPC   GL2 2537   3.411  10.610   4.302
  171POPC   C1A 2538   3.891  10.681   4.769
  171POPC   D2A 2539   3.911  10.815   5.168
  171POPC   C3A 2540   3.858  10.504   5.518
  171POPC   C4A 2541   3.768  10.322   5.946
  171POPC   C1B 2542   3.470  10.382   4.695
  171POPC   C2B 2543   3.469  10.526   5.132
  171POPC   C3B 2544   3.352  10.380   5.552
  171POPC   C4B 2545   3.364  10.031   5.795
  172POPC   NC3 2546  10.504   2.111   4.044
  172POPC   PO4 2547   9.869   1.953   4.074
  172POPC   GL1 2548  10.092   2.186   4.377
  172POPC   GL2 2549  10.286   1.896   4.459
  172POPC   C1A 2550  10.322   2.275   4.783
  172POPC   D2A 2551  10.390   2.027   5.155
  172POPC   C3A 2552  10.315   2.321   5.497
  172POPC   C4A 2553  10.451   2.316   5.928
  172POPC   C1B 2554  10.562   1.629   4.714
  172POPC   C2B 2555  10.534   1.473   5.123
  172POPC   C3B 2556  10.513   1.614   5.542
  172POPC   C4B 2557  10.214   1.889   5.756
  173POPC   NC3 2558  10.137  11.188   3.899
  173POPC   PO4 2559  10.691  10.661   3.828
  173POPC   GL1 2560  10.482  10.919   4.217
  173POPC   GL2 2561  10.378  11.277   4.340
  173POPC   C1A 2562  10.349  10.922   4.691
  173POPC   D2A 2563  10.118  10.813   5.076
  173POPC   C3A 2564  10.392  10.739   5.414
  173POPC   C4A 2565  10.548  10.925   5.783
  173POPC   C1B 2566  10.193  11.461   4.718
  173POPC   C2B 2567  10.034  11.367   5.135
  173POPC   C3B 2568  10.143   0.136   5.492
  173POPC   C4B 2569  10.473  11.457   5.728
  174POPC   NC3 2570   6.397  11.394   3.884
  174POPC   PO4 2571   7.093  11.447   4.017
  174POPC   GL1 2572   6.748  11.289   4.242
  174POPC   GL2 2573   6.761  10.933   4.315
  174POPC   C1A 2574   6.488  11.330   4.591
  174POPC   D2A 2575   6.615  11.319   5.039
  174POPC   C3A 2576   6.365  11.491   5.374
  174POPC   C4A 2577   6.216  11.378   5.785
  174POPC   C1B 2578   6.603  10.864   4.751
  174POPC   C2B 2579   6.298  10.884   5.112
  174POPC   C3B 2580   6.464  10.964   5.522
  174POPC   C4B 2581   6.856  10.889   5.725
  175POPC   NC3 2582   3.000   9.879   4.009
  175POPC   PO4 2583   3.629   9.825   3.951
  175POPC   GL1 2584   3.505   9.965   4.349
  175POPC   GL2 2585   3.444   9.640   4.419
  175POPC   C1A 2586   3.711   9.943   4.751
  175POPC   D2A 2587   3.542   9.968   5.185
  175POPC   C3A 2588   3.818   9.962   5.546
  175POPC   C4A 2589   3.790   9.805   5.976
  175POPC   C1B 2590   3.489   9.486   4.834
  175POPC   C2B 2591   3.301   9.467   5.218
  175POPC   C3B 2592   3.475   9.574   5.594
  175POPC   C4B 2593   3.365   9.548   6.020
  176POPC   NC3 2594  10.496   7.866   3.868
  176POPC   PO4 2595  10.699   8.505   3.985
  176POPC   GL1 2596  10.466   8.326   4.320
  176POPC   GL2 2597  10.440   7.966   4.376
  176POPC   C1A 2598  10.436   8.269   4.776
  176POPC   D2A 2599  10.671   8.075   5.115
  176POPC   C3A 2600  10.498   8.362   5.381
  176POPC   C4A 2601  10.213   8.497   5.660
  176POPC   C1B 2602  10.360   7.761   4.782
  176POPC   C2B 2603  10.199   7.881   5.174
  176POPC   C3B 2604  10.240   7.972   5.591
  176POPC   C4B 2605  10.194   7.699   5.977
  177POPC   NC3 2606   9.575   2.245   4.273
  177POPC   PO4 2607   9.591   2.907   3.958
  177POPC   GL1 2608   9.524   2.746   4.298
  177POPC   GL2 2609   9.886   2.657   4.302
  177POPC   C1A 2610   9.441   2.794   4.718
  177POPC   D2A 2611   9.348   3.020   5.066
  177POPC   C3A 2612   9.500   2.916   5.421
  177POPC   C4A 2613   9.297   2.920   5.778
  177POPC   C1B 2614   9.892   2.550   4.730
  177POPC   C2B 2615   9.872   2.808   5.062
  177POPC   C3B 2616   9.964   2.699   5.459
  177POPC   C4B 2617   9.738   2.664   5.835
  178POPC   NC3 2618  10.807   0.415   3.749
  178POPC   PO4 2619  11.283   0.187   4.157
  178POPC   GL1 2620  11.295   0.564   4.393
  178POPC   GL2 2621   0.141   0.608   4.321
  178POPC   C1A 2622  11.055   0.545   4.813
  178POPC   D2A 2623  10.941   0.184   5.102
  178POPC   C3A 2624  11.065   0.262   5.543
  178POPC   C4A 2625  11.051   0.670   5.745
  178POPC   C1B 2626   0.126   0.377   4.727
  178POPC   C2B 2627  11.448   0.455   5.113
  178POPC   C3B 2628   0.049   0.472   5.499
  178POPC   C4B 2629  11.480   0.317   5.860
  179POPC   NC3 2630   6.648   9.545   3.852
  179POPC   PO4 2631   6.173   9.949   3.790
  179POPC   GL1 2632   6.382   9.895   4.198
  179POPC   GL2 2633   6.603   9.637   4.357
  179POPC   C1A 2634   6.363  10.009   4.649
  179POPC   D2A 2635   6.412   9.770   5.026
  179POPC   C3A 2636   6.255   9.834   5.441
  179POPC   C4A 2637   6.392   9.582   5.799
  179POPC   C1B 2638   6.841   9.833   4.716
  179POPC   C2B 2639   6.856  10.019   5.124
  179POPC   C3B 2640   6.756   9.827   5.510
  179POPC   C4B 2641   6.746   9.906   5.949
  180POPC   NC3 2642   9.343   8.963   3.816
  180POPC   PO4 2643  10.056   9.030   3.770
  180POPC   GL1 2644   9.721   9.186   4.122
  180POPC   GL2 2645   9.524   8.890   4.284
  180POPC   C1A 2646   9.584   9.298   4.582
  180POPC   D2A 2647   9.775   9.173   4.990
  180POPC   C3A 2648   9.601   9.220   5.401
  180POPC   C4A 2649   9.676   9.116   5.816
  180POPC   C1B 2650   9.462   8.819   4.728
  180POPC   C2B 2651   9.302   8.864   5.138
  180POPC   C3B 2652   9.363   8.781   5.579
  180POPC   C4B 2653   9.745   8.611   5.725
  181POPC   NC3 2654  11.175   8.394   4.080
  181POPC   PO4 2655  10.920   7.867   3.726
  181POPC   GL1 2656  10.922   7.935   4.177
  181POPC   GL2 2657  11.256   7.882   4.192
  181POPC   C1A 2658  10.915   8.094   4.641
  181POPC   D2A 2659  11.183   8.184   5.049
  181POPC   C3A 2660  10.987   8.320   5.473
  181POPC   C4A 2661  10.716   8.339   5.858
  181POPC   C1B 2662  11.332   7.779   4.626
  181POPC   C2B 2663  11.126   7.639   5.008
  181POPC   C3B 2664  11.058   7.817   5.425
  181POPC   C4B 2665  11.418   7.937   5.703
  182POPC   NC3 2666   5.727  10.964   3.955
  182POPC   PO4 2667   6.327  11.022   3.615
  182POPC   GL1 2668   6.236  10.963   4.121
  182POPC   GL2 2669   6.037  11.286   4.232
  182POPC   C1A 2670   6.131  10.965   4.598
  182POPC   D2A 2671   6.091  11.323   4.935
  182POPC   C3A 2672   5.942  11.210   5.362
  182POPC   C4A 2673   5.992  10.922   5.702
  182POPC   C1B 2674   5.718  11.265   4.590
  182POPC   C2B 2675   5.558  11.301   5.026
  182POPC   C3B 2676   5.473  11.424   5.457
  182POPC   C4B 2677   5.685  11.342   5.841
  183POPC   NC3 2678   1.110   8.117   3.771
  183POPC   PO4 2679   1.677   8.369   3.943
  183POPC   GL1 2680   1.369   8.267   4.239
  183POPC   GL2 2681   1.056   8.151   4.290
  183POPC   C1A 2682   1.437   8.076   4.650
  183POPC   D2A 2683   1.287   8.177   5.078
  183POPC   C3A 2684   1.357   7.905   5.441
  183POPC   C4A 2685   1.446   8.129   5.817
  183POPC   C1B 2686   0.940   8.025   4.712
  183POPC   C2B 2687   0.777   8.170   5.121
  183POPC   C3B 2688   0.931   8.160   5.524
  183POPC   C4B 2689   0.962   7.902   5.877
  184POPC   NC3 2690  10.999  10.976   4.033
  184POPC   PO4 2691  10.620   0.042   3.984
  184POPC   GL1 2692  10.887  11.358   4.346
  184POPC   GL2 2693  11.243  11.233   4.393
  184POPC   C1A 2694  10.800  11.204   4.743
  184POPC   D2A 2695  10.558  11.276   5.127
  184POPC   C3A 2696  10.875  11.289   5.452
  184POPC   C4A 2697  10.911  11.263   5.905
  184POPC   C1B 2698  11.291  11.448   4.800
  184POPC   C2B 2699  11.396  11.465   5.242
  184POPC   C3B 2700  11.371  11.357   5.663
  184POPC   C4B 2701  11.379  11.058   5.956
  185POPC   NC3 2702   2.032  11.063   3.876
  185POPC   PO4 2703   2.519  10.584   3.898
  185POPC   GL1 2704   2.298  10.655   4.295
  185POPC   GL2 2705   2.081  10.938   4.367
  185POPC   C1A 2706   2.430  10.797   4.711
  185POPC   D2A 2707   2.314  11.093   5.018
  185POPC   C3A 2708   2.089  10.985   5.359
  185POPC   C4A 2709   2.203  11.077   5.739
  185POPC   C1B 2710   1.899  11.151   4.728
  185POPC   C2B 2711   1.636  11.062   5.060
  185POPC   C3B 2712   1.599  11.050   5.464
  185POPC   C4B 2713   1.746  11.302   5.776
  186POPC   NC3 2714   3.610   2.879   3.835
  186POPC   PO4 2715   2.940   3.132   3.990
  186POPC   GL1 2716   3.312   2.964   4.255
  186POPC   GL2 2717   3.333   2.581   4.218
  186POPC   C1A 2718   3.371   2.789   4.715
  186POPC   D2A 2719   3.246   2.819   5.183
  186POPC   C3A 2720   3.585   2.827   5.532
  186POPC   C4A 2721   3.793   2.979   5.955
  186POPC   C1B 2722   3.101   2.369   4.601
  186POPC   C2B 2723   3.222   2.292   5.061
  186POPC   C3B 2724   3.219   2.429   5.545
  186POPC   C4B 2725   3.140   2.395   6.035
  187POPC   NC3 2726   9.704   1.528   4.191
  187POPC   PO4 2727   9.291   2.147   3.939
  187POPC   GL1 2728   9.150   1.982   4.373
  187POPC   GL2 2729   9.477   1.826   4.534
  187POPC   C1A 2730   9.067   1.821   4.821
  187POPC   D2A 2731   9.462   1.830   5.089
  187POPC   C3A 2732   9.541   1.743   5.529
  187POPC   C4A 2733   9.508   1.896   5.933
  187POPC   C1B 2734   9.869   1.971   4.798
  187POPC   C2B 2735   9.917   2.241   5.170
  187POPC   C3B 2736   9.815   2.198   5.622
  187POPC   C4B 2737   9.913   2.215   6.073
  188POPC   NC3 2738   2.750   7.377   3.897
  188POPC   PO4 2739   3.003   6.893   3.977
  188POPC   GL1 2740   2.887   7.189   4.373
  188POPC   GL2 2741   2.647   7.491   4.394
  188POPC   C1A 2742   2.838   7.262   4.859
  188POPC   D2A 2743   2.963   7.045   5.260
  188POPC   C3A 2744   3.006   7.270   5.656
  188POPC   C4A 2745   2.954   7.275   6.108
  188POPC   C1B 2746   2.426   7.135   4.593
  188POPC   C2B 2747   2.279   7.109   5.042
  188POPC   C3B 2748   2.505   7.224   5.428
  188POPC   C4B 2749   2.579   7.485   5.822
  189POPC   NC3 2750   8.495  11.296   4.123
  189POPC   PO4 2751   8.396  10.696   3.756
  189POPC   GL1 2752   8.346  10.790   4.210
  189POPC   GL2 2753   8.080  11.012   4.259
  189POPC   C1A 2754   8.362  10.948   4.665
  189POPC   D2A 2755   8.156  11.244   4.946
  189POPC   C3A 2756   8.088  11.123   5.365
  189POPC   C4A 2757   8.312  10.999   5.725
  189POPC   C1B 2758   7.850  11.296   4.528
  189POPC   C2B 2759   7.641  11.311   4.910
  189POPC   C3B 2760   7.580  11.282   5.334
  189POPC   C4B 2761   7.760  11.300   5.724
  190POPC   NC3 2762   5.762   0.181   3.614
  190POPC   PO4 2763   5.278   0.485   3.947
  190POPC   GL1 2764   5.003   0.464   4.336
  190POPC   GL2 2765   4.923   0.114   4.493
  190POPC   C1A 2766   5.125   0.511   4.772
  190POPC   D2A 2767   5.265   0.231   5.061
  190POPC   C3A 2768   5.305   0.422   5.432
  190POPC   C4A 2769   5.087   0.430   5.794
  190POPC   C1B 2770   4.654   0.307   4.730
  190POPC   C2B 2771   4.665   0.534   5.050
  190POPC   C3B 2772   4.737   0.501   5.424
  190POPC   C4B 2773   4.708   0.760   5.750
  191POPC   NC3 2774   4.788   1.766   3.881
  191POPC   PO4 2775   4.793   2.449   3.935
  191POPC   GL1 2776   4.879   2.210   4.313
  191POPC   GL2 2777   5.037   1.880   4.319
  191POPC   C1A 2778   4.697   2.179   4.748
  191POPC   D2A 2779   4.504   2.139   5.168
  191POPC   C3A 2780   4.813   2.238   5.490
  191POPC   C4A 2781   4.849   2.153   5.922
  191POPC   C1B 2782   4.858   1.697   4.710
  191POPC   C2B 2783   4.910   1.831   5.158
  191POPC   C3B 2784   5.088   1.808   5.616
  191POPC   C4B 2785   5.281   1.916   6.045
  192POPC   NC3 2786   4.162   0.221   3.837
  192POPC   PO4 2787   4.688  11.484   4.045
  192POPC   GL1 2788   4.373   0.220   4.330
  192POPC   GL2 2789   4.179   0.533   4.304
  192POPC   C1A 2790   4.155   0.166   4.747
  192POPC   D2A 2791   4.409   0.057   5.113
  192POPC   C3A 2792   4.341   0.170   5.514
  192POPC   C4A 2793   4.637   0.200   5.830
  192POPC   C1B 2794   4.279   0.667   4.739
  192POPC   C2B 2795   4.163   0.530   5.157
  192POPC   C3B 2796   4.243   0.687   5.556
  192POPC   C4B 2797   4.269   0.876   5.975
  193POPC   NC3 2798   1.402   2.144   3.967
  193POPC   PO4 2799   1.696   1.638   3.927
  193POPC   GL1 2800   1.507   1.603   4.329
  193POPC   GL2 2801   1.246   1.872   4.362
  193POPC   C1A 2802   1.336   1.590   4.760
  193POPC   D2A 2803   1.059   1.627   5.123
  193POPC   C3A 2804   1.249   1.890   5.410
  193POPC   C4A 2805   1.468   1.781   5.760
  193POPC   C1B 2806   0.901   1.884   4.684
  193POPC   C2B 2807   0.772   2.089   5.078
  193POPC   C3B 2808   0.964   2.358   5.353
  193POPC   C4B 2809   1.177   2.255   5.759
  194POPC   NC3 2810   5.855   0.521   4.090
  194POPC   PO4 2811   5.603  11.434   3.968
  194POPC   GL1 2812   5.521   0.195   4.374
  194POPC   GL2 2813   5.499   0.565   4.437
  194POPC   C1A 2814   5.710   0.257   4.804
  194POPC   D2A 2815   5.992   0.285   5.165
  194POPC   C3A 2816   5.895   0.230   5.577
  194POPC   C4A 2817   5.593   0.375   5.848
  194POPC   C1B 2818   5.879   0.736   4.674
  194POPC   C2B 2819   6.152   0.736   4.988
  194POPC   C3B 2820   6.079   0.895   5.408
  194POPC   C4B 2821   5.958   0.722   5.811
  195POPC   NC3 2822   4.043   9.675   3.827
  195POPC   PO4 2823   4.675   9.424   4.089
  195POPC   GL1 2824   4.234   9.500   4.248
  195POPC   GL2 2825   4.068   9.854   4.308
  195POPC   C1A 2826   3.943   9.462   4.599
  195POPC   D2A 2827   3.983   9.615   5.036
  195POPC   C3A 2828   4.229   9.362   5.336
  195POPC   C4A 2829   3.979   9.451   5.657
  195POPC   C1B 2830   4.364   9.772   4.696
  195POPC   C2B 2831   4.469   9.761   5.168
  195POPC   C3B 2832   4.498   9.760   5.633
  195POPC   C4B 2833   4.701  10.168   5.771
  196POPC   NC3 2834   2.971   1.813   3.997
  196POPC   PO4 2835   2.466   1.496   3.692
  196POPC   GL1 2836   2.398   1.741   4.200
  196POPC   GL2 2837   2.446   2.082   4.182
  196POPC   C1A 2838   2.262   1.772   4.641
  196POPC   D2A 2839   2.562   1.626   4.960
  196POPC   C3A 2840   2.527   1.771   5.403
  196POPC   C4A 2841   2.737   1.676   5.807
  196POPC   C1B 2842   2.712   1.994   4.565
  196POPC   C2B 2843   2.619   2.130   4.974
  196POPC   C3B 2844   2.823   2.172   5.349
  196POPC   C4B 2845   2.736   2.204   5.772
  197POPC   NC3 2846   7.588  11.443   3.878
  197POPC   PO4 2847   7.244   0.548   3.719
  197POPC   GL1 2848   7.413   0.509   4.195
  197POPC   GL2 2849   7.652   0.241   4.260
  197POPC   C1A 2850   7.226   0.617   4.641
  197POPC   D2A 2851   7.376   0.862   5.007
  197POPC   C3A 2852   7.244   0.727   5.408
  197POPC   C4A 2853   7.027   0.483   5.699
  197POPC   C1B 2854   7.398   0.133   4.595
  197POPC   C2B 2855   7.476   0.294   4.998
  197POPC   C3B 2856   7.368   0.227   5.405
  197POPC   C4B 2857   7.460   0.233   5.826
  198POPC   NC3 2858   1.111   7.595   3.716
  198POPC   PO4 2859   1.547   7.047   3.885
  198POPC   GL1 2860   1.384   7.343   4.199
  198POPC   GL2 2861   1.178   7.152   4.440
  198POPC   C1A 2862   1.486   7.558   4.596
  198POPC   D2A 2863   1.279   7.650   4.996
  198POPC   C3A 2864   1.405   7.339   5.323
  198POPC   C4A 2865   1.486   7.059   5.706
  198POPC   C1B 2866   0.926   7.512   4.608
  198POPC   C2B 2867   0.726   7.656   5.009
  198POPC   C3B 2868   0.901   7.662   5.420
  198POPC   C4B 2869   1.203   7.485   5.754
  199POPC   NC3 2870   0.848   3.684   3.922
  199POPC   PO4 2871   0.548   3.051   3.921
  199POPC   GL1 2872   0.525   3.323   4.275
  199POPC   GL2 2873   0.620   3.665   4.402
  199POPC   C1A 2874   0.436   3.284   4.697
  199POPC   D2A 2875   0.634   3.571   4.974
  199POPC   C3A 2876   0.663   3.383   5.362
  199POPC   C4A 2877   0.398   3.188   5.645
  199POPC   C1B 2878   0.219   3.748   4.638
  199POPC   C2B 2879   0.119   3.546   5.041
  199POPC   C3B 2880   0.253   3.647   5.456
  199POPC   C4B 2881   0.098   3.731   5.840
  200POPC   NC3 2882  10.468   5.790   3.981
  200POPC   PO4 2883  10.007   5.277   3.879
  200POPC   GL1 2884  10.159   5.514   4.279
  200POPC   GL2 2885  10.547   5.545   4.409
  200POPC   C1A 2886  10.178   5.404   4.718
  200POPC   D2A 2887  10.161   5.629   5.094
  200POPC   C3A 2888  10.113   5.513   5.517
  200POPC   C4A 2889   9.953   5.924   5.655
  200POPC   C1B 2890  10.462   5.870   4.701
  200POPC   C2B 2891  10.422   6.050   5.122
  200POPC   C3B 2892  10.457   5.898   5.530
  200POPC   C4B 2893  10.693   6.147   5.803
  201POPC   NC3 2894   8.943   5.611   3.801
  201POPC   PO4 2895   8.474   5.838   4.124
  201POPC   GL1 2896   8.803   5.557   4.319
  201POPC   GL2 2897   9.159   5.585   4.335
  201POPC   C1A 2898   8.927   5.599   4.790
  201POPC   D2A 2899   8.849   5.928   5.129
  201POPC   C3A 2900   8.676   5.793   5.556
  201POPC   C4A 2901   8.518   5.785   6.004
  201POPC   C1B 2902   9.303   5.906   4.624
  201POPC   C2B 2903   9.366   5.979   5.066
  201POPC   C3B 2904   9.197   5.897   5.500
  201POPC   C4B 2905   9.011   5.939   5.916
  202POPC   NC3 2906   6.035   1.496   3.954
  202POPC   PO4 2907   5.713   0.943   4.014
  202POPC   GL1 2908   5.525   1.072   4.390
  202POPC   GL2 2909   5.559   1.399   4.316
  202POPC   C1A 2910   5.445   0.947   4.824
  202POPC   D2A 2911   5.648   0.703   5.161
  202POPC   C3A 2912   5.580   0.945   5.540
  202POPC   C4A 2913   5.387   1.374   5.589
  202POPC   C1B 2914   5.965   1.255   4.556
  202POPC   C2B 2915   5.932   1.190   4.982
  202POPC   C3B 2916   5.851   1.380   5.358
  202POPC   C4B 2917   5.938   1.242   5.776
  203POPC   NC3 2918   7.032   1.419   3.990
  203POPC   PO4 2919   6.949   2.122   3.911
  203POPC   GL1 2920   7.299   1.959   4.207
  203POPC   GL2 2921   7.561   2.186   4.324
  203POPC   C1A 2922   7.481   1.799   4.625
  203POPC   D2A 2923   7.313   1.684   5.030
  203POPC   C3A 2924   7.336   1.727   5.470
  203POPC   C4A 2925   7.004   1.820   5.710
  203POPC   C1B 2926   7.631   2.285   4.779
  203POPC   C2B 2927   7.512   2.149   5.206
  203POPC   C3B 2928   7.298   2.236   5.605
  203POPC   C4B 2929   7.442   2.349   6.005
  204POPC   NC3 2930   8.011   1.483   3.796
  204POPC   PO4 2931   7.931   0.815   3.878
  204POPC   GL1 2932   8.275   0.951   4.136
  204POPC   GL2 2933   8.055   1.205   4.226
  204POPC   C1A 2934   8.475   1.124   4.522
  204POPC   D2A 2935   8.466   0.984   4.973
  204POPC   C3A 2936   8.497   1.236   5.341
  204POPC   C4A 2937   8.499   1.190   5.793
  204POPC   C1B 2938   7.996   1.168   4.654
  204POPC   C2B 2939   8.075   1.364   5.058
  204POPC   C3B 2940   8.031   1.306   5.511
  204POPC   C4B 2941   8.132   1.561   5.840
  205POPC   NC3 2942   8.695   9.201   3.911
  205POPC   PO4 2943   8.994   8.622   3.869
  205POPC   GL1 2944   9.002   8.902   4.239
  205POPC   GL2 2945   8.689   8.980   4.410
  205POPC   C1A 2946   9.085   9.156   4.643
  205POPC   D2A 2947   8.829   9.045   5.005
  205POPC   C3A 2948   8.957   9.079   5.451
  205POPC   C4A 2949   8.670   9.007   5.761
  205POPC   C1B 2950   8.955   8.661   4.686
  205POPC   C2B 2951   8.911   8.527   5.130
  205POPC   C3B 2952   8.899   8.561   5.597
  205POPC   C4B 2953   8.910   8.677   6.041
  206POPC   NC3 2954   4.910  11.178   3.774
  206POPC   PO4 2955   4.245  11.277   3.730
  206POPC   GL1 2956   4.270  11.240   4.207
  206POPC   GL2 2957   4.053  11.063   4.429
  206POPC   C1A 2958   4.470  11.279   4.623
  206POPC   D2A 2959   4.309  11.084   4.968
  206POPC   C3A 2960   4.622  11.087   5.283
  206POPC   C4A 2961   4.638  11.195   5.697
  206POPC   C1B 2962   3.827  11.234   4.756
  206POPC   C2B 2963   3.902  11.400   5.156
  206POPC   C3B 2964   4.137  11.198   5.466
  206POPC   C4B 2965   4.023  10.927   5.796
  207POPC   NC3 2966   0.494  10.813   3.924
  207POPC   PO4 2967   0.731  11.477   4.014
  207POPC   GL1 2968   0.583  11.170   4.272
  207POPC   GL2 2969   0.229  11.140   4.199
  207POPC   C1A 2970   0.688  11.048   4.703
  207POPC   D2A 2971   0.911  11.303   4.996
  207POPC   C3A 2972   0.728  11.189   5.397
  207POPC   C4A 2973   0.793  11.354   5.791
  207POPC   C1B 2974   0.209  11.203   4.632
  207POPC   C2B 2975   0.276  10.987   5.014
  207POPC   C3B 2976   0.218  11.089   5.388
  207POPC   C4B 2977   0.338  11.073   5.750
  208POPC   NC3 2978   8.751  10.444   3.943
  208POPC   PO4 2979   9.374  10.485   3.753
  208POPC   GL1 2980   9.150  10.601   4.270
  208POPC   GL2 2981   8.918  10.380   4.413
  208POPC   C1A 2982   8.825  10.734   4.719
  208POPC   D2A 2983   8.516  10.712   5.090
  208POPC   C3A 2984   8.720  10.750   5.519
  208POPC   C4A 2985   9.120  10.527   5.606
  208POPC   C1B 2986   9.215  10.415   4.751
  208POPC   C2B 2987   8.995  10.435   5.119
  208POPC   C3B 2988   8.645  10.288   5.332
  208POPC   C4B 2989   8.577  10.263   5.758
  209POPC   NC3 2990   5.135   0.051   4.055
  209POPC   PO4 2991   5.332  11.014   3.715
  209POPC   GL1 2992   5.231  11.064   4.191
  209POPC   GL2 2993   4.852  11.081   4.319
  209POPC   C1A 2994   5.205  11.229   4.656
  209POPC   D2A 2995   4.882  11.396   4.969
  209POPC   C3A 2996   4.952   0.011   5.434
  209POPC   C4A 2997   5.134  11.426   5.875
  209POPC   C1B 2998   4.808  10.906   4.781
  209POPC   C2B 2999   5.045  10.808   5.181
  209POPC   C3B 3000   5.186  10.986   5.605
  209POPC   C4B 3001   4.947  10.970   6.030
  210POPC   NC3 3002   0.515  10.151   3.659
  210POPC   PO4 3003  11.432   9.913   3.922
  210POPC   GL1 3004   0.291  10.183   4.187
  210POPC   GL2 3005   0.405  10.479   4.274
  210POPC   C1A 3006   0.262  10.144   4.673
  210POPC   D2A 3007   0.064  10.079   5.101
  210POPC   C3A 3008   0.350  10.193   5.455
  210POPC   C4A 3009   0.329  10.384   5.878
  210POPC   C1B 3010   0.325  10.657   4.637
  210POPC   C2B 3011   0.473  10.505   5.045
  210POPC   C3B 3012   0.549  10.685   5.443
  210POPC   C4B 3013   0.692  10.735   5.851
  211POPC   NC3 3014   2.134   1.788   3.804
  211POPC   PO4 3015   2.220   2.447   3.877
  211POPC   GL1 3016   1.964   2.302   4.210
  211POPC   GL2 3017   1.918   1.956   4.258
  211POPC   C1A 3018   2.112   2.285   4.631
  211POPC   D2A 3019   1.976   2.236   5.047
  211POPC   C3A 3020   2.288   2.241   5.358
  211POPC   C4A 3021   2.198   2.251   5.766
  211POPC   C1B 3022   1.714   1.950   4.660
  211POPC   C2B 3023   1.651   1.818   5.086
  211POPC   C3B 3024   1.857   1.923   5.458
  211POPC   C4B 3025   1.685   2.228   5.692
  212POPC   NC3 3026  10.933   8.821   3.756
  212POPC   PO4 3027   0.013   8.610   3.828
  212POPC   GL1 3028  11.416   8.816   4.237
  212POPC   GL2 3029  11.193   9.043   4.159
  212POPC   C1A 3030  11.276   8.676   4.692
  212POPC   D2A 3031  11.308   8.722   5.122
  212POPC   C3A 3032  11.471   8.435   5.433
  212POPC   C4A 3033  11.222   8.775   5.656
  212POPC   C1B 3034  11.210   9.160   4.620
  212POPC   C2B 3035  11.011   9.140   4.989
  212POPC   C3B 3036  11.090   9.184   5.398
  212POPC   C4B 3037  10.919   9.183   5.794
  213POPC   NC3 3038   7.135  10.951   3.910
  213POPC   PO4 3039   7.850  11.019   3.820
  213POPC   GL1 3040   7.588  10.874   4.166
  213POPC   GL2 3041   7.421  11.173   4.281
  213POPC   C1A 3042   7.564  10.867   4.641
  213POPC   D2A 3043   7.466  10.855   5.076
  213POPC   C3A 3044   7.654  10.787   5.438
  213POPC   C4A 3045   7.458  10.896   5.805
  213POPC   C1B 3046   7.123  11.183   4.616
  213POPC   C2B 3047   7.133  11.362   4.995
  213POPC   C3B 3048   7.078  11.142   5.345
  213POPC   C4B 3049   7.207  11.320   5.708
  214POPC   NC3 3050   4.041   1.419   4.059
  214POPC   PO4 3051   3.376   1.566   3.843
  214POPC   GL1 3052   3.295   1.444   4.257
  214POPC   GL2 3053   3.524   1.169   4.203
  214POPC   C1A 3054   3.554   1.435   4.663
  214POPC   D2A 3055   3.932   1.520   4.940
  214POPC   C3A 3056   3.744   1.499   5.333
  214POPC   C4A 3057   3.512   1.541   5.689
  214POPC   C1B 3058   3.280   0.983   4.538
  214POPC   C2B 3059   3.359   0.872   4.957
  214POPC   C3B 3060   3.330   0.841   5.385
  214POPC   C4B 3061   3.511   1.033   5.697
  215POPC   NC3 3062   9.710   6.627   4.020
  215POPC   PO4 3063  10.072   6.063   3.871
  215POPC   GL1 3064   9.881   6.243   4.288
  215POPC   GL2 3065   9.487   6.325   4.367
  215POPC   C1A 3066   9.835   6.503   4.681
  215POPC   D2A 3067   9.631   6.515   5.081
  215POPC   C3A 3068   9.854   6.697   5.473
  215POPC   C4A 3069   9.831   6.456   5.865
  215POPC   C1B 3070   9.371   6.734   4.667
  215POPC   C2B 3071   9.377   6.939   5.113
  215POPC   C3B 3072   9.351   6.717   5.523
  215POPC   C4B 3073   9.333   6.575   5.935
  216POPC   NC3 3074   4.509   9.003   4.021
  216POPC   PO4 3075   3.953   9.184   3.864
  216POPC   GL1 3076   3.958   9.020   4.290
  216POPC   GL2 3077   4.271   9.052   4.469
  216POPC   C1A 3078   3.835   8.986   4.754
  216POPC   D2A 3079   3.768   9.167   5.186
  216POPC   C3A 3080   4.017   8.938   5.519
  216POPC   C4A 3081   4.138   8.516   5.669
  216POPC   C1B 3082   4.537   8.904   4.790
  216POPC   C2B 3083   4.440   8.875   5.228
  216POPC   C3B 3084   4.562   8.802   5.635
  216POPC   C4B 3085   4.748   8.906   6.008
  217POPC   NC3 3086   1.169   4.460   3.948
  217POPC   PO4 3087   1.713   4.795   4.126
  217POPC   GL1 3088   1.440   4.398   4.353
  217POPC   GL2 3089   1.164   4.062   4.257
  217POPC   C1A 3090   1.132   4.319   4.687
  217POPC   D2A 3091   1.277   4.485   5.036
  217POPC   C3A 3092   1.290   4.355   5.434
  217POPC   C4A 3093   1.442   4.590   5.775
  217POPC   C1B 3094   1.053   3.808   4.652
  217POPC   C2B 3095   0.999   3.922   5.106
  217POPC   C3B 3096   0.980   3.972   5.569
  217POPC   C4B 3097   1.341   4.057   5.858
  218POPC   NC3 3098   1.665   3.706   3.771
  218POPC   PO4 3099   2.174   3.769   4.080
  218POPC   GL1 3100   2.034   3.593   4.386
  218POPC   GL2 3101   2.208   3.304   4.337
  218POPC   C1A 3102   1.959   3.752   4.760
  218POPC   D2A 3103   1.889   3.928   5.138
  218POPC   C3A 3104   1.955   3.675   5.455
  218POPC   C4A 3105   2.138   3.710   5.831
  218POPC   C1B 3106   1.963   3.225   4.740
  218POPC   C2B 3107   2.073   3.233   5.183
  218POPC   C3B 3108   1.964   3.197   5.633
  218POPC   C4B 3109   2.168   3.258   6.026
  219POPC   NC3 3110  10.590   1.137   3.832
  219POPC   PO4 3111   9.946   1.251   3.900
  219POPC   GL1 3112  10.221   1.090   4.269
  219POPC   GL2 3113  10.623   1.101   4.333
  219POPC   C1A 3114  10.307   1.147   4.730
  219POPC   D2A 3115  10.063   1.249   5.102
  219POPC   C3A 3116  10.024   1.642   5.302
  219POPC   C4A 3117   9.950   1.443   5.690
  219POPC   C1B 3118  10.817   1.026   4.738
  219POPC   C2B 3119  10.627   0.965   5.129
  219POPC   C3B 3120  10.424   1.100   5.510
  219POPC   C4B 3121  10.647   1.019   5.895
  220POPC   NC3 3122   8.686   3.578   3.886
  220POPC   PO4 3123   9.253   3.309   3.696
  220POPC   GL1 3124   9.163   3.327   4.177
  220POPC   GL2 3125   8.847   3.408   4.332
  220POPC   C1A 3126   9.252   3.524   4.630
  220POPC   D2A 3127   9.236   3.819   5.025
  220POPC   C3A 3128   9.121   3.588   5.405
  220POPC   C4A 3129   8.991   3.407   5.792
  220POPC   C1B 3130   8.560   3.337   4.685
  220POPC   C2B 3131   8.476   3.225   5.138
  220POPC   C3B 3132   8.526   3.384   5.556
  220POPC   C4B 3133   8.376   3.654   5.893
  221POPC   NC3 3134   0.866   0.507   3.859
  221POPC   PO4 3135   1.429   0.176   3.796
  221POPC   GL1 3136   1.161   0.274   4.183
  221POPC   GL2 3137   1.144   0.607   4.323
  221POPC   C1A 3138   1.047   0.192   4.611
  221POPC   D2A 3139   0.971   0.365   5.004
  221POPC   C3A 3140   0.825   0.182   5.358
  221POPC   C4A 3141   0.986   0.350   5.726
  221POPC   C1B 3142   1.347   0.626   4.743
  221POPC   C2B 3143   1.602   0.566   5.138
  221POPC   C3B 3144   1.594   0.342   5.560
  221POPC   C4B 3145   1.402   0.541   5.933
  222POPC   NC3 3146   1.519   8.794   4.116
  222POPC   PO4 3147   0.872   8.821   3.925
  222POPC   GL1 3148   1.041   8.678   4.291
  222POPC   GL2 3149   1.094   9.013   4.396
  222POPC   C1A 3150   1.230   8.538   4.684
  222POPC   D2A 3151   1.028   8.634   5.087
  222POPC   C3A 3152   1.248   8.543   5.462
  222POPC   C4A 3153   1.360   8.651   5.869
  222POPC   C1B 3154   1.288   9.028   4.802
  222POPC   C2B 3155   1.314   9.042   5.226
  222POPC   C3B 3156   0.994   8.994   5.491
  222POPC   C4B 3157   1.148   9.132   5.850
  223POPC   NC3 3158   9.964   0.615   3.879
  223POPC   PO4 3159   9.731  11.441   3.837
  223POPC   GL1 3160   9.752   0.242   4.187
  223POPC   GL2 3161   9.424   0.313   4.211
  223POPC   C1A 3162   9.682   0.321   4.647
  223POPC   D2A 3163   9.905   0.331   5.003
  223POPC   C3A 3164   9.702   0.391   5.365
  223POPC   C4A 3165   9.806   0.471   5.774
  223POPC   C1B 3166   9.258   0.569   4.537
  223POPC   C2B 3167   9.287   0.460   4.980
  223POPC   C3B 3168   9.273   0.658   5.389
  223POPC   C4B 3169   9.357   0.697   5.797
  224POPC   NC3 3170   8.092   2.944   4.017
  224POPC   PO4 3171   7.885   2.348   3.643
  224POPC   GL1 3172   8.145   2.446   4.054
  224POPC   GL2 3173   7.965   2.479   4.336
  224POPC   C1A 3174   8.451   2.542   4.446
  224POPC   D2A 3175   8.504   2.812   4.836
  224POPC   C3A 3176   8.524   2.725   5.322
  224POPC   C4A 3177   8.380   2.568   5.762
  224POPC   C1B 3178   7.958   2.723   4.700
  224POPC   C2B 3179   8.023   2.960   5.062
  224POPC   C3B 3180   8.066   2.884   5.499
  224POPC   C4B 3181   7.875   2.760   5.887
  225POPC   NC3 3182   7.468   0.913   3.887
  225POPC   PO4 3183   7.582   1.617   3.916
  225POPC   GL1 3184   7.565   1.368   4.325
  225POPC   GL2 3185   7.444   1.013   4.392
  225POPC   C1A 3186   7.536   1.305   4.791
  225POPC   D2A 3187   7.586   1.314   5.235
  225POPC   C3A 3188   7.565   1.089   5.601
  225POPC   C4A 3189   7.624   1.450   5.801
  225POPC   C1B 3190   7.056   1.147   4.684
  225POPC   C2B 3191   6.910   1.363   5.076
  225POPC   C3B 3192   7.102   1.247   5.462
  225POPC   C4B 3193   7.072   0.962   5.831
  226POPC   NC3 3194  10.308   4.874   3.833
  226POPC   PO4 3195  10.813   5.399   3.966
  226POPC   GL1 3196  10.558   5.077   4.232
  226POPC   GL2 3197  10.149   5.009   4.295
  226POPC   C1A 3198  10.620   5.103   4.687
  226POPC   D2A 3199  10.467   5.229   5.094
  226POPC   C3A 3200  10.647   5.243   5.498
  226POPC   C4A 3201  10.409   5.166   5.877
  226POPC   C1B 3202  10.316   4.704   4.563
  226POPC   C2B 3203  10.323   4.750   5.015
  226POPC   C3B 3204  10.217   4.944   5.428
  226POPC   C4B 3205  10.033   4.776   5.763
  227POPC   NC3 3206   2.140   4.228   4.000
  227POPC   PO4 3207   1.477   4.132   3.838
  227POPC   GL1 3208   1.653   3.941   4.277
  227POPC   GL2 3209   1.899   4.115   4.408
  227POPC   C1A 3210   1.576   4.102   4.780
  227POPC   D2A 3211   1.748   4.393   5.182
  227POPC   C3A 3212   1.760   4.150   5.590
  227POPC   C4A 3213   1.843   4.056   6.040
  227POPC   C1B 3214   2.091   4.253   4.761
  227POPC   C2B 3215   2.263   4.254   5.155
  227POPC   C3B 3216   2.264   4.089   5.530
  227POPC   C4B 3217   2.331   4.242   5.954
  228POPC   NC3 3218  11.043   4.259   3.899
  228POPC   PO4 3219  11.482   4.742   3.880
  228POPC   GL1 3220   0.004   4.539   4.269
  228POPC   GL2 3221  11.150   4.555   4.333
  228POPC   C1A 3222   0.191   4.402   4.672
  228POPC   D2A 3223   0.154   4.481   5.110
  228POPC   C3A 3224  11.365   4.338   5.408
  228POPC   C4A 3225  11.186   4.545   5.787
  228POPC   C1B 3226  11.258   4.140   4.546
  228POPC   C2B 3227  11.387   3.995   4.966
  228POPC   C3B 3228  11.287   3.828   5.382
  228POPC   C4B 3229  11.152   4.030   5.760
  229POPC   NC3 3230   3.457   5.752   4.020
  229POPC   PO4 3231   3.862   5.509   4.292
  229POPC   GL1 3232   3.601   5.787   4.561
  229POPC   GL2 3233   3.354   6.027   4.440
  229POPC   C1A 3234   3.509   5.892   5.021
  229POPC   D2A 3235   3.595   5.736   5.480
  229POPC   C3A 3236   3.733   6.047   5.799
  229POPC   C4A 3237   3.810   6.251   6.202
  229POPC   C1B 3238   3.111   5.720   4.714
  229POPC   C2B 3239   3.117   5.593   5.166
  229POPC   C3B 3240   3.128   5.595   5.607
  229POPC   C4B 3241   3.215   5.913   5.901
  230POPC   NC3 3242   9.109   2.909   3.852
  230POPC   PO4 3243   8.511   3.144   3.987
  230POPC   GL1 3244   8.797   2.890   4.261
  230POPC   GL2 3245   8.898   2.517   4.142
  230POPC   C1A 3246   8.995   3.037   4.645
  230POPC   D2A 3247   8.963   3.319   4.995
  230POPC   C3A 3248   8.938   3.095   5.381
  230POPC   C4A 3249   8.727   2.960   5.752
  230POPC   C1B 3250   8.973   2.518   4.599
  230POPC   C2B 3251   8.966   2.681   5.034
  230POPC   C3B 3252   9.036   2.600   5.478
  230POPC   C4B 3253   8.937   2.533   5.925
  231POPC   NC3 3254   9.986   3.139   4.098
  231POPC   PO4 3255  10.237   2.471   3.959
  231POPC   GL1 3256  10.417   2.588   4.325
  231POPC   GL2 3257  10.774   2.584   4.274
  231POPC   C1A 3258  10.310   2.829   4.687
  231POPC   D2A 3259  10.381   2.725   5.124
  231POPC   C3A 3260  10.413   2.988   5.494
  231POPC   C4A 3261  10.254   2.786   5.860
  231POPC   C1B 3262  10.743   2.560   4.740
  231POPC   C2B 3263  10.770   2.407   5.158
  231POPC   C3B 3264  10.729   2.596   5.601
  231POPC   C4B 3265  10.735   2.808   6.016
  232POPC   NC3 3266   1.791   7.485   3.929
  232POPC   PO4 3267   2.431   7.712   3.950
  232POPC   GL1 3268   2.146   7.536   4.286
  232POPC   GL2 3269   2.034   7.172   4.234
  232POPC   C1A 3270   2.007   7.379   4.685
  232POPC   D2A 3271   1.799   7.426   5.015
  232POPC   C3A 3272   2.096   7.536   5.321
  232POPC   C4A 3273   2.187   7.760   5.717
  232POPC   C1B 3274   1.662   7.049   4.541
  232POPC   C2B 3275   1.652   6.920   4.989
  232POPC   C3B 3276   1.867   7.073   5.376
  232POPC   C4B 3277   2.113   7.237   5.749
  233POPC   NC3 3278   0.403   8.812   3.996
  233POPC   PO4 3279   0.078   8.309   4.285
  233POPC   GL1 3280   0.285   8.673   4.544
  233POPC   GL2 3281   0.579   8.903   4.446
  233POPC   C1A 3282   0.201   9.057   4.775
  233POPC   D2A 3283   0.037   9.196   5.155
  233POPC   C3A 3284   0.194   8.889   5.442
  233POPC   C4A 3285   0.222   8.652   5.834
  233POPC   C1B 3286   0.758   9.041   4.832
  233POPC   C2B 3287   0.568   9.186   5.230
  233POPC   C3B 3288   0.541   9.169   5.691
  233POPC   C4B 3289   0.721   8.823   5.904
  234POPC   NC3 3290   3.518   9.033   3.887
  234POPC   PO4 3291   3.265   8.490   4.077
  234POPC   GL1 3292   3.464   8.753   4.398
  234POPC   GL2 3293   3.461   9.121   4.408
  234POPC   C1A 3294   3.489   8.621   4.843
  234POPC   D2A 3295   3.741   8.643   5.216
  234POPC   C3A 3296   3.523   8.568   5.606
  234POPC   C4A 3297   3.438   8.437   6.039
  234POPC   C1B 3298   3.231   9.051   4.813
  234POPC   C2B 3299   3.305   8.939   5.262
  234POPC   C3B 3300   3.537   9.075   5.653
  234POPC   C4B 3301   3.366   9.038   6.074
  235POPC   NC3 3302   2.621   2.732   3.815
  235POPC   PO4 3303   3.140   2.226   3.820
  235POPC   GL1 3304   2.832   2.419   4.167
  235POPC   GL2 3305   2.856   2.780   4.336
  235POPC   C1A 3306   2.586   2.477   4.592
  235POPC   D2A 3307   2.816   2.599   4.993
  235POPC   C3A 3308   2.645   2.633   5.418
  235POPC   C4A 3309   2.836   2.724   5.809
  235POPC   C1B 3310   2.895   3.036   4.757
  235POPC   C2B 3311   2.591   3.090   5.160
  235POPC   C3B 3312   2.491   3.066   5.641
  235POPC   C4B 3313   2.539   2.966   6.126
  236POPC   NC3 3314   1.852   0.343   3.870
  236POPC   PO4 3315   1.698  11.248   4.124
  236POPC   GL1 3316   1.626   0.165   4.330
  236POPC   GL2 3317   1.685   0.553   4.318
  236POPC   C1A 3318   1.744   0.251   4.749
  236POPC   D2A 3319   2.112   0.086   4.949
  236POPC   C3A 3320   1.995  11.488   5.348
  236POPC   C4A 3321   2.160   0.144   5.709
  236POPC   C1B 3322   2.116   0.520   4.525
  236POPC   C2B 3323   2.168   0.609   4.976
  236POPC   C3B 3324   2.062   0.536   5.394
  236POPC   C4B 3325   2.388   0.630   5.701
  237POPC   NC3 3326   1.866   2.742   3.943
  237POPC   PO4 3327   2.325   3.095   3.786
  237POPC   GL1 3328   2.349   2.840   4.221
  237POPC   GL2 3329   2.037   2.779   4.413
  237POPC   C1A 3330   2.406   2.951   4.685
  237POPC   D2A 3331   2.315   2.640   5.008
  237POPC   C3A 3332   2.128   2.752   5.391
  237POPC   C4A 3333   2.167   2.754   5.847
  237POPC   C1B 3334   1.846   2.705   4.812
  237POPC   C2B 3335   1.500   2.483   5.001
  237POPC   C3B 3336   1.409   2.581   5.409
  237POPC   C4B 3337   1.702   2.717   5.679
  238POPC   NC3 3338   0.260   0.123   4.073
  238POPC   PO4 3339   0.437   0.750   3.839
  238POPC   GL1 3340   0.636   0.698   4.272
  238POPC   GL2 3341   0.651   0.363   4.315
  238POPC   C1A 3342   0.605   0.599   4.738
  238POPC   D2A 3343   0.464   0.469   5.128
  238POPC   C3A 3344   0.647   0.646   5.466
  238POPC   C4A 3345   0.395   0.757   5.733
  238POPC   C1B 3346   0.559   0.080   4.683
  238POPC   C2B 3347   0.397  11.472   5.080
  238POPC   C3B 3348   0.348   0.059   5.524
  238POPC   C4B 3349   0.501   0.283   5.856
  239POPC   NC3 3350   1.938   9.577   3.867
  239POPC   PO4 3351   2.584   9.493   4.100
  239POPC   GL1 3352   2.182   9.694   4.311
  239POPC   GL2 3353   1.797   9.612   4.328
  239POPC   C1A 3354   2.041   9.676   4.748
  239POPC   D2A 3355   2.204   9.554   5.111
  239POPC   C3A 3356   2.250   9.915   5.357
  239POPC   C4A 3357   2.050   9.669   5.676
  239POPC   C1B 3358   1.653   9.343   4.635
  239POPC   C2B 3359   1.516   9.459   5.014
  239POPC   C3B 3360   1.666   9.483   5.394
  239POPC   C4B 3361   1.533   9.503   5.783
  240POPC   NC3 3362   0.422   1.929   4.179
  240POPC   PO4 3363   0.005   2.361   3.834
  240POPC   GL1 3364   0.213   2.367   4.333
  240POPC   GL2 3365   0.555   2.252   4.536
  240POPC   C1A 3366   0.184   2.406   4.816
  240POPC   D2A 3367   0.326   2.356   5.240
  240POPC   C3A 3368   0.273   1.964   5.463
  240POPC   C4A 3369   0.090   1.878   5.878
  240POPC   C1B 3370   0.356   1.913   4.847
  240POPC   C2B 3371   0.527   1.627   5.187
  240POPC   C3B 3372   0.759   1.818   5.564
  240POPC   C4B 3373   0.638   2.247   5.720
  241POPC   NC3 3374   9.149   7.436   3.955
  241POPC   PO4 3375   8.658   7.793   4.062
  241POPC   GL1 3376   8.857   7.525   4.375
  241POPC   GL2 3377   9.026   7.187   4.417
  241POPC   C1A 3378   8.923   7.618   4.776
  241POPC   D2A 3379   8.814   7.527   5.194
  241POPC   C3A 3380   9.082   7.371   5.510
  241POPC   C4A 3381   8.892   7.317   5.940
  241POPC   C1B 3382   8.954   7.108   4.890
  241POPC   C2B 3383   8.909   6.911   5.336
  241POPC   C3B 3384   8.898   6.820   5.804
  241POPC   C4B 3385   9.087   6.886   6.255
  242POPC   NC3 3386   2.900  10.870   3.918
  242POPC   PO4 3387   2.387  11.392   3.849
  242POPC   GL1 3388   2.542  11.142   4.201
  242POPC   GL2 3389   2.899  11.207   4.297
  242POPC   C1A 3390   2.545  11.313   4.631
  242POPC   D2A 3391   2.767  11.417   5.028
  242POPC   C3A 3392   2.524  11.328   5.408
  242POPC   C4A 3393   2.716  11.079   5.678
  242POPC   C1B 3394   2.919  10.911   4.606
  242POPC   C2B 3395   2.957  10.926   5.048
  242POPC   C3B 3396   3.153  10.857   5.441
  242POPC   C4B 3397   3.052  10.748   5.821
  243POPC   NC3 3398   6.457   2.063   3.928
  243POPC   PO4 3399   6.471   1.359   3.842
  243POPC   GL1 3400   6.474   1.610   4.207
  243POPC   GL2 3401   6.783   1.797   4.287
  243POPC   C1A 3402   6.326   1.672   4.622
  243POPC   D2A 3403   6.275   1.585   5.062
  243POPC   C3A 3404   6.592   1.746   5.359
  243POPC   C4A 3405   6.512   1.893   5.782
  243POPC   C1B 3406   6.983   1.922   4.699
  243POPC   C2B 3407   6.993   2.044   5.171
  243POPC   C3B 3408   6.776   2.237   5.512
  243POPC   C4B 3409   6.555   2.425   5.859
  244POPC   NC3 3410   9.503   1.393   3.753
  244POPC   PO4 3411   9.512   0.722   3.890
  244POPC   GL1 3412   9.680   0.970   4.243
  244POPC   GL2 3413   9.384   1.118   4.410
  244POPC   C1A 3414   9.795   1.064   4.686
  244POPC   D2A 3415   9.651   0.802   4.991
  244POPC   C3A 3416   9.757   0.904   5.379
  244POPC   C4A 3417   9.782   0.973   5.781
  244POPC   C1B 3418   9.400   1.386   4.792
  244POPC   C2B 3419   9.552   1.331   5.184
  244POPC   C3B 3420   9.419   1.246   5.576
  244POPC   C4B 3421   9.504   1.392   6.000
  245POPC   NC3 3422   8.065   8.687   3.799
  245POPC   PO4 3423   8.209   9.229   3.749
  245POPC   GL1 3424   8.151   8.976   4.213
  245POPC   GL2 3425   7.920   9.166   4.396
  245POPC   C1A 3426   8.271   9.019   4.712
  245POPC   D2A 3427   7.984   9.013   5.039
  245POPC   C3A 3428   8.267   8.996   5.404
  245POPC   C4A 3429   8.191   9.137   5.829
  245POPC   C1B 3430   7.881   8.707   4.614
  245POPC   C2B 3431   7.760   8.535   5.038
  245POPC   C3B 3432   7.912   8.449   5.455
  245POPC   C4B 3433   8.228   8.622   5.738
  246POPC   NC3 3434   7.578   8.088   4.037
  246POPC   PO4 3435   7.133   7.662   3.898
  246POPC   GL1 3436   7.189   7.914   4.341
  246POPC   GL2 3437   7.253   8.305   4.353
  246POPC   C1A 3438   7.197   8.071   4.808
  246POPC   D2A 3439   7.507   8.100   5.169
  246POPC   C3A 3440   7.361   7.979   5.594
  246POPC   C4A 3441   7.282   7.938   6.063
  246POPC   C1B 3442   7.357   8.569   4.700
  246POPC   C2B 3443   7.211   8.512   5.101
  246POPC   C3B 3444   7.394   8.511   5.497
  246POPC   C4B 3445   7.133   8.374   5.834
  247POPC   NC3 3446   4.325   2.339   3.939
  247POPC   PO4 3447   4.159   1.713   3.699
  247POPC   GL1 3448   4.131   1.911   4.130
  247POPC   GL2 3449   4.437   1.937   4.354
  247POPC   C1A 3450   3.951   1.894   4.554
  247POPC   D2A 3451   4.024   2.145   4.941
  247POPC   C3A 3452   4.053   1.911   5.328
  247POPC   C4A 3453   4.089   1.632   5.707
  247POPC   C1B 3454   4.371   1.776   4.815
  247POPC   C2B 3455   4.440   1.580   5.226
  247POPC   C3B 3456   4.567   1.785   5.587
  247POPC   C4B 3457   4.333   2.189   5.659
  248POPC   NC3 3458  10.858   0.354   4.243
  248POPC   PO4 3459  10.433   0.683   3.804
  248POPC   GL1 3460  10.439   0.627   4.244
  248POPC   GL2 3461  10.267   0.319   4.306
  248POPC   C1A 3462  10.529   0.586   4.725
  248POPC   D2A 3463  10.428   0.314   5.067
  248POPC   C3A 3464  10.655   0.513   5.376
  248POPC   C4A 3465  10.588   0.442   5.774
  248POPC   C1B 3466  10.058   0.650   4.585
  248POPC   C2B 3467  10.158   0.761   5.038
  248POPC   C3B 3468  10.179   0.645   5.470
  248POPC   C4B 3469  10.223   0.776   5.905
  249POPC   NC3 3470   9.141   0.463   3.819
  249POPC   PO4 3471   8.733  11.486   3.773
  249POPC   GL1 3472   9.051  11.476   4.127
  249POPC   GL2 3473   8.894   0.250   4.282
  249POPC   C1A 3474   9.195   0.052   4.639
  249POPC   D2A 3475   8.997   0.070   5.131
  249POPC   C3A 3476   9.245   0.169   5.529
  249POPC   C4A 3477   9.179   0.265   5.979
  249POPC   C1B 3478   8.794   0.359   4.729
  249POPC   C2B 3479   8.818   0.578   5.134
  249POPC   C3B 3480   8.791   0.394   5.518
  249POPC   C4B 3481   8.824   0.653   5.821
  250POPC   NC3 3482   7.840   2.007   3.952
  250POPC   PO4 3483   8.438   1.672   3.826
  250POPC   GL1 3484   8.214   1.701   4.235
  250POPC   GL2 3485   8.194   2.023   4.338
  250POPC   C1A 3486   7.994   1.711   4.673
  250POPC   D2A 3487   8.109   1.891   5.104
  250POPC   C3A 3488   7.848   1.789   5.441
  250POPC   C4A 3489   7.739   1.949   5.840
  250POPC   C1B 3490   8.153   2.234   4.733
  250POPC   C2B 3491   8.091   2.450   5.128
  250POPC   C3B 3492   7.964   2.331   5.540
  250POPC   C4B 3493   8.244   2.040   5.717
  251POPC   NC3 3494   2.926   8.358   3.814
  251POPC   PO4 3495   2.291   8.547   3.966
  251POPC   GL1 3496   2.351   8.371   4.421
  251POPC   GL2 3497   2.360   7.989   4.427
  251POPC   C1A 3498   2.501   8.323   4.899
  251POPC   D2A 3499   2.859   8.188   5.224
  251POPC   C3A 3500   3.078   8.231   5.661
  251POPC   C4A 3501   2.892   8.322   6.085
  251POPC   C1B 3502   2.383   7.762   4.845
  251POPC   C2B 3503   2.387   7.962   5.276
  251POPC   C3B 3504   2.587   8.067   5.690
  251POPC   C4B 3505   2.470   7.944   6.116
  252POPC   NC3 3506   6.539   3.617   4.030
  252POPC   PO4 3507   6.929   3.451   4.220
  252POPC   GL1 3508   6.633   3.596   4.535
  252POPC   GL2 3509   6.341   3.394   4.484
  252POPC   C1A 3510   6.446   3.621   4.967
  252POPC   D2A 3511   6.279   3.908   5.296
  252POPC   C3A 3512   6.571   3.895   5.643
  252POPC   C4A 3513   6.850   3.534   5.815
  252POPC   C1B 3514   6.630   3.144   4.769
  252POPC   C2B 3515   6.757   3.233   5.195
  252POPC   C3B 3516   6.473   3.424   5.474
  252POPC   C4B 3517   6.171   3.570   5.764
  253POPC   NC3 3518   8.166   9.655   3.956
  253POPC   PO4 3519   7.661  10.056   4.011
  253POPC   GL1 3520   7.904   9.864   4.346
  253POPC   GL2 3521   8.273   9.831   4.427
  253POPC   C1A 3522   7.948  10.040   4.767
  253POPC   D2A 3523   7.913   9.800   5.137
  253POPC   C3A 3524   7.687   9.817   5.518
  253POPC   C4A 3525   7.665   9.907   5.959
  253POPC   C1B 3526   8.158   9.558   4.756
  253POPC   C2B 3527   8.258   9.423   5.121
  253POPC   C3B 3528   7.990   9.417   5.470
  253POPC   C4B 3529   8.113   9.674   5.813
  254POPC   NC3 3530   9.312   9.953   3.678
  254POPC   PO4 3531   9.145   9.331   4.016
  254POPC   GL1 3532   9.294   9.660   4.277
  254POPC   GL2 3533   9.682   9.724   4.329
  254POPC   C1A 3534   9.206   9.664   4.704
  254POPC   D2A 3535   9.234   9.384   5.073
  254POPC   C3A 3536   9.209   9.539   5.505
  254POPC   C4A 3537   9.426   9.558   5.902
  254POPC   C1B 3538   9.902   9.656   4.774
  254POPC   C2B 3539   9.890   9.630   5.246
  254POPC   C3B 3540  10.005   9.480   5.652
  254POPC   C4B 3541   9.989   9.436   6.121
  255POPC   NC3 3542   5.243   0.953   3.982
  255POPC   PO4 3543   5.145   1.562   3.638
  255POPC   GL1 3544   5.045   1.397   4.129
  255POPC   GL2 3545   4.794   1.106   4.227
  255POPC   C1A 3546   5.102   1.274   4.591
  255POPC   D2A 3547   5.220   1.394   5.014
  255POPC   C3A 3548   4.902   1.362   5.337
  255POPC   C4A 3549   4.900   1.365   5.773
  255POPC   C1B 3550   4.765   0.854   4.610
  255POPC   C2B 3551   4.949   0.951   5.012
  255POPC   C3B 3552   5.085   0.892   5.425
  255POPC   C4B 3553   5.173   0.956   5.857
  256POPC   NC3 3554   0.159   8.040   3.916
  256POPC   PO4 3555   0.817   7.816   3.984
  256POPC   GL1 3556   0.544   8.024   4.294
  256POPC   GL2 3557   0.598   8.386   4.262
  256POPC   C1A 3558   0.433   8.069   4.752
  256POPC   D2A 3559   0.186   7.913   5.100
  256POPC   C3A 3560   0.390   8.057   5.476
  256POPC   C4A 3561   0.435   7.836   5.861
  256POPC   C1B 3562   0.728   8.488   4.683
  256POPC   C2B 3563   0.502   8.637   5.050
  256POPC   C3B 3564   0.617   8.572   5.473
  256POPC   C4B 3565   0.611   8.317   5.865
  257POPC   NC3 3566  10.175   7.327   4.245
  257POPC   PO4 3567   9.614   7.527   3.933
  257POPC   GL1 3568   9.704   7.515   4.374
  257POPC   GL2 3569   9.382   7.551   4.392
  257POPC   C1A 3570   9.912   7.439   4.820
  257POPC   D2A 3571  10.089   7.379   5.241
  257POPC   C3A 3572   9.857   7.637   5.516
  257POPC   C4A 3573   9.653   7.534   5.923
  257POPC   C1B 3574   9.383   7.395   4.788
  257POPC   C2B 3575   9.517   7.434   5.193
  257POPC   C3B 3576   9.603   7.176   5.536
  257POPC   C4B 3577   9.336   7.098   5.866
  258POPC   NC3 3578   8.302  11.147   3.679
  258POPC   PO4 3579   8.814  10.953   4.080
  258POPC   GL1 3580   8.829  11.160   4.456
  258POPC   GL2 3581   9.131  11.082   4.460
  258POPC   C1A 3582   8.646  11.366   4.804
  258POPC   D2A 3583   8.626  11.186   5.218
  258POPC   C3A 3584   8.577  11.420   5.588
  258POPC   C4A 3585   8.816  11.442   5.964
  258POPC   C1B 3586   9.087  11.129   4.899
  258POPC   C2B 3587   9.113  10.926   5.234
  258POPC   C3B 3588   9.055  11.189   5.558
  258POPC   C4B 3589   9.324  11.274   5.910
  259POPC   NC3 3590   1.715   6.622   3.756
  259POPC   PO4 3591   2.218   6.262   3.761
  259POPC   GL1 3592   1.920   6.361   4.147
  259POPC   GL2 3593   1.885   6.691   4.237
  259POPC   C1A 3594   1.820   6.313   4.634
  259POPC   D2A 3595   1.706   6.192   5.088
  259POPC   C3A 3596   1.909   6.315   5.509
  259POPC   C4A 3597   2.270   6.386   5.831
  259POPC   C1B 3598   2.064   6.772   4.669
  259POPC   C2B 3599   2.093   6.611   5.096
  259POPC   C3B 3600   2.236   6.762   5.500
  259POPC   C4B 3601   1.897   6.766   5.800
  260POPC   NC3 3602  11.194   5.661   3.940
  260POPC   PO4 3603  10.753   6.211   3.990
  260POPC   GL1 3604  10.909   5.917   4.287
  260POPC   GL2 3605  11.284   5.932   4.351
  260POPC   C1A 3606  10.962   5.727   4.700
  260POPC   D2A 3607  10.739   5.647   5.089
  260POPC   C3A 3608  10.926   5.742   5.474
  260POPC   C4A 3609  10.797   5.575   5.856
  260POPC   C1B 3610  11.461   5.921   4.768
  260POPC   C2B 3611  11.369   5.928   5.205
  260POPC   C3B 3612  11.420   5.733   5.604
  260POPC   C4B 3613  11.165   5.903   5.952
  261POPC   NC3 3614   5.124   9.267   4.007
  261POPC   PO4 3615   5.231  10.027   3.836
  261POPC   GL1 3616   5.121   9.813   4.198
  261POPC   GL2 3617   5.252   9.527   4.414
  261POPC   C1A 3618   4.979   9.912   4.612
  261POPC   D2A 3619   4.968   9.746   5.015
  261POPC   C3A 3620   4.925   9.924   5.394
  261POPC   C4A 3621   4.993   9.733   5.799
  261POPC   C1B 3622   4.931   9.341   4.712
  261POPC   C2B 3623   4.735   9.302   5.149
  261POPC   C3B 3624   4.710   9.295   5.619
  261POPC   C4B 3625   4.681   9.400   6.073
  262POPC   NC3 3626  10.876   6.672   3.965
  262POPC   PO4 3627  11.360   7.006   3.978
  262POPC   GL1 3628  11.239   6.791   4.325
  262POPC   GL2 3629  11.218   6.438   4.260
  262POPC   C1A 3630  11.330   6.727   4.726
  262POPC   D2A 3631  11.165   6.565   5.073
  262POPC   C3A 3632  11.208   6.772   5.448
  262POPC   C4A 3633  11.319   7.021   5.782
  262POPC   C1B 3634  11.049   6.276   4.643
  262POPC   C2B 3635  10.924   6.120   5.035
  262POPC   C3B 3636  11.052   6.240   5.456
  262POPC   C4B 3637  11.169   6.399   5.838
  263POPC   NC3 3638  11.098   7.419   3.871
  263POPC   PO4 3639  10.526   6.950   3.785
  263POPC   GL1 3640  10.864   7.108   4.192
  263POPC   GL2 3641  11.064   7.417   4.359
  263POPC   C1A 3642  10.944   7.064   4.693
  263POPC   D2A 3643  10.844   6.985   5.146
  263POPC   C3A 3644  10.884   7.187   5.537
  263POPC   C4A 3645  10.854   7.033   5.973
  263POPC   C1B 3646  11.409   7.255   4.626
  263POPC   C2B 3647  11.342   7.138   5.073
  263POPC   C3B 3648  11.347   7.403   5.451
  263POPC   C4B 3649  11.121   7.509   5.865
  264POPC   NC3 3650   5.294  10.560   3.799
  264POPC   PO4 3651   5.922  10.545   4.006
  264POPC   GL1 3652   5.884  10.526   4.405
  264POPC   GL2 3653   6.004  10.192   4.356
  264POPC   C1A 3654   5.740  10.694   4.821
  264POPC   D2A 3655   5.569  10.816   5.247
  264POPC   C3A 3656   5.645  10.563   5.615
  264POPC   C4A 3657   5.743  10.644   6.046
  264POPC   C1B 3658   5.847  10.161   4.767
  264POPC   C2B 3659   5.684  10.287   5.142
  264POPC   C3B 3660   5.807  10.090   5.498
  264POPC   C4B 3661   5.823  10.157   5.901
  265POPC   NC3 3662   0.141   3.461   3.975
  265POPC   PO4 3663  11.116   3.811   3.903
  265POPC   GL1 3664  11.216   3.516   4.226
  265POPC   GL2 3665  10.949   3.353   4.351
  265POPC   C1A 3666  11.416   3.334   4.599
  265POPC   D2A 3667  11.222   3.216   5.006
  265POPC   C3A 3668  11.382   3.295   5.442
  265POPC   C4A 3669  11.446   3.164   5.881
  265POPC   C1B 3670  11.064   3.675   4.686
  265POPC   C2B 3671  10.912   3.639   5.086
  265POPC   C3B 3672  10.875   3.539   5.495
  265POPC   C4B 3673  11.119   3.543   5.853
  266POPC   NC3 3674   1.247  11.310   4.001
  266POPC   PO4 3675   1.297  10.685   3.783
  266POPC   GL1 3676   1.312  10.860   4.274
  266POPC   GL2 3677   1.087  11.146   4.431
  266POPC   C1A 3678   1.271  10.816   4.773
  266POPC   D2A 3679   0.996  10.816   5.171
  266POPC   C3A 3680   1.128  10.923   5.626
  266POPC   C4A 3681   1.498  10.866   5.920
  266POPC   C1B 3682   1.395  11.344   4.704
  266POPC   C2B 3683   1.397   0.059   5.101
  266POPC   C3B 3684   1.242  11.424   5.496
  266POPC   C4B 3685   1.282  11.484   5.926
  267POPC   NC3 3686   1.572   5.018   3.766
  267POPC   PO4 3687   0.965   5.353   3.756
  267POPC   GL1 3688   1.110   5.342   4.180
  267POPC   GL2 3689   1.247   5.012   4.178
  267POPC   C1A 3690   1.299   5.374   4.607
  267POPC   D2A 3691   1.144   5.377   5.048
  267POPC   C3A 3692   1.350   5.416   5.436
  267POPC   C4A 3693   1.463   5.147   5.784
  267POPC   C1B 3694   1.206   4.835   4.608
  267POPC   C2B 3695   0.993   4.891   5.002
  267POPC   C3B 3696   1.168   4.880   5.418
  267POPC   C4B 3697   0.990   4.892   5.846
  268POPC   NC3 3698   1.162   6.765   4.039
  268POPC   PO4 3699   1.497   6.209   3.829
  268POPC   GL1 3700   1.424   6.257   4.289
  268POPC   GL2 3701   1.429   6.589   4.434
  268POPC   C1A 3702   1.170   6.230   4.710
  268POPC   D2A 3703   1.230   6.395   5.144
  268POPC   C3A 3704   1.005   6.323   5.540
  268POPC   C4A 3705   1.411   6.509   5.717
  268POPC   C1B 3706   1.151   6.752   4.756
  268POPC   C2B 3707   1.140   6.922   5.160
  268POPC   C3B 3708   1.032   6.825   5.564
  268POPC   C4B 3709   1.028   7.002   5.935
  269POPC   NC3 3710   0.606   5.295   4.065
  269POPC   PO4 3711   0.746   4.618   3.943
  269POPC   GL1 3712   0.467   4.800   4.250
  269POPC   GL2 3713   0.777   4.925   4.363
  269POPC   C1A 3714   0.404   4.962   4.709
  269POPC   D2A 3715   0.519   4.811   5.161
  269POPC   C3A 3716   0.439   4.995   5.566
  269POPC   C4A 3717   0.449   4.884   6.023
  269POPC   C1B 3718   0.815   5.248   4.669
  269POPC   C2B 3719   0.644   5.287   5.078
  269POPC   C3B 3720   0.853   5.279   5.472
  269POPC   C4B 3721   0.699   5.309   5.879
  270POPC   NC3 3722   6.453   0.886   3.771
  270POPC   PO4 3723   7.032   0.945   4.072
  270POPC   GL1 3724   6.643   0.803   4.278
  270POPC   GL2 3725   6.362   1.064   4.260
  270POPC   C1A 3726   6.639   0.690   4.722
  270POPC   D2A 3727   6.869   0.849   5.078
  270POPC   C3A 3728   6.700   0.862   5.494
  270POPC   C4A 3729   6.437   0.918   5.849
  270POPC   C1B 3730   6.500   1.187   4.685
  270POPC   C2B 3731   6.442   1.120   5.123
  270POPC   C3B 3732   6.366   1.312   5.507
  270POPC   C4B 3733   6.710   1.388   5.734
  271POPC   NC3 3734  10.205   7.334   3.690
  271POPC   PO4 3735  10.587   7.527   4.165
  271POPC   GL1 3736  10.573   7.354   4.538
  271POPC   GL2 3737  10.474   7.003   4.485
  271POPC   C1A 3738  10.492   7.286   4.928
  271POPC   D2A 3739  10.651   7.539   5.202
  271POPC   C3A 3740  10.497   7.545   5.573
  271POPC   C4A 3741  10.688   7.854   5.791
  271POPC   C1B 3742  10.218   6.870   4.805
  271POPC   C2B 3743  10.338   6.899   5.235
  271POPC   C3B 3744  10.396   7.055   5.595
  271POPC   C4B 3745  10.061   7.256   5.765
  272POPC   NC3 3746   9.511   7.991   3.981
  272POPC   PO4 3747  10.071   7.795   3.664
  272POPC   GL1 3748  10.009   7.848   4.124
  272POPC   GL2 3749   9.960   8.215   4.196
  272POPC   C1A 3750   9.901   7.919   4.601
  272POPC   D2A 3751   9.704   7.889   5.020
  272POPC   C3A 3752   9.789   8.146   5.408
  272POPC   C4A 3753   9.809   8.013   5.845
  272POPC   C1B 3754   9.611   8.356   4.526
  272POPC   C2B 3755   9.371   8.359   4.943
  272POPC   C3B 3756   9.300   8.306   5.381
  272POPC   C4B 3757   9.385   8.275   5.813
  273POPC   NC3 3758   0.968   9.338   3.837
  273POPC   PO4 3759   1.606   9.232   3.997
  273POPC   GL1 3760   1.299   9.467   4.250
  273POPC   GL2 3761   1.326   9.849   4.299
  273POPC   C1A 3762   1.144   9.498   4.651
  273POPC   D2A 3763   0.939   9.495   5.039
  273POPC   C3A 3764   1.135   9.509   5.438
  273POPC   C4A 3765   0.867   9.555   5.801
  273POPC   C1B 3766   1.536   9.864   4.683
  273POPC   C2B 3767   1.262   9.897   5.015
  273POPC   C3B 3768   1.308  10.022   5.414
  273POPC   C4B 3769   1.208   9.921   5.825
  274POPC   NC3 3770   0.576   6.108   3.792
  274POPC   PO4 3771   0.697   6.794   3.962
  274POPC   GL1 3772   0.438   6.459   4.159
  274POPC   GL2 3773   0.660   6.209   4.305
  274POPC   C1A 3774   0.176   6.366   4.541
  274POPC   D2A 3775   0.243   6.539   4.971
  274POPC   C3A 3776   0.063   6.397   5.365
  274POPC   C4A 3777   0.114   6.622   5.742
  274POPC   C1B 3778   0.696   6.483   4.657
  274POPC   C2B 3779   0.728   6.411   5.097
  274POPC   C3B 3780   0.558   6.611   5.461
  274POPC   C4B 3781   0.538   6.923   5.787
  275POPC   NC3 3782   4.731  10.058   3.916
  275POPC   PO4 3783   4.889  10.735   3.937
  275POPC   GL1 3784   5.053  10.386   4.213
  275POPC   GL2 3785   5.450  10.315   4.200
  275POPC   C1A 3786   4.843  10.401   4.610
  275POPC   D2A 3787   4.641  10.171   4.930
  275POPC   C3A 3788   4.718  10.388   5.306
  275POPC   C4A 3789   4.791  10.676   5.640
  275POPC   C1B 3790   5.370  10.297   4.632
  275POPC   C2B 3791   5.151  10.261   5.014
  275POPC   C3B 3792   5.212  10.370   5.432
  275POPC   C4B 3793   5.342  10.118   5.750
  276POPC   NC3 3794   4.602   2.878   3.958
  276POPC   PO4 3795   4.007   3.066   3.976
  276POPC   GL1 3796   4.216   2.723   4.279
  276POPC   GL2 3797   4.116   2.369   4.399
  276POPC   C1A 3798   4.407   2.613   4.715
  276POPC   D2A 3799   4.236   2.576   5.145
  276POPC   C3A 3800   4.493   2.658   5.526
  276POPC   C4A 3801   4.847   2.662   5.816
  276POPC   C1B 3802   3.881   2.610   4.703
  276POPC   C2B 3803   3.685   2.506   5.104
  276POPC   C3B 3804   3.893   2.395   5.475
  276POPC   C4B 3805   4.088   2.595   5.831
  277POPC   NC3 3806   8.708   4.641   3.858
  277POPC   PO4 3807   8.756   4.028   3.859
  277POPC   GL1 3808   8.965   3.909   4.257
  277POPC   GL2 3809   9.090   4.207   4.435
  277POPC   C1A 3810   8.842   3.828   4.709
  277POPC   D2A 3811   8.688   3.712   5.146
  277POPC   C3A 3812   8.743   3.859   5.588
  277POPC   C4A 3813   8.532   4.152   5.847
  277POPC   C1B 3814   9.014   4.336   4.870
  277POPC   C2B 3815   8.965   4.195   5.295
  277POPC   C3B 3816   9.048   4.294   5.740
  277POPC   C4B 3817   8.852   4.401   6.146
  278POPC   NC3 3818   1.055   2.935   4.052
  278POPC   PO4 3819   1.251   3.527   3.783
  278POPC   GL1 3820   1.290   3.568   4.214
  278POPC   GL2 3821   1.034   3.374   4.318
  278POPC   C1A 3822   1.499   3.549   4.626
  278POPC   D2A 3823   1.628   3.514   5.061
  278POPC   C3A 3824   1.450   3.802   5.360
  278POPC   C4A 3825   1.558   3.614   5.749
  278POPC   C1B 3826   0.964   3.239   4.734
  278POPC   C2B 3827   1.131   3.415   5.100
  278POPC   C3B 3828   1.112   3.472   5.529
  278POPC   C4B 3829   0.880   3.213   5.820
  279POPC   NC3 3830   3.129   1.162   3.737
  279POPC   PO4 3831   2.758   1.421   4.155
  279POPC   GL1 3832   2.799   1.121   4.435
  279POPC   GL2 3833   2.504   0.892   4.372
  279POPC   C1A 3834   2.911   1.212   4.889
  279POPC   D2A 3835   3.238   1.326   5.210
  279POPC   C3A 3836   3.066   1.270   5.642
  279POPC   C4A 3837   2.987   1.035   6.040
  279POPC   C1B 3838   2.338   1.241   4.610
  279POPC   C2B 3839   2.351   1.169   4.996
  279POPC   C3B 3840   2.623   1.272   5.353
  279POPC   C4B 3841   2.576   1.189   5.782
  280POPC   NC3 3842   3.821  11.261   3.944
  280POPC   PO4 3843   3.108  11.335   3.844
  280POPC   GL1 3844   3.360  11.402   4.216
  280POPC   GL2 3845   3.527  11.106   4.331
  280POPC   C1A 3846   3.231  11.380   4.684
  280POPC   D2A 3847   3.308   0.046   5.118
  280POPC   C3A 3848   3.113  11.366   5.486
  280POPC   C4A 3849   3.329  11.227   5.858
  280POPC   C1B 3850   3.423  10.898   4.720
  280POPC   C2B 3851   3.469  11.070   5.102
  280POPC   C3B 3852   3.626  11.053   5.499
  280POPC   C4B 3853   3.551  10.767   5.835
  281POPC   NC3 3854   5.147   8.244   3.890
  281POPC   PO4 3855   4.829   8.702   3.900
  281POPC   GL1 3856   4.884   8.465   4.302
  281POPC   GL2 3857   5.188   8.250   4.389
  281POPC   C1A 3858   4.914   8.420   4.777
  281POPC   D2A 3859   4.955   8.132   5.123
  281POPC   C3A 3860   4.926   8.317   5.527
  281POPC   C4A 3861   4.620   8.364   5.880
  281POPC   C1B 3862   5.318   7.999   4.758
  281POPC   C2B 3863   5.234   7.704   5.093
  281POPC   C3B 3864   5.239   7.884   5.510
  281POPC   C4B 3865   5.464   8.212   5.744
  282POPC   NC3 3866   6.946   0.424   4.037
  282POPC   PO4 3867   6.268   0.380   3.857
  282POPC   GL1 3868   6.462   0.263   4.289
  282POPC   GL2 3869   6.117   0.241   4.463
  282POPC   C1A 3870   6.841   0.198   4.635
  282POPC   D2A 3871   6.985   0.357   5.041
  282POPC   C3A 3872   6.863   0.113   5.397
  282POPC   C4A 3873   6.717  11.369   5.747
  282POPC   C1B 3874   6.371   0.262   4.830
  282POPC   C2B 3875   6.514   0.460   5.183
  282POPC   C3B 3876   6.338   0.490   5.536
  282POPC   C4B 3877   6.560   0.336   5.782
  283POPC   NC3 3878   7.985  10.557   3.893
  283POPC   PO4 3879   8.503  10.017   3.916
  283POPC   GL1 3880   8.425  10.286   4.282
  283POPC   GL2 3881   8.100  10.321   4.316
  283POPC   C1A 3882   8.418  10.293   4.741
  283POPC   D2A 3883   8.410   9.931   5.059
  283POPC   C3A 3884   8.188  10.058   5.479
  283POPC   C4A 3885   8.090  10.204   5.932
  283POPC   C1B 3886   7.995  10.601   4.608
  283POPC   C2B 3887   7.992  10.738   5.027
  283POPC   C3B 3888   8.133  10.586   5.454
  283POPC   C4B 3889   7.935  10.690   5.862
  284POPC   NC3 3890   2.521   5.916   3.778
  284POPC   PO4 3891   3.204   5.957   3.686
  284POPC   GL1 3892   2.952   5.933   4.123
  284POPC   GL2 3893   2.604   5.847   4.272
  284POPC   C1A 3894   2.874   6.148   4.572
  284POPC   D2A 3895   2.709   6.174   5.033
  284POPC   C3A 3896   2.854   6.013   5.467
  284POPC   C4A 3897   2.725   6.082   5.912
  284POPC   C1B 3898   2.555   5.754   4.723
  284POPC   C2B 3899   2.619   5.680   5.168
  284POPC   C3B 3900   2.602   5.557   5.609
  284POPC   C4B 3901   2.417   5.708   6.033
  285POPC   NC3 3902   1.880   5.941   3.841
  285POPC   PO4 3903   2.343   5.536   3.970
  285POPC   GL1 3904   2.074   5.614   4.296
  285POPC   GL2 3905   2.003   5.914   4.352
  285POPC   C1A 3906   1.798   5.440   4.598
  285POPC   D2A 3907   1.651   5.469   5.017
  285POPC   C3A 3908   1.771   5.754   5.358
  285POPC   C4A 3909   1.631   5.649   5.792
  285POPC   C1B 3910   2.041   5.848   4.791
  285POPC   C2B 3911   2.214   6.039   5.139
  285POPC   C3B 3912   2.311   5.961   5.542
  285POPC   C4B 3913   2.017   5.942   5.859
  286POPC   NC3 3914   7.265   9.966   4.256
  286POPC   PO4 3915   7.122  10.484   3.893
  286POPC   GL1 3916   7.147  10.570   4.372
  286POPC   GL2 3917   7.165  10.259   4.633
  286POPC   C1A 3918   7.080  10.699   4.822
  286POPC   D2A 3919   7.212  10.400   5.190
  286POPC   C3A 3920   7.169  10.508   5.638
  286POPC   C4A 3921   7.115  10.681   6.107
  286POPC   C1B 3922   7.554  10.384   4.797
  286POPC   C2B 3923   7.758  10.301   5.184
  286POPC   C3B 3924   7.689  10.307   5.606
  286POPC   C4B 3925   7.519  10.401   5.980
  287POPC   NC3 3926   2.056   5.165   4.071
  287POPC   PO4 3927   2.334   4.640   3.924
  287POPC   GL1 3928   2.113   4.601   4.372
  287POPC   GL2 3929   2.112   4.924   4.527
  287POPC   C1A 3930   1.728   4.625   4.726
  287POPC   D2A 3931   1.522   4.944   5.018
  287POPC   C3A 3932   1.704   4.856   5.429
  287POPC   C4A 3933   1.985   4.580   5.725
  287POPC   C1B 3934   2.260   5.317   4.756
  287POPC   C2B 3935   2.158   5.505   5.164
  287POPC   C3B 3936   2.107   5.469   5.614
  287POPC   C4B 3937   1.999   5.088   5.788
  288POPC   NC3 3938   0.328   4.438   3.872
  288POPC   PO4 3939   0.421   3.847   3.971
  288POPC   GL1 3940   0.439   4.140   4.309
  288POPC   GL2 3941   0.728   4.322   4.331
  288POPC   C1A 3942   0.605   4.062   4.750
  288POPC   D2A 3943   0.381   4.002   5.121
  288POPC   C3A 3944   0.463   4.130   5.546
  288POPC   C4A 3945   0.281   4.519   5.675
  288POPC   C1B 3946   0.695   4.557   4.714
  288POPC   C2B 3947   0.779   4.384   5.126
  288POPC   C3B 3948   0.798   4.529   5.536
  288POPC   C4B 3949   0.707   4.472   5.971
  289POPC   NC3 3950   1.947   8.608   3.660
  289POPC   PO4 3951   2.212   9.182   3.747
  289POPC   GL1 3952   2.040   9.166   4.226
  289POPC   GL2 3953   2.006   8.798   4.319
  289POPC   C1A 3954   2.132   9.166   4.691
  289POPC   D2A 3955   1.890   9.113   5.101
  289POPC   C3A 3956   2.110   9.187   5.494
  289POPC   C4A 3957   2.230   8.870   5.768
  289POPC   C1B 3958   1.748   8.810   4.708
  289POPC   C2B 3959   1.590   8.618   5.077
  289POPC   C3B 3960   1.751   8.642   5.498
  289POPC   C4B 3961   1.645   9.024   5.670
  290POPC   NC3 3962   0.654   1.128   3.697
  290POPC   PO4 3963   0.187   1.524   3.969
  290POPC   GL1 3964   0.326   1.437   4.352
  290POPC   GL2 3965   0.568   1.194   4.224
  290POPC   C1A 3966   0.128   1.441   4.775
  290POPC   D2A 3967  11.447   1.659   5.130
  290POPC   C3A 3968   0.059   1.487   5.510
  290POPC   C4A 3969   0.414   1.491   5.786
  290POPC   C1B 3970   0.347   1.000   4.597
  290POPC   C2B 3971   0.282   0.951   5.046
  290POPC   C3B 3972   0.487   1.145   5.399
  290POPC   C4B 3973   0.748   1.110   5.758
  291POPC   NC3 3974   8.317   0.577   3.774
  291POPC   PO4 3975   8.090  11.489   3.954
  291POPC   GL1 3976   8.133   0.424   4.220
  291POPC   GL2 3977   7.884   0.678   4.387
  291POPC   C1A 3978   8.353   0.615   4.599
  291POPC   D2A 3979   8.334   0.467   5.058
  291POPC   C3A 3980   8.399   0.732   5.473
  291POPC   C4A 3981   8.295   0.677   5.950
  291POPC   C1B 3982   7.920   0.296   4.722
  291POPC   C2B 3983   7.933   0.147   5.205
  291POPC   C3B 3984   7.972   0.257   5.679
  291POPC   C4B 3985   7.827   0.165   6.148
  292POPC   NC3 3986   8.913   1.935   3.735
  292POPC   PO4 3987   9.239   1.522   4.129
  292POPC   GL1 3988   8.755   1.669   4.295
  292POPC   GL2 3989   8.666   2.017   4.165
  292POPC   C1A 3990   8.504   1.626   4.715
  292POPC   D2A 3991   8.623   1.825   5.130
  292POPC   C3A 3992   8.597   1.682   5.569
  292POPC   C4A 3993   8.618   1.674   6.019
  292POPC   C1B 3994   8.661   2.100   4.613
  292POPC   C2B 3995   8.584   2.318   5.013
  292POPC   C3B 3996   8.675   2.229   5.474
  292POPC   C4B 3997   9.094   2.097   5.653
  293POPC   NC3 3998   9.738  10.281   3.959
  293POPC   PO4 3999   9.107  10.130   4.046
  293POPC   GL1 4000   9.410  10.161   4.352
  293POPC   GL2 4001   9.642  10.428   4.421
  293POPC   C1A 4002   9.557  10.040   4.748
  293POPC   D2A 4003   9.456   9.848   5.111
  293POPC   C3A 4004   9.336  10.040   5.473
  293POPC   C4A 4005   9.716   9.914   5.675
  293POPC   C1B 4006   9.779  10.503   4.828
  293POPC   C2B 4007   9.508  10.460   5.181
  293POPC   C3B 4008   9.638  10.432   5.576
  293POPC   C4B 4009   9.958  10.690   5.690
  294POPC   NC3 4010   2.585   1.077   3.893
  294POPC   PO4 4011   1.955   0.792   3.914
  294POPC   GL1 4012   1.976   1.037   4.288
  294POPC   GL2 4013   1.991   1.412   4.279
  294POPC   C1A 4014   1.925   0.953   4.704
  294POPC   D2A 4015   1.854   1.038   5.115
  294POPC   C3A 4016   2.167   1.025   5.441
  294POPC   C4A 4017   2.112   1.039   5.873
  294POPC   C1B 4018   1.865   1.458   4.739
  294POPC   C2B 4019   2.085   1.567   5.143
  294POPC   C3B 4020   2.120   1.505   5.587
  294POPC   C4B 4021   1.784   1.408   5.866
  295POPC   NC3 4022   3.535   1.994   3.726
  295POPC   PO4 4023   3.885   2.490   3.945
  295POPC   GL1 4024   3.679   2.195   4.215
  295POPC   GL2 4025   3.366   2.038   4.232
  295POPC   C1A 4026   3.575   2.209   4.669
  295POPC   D2A 4027   3.569   1.886   4.985
  295POPC   C3A 4028   3.540   2.025   5.386
  295POPC   C4A 4029   3.752   1.997   5.765
  295POPC   C1B 4030   3.214   1.840   4.609
  295POPC   C2B 4031   3.041   1.799   5.015
  295POPC   C3B 4032   3.096   1.757   5.449
  295POPC   C4B 4033   3.240   1.969   5.804
  296POPC   NC3 4034   1.187   5.779   3.861
  296POPC   PO4 4035   1.754   5.451   3.847
  296POPC   GL1 4036   1.537   5.718   4.238
  296POPC   GL2 4037   1.166   5.824   4.361
  296POPC   C1A 4038   1.531   5.867   4.705
  296POPC   D2A 4039   1.291   5.865   5.124
  296POPC   C3A 4040   1.405   6.028   5.545
  296POPC   C4A 4041   1.334   6.069   6.010
  296POPC   C1B 4042   0.950   5.750   4.744
  296POPC   C2B 4043   0.775   5.773   5.146
  296POPC   C3B 4044   0.927   5.783   5.546
  296POPC   C4B 4045   1.129   5.601   5.894
  297POPC   NC3 4046   0.267   9.702   4.167
  297POPC   PO4 4047   0.822   9.805   3.757
  297POPC   GL1 4048   0.829   9.718   4.216
  297POPC   GL2 4049   0.708   9.403   4.362
  297POPC   C1A 4050   0.843   9.907   4.653
  297POPC   D2A 4051   0.608   9.982   5.022
  297POPC   C3A 4052   0.801   9.915   5.410
  297POPC   C4A 4053   0.719  10.069   5.819
  297POPC   C1B 4054   0.482   9.507   4.786
  297POPC   C2B 4055   0.297   9.631   5.215
  297POPC   C3B 4056   0.371   9.699   5.669
  297POPC   C4B 4057   0.443   9.515   6.080
  298POPC   NC3 4058   0.129   2.813   3.891
  298POPC   PO4 4059   0.639   2.304   4.016
  298POPC   GL1 4060   0.636   2.685   4.268
  298POPC   GL2 4061   0.311   2.866   4.349
  298POPC   C1A 4062   0.624   2.749   4.715
  298POPC   D2A 4063   0.603   2.979   5.077
  298POPC   C3A 4064   0.607   2.734   5.446
  298POPC   C4A 4065   0.546   2.738   5.885
  298POPC   C1B 4066   0.076   2.880   4.717
  298POPC   C2B 4067   0.107   2.911   5.166
  298POPC   C3B 4068   0.120   2.776   5.572
  298POPC   C4B 4069   0.109   2.373   5.721
  299POPC   NC3 4070   7.336   2.362   3.854
  299POPC   PO4 4071   7.669   2.790   4.097
  299POPC   GL1 4072   7.439   2.672   4.444
  299POPC   GL2 4073   7.142   2.469   4.325
  299POPC   C1A 4074   7.471   2.766   4.892
  299POPC   D2A 4075   7.644   2.639   5.279
  299POPC   C3A 4076   7.418   2.741   5.646
  299POPC   C4A 4077   7.165   3.108   5.791
  299POPC   C1B 4078   7.116   2.412   4.782
  299POPC   C2B 4079   7.122   2.546   5.217
  299POPC   C3B 4080   6.910   2.722   5.568
  299POPC   C4B 4081   7.011   2.645   5.992
  300POPC   NC3 4082   1.351  10.276   3.978
  300POPC   PO4 4083   0.769  10.534   3.685
  300POPC   GL1 4084   0.899  10.573   4.150
  300POPC   GL2 4085   0.924  10.232   4.266
  300POPC   C1A 4086   0.832  10.548   4.660
  300POPC   D2A 4087   0.990  10.319   5.080
  300POPC   C3A 4088   1.001  10.423   5.563
  300POPC   C4A 4089   1.118  10.574   6.035
  300POPC   C1B 4090   1.263  10.287   4.618
  300POPC   C2B 4091   1.523  10.360   4.989
  300POPC   C3B 4092   1.505  10.539   5.389
  300POPC   C4B 4093   1.478  10.360   5.783
  301POPC   NC3 4094   8.851   1.415   3.874
  301POPC   PO4 4095   8.748   0.722   3.782
  301POPC   GL1 4096   8.765   0.759   4.250
  301POPC   GL2 4097   8.902   1.088   4.252
  301POPC   C1A 4098   8.878   0.850   4.704
  301POPC   D2A 4099   9.162   0.986   5.028
  301POPC   C3A 4100   8.956   1.050   5.455
  301POPC   C4A 4101   9.064   1.091   5.902
  301POPC   C1B 4102   8.922   1.338   4.637
  301POPC   C2B 4103   8.861   1.386   5.030
  301POPC   C3B 4104   9.073   1.576   5.343
  301POPC   C4B 4105   9.083   1.595   5.777
  302POPC   NC3 4106   0.069   1.013   3.998
  302POPC   PO4 4107  10.948   0.849   3.956
  302POPC   GL1 4108  11.163   1.060   4.329
  302POPC   GL2 4109  11.301   1.413   4.356
  302POPC   C1A 4110  11.338   0.985   4.746
  302POPC   D2A 4111  11.177   0.890   5.174
  302POPC   C3A 4112  11.480   0.974   5.487
  302POPC   C4A 4113  11.465   0.885   5.920
  302POPC   C1B 4114  11.087   1.479   4.785
  302POPC   C2B 4115  11.025   1.368   5.237
  302POPC   C3B 4116  11.049   1.195   5.655
  302POPC   C4B 4117  10.895   1.420   6.046
  303POPC   NC3 4118   2.085   8.116   3.995
  303POPC   PO4 4119   1.500   7.822   3.831
  303POPC   GL1 4120   1.727   7.894   4.259
  303POPC   GL2 4121   1.844   8.274   4.405
  303POPC   C1A 4122   1.916   7.860   4.663
  303POPC   D2A 4123   1.728   7.929   5.039
  303POPC   C3A 4124   1.852   7.975   5.418
  303POPC   C4A 4125   1.715   7.585   5.676
  303POPC   C1B 4126   1.953   8.351   4.817
  303POPC   C2B 4127   2.128   8.617   5.135
  303POPC   C3B 4128   2.223   8.407   5.519
  303POPC   C4B 4129   1.981   8.207   5.848
  304POPC   NC3 4130   0.609   5.521   3.504
  304POPC   PO4 4131   0.762   5.771   4.051
  304POPC   GL1 4132   0.600   5.674   4.390
  304POPC   GL2 4133   0.292   5.848   4.332
  304POPC   C1A 4134   0.351   5.489   4.701
  304POPC   D2A 4135   0.195   5.559   5.095
  304POPC   C3A 4136   0.414   5.550   5.474
  304POPC   C4A 4137   0.445   5.730   5.871
  304POPC   C1B 4138   0.484   6.004   4.740
  304POPC   C2B 4139   0.359   6.054   5.123
  304POPC   C3B 4140   0.493   6.101   5.522
  304POPC   C4B 4141   0.152   6.126   5.802
  305POPC   NC3 4142  10.377   6.436   3.839
  305POPC   PO4 4143  10.045   6.906   4.122
  305POPC   GL1 4144  10.280   6.559   4.328
  305POPC   GL2 4145  10.650   6.527   4.383
  305POPC   C1A 4146  10.303   6.345   4.717
  305POPC   D2A 4147  10.135   6.464   5.105
  305POPC   C3A 4148  10.239   6.353   5.513
  305POPC   C4A 4149  10.297   6.623   5.827
  305POPC   C1B 4150  10.706   6.628   4.812
  305POPC   C2B 4151  10.659   6.506   5.239
  305POPC   C3B 4152  10.757   6.650   5.645
  305POPC   C4B 4153  10.712   6.560   6.115
  306POPC   NC3 4154   9.252  10.926   3.901
  306POPC   PO4 4155   9.952  10.703   4.003
  306POPC   GL1 4156   9.610  10.908   4.278
  306POPC   GL2 4157   9.550  11.268   4.270
  306POPC   C1A 4158   9.471  10.864   4.736
  306POPC   D2A 4159   9.642  10.987   5.161
  306POPC   C3A 4160   9.491  10.909   5.596
  306POPC   C4A 4161   9.402  10.690   6.005
  306POPC   C1B 4162   9.675  11.324   4.707
  306POPC   C2B 4163   9.506  11.486   5.092
  306POPC   C3B 4164   9.667  11.386   5.503
  306POPC   C4B 4165  10.048  11.169   5.640
  307POPC   NC3 4166   7.374   9.052   3.865
  307POPC   PO4 4167   7.666   8.518   3.942
  307POPC   GL1 4168   7.522   8.833   4.293
  307POPC   GL2 4169   7.177   8.941   4.353
  307POPC   C1A 4170   7.545   9.066   4.727
  307POPC   D2A 4171   7.473   8.926   5.154
  307POPC   C3A 4172   7.752   8.936   5.481
  307POPC   C4A 4173   7.768   8.884   5.889
  307POPC   C1B 4174   7.052   8.973   4.815
  307POPC   C2B 4175   7.064   9.181   5.248
  307POPC   C3B 4176   7.125   8.922   5.638
  307POPC   C4B 4177   6.919   8.785   6.059
  308POPC   NC3 4178   9.643   4.985   3.939
  308POPC   PO4 4179   9.124   4.567   4.052
  308POPC   GL1 4180   9.399   4.641   4.404
  308POPC   GL2 4181   9.593   4.965   4.433
  308POPC   C1A 4182   9.450   4.712   4.853
  308POPC   D2A 4183   9.445   4.948   5.226
  308POPC   C3A 4184   9.482   4.704   5.611
  308POPC   C4A 4185   9.156   4.774   5.926
  308POPC   C1B 4186   9.894   4.978   4.764
  308POPC   C2B 4187   9.883   5.202   5.145
  308POPC   C3B 4188   9.745   5.163   5.595
  308POPC   C4B 4189   9.920   5.279   6.007
  309POPC   NC3 4190  11.196   9.501   3.840
  309POPC   PO4 4191   0.203   9.255   4.102
  309POPC   GL1 4192  11.342   9.526   4.332
  309POPC   GL2 4193  10.958   9.468   4.293
  309POPC   C1A 4194  11.452   9.627   4.775
  309POPC   D2A 4195  11.238   9.641   5.152
  309POPC   C3A 4196  11.388   9.565   5.551
  309POPC   C4A 4197   0.006   9.202   5.797
  309POPC   C1B 4198  10.926   9.605   4.713
  309POPC   C2B 4199  10.731   9.559   5.100
  309POPC   C3B 4200  10.858   9.611   5.505
  309POPC   C4B 4201  10.993   9.692   5.920
  310POPC   NC3 4202   9.712   3.326   3.671
  310POPC   PO4 4203   9.736   3.892   4.002
  310POPC   GL1 4204   9.676   3.629   4.355
  310POPC   GL2 4205   9.613   3.251   4.401
  310POPC   C1A 4206   9.690   3.761   4.782
  310POPC   D2A 4207   9.848   3.993   5.122
  310POPC   C3A 4208   9.892   3.770   5.520
  310POPC   C4A 4209   9.765   3.682   5.946
  310POPC   C1B 4210   9.714   3.251   4.828
  310POPC   C2B 4211   9.575   3.474   5.201
  310POPC   C3B 4212   9.517   3.376   5.643
  310POPC   C4B 4213   9.714   3.157   5.999
  311POPC   NC3 4214   3.175   0.294   3.695
  311POPC   PO4 4215   3.720   0.218   3.950
  311POPC   GL1 4216   3.465   0.407   4.314
  311POPC   GL2 4217   3.678   0.696   4.396
  311POPC   C1A 4218   3.284   0.413   4.757
  311POPC   D2A 4219   3.026   0.466   5.164
  311POPC   C3A 4220   3.253   0.355   5.541
  311POPC   C4A 4221   3.623   0.066   5.575
  311POPC   C1B 4222   3.777   0.537   4.803
  311POPC   C2B 4223   3.643   0.459   5.220
  311POPC   C3B 4224   3.739   0.579   5.663
  311POPC   C4B 4225   3.785   0.736   6.117
  312POPC   NC3 4226   4.407  10.851   3.909
  312POPC   PO4 4227   4.248  10.123   3.818
  312POPC   GL1 4228   4.182  10.358   4.181
  312POPC   GL2 4229   4.524  10.453   4.205
  312POPC   C1A 4230   4.142  10.247   4.641
  312POPC   D2A 4231   3.977  10.247   5.082
  312POPC   C3A 4232   4.267  10.175   5.438
  312POPC   C4A 4233   4.210  10.066   5.914
  312POPC   C1B 4234   4.391  10.694   4.569
  312POPC   C2B 4235   4.358  10.589   5.001
  312POPC   C3B 4236   4.326  10.705   5.424
  312POPC   C4B 4237   4.325  10.528   5.803
  313POPC   NC3 4238   0.020   1.900   3.738
  313POPC   PO4 4239  10.865   2.016   3.792
  313POPC   GL1 4240  11.003   2.118   4.235
  313POPC   GL2 4241  11.350   2.024   4.214
  313POPC   C1A 4242  10.868   2.065   4.705
  313POPC   D2A 4243  10.892   1.857   5.128
  313POPC   C3A 4244  10.760   2.066   5.521
  313POPC   C4A 4245  10.979   2.238   5.865
  313POPC   C1B 4246  11.373   1.928   4.657
  313POPC   C2B 4247  11.323   2.145   5.059
  313POPC   C3B 4248  11.273   2.033   5.478
  313POPC   C4B 4249  11.091   1.699   5.664
  314POPC   NC3 4250  11.149   5.062   3.893
  314POPC   PO4 4251   0.138   5.500   3.937
  314POPC   GL1 4252  11.496   5.123   4.266
  314POPC   GL2 4253  11.110   5.160   4.384
  314POPC   C1A 4254  11.418   4.867   4.673
  314POPC   D2A 4255   0.069   5.049   5.085
  314POPC   C3A 4256  11.450   4.868   5.473
  314POPC   C4A 4257  11.458   4.982   5.918
  314POPC   C1B 4258  11.337   5.380   4.731
  314POPC   C2B 4259  11.211   5.429   5.182
  314POPC   C3B 4260  11.161   5.289   5.626
  314POPC   C4B 4261  10.908   5.080   5.959
  315POPC   NC3 4262  11.091  10.405   3.946
  315POPC   PO4 4263   0.064  10.867   3.740
  315POPC   GL1 4264  11.428  10.741   4.225
  315POPC   GL2 4265  11.386  10.416   4.386
  315POPC   C1A 4266  11.353  10.847   4.713
  315POPC   D2A 4267  11.280  10.947   5.176
  315POPC   C3A 4268   0.006  10.648   5.510
  315POPC   C4A 4269  11.350  10.519   5.918
  315POPC   C1B 4270  11.190  10.071   4.645
  315POPC   C2B 4271  10.937  10.034   5.040
  315POPC   C3B 4272  11.098  10.050   5.483
  315POPC   C4B 4273  11.457  10.041   5.751
  316POPC   NC3 4274   6.338  10.358   3.930
  316POPC   PO4 4275   6.873   9.918   4.019
  316POPC   GL1 4276   6.728  10.248   4.337
  316POPC   GL2 4277   6.443  10.521   4.383
  316POPC   C1A 4278   6.705  10.354   4.786
  316POPC   D2A 4279   6.705  10.572   5.173
  316POPC   C3A 4280   6.695  10.331   5.521
  316POPC   C4A 4281   6.713  10.447   5.931
  316POPC   C1B 4282   6.227  10.496   4.769
  316POPC   C2B 4283   6.229  10.284   5.137
  316POPC   C3B 4284   6.186  10.444   5.545
  316POPC   C4B 4285   6.313  10.144   5.833
  317POPC   NC3 4286   5.720   9.917   3.895
  317POPC   PO4 4287   5.579   9.258   4.074
  317POPC   GL1 4288   5.771   9.603   4.297
  317POPC   GL2 4289   5.604   9.885   4.398
  317POPC   C1A 4290   5.984   9.675   4.681
  317POPC   D2A 4291   5.885   9.768   5.106
  317POPC   C3A 4292   5.851   9.393   5.366
  317POPC   C4A 4293   5.661   9.198   5.761
  317POPC   C1B 4294   5.453   9.816   4.817
  317POPC   C2B 4295   5.403   9.874   5.258
  317POPC   C3B 4296   5.488   9.661   5.619
  317POPC   C4B 4297   5.890   9.667   5.787
  318POPC   NC3 4298   2.575   3.447   3.958
  318POPC   PO4 4299   2.572   4.057   3.899
  318POPC   GL1 4300   2.568   3.743   4.370
  318POPC   GL2 4301   2.763   3.403   4.408
  318POPC   C1A 4302   2.408   3.504   4.753
  318POPC   D2A 4303   2.322   3.690   5.114
  318POPC   C3A 4304   2.469   3.531   5.472
  318POPC   C4A 4305   2.596   3.496   5.912
  318POPC   C1B 4306   2.905   3.566   4.794
  318POPC   C2B 4307   3.031   3.348   5.167
  318POPC   C3B 4308   2.964   3.285   5.609
  318POPC   C4B 4309   3.097   3.635   5.890
  319POPC   NC3 4310  11.032   2.446   3.817
  319POPC   PO4 4311  11.248   3.114   3.873
  319POPC   GL1 4312  11.302   2.963   4.258
  319POPC   GL2 4313  11.287   2.620   4.222
  319POPC   C1A 4314  11.058   2.932   4.601
  319POPC   D2A 4315  10.733   3.075   4.877
  319POPC   C3A 4316  10.871   2.942   5.262
  319POPC   C4A 4317  10.977   3.075   5.661
  319POPC   C1B 4318  11.227   2.436   4.592
  319POPC   C2B 4319  11.204   2.635   4.991
  319POPC   C3B 4320  11.202   2.537   5.414
  319POPC   C4B 4321  11.205   2.677   5.835
  320POPC   NC3 4322   9.358   4.167   4.002
  320POPC   PO4 4323   9.943   4.567   3.876
  320POPC   GL1 4324   9.889   4.541   4.322
  320POPC   GL2 4325   9.742   4.219   4.383
  320POPC   C1A 4326   9.926   4.466   4.794
  320POPC   D2A 4327   9.857   4.648   5.196
  320POPC   C3A 4328   9.835   4.348   5.491
  320POPC   C4A 4329   9.685   4.261   5.845
  320POPC   C1B 4330   9.490   4.217   4.746
  320POPC   C2B 4331   9.441   4.312   5.179
  320POPC   C3B 4332   9.419   3.996   5.498
  320POPC   C4B 4333   9.324   3.913   5.933
  321POPC   NC3 4334   7.258  10.040   3.759
  321POPC   PO4 4335   7.082   9.394   3.888
  321POPC   GL1 4336   7.108   9.466   4.339
  321POPC   GL2 4337   7.458   9.387   4.322
  321POPC   C1A 4338   7.201   9.459   4.822
  321POPC   D2A 4339   7.582   9.410   5.138
  321POPC   C3A 4340   7.452   9.344   5.567
  321POPC   C4A 4341   7.028   9.437   5.699
  321POPC   C1B 4342   7.654   9.605   4.675
  321POPC   C2B 4343   7.442   9.897   4.960
  321POPC   C3B 4344   7.231   9.748   5.317
  321POPC   C4B 4345   7.215   9.998   5.688
  322POPC   NC3 4346  10.314  10.402   3.935
  322POPC   PO4 4347  10.901  10.623   4.308
  322POPC   GL1 4348  10.515  10.460   4.467
  322POPC   GL2 4349  10.165  10.521   4.423
  322POPC   C1A 4350  10.393  10.401   4.903
  322POPC   D2A 4351  10.544  10.245   5.298
  322POPC   C3A 4352  10.819  10.472   5.593
  322POPC   C4A 4353  11.047  10.845   5.629
  322POPC   C1B 4354  10.055  10.129   4.634
  322POPC   C2B 4355   9.926  10.119   5.114
  322POPC   C3B 4356  10.098  10.210   5.524
  322POPC   C4B 4357  10.369  10.405   5.824
  323POPC   NC3 4358   2.359  10.179   4.070
  323POPC   PO4 4359   1.735  10.013   4.013
  323POPC   GL1 4360   1.841  10.385   4.197
  323POPC   GL2 4361   2.032  10.213   4.448
  323POPC   C1A 4362   1.734  10.615   4.585
  323POPC   D2A 4363   1.988  10.685   4.952
  323POPC   C3A 4364   2.043  10.468   5.338
  323POPC   C4A 4365   1.927  10.626   5.726
  323POPC   C1B 4366   2.008  10.169   4.875
  323POPC   C2B 4367   1.775   9.923   5.146
  323POPC   C3B 4368   1.799  10.078   5.532
  323POPC   C4B 4369   2.151  10.173   5.834
  324POPC   NC3 4370   2.658   9.312   3.671
  324POPC   PO4 4371   2.629   9.986   3.760
  324POPC   GL1 4372   2.654   9.919   4.353
  324POPC   GL2 4373   2.931   9.688   4.469
  324POPC   C1A 4374   2.581   9.798   4.818
  324POPC   D2A 4375   2.748   9.483   5.130
  324POPC   C3A 4376   2.537   9.534   5.519
  324POPC   C4A 4377   2.524   9.827   5.839
  324POPC   C1B 4378   3.153   9.914   4.802
  324POPC   C2B 4379   3.032   9.925   5.248
  324POPC   C3B 4380   2.986   9.737   5.659
  324POPC   C4B 4381   2.985   9.864   6.112
  325POPC   NC3 4382  10.280   8.618   3.856
  325POPC   PO4 4383  10.724   9.224   3.850
  325POPC   GL1 4384  10.682   9.002   4.216
  325POPC   GL2 4385  10.374   8.851   4.284
  325POPC   C1A 4386  10.792   8.836   4.606
  325POPC   D2A 4387  10.829   8.557   4.955
  325POPC   C3A 4388  10.810   8.777   5.315
  325POPC   C4A 4389  10.608   8.806   5.670
  325POPC   C1B 4390  10.296   8.972   4.703
  325POPC   C2B 4391  10.319   8.822   5.137
  325POPC   C3B 4392  10.067   8.967   5.475
  325POPC   C4B 4393  10.223   9.071   5.863
  326POPC   NC3 4394  10.115   4.106   3.875
  326POPC   PO4 4395  10.646   4.509   3.841
  326POPC   GL1 4396  10.579   4.183   4.146
  326POPC   GL2 4397  10.273   4.200   4.336
  326POPC   C1A 4398  10.704   4.049   4.579
  326POPC   D2A 4399  10.898   4.141   4.977
  326POPC   C3A 4400  10.738   4.039   5.386
  326POPC   C4A 4401  10.710   4.292   5.742
  326POPC   C1B 4402  10.185   4.014   4.713
  326POPC   C2B 4403  10.324   4.231   5.073
  326POPC   C3B 4404  10.322   4.430   5.457
  326POPC   C4B 4405  10.199   4.129   5.778
  327POPC   NC3 4406   2.490   9.024   4.101
  327POPC   PO4 4407   3.070   9.090   3.747
  327POPC   GL1 4408   2.983   8.965   4.242
  327POPC   GL2 4409   2.794   8.639   4.258
  327POPC   C1A 4410   2.723   9.059   4.703
  327POPC   D2A 4411   2.432   9.057   5.105
  327POPC   C3A 4412   2.658   9.057   5.514
  327POPC   C4A 4413   3.058   9.229   5.634
  327POPC   C1B 4414   2.954   8.600   4.703
  327POPC   C2B 4415   2.805   8.698   5.140
  327POPC   C3B 4416   2.716   8.571   5.586
  327POPC   C4B 4417   3.078   8.728   5.812
  328POPC   NC3 4418   0.681   2.651   3.727
  328POPC   PO4 4419   1.392   2.605   3.949
  328POPC   GL1 4420   1.123   2.425   4.284
  328POPC   GL2 4421   1.464   2.342   4.449
  328POPC   C1A 4422   1.027   2.409   4.737
  328POPC   D2A 4423   1.070   2.787   4.990
  328POPC   C3A 4424   1.049   2.970   5.369
  328POPC   C4A 4425   1.032   2.738   5.738
  328POPC   C1B 4426   1.388   2.772   4.582
  328POPC   C2B 4427   1.471   3.074   4.870
  328POPC   C3B 4428   1.585   3.054   5.289
  328POPC   C4B 4429   1.416   3.116   5.696
  329POPC   NC3 4430   5.357   2.230   3.985
  329POPC   PO4 4431   5.999   1.961   3.971
  329POPC   GL1 4432   5.898   1.780   4.356
  329POPC   GL2 4433   5.562   1.912   4.361
  329POPC   C1A 4434   5.818   1.675   4.796
  329POPC   D2A 4435   5.909   1.928   5.143
  329POPC   C3A 4436   6.078   1.800   5.531
  329POPC   C4A 4437   6.096   2.193   5.745
  329POPC   C1B 4438   5.339   1.857   4.766
  329POPC   C2B 4439   5.424   1.812   5.218
  329POPC   C3B 4440   5.590   1.946   5.611
  329POPC   C4B 4441   5.698   1.658   5.920
  330POPC   NC3 4442  10.292   9.304   4.055
  330POPC   PO4 4443  10.042   9.901   3.794
  330POPC   GL1 4444  10.209   9.780   4.246
  330POPC   GL2 4445  10.560   9.758   4.160
  330POPC   C1A 4446  10.396   9.500   4.647
  330POPC   D2A 4447  10.263   9.339   5.073
  330POPC   C3A 4448  10.497   9.260   5.455
  330POPC   C4A 4449  10.499   9.497   5.863
  330POPC   C1B 4450  10.569   9.972   4.591
  330POPC   C2B 4451  10.347   9.874   4.988
  330POPC   C3B 4452  10.364   9.772   5.422
  330POPC   C4B 4453  10.619   9.987   5.721
  331POPC   NC3 4454   2.678  10.364   3.528
  331POPC   PO4 4455   3.154  10.320   3.988
  331POPC   GL1 4456   3.048  10.244   4.398
  331POPC   GL2 4457   2.767  10.450   4.335
  331POPC   C1A 4458   2.976  10.430   4.811
  331POPC   D2A 4459   2.947  10.438   5.236
  331POPC   C3A 4460   2.663  10.211   5.485
  331POPC   C4A 4461   2.864  10.259   5.841
  331POPC   C1B 4462   2.505  10.289   4.670
  331POPC   C2B 4463   2.455  10.401   5.053
  331POPC   C3B 4464   2.530  10.727   5.337
  331POPC   C4B 4465   2.498  10.632   5.764
  332POPC   NC3 4466   8.782   8.205   3.919
  332POPC   PO4 4467   9.214   7.810   3.694
  332POPC   GL1 4468   9.102   7.947   4.225
  332POPC   GL2 4469   9.110   8.316   4.313
  332POPC   C1A 4470   9.309   7.947   4.661
  332POPC   D2A 4471   9.210   7.861   5.113
  332POPC   C3A 4472   9.010   7.906   5.516
  332POPC   C4A 4473   9.185   7.735   5.857
  332POPC   C1B 4474   8.853   8.152   4.694
  332POPC   C2B 4475   8.706   8.052   5.139
  332POPC   C3B 4476   8.550   8.185   5.594
  332POPC   C4B 4477   8.464   8.311   6.066
  333POPC   NC3 4478   2.758   4.465   3.937
  333POPC   PO4 4479   3.220   4.720   4.275
  333POPC   GL1 4480   2.708   4.637   4.402
  333POPC   GL2 4481   2.517   4.275   4.374
  333POPC   C1A 4482   2.509   4.556   4.801
  333POPC   D2A 4483   2.744   4.384   5.171
  333POPC   C3A 4484   2.577   4.497   5.576
  333POPC   C4A 4485   2.660   4.712   5.962
  333POPC   C1B 4486   2.569   4.024   4.792
  333POPC   C2B 4487   2.775   3.869   5.202
  333POPC   C3B 4488   2.730   3.933   5.654
  333POPC   C4B 4489   2.863   4.223   5.946
  334POPC   NC3 4490   8.901   9.734   3.937
  334POPC   PO4 4491   8.417   9.383   4.220
  334POPC   GL1 4492   8.778   9.510   4.389
  334POPC   GL2 4493   8.784   9.879   4.393
  334POPC   C1A 4494   8.710   9.545   4.820
  334POPC   D2A 4495   8.749   9.482   5.233
  334POPC   C3A 4496   8.515   9.460   5.577
  334POPC   C4A 4497   8.809   9.477   5.904
  334POPC   C1B 4498   8.859  10.041   4.775
  334POPC   C2B 4499   8.960   9.918   5.142
  334POPC   C3B 4500   8.826   9.870   5.551
  334POPC   C4B 4501   8.962   9.949   5.936
  335POPC   NC3 4502   0.312   7.054   3.979
  335POPC   PO4 4503   0.018   7.610   3.811
  335POPC   GL1 4504   0.192   7.601   4.231
  335POPC   GL2 4505   0.520   7.481   4.260
  335POPC   C1A 4506   0.306   7.586   4.690
  335POPC   D2A 4507   0.319   7.338   5.050
  335POPC   C3A 4508   0.348   7.534   5.450
  335POPC   C4A 4509   0.191   7.358   5.847
  335POPC   C1B 4510   0.571   7.127   4.588
  335POPC   C2B 4511   0.645   6.927   5.002
  335POPC   C3B 4512   0.722   7.181   5.383
  335POPC   C4B 4513   0.706   7.396   5.810
  336POPC   NC3 4514   4.431   1.472   3.433
  336POPC   PO4 4515   4.493   1.493   4.082
  336POPC   GL1 4516   4.409   1.411   4.465
  336POPC   GL2 4517   4.274   1.081   4.435
  336POPC   C1A 4518   4.570   1.267   4.846
  336POPC   D2A 4519   4.422   1.000   5.178
  336POPC   C3A 4520   4.474   1.188   5.589
  336POPC   C4A 4521   4.440   1.412   5.992
  336POPC   C1B 4522   3.914   1.037   4.747
  336POPC   C2B 4523   3.833   0.961   5.205
  336POPC   C3B 4524   3.984   1.127   5.605
  336POPC   C4B 4525   3.940   1.248   6.039
  337POPC   NC3 4526   2.774   0.101   4.000
  337POPC   PO4 4527   2.943   0.720   3.775
  337POPC   GL1 4528   2.963   0.616   4.275
  337POPC   GL2 4529   2.916   0.264   4.454
  337POPC   C1A 4530   2.869   0.722   4.741
  337POPC   D2A 4531   2.644   0.798   5.164
  337POPC   C3A 4532   2.866   0.766   5.588
  337POPC   C4A 4533   2.796   0.560   6.012
  337POPC   C1B 4534   2.563   0.321   4.778
  337POPC   C2B 4535   2.504   0.315   5.240
  337POPC   C3B 4536   2.733   0.242   5.612
  337POPC   C4B 4537   2.587  11.479   5.950
  338W        W 4538   4.587   7.126   1.917
  339W        W 4539   5.152   6.006   0.009
  340W        W 4540   7.842   4.659  10.370
  341W        W 4541  10.026   0.237  10.587
  342W        W 4542   0.215   4.715   3.422
  343W        W 4543   7.471   3.855  10.487
  344W        W 4544  10.860   8.803  11.753
  345W        W 4545   8.569   3.206   8.916
  346W        W 4546   1.429   0.901   0.891
  347W        W 4547   1.252   6.504  10.836
  348W        W 4548   4.316   9.024   2.259
  349W        W 4549   7.653   6.535   2.733
  350W        W 4550  11.358   1.001   2.135
  351W        W 4551  10.023   2.851   3.674
  352W        W 4552   0.455  11.406   3.242
  353W        W 4553   2.245  10.426  10.441
  354W        W 4554  10.704   5.805  11.470
  355W        W 4555   3.825   7.620   0.896
  356W        W 4556  11.495   8.167  11.807
  357W        W 4557  11.107   7.989   2.198
  358W        W 4558   5.982   3.646   7.934
  359W        W 4559   5.927   4.085   3.951
  360W        W 4560   2.541   3.027   0.100
  361W        W 4561   9.169   5.288   2.911
  362W        W 4562   2.428  10.307   0.443
  363W        W 4563   2.591  10.894   3.488
  364W        W 4564   4.642   0.370   0.453
  365W        W 4565   6.223   0.376   2.810
  366W        W 4566   2.343   5.762   0.949
  367W        W 4567   9.328  11.130  10.306
  368W        W 4568   7.255   6.157  10.504
  369W        W 4569   5.812   6.849  11.458
  370W        W 4570  11.282  10.559  11.312
  371W        W 4571   2.169  10.928   3.195
  372W        W 4572   7.959   8.409   1.853
  373W        W 4573   7.015   4.748   1.431
  374W        W 4574   0.891   1.406  10.451
  375W        W 4575   5.654   0.504   0.015
  376W        W 4576  10.445   2.786   3.166
  377W        W 4577   2.667   8.787   3.699
  378W        W 4578   3.274   8.574   0.824
  379W        W 4579   5.247   2.427  10.768
  380W        W 4580   2.710   2.569   9.890
  381W        W 4581   2.638   4.731   3.392
  382W        W 4582   3.822   8.989   3.026
  383W        W 4583   6.084   0.492   9.292
  384W        W 4584   6.713   6.490   1.948
  385W        W 4585   5.838   4.130   8.155
  386W        W 4586   0.609   2.470  11.829
  387W        W 4587   1.752   5.369  10.376
  388W        W 4588   0.586   2.806   0.683
  389W        W 4589   3.243   1.511   0.038
  390W        W 4590   6.605   1.011   0.873
  391W        W 4591   6.048   7.398  10.284
  392W        W 4592   4.437   8.932   0.776
  393W        W 4593   2.653   4.136   9.780
  394W        W 4594   3.706   4.739  11.656
  395W        W 4595  10.796   6.740  11.093
  396W        W 4596   0.954  10.509   2.755
  397W        W 4597   9.601   0.327   1.973
  398W        W 4598   8.937   2.464  10.965
  399W        W 4599   9.233   8.927   3.006
  400W        W 4600   9.156  10.820   9.948
  401W        W 4601   8.992  11.295   1.692
  402W        W 4602   9.047   9.546   9.910
  403W        W 4603   5.227   9.249   1.308
  404W        W 4604   9.378  10.405  11.433
  405W        W 4605   7.679   5.229   0.738
  406W        W 4606   1.492   2.803   1.476
  407W        W 4607   3.849   4.648   2.739
  408W        W 4608   5.682  10.336  11.323
  409W        W 4609  10.475   3.271   9.042
  410W        W 4610   9.839  10.605  11.468
  411W        W 4611   4.252   1.771  10.590
  412W        W 4612   3.191   8.203   9.575
  413W        W 4613  10.508   4.638   1.464
  414W        W 4614   1.108   8.393   8.852
  415W        W 4615  11.361   4.366   0.556
  416W        W 4616  10.442   7.403   1.668
  417W        W 4617   6.583   7.588  11.472
  418W        W 4618   5.533   6.164   0.312
  419W        W 4619   4.204   2.818   0.451
  420W        W 4620   4.719   6.221   0.161
  421W        W 4621   8.043   9.985  10.878
  422W        W 4622   9.464  11.324   1.911
  423W        W 4623   4.313   0.166   9.744
  424W        W 4624   7.094   4.298   0.086
  425W        W 4625   9.160   7.312   3.453
  426W        W 4626   9.448   4.226  11.538
  427W        W 4627   5.421   3.566   9.125
  428W        W 4628  10.600   8.845   0.348
  429W        W 4629   5.543  11.210   2.172
  430W        W 4630   5.682   4.497   2.964
  431W        W 4631   5.109  11.476  10.601
  432W        W 4632   5.761   3.268  10.298
  433W        W 4633  10.936   8.066  11.101
  434W        W 4634   1.835   3.206   3.124
  435W        W 4635  11.220   0.382  10.811
  436W        W 4636   6.000  10.070  11.696
  437W        W 4637   3.622   5.197   8.131
  438W        W 4638   4.745   8.872   8.145
  439W        W 4639   2.255  10.252   9.912
  440W        W 4640   1.744   9.815   0.030
  441W        W 4641   6.972   2.673   1.615
  442W        W 4642  10.034   2.371  10.855
  443W        W 4643   0.347   0.406   9.020
  444W        W 4644   6.465   0.179  11.026
  445W        W 4645   6.483   3.823   9.845
  446W        W 4646   1.014   6.284   3.947
  447W        W 4647   9.296   9.397   8.936
  448W        W 4648   5.176   7.394   1.805
  449W        W 4649  10.233   7.659   0.842
  450W        W 4650   9.125   5.038  11.948
  451W        W 4651   4.976  10.547  10.642
  452W        W 4652   1.344   3.410  10.640
  453W        W 4653   2.692   4.035  11.957
  454W        W 4654   4.472   0.347   8.818
  455W        W 4655   4.746   3.152   2.757
  456W        W 4656   4.035   4.285  11.429
  457W        W 4657   2.634  10.309   0.925
  458W        W 4658  10.797   1.769  10.937
  459W        W 4659   6.983   9.702   3.492
  460W        W 4660  10.897   0.922   0.255
  461W        W 4661   9.849   1.258   9.797
  462W        W 4662   8.455   9.147   8.983
  463W        W 4663   2.467   5.361   1.666
  464W        W 4664   7.720   3.844   4.039
  465W        W 4665   1.106   6.613   8.365
  466W        W 4666   7.401   7.511  10.735
  467W        W 4667   2.160   6.524   3.269
  468W        W 4668   8.782   9.461   1.808
  469W        W 4669   9.517   0.587   9.805
  470W        W 4670   8.126   4.637  10.786
  471W        W 4671   2.117   2.304   0.236
  472W        W 4672  11.155   4.977  11.129
  473W        W 4673   8.373   5.595   0.332
  474W        W 4674   1.351   3.388  11.635
  475W        W 4675   2.359   3.742  10.017
  476W        W 4676   6.224   1.041   9.902
  477W        W 4677   6.563   6.907   2.246
  478W        W 4678  11.038  11.279   2.206
  479W        W 4679   3.508   6.170   1.744
  480W        W 4680   4.672   2.217  11.292
  481W        W 4681   9.551   0.291  11.331
  482W        W 4682   9.437   9.117  10.281
  483W        W 4683  10.436   8.680  11.448
  484W        W 4684   5.997   6.923   0.836
  485W        W 4685   2.485   8.199   9.103
  486W        W 4686   2.895  10.616   3.161
  487W        W 4687   5.753   3.660  11.375
  488W        W 4688   9.638   7.198   9.493
  489W        W 4689  10.570   7.025  11.902
  490W        W 4690   3.316   6.951  11.453
  491W        W 4691  11.304  11.140   0.072
  492W        W 4692   2.740   4.542   0.064
  493W        W 4693   6.560   4.073   9.382
  494W        W 4694   4.001   8.310   3.507
  495W        W 4695   1.261   9.936  10.751
  496W        W 4696   7.629  11.063   1.687
  497W        W 4697  10.006   3.758  11.620
  498W        W 4698  11.116   5.460  10.866
  499W        W 4699   7.213   4.003   2.468
  500W        W 4700   1.852   6.122  11.342
  501W        W 4701   9.757   9.031   0.897
  502W        W 4702   8.452   1.626  10.845
  503W        W 4703   9.631  11.223   2.776
  504W        W 4704   1.371   1.753   0.679
  505W        W 4705   4.283   9.154   1.234
  506W        W 4706   0.337   4.740  11.699
  507W        W 4707   0.587   4.212   0.728
  508W        W 4708  10.499  10.225   0.678
  509W        W 4709   0.802   0.335  11.822
  510W        W 4710   8.466   5.459   3.766
  511W        W 4711   0.852  10.781   9.867
  512W        W 4712   4.691   0.879   2.152
  513W        W 4713   3.606   8.557  11.735
  514W        W 4714   3.413   8.066   3.150
  515W        W 4715   4.264   3.327   2.819
  516W        W 4716   1.175   7.825   1.069
  517W        W 4717   8.769   1.518   3.017
  518W        W 4718   5.275   8.685   8.626
  519W        W 4719   8.088   1.182   9.302
  520W        W 4720   0.920  11.274   0.937
  521W        W 4721   6.773   5.613   2.438
  522W        W 4722   4.360   1.354   9.485
  523W        W 4723   2.162   6.582   1.303
  524W        W 4724   0.913   7.970   9.077
  525W        W 4725   3.535   0.453   2.340
  526W        W 4726   1.958   3.750   8.468
  527W        W 4727   7.155   1.403  11.435
  528W        W 4728   3.693   6.564   3.095
  529W        W 4729   0.835   6.599  10.026
  530W        W 4730   1.597   5.321   0.822
  531W        W 4731   1.608   2.701  11.670
  532W        W 4732   6.412   8.870  10.262
  533W        W 4733   3.100  11.045   3.419
  534W        W 4734  10.614   0.318   1.745
  535W        W 4735  10.016   8.613   9.666
  536W        W 4736   5.254   3.563  11.334
  537W        W 4737  10.578   3.095  11.570
  538W        W 4738   1.743   0.522   2.608
  539W        W 4739   5.523   3.484   4.267
  540W        W 4740   2.478   8.581  10.768
  541W        W 4741   1.756   7.940   3.013
  542W        W 4742   7.983   3.462   2.102
  543W        W 4743   9.669   9.631   0.087
  544W        W 4744   7.921  11.306   2.979
  545W        W 4745  10.005   7.427   0.460
  546W        W 4746   5.574   8.567  10.685
  547W        W 4747   2.129   0.957   9.385
  548W        W 4748   7.237   1.262   2.269
  549W        W 4749   7.147  10.392  10.871
  550W        W 4750   0.711   6.483   2.783
  551W        W 4751   2.303   1.717   2.450
  552W        W 4752   5.696   4.216   0.112
  553W        W 4753   2.039   5.230  11.726
  554W        W 4754   0.517   5.103   2.808
  555W        W 4755   4.158   8.518  10.506
  556W        W 4756   3.344   9.420   1.922
  557W        W 4757   5.256   8.254   2.982
  558W        W 4758  10.037   3.520   0.058
  559W        W 4759   0.698   3.613   2.804
  560W        W 4760   9.600   1.439  10.602
  561W        W 4761   4.335   6.553   1.711
  562W        W 4762  11.140   9.519   9.529
  563W        W 4763   9.260   9.424   3.088
  564W        W 4764   4.001  10.986   3.167
  565W        W 4765   7.032  11.060   1.543
  566W        W 4766   2.182   9.741  10.812
  567W        W 4767   4.143   2.645   2.337
  568W        W 4768   6.216   4.108   8.650
  569W        W 4769   3.270   0.018   2.209
  570W        W 4770   6.066   7.179   3.939
  571W        W 4771  10.481   6.492   2.840
  572W        W 4772   3.422   8.962   3.370
  573W        W 4773   6.729  11.067   0.546
  574W        W 4774   6.135   3.019   8.622
  575W        W 4775   5.561   5.561  10.009
  576W        W 4776   1.339   4.227   2.937
  577W        W 4777   7.622   0.505  11.578
  578W        W 4778   6.911   6.525   0.705
  579W        W 4779   2.318   4.817  10.954
  580W        W 4780   0.505   1.311   9.878
  581W        W 4781   5.936   0.593   9.836
  582W        W 4782   7.590   2.473   1.212
  583W        W 4783   3.803   2.321  11.768
  584W        W 4784   8.201   1.319   1.761
  585W        W 4785   0.713   9.059   3.034
  586W        W 4786   9.961  11.407   9.858
  587W        W 4787   4.889   1.822   3.311
  588W        W 4788   3.644   1.622   9.034
  589W        W 4789   7.377   7.134  11.491
  590W        W 4790   3.151   4.234   2.780
  591W        W 4791   5.618   7.564  10.524
  592W        W 4792  10.466   4.711   1.954
  593W        W 4793   5.148   5.592   0.318
  594W        W 4794   9.449   7.698   9.413
  595W        W 4795   4.957   1.416  11.551
  596W        W 4796   4.927   3.089   8.665
  597W        W 4797   0.313   9.047   9.274
  598W        W 4798   3.749   5.176   2.665
  599W        W 4799  10.339   4.749   2.427
  600W        W 4800   4.349   1.706  11.510
  601W        W 4801   2.226   3.602   1.758
  602W        W 4802  10.905   8.467  11.394
  603W        W 4803   3.740  11.329  10.877
  604W        W 4804   5.721   0.123   1.877
  605W        W 4805   1.638   1.888   1.787
  606W        W 4806   6.206   3.399   0.026
  607W        W 4807   5.058   8.107  11.277
  608W        W 4808   2.860   7.399   0.680
  609W        W 4809   3.529   2.867  11.263
  610W        W 4810   4.226   9.573   8.933
  611W        W 4811   5.595   6.594   1.151
  612W        W 4812  10.710   9.455  11.116
  613W        W 4813   3.719   7.503   3.084
  614W        W 4814   1.311   8.670  11.906
  615W        W 4815   0.200   3.015   9.305
  616W        W 4816   2.710   3.605   1.536
  617W        W 4817   3.194   2.962   2.302
  618W        W 4818   1.918   8.546   9.924
  619W        W 4819   4.655   2.907  11.828
  620W        W 4820   1.869   9.464   2.583
  621W        W 4821   4.063  10.282  11.843
  622W        W 4822   3.638   6.264  11.892
  623W        W 4823   1.263   9.058   0.717
  624W        W 4824   5.166   1.030   9.953
  625W        W 4825   9.060   8.075   2.937
  626W        W 4826   2.749   8.350   1.510
  627W        W 4827   0.868   3.031  11.035
  628W        W 4828   9.169   0.970   8.643
  629W        W 4829   4.302   8.053  11.993
  630W        W 4830   6.094   8.694   3.630
  631W        W 4831   7.793   2.058  11.867
  632W        W 4832   1.299   9.870   3.019
  633W        W 4833   3.273   0.403   1.872
  634W        W 4834   4.177   5.982   8.223
  635W        W 4835   3.161   6.172   0.726
  636W        W 4836   7.600   6.875   9.961
  637W        W 4837  11.213   5.682   2.762
  638W        W 4838   1.430   9.513  10.494
  639W        W 4839   7.427  11.167  11.864
  640W        W 4840   2.036   2.300  10.471
  641W        W 4841   9.296   9.905  11.369
  642W        W 4842   2.342  11.044   9.128
  643W        W 4843   8.359   6.133   3.133
  644W        W 4844   3.332   3.475   4.003
  645W        W 4845   6.523   1.829   0.429
  646W        W 4846   5.321   7.643   0.797
  647W        W 4847  10.843   6.408   3.526
  648W        W 4848   9.419   0.839   9.080
  649W        W 4849   3.607   4.983  10.783
  650W        W 4850   6.033   9.925  11.196
  651W        W 4851   1.697   4.121   9.415
  652W        W 4852   1.640   7.109   0.995
  653W        W 4853   8.139   3.387   2.610
  654W        W 4854   7.350   0.933  11.402
  655W        W 4855   7.050   1.870   1.632
  656W        W 4856   5.229   2.663  11.793
  657W        W 4857   7.930   8.978   0.839
  658W        W 4858  10.063   4.318   9.374
  659W        W 4859   9.873   3.921   3.038
  660W        W 4860   7.427   5.984   9.865
  661W        W 4861   8.513   1.402  11.451
  662W        W 4862   1.454   8.181   1.308
  663W        W 4863   8.009  10.784   0.568
  664W        W 4864   5.231   0.640   0.920
  665W        W 4865   8.229   6.104   0.379
  666W        W 4866   9.084   8.071  10.741
  667W        W 4867   5.465   6.523   9.164
  668W        W 4868   6.215   9.896   8.609
  669W        W 4869   9.972   5.695   8.979
  670W        W 4870  11.204   3.803   2.675
  671W        W 4871   7.534   4.716   1.652
  672W        W 4872   8.542   8.981  11.980
  673W        W 4873   2.704   6.163   1.992
  674W        W 4874   1.252   6.560  10.319
  675W        W 4875   4.741   9.397   1.190
  676W        W 4876   5.198   9.399   9.991
  677W        W 4877   5.192   8.564   2.059
  678W        W 4878  11.412   2.946   8.886
  679W        W 4879   0.802   9.084   0.501
  680W        W 4880   6.039   2.055   2.761
  681W        W 4881   4.078   2.887  11.092
  682W        W 4882   7.044   0.084   9.235
  683W        W 4883   1.763   7.959   0.375
  684W        W 4884  10.925   6.373   9.302
  685W        W 4885   1.293   6.490   9.787
  686W        W 4886   9.006  10.857   2.031
  687W        W 4887   8.054   7.166   0.677
  688W        W 4888   1.211  10.887   9.510
  689W        W 4889   1.399   6.956  10.997
  690W        W 4890   8.598   9.806   9.805
  691W        W 4891   8.853   4.061  11.759
  692W        W 4892   6.255   2.189   3.214
  693W        W 4893   6.042   9.459   0.821
  694W        W 4894   1.120   0.290  10.878
  695W        W 4895   4.735   5.648   0.642
  696W        W 4896   4.214   7.541  10.502
  697W        W 4897   8.955   8.670   8.493
  698W        W 4898   2.962   5.295   1.581
  699W        W 4899   6.319   3.315   1.339
  700W        W 4900   6.519   8.373  11.022
  701W        W 4901   4.053   7.253   2.770
  702W        W 4902  10.765   4.165  10.061
  703W        W 4903   2.676   1.215  10.828
  704W        W 4904   9.175   5.896  10.763
  705W        W 4905   6.991   0.613  11.212
  706W        W 4906   7.158   6.165   2.264
  707W        W 4907   3.085   3.115   9.525
  708W        W 4908   4.944   5.222  11.482
  709W        W 4909   4.115   0.276   1.526
  710W        W 4910   0.879   1.259   1.428
  711W        W 4911   4.651   2.799   3.455
  712W        W 4912  10.359   6.471   9.016
  713W        W 4913   2.628   6.155   2.855
  714W        W 4914   9.974   8.879  11.577
  715W        W 4915   8.256   0.305  10.495
  716W        W 4916   8.824   0.252   1.830
  717W        W 4917   6.577   8.177   1.975
  718W        W 4918   4.145   6.089   0.826
  719W        W 4919   6.281   1.439  11.623
  720W        W 4920   8.012   6.462   0.014
  721W        W 4921   2.657   3.289   0.547
  722W        W 4922   1.254   0.774   9.957
  723W        W 4923   4.695   5.681  11.517
  724W        W 4924   2.988   3.742   2.830
  725W        W 4925  11.076   1.619   2.840
  726W        W 4926   6.927   7.505  11.864
  727W        W 4927   3.779  10.877   8.993
  728W        W 4928   4.937  10.781   3.443
  729W        W 4929   4.397   0.716  11.657
  730W        W 4930  10.478   6.909  10.710
  731W        W 4931   6.630   1.570   0.852
  732W        W 4932   0.213   3.505   9.910
  733W        W 4933   5.005  10.363  11.972
  734W        W 4934   0.825   7.157   0.498
  735W        W 4935   6.107   2.689   1.215
  736W        W 4936   8.912   1.470   1.729
  737W        W 4937   1.204  10.088   3.505
  738W        W 4938  10.927   1.297  10.668
  739W        W 4939   1.646  11.442  10.119
  740W        W 4940   1.134   7.309   1.044
  741W        W 4941   2.104   6.210   0.912
  742W        W 4942   4.514   3.201   2.239
  743W        W 4943  10.036  10.852  10.889
  744W        W 4944  10.349   8.837  10.936
  745W        W 4945   8.103  10.161  10.415
  746W        W 4946  10.002   7.194   1.884
  747W        W 4947   5.469   8.424   9.038
  748W        W 4948   3.809  10.444   1.406
  749W        W 4949   4.804   0.999  11.791
  750W        W 4950   1.274  10.674   1.924
  751W        W 4951   1.769   2.423   2.811
  752W        W 4952   6.687   5.221   1.385
  753W        W 4953  10.047   8.415   9.193
  754W        W 4954   3.348   4.685   2.614
  755W        W 4955   4.583   3.719   1.981
  756W        W 4956   4.300   2.440  10.975
  757W        W 4957   8.575   1.945   9.367
  758W        W 4958  11.302   4.250   9.391
  759W        W 4959   9.389   5.471   9.959
  760W        W 4960   8.380   8.079  10.010
  761W        W 4961   6.944   4.184   0.582
  762W        W 4962   1.269   5.339   1.261
  763W        W 4963   3.455   3.246  10.390
  764W        W 4964   4.708   0.377   9.387
  765W        W 4965   9.770   6.728   8.199
  766W        W 4966   8.190   0.437   9.975
  767W        W 4967   6.323   6.110  11.478
  768W        W 4968   5.177   4.837  11.736
  769W        W 4969   2.254   3.833   8.930
  770W        W 4970  11.494  11.220   0.986
  771W        W 4971   9.924   6.198   8.959
  772W        W 4972   1.143   9.535   9.018
  773W        W 4973   6.282   5.291   1.755
  774W        W 4974   7.934   9.797  11.796
  775W        W 4975   4.551   2.298  10.017
  776W        W 4976   0.404   0.326   1.936
  777W        W 4977   7.490   1.020   3.022
  778W        W 4978   7.466   1.472  10.485
  779W        W 4979   0.066   7.303   0.348
  780W        W 4980  10.697   2.956   9.420
  781W        W 4981   8.494   2.386  11.234
  782W        W 4982   5.750   3.682   2.293
  783W        W 4983   7.238   8.456  11.950
  784W        W 4984   7.799   4.239   1.585
  785W        W 4985   0.159   6.145   9.889
  786W        W 4986   4.770   4.114   9.605
  787W        W 4987   7.671   9.552   9.771
  788W        W 4988   5.573   0.289  11.545
  789W        W 4989   5.551   9.891   8.562
  790W        W 4990  11.247   2.219  10.614
  791W        W 4991   7.803   7.929   0.600
  792W        W 4992  11.060   7.010  11.947
  793W        W 4993   7.960   4.294   2.826
  794W        W 4994   6.762   8.066   0.263
  795W        W 4995  11.270   0.328   9.917
  796W        W 4996   7.564  10.588   2.627
  797W        W 4997   4.540   0.838  10.332
  798W        W 4998   7.448   5.208  11.763
  799W        W 4999   7.217   0.880   9.795
  800W        W 5000   6.629  11.344   9.063
  801W        W 5001   7.942   6.169   8.727
  802W        W 5002   4.610   3.081   0.301
  803W        W 5003   3.050   9.048  11.470
  804W        W 5004   7.545   1.704  11.078
  805W        W 5005   8.840   7.994   2.007
  806W        W 5006  11.304  10.792   0.752
  807W        W 5007   0.793   7.521  11.773
  808W        W 5008   4.734   7.495  11.316
  809W        W 5009   1.024   7.966   9.588
  810W        W 5010   9.842   6.548  11.775
  811W        W 5011   0.089  11.453  11.763
  812W        W 5012  10.539   0.333   9.268
  813W        W 5013   5.372   6.587   2.056
  814W        W 5014   2.903  10.131   1.779
  815W        W 5015   5.341   6.747  11.621
  816W        W 5016  10.234   5.663   9.421
  817W        W 5017  11.068   4.481  10.369
  818W        W 5018   6.455   3.756   8.959
  819W        W 5019   4.190   6.534   2.199
  820W        W 5020   4.025   6.697  10.025
  821W        W 5021   8.860   9.912  11.142
  822W        W 5022   8.947   1.099  11.417
  823W        W 5023   9.714   8.144   1.749
  824W        W 5024   3.769   9.516   2.269
  825W        W 5025   0.271   7.509   1.923
  826W        W 5026   4.703   9.804   8.838
  827W        W 5027   7.083   9.370  11.698
  828W        W 5028   5.437  10.344  10.320
  829W        W 5029   5.484   3.781   8.651
  830W        W 5030  10.464  11.351   9.845
  831W        W 5031  11.458   8.469  10.812
  832W        W 5032   1.300  10.892   3.031
  833W        W 5033   8.894   1.437  10.684
  834W        W 5034   7.259   0.081   9.700
  835W        W 5035  10.323   5.649   0.403
  836W        W 5036   8.631   3.720   8.175
  837W        W 5037  10.341   7.292  10.346
  838W        W 5038  10.330   2.921   9.766
  839W        W 5039   0.453   2.211  10.782
  840W        W 5040  10.921   0.068   0.794
  841W        W 5041   7.872   5.729   0.330
  842W        W 5042  10.875   0.712   9.886
  843W        W 5043   4.069   5.534  11.791
  844W        W 5044   3.741   8.930  10.095
  845W        W 5045   9.529  10.565  11.894
  846W        W 5046   4.682   0.490   0.950
  847W        W 5047   1.000   2.669   2.142
  848W        W 5048   1.969   0.442  11.053
  849W        W 5049  10.907   6.173  11.802
  850W        W 5050   9.354   5.667   0.673
  851W        W 5051   5.919   3.646   8.952
  852W        W 5052   1.637   9.364   2.121
  853W        W 5053   0.014   7.168   3.509
  854W        W 5054   8.013   7.210   2.556
  855W        W 5055   0.862   3.287  11.467
  856W        W 5056   6.565   0.292   1.991
  857W        W 5057   8.079   0.503   3.314
  858W        W 5058  10.691   9.785  11.514
  859W        W 5059   7.718   2.230   2.169
  860W        W 5060   5.107   6.995  10.447
  861W        W 5061   9.648   2.062   1.803
  862W        W 5062   6.631  11.269  10.770
  863W        W 5063   4.421   9.753   0.937
  864W        W 5064   5.931   6.616  10.413
  865W        W 5065   1.231   7.595   9.230
  866W        W 5066   1.892  10.610   9.856
  867W        W 5067  10.745   8.348   0.363
  868W        W 5068   8.870   9.964   1.049
  869W        W 5069   0.679   5.981   2.842
  870W        W 5070  10.809   9.582  10.066
  871W        W 5071  10.000  10.086   1.685
  872W        W 5072   2.645   2.196   3.690
  873W        W 5073   5.605  11.472   3.167
  874W        W 5074  11.011  11.168   8.995
  875W        W 5075   7.983   1.849   1.938
  876W        W 5076   2.972   0.664   9.552
  877W        W 5077  10.863   9.156   9.763
  878W        W 5078   4.638   1.934   2.505
  879W        W 5079   5.454   7.161  11.911
  880W        W 5080   8.575   3.223  11.295
  881W        W 5081   9.972  10.003   9.228
  882W        W 5082   0.336   6.097   9.415
  883W        W 5083   4.119   1.608  11.952
  884W        W 5084   8.489   1.730   8.908
  885W        W 5085  10.501   9.799   0.405
  886W        W 5086   4.200   7.224  10.892
  887W        W 5087   5.543   9.887   2.487
  888W        W 5088   4.981   6.901  11.938
  889W        W 5089   5.039   4.531   1.234
  890W        W 5090   4.376  11.292   2.975
  891W        W 5091   7.092   7.485   2.669
  892W        W 5092  11.156  10.248   2.350
  893W        W 5093   0.512   9.990   1.882
  894W        W 5094   0.818   0.685   9.109
  895W        W 5095   5.651   0.893  11.674
  896W        W 5096   7.848  10.395   0.279
  897W        W 5097   6.661   7.200   1.807
  898W        W 5098   9.426   7.332   1.869
  899W        W 5099   6.444   3.202   9.552
  900W        W 5100   6.198   7.000   3.061
  901W        W 5101   6.185   3.554  10.288
  902W        W 5102   3.393   9.333   0.272
  903W        W 5103   3.871   1.660  10.926
  904W        W 5104   2.008   0.458   9.523
  905W        W 5105   1.906   1.556   2.733
  906W        W 5106   5.163   6.948   9.245
  907W        W 5107  10.617   5.040  10.337
  908W        W 5108   8.954   9.316   9.334
  909W        W 5109   1.357   3.147   9.785
  910W        W 5110   3.824   3.738   2.164
  911W        W 5111   5.888   7.465   9.311
  912W        W 5112   6.767   7.814   3.219
  913W        W 5113   6.425   9.962   2.929
  914W        W 5114   0.908   3.652   9.319
  915W        W 5115   5.700  10.380  10.792
  916W        W 5116   3.529   0.798  10.467
  917W        W 5117   7.112   6.930   9.796
  918W        W 5118   9.731  11.432  10.324
  919W        W 5119   4.958   8.357   0.259
  920W        W 5120   7.056   0.492   2.699
  921W        W 5121   0.306   7.345  10.341
  922W        W 5122   3.574  10.353   2.523
  923W        W 5123   6.959   7.426   9.817
  924W        W 5124   9.057   6.443   8.389
  925W        W 5125   3.947   9.841  11.566
  926W        W 5126  10.425   7.654  11.526
  927W        W 5127   9.906   6.685  10.765
  928W        W 5128   2.838   1.391   3.345
  929W        W 5129   2.971   9.856   9.498
  930W        W 5130   7.640   6.679   0.322
  931W        W 5131   9.357  10.576   0.371
  932W        W 5132   0.243   4.607   0.808
  933W        W 5133  11.068   2.665  10.792
  934W        W 5134   1.810  10.405   2.610
  935W        W 5135   2.448   0.696   1.629
  936W        W 5136   9.814   4.161  11.914
  937W        W 5137  10.027   3.685  11.129
  938W        W 5138   1.399   7.577   3.318
  939W        W 5139   5.038   3.638  10.067
  940W        W 5140   8.660  10.509   0.899
  941W        W 5141   1.893   8.376   1.528
  942W        W 5142   9.343   2.890   1.567
  943W        W 5143   9.239   5.749   8.467
  944W        W 5144   6.771   7.569   0.789
  945W        W 5145   3.129   7.451   0.212
  946W        W 5146   4.834   9.483   3.252
  947W        W 5147   4.485   1.204  11.455
  948W        W 5148   7.616   3.340   2.451
  949W        W 5149   3.135  10.358  11.780
  950W        W 5150   6.681   8.979   9.833
  951W        W 5151   0.318   2.611   9.985
  952W        W 5152   2.319   7.198   9.041
  953W        W 5153   6.250   3.769  11.444
  954W        W 5154   0.683   7.294   2.666
  955W        W 5155   3.637   9.403   0.742
  956W        W 5156   0.517   1.712   9.061
  957W        W 5157  11.452   0.019   8.883
  958W        W 5158   6.749   9.796   0.379
  959W        W 5159   5.889   7.292  11.693
  960W        W 5160   4.950   7.982  10.662
  961W        W 5161   3.274   2.142   9.212
  962W        W 5162   3.708   1.979  11.315
  963W        W 5163   7.244   3.108  10.138
  964W        W 5164   7.729   9.553   0.241
  965W        W 5165   9.961   4.980   9.231
  966W        W 5166   4.457  11.006   0.903
  967W        W 5167   9.778   2.398  11.300
  968W        W 5168  10.811   9.425   9.107
  969W        W 5169   5.290   5.101   0.354
  970W        W 5170   9.148   5.944  10.233
  971W        W 5171   6.102   9.504   2.990
  972W        W 5172  11.291   6.526  11.885
  973W        W 5173   1.004   0.279   9.589
  974W        W 5174   1.017   0.511  10.419
  975W        W 5175   7.339   7.943  10.441
  976W        W 5176   0.221   0.784   2.849
  977W        W 5177   6.103   7.548  11.283
  978W        W 5178   4.544   4.539   1.337
  979W        W 5179  10.354  10.836   1.964
  980W        W 5180   3.077   0.830   1.223
  981W        W 5181   8.627   4.714   1.737
  982W        W 5182   4.704   7.585  10.314
  983W        W 5183   8.605   4.836  11.977
  984W        W 5184   3.220   7.390  11.711
  985W        W 5185   7.276   2.319   1.838
  986W        W 5186   8.443   2.731   3.556
  987W        W 5187   5.700  10.825   9.463
  988W        W 5188  11.378   8.653  11.630
  989W        W 5189   9.014   4.538   8.350
  990W        W 5190   9.291   0.339   1.057
  991W        W 5191   7.060   5.511  11.989
  992W        W 5192   3.897   2.178   2.916
  993W        W 5193   8.119   6.559   1.361
  994W        W 5194   3.906   6.653   8.983
  995W        W 5195   5.271  11.474   9.696
  996W        W 5196   6.914   8.611   1.319
  997W        W 5197  10.925  10.089  11.881
  998W        W 5198   1.883   5.018  10.736
  999W        W 5199   4.284   8.166   1.397
 1000W        W 5200   0.977   5.006   2.601
 1001W        W 5201  10.387   8.961  11.873
 1002W        W 5202   2.685   1.190  10.320
 1003W        W 5203   8.886   2.788   1.807
 1004W        W 5204   7.966   9.039   2.636
 1005W        W 5205   7.137   3.085  10.657
 1006W        W 5206  11.022   5.671  11.848
 1007W        W 5207   2.705   3.113   9.871
 1008W        W 5208   3.940   0.752   1.612
 1009W        W 5209   7.245   8.990  11.257
 1010W        W 5210   7.606   3.625  10.945
 1011W        W 5211   2.679   4.117   1.521
 1012W        W 5212   1.355   3.908   3.386
 1013W        W 5213  10.917  10.629   1.692
 1014W        W 5214   0.776   6.063   2.347
 1015W        W 5215  10.192   8.052   8.831
 1016W        W 5216   3.771  10.462   1.929
 1017W        W 5217  10.768   2.321   9.283
 1018W        W 5218   0.543   0.487   9.500
 1019W        W 5219   6.154  11.449   3.361
 1020W        W 5220   5.256   7.256   2.784
 1021W        W 5221   9.502  10.676   3.263
 1022W        W 5222   0.060   5.874   3.606
 1023W        W 5223   6.005   9.956   3.252
 1024W        W 5224   5.172   6.541   9.595
 1025W        W 5225   6.745  10.961  10.325
 1026W        W 5226   7.879   2.213  10.233
 1027W        W 5227   0.192  10.916   1.769
 1028W        W 5228   9.092   5.073   8.132
 1029W        W 5229   5.636   3.731   0.264
 1030W        W 5230   0.878   2.838   3.133
 1031W        W 5231   1.284   2.553  10.415
 1032W        W 5232   9.074   2.088   9.477
 1033W        W 5233   6.876   8.109  10.698
 1034W        W 5234   2.915   8.048   0.007
 1035W        W 5235   4.067   0.184   2.307
 1036W        W 5236   9.436   3.717   8.969
 1037W        W 5237  10.796   6.586   0.097
 1038W        W 5238   8.221   4.878   0.537
 1039W        W 5239   0.903  11.160   8.987
 1040W        W 5240  10.937   9.806   8.732
 1041W        W 5241   8.878   7.643   3.171
 1042W        W 5242   0.950   2.046   8.662
 1043W        W 5243   5.928   1.278   1.211
 1044W        W 5244   5.755   5.791   2.497
 1045W        W 5245   7.455   8.571   9.640
 1046W        W 5246  11.210   0.730   2.542
 1047W        W 5247   9.013   9.004  10.729
 1048W        W 5248   5.592   4.538  11.197
 1049W        W 5249   2.871   0.436   0.747
 1050W        W 5250   4.186  10.090   8.760
 1051W        W 5251   3.188   6.733  10.779
 1052W        W 5252   0.469  11.477   8.738
 1053W        W 5253   7.101   0.771   1.833
 1054W        W 5254   5.247   0.028   3.542
 1055W        W 5255   1.582   7.206  10.227
 1056W        W 5256   4.760   8.614   8.593
 1057W        W 5257   3.511   0.276   3.237
 1058W        W 5258   3.194   5.748   1.533
 1059W        W 5259   7.289   6.075   1.424
 1060W        W 5260   6.125   2.158   1.275
 1061W        W 5261   3.662   8.528   3.183
 1062W        W 5262   7.595   9.719   2.318
 1063W        W 5263   4.833   9.623  10.264
 1064W        W 5264   5.494   7.603   1.249
 1065W        W 5265   7.423   4.951   9.481
 1066W        W 5266  11.342   0.832  10.001
 1067W        W 5267   3.209   9.396   3.177
 1068W        W 5268   5.650   7.535   1.708
 1069W        W 5269   2.786   4.575  11.178
 1070W        W 5270   9.809   1.881  11.382
 1071W        W 5271   0.186   1.316   8.914
 1072W        W 5272   9.526   3.139  11.053
 1073W        W 5273   1.434   3.926  10.438
 1074W        W 5274   4.313   4.159   0.639
 1075W        W 5275   5.705  10.326   2.254
 1076W        W 5276   9.141   3.189   2.583
 1077W        W 5277   5.824  11.125   1.731
 1078W        W 5278   1.177   2.698   3.503
 1079W        W 5279  10.927  11.429  10.888
 1080W        W 5280   7.661  11.314   2.145
 1081W        W 5281   7.057   1.013   2.677
 1082W        W 5282   2.525   4.372  11.587
 1083W        W 5283   1.003   4.599  10.920
 1084W        W 5284   2.032   1.464   8.494
 1085W        W 5285   7.310   2.213  11.882
 1086W        W 5286   0.789   3.762   1.323
 1087W        W 5287   9.754   9.518   1.998
 1088W        W 5288   7.769   3.885  11.380
 1089W        W 5289   6.444   7.430   3.160
 1090W        W 5290   8.627   5.129   0.414
 1091W        W 5291   4.805   9.095   3.580
 1092W        W 5292   4.289   6.503   9.517
 1093W        W 5293   4.171   4.158   1.212
 1094W        W 5294   8.087   5.161   3.941
 1095W        W 5295   7.082   3.956   9.509
 1096W        W 5296   2.861   1.269   9.278
 1097W        W 5297   5.509   3.239   3.062
 1098W        W 5298   6.943   0.978   9.353
 1099W        W 5299   7.965   9.432   2.974
 1100W        W 5300   4.526   6.517   9.965
 1101W        W 5301   5.135   2.382   1.343
 1102W        W 5302   4.537   6.552  11.463
 1103W        W 5303   7.682   7.492   0.862
 1104W        W 5304   5.452  10.379   0.275
 1105W        W 5305  10.930   2.278  11.980
 1106W        W 5306   5.108   2.037  10.441
 1107W        W 5307   4.663   5.592  11.010
 1108W        W 5308   2.889   0.853   2.642
 1109W        W 5309   1.185   0.438   0.214
 1110W        W 5310  10.481   0.792   1.905
 1111W        W 5311   6.048   7.870  10.521
 1112W        W 5312   5.166   4.427   3.417
 1113W        W 5313   0.536   6.181   8.915
 1114W        W 5314   3.815   4.076   0.852
 1115W        W 5315   4.850   2.749   9.022
 1116W        W 5316   3.316   9.135  10.562
 1117W        W 5317   6.680   9.024  11.696
 1118W        W 5318   5.823   3.255  11.676
 1119W        W 5319   5.076   4.670   2.161
 1120W        W 5320   5.331   6.099   9.992
 1121W        W 5321   4.603   5.104  10.698
 1122W        W 5322   5.245   0.319   1.814
 1123W        W 5323   2.594  11.010   1.542
 1124W        W 5324   1.797   7.781  10.915
 1125W        W 5325   3.638   0.731   0.192
 1126W        W 5326   9.372   0.384  11.813
 1127W        W 5327   4.973   0.222   8.836
 1128W        W 5328   8.161   8.925  11.235
 1129W        W 5329   7.461   0.157  11.940
 1130W        W 5330  10.359  10.319   3.186
 1131W        W 5331   0.603   8.784   1.305
 1132W        W 5332   7.475   9.405   3.309
 1133W        W 5333   0.482   8.194   2.106
 1134W        W 5334  10.452   6.928   1.863
 1135W        W 5335   6.428   0.045  11.903
 1136W        W 5336   5.739   7.570   2.204
 1137W        W 5337   6.992   6.514  11.803
 1138W        W 5338   9.886   8.094   1.283
 1139W        W 5339   6.064   9.618   9.151
 1140W        W 5340   7.189  10.875   3.317
 1141W        W 5341   5.248  11.278   0.458
 1142W        W 5342   4.600  11.402  10.607
 1143W        W 5343  10.460   0.981   8.782
 1144W        W 5344   6.183   2.969   1.715
 1145W        W 5345  11.259   2.712   1.400
 1146W        W 5346   0.919   7.057  11.978
 1147W        W 5347   9.465  10.745   2.762
 1148W        W 5348  10.883   1.120  10.184
 1149W        W 5349   3.436   0.843   1.655
 1150W        W 5350   8.839   2.467   0.924
 1151W        W 5351   8.475  10.244   1.309
 1152W        W 5352   0.976   7.107   9.265
 1153W        W 5353   7.390   1.134   0.734
 1154W        W 5354   6.642   7.573   0.290
 1155W        W 5355   5.082   9.851  11.797
 1156W        W 5356  11.052   3.227   1.326
 1157W        W 5357   1.418   1.461  10.639
 1158W        W 5358   5.021   1.683   2.301
 1159W        W 5359   0.115   6.469   0.516
 1160W        W 5360   0.381   6.635  11.520
 1161W        W 5361   4.822   3.302  11.457
 1162W        W 5362   4.800  11.322  11.577
 1163W        W 5363   7.953   4.430   2.054
 1164W        W 5364   5.159   0.862   2.485
 1165W        W 5365   9.812   0.903   1.095
 1166W        W 5366   8.774   3.582   8.640
 1167W        W 5367   4.098   2.385   9.806
 1168W        W 5368   2.474   1.894   0.970
 1169W        W 5369   0.451  10.834   3.398
 1170W        W 5370   0.109   8.225  10.398
 1171W        W 5371   2.241   9.649   8.933
 1172W        W 5372   5.030   5.655   1.378
 1173W        W 5373   9.318   4.211   9.061
 1174W        W 5374  11.273   5.231   0.542
 1175W        W 5375   1.761   1.034   8.801
 1176W        W 5376   3.573   7.222   1.036
 1177W        W 5377   3.623   4.928   9.458
 1178W        W 5378   7.378  10.893   1.222
 1179W        W 5379   3.133   1.178  11.076
 1180W        W 5380   9.885   9.009  11.083
 1181W        W 5381   3.440   7.466   9.842
 1182W        W 5382  11.229   1.865  11.890
 1183W        W 5383  11.471   1.295   9.809
 1184W        W 5384   7.871   4.614   1.257
 1185W        W 5385   7.878  10.680  10.494
 1186W        W 5386  10.006   5.227   2.940
 1187W        W 5387   7.483   4.113  10.932
 1188W        W 5388   0.079   0.854  11.728
 1189W        W 5389   5.830   1.333  11.862
 1190W        W 5390   2.783   4.063  10.998
 1191W        W 5391   6.770   8.194  11.591
 1192W        W 5392   9.210   1.153  10.424
 1193W        W 5393   4.813   0.165   9.857
 1194W        W 5394   8.012   5.224   1.431
 1195W        W 5395   5.051  10.903   1.741
 1196W        W 5396   8.312  10.988   0.933
 1197W        W 5397  10.279   8.953   0.994
 1198W        W 5398  11.319   5.046   3.385
 1199W        W 5399   1.729   5.193   8.974
 1200W        W 5400   2.570   7.989   0.941
 1201W        W 5401   6.131   6.701   3.729
 1202W        W 5402   7.028   5.645   1.457
 1203W        W 5403   8.725   4.071   2.275
 1204W        W 5404   0.025   1.877   9.074
 1205W        W 5405   9.060   2.385   2.978
 1206W        W 5406   1.433   1.749   0.177
 1207W        W 5407   1.758   2.385   1.782
 1208W        W 5408   0.818   9.801   9.875
 1209W        W 5409   6.889   9.937  10.923
 1210W        W 5410   4.556   4.815   8.275
 1211W        W 5411   7.923   8.933  10.393
 1212W        W 5412   4.652   3.810   0.860
 1213W        W 5413   8.959   9.869  10.612
 1214W        W 5414   1.977   7.562  11.351
 1215W        W 5415   6.022   3.585   4.109
 1216W        W 5416   0.008   0.417  10.395
 1217W        W 5417   7.999  10.786  11.545
 1218W        W 5418   5.832   3.098   1.377
 1219W        W 5419   2.289   4.111  10.584
 1220W        W 5420   0.683   8.735   9.027
 1221W        W 5421   6.219   4.544   9.396
 1222W        W 5422  11.377   9.786   1.634
 1223W        W 5423   1.806  10.094  11.591
 1224W        W 5424   0.931   1.919   9.360
 1225W        W 5425   8.449   9.501   2.782
 1226W        W 5426   5.484   0.840   9.586
 1227W        W 5427   5.420   3.331   1.100
 1228W        W 5428   9.226   2.035   0.401
 1229W        W 5429   5.613   8.980   1.998
 1230W        W 5430  10.009   9.922   2.707
 1231W        W 5431   6.641   4.186   3.158
 1232W        W 5432   9.920   9.884   1.214
 1233W        W 5433   9.214   0.629  10.411
 1234W        W 5434   3.785   8.029  10.006
 1235W        W 5435   8.717   2.187   0.251
 1236W        W 5436   9.090   9.479   1.372
 1237W        W 5437   1.835   2.640  10.123
 1238W        W 5438   8.915   7.196   9.991
 1239W        W 5439   5.624   9.542   8.914
 1240W        W 5440   3.126   2.369  10.125
 1241W        W 5441   1.262   4.721   0.150
 1242W        W 5442  11.438   1.887   1.972
 1243W        W 5443   9.490   5.085   9.047
 1244W        W 5444  11.239  11.264   0.548
 1245W        W 5445   2.588  10.760   9.566
 1246W        W 5446   8.548   9.538   0.791
 1247W        W 5447   3.869   0.425   9.686
 1248W        W 5448   5.935   4.742  11.839
 1249W        W 5449   0.778   0.091   0.267
 1250W        W 5450   7.205   2.299   9.352
 1251W        W 5451   2.585   2.329   0.424
 1252W        W 5452   3.191   1.748   2.491
 1253W        W 5453  10.861   7.996  11.597
 1254W        W 5454   8.492   1.750   1.858
 1255W        W 5455   9.369   7.624   3.075
 1256W        W 5456   8.526   5.753  11.834
 1257W        W 5457   5.638   2.128  10.897
 1258W        W 5458   2.131   6.539   8.536
 1259W        W 5459  10.878   4.132   9.107
 1260W        W 5460   4.823  10.232   9.158
 1261W        W 5461   3.349   6.100  10.200
 1262W        W 5462  11.246   2.337   2.947
 1263W        W 5463   1.174   1.798  10.310
 1264W        W 5464   8.896   9.948   2.041
 1265W        W 5465   3.216   1.589   9.599
 1266W        W 5466   0.752  10.691   8.797
 1267W        W 5467  10.524   1.340  11.042
 1268W        W 5468  11.362   8.825  11.150
 1269W        W 5469   8.761   3.197   3.531
 1270W        W 5470   2.189  11.379   1.392
 1271W        W 5471   3.445  11.135   2.535
 1272W        W 5472   5.897   4.168  11.450
 1273W        W 5473   2.256   9.055   0.996
 1274W        W 5474   0.892   0.414   2.622
 1275W        W 5475   7.643  11.095   2.595
 1276W        W 5476   3.789   8.161   8.719
 1277W        W 5477   6.123   6.503   0.283
 1278W        W 5478  11.353   7.421  11.916
 1279W        W 5479   1.546   4.381   8.986
 1280W        W 5480   5.533  11.383   2.657
 1281W        W 5481  11.437   7.581   1.096
 1282W        W 5482   6.125   4.840   0.846
 1283W        W 5483   4.669   3.582  10.983
 1284W        W 5484   8.517   2.479   1.361
 1285W        W 5485   1.954  10.882  10.955
 1286W        W 5486   7.702   4.381   3.271
 1287W        W 5487   6.682   8.362   8.994
 1288W        W 5488   7.729   2.245   2.685
 1289W        W 5489   1.589   7.045  11.533
 1290W        W 5490   7.090   1.887  11.287
 1291W        W 5491   5.595   6.617   2.634
 1292W        W 5492   9.026   3.329   1.135
 1293W        W 5493   9.394   7.450   0.415
 1294W        W 5494   8.008   2.937  11.874
 1295W        W 5495   0.502   7.113  11.720
 1296W        W 5496  10.919  10.945   2.622
 1297W        W 5497   5.460   2.364   3.516
 1298W        W 5498   1.107   2.455  11.690
 1299W        W 5499   9.927   9.456   2.474
 1300W        W 5500   0.987   8.392   8.320
 1301W        W 5501   9.175   4.220   2.114
 1302W        W 5502   6.163  10.405   1.973
 1303W        W 5503   5.660   4.145   3.522
 1304W        W 5504   3.757   9.821   8.909
 1305W        W 5505  11.029  11.020  10.478
 1306W        W 5506   3.805   9.808  10.609
 1307W        W 5507   2.537   7.512   1.145
 1308W        W 5508  10.893  10.011   0.889
 1309W        W 5509   0.949   3.643   1.822
 1310W        W 5510   2.141   0.854   9.883
 1311W        W 5511   7.009   1.287   1.014
 1312W        W 5512   6.691   4.321  11.765
 1313W        W 5513  10.932   8.522   1.865
 1314W        W 5514   1.041   0.825  10.866
 1315W        W 5515   3.602  11.237  10.387
 1316W        W 5516   9.334   1.055   2.571
 1317W        W 5517   9.521   2.426   0.114
 1318W        W 5518   1.764  10.818   0.137
 1319W        W 5519  10.032   6.103  11.974
 1320W        W 5520   6.560   4.772   1.128
 1321W        W 5521   2.783   7.385   8.911
 1322W        W 5522   8.938   0.011   3.203
 1323W        W 5523  10.969   9.955   3.694
 1324W        W 5524   1.100   5.616   3.350
 1325W        W 5525   2.396   7.918   1.451
 1326W        W 5526   0.426   3.145   2.792
 1327W        W 5527   6.415   6.683   0.657
 1328W        W 5528   3.135  10.115   3.304
 1329W        W 5529   3.598   0.374   1.441
 1330W        W 5530   2.560   1.100   9.679
 1331W        W 5531   3.328   7.158   0.573
 1332W        W 5532  11.036   1.656   9.328
 1333W        W 5533   2.618   3.503  11.799
 1334W        W 5534   5.728   5.259   1.206
 1335W        W 5535   6.163   2.896  11.803
 1336W        W 5536   6.014   1.316  10.296
 1337W        W 5537   4.628   7.955  11.549
 1338W        W 5538  11.326   9.300   9.110
 1339W        W 5539  11.317   9.780   0.717
 1340W        W 5540   7.474   6.835   9.432
 1341W        W 5541   3.322  10.620   9.125
 1342W        W 5542   2.246   6.923   2.294
 1343W        W 5543   8.735   4.709  10.608
 1344W        W 5544   8.971   3.287   3.066
 1345W        W 5545   7.481   7.026   2.674
 1346W        W 5546   9.090   6.482   0.947
 1347W        W 5547   5.332   0.023   9.168
 1348W        W 5548   0.880   9.790  11.821
 1349W        W 5549  10.728  11.124   1.782
 1350W        W 5550   5.775  10.465   2.794
 1351W        W 5551   3.922   1.597   2.083
 1352W        W 5552   3.225   4.658  11.861
 1353W        W 5553   7.030   9.508   3.016
 1354W        W 5554   4.050   1.297  10.615
 1355W        W 5555   3.589  10.724  10.346
 1356W        W 5556   5.390   4.042  11.419
 1357W        W 5557   6.962   9.029   1.063
 1358W        W 5558   8.906   1.436  10.140
 1359W        W 5559   1.936   3.871  10.282
 1360W        W 5560   0.244   5.015   9.431
 1361W        W 5561   3.344   7.645  11.289
 1362W        W 5562   6.492   2.587   1.825
 1363W        W 5563   4.154  11.275   9.416
 1364W        W 5564   1.256   4.414   3.441
 1365W        W 5565   4.080   8.193   2.277
 1366W        W 5566   5.623   1.205  10.890
 1367W        W 5567   1.828   7.114   9.787
 1368W        W 5568   1.807   3.606  11.716
 1369W        W 5569   3.102   8.693   1.317
 1370W        W 5570   8.173   7.653   0.822
 1371W        W 5571   4.574   1.858   9.411
 1372W        W 5572   7.726   1.465   2.191
 1373W        W 5573   7.648   1.410   9.244
 1374W        W 5574   9.348   0.369   8.207
 1375W        W 5575   3.397   2.547   3.519
 1376W        W 5576   2.953   9.635   1.661
 1377W        W 5577   1.293   0.285  10.049
 1378W        W 5578   3.989   4.057  10.559
 1379W        W 5579   2.177   5.312   1.136
 1380W        W 5580   5.101   3.600   3.931
 1381W        W 5581   3.744   8.795  11.114
 1382W        W 5582   7.109   8.926   9.540
 1383W        W 5583   9.053  10.341   9.288
 1384W        W 5584   6.607   1.395   3.360
 1385W        W 5585   2.146  10.021   3.164
 1386W        W 5586   4.160   6.213  10.773
 1387W        W 5587   4.149   9.360   0.761
 1388W        W 5588   4.567   0.066   2.316
 1389W        W 5589   1.433   1.134  11.041
 1390W        W 5590   2.684  11.135  11.749
 1391W        W 5591   8.479   1.000   1.113
 1392W        W 5592   5.084   3.273  10.964
 1393W        W 5593   9.336   0.787   2.994
 1394W        W 5594   3.239   2.679   2.753
 1395W        W 5595  11.232   2.187   3.442
 1396W        W 5596   8.540   9.593   3.616
 1397W        W 5597   5.991   7.290   8.607
 1398W        W 5598   3.085   2.365   0.468
 1399W        W 5599   3.612  10.602  11.747
 1400W        W 5600   2.343   4.139   0.871
 1401W        W 5601   8.438   0.747  10.711
 1402W        W 5602  10.293  10.488   9.733
 1403W        W 5603   2.743   7.858   0.457
 1404W        W 5604   8.436   8.830   8.559
 1405W        W 5605   8.192   5.993   8.290
 1406W        W 5606   5.706  10.294   1.730
 1407W        W 5607   6.602   8.091   0.726
 1408W        W 5608   5.658   2.340   8.672
 1409W        W 5609   3.490   1.928   2.125
 1410W        W 5610   3.313   5.717  10.548
 1411W        W 5611  11.321   2.724   3.481
 1412W        W 5612   6.026   2.820   3.653
 1413W        W 5613   6.195  10.543   1.494
 1414W        W 5614   9.676   1.456  11.116
 1415W        W 5615  10.433   0.710   0.468
 1416W        W 5616   2.579   5.657   2.612
 1417W        W 5617   6.083   8.858   2.774
 1418W        W 5618   5.584   8.637   9.914
 1419W        W 5619  10.991   9.913   0.361
 1420W        W 5620   6.537   4.374   8.963
 1421W        W 5621   8.685   8.101   0.063
 1422W        W 5622   7.435   4.324  10.311
 1423W        W 5623   4.642   5.635  10.499
 1424W        W 5624   8.822   4.812   0.804
 1425W        W 5625   4.924   9.630   3.716
 1426W        W 5626   2.391   7.059   1.432
 1427W        W 5627   9.947   2.837  11.102
 1428W        W 5628   1.369   1.643   9.327
 1429W        W 5629   9.697   9.184   0.416
 1430W        W 5630  10.425   1.664   0.226
 1431W        W 5631   4.183   4.692   9.360
 1432W        W 5632   2.221   6.390   9.404
 1433W        W 5633   9.555   6.539   9.080
 1434W        W 5634   7.714   9.410  10.274
 1435W        W 5635   2.405   8.159   1.898
 1436W        W 5636   8.095   8.613   8.916
 1437W        W 5637   9.719   2.079   0.727
 1438W        W 5638   8.980   7.510  11.501
 1439W        W 5639   8.475   4.750   2.672
 1440W        W 5640   8.602   6.488   9.665
 1441W        W 5641   1.690  10.976   1.865
 1442W        W 5642   8.147   6.418   9.457
 1443W        W 5643  11.336   6.030   3.163
 1444W        W 5644   8.037   0.274  11.330
 1445W        W 5645   7.573   7.168   0.486
 1446W        W 5646   0.318   5.843   2.263
 1447W        W 5647   5.213  10.809  10.256
 1448W        W 5648   7.355   7.834   2.347
 1449W        W 5649   6.041   2.021   8.866
 1450W        W 5650   6.340   6.089  10.117
 1451W        W 5651   8.686   4.073   3.343
 1452W        W 5652   5.606   9.300  11.317
 1453W        W 5653   7.261   9.751   0.043
 1454W        W 5654   8.667   3.715   0.422
 1455W        W 5655   8.878  11.185  11.911
 1456W        W 5656   4.967  11.168   0.892
 1457W        W 5657   4.882   3.264   9.174
 1458W        W 5658   1.926   4.735   8.891
 1459W        W 5659   5.437   6.604  10.354
 1460W        W 5660   1.250   1.242   0.045
 1461W        W 5661   6.225   8.010   0.246
 1462W        W 5662   9.772   8.629   0.579
 1463W        W 5663  10.770   2.797   1.208
 1464W        W 5664   0.298  10.353  11.312
 1465W        W 5665   6.014   0.878   0.043
 1466W        W 5666   1.373   9.094  11.638
 1467W        W 5667   2.293   1.450  10.604
 1468W        W 5668   2.094   9.358   9.361
 1469W        W 5669   5.272   9.258   3.269
 1470W        W 5670   6.512   9.501   2.255
 1471W        W 5671   5.977   5.511  10.354
 1472W        W 5672   8.453   3.066   3.098
 1473W        W 5673   3.913   0.425  10.933
 1474W        W 5674   7.252   5.071   9.967
 1475W        W 5675   7.588   5.891  11.216
 1476W        W 5676   2.949   1.259   0.430
 1477W        W 5677   8.423   9.754   1.262
 1478W        W 5678  10.698   5.268  11.771
 1479W        W 5679   3.176   4.589   3.473
 1480W        W 5680   0.576   0.802  11.745
 1481W        W 5681   8.593   6.950  10.286
 1482W        W 5682   0.674   8.150  10.043
 1483W        W 5683   0.363   0.754  11.277
 1484W        W 5684   5.945   9.003   1.017
 1485W        W 5685   4.749   0.487   1.813
 1486W        W 5686   2.845   0.447   8.946
 1487W        W 5687   7.798   3.080   2.871
 1488W        W 5688   9.093   3.341   9.447
 1489W        W 5689   2.815   4.232   3.485
 1490W        W 5690   1.738   2.698  10.630
 1491W        W 5691  10.886   9.914   9.246
 1492W        W 5692   0.287   7.630  10.841
 1493W        W 5693   9.145   6.232   2.291
 1494W        W 5694   7.481   5.744  11.725
 1495W        W 5695   5.943   5.183  11.386
 1496W        W 5696   1.456   6.193   1.657
 1497W        W 5697   1.900   6.142   1.403
 1498W        W 5698  10.943   4.068   0.602
 1499W        W 5699   9.457   5.943   9.767
 1500W        W 5700   2.574   5.255  11.814
 1501W        W 5701   7.916   1.355   3.152
 1502W        W 5702   2.387   0.977  11.997
 1503W        W 5703   6.124   1.260  10.795
 1504W        W 5704   5.249   1.550  10.597
 1505W        W 5705   0.057   0.332   9.489
 1506W        W 5706   0.385   8.431   0.974
 1507W        W 5707   2.072   4.038  11.401
 1508W        W 5708   2.873   0.323   9.924
 1509W        W 5709   0.278   5.580   2.715
 1510W        W 5710   6.461   2.073  11.864
 1511W        W 5711   4.255   2.553  11.878
 1512W        W 5712   3.566   2.079  10.003
 1513W        W 5713   1.022   2.067   0.077
 1514W        W 5714   6.571   8.142   9.487
 1515W        W 5715   0.126  10.426   2.415
 1516W        W 5716   1.305   3.994   1.954
 1517W        W 5717   4.341  10.978   9.013
 1518W        W 5718  10.952   6.721   9.744
 1519W        W 5719   1.650  10.365   3.558
 1520W        W 5720   2.505   5.785  10.000
 1521W        W 5721   4.917   2.341   3.420
 1522W        W 5722   3.286   5.013  10.056
 1523W        W 5723   2.107   4.583  11.400
 1524W        W 5724  11.332   3.318  10.578
 1525W        W 5725   1.675   7.473   1.723
 1526W        W 5726   6.581   0.765   8.897
 1527W        W 5727   7.822   9.872  11.305
 1528W        W 5728  10.665   4.291  11.771
 1529W        W 5729   6.816   1.002  11.516
 1530W        W 5730   3.178   9.756   0.471
 1531W        W 5731   3.741   2.780   1.167
 1532W        W 5732   7.357   5.596  10.819
 1533W        W 5733   7.156   4.863  11.171
 1534W        W 5734   8.523   8.652   4.063
 1535W        W 5735   7.975   5.722  10.049
 1536W        W 5736  10.541   5.988   2.758
 1537W        W 5737   6.461   4.727  10.186
 1538W        W 5738   2.504   0.535   8.563
 1539W        W 5739   3.313   2.742  10.438
 1540W        W 5740   5.692   1.814   8.534
 1541W        W 5741   5.823   6.116   1.320
 1542W        W 5742   1.858   7.470   9.025
 1543W        W 5743   9.971   9.845  11.721
 1544W        W 5744   1.480   3.290   2.722
 1545W        W 5745   7.749   0.075   0.369
 1546W        W 5746   8.495  11.422   2.121
 1547W        W 5747   5.187   3.929   3.552
 1548W        W 5748   3.791   8.504   0.722
 1549W        W 5749   7.944   1.450   2.660
 1550W        W 5750   3.735   0.723   0.743
 1551W        W 5751   8.036   8.459   2.362
 1552W        W 5752  10.485   2.301   2.981
 1553W        W 5753   2.213   8.111   9.939
 1554W        W 5754  10.978   7.195  10.989
 1555W        W 5755   4.559   3.518   8.644
 1556W        W 5756   5.044   3.565   8.790
 1557W        W 5757   3.847   1.255   1.689
 1558W        W 5758  11.052   0.402   2.915
 1559W        W 5759  10.562   5.209   2.250
 1560W        W 5760   7.192   5.264  10.444
 1561W        W 5761   4.801   3.568   2.439
 1562W        W 5762   8.925   1.999   8.984
 1563W        W 5763   8.627   3.331   0.786
 1564W        W 5764   5.700   2.718   0.015
 1565W        W 5765   4.581  10.771   9.438
 1566W        W 5766   0.832   4.709  10.449
 1567W        W 5767   2.833   1.352   2.830
 1568W        W 5768   5.288   5.085   1.971
 1569W        W 5769   3.293   7.481   8.982
 1570W        W 5770   5.543   2.685   1.432
 1571W        W 5771   4.247   0.749   9.073
 1572W        W 5772   5.533   4.962  10.881
 1573W        W 5773  10.350   4.763  10.720
 1574W        W 5774  10.889   9.828   2.183
 1575W        W 5775   7.942   6.556   2.293
 1576W        W 5776   0.363   5.655   1.053
 1577W        W 5777   8.603   0.742   9.876
 1578W        W 5778  10.506   2.394  11.044
 1579W        W 5779   8.006   7.893   1.791
 1580W        W 5780   5.542   3.819   1.098
 1581W        W 5781   9.110   8.397   0.033
 1582W        W 5782   9.704   5.075  10.022
 1583W        W 5783   9.929   9.120   9.590
 1584W        W 5784  11.290   7.212   0.776
 1585W        W 5785   4.671  10.694  11.032
 1586W        W 5786   9.520  10.086   0.353
 1587W        W 5787   0.720   0.639   0.221
 1588W        W 5788   2.783   6.642   1.795
 1589W        W 5789   3.173   0.432  10.516
 1590W        W 5790   4.812   5.133   0.520
 1591W        W 5791   0.805   4.528   9.897
 1592W        W 5792   1.526   1.875   1.136
 1593W        W 5793   3.976   2.639   9.081
 1594W        W 5794   4.425   6.636   9.052
 1595W        W 5795   9.486   0.086   9.906
 1596W        W 5796  10.571   8.548   0.818
 1597W        W 5797  10.802   2.703   0.707
 1598W        W 5798   0.869  11.077   3.265
 1599W        W 5799   9.012  11.351   2.220
 1600W        W 5800  10.414   3.823  10.846
 1601W        W 5801   1.724   7.261  10.715
 1602W        W 5802   0.856  11.387   2.447
 1603W        W 5803   4.019   1.080   1.213
 1604W        W 5804   0.110   4.594   9.183
 1605W        W 5805  11.381  10.841   1.322
 1606W        W 5806   1.287   8.642  11.384
 1607W        W 5807   1.835   3.410   8.877
 1608W        W 5808   4.346   2.279  10.497
 1609W        W 5809   0.669   3.283   3.193
 1610W        W 5810   2.980   9.526   2.733
 1611W        W 5811   7.604   7.202  11.970
 1612W        W 5812   1.645   0.171  10.749
 1613W        W 5813   7.400   9.835  11.557
 1614W        W 5814  11.396   4.547  11.482
 1615W        W 5815  11.049   2.035   8.960
 1616W        W 5816   8.589   6.454  10.214
 1617W        W 5817   0.261  11.003  11.947
 1618W        W 5818   2.702   6.371   3.958
 1619W        W 5819   4.626   7.048  11.586
 1620W        W 5820   9.848   1.222   1.683
 1621W        W 5821   5.216   1.331   2.778
 1622W        W 5822   1.712   4.893   1.857
 1623W        W 5823   3.767   9.878   2.643
 1624W        W 5824   8.848   2.825   2.321
 1625W        W 5825   4.473   8.212   9.050
 1626W        W 5826   6.728   3.594   9.431
 1627W        W 5827   9.825   6.979   9.072
 1628W        W 5828   4.423   2.770   9.275
 1629W        W 5829   8.630   8.880   2.455
 1630W        W 5830   2.210   0.979  10.360
 1631W        W 5831   2.526   4.505   0.550
 1632W        W 5832   6.069   7.941   9.528
 1633W        W 5833   1.539   1.312   2.253
 1634W        W 5834   4.327   1.458   1.756
 1635W        W 5835   1.472   8.660   1.509
 1636W        W 5836   2.893   2.352  11.604
 1637W        W 5837   8.379   1.386   3.392
 1638W        W 5838   5.006   7.238   9.635
 1639W        W 5839   2.537   3.544   2.594
 1640W        W 5840  10.324   7.941   0.421
 1641W        W 5841   3.833   5.968   0.459
 1642W        W 5842   3.807   0.921  10.885
 1643W        W 5843   5.435   3.309   1.612
 1644W        W 5844   7.274   3.810  11.343
 1645W        W 5845   3.589   0.873   3.372
 1646W        W 5846   2.195   1.767  11.021
 1647W        W 5847   2.238   5.222   0.194
 1648W        W 5848   0.022   4.232  10.250
 1649W        W 5849   2.817   5.054   2.552
 1650W        W 5850   7.932   5.053   9.535
 1651W        W 5851   2.879   9.859   0.879
 1652W        W 5852   4.035   9.839   0.065
 1653W        W 5853   9.083   3.949  11.259
 1654W        W 5854  10.763  10.764   9.150
 1655W        W 5855  11.494   0.051   3.567
 1656W        W 5856   0.536   7.485   0.227
 1657W        W 5857   4.710   2.101  10.794
 1658W        W 5858   8.088   3.173   1.173
 1659W        W 5859   9.160   6.253   2.815
 1660W        W 5860   1.637   8.338   8.826
 1661W        W 5861  10.908   5.755   9.983
 1662W        W 5862   5.528   0.266   0.461
 1663W        W 5863   2.208   8.150   2.791
 1664W        W 5864   0.394  11.260   3.712
 1665W        W 5865   1.092   2.245   2.385
 1666W        W 5866   8.033   7.544   2.151
 1667W        W 5867   9.092   1.998   2.641
 1668W        W 5868   2.327   5.576  11.433
 1669W        W 5869   6.306   8.310  10.335
 1670W        W 5870   8.087   7.998  11.577
 1671W        W 5871   0.335   4.208   3.394
 1672W        W 5872  11.467   5.203   2.805
 1673W        W 5873   2.929  10.195   0.439
 1674W        W 5874   6.099   3.017   2.369
 1675W        W 5875   2.030   4.809   2.733
 1676W        W 5876   9.021  11.164  11.273
 1677W        W 5877   4.750   9.903   2.979
 1678W        W 5878   8.357   7.624  10.743
 1679W        W 5879   4.744   9.387   9.751
 1680W        W 5880   8.097   0.665  11.658
 1681W        W 5881   1.672   9.549   9.636
 1682W        W 5882   7.562   2.002   3.469
 1683W        W 5883   8.939   1.454   8.826
 1684W        W 5884   1.981   7.636   9.917
 1685W        W 5885   0.031  10.931  10.654
 1686W        W 5886   0.216   0.265  11.008
 1687W        W 5887   4.338  10.450   9.099
 1688W        W 5888   6.615   4.386   8.440
 1689W        W 5889   8.612  11.396  11.461
 1690W        W 5890   4.696   2.060   8.466
 1691W        W 5891   9.428   4.138   3.132
 1692W        W 5892   9.020   8.778   9.390
 1693W        W 5893   2.089   7.201   1.876
 1694W        W 5894   9.561   2.618  10.863
 1695W        W 5895   3.269   2.912   1.347
 1696W        W 5896   7.071   1.817   9.461
 1697W        W 5897   3.552   3.847  11.814
 1698W        W 5898  11.103   4.987  10.484
 1699W        W 5899   8.973   9.076   3.444
 1700W        W 5900  11.208   9.300   2.502
 1701W        W 5901   4.314   2.450   3.205
 1702W        W 5902   0.305   7.529   0.737
 1703W        W 5903   3.052   6.168   9.356
 1704W        W 5904   1.321   0.317  11.734
 1705W        W 5905  10.472   9.378   1.270
 1706W        W 5906   9.017   3.775  10.787
 1707W        W 5907   6.004   2.311  10.099
 1708W        W 5908  11.273   3.305  10.073
 1709W        W 5909   8.817   7.108   2.573
 1710W        W 5910   8.356   9.875  11.308
 1711W        W 5911   2.751  11.383   0.707
 1712W        W 5912   7.520   2.709   2.669
 1713W        W 5913  10.468   9.526   8.736
 1714W        W 5914   4.642   8.618   3.333
 1715W        W 5915   0.436   1.943   3.383
 1716W        W 5916   2.357   2.838   1.324
 1717W        W 5917   6.068   9.350  11.063
 1718W        W 5918   7.330   7.814   1.451
 1719W        W 5919   6.135   0.516   8.751
 1720W        W 5920   6.464  10.883   8.826
 1721W        W 5921   7.949   0.470   8.842
 1722W        W 5922   7.127   7.254   9.367
 1723W        W 5923   5.954   7.563   0.243
 1724W        W 5924   1.720   7.407   2.987
 1725W        W 5925  10.463   3.139   2.376
 1726W        W 5926   1.373   9.718   3.818
 1727W        W 5927  10.679   6.966   1.389
 1728W        W 5928   8.372   6.868   9.340
 1729W        W 5929   7.086  10.033   9.089
 1730W        W 5930   4.429   8.147   3.230
 1731W        W 5931   4.577   7.096  10.510
 1732W        W 5932   2.865   9.405  10.913
 1733W        W 5933   3.070   9.989  11.046
 1734W        W 5934   8.140   6.672  10.412
 1735W        W 5935  11.288   1.408   1.816
 1736W        W 5936   4.219   7.660   3.120
 1737W        W 5937   2.146   7.132   0.983
 1738W        W 5938   0.326   1.317   9.411
 1739W        W 5939  11.041  11.247   1.281
 1740W        W 5940   4.479   5.275   0.968
 1741W        W 5941   5.232   7.848   1.626
 1742W        W 5942   9.741   5.446   9.363
 1743W        W 5943   9.125   4.882   8.715
 1744W        W 5944  11.321   5.463  10.390
 1745W        W 5945  10.719   0.574   2.517
 1746W        W 5946   8.258   1.497   2.235
 1747W        W 5947   9.633   7.139  11.811
 1748W        W 5948   1.769   0.571  11.511
 1749W        W 5949   8.548   0.434   2.243
 1750W        W 5950  10.927   7.213   3.142
 1751W        W 5951  10.812   9.098   2.755
 1752W        W 5952   1.726   2.678  11.150
 1753W        W 5953   2.599   7.222   2.799
 1754W        W 5954   6.495   0.165   0.968
 1755W        W 5955   8.606   1.054   1.613
 1756W        W 5956   7.083   8.905  10.765
 1757W        W 5957   9.000   7.434   9.087
 1758W        W 5958   4.880   3.225   3.654
 1759W        W 5959   0.370   8.592  11.847
 1760W        W 5960   5.627   2.758   2.362
 1761W        W 5961  11.422   5.964   0.552
 1762W        W 5962   1.438   2.687   2.503
 1763W        W 5963   1.478   7.142   8.544
 1764W        W 5964   7.207   3.334  11.106
 1765W        W 5965  10.834   7.470  11.807
 1766W        W 5966   6.673   0.546   0.674
 1767W        W 5967   4.358   2.060  11.929
 1768W        W 5968  10.099   6.850  10.325
 1769W        W 5969   1.763  11.287  11.937
 1770W        W 5970   2.219   5.659   0.472
 1771W        W 5971   3.094  11.428  10.130
 1772W        W 5972   3.182   6.474   1.168
 1773W        W 5973  10.879   3.840   3.109
 1774W        W 5974   3.676   9.807   0.411
 1775W        W 5975   3.334   3.762   2.045
 1776W        W 5976   3.396  11.166  11.536
 1777W        W 5977   3.362   4.245   1.792
 1778W        W 5978   3.607   4.810   0.164
 1779W        W 5979   2.965   4.245   0.439
 1780W        W 5980   2.452  11.435   1.853
 1781W        W 5981   8.371   3.124   2.197
 1782W        W 5982   6.265  10.920   1.840
 1783W        W 5983   3.265  11.039   2.048
 1784W        W 5984   0.879   3.215   9.980
 1785W        W 5985   7.997  10.480  10.040
 1786W        W 5986   7.410   8.992  10.378
 1787W        W 5987   8.158   5.167   2.728
 1788W        W 5988   5.697  10.332   9.375
 1789W        W 5989   6.642   7.300   9.177
 1790W        W 5990   2.090   5.624   2.437
 1791W        W 5991   5.429   5.139  11.350
 1792W        W 5992   6.264   0.857   1.413
 1793W        W 5993   7.861   4.549   0.711
 1794W        W 5994   4.131   5.140  10.037
 1795W        W 5995   6.184   3.305  11.235
 1796W        W 5996  10.415   0.258   2.240
 1797W        W 5997   4.254  10.581   0.541
 1798W        W 5998   2.820   5.058   9.873
 1799W        W 5999   7.657   7.595   2.749
 1800W        W 6000   0.506   1.493  10.818
 1801W        W 6001   2.481   9.838   9.334
 1802W        W 6002   9.072   0.380   9.952
 1803W        W 6003   8.959  10.508  10.314
 1804W        W 6004   9.405   1.498   9.596
 1805W        W 6005  11.286   0.978   8.860
 1806W        W 6006   8.569   3.315   9.425
 1807W        W 6007   0.269   5.775  11.328
 1808W        W 6008   4.338   8.337  10.054
 1809W        W 6009   1.535   7.802  11.468
 1810W        W 6010   6.876   3.310   0.478
 1811W        W 6011   8.060   0.649   1.010
 1812W        W 6012   9.937  10.989   9.454
 1813W        W 6013   2.839   3.927   1.984
 1814W        W 6014   5.474   5.289   0.774
 1815W        W 6015   9.517   7.056   4.266
 1816W        W 6016   8.120  10.572   9.184
 1817W        W 6017   5.608   5.726  11.975
 1818W        W 6018  10.012   9.996   0.215
 1819W        W 6019   3.738  11.315   2.172
 1820W        W 6020   3.773   1.228  11.967
 1821W        W 6021   6.309   4.330   1.751
 1822W        W 6022   1.917   2.628   2.270
 1823W        W 6023   3.725   0.197   0.800
 1824W        W 6024  11.472   2.140   0.309
 1825W        W 6025   0.804   9.580   0.316
 1826W        W 6026   9.345   5.511  10.470
 1827W        W 6027   4.245   9.603   1.483
 1828W        W 6028   7.895   4.942  11.881
 1829W        W 6029   7.761   8.640   1.282
 1830W        W 6030   0.394   5.223   2.326
 1831W        W 6031   5.032   0.989   9.422
 1832W        W 6032   2.091   7.464   1.393
 1833W        W 6033   5.109   8.481   3.456
 1834W        W 6034   0.578   8.379  10.512
 1835W        W 6035   6.110   4.049  10.137
 1836W        W 6036  10.003   4.626  11.076
 1837W        W 6037   5.995   3.284   0.929
 1838W        W 6038   7.608  10.479   0.725
 1839W        W 6039   5.299   6.960   0.353
 1840W        W 6040   6.024   2.384  11.753
 1841W        W 6041   4.674   4.789  11.561
 1842W        W 6042   1.565   0.834  11.915
 1843W        W 6043   3.613   5.091  11.288
 1844W        W 6044   5.418   5.723   9.179
 1845W        W 6045  10.236   0.383  11.025
 1846W        W 6046   6.287   6.544   3.255
 1847W        W 6047   6.486   5.557  11.019
 1848W        W 6048   8.007   0.566   2.432
 1849W        W 6049   8.692   2.433   9.373
 1850W        W 6050  11.285   7.027  10.253
 1851W        W 6051   9.541   3.271   1.300
 1852W        W 6052   9.099   6.020   4.077
 1853W        W 6053  11.388  10.372   1.533
 1854W        W 6054   7.165   6.860   0.422
 1855W        W 6055   1.947   5.530  10.813
 1856W        W 6056   8.679   3.240  10.779
 1857W        W 6057   9.080   3.705   2.478
 1858W        W 6058   4.114   0.350  11.462
 1859W        W 6059   3.352   2.380   1.318
 1860W        W 6060   0.398   4.183   2.026
 1861W        W 6061   5.207   6.678   1.583
 1862W        W 6062   6.748   6.776   1.528
 1863W        W 6063  10.087   8.164   0.802
 1864W        W 6064   3.117   1.233   8.819
 1865W        W 6065   4.528   9.465   8.477
 1866W        W 6066   6.153   2.191   0.263
 1867W        W 6067  10.735   0.422  10.942
 1868W        W 6068   8.593   9.978   8.851
 1869W        W 6069   1.174   5.248   9.040
 1870W        W 6070   3.718   9.312   8.962
 1871W        W 6071   5.020  11.278   0.018
 1872W        W 6072  10.323   3.095   0.026
 1873W        W 6073   6.884   2.237  11.627
 1874W        W 6074   2.287   1.267  11.176
 1875W        W 6075   7.133   2.700  11.744
 1876W        W 6076   4.159   3.328   0.377
 1877W        W 6077   4.485   3.516   1.251
 1878W        W 6078   5.314   2.092   3.113
 1879W        W 6079   3.508   2.850   9.463
 1880W        W 6080   9.633   6.236   1.885
 1881W        W 6081   3.107   8.778   8.697
 1882W        W 6082   2.712   9.439  11.444
 1883W        W 6083  10.298  10.048  10.468
 1884W        W 6084   0.308   6.731  11.007
 1885W        W 6085   2.360   9.884   0.880
 1886W        W 6086  10.081   9.522   0.399
 1887W        W 6087   0.357   2.318   0.624
 1888W        W 6088   1.936   0.153   0.409
 1889W        W 6089   9.461   9.413   2.635
 1890W        W 6090  11.413   6.615   9.967
 1891W        W 6091   3.098   8.385   2.380
 1892W        W 6092   3.106   8.488  11.837
 1893W        W 6093   5.631   1.672   0.229
 1894W        W 6094   3.025   4.944   3.849
 1895W        W 6095   4.731   6.121  10.269
 1896W        W 6096   1.634   6.781  10.577
 1897W        W 6097   2.285   6.227   1.726
 1898W        W 6098   1.185   3.690   2.952
 1899W        W 6099   4.319   3.162  11.489
 1900W        W 6100   7.436   6.144   8.645
 1901W        W 6101   9.923  10.932  10.376
 1902W        W 6102   5.875   7.080   3.445
 1903W        W 6103   2.310   8.605   1.686
 1904W        W 6104   1.855   6.095   2.464
 1905W        W 6105   1.323   0.957   1.498
 1906W        W 6106   6.974   4.254  11.333
 1907W        W 6107   6.122   1.297   2.615
 1908W        W 6108   8.612   5.340   1.477
 1909W        W 6109   5.811   3.823  10.526
 1910W        W 6110   3.190   0.717  11.459
 1911W        W 6111   4.710   3.696   3.480
 1912W        W 6112   5.904   4.587   3.429
 1913W        W 6113   0.436   1.442   1.226
 1914W        W 6114   9.522  10.058  11.813
 1915W        W 6115   2.781   8.111  10.792
 1916W        W 6116   2.247   3.507  11.435
 1917W        W 6117   3.633   5.242  11.828
 1918W        W 6118   2.490   4.731  10.104
 1919W        W 6119   7.989   9.583   3.468
 1920W        W 6120   1.114   2.222  10.030
 1921W        W 6121   1.632   9.421   9.137
 1922W        W 6122   7.187   4.209   3.258
 1923W        W 6123   2.260   1.465   9.469
 1924W        W 6124   7.348  11.337   3.045
 1925W        W 6125   3.248   5.256   9.615
 1926W        W 6126   2.504   7.698   9.882
 1927W        W 6127   1.404   8.317   2.797
 1928W        W 6128   2.024   5.621   9.976
 1929W        W 6129   2.373   2.327   1.222
 1930W        W 6130   2.183   6.661   9.919
 1931W        W 6131   0.748   9.967  10.522
 1932W        W 6132   4.696   7.963   2.385
 1933W        W 6133   2.094   6.162  10.019
 1934W        W 6134  10.739   5.890   9.422
 1935W        W 6135   0.236   8.368   3.453
 1936W        W 6136   1.432   2.315   1.379
 1937W        W 6137   3.079   5.080   3.354
 1938W        W 6138   0.684   8.602   2.737
 1939W        W 6139   1.396   4.872   1.437
 1940W        W 6140   9.077   8.471   8.976
 1941W        W 6141   3.189   4.011   3.241
 1942W        W 6142   5.624   8.113   4.043
 1943W        W 6143  10.054   4.545   8.923
 1944W        W 6144   8.156   9.755   9.560
 1945W        W 6145  10.760  11.387   9.418
 1946W        W 6146   0.320   6.580   1.628
 1947W        W 6147   7.389   2.185   9.871
 1948W        W 6148   9.527   9.152   8.463
 1949W        W 6149   8.107   5.231   9.987
 1950W        W 6150   3.947   9.470   2.891
 1951W        W 6151   0.365   6.551   0.964
 1952W        W 6152  10.907   9.013   3.248
 1953W        W 6153   0.427   2.762   8.894
 1954W        W 6154   3.296  11.440   0.391
 1955W        W 6155   0.770   5.869  11.277
 1956W        W 6156   6.458   8.459   0.416
 1957W        W 6157   6.448   1.722   2.563
 1958W        W 6158   6.596   2.747  11.098
 1959W        W 6159   2.823   8.432  10.400
 1960W        W 6160   6.029   5.523   2.150
 1961W        W 6161   0.937   2.201  10.531
 1962W        W 6162   4.772  10.411   2.996
 1963W        W 6163   4.672   9.375   0.683
 1964W        W 6164   8.904  10.403   9.778
 1965W        W 6165   2.020   2.148   2.472
 1966W        W 6166   8.660  10.747  10.784
 1967W        W 6167   1.260   0.471   1.357
 1968W        W 6168   5.653   0.939   3.257
 1969W        W 6169   8.394  10.304   2.118
 1970W        W 6170   4.386   1.344   0.363
 1971W        W 6171   0.399   1.266   2.969
 1972W        W 6172   1.224   5.813   8.507
 1973W        W 6173   4.171   3.684   0.733
 1974W        W 6174   7.463   5.088   8.965
 1975W        W 6175   4.752   4.420  11.906
 1976W        W 6176   2.680   3.513  10.882
 1977W        W 6177   3.175   9.556  11.293
 1978W        W 6178   5.645   8.501   1.250
 1979W        W 6179  10.577   0.035  11.774
 1980W        W 6180   9.005   4.422   3.127
 1981W        W 6181  11.114   4.594   9.059
 1982W        W 6182  11.114   0.542   0.890
 1983W        W 6183   1.509   0.633  10.942
 1984W        W 6184   2.768   5.384  10.276
 1985W        W 6185   3.116   5.108   1.137
 1986W        W 6186   8.240   5.246   1.877
 1987W        W 6187   9.825   0.943   3.483
 1988W        W 6188   1.890   7.991   9.109
 1989W        W 6189   2.215   4.335  11.991
 1990W        W 6190   2.827   2.268   0.907
 1991W        W 6191   4.368   9.508  10.087
 1992W        W 6192   8.536   9.868   2.384
 1993W        W 6193   0.061  10.431   1.021
 1994W        W 6194   5.169   7.668  11.071
 1995W        W 6195   1.874   1.374  10.880
 1996W        W 6196   4.127   3.145   1.402
 1997W        W 6197   7.267   9.266   0.172
 1998W        W 6198   6.745   1.394   9.583
 1999W        W 6199  10.199   1.801  11.736
 2000W        W 6200  10.498  10.933   9.554
 2001W        W 6201   1.872   1.367  10.351
 2002W        W 6202   4.757   6.719   0.397
 2003W        W 6203   0.248   6.969   0.699
 2004W        W 6204  11.277   4.572   2.388
 2005W        W 6205  10.058   8.113   2.154
 2006W        W 6206   3.348   5.128   2.349
 2007W        W 6207  10.092   8.722   1.520
 2008W        W 6208   5.645  10.952   2.942
 2009W        W 6209  10.995  11.411   2.795
 2010W        W 6210  10.885  10.293   1.324
 2011W        W 6211   5.018  10.961  11.296
 2012W        W 6212   8.164   8.951   1.303
 2013W        W 6213   8.699   8.143   9.133
 2014W        W 6214   6.054   8.204   1.215
 2015W        W 6215   8.849   3.785   0.923
 2016W        W 6216   2.294   3.806  11.004
 2017W        W 6217   9.793   2.560   1.812
 2018W        W 6218   1.180   4.751   3.061
 2019W        W 6219   4.252   4.585   0.911
 2020W        W 6220   7.113  10.954   0.202
 2021W        W 6221   8.996  11.351   9.990
 2022W        W 6222  11.325   2.357   9.934
 2023W        W 6223   7.232   4.112   1.547
 2024W        W 6224   1.224   6.946   9.994
 2025W        W 6225   3.247   8.986   2.851
 2026W        W 6226   2.430   0.181   0.967
 2027W        W 6227   3.757   5.741   1.946
 2028W        W 6228  10.003   3.613   9.076
 2029W        W 6229   6.084   0.869   1.928
 2030W        W 6230  10.017   3.672  10.024
 2031W        W 6231   8.446  10.037   0.793
 2032W        W 6232   4.817   2.081   0.158
 2033W        W 6233   6.682   8.651   9.422
 2034W        W 6234   1.701   8.861   0.283
 2035W        W 6235   4.398   5.884   2.502
 2036W        W 6236  10.851   1.199   9.082
 2037W        W 6237  11.035   7.385   0.314
 2038W        W 6238  11.116   5.551   9.542
 2039W        W 6239   9.086   7.941  11.235
 2040W        W 6240   5.810   4.868   9.576
 2041W        W 6241   5.744   3.839   9.391
 2042W        W 6242   0.256   5.548   0.556
 2043W        W 6243   9.603   8.860   9.882
 2044W        W 6244   1.800   6.259   0.511
 2045W        W 6245   3.866   7.522  10.120
 2046W        W 6246   7.181   1.710   9.949
 2047W        W 6247   0.149   5.127   0.063
 2048W        W 6248   3.486   0.777   9.541
 2049W        W 6249   3.636   3.282   1.341
 2050W        W 6250  10.453  10.607   8.733
 2051W        W 6251   6.910   4.920  10.726
 2052W        W 6252   9.111   8.582   1.349
 2053W        W 6253   9.618   3.238   8.959
 2054W        W 6254   1.439   5.239  10.942
 2055W        W 6255   4.660   3.669   2.938
 2056W        W 6256   0.592   5.978  11.748
 2057W        W 6257   2.345   4.312  11.051
 2058W        W 6258   1.838   4.638   2.300
 2059W        W 6259   6.515   8.858   8.924
 2060W        W 6260   8.187   3.306  10.943
 2061W        W 6261   9.219   5.548  11.755
 2062W        W 6262   8.305   4.407   1.467
 2063W        W 6263   3.269   4.679  11.340
 2064W        W 6264   9.570   5.037  10.515
 2065W        W 6265   8.518   0.585   0.785
 2066W        W 6266   8.318   8.018   0.454
 2067W        W 6267   5.444   3.288   2.115
 2068W        W 6268   8.163  10.459   0.942
 2069W        W 6269   6.858   0.746  10.741
 2070W        W 6270   8.286   3.769   3.496
 2071W        W 6271   7.573  10.238   2.175
 2072W        W 6272   9.121   5.204   0.985
 2073W        W 6273   8.812  10.022   3.505
 2074W        W 6274   0.117   8.007   8.648
 2075W        W 6275   3.747   7.655   8.830
 2076W        W 6276   9.906   5.225   8.766
 2077W        W 6277   3.520  11.369   3.548
 2078W        W 6278   8.017   3.110  11.385
 2079W        W 6279  10.108   0.424   1.843
 2080W        W 6280   1.046   4.119   1.024
 2081W        W 6281   7.765  11.165  10.525
 2082W        W 6282   9.986   3.705  10.569
 2083W        W 6283   6.618   3.198   8.662
 2084W        W 6284   7.606   8.114   2.753
 2085W        W 6285   4.472   1.371  10.332
 2086W        W 6286   8.348   2.400   0.876
 2087W        W 6287   3.326  10.463   2.962
 2088W        W 6288   4.054   8.642  11.499
 2089W        W 6289  11.205   6.967   1.315
 2090W        W 6290  10.863   2.086   2.709
 2091W        W 6291   5.788   6.573   3.122
 2092W        W 6292   6.187   9.437   4.057
 2093W        W 6293   6.292  10.465   2.955
 2094W        W 6294   2.338   9.683   2.830
 2095W        W 6295   8.889   4.065   8.510
 2096W        W 6296   3.265   8.950  11.951
 2097W        W 6297   4.766   4.788  10.310
 2098W        W 6298   0.301   6.249   3.339
 2099W        W 6299   1.623   2.949   3.524
 2100W        W 6300   9.584   8.029  11.779
 2101W        W 6301   2.156   9.442   2.185
 2102W        W 6302   8.621   8.039  10.976
 2103W        W 6303   2.722   8.191   9.962
 2104W        W 6304   2.923   9.443   1.178
 2105W        W 6305   6.107   1.672   1.532
 2106W        W 6306   6.581   1.890   3.469
 2107W        W 6307  10.359   2.690   2.631
 2108W        W 6308   3.145   3.414   1.258
 2109W        W 6309   7.994   2.591  11.295
 2110W        W 6310   5.983   6.214  11.079
 2111W        W 6311   2.756   3.312   3.002
 2112W        W 6312   0.481  10.472   9.648
 2113W        W 6313  11.367   9.521   1.182
 2114W        W 6314   6.337   7.121  11.519
 2115W        W 6315   0.331   2.621   0.228
 2116W        W 6316   9.417   6.062   1.006
 2117W        W 6317   2.613   8.513   0.021
 2118W        W 6318   4.603   8.075   0.996
 2119W        W 6319   6.848   3.488   0.001
 2120W        W 6320   1.981   5.586   8.743
 2121W        W 6321  10.927   0.323  11.415
 2122W        W 6322   9.098   7.591  10.654
 2123W        W 6323   5.317   0.841   0.395
 2124W        W 6324   7.339  10.500   0.274
 2125W        W 6325  10.701   1.834  11.826
 2126W        W 6326   5.667   6.717   0.069
 2127W        W 6327   9.820   4.080   8.875
 2128W        W 6328   7.693   6.430   9.711
 2129W        W 6329   9.395   2.948   0.376
 2130W        W 6330   7.958   7.213  10.063
 2131W        W 6331   1.790   8.097   2.521
 2132W        W 6332   5.575   3.530  10.901
 2133W        W 6333   9.817   1.720   1.058
 2134W        W 6334   1.364   6.237   0.225
 2135W        W 6335   5.293   8.657   9.472
 2136W        W 6336   3.417   0.531   8.771
 2137W        W 6337   3.388   9.521   1.398
 2138W        W 6338   8.016   2.632   2.850
 2139W        W 6339   2.327   1.577   1.952
 2140W        W 6340   9.864   9.388  11.510
 2141W        W 6341   4.991   3.778   8.321
 2142W        W 6342   0.273   1.332   0.406
 2143W        W 6343   2.572   4.248   9.275
 2144W        W 6344   3.685   5.253   9.861
 2145W        W 6345   5.934   5.803  10.775
 2146W        W 6346   5.647   6.241   2.292
 2147W        W 6347   2.176   0.744   2.317
 2148W        W 6348   8.919   6.726   2.209
 2149W        W 6349   3.703   5.580  11.385
 2150W        W 6350   5.771   1.659  10.669
 2151W        W 6351   0.805   7.922   0.229
 2152W        W 6352  11.297   1.922   2.474
 2153W        W 6353   6.984   5.054   1.014
 2154W        W 6354  11.190   2.422  11.529
 2155W        W 6355   7.062   7.997   2.810
 2156W        W 6356   9.477   6.427   1.374
 2157W        W 6357   1.199   3.636   9.937
 2158W        W 6358   7.705   5.633   2.078
 2159W        W 6359   3.388   9.072   1.081
 2160W        W 6360   2.932   3.883   1.142
 2161W        W 6361   9.493   9.961   0.869
 2162W        W 6362   5.246   8.774   3.081
 2163W        W 6363   8.793   8.218   0.549
 2164W        W 6364   6.948   9.375   1.990
 2165W        W 6365   5.649   1.518   0.744
 2166W        W 6366   7.449   8.060   9.550
 2167W        W 6367   2.128  10.582   3.573
 2168W        W 6368   8.364   1.208   2.901
 2169W        W 6369   9.263   5.605   9.400
 2170W        W 6370  10.484   9.327   0.700
 2171W        W 6371   8.594   5.945   3.602
 2172W        W 6372   2.269   6.331  10.865
 2173W        W 6373   7.968   4.771   3.048
 2174W        W 6374   5.321   2.408   0.336
 2175W        W 6375   9.549   6.495   3.083
 2176W        W 6376  11.285   3.975   0.223
 2177W        W 6377  10.810   3.645   1.491
 2178W        W 6378   6.532   7.381  10.546
 2179W        W 6379   9.554  10.765  11.071
 2180W        W 6380   5.663   0.507   8.986
 2181W        W 6381   1.869   5.870  10.386
 2182W        W 6382   6.941   9.719   9.998
 2183W        W 6383   3.703   1.927   1.160
 2184W        W 6384   6.412   4.242  11.351
 2185W        W 6385   2.467  10.736   2.281
 2186W        W 6386   1.897   8.971   9.055
 2187W        W 6387   5.350   4.164   1.441
 2188W        W 6388   6.152   5.453   3.121
 2189W        W 6389  10.827  10.040  10.455
 2190W        W 6390   4.533   0.868   9.481
 2191W        W 6391   5.776   2.383   3.108
 2192W        W 6392   1.687   6.685  10.077
 2193W        W 6393   4.627   5.711   9.973
 2194W        W 6394   3.114   7.988   2.729
 2195W        W 6395   1.423  10.239   1.706
 2196W        W 6396   0.831   3.149   1.928
 2197W        W 6397   7.825   8.586   2.809
 2198W        W 6398   8.991   3.140  11.612
 2199W        W 6399  10.496   4.186   0.402
 2200W        W 6400   9.080   7.955  11.755
 2201W        W 6401  10.031   1.564   2.917
 2202W        W 6402   0.686   8.832   9.553
 2203W        W 6403   9.309   9.930   1.334
 2204W        W 6404   6.250   2.372   9.168
 2205W        W 6405   8.859   5.549   0.627
 2206W        W 6406  10.523   1.515   8.801
 2207W        W 6407   3.616  10.234   3.463
 2208W        W 6408   3.722   8.575   1.733
 2209W        W 6409   8.708   1.002  10.306
 2210W        W 6410   5.235   7.713   2.184
 2211W        W 6411   7.188  10.053  10.493
 2212W        W 6412  10.295   6.182   9.459
 2213W        W 6413   2.831   1.500   9.930
 2214W        W 6414  10.351   6.040   1.685
 2215W        W 6415  10.072   2.474   3.313
 2216W        W 6416   5.593   2.186  10.387
 2217W        W 6417   0.835   2.685  10.185
 2218W        W 6418   5.662   8.964   1.471
 2219W        W 6419   9.092   6.277   0.374
 2220W        W 6420  11.019   8.350  11.923
 2221W        W 6421  10.870   1.612  10.049
 2222W        W 6422  10.965   8.063   8.828
 2223W        W 6423   3.649   1.654  11.717
 2224W        W 6424  10.010  10.347  11.067
 2225W        W 6425  10.862   4.763   1.137
 2226W        W 6426   9.964   0.879   2.045
 2227W        W 6427   7.441   4.821   3.272
 2228W        W 6428   1.607   7.574   1.202
 2229W        W 6429   7.161   2.849   9.338
 2230W        W 6430  10.521  11.306   1.366
 2231W        W 6431   1.258   9.097   0.192
 2232W        W 6432   1.300   2.921  10.788
 2233W        W 6433   5.689   9.695  11.948
 2234W        W 6434   2.410  10.004   1.836
 2235W        W 6435   5.646  11.034  11.859
 2236W        W 6436   8.884   1.961  10.856
 2237W        W 6437   3.829   6.234   9.985
 2238W        W 6438   7.466   1.514   3.317
 2239W        W 6439   7.258   1.422   1.783
 2240W        W 6440  10.071   3.214   8.716
 2241W        W 6441   3.232   8.141  11.108
 2242W        W 6442   6.575   0.771   1.812
 2243W        W 6443   7.624   1.370   0.326
 2244W        W 6444   6.390   3.187   0.496
 2245W        W 6445   6.143   5.544   1.242
 2246W        W 6446   3.337   0.709  10.964
 2247W        W 6447   4.175   2.411   1.886
 2248W        W 6448   9.858   3.082   0.923
 2249W        W 6449   4.069   9.955   3.339
 2250W        W 6450   3.449   6.071  11.443
 2251W        W 6451   4.881   4.042   4.079
 2252W        W 6452   0.601   6.514   0.453
 2253W        W 6453   9.878   7.523   8.651
 2254W        W 6454   4.754   8.949   2.531
 2255W        W 6455   8.155   9.164  10.785
 2256W        W 6456   3.704   2.383   9.472
 2257W        W 6457   3.958   3.852   9.291
 2258W        W 6458   5.264   2.126   2.285
 2259W        W 6459   9.944   4.728   9.693
 2260W        W 6460   9.382   0.001   9.010
 2261W        W 6461   4.808  10.734   9.001
 2262W        W 6462   3.713   1.242  10.263
 2263W        W 6463   5.936   3.674   9.836
 2264W        W 6464   9.703   4.187   3.571
 2265W        W 6465   0.399   8.149  10.921
 2266W        W 6466   0.158   4.179  10.752
 2267W        W 6467   0.113   8.820   1.419
 2268W        W 6468   3.779   8.121   1.309
 2269W        W 6469   8.179  11.244   0.343
 2270W        W 6470   5.728  11.336   9.474
 2271W        W 6471   2.657   9.985   3.166
 2272W        W 6472  10.294   5.489  11.495
 2273W        W 6473   5.972   0.754   3.616
 2274W        W 6474   1.520   0.549  10.431
 2275W        W 6475   8.240  10.332   8.697
 2276W        W 6476   1.883   6.013   3.330
 2277W        W 6477   5.629   7.939   0.448
 2278W        W 6478   0.649   6.997  11.259
 2279W        W 6479   5.855   5.309   2.673
 2280W        W 6480   6.683   4.130  10.916
 2281W        W 6481   2.174   2.797  10.914
 2282W        W 6482   9.296  10.873   0.790
 2283W        W 6483   8.980   7.058   1.819
 2284W        W 6484   6.480   0.637  11.262
 2285W        W 6485   5.199   0.927  10.909
 2286W        W 6486   3.203   0.855   2.118
 2287W        W 6487   8.087   5.960  11.049
 2288W        W 6488   3.631   2.605   9.931
 2289W        W 6489   5.490   0.429   2.279
 2290W        W 6490   6.070   1.911  11.505
 2291W        W 6491   0.999   1.737   1.050
 2292W        W 6492  10.734   6.277  11.279
 2293W        W 6493   0.777   7.520   9.498
 2294W        W 6494   0.221   8.506   2.959
 2295W        W 6495   3.850   9.438   1.201
 2296W        W 6496   2.264   2.332  10.019
 2297W        W 6497   4.886   4.315   1.694
 2298W        W 6498   6.032   4.569   0.354
 2299W        W 6499  10.222   6.997   0.267
 2300W        W 6500   3.138   4.237   9.622
 2301W        W 6501   0.827   7.636   0.718
 2302W        W 6502   1.098   7.505   0.222
 2303W        W 6503   0.194   4.800   2.560
 2304W        W 6504   6.969   6.597  10.414
 2305W        W 6505   8.384   1.912   1.011
 2306W        W 6506   2.261   0.219   2.967
 2307W        W 6507   9.784   5.765   0.250
 2308W        W 6508   9.992  11.446   0.633
 2309W        W 6509   5.087   0.214  11.726
 2310W        W 6510   1.463   3.007  10.287
 2311W        W 6511   7.650  11.217   3.417
 2312W        W 6512   3.144   9.995   1.334
 2313W        W 6513  10.465  11.047   2.892
 2314W        W 6514   4.011   5.030   1.024
 2315W        W 6515   9.434  11.039   2.328
 2316W        W 6516   2.813   6.773  11.358
 2317W        W 6517   4.406   0.724   1.369
 2318W        W 6518   9.974   5.691  10.791
 2319W        W 6519   0.772   6.564   2.284
 2320W        W 6520   5.655   8.515   2.301
 2321W        W 6521   4.110   9.390  11.840
 2322W        W 6522   2.849   1.849  10.815
 2323W        W 6523   1.919   2.590   1.339
 2324W        W 6524   2.845   2.613   1.302
 2325W        W 6525   2.813   2.837  10.308
 2326W        W 6526  11.374   5.655   9.098
 2327W        W 6527  10.330  10.980   0.950
 2328W        W 6528   1.834   4.622   9.402
 2329W        W 6529  10.851   1.379   0.512
 2330W        W 6530   4.438   7.133   3.097
 2331W        W 6531   4.180   0.277   9.262
 2332W        W 6532   9.044   4.923   3.260
 2333W        W 6533  10.505   8.933   2.380
 2334W        W 6534   8.489   0.740   2.664
 2335W        W 6535   8.189   5.644   2.214
 2336W        W 6536  10.672   0.803   2.970
 2337W        W 6537  10.380   6.134   1.148
 2338W        W 6538   0.976   7.936  10.427
 2339W        W 6539   8.607   6.481  11.165
 2340W        W 6540   0.542   1.012  10.877
 2341W        W 6541   6.008   2.370   9.602
 2342W        W 6542   6.470   8.599  11.504
 2343W        W 6543   3.192  10.682   2.446
 2344W        W 6544  10.833   6.556  10.218
 2345W        W 6545   6.085   7.846   2.759
 2346W        W 6546   0.876   4.057  10.081
 2347W        W 6547   9.424   5.265   8.577
 2348W        W 6548   7.719  11.286   1.243
 2349W        W 6549   6.353  10.752   0.320
 2350W        W 6550   7.848   5.047   3.498
 2351W        W 6551   2.943   7.285  11.289
 2352W        W 6552   9.143   1.820   9.902
 2353W        W 6553   3.652  10.408  10.852
 2354W        W 6554   0.473  10.280   2.805
 2355W        W 6555   0.094   3.727  10.372
 2356W        W 6556   4.675  10.906  10.353
 2357W        W 6557   1.823   1.809  10.600
 2358W        W 6558   1.978   1.840   0.920
 2359W        W 6559   9.239   7.016   0.091
 2360W        W 6560   3.237   9.104  10.046
 2361W        W 6561   5.171   8.870   1.654
 2362W        W 6562   3.147  10.330   9.535
 2363W        W 6563   1.194   6.316   1.234
 2364W        W 6564  11.217   3.451   3.475
 2365W        W 6565   3.384   3.887   0.378
 2366W        W 6566   0.008   2.441   9.020
 2367W        W 6567   0.229   9.780  10.400
 2368W        W 6568   2.132   1.332   8.988
 2369W        W 6569   7.765  10.500   8.803
 2370W        W 6570   7.859   4.040   0.631
 2371W        W 6571  11.183   6.167  10.064
 2372W        W 6572   5.248   1.255   2.188
 2373W        W 6573   9.733   7.594   0.052
 2374W        W 6574   2.681   5.498   0.269
 2375W        W 6575   7.335   3.266   2.865
 2376W        W 6576   5.182   9.071   2.249
 2377W        W 6577   2.862   5.415   4.062
 2378W        W 6578   7.131   8.599   3.957
 2379W        W 6579   3.864   4.195   1.673
 2380W        W 6580  10.312   8.548   2.121
 2381W        W 6581   0.362   9.282   0.316
 2382W        W 6582  11.400   2.212   1.383
 2383W        W 6583   7.585   4.320   0.281
 2384W        W 6584   2.272   1.324   1.504
 2385W        W 6585   3.652   6.726   1.160
 2386W        W 6586   1.141  10.982   8.543
 2387W        W 6587   9.471   2.969   9.402
 2388W        W 6588   1.431  10.413   0.013
 2389W        W 6589   4.283   3.626   2.399
 2390W        W 6590   0.457   5.045  10.599
 2391W        W 6591   3.225   7.360  10.413
 2392W        W 6592   4.106   5.591   9.760
 2393W        W 6593  10.393   5.896   9.859
 2394W        W 6594   2.610   5.073   1.263
 2395W        W 6595   0.853   6.647   9.020
 2396W        W 6596   4.436   3.658  11.435
 2397W        W 6597   2.364   6.640   2.757
 2398W        W 6598   1.635   7.474   0.277
 2399W        W 6599   2.347   9.391   0.238
 2400W        W 6600   0.862   3.504   2.319
 2401W        W 6601   8.175   6.068   2.500
 2402W        W 6602   7.656  10.086   2.675
 2403W        W 6603   6.428   5.210   2.255
 2404W        W 6604   7.141   4.872   1.958
 2405W        W 6605   1.575   7.015   2.724
 2406W        W 6606   4.181   1.795   2.684
 2407W        W 6607   3.656  10.779  11.241
 2408W        W 6608   1.580   2.248   2.235
 2409W        W 6609   6.459   0.670  10.189
 2410W        W 6610   4.667   9.876   1.370
 2411W        W 6611   5.470   9.189   8.579
 2412W        W 6612   0.890   6.682   9.533
 2413W        W 6613   9.563  10.171   3.319
 2414W        W 6614   1.357   4.393  11.737
 2415W        W 6615   1.058   5.906  11.967
 2416W        W 6616   0.542   1.436   2.493
 2417W        W 6617   8.521   9.611   9.219
 2418W        W 6618   7.176   4.539   2.356
 2419W        W 6619   0.966   1.183   9.999
 2420W        W 6620   5.138   2.918   1.215
 2421W        W 6621   0.406   7.892   1.119
 2422W        W 6622   9.463   9.676  10.352
 2423W        W 6623   9.113  11.333   2.740
 2424W        W 6624  10.641   8.079   1.983
 2425W        W 6625   9.438   7.647   2.283
 2426W        W 6626   9.571   8.357   8.990
 2427W        W 6627  10.798  10.155   2.692
 2428W        W 6628   3.361   0.485   1.010
 2429W        W 6629   7.221   8.058  11.439
 2430W        W 6630   7.549   2.753   3.577
 2431W        W 6631   8.380  10.678  10.358
 2432W        W 6632   9.527   2.431   1.362
 2433W        W 6633   5.466  10.665   3.345
 2434W        W 6634  11.376   2.866   9.844
 2435W        W 6635   5.202   2.887   1.817
 2436W        W 6636   7.067   9.034   3.222
 2437W        W 6637  11.406   3.312  11.084
 2438W        W 6638   4.641   2.731   2.495
 2439W        W 6639   6.436   0.860   9.385
 2440W        W 6640   0.764  10.240   1.385
 2441W        W 6641   8.645   4.848   8.537
 2442W        W 6642   2.339   1.190   3.293
 2443W        W 6643  10.269   3.382   0.980
 2444W        W 6644   2.612   8.879   0.403
 2445W        W 6645   5.509   8.955  10.345
 2446W        W 6646   6.590   4.274   1.270
 2447W        W 6647  10.899   6.255   3.025
 2448W        W 6648   8.427   3.785  11.933
 2449W        W 6649   9.017   0.500   0.172
 2450W        W 6650   4.611   3.015   1.192
 2451W        W 6651   9.286   2.220   0.941
 2452W        W 6652   1.974   9.536   1.737
 2453W        W 6653   1.033   9.062   9.227
 2454W        W 6654   4.799   8.061  10.160
 2455W        W 6655   2.375   5.026  11.400
 2456W        W 6656   0.994   2.750   1.634
 2457W        W 6657   4.302   6.069   9.789
 2458W        W 6658   0.541   2.680   1.944
 2459W        W 6659   9.497   3.986   2.649
 2460W        W 6660   3.870   3.789  11.422
 2461W        W 6661   2.232   7.955   2.318
 2462W        W 6662   0.282   4.918  11.186
 2463W        W 6663   8.396   6.980  11.511
 2464W        W 6664   3.430   3.913   9.325
 2465W        W 6665   0.970   3.715  11.733
 2466W        W 6666   8.135   8.178  11.040
 2467W        W 6667   6.530   9.924  11.333
 2468W        W 6668   1.089   1.840   2.747
 2469W        W 6669  10.144  10.948   9.924
 2470W        W 6670   2.704   4.120   8.811
 2471W        W 6671   0.646   8.103   8.645
 2472W        W 6672   4.962   3.350   1.423
 2473W        W 6673   9.778   3.621   8.577
 2474W        W 6674   5.991   8.495  11.364
 2475W        W 6675   5.185   9.321  10.505
 2476W        W 6676  11.072   5.926  10.502
 2477W        W 6677  10.877  10.240  11.373
 2478W        W 6678   4.351   4.314   1.736
 2479W        W 6679   1.339   1.426   1.285
 2480W        W 6680   6.498   3.450   2.717
 2481W        W 6681   7.456  10.081   1.688
 2482W        W 6682   9.994   7.449   9.161
 2483W        W 6683   4.142   3.419   1.918
 2484W        W 6684   6.901   2.062   0.157
 2485W        W 6685   6.261   2.686   0.257
 2486W        W 6686  11.331   6.078  10.905
 2487W        W 6687   2.602   3.882  11.445
 2488W        W 6688   1.717   1.257   9.289
 2489W        W 6689   8.914   2.832   1.290
 2490W        W 6690   6.573   1.823   1.369
 2491W        W 6691   2.907   6.598   2.689
 2492W        W 6692   8.456   4.534  11.566
 2493W        W 6693   0.304   4.625   0.311
 2494W        W 6694   1.847  11.197   9.081
 2495W        W 6695   0.492   4.327  11.954
 2496W        W 6696  10.703   2.255  11.514
 2497W        W 6697   8.352   7.268  11.959
 2498W        W 6698   2.720   1.745   9.483
 2499W        W 6699   6.240   3.027  10.323
 2500W        W 6700  10.002   8.105   3.234
 2501W        W 6701   2.851   2.267  11.103
 2502W        W 6702   9.199  11.415   9.514
 2503W        W 6703   2.684   3.792   3.242
 2504W        W 6704   6.670   8.646   2.137
 2505W        W 6705   1.875   1.623   1.399
 2506W        W 6706   7.130  11.149  10.910
 2507W        W 6707   4.198   3.043  11.974
 2508W        W 6708   1.630  10.725   1.411
 2509W        W 6709   4.792   8.848  11.000
 2510W        W 6710   3.206   5.120  11.582
 2511W        W 6711   5.676  10.488   0.710
 2512W        W 6712   6.489   3.844  11.883
 2513W        W 6713   3.504   4.980   3.639
 2514W        W 6714   2.209  10.724   2.719
 2515W        W 6715   4.758   2.416  11.762
 2516W        W 6716   3.098   8.394   0.356
 2517W        W 6717   0.763   6.595   1.314
 2518W        W 6718  10.030  11.319   1.202
 2519W        W 6719   7.595   2.854  10.521
 2520W        W 6720   7.956  10.273   1.844
 2521W        W 6721   5.448   1.412   1.204
 2522W        W 6722   1.003   6.881   2.610
 2523W        W 6723   3.138   2.738  10.946
 2524W        W 6724   3.071   4.244  10.603
 2525W        W 6725   5.584   1.864   3.641
 2526W        W 6726  10.028   6.654   2.703
 2527W        W 6727   6.649   9.938   1.315
 2528W        W 6728   8.225   7.644  10.232
 2529W        W 6729   4.312  10.143  11.315
 2530W        W 6730   3.556   0.926   1.179
 2531W        W 6731  10.780   1.417   1.937
 2532W        W 6732   3.293   5.752   9.539
 2533W        W 6733   0.974   3.671   0.263
 2534W        W 6734   2.961   1.777   1.028
 2535W        W 6735  10.024   2.818  10.597
 2536W        W 6736   7.075   9.020   2.717
 2537W        W 6737   8.496   6.259  11.930
 2538W        W 6738   2.452   0.241   0.445
 2539W        W 6739  11.257   3.617   1.786
 2540W        W 6740  10.269   9.419   9.802
 2541W        W 6741   7.484   6.671  11.828
 2542W        W 6742   5.479   7.214   8.511
 2543W        W 6743   3.619   4.457  10.708
 2544W        W 6744   0.912   3.266   1.440
 2545W        W 6745   6.276   3.281   3.729
 2546W        W 6746   1.419   1.390  10.127
 2547W        W 6747  10.205   7.105  11.270
 2548W        W 6748   6.693   9.158   9.339
 2549W        W 6749   3.132  10.477  10.846
 2550W        W 6750   2.648   1.917   3.248
 2551W        W 6751   3.694   2.624  10.770
 2552W        W 6752   9.483   4.611  10.012
 2553W        W 6753   8.110   0.873   1.476
 2554W        W 6754   2.402   6.585  10.377
 2555W        W 6755   5.839   6.098   9.149
 2556W        W 6756   0.901   6.019   1.522
 2557W        W 6757   6.971   5.245  11.548
 2558W        W 6758  10.014   2.232   9.933
 2559W        W 6759   3.353   6.982   2.383
 2560W        W 6760   4.610   0.246   1.376
 2561W        W 6761  11.007   0.540   1.998
 2562W        W 6762  10.453   9.957   1.915
 2563W        W 6763   6.456   5.222  11.450
 2564W        W 6764   5.931  11.461  11.759
 2565W        W 6765   9.528   0.138  10.786
 2566W        W 6766   1.262   8.417   1.919
 2567W        W 6767   6.421   4.899   9.705
 2568W        W 6768   5.049   9.057   0.237
 2569W        W 6769  11.221   4.005   1.432
 2570W        W 6770  10.041   6.294   3.089
 2571W        W 6771   1.109   7.119  11.403
 2572W        W 6772   8.672  10.025   0.249
 2573W        W 6773   7.575   2.983   1.191
 2574W        W 6774   2.614   4.626   9.623
 2575W        W 6775   8.297  11.008   9.647
 2576W        W 6776   0.225   6.925   8.570
 2577W        W 6777   7.500   1.206  10.926
 2578W        W 6778   5.326  10.610  11.616
 2579W        W 6779  10.948   0.971   1.731
 2580W        W 6780  10.561   3.509  11.232
 2581W        W 6781   6.898   3.703   0.780
 2582W        W 6782   8.146   2.985   8.709
 2583W        W 6783   1.907   8.818   1.282
 2584W        W 6784   1.713   0.674   1.240
 2585W        W 6785   2.577   9.407   2.454
 2586W        W 6786  10.843   2.739   8.973
 2587W        W 6787   1.220   5.722  11.478
 2588W        W 6788   4.990   5.300   0.991
 2589W        W 6789  10.773   6.243   9.778
 2590W        W 6790  10.725   5.143  10.827
 2591W        W 6791   0.608   9.466  11.474
 2592W        W 6792   7.665   6.106   2.401
 2593W        W 6793   1.405   7.130   1.451
 2594W        W 6794   5.634   2.200  11.431
 2595W        W 6795   5.779  11.139   9.939
 2596W        W 6796   0.330   1.006   2.353
 2597W        W 6797   6.060   5.698  11.249
 2598W        W 6798   0.787   1.500   3.335
 2599W        W 6799   6.719   1.736   2.998
 2600W        W 6800   8.668   6.105   2.742
 2601W        W 6801   4.079   5.142   9.536
 2602W        W 6802   0.001   2.396  11.048
 2603W        W 6803  11.445   4.597  10.977
 2604W        W 6804   1.390   3.247   1.223
 2605W        W 6805   9.420  10.622   9.544
 2606W        W 6806   1.928   4.421   0.927
 2607W        W 6807   8.538   0.287   3.415
 2608W        W 6808   4.923   7.655   9.346
 2609W        W 6809   5.281   2.794   9.822
 2610W        W 6810   8.583   2.338  11.749
 2611W        W 6811   5.798   8.776   8.612
 2612W        W 6812   6.950   2.634   2.134
 2613W        W 6813   4.728   9.410   2.756
 2614W        W 6814   8.936   6.356   3.718
 2615W        W 6815   2.707   9.086  11.865
 2616W        W 6816  10.530   7.468   0.385
 2617W        W 6817   3.062   6.509   9.932
 2618W        W 6818  10.776   4.767   3.107
 2619W        W 6819   0.371  10.132  11.773
 2620W        W 6820   7.551   4.207   8.758
 2621W        W 6821   1.376   3.638   1.548
 2622W        W 6822  10.953   4.396   0.202
 2623W        W 6823   1.155  10.556   1.414
 2624W        W 6824   6.576   6.146   9.670
 2625W        W 6825   3.624   1.187   8.707
 2626W        W 6826   3.341   1.010  11.840
 2627W        W 6827  10.417   6.684   0.994
 2628W        W 6828   2.104   3.219   0.408
 2629W        W 6829   9.011   4.777   2.756
 2630W        W 6830   2.501   9.444   9.652
 2631W        W 6831   1.718   8.369   0.071
 2632W        W 6832   1.209   7.360   9.692
 2633W        W 6833   0.321   5.768   3.175
 2634W        W 6834  10.925   4.832   2.124
 2635W        W 6835   3.516  10.714   0.691
 2636W        W 6836   6.638   6.247   8.753
 2637W        W 6837   1.513   2.231  11.948
 2638W        W 6838   3.866   2.324   1.442
 2639W        W 6839   8.435   5.570  11.318
 2640W        W 6840   7.908   3.599  11.829
 2641W        W 6841   7.991  11.489  10.194
 2642W        W 6842   0.248   0.922   3.366
 2643W        W 6843   6.735   3.097   0.923
 2644W        W 6844   9.891  10.372   3.002
 2645W        W 6845  11.015   0.349   9.473
 2646W        W 6846   2.102   6.908   3.635
 2647W        W 6847   6.443   9.084   0.904
 2648W        W 6848   5.611   5.589  11.480
 2649W        W 6849   8.140   1.779   1.466
 2650W        W 6850   4.692   4.582   9.434
 2651W        W 6851   7.595   9.404  11.777
 2652W        W 6852   8.766   6.831   3.579
 2653W        W 6853   5.700   0.446   0.902
 2654W        W 6854  10.484   5.072   2.784
 2655W        W 6855   0.517   2.108   0.175
 2656W        W 6856   1.455   6.154  10.539
 2657W        W 6857   0.399   0.823   1.882
 2658W        W 6858   5.460   2.890   0.449
 2659W        W 6859   6.181   1.341   0.230
 2660W        W 6860   7.092   3.529  10.398
 2661W        W 6861   6.026   6.105   3.256
 2662W        W 6862   5.009   2.788   0.233
 2663W        W 6863  10.880   0.464  11.915
 2664W        W 6864  10.380   5.180   0.156
 2665W        W 6865   6.366   6.028   0.364
 2666W        W 6866  11.124   3.953  10.399
 2667W        W 6867   5.604   8.059   2.630
 2668W        W 6868   5.944   8.073   2.246
 2669W        W 6869   4.050   5.987   0.003
 2670W        W 6870   1.826   6.905  11.968
 2671W        W 6871  11.158   6.371   0.365
 2672W        W 6872   6.792   2.186   1.932
 2673W        W 6873   1.064   0.797  11.856
 2674W        W 6874   8.213   7.182  10.512
 2675W        W 6875   1.734   2.241  10.859
 2676W        W 6876   6.226   9.955   2.236
 2677W        W 6877   9.091   0.887   9.986
 2678W        W 6878   6.891   9.110  10.320
 2679W        W 6879   6.786   0.746   2.282
 2680W        W 6880   9.958   4.213  11.396
 2681W        W 6881   9.934   6.693   1.731
 2682W        W 6882   8.549  10.906  11.260
 2683W        W 6883   7.227   4.650   4.135
 2684W        W 6884  10.912   2.138  10.167
 2685W        W 6885   9.298   4.135  10.130
 2686W        W 6886   3.821   6.633   1.648
 2687W        W 6887   5.619   1.796  11.740
 2688W        W 6888   4.337   6.954   9.740
 2689W        W 6889   2.978  11.420   1.734
 2690W        W 6890   8.477   8.901  10.429
 2691W        W 6891   3.882  11.075  11.670
 2692W        W 6892   6.535   7.875  11.873
 2693W        W 6893   4.199   2.209  11.474
 2694W        W 6894   8.087   3.810  10.913
 2695W        W 6895   5.709   2.914   1.870
 2696W        W 6896   6.425   7.796   1.087
 2697W        W 6897   8.705   5.130  11.120
 2698W        W 6898   0.734   5.566   2.509
 2699W        W 6899   3.646   0.521  11.351
 2700W        W 6900   4.955  11.037  10.777
 2701W        W 6901   2.868   8.948   0.899
 2702W        W 6902   8.042   2.698  10.289
 2703W        W 6903   7.098   0.781   0.942
 2704W        W 6904   4.753   7.155   2.672
 2705W        W 6905   6.712   3.690   2.236
 2706W        W 6906  10.085   1.499  10.770
 2707W        W 6907   4.573   9.907   3.453
 2708W        W 6908   8.872   5.621   2.645
 2709W        W 6909   8.220   4.238   3.249
 2710W        W 6910   1.763   6.533  11.019
 2711W        W 6911   0.788   1.852   2.355
 2712W        W 6912   1.304   7.537  10.522
 2713W        W 6913   8.815   7.094  11.799
 2714W        W 6914   0.015   3.751   2.237
 2715W        W 6915   4.708   6.669   1.412
 2716W        W 6916   7.494   4.086   2.881
 2717W        W 6917   7.791  10.688  11.093
 2718W        W 6918   7.920   7.695   1.274
 2719W        W 6919   0.785   6.445  10.528
 2720W        W 6920   7.540   4.660   9.950
 2721W        W 6921   6.536   0.891   3.258
 2722W        W 6922   6.091   5.597   0.269
 2723W        W 6923   9.069   6.692   3.163
 2724W        W 6924   5.454   8.909   0.988
 2725W        W 6925   5.520  10.915  11.244
 2726W        W 6926   6.546  10.940   1.424
 2727W        W 6927   9.047   9.953   9.613
 2728W        W 6928   2.873   6.079   3.313
 2729W        W 6929   3.208   5.542  10.063
 2730W        W 6930   8.431   5.968   9.604
 2731W        W 6931   2.179   5.600   3.483
 2732W        W 6932   5.052   3.783   1.173
 2733W        W 6933   5.587   9.315   9.371
 2734W        W 6934   7.566  10.004   0.400
 2735W        W 6935  10.608   4.523   8.912
 2736W        W 6936   2.695   8.926   1.773
 2737W        W 6937   2.801   7.681  11.674
 2738W        W 6938  11.272  11.468  10.299
 2739W        W 6939   7.568  10.569   1.714
 2740W        W 6940   0.461   9.160   2.238
 2741W        W 6941   4.775  10.205  11.005
 2742W        W 6942   1.878   0.067  11.513
 2743W        W 6943   9.025   6.719  10.970
 2744W        W 6944   3.804   2.723   0.117
 2745W        W 6945   7.875   9.782   1.744
 2746W        W 6946  10.250   5.014  11.670
 2747W        W 6947  10.983   2.965   3.183
 2748W        W 6948   7.104   8.715  10.036
 2749W        W 6949  10.343   7.679   2.089
 2750W        W 6950   6.957   1.269  10.038
 2751W        W 6951   9.136   0.367   2.199
 2752W        W 6952   4.761  11.363   3.317
 2753W        W 6953   8.883   3.555  10.352
 2754W        W 6954  11.496   8.021   1.375
 2755W        W 6955   7.473   7.285   3.119
 2756W        W 6956   5.243  10.789   0.639
 2757W        W 6957  10.682   7.136  11.421
 2758W        W 6958   1.705   9.864   0.532
 2759W        W 6959   2.213   1.870  10.273
 2760W        W 6960   8.462   7.659   1.852
 2761W        W 6961   8.416   4.197  10.760
 2762W        W 6962   2.141   9.866   1.394
 2763W        W 6963   5.059   7.772   0.403
 2764W        W 6964   3.161  11.415  10.628
 2765W        W 6965   5.283   6.922   9.950
 2766W        W 6966   8.652   5.855   1.380
 2767W        W 6967   1.838   8.608  11.331
 2768W        W 6968   1.887   9.389   1.239
 2769W        W 6969   7.541   9.182   9.445
 2770W        W 6970   2.362   6.993   3.189
 2771W        W 6971   1.909   9.022   3.318
 2772W        W 6972   0.864   9.070   2.545
 2773W        W 6973   2.628  11.369  10.886
 2774W        W 6974   6.211  10.433  11.354
 2775W        W 6975   1.244  11.467   1.302
 2776W        W 6976   8.007   7.598   8.849
 2777W        W 6977   6.527   6.702  11.724
 2778W        W 6978   4.210   3.877   8.814
 2779W        W 6979   2.679  10.146  11.986
 2780W        W 6980   6.875   6.549   2.427
 2781W        W 6981   1.104   7.109   1.870
 2782W        W 6982   0.728   8.341   9.371
 2783W        W 6983   7.510   2.553   0.699
 2784W        W 6984   3.521  10.002   9.669
 2785W        W 6985   9.770   1.494   3.350
 2786W        W 6986   9.039   6.172   1.361
 2787W        W 6987   7.653   4.273   2.425
 2788W        W 6988   5.631   5.680   0.485
 2789W        W 6989   2.661   5.079   8.882
 2790W        W 6990  10.118  11.272   2.573
 2791W        W 6991   4.769   0.663   9.900
 2792W        W 6992   1.304   4.401  10.201
 2793W        W 6993   1.326   1.796   9.807
 2794W        W 6994   3.923   8.106   3.033
 2795W        W 6995   3.970   6.458   2.662
 2796W        W 6996  11.284   8.573   9.500
 2797W        W 6997   2.185   7.695   1.870
 2798W        W 6998   5.674   4.296  10.250
 2799W        W 6999   5.208  10.745   8.700
 2800W        W 7000  11.281   2.844  11.231
 2801W        W 7001  10.928   8.490   9.131
 2802W        W 7002   2.492   5.530   8.698
 2803W        W 7003   0.184   9.134  10.846
 2804W        W 7004   8.965   5.599   8.966
 2805W        W 7005   2.679   9.464   3.177
 2806W        W 7006   5.796   8.882  11.012
 2807W        W 7007   0.388   8.937   0.811
 2808W        W 7008   8.550   9.791  10.304
 2809W        W 7009   4.546   3.972  11.813
 2810W        W 7010   6.837   2.295  11.119
 2811W        W 7011   0.341   4.027   9.888
 2812W        W 7012   4.202   0.426   0.034
 2813W        W 7013   4.911   2.802  11.417
 2814W        W 7014   1.778   0.941  10.650
 2815W        W 7015   6.022   5.110   9.990
 2816W        W 7016   9.557   9.879   2.419
 2817W        W 7017  11.472   0.355   1.653
 2818W        W 7018   8.902   1.771   2.182
 2819W        W 7019  11.054   0.039   1.725
 2820W        W 7020   2.868   8.523  11.082
 2821W        W 7021   6.527   3.632  10.884
 2822W        W 7022  10.324   9.171  11.334
 2823W        W 7023   3.856   1.371   3.459
 2824W        W 7024   5.196   4.122  11.905
 2825W        W 7025   1.895   1.982   3.038
 2826W        W 7026   3.284   8.604  11.357
 2827W        W 7027   6.647   6.627   3.634
 2828W        W 7028   2.757   0.014   2.273
 2829W        W 7029   1.110   5.417   0.761
 2830W        W 7030   9.972   1.203  10.322
 2831W        W 7031   2.872   5.892  10.359
 2832W        W 7032   4.866   9.541   0.204
 2833W        W 7033   6.236   5.840   9.405
 2834W        W 7034   5.535   1.929   9.544
 2835W        W 7035   0.449   0.952   1.364
 2836W        W 7036   9.094   5.056   4.271
 2837W        W 7037   6.747   2.593   4.013
 2838W        W 7038   3.247   0.493   2.827
 2839W        W 7039   0.229   2.174   2.802
 2840W        W 7040   6.451  11.171   0.972
 2841W        W 7041   4.516   8.591   0.226
 2842W        W 7042   8.133  10.037   9.122
 2843W        W 7043   0.887  11.045   3.775
 2844W        W 7044  10.035  10.341  11.836
 2845W        W 7045   2.690   8.151   2.928
 2846W        W 7046   9.939   6.237   1.463
 2847W        W 7047   3.266   9.215   2.379
 2848W        W 7048   8.325   0.783   8.987
 2849W        W 7049   0.029   0.667   1.190
 2850W        W 7050   5.242  10.146  10.789
 2851W        W 7051   8.906   9.514   0.403
 2852W        W 7052   9.337   2.262  10.108
 2853W        W 7053   5.635   7.056   9.020
 2854W        W 7054   6.570   9.494   2.768
 2855W        W 7055   8.465   9.019   1.735
 2856W        W 7056   4.559   9.747  10.987
 2857W        W 7057   4.368   9.566  11.442
 2858W        W 7058   4.162  10.051   0.512
 2859W        W 7059   7.940  10.065   0.732
 2860W        W 7060   4.319   1.434  11.034
 2861W        W 7061   8.966   0.655   9.510
 2862W        W 7062   7.577  10.388   1.238
 2863W        W 7063   0.447   9.911   9.496
 2864W        W 7064  10.814   0.220   1.279
 2865W        W 7065   2.770   7.372  10.179
 2866W        W 7066   9.909   6.516   0.282
 2867W        W 7067  10.358   1.311   9.241
 2868W        W 7068   8.378   5.043  11.499
 2869W        W 7069   7.420   0.947   9.163
 2870W        W 7070   8.757   7.557  11.049
 2871W        W 7071   0.757   2.294   9.657
 2872W        W 7072   2.187   9.191   2.890
 2873W        W 7073   8.479   3.225   8.390
 2874W        W 7074   0.301   1.737  10.054
 2875W        W 7075   8.342   4.126   0.483
 2876W        W 7076   6.262   5.744   0.786
 2877W        W 7077   6.087   0.986   8.991
 2878W        W 7078   6.053   7.447   9.787
 2879W        W 7079   2.327   0.245  11.353
 2880W        W 7080   4.329   6.824   2.678
 2881W        W 7081   2.085   7.878   1.050
 2882W        W 7082   8.038   9.255   9.564
 2883W        W 7083   7.626   6.705  11.335
 2884W        W 7084  10.851  11.435   0.231
 2885W        W 7085   2.208   7.489   3.085
 2886W        W 7086   2.404   5.275   2.167
 2887W        W 7087   3.304   4.718   8.966
 2888W        W 7088   2.168   2.884   9.308
 2889W        W 7089  10.499   9.910   3.485
 2890W        W 7090   8.878   0.622   8.973
 2891W        W 7091   3.435  10.912   3.849
 2892W        W 7092   0.115   1.459   2.217
 2893W        W 7093   6.802   7.956  11.166
 2894W        W 7094   2.691  10.675  10.431
 2895W        W 7095   4.598   4.029   2.556
 2896W        W 7096   8.160   3.654   0.342
 2897W        W 7097   2.372   7.569   0.680
 2898W        W 7098   6.467   9.392  10.404
 2899W        W 7099   4.099   6.420  11.238
 2900W        W 7100  10.864   5.357  11.300
 2901W        W 7101   0.889   6.699  11.598
 2902W        W 7102   0.270   0.423   9.952
 2903W        W 7103   7.159  11.334   3.533
 2904W        W 7104   5.993   8.114  10.989
 2905W        W 7105   7.414   9.590   1.852
 2906W        W 7106   5.687  11.355   1.308
 2907W        W 7107   7.941   3.684  10.434
 2908W        W 7108   2.254   1.166   2.779
 2909W        W 7109   0.071   4.168   2.548
 2910W        W 7110   4.055   3.385   8.789
 2911W        W 7111   9.396   6.554   3.575
 2912W        W 7112   5.341  11.320   1.688
 2913W        W 7113   9.024   2.302   1.371
 2914W        W 7114   8.953   9.025   1.554
 2915W        W 7115   9.942   0.456   2.342
 2916W        W 7116   0.347   9.250   1.211
 2917W        W 7117   0.700   9.522   1.959
 2918W        W 7118   5.104   9.598   8.542
 2919W        W 7119   0.311   8.015   3.099
 2920W        W 7120   8.048   9.502   2.460
 2921W        W 7121  11.434  11.386   2.516
 2922W        W 7122   7.118   2.953   4.092
 2923W        W 7123   4.837  10.825   9.878
 2924W        W 7124   6.437   2.363  10.816
 2925W        W 7125   5.154   6.892   3.581
 2926W        W 7126   4.084  11.062  11.183
 2927W        W 7127   2.749  11.059   2.014
 2928W        W 7128  10.603   0.474   0.892
 2929W        W 7129   5.233   2.620   0.819
 2930W        W 7130   0.228   6.960   1.258
 2931W        W 7131   0.575   1.763   2.905
 2932W        W 7132   0.885   7.673   9.992
 2933W        W 7133   1.564   2.146  10.302
 2934W        W 7134   0.179   9.567   2.058
 2935W        W 7135   2.881   2.127   0.060
 2936W        W 7136   8.421   6.766  11.985
 2937W        W 7137  10.606   8.570  10.434
 2938W        W 7138   1.805   9.303  11.860
 2939W        W 7139   6.301  10.475  11.879
 2940W        W 7140   0.353   3.384   2.357
 2941W        W 7141   7.282   2.407  11.354
 2942W        W 7142   3.392   5.673   2.842
 2943W        W 7143   3.578   4.324   3.054
 2944W        W 7144  11.094   0.878  10.957
 2945W        W 7145   3.222   5.174   2.853
 2946W        W 7146   0.840   9.509  10.306
 2947W        W 7147  10.373   0.439   0.022
 2948W        W 7148   5.084  10.101   2.619
 2949W        W 7149   9.541   5.033   2.669
 2950W        W 7150   9.541   6.990   8.628
 2951W        W 7151   2.649   1.976   1.864
 2952W        W 7152   3.864   1.443   9.463
 2953W        W 7153  10.897   5.672   0.738
 2954W        W 7154   3.957  11.303   9.988
 2955W        W 7155   2.667  10.231  10.760
 2956W        W 7156   0.292   5.218   3.243
 2957W        W 7157   7.566   3.351  10.499
 2958W        W 7158   9.869   9.633   9.556
 2959W        W 7159   5.163   9.327   8.988
 2960W        W 7160   5.522   6.315  11.828
 2961W        W 7161   1.227   3.238   0.183
 2962W        W 7162   5.976   1.746   2.370
 2963W        W 7163   0.893  10.346   1.866
 2964W        W 7164   3.762   1.251   2.423
 2965W        W 7165   9.388   2.793   1.039
 2966W        W 7166   7.403   5.010   3.781
 2967W        W 7167   5.063   6.089   0.519
 2968W        W 7168   4.928  10.111   1.734
 2969W        W 7169   9.372   8.132   1.363
 2970W        W 7170   7.945   9.072   9.096
 2971W        W 7171   3.858   5.509   0.248
 2972W        W 7172   1.713   3.151  10.946
 2973W        W 7173   8.950   8.828   0.272
 2974W        W 7174   2.901  10.310   9.092
 2975W        W 7175   9.077   1.498   2.598
 2976W        W 7176   5.128   7.320   8.882
 2977W        W 7177  10.779   3.276   0.902
 2978W        W 7178   2.739   1.850   2.694
 2979W        W 7179   5.844   3.303   9.386
 2980W        W 7180  10.023   9.473   0.898
 2981W        W 7181   8.968   2.941   0.772
 2982W        W 7182   0.178   4.045  11.663
 2983W        W 7183   5.204   1.440  11.089
 2984W        W 7184   2.171   4.268   9.589
 2985W        W 7185   6.784   2.097   2.441
 2986W        W 7186   0.512   0.438  10.393
 2987W        W 7187  10.154   7.080   9.497
 2988W        W 7188   3.543   6.709   9.832
 2989W        W 7189   6.118   6.531   9.948
 2990W        W 7190   2.705   6.708   8.254
 2991W        W 7191   0.337   0.075   1.159
 2992W        W 7192   2.086   4.287   9.075
 2993W        W 7193  11.415   3.898   0.759
 2994W        W 7194   3.711   0.849   9.080
 2995W        W 7195   6.529   4.579  10.710
 2996W        W 7196   8.633  10.476   9.015
 2997W        W 7197   0.137   0.413   3.215
 2998W        W 7198   8.859   4.870  11.524
 2999W        W 7199   9.761  11.322  11.722
 3000W        W 7200   0.459   3.274   8.935
 3001W        W 7201   2.217   0.010   0.001
 3002W        W 7202  10.912   0.438   0.430
 3003W        W 7203   4.874   1.466   9.571
 3004W        W 7204   0.905   1.366   2.847
 3005W        W 7205   4.327   2.311   2.661
 3006W        W 7206   7.264   2.804   3.107
 3007W        W 7207   3.481   9.460   2.752
 3008W        W 7208   4.369   3.699  10.573
 3009W        W 7209  10.769   0.802  10.575
 3010W        W 7210   9.898   7.686   2.976
 3011W        W 7211   1.228   5.784   1.858
 3012W        W 7212   0.784   8.519  11.218
 3013W        W 7213   2.976   5.999   9.861
 3014W        W 7214   1.300   3.163   1.752
 3015W        W 7215   7.407   2.097   0.929
 3016W        W 7216   1.386   8.600   0.956
 3017W        W 7217   4.124   9.175  10.449
 3018W        W 7218   0.656   8.377   3.760
 3019W        W 7219   3.745   4.913  10.286
 3020W        W 7220   9.587   5.129  11.727
 3021W        W 7221  10.002   8.118   2.697
 3022W        W 7222   2.271   1.953   9.248
 3023W        W 7223   5.642   8.997   2.514
 3024W        W 7224   5.135   3.814  10.916
 3025W        W 7225   6.709   2.678   8.555
 3026W        W 7226   4.262   1.124  11.911
 3027W        W 7227   6.547   1.671   8.758
 3028W        W 7228   3.218   5.290  11.041
 3029W        W 7229   2.637   0.608   1.173
 3030W        W 7230   3.843   5.846   1.471
 3031W        W 7231   3.625   4.339   1.241
 3032W        W 7232   5.084   5.706  10.212
 3033W        W 7233   0.695   7.998  11.350
 3034W        W 7234   8.680   7.452  10.378
 3035W        W 7235   4.619   7.957  11.044
 3036W        W 7236  11.213  11.034   1.792
 3037W        W 7237  10.061   5.181   2.445
 3038W        W 7238   6.259   3.268   9.066
 3039W        W 7239   1.393   5.724  10.201
 3040W        W 7240   2.663   1.695  10.368
 3041W        W 7241  10.148   9.601   1.632
 3042W        W 7242   2.649   0.183  11.821
 3043W        W 7243   0.156   2.619   0.989
 3044W        W 7244   3.138   7.540   1.677
 3045W        W 7245   3.607   9.767   3.177
 3046W        W 7246   0.925  10.802  11.952
 3047W        W 7247   6.285   7.676   0.620
 3048W        W 7248   6.039   1.378   8.452
 3049W        W 7249   9.886   5.161  11.316
 3050W        W 7250   9.198   7.944   9.034
 3051W        W 7251   7.965   4.709   2.526
 3052W        W 7252   6.770   8.829  11.153
 3053W        W 7253   7.714   3.639   2.825
 3054W        W 7254   3.151  10.889  11.900
 3055W        W 7255   7.739   7.585  10.364
 3056W        W 7256  11.040   0.004   3.309
 3057W        W 7257   7.062   0.569   9.074
 3058W        W 7258   0.524  10.844  11.563
 3059W        W 7259   9.912   7.602   9.637
 3060W        W 7260   0.900   0.463   0.664
 3061W        W 7261   2.325   7.211   9.923
 3062W        W 7262   1.187   1.180   9.179
 3063W        W 7263   4.423   2.669  11.411
 3064W        W 7264   3.700  11.381   9.084
 3065W        W 7265  10.409   8.173  11.483
 3066W        W 7266  10.941   2.740   0.211
 3067W        W 7267   9.937   4.871   3.459
 3068W        W 7268   8.883   7.252   0.325
 3069W        W 7269   2.772   1.813  11.644
 3070W        W 7270   7.478  10.384   9.796
 3071W        W 7271   9.498   8.891   8.943
 3072W        W 7272   7.444   6.775   3.188
 3073W        W 7273   5.523  10.760   1.901
 3074W        W 7274   1.460   5.261  11.483
 3075W        W 7275   0.017  10.084   2.015
 3076W        W 7276   5.534   0.620  10.154
 3077W        W 7277   5.827   7.568   0.802
 3078W        W 7278   5.239   3.756   2.249
 3079W        W 7279  10.544   1.417   2.918
 3080W        W 7280   8.178   5.045  10.469
 3081W        W 7281   6.669  10.474   1.229
 3082W        W 7282   6.755   3.764  11.331
 3083W        W 7283   6.059  11.011   1.269
 3084W        W 7284   9.863   4.693  11.569
 3085W        W 7285  11.343   9.243   3.431
 3086W        W 7286   0.507   5.923  10.846
 3087W        W 7287   7.464   8.522  11.471
 3088W        W 7288   5.179   5.726   9.677
 3089W        W 7289   8.063   0.018   3.438
 3090W        W 7290   2.673  10.187  10.262
 3091W        W 7291   8.317   0.782  11.208
 3092W        W 7292   9.429   7.374   1.055
 3093W        W 7293   8.957   1.596   9.332
 3094W        W 7294   5.607   4.480   1.084
 3095W        W 7295   2.926   4.634   8.622
 3096W        W 7296   5.322  10.980   9.781
 3097W        W 7297   1.843   6.561   2.784
 3098W        W 7298   4.158  11.440   8.864
 3099W        W 7299   6.597   9.860   8.945
 3100W        W 7300   5.820   6.048  11.540
 3101W        W 7301   0.851   2.655  10.712
 3102W        W 7302   4.575   5.456   1.450
 3103W        W 7303   4.278   7.838  10.077
 3104W        W 7304   2.836   7.519   2.096
 3105W        W 7305   1.438   8.138  10.525
 3106W        W 7306   7.505   2.756   1.647
 3107W        W 7307  11.386   1.247   0.044
 3108W        W 7308   8.038   0.821   1.983
 3109W        W 7309   6.130   0.450  11.775
 3110W        W 7310   5.253  10.497   1.057
 3111W        W 7311   8.121   2.445  11.930
 3112W        W 7312   7.047   4.076   1.080
 3113W        W 7313   3.242   8.671   9.369
 3114W        W 7314   3.591   5.761  11.866
 3115W        W 7315   5.810  10.766   0.279
 3116W        W 7316   4.041   0.787  10.432
 3117W        W 7317  11.395   5.199   9.749
 3118W        W 7318   6.444   4.771  11.707
 3119W        W 7319   1.194   8.590   9.339
 3120W        W 7320   3.266   7.913   0.369
 3121W        W 7321   3.271   8.208   1.265
 3122W        W 7322   1.804  11.220  10.568
 3123W        W 7323   4.571   0.008   0.896
 3124W        W 7324   8.496  11.317   2.629
 3125W        W 7325   6.161   1.293   0.742
 3126W        W 7326   0.901   7.256   4.032
 3127W        W 7327   0.376   3.804   1.004
 3128W        W 7328   3.733   3.201  11.885
 3129W        W 7329   1.632  10.308   9.018
 3130W        W 7330   3.538  11.255   3.049
 3131W        W 7331  11.041   8.729   0.575
 3132W        W 7332   5.704   2.299   9.200
 3133W        W 7333   2.533   5.081   3.784
 3134W        W 7334   6.752  10.530   9.078
 3135W        W 7335   5.744   2.825  10.017
 3136W        W 7336   3.967   4.682   9.822
 3137W        W 7337   4.543   9.097   0.276
 3138W        W 7338   7.766   8.322   9.235
 3139W        W 7339   0.256   0.855  10.274
 3140W        W 7340  11.468   1.242   1.303
 3141W        W 7341  11.111  10.752   3.538
 3142W        W 7342   1.288  11.364  10.500
 3143W        W 7343   6.851   7.867   2.338
 3144W        W 7344   6.497   4.496   2.609
 3145W        W 7345   1.028   4.514   1.333
 3146W        W 7346   4.265  10.331   2.017
 3147W        W 7347   0.626  10.054   0.195
 3148W        W 7348   1.419   9.525  11.018
 3149W        W 7349   8.966   1.080   9.185
 3150W        W 7350   2.925   0.289   0.247
 3151W        W 7351  11.307   8.725   3.378
 3152W        W 7352  11.199   4.564   3.429
 3153W        W 7353  11.210   4.348   9.876
 3154W        W 7354   1.911   1.870   0.043
 3155W        W 7355   6.968   9.801   0.916
 3156W        W 7356   5.293   8.949  10.994
 3157W        W 7357   1.889   3.882   0.872
 3158W        W 7358  10.492   8.444  11.924
 3159W        W 7359   4.395   9.941   9.243
 3160W        W 7360   2.561   1.219   2.388
 3161W        W 7361   8.443   5.566   9.006
 3162W        W 7362   1.553  10.405   0.993
 3163W        W 7363   3.738   1.763  10.425
 3164W        W 7364   5.605   1.672   1.615
 3165W        W 7365   8.159   1.050   2.441
 3166W        W 7366  10.534   9.335   0.183
 3167W        W 7367   6.241   5.078  10.472
 3168W        W 7368   3.597  10.977   9.460
 3169W        W 7369   8.491   2.671   9.999
 3170W        W 7370   2.298   8.674   9.125
 3171W        W 7371  10.877   9.511   3.421
 3172W        W 7372   9.339   4.287   9.624
 3173W        W 7373   5.741   7.988   9.092
 3174W        W 7374   3.154   6.952   1.043
 3175W        W 7375   9.987   4.550  10.177
 3176W        W 7376   2.826   2.803   0.482
 3177W        W 7377   5.586   2.850   3.389
 3178W        W 7378   6.962   0.782  10.240
 3179W        W 7379  11.470  10.955   2.262
 3180W        W 7380   2.113   6.116  11.767
 3181W        W 7381  11.343   7.607   1.619
 3182W        W 7382   1.684   0.697   9.173
 3183W        W 7383  10.584   8.861   1.396
 3184W        W 7384   3.204   8.874   1.984
 3185W        W 7385   6.081   8.303   1.772
 3186W        W 7386   0.364  11.074   1.313
 3187W        W 7387   5.995  10.911  11.442
 3188W        W 7388   9.872   2.228  11.776
 3189W        W 7389   8.929   0.878  10.738
 3190W        W 7390   8.611   3.791   2.676
 3191W        W 7391   1.228   6.548   3.538
 3192W        W 7392   8.874   1.224   9.680
 3193W        W 7393   3.815   7.787  11.433
 3194W        W 7394   8.310   9.552   2.015
 3195W        W 7395   9.311   7.843   1.847
 3196W        W 7396   0.955   9.878   9.381
 3197W        W 7397   8.784   4.552   1.260
 3198W        W 7398   1.098  11.310  11.940
 3199W        W 7399   1.199   1.003   2.628
 3200W        W 7400   5.748   3.260   8.382
 3201W        W 7401   9.926   6.175   9.848
 3202W        W 7402   5.648   0.930   2.211
 3203W        W 7403   2.697   7.175  11.738
 3204W        W 7404   5.756  11.273   0.414
 3205W        W 7405   2.646   2.842   9.453
 3206W        W 7406   3.828   2.607   3.222
 3207W        W 7407  10.940   8.965   9.294
 3208W        W 7408   2.193  11.238   2.768
 3209W        W 7409   9.072   4.720   9.681
 3210W        W 7410   8.133   9.385   1.567
 3211W        W 7411   7.541   9.049   2.924
 3212W        W 7412   1.999   7.636   2.634
 3213W        W 7413   8.698  11.320   0.392
 3214W        W 7414   0.791   1.593  11.346
 3215W        W 7415   8.448   0.575   1.732
 3216W        W 7416   7.504   7.988   1.006
 3217W        W 7417   4.000   2.831   9.565
 3218W        W 7418   0.832   8.803   0.060
 3219W        W 7419  10.772   4.863  11.449
 3220W        W 7420  11.278   8.181   0.367
 3221W        W 7421   2.737   1.531  11.219
 3222W        W 7422   6.606   0.754   2.766
 3223W        W 7423   4.188   0.994   3.340
 3224W        W 7424  10.813  10.797  10.898
 3225W        W 7425   7.259   1.347   9.579
 3226W        W 7426  10.924   2.550   9.707
 3227W        W 7427   9.432   6.622   0.321
 3228W        W 7428   1.864   2.910   2.703
 3229W        W 7429   3.476   4.397   0.455
 3230W        W 7430   9.565   6.552   0.812
 3231W        W 7431  10.237   1.273   3.337
 3232W        W 7432   7.514   9.422  11.290
 3233W        W 7433   9.891   9.483  10.525
 3234W        W 7434   3.917  10.062   9.337
 3235W        W 7435   3.442   7.966   1.743
 3236W        W 7436  10.584   1.832   9.193
 3237W        W 7437  10.789   0.838   3.459
 3238W        W 7438   3.602   8.950   0.552
 3239W        W 7439   6.978   4.322   2.783
 3240W        W 7440   3.140   3.216   0.456
 3241W        W 7441   6.515   9.199   8.475
 3242W        W 7442   6.107   5.215  11.894
 3243W        W 7443   4.331   8.614   2.574
 3244W        W 7444   6.282  11.299   0.376
 3245W        W 7445   3.657   6.503   2.137
 3246W        W 7446   2.813   4.331   0.935
 3247W        W 7447   1.243  10.071   1.266
 3248W        W 7448  11.316  10.292   9.948
 3249W        W 7449   8.081  10.312  11.280
 3250W        W 7450   0.931   5.626   9.956
 3251W        W 7451   8.421   7.086   9.822
 3252W        W 7452   0.779   7.781  10.879
 3253W        W 7453   3.949   3.205   0.895
 3254W        W 7454   6.394   5.754  10.546
 3255W        W 7455  10.425   9.785   0.929
 3256W        W 7456   0.781   9.971   0.675
 3257W        W 7457   0.401  11.039   9.952
 3258W        W 7458   4.649   4.392  10.011
 3259W        W 7459   0.854   1.260  11.722
 3260W        W 7460  11.492   0.165   0.712
 3261W        W 7461  10.918   1.261   3.219
 3262W        W 7462   1.903  10.475   3.104
 3263W        W 7463   6.306   6.029   1.216
 3264W        W 7464   0.319  11.467  10.246
 3265W        W 7465  10.258   0.537   2.750
 3266W        W 7466   5.368  10.090   0.758
 3267W        W 7467   5.992  11.345   2.882
 3268W        W 7468   2.790   9.392   9.237
 3269W        W 7469   8.375   9.271   3.249
 3270W        W 7470   9.917   2.833   0.458
 3271W        W 7471   9.394   0.026   1.446
 3272W        W 7472   5.064  11.474   2.482
 3273W        W 7473   9.667   0.055   0.152
 3274W        W 7474   8.407   8.619   2.060
 3275W        W 7475   3.335   8.464   2.817
 3276W        W 7476   0.376   6.080   0.744
 3277W        W 7477   4.210   6.539   8.574
 3278W        W 7478   5.056   2.370   9.987
 3279W        W 7479   1.146   8.765   2.905
 3280W        W 7480   2.595   8.459   3.324
 3281W        W 7481   0.379  11.034   8.454
 3282W        W 7482   7.502   1.426   1.181
 3283W        W 7483   1.375   2.244   3.328
 3284W        W 7484   9.965   7.185   9.950
 3285W        W 7485   1.297   0.596   2.366
 3286W        W 7486   2.685   3.466   1.027
 3287W        W 7487  11.298   6.868   0.366
 3288W        W 7488   7.469   8.190   0.313
 3289W        W 7489   6.973  10.175   0.066
 3290W        W 7490   0.469   0.460   1.461
 3291W        W 7491   5.512   3.253   0.091
 3292W        W 7492   8.647   5.971  10.075
 3293W        W 7493   2.211   4.115   1.751
 3294W        W 7494   0.397   2.967  11.847
 3295W        W 7495   7.674   0.075   1.685
 3296W        W 7496   1.929   5.138   2.331
 3297W        W 7497   7.473   2.675   2.161
 3298W        W 7498   1.406   6.930   9.513
 3299W        W 7499   8.497   0.282   2.908
 3300W        W 7500   1.561   9.451   0.845
 3301W        W 7501  11.334   1.615   0.417
 3302W        W 7502   6.606   7.098   9.658
 3303W        W 7503   9.051   8.900  11.237
 3304W        W 7504   3.745   4.635   0.827
 3305W        W 7505   1.804   0.462  10.015
 3306W        W 7506   8.382   8.890   9.419
 3307W        W 7507   1.045   7.946  11.747
 3308W        W 7508   0.440   5.555  10.480
 3309W        W 7509   2.951   9.516   9.885
 3310W        W 7510  10.852   0.671   8.940
 3311W        W 7511   3.242   8.204  10.092
 3312W        W 7512   7.473   0.530   0.262
 3313W        W 7513  11.316   6.446  10.460
 3314W        W 7514   3.169   1.266   1.548
 3315W        W 7515   3.190   7.694  10.801
 3316W        W 7516   6.678   9.063   2.414
 3317W        W 7517   8.054   0.512   0.301
 3318W        W 7518   1.880   3.083   1.278
 3319W        W 7519   4.978  10.350   0.502
 3320W        W 7520  10.296   3.693   8.657
 3321W        W 7521   3.889   2.337   0.905
 3322W        W 7522   7.541   5.627   1.574
 3323W        W 7523   1.380   8.914   1.966
 3324W        W 7524   6.213  10.137   1.183
 3325W        W 7525  10.589   6.085   0.676
 3326W        W 7526   3.980   2.201   3.526
 3327W        W 7527   9.766   3.066   1.859
 3328W        W 7528   0.186   4.504   2.967
 3329W        W 7529   0.552   3.889  10.579
 3330W        W 7530   6.050  10.584   1.017
 3331W        W 7531  10.479  11.208   0.496
 3332W        W 7532  10.360  10.462   9.214
 3333W        W 7533   4.362   5.994  11.183
 3334W        W 7534   9.348   1.005   9.558
 3335W        W 7535   3.069   1.450  10.562
 3336W        W 7536   4.735   6.794   9.489
 3337W        W 7537   4.577   1.120   2.942
 3338W        W 7538  10.719   3.620   2.662
 3339W        W 7539   0.609   9.064  10.499
 3340W        W 7540   8.536   1.438   8.476
 3341W        W 7541   0.876   0.491   3.137
 3342W        W 7542   0.435   2.247   8.764
 3343W        W 7543   6.180  11.476   9.873
 3344W        W 7544   4.082   1.604   1.314
 3345W        W 7545   9.940   6.663  11.281
 3346W        W 7546   4.058   5.045   0.052
 3347W        W 7547   8.050  10.536   1.430
 3348W        W 7548   7.267   5.467   1.044
 3349W        W 7549  11.360   6.017   2.396
 3350W        W 7550   9.470   8.425   2.784
 3351W        W 7551   0.577   7.497  11.273
 3352W        W 7552   7.472   6.044   1.899
 3353W        W 7553   2.994   9.678   3.540
 3354W        W 7554   6.777   4.216   2.274
 3355W        W 7555   3.439   6.554   2.644
 3356W        W 7556   4.995   7.530   1.295
 3357W        W 7557   0.873   8.424  11.711
 3358W        W 7558   7.414   9.905  10.041
 3359W        W 7559   0.941   5.676  10.470
 3360W        W 7560   7.996   8.931   3.173
 3361W        W 7561   5.707   3.123  11.176
 3362W        W 7562  11.462   2.821   2.959
 3363W        W 7563   5.201  10.536  11.106
 3364W        W 7564   2.261   8.588   0.780
 3365W        W 7565   0.378   1.759  11.598
 3366W        W 7566   2.891   7.166  10.794
 3367W        W 7567   8.355   5.656   2.758
 3368W        W 7568   0.956   8.036   1.487
 3369W        W 7569   6.716   9.134   4.161
 3370W        W 7570   1.103  11.244   0.467
 3371W        W 7571   6.586   3.054   0.047
 3372W        W 7572   9.167   6.437   1.809
 3373W        W 7573   2.838   2.958   1.934
 3374W        W 7574   6.504   4.366   9.813
 3375W        W 7575   3.201   3.487   3.213
 3376W        W 7576   4.754   0.769  11.300
 3377W        W 7577   9.371   4.104  10.634
 3378W        W 7578   7.786   3.368   8.732
 3379W        W 7579   3.794   6.467   9.462
 3380W        W 7580  10.323   9.500  11.746
 3381W        W 7581   3.825   4.122   2.639
 3382W        W 7582   4.523   7.307   9.435
 3383W        W 7583   6.938   0.486   9.592
 3384W        W 7584   1.053   6.224   8.800
 3385W        W 7585   1.283   2.438  10.920
 3386W        W 7586   4.897   6.550  10.606
 3387W        W 7587   9.369   2.318  11.627
 3388W        W 7588  10.935   6.731   2.665
 3389W        W 7589   4.276   5.292   1.859
 3390W        W 7590   5.036   2.375   1.856
 3391W        W 7591   5.475   4.971   2.793
 3392W        W 7592   9.785   9.953  11.269
 3393W        W 7593   4.409   7.065   0.618
 3394W        W 7594   8.256   6.971   3.357
 3395W        W 7595  10.853  11.039  11.846
 3396W        W 7596  10.502   6.093   3.288
 3397W        W 7597   5.248   2.233   8.962
 3398W        W 7598   7.029   1.021   8.822
 3399W        W 7599   7.060   2.863  11.254
 3400W        W 7600   6.787   7.048  10.187
 3401W        W 7601   5.241   5.728   0.841
 3402W        W 7602  10.043   7.175  10.796
 3403W        W 7603   9.026   6.213   9.774
 3404W        W 7604   4.183   1.945   1.691
 3405W        W 7605   2.954   8.646   9.924
 3406W        W 7606   0.409   9.562   8.527
 3407W        W 7607   9.924   8.660   8.751
 3408W        W 7608   6.506   9.642   9.414
 3409W        W 7609   3.108   1.688   1.881
 3410W        W 7610   8.453   2.559   8.534
 3411W        W 7611   5.241   1.428   9.205
 3412W        W 7612   4.144   3.187   9.894
 3413W        W 7613   9.513  10.277  10.950
 3414W        W 7614   3.015   3.166  10.645
 3415W        W 7615   3.564   8.563   0.238
 3416W        W 7616   1.371   2.638   9.903
 3417W        W 7617   1.786   7.654  10.404
 3418W        W 7618   4.103   6.736  10.835
 3419W        W 7619   7.836   6.926   1.548
 3420W        W 7620   1.937   2.857   1.791
 3421W        W 7621   8.425   6.305   0.822
 3422W        W 7622   6.682  11.272   2.366
 3423W        W 7623   2.757   2.562   9.050
 3424W        W 7624   2.330   6.904   9.494
 3425W        W 7625   4.315   0.373  10.603
 3426W        W 7626   3.113  10.832   9.560
 3427W        W 7627   7.103   5.012   0.093
 3428W        W 7628  10.818   9.005   0.959
 3429W        W 7629   9.594   1.485   2.628
 3430W        W 7630   4.244   9.950   2.823
 3431W        W 7631   0.700   0.899   2.712
 3432W        W 7632   6.732  10.607   3.210
 3433W        W 7633  10.941  10.907   0.337
 3434W        W 7634  10.936   8.077   2.708
 3435W        W 7635   5.829   6.680  10.922
 3436W        W 7636   8.961   4.406  11.387
 3437W        W 7637   2.196   8.378   9.508
 3438W        W 7638   4.120   3.051   3.244
 3439W        W 7639   2.497   2.202   2.321
 3440W        W 7640   4.151   3.652  10.127
 3441W        W 7641   6.546  10.506  10.174
 3442W        W 7642   3.471   8.754   2.413
 3443W        W 7643   6.624   5.194  11.986
 3444W        W 7644   9.883   2.700   9.595
 3445W        W 7645  10.822   8.950  11.235
 3446W        W 7646   1.337   5.205   0.357
 3447W        W 7647   7.204   6.976   0.928
 3448W        W 7648   2.323   1.068   1.942
 3449W        W 7649   8.668   7.793   0.892
 3450W        W 7650   7.001   3.916  11.762
 3451W        W 7651   7.107   8.566   3.441
 3452W        W 7652   9.803   4.563   1.024
 3453W        W 7653   8.633  11.223   1.283
 3454W        W 7654   1.681   0.834   9.654
 3455W        W 7655   8.093   0.984   3.440
 3456W        W 7656   8.197  10.477  10.813
 3457W        W 7657  10.852   5.738   3.126
 3458W        W 7658   2.064   4.955   3.598
 3459W        W 7659   5.277   7.871  10.282
 3460W        W 7660   1.772   2.709   9.596
 3461W        W 7661   0.098   1.750  10.555
 3462W        W 7662   9.416   2.727   3.019
 3463W        W 7663   3.409   1.235   9.278
 3464W        W 7664   7.109   3.930   1.991
 3465W        W 7665   8.746   5.133   8.949
 3466W        W 7666   0.271   8.285   0.244
 3467W        W 7667   7.698   8.041  11.258
 3468W        W 7668   5.161   6.850   2.488
 3469W        W 7669   2.445   9.474  10.166
 3470W        W 7670   6.700   6.920  10.703
 3471W        W 7671   5.070   4.232   2.403
 3472W        W 7672   0.042   9.640  10.910
 3473W        W 7673   5.922   7.498   3.136
 3474W        W 7674  11.388   8.794   9.048
 3475W        W 7675   7.744   8.549  11.934
 3476W        W 7676   5.161   9.384   1.849
 3477W        W 7677   1.769   9.487   3.067
 3478W        W 7678   3.033   5.261   0.637
 3479W        W 7679   5.968   6.068   0.055
 3480W        W 7680  10.852   4.519   9.498
 3481W        W 7681   9.011   6.708   1.408
 3482W        W 7682   0.785  10.802   1.183
 3483W        W 7683   5.983   0.810  10.332
 3484W        W 7684  11.474   1.281  10.803
 3485W        W 7685   9.569   5.409  10.937
 3486W        W 7686   4.308   9.453   9.457
 3487W        W 7687  10.291   2.785   8.946
 3488W        W 7688   4.025   5.549   2.376
 3489W        W 7689  10.822   8.192  10.125
 3490W        W 7690   4.690   0.823   3.329
 3491W        W 7691   1.377   6.101  11.136
 3492W        W 7692   6.029   6.478  11.773
 3493W        W 7693   9.773   4.085  10.306
 3494W        W 7694   8.332   1.437   0.855
 3495W        W 7695   5.741   5.743   0.981
 3496W        W 7696   3.569   8.312   2.147
 3497W        W 7697   8.538   4.692   3.192
 3498W        W 7698   1.221   8.646   0.433
 3499W        W 7699   8.871  10.460   0.451
 3500W        W 7700   0.820   4.725   2.176
 3501W        W 7701   0.535  10.589  10.908
 3502W        W 7702  10.041   1.716   9.571
 3503W        W 7703   4.311   3.703   9.644
 3504W        W 7704   2.421   2.995   3.275
 3505W        W 7705   3.312   9.574   8.775
 3506W        W 7706   2.387   5.328  10.974
 3507W        W 7707   9.368   7.019   0.679
 3508W        W 7708   7.503   4.592   2.803
 3509W        W 7709  11.081  11.378   8.523
 3510W        W 7710   1.589   8.636   3.174
 3511W        W 7711  10.849   8.356   1.286
 3512W        W 7712   6.788   5.251   1.883
 3513W        W 7713  11.312   5.757   1.914
 3514W        W 7714   8.305  11.193  10.500
 3515W        W 7715   2.790   5.038  10.877
 3516W        W 7716   2.264   6.631  11.288
 3517W        W 7717   1.593   8.528   2.318
 3518W        W 7718   3.034  10.566   0.753
 3519W        W 7719   3.267   5.605   9.034
 3520W        W 7720   1.031  10.719  11.002
 3521W        W 7721   1.821   6.589  11.548
 3522W        W 7722   8.139   8.432   3.207
 3523W        W 7723   4.596   9.028   9.379
 3524W        W 7724  11.348   3.310   9.554
 3525W        W 7725   3.190   4.169  11.991
 3526W        W 7726   9.043   2.297   2.230
 3527W        W 7727   1.287   0.731  11.390
 3528W        W 7728   3.130   4.759   9.520
 3529W        W 7729   5.260   1.403   0.427
 3530W        W 7730   9.328   4.687   2.318
 3531W        W 7731   0.480   0.250   2.866
 3532W        W 7732   0.738   6.401  11.136
 3533W        W 7733   3.747   2.628   2.694
 3534W        W 7734   1.060  10.402   0.894
 3535W        W 7735   6.137   7.679   8.914
 3536W        W 7736   0.729   3.329  11.976
 3537W        W 7737   1.737   9.828   8.845
 3538W        W 7738   4.311   1.858   0.390
 3539W        W 7739   3.318   4.610  10.347
 3540W        W 7740  10.431  10.885   0.091
 3541W        W 7741   6.571   9.298  11.188
 3542W        W 7742   8.159   2.152  11.524
 3543W        W 7743   0.940   3.760  11.234
 3544W        W 7744   4.624   1.503  11.934
 3545W        W 7745   5.238  10.619   9.296
 3546W        W 7746   8.866  10.412   2.275
 3547W        W 7747  11.143   5.190   0.007
 3548W        W 7748   8.068  10.370   2.927
 3549W        W 7749   9.372   5.534   2.477
 3550W        W 7750   1.630   1.852  11.608
 3551W        W 7751   6.441   9.365   8.946
 3552W        W 7752   5.995  10.427  10.354
 3553W        W 7753   7.884   8.923   1.729
 3554W        W 7754  10.962   7.422   1.343
 3555W        W 7755   1.872   8.968   2.360
 3556W        W 7756   4.951   8.303  11.745
 3557W        W 7757  10.172  11.399   0.102
 3558W        W 7758   6.699  11.296   1.850
 3559W        W 7759   4.771   9.880   9.569
 3560W        W 7760   8.581  10.336  11.101
 3561W        W 7761   5.388   7.273   3.293
 3562W        W 7762   6.302   3.852   1.383
 3563W        W 7763   2.724   3.052  11.067
 3564W        W 7764  11.373   5.576   0.900
 3565W        W 7765   7.939   3.227   9.588
 3566W        W 7766   5.251  11.101   3.233
 3567W        W 7767   1.299   0.098   2.307
 3568W        W 7768   1.346   9.163   3.158
 3569W        W 7769   7.129   7.409   2.115
 3570W        W 7770   4.093   6.475  11.771
 3571W        W 7771  10.975   1.873   1.720
 3572W        W 7772   9.262   0.010   3.630
 3573W        W 7773   6.174   2.487   8.642
 3574W        W 7774   6.701   9.919   2.494
 3575W        W 7775   3.629   3.594   8.984
 3576W        W 7776   3.112  10.049   9.994
 3577W        W 7777   8.131   0.217   0.718
 3578W        W 7778  10.006  10.329   8.839
 3579W        W 7779   8.698   2.404   2.582
 3580W        W 7780   0.393   2.294   1.311
 3581W        W 7781   3.663   0.372   9.231
 3582W        W 7782  11.425  11.028   8.697
 3583W        W 7783  11.027   2.321   2.293
 3584W        W 7784   1.843   6.035  10.856
 3585W        W 7785   3.444   8.600   9.835
 3586W        W 7786   2.585   7.098   1.937
 3587W        W 7787   9.946   4.834   0.625
 3588W        W 7788   7.727   8.835   2.221
 3589W        W 7789  11.330  10.563   1.990
 3590W        W 7790   0.921   5.430   1.623
 3591W        W 7791   6.979   1.888   0.649
 3592W        W 7792   1.985   2.293  11.755
 3593W        W 7793   6.540   5.687   1.518
 3594W        W 7794   9.118   3.452  11.207
 3595W        W 7795   3.512   7.487   2.613
 3596W        W 7796   3.587   7.080  10.185
 3597W        W 7797   7.270   6.223  11.014
 3598W        W 7798   4.006   9.331   8.521
 3599W        W 7799   6.150   2.818   0.738
 3600W        W 7800   9.544   9.054  11.761
 3601W        W 7801   2.397   9.158   8.981
 3602W        W 7802   9.205   5.791   3.025
 3603W        W 7803   4.993   6.660  11.238
 3604W        W 7804   4.247   4.724  11.248
 3605W        W 7805   5.352   8.845  11.898
 3606W        W 7806   3.234   7.911   2.232
 3607W        W 7807   8.453   1.808   0.514
 3608W        W 7808  11.339   7.848   3.030
 3609W        W 7809   1.001   8.266  10.819
 3610W        W 7810   1.132   4.270  11.283
 3611W        W 7811   6.100   5.286   9.480
 3612W        W 7812   6.671  10.209   0.807
 3613W        W 7813   6.805   0.297  10.068
 3614W        W 7814   5.623   4.068   9.817
 3615W        W 7815   4.602   1.620   2.936
 3616W        W 7816   8.073   8.128   0.990
 3617W        W 7817   1.903  10.305   0.228
 3618W        W 7818   1.315   2.721   9.340
 3619W        W 7819   6.489   2.633   2.336
 3620W        W 7820   4.103   7.569   9.648
 3621W        W 7821   2.297   5.561  10.432
 3622W        W 7822   9.544   8.262  10.734
 3623W        W 7823   1.880   7.007   9.267
 3624W        W 7824   9.962   0.870   0.590
 3625W        W 7825   6.178   8.533   2.231
 3626W        W 7826  11.310   1.104   0.535
 3627W        W 7827   7.485   7.674   0.226
 3628W        W 7828  11.070   6.165   0.865
 3629W        W 7829   2.140   9.012   0.507
 3630W        W 7830   8.386   6.891   2.326
 3631W        W 7831   3.242   4.702   2.097
 3632W        W 7832  10.952   1.393   1.445
 3633W        W 7833   4.675   1.908   0.914
 3634W        W 7834   5.648   0.637   1.789
 3635W        W 7835   3.206   7.571   3.037
 3636W        W 7836   1.064   7.634  11.335
 3637W        W 7837  10.028   9.930   3.253
 3638W        W 7838   5.765   2.214   2.348
 3639W        W 7839   9.043  10.818   1.533
 3640W        W 7840   6.548   8.173   2.911
 3641W        W 7841   1.831  10.406  10.735
 3642W        W 7842   9.944   8.750   0.083
 3643W        W 7843   1.743   4.244   9.924
 3644W        W 7844   4.260   8.495   0.945
 3645W        W 7845   9.858   5.681  11.285
 3646W        W 7846   0.181   1.714   0.057
 3647W        W 7847   3.656  10.468   9.480
 3648W        W 7848   8.514  10.849   0.443
 3649W        W 7849   5.016   3.877   9.209
 3650W        W 7850   8.029   0.039   2.436
 3651W        W 7851   5.453   7.448   0.355
 3652W        W 7852  10.437   0.838  10.955
 3653W        W 7853   8.225   1.896   0.070
 3654W        W 7854   0.689   0.056  11.062
 3655W        W 7855   8.084  10.341   3.436
 3656W        W 7856   8.552   6.613   3.132
 3657W        W 7857  10.958   8.585  10.884
 3658W        W 7858   1.332   0.284   2.815
 3659W        W 7859   5.036   5.241  10.441
 3660W        W 7860   8.544   4.631  11.083
 3661W        W 7861   2.326   5.221   2.669
 3662W        W 7862   9.333   2.359   9.131
 3663W        W 7863   4.059   1.227   9.046
 3664W        W 7864   2.606   6.560   2.284
 3665W        W 7865   7.296   7.962  10.951
 3666W        W 7866   5.095   3.871   2.740
 3667W        W 7867   4.490   9.882   1.869
 3668W        W 7868   8.356  11.449   9.248
 3669W        W 7869   8.458   0.307   8.909
 3670W        W 7870   0.894   2.283   1.437
 3671W        W 7871   2.864  10.522   9.927
 3672W        W 7872   5.107   3.251   0.457
 3673W        W 7873   9.633   3.482   9.414
 3674W        W 7874  10.059   7.181   2.824
 3675W        W 7875  10.605   2.668  11.842
 3676W        W 7876   5.056   3.055   3.190
 3677W        W 7877   6.331   6.585  10.843
 3678W        W 7878   0.356  10.831   0.876
 3679W        W 7879  11.395   3.074   0.072
 3680W        W 7880   1.257   0.360   9.107
 3681W        W 7881  11.218   2.346   1.830
 3682W        W 7882   3.781   5.227   2.060
 3683W        W 7883   2.374   3.105   1.767
 3684W        W 7884   4.298   9.252  10.948
 3685W        W 7885   6.013   5.308  10.874
 3686W        W 7886   5.667   1.348   3.589
 3687W        W 7887   3.315   8.660  10.849
 3688W        W 7888   8.725   5.148   1.954
 3689W        W 7889   6.288   3.988  10.611
 3690W        W 7890   2.332  10.366   1.339
 3691W        W 7891   4.895   4.086   3.143
 3692W        W 7892   8.143  10.752   0.076
 3693W        W 7893   7.293   2.130  10.901
 3694W        W 7894   2.835  11.026   9.942
 3695W        W 7895   6.499   5.679   2.016
 3696W        W 7896   7.083   7.559  11.327
 3697W        W 7897   4.359   5.979   1.533
 3698W        W 7898   9.722   0.105   3.341
 3699W        W 7899   4.186   9.021   1.754
 3700W        W 7900   9.497   4.518   2.786
 3701W        W 7901   3.387   2.274  11.004
 3702W        W 7902   6.140   5.627   9.885
 3703W        W 7903   2.385   7.973  11.512
 3704W        W 7904   2.272   5.676  11.959
 3705W        W 7905   0.352   6.587   9.175
 3706W        W 7906   9.964   1.037  11.017
 3707W        W 7907   0.441  11.362   1.759
 3708W        W 7908  11.378   2.663  10.347
 3709W        W 7909   7.951   6.652   3.710
 3710W        W 7910   2.676   6.660  10.815
 3711W        W 7911   3.166   5.896   2.017
 3712W        W 7912   5.752   6.715   1.637
 3713W        W 7913  11.357   9.068   2.948
 3714W        W 7914   1.113   2.960  11.768
 3715W        W 7915  11.041   7.931   9.337
 3716W        W 7916   5.663   9.419   1.721
 3717W        W 7917   3.837   2.458  11.230
 3718W        W 7918   9.574   5.214   0.737
 3719W        W 7919   8.524   7.437   1.377
 3720W        W 7920   9.523   3.270  11.558
 3721W        W 7921   2.299   3.584  10.522
 3722W        W 7922   9.664   9.634   3.461
 3723W        W 7923   8.592  11.308  10.928
 3724W        W 7924   7.108   2.655  10.316
 3725W        W 7925   3.151   6.167   2.870
 3726W        W 7926   1.128   0.900   0.428
 3727W        W 7927   8.545   5.660   1.850
 3728W        W 7928  10.071   6.139   2.599
 3729W        W 7929   4.162   7.736  10.977
 3730W        W 7930  10.422  11.499   0.921
 3731W        W 7931   0.130   2.643   8.508
 3732W        W 7932   6.124   2.784  11.306
 3733W        W 7933   4.252   0.061   0.449
 3734W        W 7934   6.284   6.937   1.315
 3735W        W 7935   6.071   4.812   1.778
 3736W        W 7936   7.768   5.572   1.120
 3737W        W 7937   7.298   9.389   0.988
 3738W        W 7938   5.157   9.197   0.710
 3739W        W 7939   1.896  10.038   1.835
 3740W        W 7940   5.284   4.655  10.277
 3741W        W 7941   4.300   3.800   0.235
 3742W        W 7942   3.087   2.563   9.471
 3743W        W 7943   6.901   4.709   9.859
 3744W        W 7944   5.071   9.683   0.683
 3745W        W 7945   5.191   0.874   3.012
 3746W        W 7946   9.388   3.560   2.913
 3747W        W 7947   0.275   6.342  10.668
 3748W        W 7948   0.802  11.271   1.425
 3749W        W 7949   3.268   4.244  11.059
 3750W        W 7950   4.042   0.308  10.168
 3751W        W 7951   0.470   5.752   1.562
 3752W        W 7952  10.834   3.229   0.015
 3753W        W 7953   8.152   8.182   2.766
 3754W        W 7954   6.230   8.304  11.831
 3755W        W 7955   9.086   6.521   9.375
 3756W        W 7956   2.160   3.887   2.642
 3757W        W 7957   3.543  10.864   1.243
 3758W        W 7958   9.634   1.903   9.823
 3759W        W 7959   8.295   4.313   2.439
 3760W        W 7960   9.483  10.782   1.852
 3761W        W 7961   9.534   8.541  11.784
 3762W        W 7962   3.305   1.943   0.294
 3763W        W 7963   3.867   9.085   2.527
 3764W        W 7964   9.274   1.385   3.066
 3765W        W 7965   6.110   0.315  10.251
 3766W        W 7966   7.619   4.607  10.966
 3767W        W 7967  10.845  11.059   0.830
 3768W        W 7968   6.049   8.118   0.711
 3769W        W 7969   6.673   4.669  11.223
 3770W        W 7970   2.223   4.257  10.096
 3771W        W 7971   8.513   3.625   9.970
 3772W        W 7972   0.744   9.778   1.164
 3773W        W 7973   3.029   0.439   2.362
 3774W        W 7974   8.423   3.606  10.545
 3775W        W 7975   2.913   5.169   2.071
 3776W        W 7976   6.090   4.109   9.132
 3777W        W 7977   9.257   5.408   3.419
 3778W        W 7978   2.579   5.681   3.115
 3779W        W 7979   6.904  10.677   8.610
 3780W        W 7980   4.177   5.637  10.257
 3781W        W 7981   6.674   3.141   2.332
 3782W        W 7982   0.808  11.235   9.497
 3783W        W 7983   0.301   7.521   8.789
 3784W        W 7984   8.016   1.898   2.438
 3785W        W 7985   9.791   7.894   0.469
 3786W        W 7986   9.814   5.969   9.397
 3787W        W 7987   3.359   3.329  11.565
 3788W        W 7988   5.633   0.885   2.731
 3789W        W 7989  10.940   9.942   3.137
 3790W        W 7990   2.149   8.262   8.714
 3791W        W 7991   8.594  10.090   9.375
 3792W        W 7992   1.821   5.983   9.105
 3793W        W 7993  11.281   7.493   2.108
 3794W        W 7994  10.073   5.348   1.507
 3795W        W 7995   7.946   8.177   9.704
 3796W        W 7996   8.011   1.935   8.928
 3797W        W 7997   9.828   0.915   2.543
 3798W        W 7998   5.698   9.893   0.432
 3799W        W 7999  10.795   2.729  11.281
 3800W        W 8000   9.781   1.534  11.789
 3801W        W 8001   9.001   2.976  11.095
 3802W        W 8002   3.400   5.678   0.574
 3803W        W 8003   0.684   1.200   9.070
 3804W        W 8004   2.558   2.232  10.443
 3805W        W 8005   1.841   3.594   1.312
 3806W        W 8006   3.632   7.863   9.563
 3807W        W 8007   7.893   7.401  10.827
 3808W        W 8008   5.239   3.502  10.527
 3809W        W 8009   4.690  10.027  10.535
 3810W        W 8010   7.961   3.819   9.070
 3811W        W 8011   3.612   8.603   1.216
 3812W        W 8012   6.667   7.391   2.312
 3813W        W 8013   7.589   7.546  11.223
 3814W        W 8014   3.135  10.462  10.345
 3815W        W 8015   0.624   2.797   1.218
 3816W        W 8016   9.797   2.367  10.399
 3817W        W 8017   8.490   9.379  11.136
 3818W        W 8018   8.514  10.571   9.512
 3819W        W 8019   4.461  11.349  10.123
 3820W        W 8020  11.208   9.143  11.530
 3821W        W 8021   1.616   9.382   3.525
 3822W        W 8022   8.106   5.461   8.240
 3823W        W 8023   2.015   8.883   9.556
 3824W        W 8024   8.748   5.325   3.371
 3825W        W 8025   8.431   8.192   1.784
 3826W        W 8026  10.948   1.227   9.664
 3827W        W 8027   9.101   8.092   2.432
 3828W        W 8028   3.989   9.999   1.744
 3829W        W 8029   8.184   5.511   9.483
 3830W        W 8030  10.693   2.311   1.889
 3831W        W 8031   7.389   4.469   1.233
 3832W        W 8032   9.463   6.964  10.827
 3833W        W 8033   0.449   6.851   2.560
 3834W        W 8034  10.378   6.552   0.480
 3835W        W 8035   1.776   4.108  11.826
 3836W        W 8036   4.671   4.098  10.898
 3837W        W 8037   0.546   5.005   3.666
 3838W        W 8038   1.824  10.254   1.378
 3839W        W 8039   7.226  11.427   0.349
 3840W        W 8040   6.296   6.993  10.052
 3841W        W 8041   9.998   9.752   8.779
 3842W        W 8042   2.494  10.532   1.798
 3843W        W 8043   8.925   2.965   0.165
 3844W        W 8044   9.401   0.391   9.350
 3845W        W 8045  10.278   1.289   1.989
 3846W        W 8046   0.801   3.487  10.826
 3847W        W 8047   6.942   1.529   2.596
 3848W        W 8048   8.441  10.512  11.565
 3849W        W 8049  11.001  10.325  10.864
 3850W        W 8050   9.504   1.924  11.961
 3851W        W 8051   3.515   3.345   2.340
 3852W        W 8052   9.991   0.397   0.361
 3853W        W 8053   3.787   8.973  11.993
 3854W        W 8054   8.985  10.358   1.353
 3855W        W 8055   3.781   0.250   0.294
 3856W        W 8056   2.306   1.413  10.035
 3857W        W 8057   9.408   3.633  10.324
 3858W        W 8058   6.992   9.480   9.566
 3859W        W 8059   8.595   5.110   4.125
 3860W        W 8060  10.142   0.806   1.487
 3861W        W 8061   1.412   1.453   2.718
 3862W        W 8062   0.805   9.380   1.483
 3863W        W 8063   7.291  10.952   0.699
 3864W        W 8064   6.467   2.339   2.758
 3865W        W 8065   9.581   1.823   3.009
 3866W        W 8066   4.977   3.382   1.931
 3867W        W 8067   2.471   1.365  11.648
 3868W        W 8068   7.183   3.473   2.215
 3869W        W 8069   8.500  10.958   9.174
 3870W        W 8070  10.437  10.962  10.587
 3871W        W 8071   9.822   3.568   1.829
 3872W        W 8072  11.385   6.673   8.913
 3873W        W 8073   0.232   9.549   3.666
 3874W        W 8074   3.545   5.405   1.373
 3875W        W 8075   6.004   1.861   9.347
 3876W        W 8076   4.714   4.303   0.922
 3877W        W 8077   6.046   1.745   0.517
 3878W        W 8078   3.139   3.445   9.133
 3879W        W 8079   6.060   7.431  10.788
 3880W        W 8080   4.506   8.883  10.581
 3881W        W 8081  10.950   9.412   0.500
 3882W        W 8082   5.129   4.667   0.701
 3883W        W 8083   4.475   8.714   8.998
 3884W        W 8084   5.782   1.870   3.155
 3885W        W 8085  10.318  10.147  11.437
 3886W        W 8086   5.735   4.377   9.415
 3887W        W 8087   9.508   7.393   8.999
 3888W        W 8088   4.769   0.691  10.766
 3889W        W 8089   4.275   4.219   9.538
 3890W        W 8090   7.224   1.827   2.962
 3891W        W 8091   1.340  10.433  11.504
 3892W        W 8092   4.472   1.262   1.289
 3893W        W 8093   4.802   3.621   9.592
 3894W        W 8094   3.379   7.123   3.267
 3895W        W 8095   9.012  10.730  11.727
 3896W        W 8096  11.218   5.764  11.336
 3897W        W 8097   4.798  10.645   0.876
 3898W        W 8098  11.316   0.167   0.205
 3899W        W 8099   4.159   9.853   9.750
 3900W        W 8100   3.598   8.076   2.613
 3901W        W 8101   3.129   9.896  11.999
 3902W        W 8102   2.703   9.083   9.937
 3903W        W 8103   9.448   9.290  10.749
 3904W        W 8104   5.537   4.704   0.160
 3905W        W 8105   8.470   0.510  11.959
 3906W        W 8106  10.892  11.253  11.377
 3907W        W 8107   8.864   5.860  11.459
 3908W        W 8108   9.547   3.631  10.844
 3909W        W 8109   6.327   5.134   2.752
 3910W        W 8110   5.229  10.128   9.457
 3911W        W 8111   0.469   3.302   0.874
 3912W        W 8112  11.415   1.342   3.130
 3913W        W 8113   8.350   1.250  10.553
 3914W        W 8114   4.912  10.848  11.782
 3915W        W 8115   1.757   0.187   9.148
 3916W        W 8116   4.634   8.417  10.736
 3917W        W 8117   5.596  11.278  10.790
 3918W        W 8118   8.560   1.742   2.568
 3919W        W 8119   6.339   7.297   0.953
 3920W        W 8120   0.278   9.015   8.776
 3921W        W 8121  10.513   2.259   2.367
 3922W        W 8122   4.217   9.471   1.999
 3923W        W 8123  10.363   8.508   2.632
 3924W        W 8124  11.320   3.836   9.951
 3925W        W 8125   7.153   0.324  11.583
 3926W        W 8126   2.255   5.760   1.964
 3927W        W 8127   0.451   3.662   1.935
 3928W        W 8128   8.045   2.224   1.247
 3929W        W 8129   7.222   7.836   9.951
 3930W        W 8130   2.743   7.979   2.335
 3931W        W 8131   7.418   5.236   2.252
 3932W        W 8132   8.413   6.428   3.580
 3933W        W 8133   7.645   5.084   2.704
 3934W        W 8134   9.668  10.253   2.043
 3935W        W 8135   6.065   7.776   1.839
 3936W        W 8136  10.439  11.475  10.757
 3937W        W 8137   5.660   1.720  11.189
 3938W        W 8138   7.218   5.198   1.577
 3939W        W 8139   8.569   1.839  11.728
 3940W        W 8140   3.287   2.711   1.832
 3941W        W 8141   0.508   4.337  10.330
 3942W        W 8142   1.230  11.037   1.574
 3943W        W 8143   3.891   4.100   0.358
 3944W        W 8144   9.466   4.789   8.333
 3945W        W 8145   9.045   4.759  11.045
 3946W        W 8146   7.658   1.027   2.496
 3947W        W 8147   4.575  10.834   8.552
 3948W        W 8148   7.196   8.424   0.905
 3949W        W 8149   7.600   8.387   3.224
 3950W        W 8150   5.425   7.766   3.106
 3951W        W 8151   6.283  11.342  11.402
 3952W        W 8152   3.792   2.789   1.664
 3953W        W 8153   7.525   3.100  11.839
 3954W        W 8154   3.261   1.827   1.414
 3955W        W 8155   7.958   3.165   1.653
 3956W        W 8156   1.975   9.434  10.367
 3957W        W 8157   1.042   5.574  10.972
 3958W        W 8158   9.324   2.863   2.079
 3959W        W 8159   2.709   7.578   3.177
 3960W        W 8160   8.457   4.299   0.003
 3961W        W 8161   7.141   7.350   1.616
 3962W        W 8162   7.153   4.563   3.632
 3963W        W 8163   6.661   3.088   1.814
 3964W        W 8164   4.187   3.842   2.859
 3965W        W 8165   4.268   8.859  10.083
 3966W        W 8166   7.873   4.450  11.715
 3967W        W 8167   2.185   7.431  10.861
 3968W        W 8168   9.523   4.614  11.937
 3969W        W 8169   2.122   6.150   2.884
 3970W        W 8170   1.343   8.657  10.613
 3971W        W 8171   8.322   5.096   9.195
 3972W        W 8172   4.778  10.390   1.331
 3973W        W 8173   6.062   3.207   9.876
 3974W        W 8174   9.049   5.573   1.617
 3975W        W 8175   8.466   7.132   1.872
 3976W        W 8176   9.069   4.682   0.349
 3977W        W 8177   5.856   2.635  10.474
 3978W        W 8178   2.087   5.640   2.960
 3979W        W 8179   1.792   8.800  11.784
 3980W        W 8180  11.430   9.022   0.452
 3981W        W 8181   0.718   7.716   2.947
 3982W        W 8182   5.135   9.957   9.935
 3983W        W 8183   8.630   9.302  10.124
 3984W        W 8184   4.790   0.736   9.004
 3985W        W 8185   7.700   2.188   9.249
 3986W        W 8186   4.846   0.825   0.617
 3987W        W 8187   7.647  11.194  11.066
 3988W        W 8188   2.370   3.818   2.186
 3989W        W 8189   8.095   7.207   1.186
 3990W        W 8190   6.742   4.989   0.556
 3991W        W 8191   6.635  10.887   2.765
 3992W        W 8192   1.270   3.794   2.452
 3993W        W 8193   0.721   5.716   0.665
 3994W        W 8194   4.704   1.731   8.928
 3995W        W 8195   8.962   9.554   2.702
 3996W        W 8196   2.034   0.491  10.531
 3997W        W 8197   6.576   1.258   9.085
 3998W        W 8198   6.134   6.943  11.986
 3999W        W 8199   8.920   7.747   0.432
 4000W        W 8200   5.281   8.035   0.039
 4001W        W 8201   2.202   0.895   1.204
 4002W        W 8202   9.475   4.613   3.327
 4003W        W 8203  10.417   0.543   9.712
 4004W        W 8204   7.466   9.226   2.416
 4005W        W 8205  11.286   1.727   1.259
 4006W        W 8206   7.613   8.462  10.986
 4007W        W 8207   1.933  10.799   2.288
 4008W        W 8208   4.366   9.544   3.128
 4009W        W 8209   4.238   2.806   2.817
 4010W        W 8210   9.623   5.988   2.354
 4011W        W 8211   7.973   3.746   9.934
 4012W        W 8212   3.339   5.419   1.905
 4013W        W 8213   4.645   4.368   2.149
 4014W        W 8214   5.911   4.047   3.068
 4015W        W 8215   7.162  10.952   2.783
 4016W        W 8216   9.318   4.616   1.354
 4017W        W 8217   2.651   7.604  10.707
 4018W        W 8218  10.714   2.177  10.632
 4019W        W 8219   1.322   2.271   0.434
 4020W        W 8220   6.068   6.421   0.950
 4021W        W 8221   3.359   1.410   3.319
 4022W        W 8222   6.561   6.993   4.003
 4023W        W 8223   5.723   8.210  10.339
 4024W        W 8224   1.340   5.176   3.343
 4025W        W 8225   2.883   9.267   8.742
 4026W        W 8226   8.248   5.655   3.329
 4027W        W 8227   0.369   2.878   3.374
 4028W        W 8228   2.930   0.795   1.695
 4029W        W 8229   5.695  10.828   8.568
 4030W        W 8230   5.929   1.293  11.290
 4031W        W 8231   6.431   6.131   1.745
 4032W        W 8232   1.277   0.808   8.847
 4033W        W 8233   9.529   4.142   0.860
 4034W        W 8234   3.876   6.886   2.408
 4035W        W 8235   4.322   8.533   9.470
 4036W        W 8236   4.609   8.032   0.490
 4037W        W 8237   3.010   5.111   0.047
 4038W        W 8238   9.375   1.370   9.093
 4039W        W 8239   6.889  10.590   0.508
 4040W        W 8240   5.692   1.152   1.676
 4041W        W 8241  11.314   6.642   1.791
 4042W        W 8242   4.043  10.561   3.547
 4043W        W 8243   3.744   0.280  11.792
 4044W        W 8244   4.038   8.509   0.021
 4045W        W 8245   2.487   0.562   9.649
 4046W        W 8246   2.745  11.388   9.030
 4047W        W 8247   1.787   3.617  11.202
 4048W        W 8248   3.659   6.386   8.609
 4049W        W 8249   1.207   1.877   1.520
 4050W        W 8250  11.299   7.499  10.063
 4051W        W 8251   6.747   7.869   8.271
 4052W        W 8252   0.413  11.267  10.732
 4053W        W 8253   8.768   7.590  11.960
 4054W        W 8254   5.526   3.032  10.684
 4055W        W 8255   6.645   1.882  10.867
 4056W        W 8256  11.279   5.140   9.229
 4057W        W 8257   8.093   9.311  11.930
 4058W        W 8258   7.450   0.529   9.487
 4059W        W 8259   3.243   4.628   0.931
 4060W        W 8260   7.688   9.993   9.518
 4061W        W 8261   4.018   8.470   9.064
 4062W        W 8262   1.766  11.170   0.488
 4063W        W 8263   9.444  11.060   8.719
 4064W        W 8264   0.547   6.181   1.881
 4065W        W 8265   5.024   3.824   1.692
 4066W        W 8266   5.533   5.200  11.860
 4067W        W 8267   2.152   8.414  11.745
 4068W        W 8268   2.319   3.408   8.612
 4069W        W 8269  10.785   5.519  10.446
 4070W        W 8270   3.994   0.935   9.516
 4071W        W 8271   7.611   3.765   1.663
 4072W        W 8272   4.741   9.116  10.193
 4073W        W 8273  10.809   3.901   0.066
 4074W        W 8274   7.950  11.192  11.882
 4075W        W 8275   5.633   0.224  10.492
 4076W        W 8276   3.076   5.133   9.170
 4077W        W 8277   6.766  10.630   0.016
 4078W        W 8278   2.225   9.885  11.862
 4079W        W 8279   4.018   3.163   2.369
 4080W        W 8280   3.233   6.364   4.016
 4081W        W 8281   7.515   0.088   2.633
 4082W        W 8282   3.093  10.007  10.545
 4083W        W 8283   2.978  10.613   1.954
 4084W        W 8284   6.814   1.985   8.405
 4085W        W 8285   8.467   7.497  11.508
 4086W        W 8286   9.546   4.577   8.791
 4087W        W 8287   6.317   8.043  11.386
 4088W        W 8288   1.033   6.273   1.936
 4089W        W 8289  11.007   1.807  11.419
 4090W        W 8290   2.646   7.492   9.401
 4091W        W 8291   8.312   7.771  11.965
 4092W        W 8292   9.533   4.907   0.340
 4093W        W 8293   0.040   2.888  10.789
 4094W        W 8294   6.720  10.287  10.587
 4095W        W 8295   3.749   3.868   8.562
 4096W        W 8296   5.766   8.845   9.466
 4097W        W 8297   3.526   5.342   3.244
 4098W        W 8298   6.633   6.822  11.199
 4099W        W 8299   0.554   9.478   0.777
 4100W        W 8300   3.723   1.694   3.069
 4101W        W 8301   0.553   3.833   0.002
 4102W        W 8302   9.768   1.932  10.859
 4103W        W 8303   5.686   2.171   0.083
 4104W        W 8304   6.496   6.625   2.767
 4105W        W 8305   2.320   4.809  11.863
 4106W        W 8306   0.779   8.518   1.755
 4107W        W 8307  11.083  10.575  11.810
 4108W        W 8308   5.007   4.734   9.845
 4109W        W 8309   2.984   0.776   8.551
 4110W        W 8310   4.476   4.834   9.822
 4111W        W 8311   0.525   7.459   3.744
 4112W        W 8312  10.887   9.516   0.982
 4113W        W 8313   9.817   9.512  11.020
 4114W        W 8314   3.965   0.001   3.236
 4115W        W 8315   9.618   5.965  10.489
 4116W        W 8316   1.954   0.815   1.690
 4117W        W 8317  11.235   2.757   2.439
 4118W        W 8318   3.190   6.657   3.110
 4119W        W 8319   9.947   7.664  10.127
 4120W        W 8320   6.842  11.189   8.600
 4121W        W 8321   2.188   1.371   0.992
 4122W        W 8322   5.285   0.961   1.375
 4123W        W 8323   0.369  10.578   1.410
 4124W        W 8324   8.465   6.184   8.674
 4125W        W 8325  10.842  10.314   8.956
 4126W        W 8326   1.732   8.522   9.305
 4127W        W 8327  10.848   7.870   0.460
 4128W        W 8328   0.057   6.217   1.960
 4129W        W 8329  11.455   7.630   9.596
 4130W        W 8330  10.008   8.499  11.223
 4131W        W 8331  11.349   4.105  11.243
 4132W        W 8332  11.480  10.078   2.801
 4133W        W 8333   6.041   3.767  10.984
 4134W        W 8334   9.814   4.098  10.907
 4135W        W 8335  10.996   6.823  10.626
 4136W        W 8336   2.432  10.521   9.148
 4137W        W 8337   4.331   4.309   0.148
 4138W        W 8338   2.779   0.752  10.994
 4139W        W 8339   6.570   1.253   2.870
 4140W        W 8340   9.412   4.050   8.553
 4141W        W 8341   6.742   2.728   3.156
 4142W        W 8342   6.583  11.048   9.845
 4143W        W 8343   8.804  11.005   0.836
 4144W        W 8344   0.161   2.658  11.522
 4145W        W 8345   6.810   0.827   0.256
 4146W        W 8346   0.309   4.363  11.264
 4147W        W 8347   1.075   4.955   1.807
 4148W        W 8348   6.709  10.346  11.600
 4149W        W 8349   4.022   4.606   0.399
 4150W        W 8350   0.955   3.355   8.881
 4151W        W 8351   0.852  10.831   0.676
 4152W        W 8352   8.190   6.646   1.851
 4153W        W 8353   1.768   9.874   1.037
 4154W        W 8354   7.726   9.605   0.785
 4155W        W 8355  10.098   1.757   0.631
 4156W        W 8356   7.584   3.999   1.166
 4157W        W 8357   9.523   6.202   0.028
 4158W        W 8358   2.825  10.849   9.118
 4159W        W 8359   1.651   4.319  11.307
 4160W        W 8360   7.032   3.224   3.289
 4161W        W 8361   3.665   6.100   2.852
 4162W        W 8362   9.412  11.206   3.239
 4163W        W 8363  10.694   7.111   9.497
 4164W        W 8364   8.161  10.976  10.922
 4165W        W 8365   5.648   7.641   3.551
 4166W        W 8366   3.009   6.506   3.571
 4167W        W 8367  10.514   6.151   0.172
 4168W        W 8368   2.671   3.438   2.017
 4169W        W 8369   6.580   1.843  11.400
 4170W        W 8370  11.275   8.939  10.613
 4171W        W 8371   8.777   6.957   9.048
 4172W        W 8372  10.681  10.327   2.192
 4173W        W 8373  10.035   9.051   3.238
 4174W        W 8374   2.785   6.133  10.840
 4175W        W 8375   9.828   1.051  11.636
 4176W        W 8376   9.644  10.594   8.515
 4177W        W 8377   9.149  10.372   0.871
 4178W        W 8378  10.435   2.162   1.458
 4179W        W 8379   3.506   1.508  11.230
 4180W        W 8380   5.637   1.363   2.499
 4181W        W 8381   3.971   0.695   2.472
 4182W        W 8382  10.805   4.186   8.581
 4183W        W 8383   7.647  10.702  11.909
 4184W        W 8384   7.717   9.029   0.094
 4185W        W 8385  10.660  10.186   8.511
 4186W        W 8386   6.063   4.293  10.963
 4187W        W 8387   8.994   2.787   3.336
 4188W        W 8388   9.887   8.552   2.437
 4189W        W 8389   3.141   3.714  10.859
 4190W        W 8390   2.379   4.649   8.283
 4191W        W 8391   1.912   7.051  11.140
 4192W        W 8392   2.051   1.268   2.317
 4193W        W 8393   2.765   0.471  11.406
 4194W        W 8394   9.924  11.083   1.822
 4195W        W 8395   1.805  10.252  10.220
 4196W        W 8396   9.608   8.575   1.459
 4197W        W 8397  10.706  10.320   9.997
 4198W        W 8398   9.488   6.967   3.277
 4199W        W 8399   5.544   5.258  10.455
 4200W        W 8400   5.709   7.698   8.387
 4201W        W 8401  11.397   6.760  11.411
 4202W        W 8402   9.724   8.304   0.190
 4203W        W 8403   3.766  11.489  11.358
 4204W        W 8404  10.306   8.165  10.598
 4205W        W 8405  10.797   0.944   0.775
 4206W        W 8406   0.803   7.432  10.458
 4207W        W 8407   8.159   6.549   8.441
 4208W        W 8408  10.858   5.172   0.834
 4209W        W 8409   7.602   2.577  10.970
 4210W        W 8410   4.641   7.506  10.816
 4211W        W 8411  10.371   6.440  10.503
 4212W        W 8412   6.064   0.374  10.762
 4213W        W 8413   3.936  11.242   2.694
 4214W        W 8414   2.826   4.542   2.502
 4215W        W 8415   5.005  11.194   8.849
 4216W        W 8416   1.695  11.234   1.426
 4217W        W 8417   2.903   6.056   2.438
 4218W        W 8418   9.881   1.653   2.037
 4219W        W 8419   4.700   1.246   9.120
 4220W        W 8420   4.226   2.760   0.957
 4221W        W 8421   6.613   0.290   2.500
 4222W        W 8422   7.466   0.713   8.706
 4223W        W 8423   7.928   8.216   3.610
 4224W        W 8424   9.478   0.050   2.413
 4225W        W 8425   6.733   5.673   1.023
 4226W        W 8426   9.628   3.429   0.385
 4227W        W 8427  10.850   2.651   2.780
 4228W        W 8428   2.833   9.785   2.153
 4229W        W 8429   8.023   9.407  11.398
 4230W        W 8430   8.349   9.890   3.240
 4231W        W 8431  10.003   3.092   9.266
 4232W        W 8432   4.948  11.459   1.995
 4233W        W 8433   0.011   8.072   0.850
 4234W        W 8434   8.827   6.906   0.962
 4235W        W 8435   3.678   4.480   3.547
 4236W        W 8436  10.297   2.234   9.028
 4237W        W 8437   2.849   7.786  11.171
 4238W        W 8438   3.702   8.436  10.279
 4239W        W 8439   9.124   4.160   1.219
 4240W        W 8440   1.714   5.710   1.637
 4241W        W 8441   8.265   8.392   9.340
 4242W        W 8442  10.900   1.843   0.297
 4243W        W 8443   9.516   7.886   9.887
 4244W        W 8444   7.804   6.106   1.517
 4245W        W 8445   9.716   7.195   1.448
 4246W        W 8446   1.223   4.947   0.948
 4247W        W 8447  10.812   4.996   9.034
 4248W        W 8448   5.052   6.964   2.005
 4249W        W 8449   4.046  10.917   1.387
 4250W        W 8450   4.300   9.628  10.579
 4251W        W 8451  11.140   4.241  10.809
 4252W        W 8452   9.112   0.927   0.431
 4253W        W 8453   0.959   3.120  10.470
 4254W        W 8454   6.836   6.198  11.371
 4255W        W 8455   4.233   1.127   2.579
 4256W        W 8456   8.075   1.167  11.643
 4257W        W 8457   8.363   6.098  11.464
 4258W        W 8458   0.926  10.430   0.370
 4259W        W 8459   0.349   4.675   8.485
 4260W        W 8460   3.883   8.841   8.716
 4261W        W 8461   5.355   9.839   1.646
 4262W        W 8462   0.813   8.159   0.969
 4263W        W 8463   3.444   1.318   2.007
 4264W        W 8464   9.134   1.445   0.481
 4265W        W 8465   8.432   4.320   1.954
 4266W        W 8466  10.270   9.566   9.219
 4267W        W 8467   0.982   8.478   9.792
 4268W        W 8468   7.255   2.322   2.875
 4269W        W 8469   9.490   4.416   0.434
 4270W        W 8470  10.419   6.675  11.480
 4271W        W 8471   2.917   8.978   3.274
 4272W        W 8472   5.983   4.771   2.644
 4273W        W 8473   5.338   3.124   9.369
 4274W        W 8474   0.787   0.143   9.138
 4275W        W 8475   7.228   1.931  10.402
 4276W        W 8476   1.439   7.148   9.049
 4277W        W 8477   4.218   7.430  11.407
 4278W        W 8478  10.961   5.706   2.294
 4279W        W 8479   9.174   9.793   0.091
 4280W        W 8480   8.000   4.066   0.069
 4281W        W 8481  11.049   8.043   1.658
 4282W        W 8482  10.984   5.224   3.010
 4283W        W 8483   1.353   6.626  11.866
 4284W        W 8484   7.955   4.337   9.068
 4285W        W 8485   0.254   8.520   2.447
 4286W        W 8486   0.306   1.835  11.097
 4287W        W 8487   8.937   0.851   0.903
 4288W        W 8488   6.286   2.154   2.274
 4289W        W 8489  10.205   1.038   2.873
 4290W        W 8490   0.022   3.805   9.496
 4291W        W 8491   7.963   7.758   3.838
 4292W        W 8492   9.525   9.115   2.216
 4293W        W 8493  11.249   6.999   2.196
 4294W        W 8494   7.089  10.344   1.941
 4295W        W 8495   7.105  10.131   0.553
 4296W        W 8496   0.934   7.983   1.991
 4297W        W 8497   4.250   8.454   8.607
 4298W        W 8498  10.116   9.010   2.710
 4299W        W 8499   2.418   9.007   3.305
 4300W        W 8500   0.471   0.276   3.613
 4301W        W 8501   8.252   3.230   3.561
 4302W        W 8502   4.093   7.181   1.019
 4303W        W 8503   4.756   6.099   3.517
 4304W        W 8504  10.837   8.566   2.850
 4305W        W 8505   8.170   9.516  10.008
 4306W        W 8506   3.125   6.527   2.188
 4307W        W 8507   0.293   6.516   0.022
 4308W        W 8508   1.681   1.415   0.924
 4309W        W 8509   2.776   8.454   0.992
 4310W        W 8510   7.675   5.133  10.254
 4311W        W 8511   8.150   7.701   2.634
 4312W        W 8512   4.637   0.290  11.481
 4313W        W 8513   6.540   6.230  11.925
 4314W        W 8514   7.048   1.191  10.537
 4315W        W 8515  10.937   1.139   2.711
 4316W        W 8516   0.619   4.667   9.430
 4317W        W 8517   9.442  10.932  11.534
 4318W        W 8518   9.378   9.857   1.855
 4319W        W 8519   9.042   3.641   9.881
 4320W        W 8520   9.963   4.761   2.784
 4321W        W 8521   3.846   5.964   9.512
 4322W        W 8522   8.967   8.994   8.911
 4323W        W 8523   6.809   2.212   3.092
 4324W        W 8524   7.703   6.193   0.476
 4325W        W 8525   4.562   3.434  11.928
 4326W        W 8526   6.471   3.188   3.206
 4327W        W 8527   4.506   2.071   3.551
 4328W        W 8528   7.527   1.907   1.399
 4329W        W 8529   9.840   3.583   2.656
 4330W        W 8530  11.173   9.424   1.980
 4331W        W 8531   9.145   8.563   9.891
 4332W        W 8532   4.526  10.288   0.222
 4333W        W 8533   2.836   4.182   7.813
 4334W        W 8534   2.720  10.635  11.666
 4335W        W 8535  10.440   5.942  10.702
 4336W        W 8536   6.045   3.711   3.608
 4337W        W 8537   6.223   3.661   9.409
 4338W        W 8538   1.179   7.035  10.513
 4339W        W 8539   6.160   0.918  11.559
 4340W        W 8540   7.193  10.511  11.735
 4341W        W 8541   4.695   2.476   1.100
 4342W        W 8542   3.158  11.290  11.108
 4343W        W 8543  10.190   4.201   8.525
 4344W        W 8544   8.426  10.023  11.801
 4345W        W 8545   9.162   3.142  10.234
 4346W        W 8546   6.495   9.820   3.416
 4347W        W 8547   6.314  10.318   3.427
 4348W        W 8548   1.258   5.328   2.869
 4349W        W 8549   9.352   4.735  11.473
 4350W        W 8550   1.754   2.557   0.474
 4351W        W 8551   8.920   4.284  10.878
 4352W        W 8552   2.759   0.359   1.906
 4353W        W 8553   0.671   8.685   2.229
 4354W        W 8554   4.466   0.834   0.271
 4355W        W 8555  10.371   7.939  10.158
 4356W        W 8556   6.985  11.302  10.016
 4357W        W 8557   6.695   0.160  11.470
 4358W        W 8558  10.013   8.390  11.726
 4359W        W 8559   4.085   8.843   0.413
 4360W        W 8560  10.916   6.553   1.182
 4361W        W 8561   8.878   0.515   8.443
 4362W        W 8562   5.031   3.227   9.774
 4363W        W 8563   1.158  10.529   9.116
 4364W        W 8564   3.877  10.339   0.884
 4365W        W 8565   2.987   3.164  11.884
 4366W        W 8566   5.933   6.626   8.964
 4367W        W 8567   8.758   6.861   8.179
 4368W        W 8568   9.838   1.326   9.292
 4369W        W 8569  11.289  10.297   3.301
 4370W        W 8570   2.400   1.995  11.952
 4371W        W 8571   6.141  10.043   9.433
 4372W        W 8572  10.284   2.613   1.271
 4373W        W 8573   5.241   2.590   3.120
 4374W        W 8574   7.595   3.403  11.432
 4375W        W 8575   4.066   7.045  10.404
 4376W        W 8576   4.531   6.636  11.951
 4377W        W 8577   3.814   2.232   2.396
 4378W        W 8578   3.217   1.001   3.029
 4379W        W 8579   6.168   9.040  11.559
 4380W        W 8580   0.763   0.999   3.209
 4381W        W 8581   8.270   6.041   9.118
 4382W        W 8582   2.731  10.538   2.682
 4383W        W 8583   8.115   3.317   9.120
 4384W        W 8584  11.300   9.594   2.926
 4385W        W 8585  11.368   8.465   1.136
 4386W        W 8586   4.460   0.056   1.828
 4387W        W 8587   8.070   7.415   3.058
 4388W        W 8588  11.442   3.234   2.641
 4389W        W 8589   4.804   2.586  10.969
 4390W        W 8590  10.361   7.677   3.250
 4391W        W 8591   9.411   2.695  10.394
 4392W        W 8592  10.966   7.108   1.778
 4393W        W 8593   9.327   8.812   1.826
 4394W        W 8594   0.877   4.133   3.194
 4395W        W 8595   6.062   2.269  11.140
 4396W        W 8596   7.837  10.823   1.053
 4397W        W 8597   7.218  11.348  11.393
 4398W        W 8598   3.208   4.149  10.122
 4399W        W 8599   7.532   7.082  10.990
 4400W        W 8600   9.861   0.044   1.624
 4401W        W 8601  11.418   5.038  11.603
 4402W        W 8602   9.551   6.156   3.873
 4403W        W 8603   3.693   6.775  11.913
 4404W        W 8604  10.879  10.795   2.155
 4405W        W 8605   9.925   6.689   9.858
 4406W        W 8606   4.660   9.408   1.708
 4407W        W 8607   0.571   6.031  10.331
 4408W        W 8608   4.578   2.526   0.266
 4409W        W 8609   4.955   0.398   3.229
 4410W        W 8610   7.748   4.553   9.510
 4411W        W 8611   3.126   1.297   1.037
 4412W        W 8612   8.449   2.229   8.944
 4413W        W 8613   0.805   2.851   0.159
 4414W        W 8614   4.315   9.067   2.825
 4415W        W 8615   7.992   2.848   3.315
 4416W        W 8616   0.330   3.140   1.925
 4417W        W 8617   3.487   6.690   3.553
 4418W        W 8618   0.120   2.559   9.515
 4419W        W 8619   8.883   2.509   8.891
 4420W        W 8620   9.224   8.329   1.824
 4421W        W 8621   9.859   9.957  10.729
 4422W        W 8622  10.348   9.005  10.431
 4423W        W 8623   6.411   7.986   3.718
 4424W        W 8624   5.593   3.354   0.618
 4425W        W 8625   9.936   4.417   3.167
 4426W        W 8626  11.016   3.594   2.244
 4427W        W 8627  10.885   1.992   9.685
 4428W        W 8628   3.472   7.690   1.293
 4429W        W 8629   3.255   1.962  11.748
 4430W        W 8630   8.998   6.126  11.878
 4431W        W 8631   0.735   1.222   1.932
 4432W        W 8632   3.793   9.523   1.719
 4433W        W 8633   5.771   1.362   2.997
 4434W        W 8634  10.730   2.730   2.248
 4435W        W 8635   8.763   9.111   2.908
 4436W        W 8636   1.175   1.552   8.467
 4437W        W 8637  10.294  10.975   9.077
 4438W        W 8638   6.657   0.021   3.461
 4439W        W 8639   1.432   4.824   9.175
 4440W        W 8640   4.595  11.371   8.576
 4441W        W 8641   9.795   3.613   0.848
 4442W        W 8642   2.778   2.468   1.837
 4443W        W 8643   6.837   6.264   9.237
 4444W        W 8644   2.359   8.433  11.256
 4445W        W 8645   3.192   0.040   0.881
 4446W        W 8646   3.057   3.737  11.743
 4447W        W 8647   7.607   0.320   2.186
 4448W        W 8648   0.227   2.843   2.427
 4449W        W 8649   5.154   8.196   2.441
 4450W        W 8650  11.333   0.506   9.066
 4451W        W 8651   1.322   1.797   2.233
 4452W        W 8652   1.235   3.228   9.301
 4453W        W 8653   9.997   4.331   0.401
 4454W        W 8654   9.451   1.572   1.769
 4455W        W 8655   2.624   8.351   0.511
 4456W        W 8656   9.802  10.581   9.920
 4457W        W 8657   1.302   3.310   0.712
 4458W        W 8658   1.618   1.429   3.477
 4459W        W 8659   1.966   9.859   9.324
 4460W        W 8660   2.362   5.828  10.897
 4461W        W 8661   1.061   5.021   9.554
 4462W        W 8662   7.572   3.162   9.176
 4463W        W 8663   0.069   5.949  10.381
 4464W        W 8664   9.249   4.618  10.593
 4465W        W 8665   3.109   0.599   3.307
 4466W        W 8666   9.259   1.178  10.993
 4467W        W 8667  10.406   6.769   2.388
 4468W        W 8668   8.999   1.184   1.308
 4469W        W 8669   4.755   1.714  11.192
 4470W        W 8670   9.413   6.369  10.102
 4471W        W 8671   1.822   3.720   3.251
 4472W        W 8672   9.513   5.003   9.559
 4473W        W 8673  10.906   4.379  11.310
 4474W        W 8674   6.117   9.204   1.498
 4475W        W 8675   4.438   7.806   9.345
 4476W        W 8676   7.026   8.932   9.025
 4477W        W 8677   8.198   0.850  10.267
 4478W        W 8678   8.629   6.665   8.644
 4479W        W 8679   2.874   9.287   2.060
 4480W        W 8680   6.062   6.830   2.606
 4481W        W 8681   3.417   6.222   9.698
 4482W        W 8682   6.756   9.350   0.111
 4483W        W 8683   7.058   3.239  11.602
 4484W        W 8684   1.508   6.095  11.730
 4485W        W 8685   1.142   8.442   3.355
 4486W        W 8686   8.908   6.618   0.014
 4487W        W 8687   3.178   6.107   8.802
 4488W        W 8688   8.047   2.821  10.804
 4489W        W 8689  11.379  10.850   9.179
 4490W        W 8690   1.291   2.245   9.533
 4491W        W 8691   2.600   6.813   3.641
 4492W        W 8692   2.268   3.352   9.125
 4493W        W 8693   0.955   1.689   1.909
 4494W        W 8694   4.059   5.091  11.537
 4495W        W 8695   3.767   0.804  10.000
 4496W        W 8696  10.950   3.967   9.631
 4497W        W 8697   5.690   0.145   9.970
 4498W        W 8698   8.642   1.776   9.854
 4499W        W 8699   7.464   1.854   1.944
 4500W        W 8700  10.775   4.305   3.307
 4501W        W 8701   0.950   2.855   8.994
 4502W        W 8702   4.774   8.041   1.491
 4503W        W 8703   9.080   1.229   2.149
 4504W        W 8704   9.977   5.103  10.816
 4505W        W 8705   5.888   4.108   1.293
 4506W        W 8706   2.161   8.493   0.286
 4507W        W 8707   8.828   3.079   9.810
 4508W        W 8708  10.838   1.850   2.236
 4509W        W 8709   4.253   4.665  10.254
 4510W        W 8710   5.526   5.466  10.933
 4511W        W 8711   1.741   4.247   3.271
 4512W        W 8712   0.445   2.672  11.038
 4513W        W 8713   4.368   0.897   0.848
 4514W        W 8714   4.498  10.560  11.815
 4515W        W 8715  10.522   0.053  11.258
 4516W        W 8716   4.848   6.171   1.511
 4517W        W 8717   8.856   0.675   1.379
 4518W        W 8718  10.787   0.822  11.350
 4519W        W 8719   8.115   2.456   2.373
 4520W        W 8720   7.617  10.871   3.050
 4521W        W 8721   5.694   7.706  11.010
 4522W        W 8722   8.406   2.833   2.604
 4523W        W 8723   4.261   0.716   2.920
 4524W        W 8724   8.536   9.327   9.637
 4525W        W 8725   3.106   1.921  10.348
 4526W        W 8726   8.875   2.921   9.229
 4527W        W 8727   3.376   6.080   0.276
 4528W        W 8728   1.911   9.337   8.695
 4529W        W 8729   3.563   9.032  11.536
 4530W        W 8730   6.103   4.521   8.376
 4531W        W 8731   9.403   5.742   1.971
 4532W        W 8732   4.730  11.329   0.441
 4533W        W 8733   6.303   1.659  10.530
 4534W        W 8734   3.584   1.028  11.363
 4535W        W 8735   0.002   3.160  11.576
 4536W        W 8736   3.919   4.372   8.578
 4537W        W 8737   6.513   2.352   9.840
 4538W        W 8738   5.200   9.161   2.755
 4539W        W 8739   1.878   0.936  11.172
 4540W        W 8740   3.972   0.499   3.392
 4541W        W 8741   6.977   3.640   9.904
 4542W        W 8742   2.123   2.053   1.956
 4543W        W 8743   3.474   4.568   9.854
 4544W        W 8744   6.548   7.315  11.052
 4545W        W 8745   7.151   6.415   9.627
 4546W        W 8746   2.190   3.310  10.970
 4547W        W 8747   7.028   4.752   8.223
 4548W        W 8748   8.566   4.121  11.255
 4549W        W 8749  10.732   9.538  10.592
 4550W        W 8750   4.142   7.057  11.803
 4551W        W 8751   6.868   2.249  10.581
 4552W        W 8752  10.518   1.761  11.356
 4553W        W 8753   3.904   9.346   0.309
 4554W        W 8754   6.507   7.457  10.048
 4555W        W 8755   7.148   0.353   0.633
 4556W        W 8756   4.594   4.161   9.095
 4557W        W 8757   6.949   3.517   1.749
 4558W        W 8758   9.671   3.998   9.352
 4559W        W 8759   8.968  11.099   3.526
 4560W        W 8760   3.599   3.793   3.029
 4561W        W 8761   7.826   3.535   0.699
 4562W        W 8762   4.172   9.909   2.286
 4563W        W 8763   7.216   0.443  10.550
 4564W        W 8764   9.439   6.846   1.679
 4565W        W 8765   2.898   6.532   9.049
 4566W        W 8766   0.044   0.667   0.638
 4567W        W 8767   2.679  10.275   2.227
 4568W        W 8768   3.131   8.512   3.305
 4569W        W 8769   8.603   8.647   9.036
 4570W        W 8770  11.357   7.526  11.101
 4571W        W 8771   4.181   3.353  10.922
 4572W        W 8772   7.125   2.269   1.321
 4573W        W 8773   5.262   3.117   4.004
 4574W        W 8774   6.578   8.783   3.361
 4575W        W 8775   8.873   1.934   0.790
 4576W        W 8776  10.081   7.950  11.963
 4577W        W 8777  11.309   6.830   3.154
 4578W        W 8778   3.307   9.532   9.304
 4579W        W 8779   0.068   7.009   9.297
 4580W        W 8780   4.635  11.257  11.106
 4581W        W 8781  10.010   9.905   2.185
 4582W        W 8782  10.885   3.127  10.415
 4583W        W 8783  10.310  10.328   2.672
 4584W        W 8784   2.417   9.486   1.214
 4585W        W 8785   2.315   7.373   3.571
 4586W        W 8786  10.797   6.744   3.152
 4587W        W 8787  11.185   7.565   3.402
 4588W        W 8788   6.569   4.249  10.293
 4589W        W 8789   9.523   9.465   1.023
 4590W        W 8790   2.142   7.389   9.479
 4591W        W 8791   8.973   1.692   8.378
 4592W        W 8792   0.342   3.134   0.348
 4593W        W 8793   9.071  10.016   2.522
 4594W        W 8794   0.494   3.453   3.627
 4595W        W 8795   8.870   2.943   8.605
 4596W        W 8796  11.369   7.465  10.572
 4597W        W 8797  10.318   2.866   0.819
 4598W        W 8798   5.088   4.796  11.216
 4599W        W 8799   2.835   5.538   9.689
 4600W        W 8800   1.475   2.748   1.995
 4601W        W 8801   6.413   3.547   1.792
 4602W        W 8802   5.187   1.674   8.748
 4603W        W 8803   3.405   3.834   2.543
 4604W        W 8804   9.633  10.443   0.781
 4605W        W 8805   5.635   6.262  10.704
 4606W        W 8806   8.703   8.466  10.159
 4607W        W 8807   1.751   2.232   9.287
 4608W        W 8808  10.512   3.785   9.814
 4609W        W 8809   3.807   4.700   8.995
 4610W        W 8810   5.379   7.408   9.308
 4611W        W 8811   5.535   2.440   1.945
 4612W        W 8812   5.569   0.717  11.211
 4613W        W 8813   6.695   8.487  11.976
 4614W        W 8814   1.847   6.666   0.833
 4615W        W 8815   2.868   9.302  10.385
 4616W        W 8816  10.461   1.160   0.252
 4617W        W 8817   6.988   7.806   9.465
 4618W        W 8818   1.389  10.375  10.994
 4619W        W 8819   3.433   0.899   2.575
 4620W        W 8820  10.796   5.450   0.283
 4621W        W 8821   8.165   3.155   0.678
 4622W        W 8822   3.123   1.416  11.552
 4623W        W 8823   8.295   3.151   9.933
 4624W        W 8824   1.854  10.563  11.733
 4625W        W 8825  10.855   7.520   0.822
 4626W        W 8826   0.036  10.475  10.868
 4627W        W 8827  11.005   2.227  11.084
 4628W        W 8828  11.158   4.148  11.734
 4629W        W 8829   1.487   2.296  11.382
 4630W        W 8830   8.868   0.184  11.807
 4631W        W 8831  10.805   5.758   1.798
 4632W        W 8832   9.228   0.126  10.372
 4633W        W 8833   5.161   7.743   2.674
 4634W        W 8834   9.037   6.754  10.451
 4635W        W 8835   3.558   9.065   9.626
 4636W        W 8836   4.231   6.143  10.283
 4637W        W 8837   2.325   2.595   2.637
 4638W        W 8838   6.630   9.326   3.335
 4639W        W 8839   6.114   8.845   9.841
 4640W        W 8840   8.192   4.077  11.589
 4641W        W 8841   1.292  10.883   1.012
 4642W        W 8842   3.161   2.928   9.065
 4643W        W 8843   6.987   0.143  10.991
 4644W        W 8844   3.787   1.955   0.129
 4645W        W 8845   5.739   2.632  10.975
 4646W        W 8846   3.613   4.925   8.578
 4647W        W 8847  10.327   3.374   9.535
 4648W        W 8848  10.496   7.384   1.163
 4649W        W 8849   2.677   9.637  11.915
 4650W        W 8850  10.461   3.340  10.030
 4651W        W 8851   9.873   2.565   0.958
 4652W        W 8852   6.452   6.590  10.347
 4653W        W 8853  10.777  10.566  10.437
 4654W        W 8854   3.591  10.121  11.988
 4655W        W 8855   4.757   4.065   0.333
 4656W        W 8856  11.259   7.669   2.579
 4657W        W 8857   7.263   9.624   0.537
 4658W        W 8858  10.718   3.412   3.337
 4659W        W 8859  10.287   9.342  10.830
 4660W        W 8860   1.861   6.073   1.946
 4661W        W 8861   8.991   3.756   1.961
 4662W        W 8862  10.234  10.874   1.444
 4663W        W 8863   0.318   6.361   2.391
 4664W        W 8864   5.211   0.687  11.875
 4665W        W 8865   5.754   5.261   1.775
 4666W        W 8866   3.463   1.185   0.359
 4667W        W 8867   9.527   7.772  10.946
 4668W        W 8868   9.987   6.578   9.358
 4669W        W 8869   9.943   0.627  11.387
 4670W        W 8870   2.236   8.926   0.018
 4671W        W 8871  10.009   5.253   0.999
 4672W        W 8872  10.105   6.100   0.494
 4673W        W 8873   9.517   9.878   8.991
 4674W        W 8874   7.731   0.264   9.834
 4675W        W 8875   7.992   0.846   2.913
 4676W        W 8876   4.328   5.366   2.746
 4677W        W 8877   1.334   4.784  10.579
 4678W        W 8878   2.679   4.280   2.991
 4679W        W 8879   1.133   4.879  10.086
 4680W        W 8880   4.784   1.361   1.973
 4681W        W 8881  11.016   9.070   0.140
 4682W        W 8882   9.696   7.149  11.274
 4683W        W 8883   2.638   6.388   8.635
 4684W        W 8884   6.223   7.701   8.362
 4685W        W 8885  10.500   6.645   9.487
 4686W        W 8886   4.833   8.803  11.846
 4687W        W 8887   5.164   2.662   4.210
 4688W        W 8888   5.659   2.741   9.486
 4689W        W 8889   5.973   9.987   2.722
 4690W        W 8890   9.615   6.909   2.794
 4691W        W 8891   5.028   3.229  11.950
 4692W        W 8892   8.901   0.339  10.769
 4693W        W 8893  11.343   8.372   9.967
 4694W        W 8894   1.036   9.274  10.714
 4695W        W 8895   2.620   7.437   0.202
 4696W        W 8896   4.045   3.331   9.347
 4697W        W 8897   5.626   7.548   8.868
 4698W        W 8898   2.529   3.056  11.569
 4699W        W 8899   6.635  11.110   0.047
 4700W        W 8900   8.128   9.611  10.511
 4701W        W 8901  10.209   7.982   1.677
 4702W        W 8902   0.751   0.969   9.537
 4703W        W 8903   7.616   4.865   0.355
 4704W        W 8904   6.485   1.052  11.934
 4705W        W 8905   4.605   3.063  11.063
 4706W        W 8906  10.513   4.161   9.478
 4707W        W 8907   1.450  10.855  11.248
 4708W        W 8908   5.185   0.804   3.508
 4709W        W 8909   9.088  10.289   0.006
 4710W        W 8910   9.998   3.834   2.238
 4711W        W 8911   0.255   6.596   2.973
 4712W        W 8912   3.523   3.371   9.443
 4713W        W 8913   3.706   3.352   3.297
 4714W        W 8914   8.373   4.637   8.926
 4715W        W 8915   3.756   4.108  11.044
 4716W        W 8916   6.862   3.113   2.828
 4717W        W 8917   1.007   1.613   8.957
 4718W        W 8918   8.462   6.394   2.213
 4719W        W 8919   5.250   4.239   9.516
 4720W        W 8920   3.357  10.096   8.668
 4721W        W 8921   5.689   6.598   0.577
 4722W        W 8922   0.263   8.642   1.923
 4723W        W 8923   8.151   8.391   8.443
 4724W        W 8924   1.421   4.318  10.812
 4725W        W 8925   3.565   1.215   9.782
 4726W        W 8926   5.274   8.924   3.649
 4727W        W 8927  10.898   4.415   1.807
 4728W        W 8928  10.473   5.005   9.848
 4729W        W 8929  11.290   7.753  11.550
 4730W        W 8930   0.814   0.801   2.224
 4731W        W 8931   5.551   4.485  10.694
 4732W        W 8932   8.183  11.471   1.158
 4733W        W 8933  11.262   0.891  10.485
 4734W        W 8934   7.006   1.119  11.048
 4735W        W 8935   0.796   0.190  10.054
 4736W        W 8936   1.954  11.375   3.178
 4737W        W 8937   9.017   1.707   1.275
 4738W        W 8938   4.726   2.346   9.536
 4739W        W 8939   9.872   2.933   3.196
 4740W        W 8940   3.808   3.636   0.200
 4741W        W 8941   7.649   0.290   1.189
 4742W        W 8942   8.217   9.008   9.978
 4743W        W 8943  10.040   9.203   8.692
 4744W        W 8944   7.410  10.873   9.549
 4745W        W 8945  11.444   1.168   2.644
 4746W        W 8946  10.950   5.925   0.299
 4747W        W 8947   5.573   2.172   1.503
 4748W        W 8948   4.594   3.256   3.221
 4749W        W 8949   8.575   5.240   0.953
 4750W        W 8950   8.316   7.070   8.846
 4751W        W 8951   3.290  10.492   0.247
 4752W        W 8952  10.361   6.542   1.479
 4753W        W 8953   7.926   2.931   2.399
 4754W        W 8954   3.188   3.860   8.832
 4755W        W 8955   5.533   5.779  10.476
 4756W        W 8956   3.217   8.112   8.660
 4757W        W 8957   9.022   0.200  11.281
 4758W        W 8958   4.197   6.746   1.258
 4759W        W 8959   0.802   0.050  10.556
 4760W        W 8960  10.822   4.705   2.606
 4761W        W 8961  11.073   6.863   9.269
 4762W        W 8962  11.456   3.971   8.997
 4763W        W 8963  10.907   5.374   1.473
 4764W        W 8964  11.416   6.528   9.462
 4765W        W 8965   9.993   1.374   0.265
 4766W        W 8966   4.122   7.006   9.285
 4767W        W 8967   1.789   3.336   1.755
 4768W        W 8968  10.112  10.543   0.749
 4769W        W 8969   8.377   2.226   9.747
 4770W        W 8970   6.735   4.552   9.408
 4771W        W 8971  10.551   2.781   1.695
 4772W        W 8972   4.957   7.009   3.120
 4773W        W 8973   0.251   2.149   9.772
 4774W        W 8974   7.835   7.989   2.299
 4775W        W 8975   3.959   6.011  11.516
 4776W        W 8976  11.348   4.639   1.861
 4777W        W 8977   4.592   7.540   0.356
 4778W        W 8978   5.521   4.577   2.470
 4779W        W 8979  10.459   7.535   9.359
 4780W        W 8980   7.481   4.326  11.396
 4781W        W 8981   8.323   8.716   2.817
 4782W        W 8982   3.656   3.239   1.864
 4783W        W 8983   2.038   6.999  10.293
 4784W        W 8984  10.301   1.776   1.149
 4785W        W 8985  11.397   8.780   8.524
 4786W        W 8986  10.157   2.190   1.909
 4787W        W 8987   7.150   9.935   2.737
 4788W        W 8988   0.227   6.261  11.166
 4789W        W 8989   1.222   0.992   2.006
 4790W        W 8990  10.453   9.834   2.962
 4791W        W 8991   8.716   0.004  10.441
 4792W        W 8992   9.356   2.190  11.124
 4793W        W 8993   8.526   3.455   1.275
 4794W        W 8994   9.138   5.175  10.792
 4795W        W 8995   4.781   7.909   0.023
 4796W        W 8996  11.428  11.415  10.779
 4797W        W 8997   0.664   9.425   3.406
 4798W        W 8998   0.465   0.016   9.723
 4799W        W 8999   1.949   7.929  11.805
 4800W        W 9000  10.443   8.519   8.862
 4801W        W 9001   3.815   2.895  10.337
 4802W        W 9002   4.872   4.996   1.398
 4803W        W 9003   1.141   2.812   0.587
 4804W        W 9004   7.391   3.783   0.737
 4805W        W 9005   8.527   6.785  10.762
 4806W        W 9006   2.134   4.744   0.346
 4807W        W 9007   4.745   1.599  10.704
 4808W        W 9008   1.537   2.857   0.926
 4809W        W 9009   9.033  10.959   0.355
 4810W        W 9010   0.694   7.103   2.183
 4811W        W 9011   1.243   2.802  11.299
 4812W        W 9012  11.012  10.138   1.809
 4813W        W 9013   4.792   1.257   2.494
 4814W        W 9014   9.600   9.788   2.965
 4815W        W 9015  10.807   4.567   0.667
 4816W        W 9016   5.956   6.093   9.749
 4817W        W 9017   9.947   5.298   0.412
 4818W        W 9018   9.184   4.680   9.177
 4819W        W 9019   9.103   7.661  10.138
 4820W        W 9020   0.242   2.271   1.810
 4821W        W 9021   9.965  11.071  11.340
 4822W        W 9022   9.513  10.122   9.455
 4823W        W 9023   9.432   6.612  11.259
 4824W        W 9024   1.148   9.569   3.396
 4825W        W 9025   9.793   8.599   1.949
 4826W        W 9026   8.045   4.555   0.201
 4827W        W 9027   9.968   1.895   0.164
 4828W        W 9028   6.575   7.498   8.692
 4829W        W 9029   7.151   4.570   8.689
 4830W        W 9030   0.492   7.933   9.605
 4831W        W 9031   3.447   6.060   1.233
 4832W        W 9032   1.583   6.168  10.047
 4833W        W 9033   1.702   0.833   2.141
 4834W        W 9034   5.962   1.347   2.072
 4835W        W 9035   1.099   8.512   2.427
 4836W        W 9036   1.855   4.042  10.896
 4837W        W 9037   6.686   2.383   3.550
 4838W        W 9038   6.527   8.560   1.654
 4839W        W 9039   0.906   3.650   0.810
 4840W        W 9040   6.839  11.184   3.131
 4841W        W 9041   1.181   5.539   9.458
 4842W        W 9042   6.834   1.197   1.943
 4843W        W 9043  10.432   9.979  11.920
 4844W        W 9044   6.706   4.681   0.147
 4845W        W 9045   1.619   7.970   0.859
 4846W        W 9046   0.281   3.496  10.790
 4847W        W 9047  10.017   7.568  11.121
 4848W        W 9048   7.111  10.185  11.325
 4849W        W 9049   7.981   5.229   0.305
 4850W        W 9050   5.622   1.368   8.800
 4851W        W 9051   8.949   6.095   8.830
 4852W        W 9052   2.247   4.184   8.524
 4853W        W 9053   5.139   5.638  11.242
 4854W        W 9054   4.741   8.568  10.250
 4855W        W 9055   7.751   1.830   2.985
 4856W        W 9056   0.166   9.462   9.507
 4857W        W 9057   7.678   1.335  11.390
 4858W        W 9058   6.303   4.027   2.247
 4859W        W 9059   0.615   2.218  10.136
 4860W        W 9060   7.597   6.187  11.959
 4861W        W 9061   0.778   5.220  10.251
 4862W        W 9062   7.990   2.481   8.848
 4863W        W 9063   7.411   4.291   0.758
 4864W        W 9064   8.369   3.284  11.770
 4865W        W 9065   8.587   4.574   9.807
 4866W        W 9066   0.376   0.300  11.506
 4867W        W 9067   3.021   3.508   2.372
 4868W        W 9068   8.978   0.384   0.662
 4869W        W 9069   0.335   8.353  11.407
 4870W        W 9070   3.080   5.610   3.229
 4871W        W 9071   1.997   1.017  11.680
 4872W        W 9072  10.512   8.372  11.021
 4873W        W 9073   5.863  10.045   8.954
 4874W        W 9074   2.585   5.993   9.514
 4875W        W 9075   4.154   0.537   0.545
 4876W        W 9076   4.327   8.117   2.719
 4877W        W 9077   8.756   7.108   3.150
 4878W        W 9078   8.045   1.899  11.013
 4879W        W 9079   3.944   8.676   2.211
 4880W        W 9080   2.614  10.978   2.950
 4881W        W 9081   9.660   4.258   2.256
 4882W        W 9082   5.579   1.825   9.043
 4883W        W 9083   3.756   4.621  11.156
 4884W        W 9084   0.411   5.250  11.568
 4885W        W 9085   5.640   4.804   0.664
 4886W        W 9086   7.908   8.749   9.515
 4887W        W 9087   0.731   3.015   8.548
 4888W        W 9088   2.882   7.051   1.485
 4889W        W 9089   5.768  10.877  10.401
 4890W        W 9090   1.271  11.390   9.315
 4891W        W 9091   2.531   2.490   3.201
 4892W        W 9092   0.585   2.665   9.354
 4893W        W 9093   9.763   9.070   1.751
 4894W        W 9094   1.433   6.142   2.197
 4895W        W 9095   9.361   2.832  11.831
 4896W        W 9096   6.140  11.036   9.608
 4897W        W 9097   1.814   3.589  10.690
 4898W        W 9098   1.752   9.902  10.586
 4899W        W 9099   4.385  10.490  10.083
 4900W        W 9100   7.716   0.854  11.948
 4901W        W 9101   5.165   8.491   1.065
 4902W        W 9102   3.201   2.189   1.774
 4903W        W 9103   0.668   9.141  11.068
 4904W        W 9104   9.503   2.352   9.623
 4905W        W 9105   9.947   2.166   1.303
 4906W        W 9106   9.268  11.411  11.653
 4907W        W 9107   7.908   5.503  10.524
 4908W        W 9108  10.606   3.106   0.459
 4909W        W 9109   5.656   8.496   0.730
 4910W        W 9110   5.075   6.343   2.389
 4911W        W 9111   7.470   1.312   8.769
 4912W        W 9112   6.542   1.152  10.336
 4913W        W 9113   7.589   6.517   1.310
 4914W        W 9114   0.560  10.366   0.937
 4915W        W 9115   3.994   7.638   1.372
 4916W        W 9116   5.790   9.950  10.308
 4917W        W 9117   8.490   2.649  10.530
 4918W        W 9118   9.334   7.946   0.223
 4919W        W 9119   3.101   9.139   1.556
 4920W        W 9120   1.819   4.519   3.697
 4921W        W 9121   1.685   0.177   1.190
 4922W        W 9122   7.480   0.913  10.450
 4923W        W 9123   7.371   7.324  10.125
 4924W        W 9124   1.844   1.188   3.099
 4925W        W 9125   9.495   7.628  11.459
 4926W        W 9126   6.586   3.964   2.693
 4927W        W 9127   1.118   5.129  11.865
 4928W        W 9128  11.388   7.212   8.858
 4929W        W 9129   2.071   5.935   9.570
 4930W        W 9130   9.394   9.787  10.872
 4931W        W 9131   1.784   4.902   1.040
 4932W        W 9132   2.855  11.065   2.504
 4933W        W 9133   0.492   1.763   9.568
 4934W        W 9134  10.372   2.227  11.948
 4935W        W 9135   7.022   9.574  11.242
 4936W        W 9136  11.299   6.700   0.852
 4937W        W 9137   6.947   6.092  10.053
 4938W        W 9138   4.624   4.527   3.145
 4939W        W 9139   3.268   3.169   3.594
 4940W        W 9140   5.143   8.888   9.967
 4941W        W 9141   3.880  10.867  10.738
 4942W        W 9142   4.342   0.949  10.831
 4943W        W 9143   4.739   2.805   0.710
 4944W        W 9144   9.832   7.678   1.913
 4945W        W 9145   2.771  11.467  11.374
 4946W        W 9146   7.235  11.387   1.869
 4947W        W 9147  10.862   2.620  10.291
 4948W        W 9148   9.891   6.380  10.314
 4949W        W 9149   2.698   3.092   2.415
 4950W        W 9150   6.420   8.733   8.265
 4951W        W 9151  10.954   9.574  11.971
 4952W        W 9152   0.831   2.427   0.423
 4953W        W 9153   5.465   4.107   9.061
 4954W        W 9154   2.893  10.936  10.815
 4955W        W 9155   8.606   6.424   1.280
 4956W        W 9156   5.118   9.557   2.416
 4957W        W 9157   5.854   6.710   2.159
 4958W        W 9158   9.979   1.977   3.438
 4959W        W 9159   0.805   6.255   0.919
 4960W        W 9160   0.728  10.837   1.726
 4961W        W 9161   5.744   9.186  11.827
 4962W        W 9162   2.658   2.259   9.495
 4963W        W 9163   0.279   1.446   3.466
 4964W        W 9164   9.951   4.265   2.673
 4965W        W 9165   3.825   8.106  11.816
 4966W        W 9166   2.986   5.631   8.595
 4967W        W 9167   9.997   6.191  10.786
 4968W        W 9168   5.509   0.975   9.104
 4969W        W 9169  11.390   2.654   0.517
 4970W        W 9170   9.801  10.920   0.937
 4971W        W 9171   9.995  10.804   2.743
 4972W        W 9172   2.732   7.989   9.498
 4973W        W 9173  10.776   7.636   2.389
 4974W        W 9174   4.714   7.595   1.746
 4975W        W 9175  10.781   4.925   3.583
 4976W        W 9176  10.299   1.930  10.941
 4977W        W 9177   1.609   6.162   0.983
 4978W        W 9178  10.367   6.992   9.051
 4979W        W 9179   8.110   9.939   0.259
 4980W        W 9180   6.927   4.422   1.828
 4981W        W 9181   4.685   4.717   3.615
 4982W        W 9182   6.550   5.469   0.461
 4983W        W 9183   7.918   9.966   9.987
 4984W        W 9184   5.046   4.514   3.922
 4985W        W 9185   2.228   3.282   2.238
 4986W        W 9186   5.683   9.057   3.038
 4987W        W 9187   5.535   4.092   2.578
 4988W        W 9188   2.537   2.672   0.876
 4989W        W 9189  10.255   7.260   2.351
 4990W        W 9190   5.665   3.178   8.892
 4991W        W 9191   8.433  10.999  11.750
 4992W        W 9192   1.038   4.088   0.519
 4993W        W 9193   3.390   6.601  10.318
 4994W        W 9194  10.309   6.573  11.970
 4995W        W 9195   4.155   9.090   9.086
 4996W        W 9196   9.894   5.668   9.858
 4997W        W 9197   3.478   8.502   8.937
 4998W        W 9198   4.364  10.989  10.760
 4999W        W 9199  10.006   1.662  10.080
 5000W        W 9200  10.041   1.279   8.810
 5001W        W 9201  10.054   0.862   0.074
 5002W        W 9202   6.062   5.783   1.695
 5003W        W 9203   1.266   9.443  10.013
 5004W        W 9204   2.506   7.723   2.716
 5005W        W 9205   9.921   0.769   8.876
 5006W        W 9206   3.982   1.341  11.482
 5007W        W 9207   2.068   1.613   3.339
 5008W        W 9208   8.643   3.091  10.295
 5009W        W 9209  10.541  10.821   3.365
 5010W        W 9210   2.285   9.360  11.176
 5011W        W 9211   8.452   2.640   2.042
 5012W        W 9212   7.321  11.332   8.808
 5013W        W 9213   8.149   0.840   8.475
 5014W        W 9214   0.190   6.079   2.792
 5015W        W 9215   8.686   9.970   2.865
 5016W        W 9216   4.553   5.310   9.666
 5017W        W 9217   5.961   6.237   2.720
 5018W        W 9218   3.703  10.774   2.808
 5019W        W 9219   1.598   5.608   3.172
 5020W        W 9220   4.712   4.538   2.628
 5021W        W 9221   8.114   4.620   3.546
 5022W        W 9222   6.842   9.365   0.673
 5023W        W 9223   0.081   5.648  10.821
 5024W        W 9224   0.627   1.462   0.750
 5025W        W 9225   2.345   0.663   0.762
 5026W        W 9226   8.365   2.158   3.715
 5027W        W 9227   4.876   6.024   1.008
 5028W        W 9228  10.228  11.412   9.393
 5029W        W 9229   7.104   2.634   9.794
 5030W        W 9230  10.885   7.548   9.664
 5031W        W 9231   5.542   6.425  11.275
 5032W        W 9232   0.939   2.361   9.125
 5033W        W 9233   5.489   0.008   0.016
 5034W        W 9234   1.613   3.484  10.209
 5035W        W 9235   4.727   2.807   2.010
 5036W        W 9236   4.965   8.095   1.974
 5037W        W 9237   8.516   5.521   9.864
 5038W        W 9238   0.705   4.159  11.002
 5039W        W 9239  11.269   2.202   9.421
 5040W        W 9240   9.624   8.369   9.910
 5041W        W 9241   5.766   9.863   2.003
 5042W        W 9242   6.970   4.554   0.929
 5043W        W 9243   4.793   1.655   0.432
 5044W        W 9244   2.284  11.253  11.435
 5045W        W 9245   1.280   0.488   1.876
 5046W        W 9246   4.084   2.327   0.310
 5047W        W 9247   7.236   4.459   9.550
 5048W        W 9248   9.886  10.483   9.391
 5049W        W 9249   1.929   6.384  10.460
 5050W        W 9250   7.007   8.300   9.718
 5051W        W 9251   0.755   8.405   0.401
 5052W        W 9252   9.386   3.918   1.673
 5053W        W 9253   9.879   2.615   2.816
 5054W        W 9254   6.749  10.762   1.875
 5055W        W 9255   5.487   8.113   2.013
 5056W        W 9256   9.360   0.937  11.904
 5057W        W 9257   5.503  11.033   9.037
 5058W        W 9258   6.227   2.746   9.883
 5059W        W 9259   2.272   7.099   0.065
 5060W        W 9260  11.286  11.400   9.360
 5061W        W 9261   5.659   0.700  10.709
 5062W        W 9262  10.863   8.324   9.620
 5063W        W 9263  10.291   5.987  11.189
 5064W        W 9264   6.987   3.169   1.381
 5065W        W 9265   2.731   8.504   9.475
 5066W        W 9266  10.853   7.617   1.866
 5067W        W 9267   9.410   4.392  11.059
 5068W        W 9268   7.487  11.345   9.313
 5069W        W 9269  10.813   3.921   1.909
 5070W        W 9270   2.584   6.302   9.986
 5071W        W 9271  10.588   7.889  11.999
 5072W        W 9272   0.450  11.337   0.710
 5073W        W 9273  11.430   5.026   2.171
 5074W        W 9274   4.617  11.425   9.124
 5075W        W 9275   8.926   5.336   8.526
 5076W        W 9276   8.881   2.840   2.835
 5077W        W 9277   0.481   3.613  11.536
 5078W        W 9278   8.450   2.951   1.546
 5079W        W 9279   8.056   3.940   1.932
 5080W        W 9280   0.510   5.398  11.016
 5081W        W 9281   2.456   2.519  11.881
 5082W        W 9282   2.779   3.108   1.439
 5083W        W 9283   6.172  10.568   9.403
 5084W        W 9284   4.626  10.872   1.384
 5085W        W 9285   1.036   9.511   0.786
 5086W        W 9286   4.665   6.806   2.300
 5087W        W 9287   5.210   9.850   9.020
 5088W        W 9288   0.280   9.918   0.926
 5089W        W 9289   5.807   7.084   0.382
 5090W        W 9290   7.884   6.941   2.978
 5091W        W 9291   3.844  10.789   9.887
 5092W        W 9292   2.599   6.201  11.883
 5093W        W 9293   1.356   2.032   8.994
 5094W        W 9294   0.826   1.880  10.918
 5095W        W 9295   4.095   0.872  11.289
 5096W        W 9296   2.024  11.110  10.090
 5097W        W 9297   1.417   7.865   8.812
 5098W        W 9298   2.170   4.950   1.500
 5099W        W 9299   2.645   9.744  10.568
 5100W        W 9300  10.536  11.239   2.277
 5101W        W 9301   6.266   0.452   3.328
 5102W        W 9302   3.864   7.350   2.233
 5103W        W 9303   3.844   8.526   2.697
 5104W        W 9304  10.032   3.306   1.435
 5105W        W 9305   3.481   2.223  10.498
 5106W        W 9306   0.365   9.608   1.571
 5107W        W 9307   8.876   4.135   9.861
 5108W        W 9308   0.197   3.663   2.744
 5109W        W 9309   0.505   3.063  10.684
 5110W        W 9310   4.160  10.819   1.889
 5111W        W 9311   4.140  10.916  10.302
 5112W        W 9312   5.368   9.464   0.306
 5113W        W 9313   0.145  10.587   3.052
 5114W        W 9314  10.570   0.882  11.842
 5115W        W 9315   2.865   8.625   2.878
 5116W        W 9316   9.531   2.719   3.508
 5117W        W 9317   5.729   7.751  10.054
 5118W        W 9318   8.543   1.482   1.336
 5119W        W 9319   8.113   9.415   1.053
 5120W        W 9320   9.375   2.728  11.325
 5121W        W 9321   6.719   7.897   9.906
 5122W        W 9322   5.782   4.814  10.349
 5123W        W 9323   7.653  10.297  10.801
 5124W        W 9324   5.100   5.719  10.740
 5125W        W 9325   9.156   3.744   0.203
 5126W        W 9326   2.200   0.799   8.903
 5127W        W 9327   0.305   7.532   3.281
 5128W        W 9328   6.865   8.577   2.982
 5129W        W 9329   0.655  10.349   2.331
 5130W        W 9330   2.942   0.267  10.962
 5131W        W 9331   2.976   4.582   9.973
 5132W        W 9332   6.488   4.037   0.790
 5133W        W 9333   3.775   4.673   8.168
 5134W        W 9334   4.802   2.718   1.538
 5135W        W 9335   8.156   1.820   9.981
 5136W        W 9336   3.360   2.375   0.015
 5137W        W 9337   8.502   1.888  11.246
 5138W        W 9338   3.750  10.354   8.950
 5139W        W 9339   9.543   0.606   0.246
 5140W        W 9340   8.592   4.998  10.157
 5141W        W 9341   6.659  10.370  11.094
 5142W        W 9342   9.550   2.361   2.215
 5143W        W 9343  10.698   1.313  11.539
 5144W        W 9344   1.417   3.884  11.480
 5145W        W 9345   8.054   2.770   0.371
 5146W        W 9346   0.429   5.712   9.960
 5147W        W 9347   4.171   7.466   9.068
 5148W        W 9348  10.362   4.556  11.450
 5149W        W 9349   4.693   3.554   0.433
 5150W        W 9350   6.783   3.146   9.168
 5151W        W 9351   7.706   5.785   8.357
 5152W        W 9352   4.551   6.368   2.518
 5153W        W 9353   5.567   8.974   0.410
 5154W        W 9354   2.750   3.412  10.285
 5155W        W 9355   2.856   2.322   2.790
 5156W        W 9356   5.461   2.398   2.701
 5157W        W 9357   6.721   2.804   0.470
 5158W        W 9358   3.163   0.817   9.114
 5159W        W 9359   8.981  10.016  10.124
 5160W        W 9360  11.386   5.583   0.213
 5161W        W 9361   4.517   3.208   9.532
 5162W        W 9362   8.054   1.838   3.440
 5163W        W 9363   8.482   6.971   0.460
 5164W        W 9364  10.459   8.123   2.971
 5165W        W 9365   7.628   0.734   3.415
 5166W        W 9366   4.090  11.396  10.503
 5167W        W 9367   1.915   5.200  11.223
 5168W        W 9368   4.542   5.441   2.269
 5169W        W 9369   5.588   3.697   3.813
 5170W        W 9370   7.376   4.790  10.534
 5171W        W 9371  11.316   6.412   2.797
 5172W        W 9372   1.707   2.325   0.938
 5173W        W 9373   5.215   9.952   2.118
 5174W        W 9374  11.492  11.455   2.011
 5175W        W 9375   9.168   9.543   2.234
 5176W        W 9376   0.777   7.170   9.942
 5177W        W 9377   6.957   1.248  11.943
 5178W        W 9378   0.775   7.496   1.805
 5179W        W 9379   0.864   9.128   1.049
 5180W        W 9380   5.169   5.572  11.759
 5181W        W 9381  10.112   5.013  10.312
 5182W        W 9382  10.124   1.964  10.472
 5183W        W 9383   4.992   1.511  10.121
 5184W        W 9384   8.848   6.934   9.545
 5185W        W 9385   0.807   2.037  11.613
 5186W        W 9386   0.745   5.512   3.009
 5187W        W 9387   6.268   5.039   0.371
 5188W        W 9388   1.257   5.271  10.440
 5189W        W 9389   5.334   6.717  10.846
 5190W        W 9390   1.624   5.068  11.968
 5191W        W 9391   0.268  11.435   0.239
 5192W        W 9392   0.486   4.586  10.827
 5193W        W 9393  11.301   8.890   1.866
 5194W        W 9394   8.714  11.266   9.567
 5195W        W 9395  10.505   7.372  10.957
 5196W        W 9396   9.109   9.060   2.519
 5197W        W 9397  11.259   4.796   0.814
 5198W        W 9398   3.277   2.641   0.864
 5199W        W 9399   8.532   0.942   9.420
 5200W        W 9400   7.062   8.348   1.964
 5201W        W 9401   5.131  11.498   2.983
 5202W        W 9402   2.997   3.858   4.140
 5203W        W 9403   1.201   8.166   0.641
 5204W        W 9404   1.331   9.551   0.401
 5205W        W 9405   0.738   0.928  10.421
 5206W        W 9406  10.338   2.574   9.408
 5207W        W 9407  10.546   1.586   9.646
 5208W        W 9408  10.234   8.460   0.395
 5209W        W 9409   2.289  10.212   2.704
 5210W        W 9410   9.965   8.066  10.959
 5211W        W 9411   2.279  11.258   0.474
 5212W        W 9412   7.650   2.452   3.168
 5213W        W 9413  10.151   0.319  10.096
 5214W        W 9414   8.444  11.311   3.161
 5215W        W 9415   9.440   6.686   2.163
 5216W        W 9416   4.121   8.093   9.636
 5217W        W 9417   9.812   0.821   9.430
 5218W        W 9418   7.186  10.381   3.405
 5219W        W 9419   0.669   6.931  10.379
 5220W        W 9420  11.303   1.791  10.971
 5221W        W 9421   2.117   2.956   8.780
 5222W        W 9422   7.719   7.737   9.871
 5223W        W 9423   8.603   5.997  11.020
 5224W        W 9424   7.488   7.056   1.898
 5225W        W 9425   1.762  10.980   2.838
 5226W        W 9426   1.819  10.480  11.243
 5227W        W 9427   2.967   7.856  10.376
 5228W        W 9428   1.862   3.675   2.256
 5229W        W 9429   9.447   8.785   0.215
 5230W        W 9430   0.391   6.058   0.234
 5231W        W 9431   0.514   3.883   2.408
 5232W        W 9432   4.744   2.664   2.983
 5233W        W 9433   0.724   0.692   9.967
 5234W        W 9434  10.396   7.467   9.865
 5235W        W 9435   3.219   0.155   9.133
 5236W        W 9436   3.751   0.599   2.924
 5237W        W 9437   1.190   5.722   2.370
 5238W        W 9438   7.565   1.042   1.939
 5239W        W 9439   7.478   8.369   2.311
 5240W        W 9440   8.601   6.457   0.382
 5241W        W 9441  10.215   2.206   0.862
 5242W        W 9442   6.668   9.894   1.989
 5243W        W 9443   3.683  11.457   9.583
 5244W        W 9444   4.665   4.623  10.959
 5245W        W 9445   4.792   9.010   3.055
 5246W        W 9446   2.679   1.129   1.284
 5247W        W 9447   4.767   6.996  10.029
 5248W        W 9448   1.344   9.523  11.909
 5249W        W 9449   2.391   3.798   9.476
 5250W        W 9450   4.654   4.756   1.797
 5251W        W 9451   2.886   9.951  11.535
 5252W        W 9452   9.240   7.350  11.084
 5253W        W 9453   8.792   8.685   0.752
 5254W        W 9454   8.077   1.438   8.739
 5255W        W 9455   9.636   9.556   1.505
 5256W        W 9456   0.712   4.661  11.328
 5257W        W 9457   8.132   8.829  11.752
 5258W        W 9458   1.824   7.411  11.816
 5259W        W 9459   4.726   8.492   0.717
 5260W        W 9460   6.364   7.435   1.465
 5261W        W 9461   3.746   8.852  10.599
 5262W        W 9462  10.365   5.030  11.171
 5263W        W 9463   1.433   5.241   2.389
 5264W        W 9464   1.891   0.463   0.813
 5265W        W 9465   2.823   7.030   2.382
 5266W        W 9466   7.905   5.215  11.438
 5267W        W 9467   1.782   5.237   2.835
 5268W        W 9468   6.364   1.260   1.736
 5269W        W 9469   1.633   3.041   0.446
 5270W        W 9470  11.068   0.922   1.233
 5271W        W 9471   1.464   0.030   0.261
 5272W        W 9472   4.095   3.525  11.793
 5273W        W 9473   5.179   0.813   1.939
 5274W        W 9474  10.056   8.936   9.148
 5275W        W 9475   2.011  10.393   9.403
 5276W        W 9476   2.740   4.609   1.360
 5277W        W 9477   4.538   5.134  11.204
 5278W        W 9478   8.974   5.718   9.784
 5279W        W 9479   4.638   4.013   1.364
 5280W        W 9480   7.812   9.525  10.901
 5281W        W 9481   4.149   1.400   3.014
 5282W        W 9482   9.383   8.634   2.317
 5283W        W 9483   1.430   5.549  11.925
 5284W        W 9484   3.762   1.101   2.940
 5285W        W 9485   9.968   2.745  10.094
 5286W        W 9486   1.159   7.324   2.886
 5287W        W 9487   5.929   5.591   9.066
 5288W        W 9488   6.532   2.863   3.611
 5289W        W 9489   9.717   1.135   2.996
 5290W        W 9490   4.086  11.347   0.875
 5291W        W 9491   0.901  11.049  10.651
 5292W        W 9492   8.312   6.795   0.937
 5293W        W 9493   7.124   7.018  11.944
 5294W        W 9494   9.943  10.878  11.914
 5295W        W 9495   3.733   6.921  11.157
 5296W        W 9496   2.213   8.056   0.576
 5297W        W 9497   9.643   4.211   1.348
 5298W        W 9498  10.632   0.695   1.381
 5299W        W 9499   7.588   7.356   2.306
 5300W        W 9500   1.987   5.330   1.855
 5301W        W 9501  10.565  10.480  11.767
 5302W        W 9502   1.602   7.005   1.910
 5303W        W 9503   8.313   4.019  10.283
 5304W        W 9504   5.659   3.227   2.557
 5305W        W 9505   6.081   0.326   2.255
 5306W        W 9506   9.571   7.680   1.448
 5307W        W 9507   9.907   3.199   9.786
 5308W        W 9508   9.616   4.900   1.725
 5309W        W 9509   8.212   3.668   9.502
 5310W        W 9510   6.689   3.976   1.706
 5311W        W 9511   9.980   8.532  10.710
 5312W        W 9512   8.477  10.265  10.036
 5313W        W 9513   0.314  11.452   9.245
 5314W        W 9514   3.666   3.610  10.983
 5315W        W 9515  11.456  10.723   9.684
 5316W        W 9516   0.174   7.189  11.337
 5317W        W 9517   8.943   9.370  11.418
 5318W        W 9518   2.617   0.830   9.223
 5319W        W 9519   0.538   3.439  10.316
 5320W        W 9520  10.224   2.727   2.102
 5321W        W 9521   5.629   8.537   1.764
 5322W        W 9522   3.964   7.997   1.778
 5323W        W 9523   8.254   3.852   4.001
 5324W        W 9524   1.215   4.064   9.228
 5325W        W 9525   2.265   1.891   9.760
 5326W        W 9526   9.877  10.787   2.234
 5327W        W 9527   5.202   9.834   3.351
 5328W        W 9528   1.965   2.152  11.285
 5329W        W 9529   8.003  10.441   2.411
 5330W        W 9530   1.844   3.224   8.407
 5331W        W 9531   0.393  10.020  10.923
 5332W        W 9532   8.566   3.569   3.136
 5333W        W 9533   9.940   7.683   2.427
 5334W        W 9534   6.556  10.926   9.337
 5335W        W 9535   2.794   5.302  11.339
 5336W        W 9536   4.953   2.511   8.613
 5337W        W 9537   6.728   8.635   0.825
 5338W        W 9538   1.874   6.923   8.767
 5339W        W 9539   3.634   0.141   2.724
 5340W        W 9540   4.990   8.298   8.926
 5341W        W 9541   7.034   9.343   8.576
 5342W        W 9542   1.253   7.579   2.058
 5343W        W 9543   7.997   5.913   0.796
 5344W        W 9544   5.632  10.955   0.947
 5345W        W 9545   0.665   8.769  10.082
 5346W        W 9546   4.003   6.197   1.840
 5347W        W 9547  10.694   7.429   3.563
 5348W        W 9548   1.638   6.655   8.346
 5349W        W 9549   0.314  10.998   9.465
 5350W        W 9550   5.226   4.691   1.664
 5351W        W 9551   2.795   4.821  11.627
 5352W        W 9552   3.144   3.344   1.781
 5353W        W 9553   0.143   7.914   9.997
 5354W        W 9554   6.299   6.477   2.298
 5355W        W 9555   2.210  10.979   1.874
 5356W        W 9556   0.434   0.526   2.428
 5357W        W 9557   9.718   7.039   0.303
 5358W        W 9558   0.881   7.086   1.419
 5359W        W 9559   5.213   1.361   1.694
 5360W        W 9560   1.739   4.803  10.281
 5361W        W 9561   5.780   5.179   0.308
 5362W        W 9562   1.775   8.079   9.618
 5363W        W 9563   1.190   1.906  11.276
 5364W        W 9564  10.969   9.964   9.747
 5365W        W 9565   3.942   9.378   3.391
 5366W        W 9566   6.901   2.620   2.661
 5367W        W 9567   6.373   2.529  10.338
 5368W        W 9568   2.224   1.471   0.077
 5369W        W 9569   1.166   1.295   3.658
 5370W        W 9570   7.793   0.365   3.730
 5371W        W 9571   2.293   5.766   9.130
 5372W        W 9572   8.960   7.489   2.161
 5373W        W 9573  11.238   5.152   1.184
 5374W        W 9574   1.415  10.374   2.968
 5375W        W 9575   2.768   3.280   3.513
 5376W        W 9576  10.439   8.796   3.043
 5377W        W 9577   8.617   7.376   9.453
 5378W        W 9578   1.902   4.535  10.903
 5379W        W 9579  10.097   1.308   1.225
 5380W        W 9580   7.572   1.790   9.588
 5381W        W 9581   3.152   5.615   0.102
 5382W        W 9582   4.047   5.156  11.025
 5383W        W 9583   2.670   3.081   8.980
 5384W        W 9584   0.208   1.823   1.503
 5385W        W 9585   9.794   1.318   0.772
 5386W        W 9586   8.943   0.766   1.889
 5387W        W 9587   7.575   5.066   1.244
 5388W        W 9588   6.715  10.378   2.711
 5389W        W 9589   0.839  10.290  10.083
 5390W        W 9590   0.083   9.370   0.757
 5391W        W 9591   7.661   1.027   9.595
 5392W        W 9592   7.688   6.520   1.833
 5393W        W 9593   8.124   6.679   9.913
 5394W        W 9594   3.704   9.070   2.013
 5395W        W 9595   1.659   8.869  10.929
 5396W        W 9596   7.013   5.998  11.834
 5397W        W 9597   6.218   0.809   2.430
 5398W        W 9598   8.058  10.845   2.778
 5399W        W 9599   0.226   5.466   1.904
 5400W        W 9600   8.097   3.711   1.450
 5401W        W 9601  10.883   1.387   0.007
 5402W        W 9602   8.978   8.574   2.711
 5403W        W 9603   8.455   1.462   9.497
 5404W        W 9604   0.286   7.585  11.720
 5405W        W 9605   7.110   6.682  11.328
 5406W        W 9606   2.320   7.937  10.985
 5407W        W 9607   0.356   1.280  11.838
 5408W        W 9608   3.955   6.295   1.278
 5409W        W 9609   6.664   7.529   3.665
 5410W        W 9610  11.332   8.450   2.176
 5411W        W 9611   9.120  11.388   0.716
 5412W        W 9612   0.166   5.157   0.930
 5413W        W 9613   9.889   0.399  11.842
 5414W        W 9614   5.079   0.246   0.231
 5415W        W 9615   6.238   3.495   2.267
 5416W        W 9616  10.797  10.358   3.426
 5417W        W 9617  11.180   5.276   8.747
 5418W        W 9618   5.698   8.613   3.307
 5419W        W 9619   8.976   3.667   3.452
 5420W        W 9620  11.196   1.512   8.844
 5421W        W 9621   2.735  11.290   0.221
 5422W        W 9622   5.711   2.389   1.027
 5423W        W 9623   5.093   7.734  11.644
 5424W        W 9624   1.197   8.239   0.132
 5425W        W 9625  10.622   7.844   1.412
 5426W        W 9626   7.660   3.061   0.700
 5427W        W 9627  11.414   3.775   3.129
 5428W        W 9628   4.361   5.004   1.416
 5429W        W 9629   0.169   9.249  10.336
 5430W        W 9630   8.741   7.974  10.378
 5431W        W 9631   1.713  10.834   9.414
 5432W        W 9632   9.357   6.627  11.786
 5433W        W 9633   9.144   7.344   9.577
 5434W        W 9634  11.495  11.370   9.821
 5435W        W 9635  10.767   0.227   9.923
 5436W        W 9636   1.974  10.701   8.976
 5437W        W 9637   7.754   6.294   8.251
 5438W        W 9638   0.197   5.545   9.512
 5439W        W 9639  10.827   7.201   8.946
 5440W        W 9640   6.444   2.800   8.977
 5441W        W 9641  10.099   0.746  10.545
 5442W        W 9642   6.790   6.108   1.325
 5443W        W 9643   9.508   3.302   2.265
 5444W        W 9644   5.257   5.828   2.351
 5445W        W 9645   7.305   0.451  10.048
 5446W        W 9646   8.932   0.793   2.404
 5447W        W 9647   3.666   3.599   0.714
 5448W        W 9648   0.196   3.060  10.252
 5449W        W 9649   0.407   8.680  10.901
 5450W        W 9650   7.584   6.366   3.461
 5451W        W 9651   1.292   7.843  10.925
 5452W        W 9652   4.000   1.016   0.420
 5453W        W 9653   9.478   2.795   9.906
 5454W        W 9654   7.287   1.002   0.263
 5455W        W 9655   6.818   0.784   8.405
 5456W        W 9656   5.526   3.778   1.813
 5457W        W 9657   9.529   1.364   1.296
 5458W        W 9658   0.501   7.060   8.998
 5459W        W 9659   0.215   8.733  10.404
 5460W        W 9660   0.296   3.863  11.141
 5461W        W 9661   1.412  10.873  11.783
 5462W        W 9662  10.760   9.346   2.263
 5463W        W 9663   2.036   8.366   3.222
 5464W        W 9664   1.644  10.380   2.139
 5465W        W 9665   4.640   8.135   9.675
 5466W        W 9666   9.446   6.893   9.870
 5467W        W 9667   3.690   5.433  10.339
 5468W        W 9668  11.377   6.045   0.036
 5469W        W 9669   3.354   7.214  10.963
 5470W        W 9670  10.927   8.560   8.627
 5471W        W 9671  10.735   6.987   0.403
 5472W        W 9672   3.345   9.130  11.066
 5473W        W 9673   1.629   9.624  11.482
 5474W        W 9674   5.889   1.520   9.801
 5475W        W 9675   4.895  10.384  10.180
 5476W        W 9676   1.313   5.732   0.384
 5477W        W 9677   2.142   1.752  11.576
 5478W        W 9678   9.827   0.629   3.038
 5479W        W 9679   7.700   9.048   9.911
 5480W        W 9680   7.148   7.117  10.541
 5481W        W 9681  11.462   9.822   8.703
 5482W        W 9682   1.361  10.442   9.978
 5483W        W 9683   5.464  10.739   2.452
 5484W        W 9684   4.998   7.979   3.358
 5485W        W 9685   3.249   0.189  11.457
 5486W        W 9686   2.272   7.506  10.343
 5487W        W 9687   1.483   4.260   2.374
 5488W        W 9688  10.483   2.461   9.935
 5489W        W 9689   4.960   6.405  11.721
 5490W        W 9690   7.060   1.775   1.136
 5491W        W 9691   0.416   0.349   0.509
 5492W        W 9692   8.362   7.201  11.027
 5493W        W 9693   2.335   3.091   2.778
 5494W        W 9694  10.571   6.011   2.190
 5495W        W 9695   4.294  11.379  11.528
 5496W        W 9696   2.418  10.208  11.517
 5497W        W 9697   0.955  11.463   8.557
 5498W        W 9698   9.421   0.788   2.118
 5499W        W 9699   7.704   6.622   8.678
 5500W        W 9700   6.588   8.573   3.834
 5501W        W 9701   2.373   0.388   9.157
 5502W        W 9702   8.470   5.053   9.665
 5503W        W 9703   3.716   0.863   2.071
 5504W        W 9704   1.721   0.362   1.652
 5505W        W 9705   4.269   2.268   9.288
 5506W        W 9706   0.376   8.036   9.106
 5507W        W 9707   9.996  10.028   0.721
 5508W        W 9708   0.417   3.401   1.476
 5509W        W 9709   4.221   0.025  11.002
 5510W        W 9710  11.121   1.434   2.332
 5511W        W 9711   5.103   6.971   1.061
 5512W        W 9712  11.480   5.590   1.426
 5513W        W 9713   1.385   7.075   0.132
 5514W        W 9714   1.407   3.734   1.028
 5515W        W 9715   3.307   7.623   0.798
 5516W        W 9716   6.108   1.718   3.512
 5517W        W 9717   8.473   8.434   3.593
 5518W        W 9718   9.984  10.379   3.532
 5519W        W 9719   9.532   7.737  10.420
 5520W        W 9720   8.048  10.989  10.094
 5521W        W 9721  10.875   8.686   9.983
 5522W        W 9722   2.498   4.321   2.140
 5523W        W 9723   8.677   8.531  11.759
 5524W        W 9724   2.389   6.072  10.435
 5525W        W 9725   2.890   8.903  10.720
 5526W        W 9726   7.123   5.739  11.362
 5527W        W 9727   2.879   9.333   0.278
 5528W        W 9728   5.093   9.075  11.469
 5529W        W 9729   3.441   0.213  10.982
 5530W        W 9730   4.628   4.557   0.494
 5531W        W 9731   0.638   0.519  10.863
 5532W        W 9732   8.407   7.875   3.101
 5533W        W 9733  10.398   5.608   0.905
 5534W        W 9734   1.842   5.690  11.649
 5535W        W 9735   2.038   4.686   9.875
 5536W        W 9736  11.041   5.307   1.966
 5537W        W 9737   4.840  10.443  11.461
 5538W        W 9738   4.407   4.064   3.251
 5539W        W 9739   7.277   2.269   8.810
 5540W        W 9740   3.695   1.793   1.668
 5541W        W 9741   8.399   4.153   9.275
 5542W        W 9742   7.858   3.258   0.244
 5543W        W 9743   4.366   3.249   3.666
 5544W        W 9744   9.000   5.013   1.454
 5545W        W 9745   4.246   7.030   8.769
 5546W        W 9746   7.772   0.905   0.463
 5547W        W 9747   6.120   4.552   1.313
 5548W        W 9748  10.348   6.420   9.989
 5549W        W 9749   5.869   9.403   0.342
 5550W        W 9750   4.177   1.375   0.827
 5551W        W 9751  11.227   9.851  10.194
 5552W        W 9752   7.223   9.542  10.376
 5553W        W 9753   6.017   4.268   2.612
 5554W        W 9754   4.951   2.327   2.653
 5555W        W 9755  10.340   9.497  10.295
 5556W        W 9756   2.591   9.834  11.113
 5557W        W 9757   1.432   1.758   3.129
 5558W        W 9758   5.549   5.395   2.259
 5559W        W 9759   4.898   7.103   1.518
 5560W        W 9760   0.379   1.300  11.304
 5561W        W 9761   5.569   4.630   9.015
 5562W        W 9762   5.914   6.509   9.460
 5563W        W 9763   0.235   6.797   2.094
 5564W        W 9764   9.914  10.461   1.236
 5565W        W 9765   2.302   3.349   1.331
 5566W        W 9766   4.949   9.102   8.559
 5567W        W 9767   8.536   3.873   1.751
 5568W        W 9768   1.518   4.804   2.684
 5569W        W 9769   6.236  11.458   1.411
 5570W        W 9770   1.860   6.915   3.146
 5571W        W 9771   3.159   3.603   0.777
 5572W        W 9772   7.698   9.207   1.292
 5573W        W 9773   7.881   8.070  10.214
 5574W        W 9774   9.573  11.389   0.983
 5575W        W 9775   6.758   6.572   9.940
 5576W        W 9776   3.046   5.525   2.479
 5577W        W 9777   7.324   8.566   2.769
 5578W        W 9778   3.394  10.935  10.809
 5579W        W 9779   8.035   1.320   1.259
 5580W        W 9780   5.926   3.066   0.329
 5581W        W 9781  11.272   1.027   3.557
 5582W        W 9782  10.315   3.707   1.704
 5583W        W 9783   4.598   3.365  10.037
 5584W        W 9784   8.504   7.664   9.050
 5585W        W 9785   7.757   5.267   8.576
 5586W        W 9786   1.729   3.134   2.251
 5587W        W 9787   3.140   7.039   9.900
 5588W        W 9788   2.278   2.470   1.703
 5589W        W 9789   9.504   7.395   9.959
 5590W        W 9790   7.491   0.244  11.155
 5591W        W 9791   6.617   2.344   1.385
 5592W        W 9792   8.642   7.641   9.896
 5593W        W 9793  10.974   3.588   0.453
 5594W        W 9794   3.595   2.345   0.465
 5595W        W 9795   8.133   6.603  11.288
 5596W        W 9796   6.945   0.335   1.114
 5597W        W 9797   0.931   5.718   9.005
 5598W        W 9798  10.296   5.655   2.436
 5599W        W 9799   4.208   6.916  11.316
 5600W        W 9800   0.113   0.741  10.817
 5601W        W 9801   1.454  11.362   0.842
 5602W        W 9802  10.019   0.305   9.118
 5603W        W 9803   2.217   1.913   8.721
 5604W        W 9804   1.370   1.435   1.786
 5605W        W 9805   9.136   9.945   3.120
 5606W        W 9806   8.619   1.156  11.016
 5607W        W 9807   9.284   2.661   2.544
 5608W        W 9808   9.164  11.497   0.211
 5609W        W 9809   7.518   8.771   9.150
 5610W        W 9810   2.770   1.592   1.497
 5611W        W 9811  10.700  10.594   2.932
 5612W        W 9812  10.434   8.207   3.499
 5613W        W 9813   8.373   7.921   1.359
 5614W        W 9814   2.165   0.684   2.825
 5615W        W 9815   6.437   1.162  11.201
 5616W        W 9816   7.185   6.465   1.728
 5617W        W 9817   5.416   5.281   9.544
 5618W        W 9818   0.115   1.628   2.728
 5619W        W 9819   3.173   2.823   9.923
 5620W        W 9820   3.005   4.706   2.995
 5621W        W 9821   2.050   5.148   0.662
 5622W        W 9822   6.047   9.363   9.608
 5623W        W 9823   9.042   5.130   2.396
 5624W        W 9824   8.463   0.395   1.235
 5625W        W 9825  10.352   6.483  11.008
 5626W        W 9826   7.082   8.429  11.073
 5627W        W 9827   4.053   4.744  10.714
 5628W        W 9828   2.345   7.717   8.976
 5629W        W 9829   6.561   3.078   4.130
 5630W        W 9830  11.227  11.033  11.062
 5631W        W 9831   0.004   3.448   9.077
 5632W        W 9832   2.980   8.374   9.039
 5633W        W 9833   6.231   9.334  11.989
 5634W        W 9834   2.255   2.818   9.823
 5635W        W 9835   9.895   6.166  11.452
 5636W        W 9836   8.682   6.605   1.777
 5637W        W 9837  10.415  10.469  10.788
 5638W        W 9838  10.044   4.085   0.893
 5639W        W 9839   7.030   0.768   3.147
 5640W        W 9840  10.401   4.507   2.869
 5641W        W 9841   8.753   2.296   1.817
 5642W        W 9842   9.205   3.835   9.426
 5643W        W 9843   5.491   5.040   9.986
 5644W        W 9844   6.929  10.776   2.362
 5645W        W 9845   3.523   7.722  11.951
 5646W        W 9846   0.244   2.740   1.533
 5647W        W 9847   1.859   8.180   1.993
 5648W        W 9848   9.145   9.073   9.790
 5649W        W 9849   1.188   4.800  11.463
 5650W        W 9850  11.391   9.825   9.224
 5651W        W 9851   8.597   9.349  10.630
 5652W        W 9852   7.970   2.327  10.725
 5653W        W 9853   0.503   8.050  11.827
 5654W        W 9854   4.478   2.815  10.645
 5655W        W 9855   8.919   1.570  11.189
 5656W        W 9856   3.485   3.797   1.174
 5657W        W 9857   6.439   3.523   0.873
 5658W        W 9858   6.568   2.862   1.362
 5659W        W 9859  10.446   3.296  10.623
 5660W        W 9860   3.707   8.287  11.294
 5661W        W 9861   4.160   6.603   0.760
 5662W        W 9862   4.740   0.311  10.342
 5663W        W 9863  10.049   0.113  11.431
 5664W        W 9864  10.992  11.258   9.928
 5665W        W 9865   0.824   5.073   3.244
 5666W        W 9866  10.071   1.369   2.448
 5667W        W 9867   8.875   4.172   0.271
 5668W        W 9868   0.787   9.938   3.235
 5669W        W 9869  10.861   9.646   2.680
 5670W        W 9870   3.432   3.146   0.883
 5671W        W 9871  11.013   6.988   3.584
 5672W        W 9872   1.266   2.325   2.852
 5673W        W 9873   2.137  10.851   1.373
 5674W        W 9874   7.150  10.332   2.437
 5675W        W 9875   3.419  11.072   9.933
 5676W        W 9876   2.226   3.321   9.635
 5677W        W 9877   3.499   3.969  10.623
 5678W        W 9878   1.878   5.530   9.328
 5679W        W 9879   8.669   5.187   2.879
 5680W        W 9880   5.542   7.349   9.785
 5681W        W 9881   4.329   7.567   0.800
 5682W        W 9882   0.951   2.679   2.660
 5683W        W 9883   0.184   6.838  10.507
 5684W        W 9884   5.389   4.128   3.986
 5685W        W 9885   8.191   8.079   8.956
 5686W        W 9886   8.884   5.491  10.237
 5687W        W 9887   7.477   2.368  10.496
 5688W        W 9888   7.709  11.239   9.781
 5689W        W 9889   0.198   5.259   8.967
 5690W        W 9890   1.887   6.990   1.457
 5691W        W 9891   0.977   5.284   2.163
 5692W        W 9892   7.647   0.583   1.742
 5693W        W 9893  11.416   5.689   9.941
 5694W        W 9894   2.623  11.252   9.517
 5695W        W 9895  10.849   7.168  10.005
 5696W        W 9896   3.736   4.764   2.259
 5697W        W 9897   4.669   9.918   0.517
 5698W        W 9898   7.878   1.544  11.925
 5699W        W 9899   0.748   0.421   8.673
 5700W        W 9900  11.329   0.026  11.292
 5701W        W 9901   0.466   8.004   0.613
 5702W        W 9902  10.238  11.340  10.300
 5703W        W 9903   1.443   4.235   0.231
 5704W        W 9904   4.938   1.298   3.239
 5705W        W 9905   7.685   8.985  10.935
 5706W        W 9906   6.886   8.855   8.530
 5707W        W 9907   3.676   5.491  10.857
 5708W        W 9908   4.941   4.342  10.504
 5709W        W 9909   0.383   8.778   0.323
 5710W        W 9910   6.951   4.581  10.345
 5711W        W 9911   8.229   9.598   8.798
 5712W        W 9912   5.026   2.898  10.624
 5713W        W 9913   9.754   4.554  10.636
 5714W        W 9914  11.135   8.492  10.407
 5715W        W 9915   4.461   8.022   1.905
 5716W        W 9916   6.424   1.319   1.233
 5717W        W 9917   1.433   9.081   1.206
 5718W        W 9918   9.911   6.455   3.571
 5719W        W 9919   1.314   7.160   2.327
 5720W        W 9920   8.062   4.154   1.089
 5721W        W 9921   4.812   5.239   1.864
 5722W        W 9922   0.391   3.482   9.428
 5723W        W 9923   6.954   1.704   2.112
 5724W        W 9924   4.435  10.277   0.901
 5725W        W 9925  10.034   8.084   9.819
 5726W        W 9926  10.294   3.976  11.985
 5727W        W 9927   8.410   6.166   1.715
 5728W        W 9928  11.289   3.410   0.858
 5729W        W 9929   4.466   6.310   1.156
 5730W        W 9930   0.023   8.554   0.642
 5731W        W 9931   8.824   1.131   3.399
 5732W        W 9932   3.880   7.120   1.482
 5733W        W 9933   9.040   4.319   0.735
 5734W        W 9934   7.736   1.492   1.650
 5735W        W 9935  11.364  10.124  11.633
 5736W        W 9936   4.162   5.060   2.350
 5737W        W 9937   8.928   7.577   1.664
 5738W        W 9938   3.159   7.711   9.414
 5739W        W 9939   2.294   4.790   0.964
 5740W        W 9940   1.408  11.436   8.817
 5741W        W 9941   1.431  11.313  11.539
 5742W        W 9942   7.145   2.933   8.822
 5743W        W 9943  11.181   9.277  11.004
 5744W        W 9944   0.423   3.731   3.220
 5745W        W 9945   1.014   8.459  10.307
 5746W        W 9946   8.811   5.996   8.344
 5747W        W 9947   6.363   0.807  10.687
 5748W        W 9948   5.515   3.707   8.144
 5749W        W 9949   9.558   8.623   3.274
 5750W        W 9950   5.908   3.387   1.883
 5751W        W 9951   2.274   8.448  10.320
 5752W        W 9952   5.737   9.123   3.556
 5753W        W 9953   3.612   1.885   9.506
 5754W        W 9954   1.344   4.760   2.202
 5755W        W 9955   6.057   8.344   2.692
 5756W        W 9956  10.375   6.592   3.364
 5757W        W 9957   0.301  10.562   9.161
 5758W        W 9958   9.561   5.548   1.131
 5759W        W 9959   8.519   0.942   2.102
 5760W        W 9960   2.896   7.874   1.330
 5761W        W 9961   0.093  10.579  11.730
 5762W        W 9962   5.188   0.967  11.435
 5763W        W 9963   9.068   7.599   2.658
 5764W        W 9964   2.271   0.860  10.848
 5765W        W 9965   6.287  10.514  10.774
 5766W        W 9966   3.509   3.747   3.563
 5767W        W 9967  10.570   9.989  10.980
 5768W        W 9968   6.161   1.742  11.024
 5769W        W 9969   8.103   7.673  11.193
 5770W        W 9970   2.159   8.897  11.026
 5771W        W 9971   8.930   6.037   0.784
 5772W        W 9972  10.184   4.248  10.584
 5773W        W 9973   3.271   9.090   9.071
 5774W        W 9974  10.509   9.033   8.913
 5775W        W 9975  10.032   9.012   2.191
 5776W        W 9976  10.318   5.392  10.581
 5777W        W 9977   1.664   3.835   2.772
 5778W        W 9978  11.264  10.279   0.620
 5779W        W 9979   1.938  11.433   1.846
 5780W        W 9980   4.518  10.914  11.453
 5781W        W 9981   2.764   2.050   9.044
 5782W        W 9982   6.138   9.061   2.293
 5783W        W 9983   8.963   0.358   2.689
 5784W        W 9984   9.540   6.432   9.598
 5785W        W 9985   1.372   3.828  10.954
 5786W        W 9986   7.429   7.615  11.708
 5787W        W 9987   0.986   3.670  10.392
 5788W        W 9988   4.923   7.204   0.592
 5789W        W 9989  10.443  10.763   2.460
 5790W        W 9990   3.323   3.766   9.793
 5791W        W 9991   1.738  11.352   3.610
 5792W        W 9992   7.198   7.501   1.058
 5793W        W 9993   3.131  10.805  11.287
 5794W        W 9994   0.281  10.075   1.410
 5795W        W 9995   8.627   1.986   1.440
 5796W        W 9996   5.167   1.937  10.943
 5797W        W 9997   4.701   6.062  10.780
 5798W        W 9998  10.065   7.591   1.353
 5799W        W 9999   2.366   9.871   2.340
 5800W        W10000  10.341   4.959   8.848
 5801W        W10001   4.695  10.564   1.832
 5802W        W10002   6.997   0.373   0.128
 5803W        W10003   0.601  11.350  11.780
 5804W        W10004   9.208   5.210  11.317
 5805W        W10005   8.058   5.682   8.708
 5806W        W10006   8.561  11.029   1.774
 5807W        W10007   2.518   4.771   2.868
 5808W        W10008   3.700   3.073   9.037
 5809W        W10009   3.483   9.462   3.610
 5810W        W10010   2.594   9.364   0.726
 5811W        W10011   2.695   4.287  10.264
 5812W        W10012   3.702   4.257   2.166
 5813W        W10013   8.458   9.569   0.160
 5814W        W10014   7.723   6.432   9.163
 5815W        W10015   1.920   0.983   0.746
 5816W        W10016   8.996  10.866   2.535
 5817W        W10017   2.837   5.560  10.771
 5818W        W10018  10.885  10.531   0.873
 5819W        W10019   5.647  10.134   9.844
 5820W        W10020   5.654   9.591   3.238
 5821W        W10021   6.558   1.233   2.358
 5822W        W10022   6.103   1.510   8.974
 5823W        W10023   0.858   4.860   8.489
 5824W        W10024   8.706   4.763   9.307
 5825W        W10025   6.222   1.622   3.022
 5826W        W10026   6.670   0.579  11.764
 5827W        W10027   4.694   1.316   0.801
 5828W        W10028   9.455   8.769  10.834
 5829W        W10029   2.642   8.993  11.155
 5830W        W10030   3.671   2.351   1.911
 5831W        W10031   0.019   8.951   2.310
 5832W        W10032   1.836   8.699   1.904
 5833W        W10033   8.945   8.456  11.032
 5834W        W10034   8.055   4.792   1.715
 5835W        W10035   7.086   6.504   1.189
 5836W        W10036   5.971   8.481   0.320
 5837W        W10037   9.898   1.870   2.497
 5838W        W10038   8.647   6.433   9.128
 5839W        W10039   6.232   3.648   3.144
 5840W        W10040   2.584   8.811   1.298
 5841W        W10041   3.666   9.950   1.338
 5842W        W10042   0.879   4.616  11.813
 5843W        W10043  11.415   3.655  11.465
 5844W        W10044  10.480   5.708  11.925
 5845W        W10045   7.496   4.077   9.814
 5846W        W10046   7.899   7.931   3.152
 5847W        W10047   1.462   9.889   9.291
 5848W        W10048  10.496   0.072   2.799
 5849W        W10049   2.233  10.658   0.884
 5850W        W10050   2.883   3.438  11.363
 5851W        W10051  11.434   1.061  11.287
 5852W        W10052   8.293   3.729   0.853
 5853W        W10053   5.267   9.748   1.152
 5854W        W10054   0.323   7.474   9.291
 5855W        W10055  10.411   4.217   1.789
 5856W        W10056   8.924   0.122   8.774
 5857W        W10057   0.368   8.357   1.484
 5858W        W10058  10.792   1.834   1.237
 5859W        W10059   1.171  10.340   2.315
 5860W        W10060  10.082   3.257  11.455
 5861W        W10061   6.406   7.801  10.898
 5862W        W10062   6.052   4.329   0.835
 5863W        W10063   6.647   1.288   0.423
 5864W        W10064   7.995   4.259  11.120
 5865W        W10065   8.705   5.838  10.558
 5866W        W10066   7.415   8.289  10.071
 5867W        W10067   8.935   8.077   9.897
 5868W        W10068   6.740  11.421   1.346
 5869W        W10069   1.629   6.177   9.536
 5870W        W10070   1.698   0.945  10.147
 5871W        W10071   1.770   2.442   3.564
 5872W        W10072   6.848   1.415   1.484
 5873W        W10073   5.229   2.156  11.845
 5874W        W10074  11.359   0.403  11.729
 5875W        W10075   2.243   8.987   2.006
 5876W        W10076   8.914   8.512   2.192
 5877W        W10077   3.907   7.031   3.249
 5878W        W10078  10.861   5.887   3.616
 5879W        W10079   2.495   7.073  10.504
 5880W        W10080  10.484   5.643   1.405
 5881W        W10081   3.199   5.624  11.529
 5882W        W10082   7.943   6.999   9.581
 5883W        W10083   6.685   0.331   3.041
 5884W        W10084   9.370   3.194   8.508
 5885W        W10085   4.704   7.066   9.034
 5886W        W10086   5.118   7.158  11.004
 5887W        W10087   8.329   4.817   2.168
 5888W        W10088  11.318   4.794   0.291
 5889W        W10089   2.350   8.663   2.920
 5890W        W10090   6.471   8.010   8.676
 5891W        W10091  11.037   2.837   1.849
 5892W        W10092   6.531   8.473   9.900
 5893W        W10093   5.554   3.274   9.812
 5894W        W10094  10.468   5.539  11.029
 5895W        W10095  10.274   0.287   1.345
 5896W        W10096   3.422  10.192   0.643
 5897W        W10097   4.914   1.153  10.513
 5898W        W10098   2.662  10.974  11.258
 5899W        W10099   7.535  10.170  11.920
 5900W        W10100   2.109   6.658   0.359
 5901W        W10101  10.404   1.058   9.690
 5902W        W10102   7.328   8.337   1.408
 5903W        W10103   2.548   8.877  10.352
 5904W        W10104   2.689   5.827   1.613
 5905W        W10105   7.507   9.577   2.809
 5906W        W10106   8.645   3.285   2.642
 5907W        W10107   6.483  11.397   2.832
 5908W        W10108   5.303   4.772   9.424
 5909W        W10109   1.671   9.757  10.105
 5910W        W10110   0.254   7.616   2.753
 5911W        W10111   2.881  10.444   1.392
 5912W        W10112  10.404   3.814   1.212
 5913W        W10113   6.217   8.164   9.089
 5914W        W10114   9.506   0.221   0.597
 5915W        W10115   6.004   7.168   1.702
 5916W        W10116   4.477  10.499  10.594
 5917W        W10117   0.385  11.026   8.967
 5918W        W10118  11.085   1.863   0.796
 5919W        W10119   3.380   9.774   0.946
 5920W        W10120   5.423   1.055  10.429
 5921W        W10121   6.561   9.517   1.651
 5922W        W10122   6.228   1.895   8.414
 5923W        W10123   0.284   8.487   8.788
 5924W        W10124   1.663   3.141  11.945
 5925W        W10125   9.036   8.531   3.247
 5926W        W10126   4.669   8.756   9.789
 5927W        W10127   9.292   2.838   8.914
 5928W        W10128   7.255  11.476   1.334
 5929W        W10129   6.307   8.817   0.026
 5930W        W10130   9.449   6.163   8.715
 5931W        W10131  10.011   4.569   1.782
 5932W        W10132   1.727   1.943   3.529
 5933W        W10133   1.000   2.247   3.669
 5934W        W10134  11.241   9.461  10.522
 5935W        W10135   2.611   1.098   8.782
 5936W        W10136  10.881   4.733   9.968
 5937W        W10137   2.128   6.807  10.757
 5938W        W10138   7.132   7.962  11.947
 5939W        W10139   1.439  10.892  10.740
 5940W        W10140   9.261   7.493  11.919
 5941W        W10141   4.229   8.475   1.840
 5942W        W10142  10.013   5.776   1.222
 5943W        W10143   4.486  10.702   2.293
 5944W        W10144  10.071   2.651  11.975
 5945W        W10145   2.764   8.491   2.019
 5946W        W10146  10.514   4.545  10.297
 5947W        W10147   7.402   9.868  10.988
 5948W        W10148   4.224  11.169   2.275
 5949W        W10149   8.244   8.579   0.800
 5950W        W10150   8.973   6.773   0.497
 5951W        W10151   6.708   1.865   9.804
 5952W        W10152   1.609   0.673   0.424
 5953W        W10153   9.171   6.731   2.653
 5954W        W10154   9.000   7.391   0.802
 5955W        W10155   7.115   5.565   9.967
 5956W        W10156   2.643   9.941   1.348
 5957W        W10157  11.317   0.676   0.159
 5958W        W10158   7.125   2.534   0.257
 5959W        W10159   5.306   5.235   1.492
 5960W        W10160   5.219   0.219  10.178
 5961W        W10161  11.009   8.875   2.296
 5962W        W10162   0.709   9.262   8.873
 5963W        W10163   7.488   1.840   2.470
 5964W        W10164  10.978   5.989   8.952
 5965W        W10165   2.642  11.462   2.766
 5966W        W10166   0.693   4.120  11.532
 5967W        W10167   8.889   5.576  11.020
 5968W        W10168  11.179   7.217  11.482
 5969W        W10169   5.789   6.972  10.048
 5970W        W10170   9.205   2.337   3.487
 5971W        W10171   1.779  11.289   2.311
 5972W        W10172   6.936   2.224  10.084
 5973W        W10173  10.396   7.538   8.849
 5974W        W10174   0.899   0.219   1.642
 5975W        W10175   8.603   8.983  11.479
 5976W        W10176   1.420   9.825   2.000
 5977W        W10177   4.271   4.331   2.818
 5978W        W10178  10.067   5.076   1.946
 5979W        W10179  10.399  11.080  11.610
 5980W        W10180  10.615   3.164   2.882
 5981W        W10181  10.971   7.678  10.793
 5982W        W10182   7.032   7.131  11.048
 5983W        W10183   9.358   9.525  11.693
 5984W        W10184  10.601   8.005   0.894
 5985W        W10185   5.046   5.234  10.958
 5986W        W10186   1.574   1.952   2.650
 5987W        W10187   1.459   4.504   1.092
 5988W        W10188   9.244   7.059  11.515
 5989W        W10189   0.191   9.439   2.591
 5990W        W10190   1.062   6.690   0.315
 5991W        W10191  11.425   1.498  11.566
 5992W        W10192   6.247   8.961   9.357
 5993W        W10193   3.827  10.815   2.310
 5994W        W10194   6.147   5.697  11.749
 5995W        W10195   5.546   1.854   2.673
 5996W        W10196   2.506   8.977   9.480
 5997W        W10197  10.035  10.956   0.444
 5998W        W10198  10.064   8.581   3.418
 5999W        W10199   6.916   7.080   3.631
 6000W        W10200   4.178  10.010  10.275
 6001W        W10201   3.323  10.347  11.305
 6002W        W10202   3.017   6.231   1.598
 6003W        W10203   2.750   0.406   3.002
 6004W        W10204   6.147  11.011  11.930
 6005W        W10205   7.997   6.108   2.008
 6006W        W10206   4.537   4.312  11.385
 6007W        W10207   5.044   0.179   0.740
 6008W        W10208   4.051   9.701  11.064
 6009W        W10209   9.950   8.576   2.937
 6010W        W10210   5.120   3.583   3.181
 6011W        W10211  10.450   1.935  10.062
 6012W        W10212   2.720   5.494   3.567
 6013W        W10213   7.667   9.859  10.515
 6014W        W10214   8.265   5.582   1.205
 6015W        W10215   3.883   0.778  11.744
 6016W        W10216   1.021   7.011   3.608
 6017W        W10217   2.354   7.955   3.270
 6018W        W10218   0.523   7.929   3.556
 6019W        W10219   7.928   1.430   9.743
 6020W        W10220   1.334   2.536   8.813
 6021W        W10221   8.259   8.068  10.553
 6022W        W10222  10.847   0.986   2.232
 6023W        W10223   0.514   1.903   1.007
 6024W        W10224   9.376   9.618   9.424
 6025W        W10225   7.934   5.178   2.273
 6026W        W10226   8.799   4.600   2.267
 6027W        W10227   5.130   3.698   0.201
 6028W        W10228   9.289   7.142   2.362
 6029W        W10229   8.360   0.450   9.427
 6030W        W10230   7.899  11.251   0.764
 6031W        W10231   1.008   7.316  10.930
 6032W        W10232   8.950   5.201   9.822
 6033W        W10233   6.518  10.264   0.316
 6034W        W10234   6.992   3.602   2.685
 6035W        W10235   6.204  11.430   1.919
 6036W        W10236   6.105   9.498   3.530
 6037W        W10237   1.478   8.881   3.610
 6038W        W10238   5.544   9.519   0.766
 6039W        W10239  11.012   3.220   9.114
 6040W        W10240   0.720   6.527   3.495
 6041W        W10241   0.004   5.353  11.226
 6042W        W10242   2.721   4.030   2.507
 6043W        W10243   9.776   3.087   0.023
 6044W        W10244   7.094   4.450  10.847
 6045W        W10245   3.810   6.973   0.628
 6046W        W10246   7.391   6.649   2.256
 6047W        W10247  11.029  10.963   9.527
 6048W        W10248   6.985   8.641  11.559
 6049W        W10249   4.650   7.220   1.044
 6050W        W10250   1.725   0.307   2.150
 6051W        W10251   5.504   4.553   9.840
 6052W        W10252  10.405   3.049  11.089
 6053W        W10253  10.188   7.043   1.402
 6054W        W10254   2.435   8.638   9.878
 6055W        W10255   8.434   0.305  10.988
 6056W        W10256  10.971   5.398   3.495
 6057W        W10257  10.591   1.402   2.414
 6058W        W10258   9.591   8.238   0.888
 6059W        W10259   3.670   9.483  11.333
 6060W        W10260   6.588   0.335  10.557
 6061W        W10261   3.647   5.762   9.937
 6062W        W10262   6.984   1.752  11.765
 6063W        W10263   9.855   8.145  10.328
 6064W        W10264  10.362   3.981   2.574
 6065W        W10265   8.249   2.183   2.769
 6066W        W10266  10.220   2.177  11.398
 6067W        W10267   2.412  10.481   3.121
 6068W        W10268   3.758   9.804  10.079
 6069W        W10269   8.657   0.949   8.617
 6070W        W10270   2.598   4.872   1.795
 6071W        W10271   6.054   3.249   2.859
 6072W        W10272   2.685   3.382   9.409
 6073W        W10273  10.018   7.684  10.623
 6074W        W10274   6.909   5.870  10.916
 6075W        W10275   5.920  10.819   2.220
 6076W        W10276   4.492   7.661   1.281
 6077W        W10277   9.618  11.069   1.418
 6078W        W10278   5.934   5.037   2.222
 6079W        W10279   9.936   2.214   9.399
 6080W        W10280   4.548   4.451   4.052
 6081W        W10281   9.077   8.229   0.967
 6082W        W10282   6.102   8.546  10.745
 6083W        W10283  10.185  10.376   2.145
 6084W        W10284   6.270   8.486   8.677
 6085W        W10285   7.693   3.494   1.183
 6086W        W10286   1.834   1.729   2.233
 6087W        W10287   3.125  11.343   9.603
 6088W        W10288   8.959   0.668  11.687
 6089W        W10289   0.779   9.265   9.856
 6090W        W10290   9.348   4.747   0.818
 6091W        W10291   2.207   5.736   1.453
 6092W        W10292   0.760   4.302   9.090
 6093W        W10293   8.915   3.915   9.006
 6094W        W10294   0.289   9.775   0.441
 6095W        W10295   1.939   7.790   8.608
 6096W        W10296   4.887   8.918   1.029
 6097W        W10297  10.888   5.050   9.544
 6098W        W10298   7.382   9.650   9.295
 6099W        W10299   4.266   9.469   2.513
 6100W        W10300  11.089   4.311   1.027
 6101W        W10301   0.900   4.184   2.192
 6102W        W10302   5.789   6.154  10.224
 6103W        W10303   3.446   9.518   9.802
 6104W        W10304   9.946   1.711   1.544
 6105W        W10305   9.488   5.373   0.165
 6106W        W10306   2.841   5.732   0.710
 6107W        W10307   6.990   4.728  11.657
 6108W        W10308   8.770   8.575   1.717
 6109W        W10309   3.899   9.826   0.881
 6110W        W10310   9.562   3.754  11.350
 6111W        W10311   3.668   0.245  10.525
 6112W        W10312   4.636   7.007  11.045
 6113W        W10313   7.823   0.859  11.239
 6114W        W10314   8.485  11.283  10.041
 6115W        W10315   2.780  10.629   0.180
 6116W        W10316   8.965   2.827  10.609
 6117W        W10317   4.443  10.925   3.406
 6118W        W10318  10.331  10.649  11.316
 6119W        W10319   3.740   8.092   0.327
 6120W        W10320   2.853   8.188  11.488
 6121W        W10321   4.732   3.309  10.542
 6122W        W10322   1.161   8.959   9.749
 6123W        W10323  10.115   1.454  11.348
 6124W        W10324   6.246   1.368   9.475
 6125W        W10325   0.469   7.847  10.416
 6126W        W10326   3.117   8.900   0.441
 6127W        W10327   3.349   0.434   0.508
 6128W        W10328   5.199   8.154   9.415
 6129W        W10329  11.204   2.798   9.349
 6130W        W10330   9.352  10.528   2.319
 6131W        W10331   9.021  10.477   3.361
 6132W        W10332   0.347   8.860  11.379
 6133W        W10333   2.171   2.393   9.528
 6134W        W10334   8.038   0.367   1.486
 6135W        W10335   9.698  11.458   9.428
 6136W        W10336   1.690   4.803  11.546
 6137W        W10337   1.968  10.545   1.772
 6138W        W10338   8.138   8.907   0.340
 6139W        W10339   6.276   6.757   1.847
 6140W        W10340   4.215   4.629  11.765
 6141W        W10341   7.102   8.946   0.582
 6142W        W10342   4.184   2.728   3.625
 6143W        W10343   2.992   3.715   3.651
 6144W        W10344   3.722   8.849   9.215
 6145W        W10345   6.438   0.462   0.205
 6146W        W10346   6.151  11.277   2.398
 6147W        W10347   5.173   6.595   0.677
 6148W        W10348   5.161  11.031   2.738
 6149W        W10349   2.728   0.191  10.440
 6150W        W10350   7.702  10.783   2.165
 6151W        W10351   8.143  11.037   1.428
 6152W        W10352   5.451   8.052  10.740
 6153W        W10353  10.296   1.297   0.697
 6154W        W10354   5.574   8.542   3.782
 6155W        W10355   9.526   2.525   0.607
 6156W        W10356   5.167   4.476   2.872
 6157W        W10357   0.932   3.151   3.602
 6158W        W10358   2.366  11.148   0.977
 6159W        W10359   3.647   6.907  10.658
 6160W        W10360   6.616   5.648  10.092
 6161W        W10361   6.441   2.396  11.452
 6162W        W10362   2.000   8.439  10.880
 6163W        W10363   1.189   9.446   9.519
 6164W        W10364   6.301   7.185   0.437
 6165W        W10365   8.817   1.680   0.170
 6166W        W10366   9.775   2.829   2.345
 6167W        W10367   4.026   4.623   1.393
 6168W        W10368   5.511  10.047   2.981
 6169W        W10369   6.307  10.294   8.980
 6170W        W10370   7.028  10.969   9.046
 6171W        W10371   5.728   2.834   2.887
 6172W        W10372   1.160   1.674  11.746
 6173W        W10373  11.483   9.105  11.952
 6174W        W10374   7.877   5.469  11.888
 6175W        W10375   5.642   7.172  11.071
 6176W        W10376   4.296   2.042   8.797
 6177W        W10377   6.171   6.464   1.449
 6178W        W10378   3.283   9.964   2.815
 6179W        W10379   0.722   1.149   0.192
 6180W        W10380   0.281  10.064   9.021
 6181W        W10381   7.146   9.989   9.601
 6182W        W10382  10.911   6.239   2.502
 6183W        W10383   6.636  10.357   2.208
 6184W        W10384  10.844   3.430   9.620
 6185W        W10385   7.937   1.318  10.255
 6186W        W10386   9.819   4.230   9.809
 6187W        W10387   7.303   0.721   2.299
 6188W        W10388   0.934   8.020   2.531
 6189W        W10389  10.398   9.902   9.973
 6190W        W10390   3.734   6.483   0.356
 6191W        W10391   5.373   5.505   2.741
 6192W        W10392   1.854   4.101   1.339
 6193W        W10393   9.103  10.737   8.956
 6194W        W10394  10.081   1.747   9.065
 6195W        W10395  10.283   0.749   3.307
 6196W        W10396   1.340   6.588  11.348
 6197W        W10397   6.517   1.754   9.276
 6198W        W10398   9.325   0.462   8.736
 6199W        W10399   6.617  10.539   9.675
 6200W        W10400   1.779   8.515  10.422
 6201W        W10401   6.566   4.197   0.251
 6202W        W10402   0.724   4.574   3.426
 6203W        W10403   9.318   4.161   0.014
 6204W        W10404   6.702   9.451   1.166
 6205W        W10405   9.941  10.584   1.743
 6206W        W10406   2.121   7.606   0.247
 6207W        W10407   8.887   1.018   2.887
 6208W        W10408   8.540  10.372   3.152
 6209W        W10409   6.973  11.442  11.873
 6210W        W10410   3.387   9.907   1.777
 6211W        W10411   6.202   8.585   0.849
 6212W        W10412  11.205   7.922  10.358
 6213W        W10413  11.239   0.865   3.051
 6214W        W10414   7.729   0.758  10.023
 6215W        W10415   8.141   5.422   0.743
 6216W        W10416   9.063   5.689   1.122
 6217W        W10417   6.151   7.550   3.591
 6218W        W10418   8.838   1.411   0.892
 6219W        W10419   5.972  11.345  10.376
 6220W        W10420   5.960   8.084   8.628
 6221W        W10421   8.483   7.425   2.334
 6222W        W10422   4.582   0.062  11.995
 6223W        W10423  10.006   3.305   2.269
 6224W        W10424   8.717   8.403   9.577
 6225W        W10425  11.344   3.205   2.143
 6226W        W10426   0.699   1.653   0.016
 6227W        W10427   4.888   2.295   0.620
 6228W        W10428   9.309   8.312   3.630
 6229W        W10429  10.285   2.677  11.450
 6230W        W10430  10.578   8.127   9.192
 6231W        W10431   8.571   8.793   3.261
 6232W        W10432   0.929  10.300  11.854
 6233W        W10433   8.180   5.964  10.486
 6234W        W10434   2.101  10.056   3.657
 6235W        W10435   3.602   7.230   0.089
 6236W        W10436   4.748   9.906  11.430
 6237W        W10437   0.361  10.307  10.493
 6238W        W10438   9.292   0.593  10.956
 6239W        W10439   5.046   1.818   2.796
 6240W        W10440   1.999  10.228   0.743
 6241W        W10441   0.998   6.061  10.794
 6242W        W10442   4.899   7.524   3.066
 6243W        W10443   5.466   0.455   3.234
 6244W        W10444   7.924   0.486  10.878
 6245W        W10445   4.560   3.202   1.689
 6246W        W10446   2.273   6.728   1.795
 6247W        W10447   9.333   1.443   0.020
 6248W        W10448   3.786   0.334   1.915
 6249W        W10449   7.486   3.562  10.007
 6250W        W10450   4.540   7.512  11.811
 6251W        W10451   4.600   3.887  10.042
 6252W        W10452   5.753   5.672   9.548
 6253W        W10453   8.890  10.278  11.514
 6254W        W10454   5.471   1.371  11.511
 6255W        W10455   5.204   0.476   9.749
 6256W        W10456  11.452   6.899   2.661
 6257W        W10457   1.928   8.106  11.301
 6258W        W10458   5.984   5.328   0.749
 6259W        W10459  10.855   7.291  10.495
 6260W        W10460   5.677   8.061   1.534
 6261W        W10461   0.873  11.006   2.764
 6262W        W10462   0.810   6.378  11.991
 6263W        W10463   1.325  11.251   2.669
 6264W        W10464   7.281   6.899   1.447
 6265W        W10465   4.747   9.326  11.199
 6266W        W10466   8.911   9.011   2.050
 6267W        W10467   8.586   4.566   0.423
 6268W        W10468   8.893   4.237   1.681
 6269W        W10469   7.850   3.537   3.641
 6270W        W10470   5.620   8.034   0.990
 6271W        W10471   0.890   9.672  11.016
 6272W        W10472   9.923  11.475   2.153
 6273W        W10473   1.813   0.405   3.136
 6274W        W10474   9.065   6.229  11.143
 6275W        W10475   9.889  10.462  10.597
 6276W        W10476   7.841   5.607   2.594
 6277W        W10477  11.328   6.517   2.305
 6278W        W10478   0.145   2.192  10.301
 6279W        W10479   3.529   4.259  11.501
 6280W        W10480  10.500   0.387  10.460
 6281W        W10481   9.676   0.728   1.652
 6282W        W10482   3.976   3.648   1.201
 6283W        W10483   2.601   6.184   0.748
 6284W        W10484  11.089   4.709  11.833
 6285W        W10485   1.646   4.809   0.525
 6286W        W10486   4.160  10.554  11.017
 6287W        W10487   1.637   1.825   8.532
 6288W        W10488   3.671   8.357   9.420
 6289W        W10489   1.407  10.739   2.533
 6290W        W10490   4.283  10.336   9.599
 6291W        W10491   7.293   3.687   3.160
 6292W        W10492   1.201   4.555   0.636
 6293W        W10493   7.595  10.352  11.440
 6294W        W10494   9.004   9.821   9.125
 6295W        W10495   3.313   2.114   0.863
 6296W        W10496   4.218   2.006   2.209
 6297W        W10497   3.379   1.803  10.798
 6298W        W10498   1.364   8.051   2.276
 6299W        W10499   3.102   4.272   9.113
 6300W        W10500   7.145   3.049   1.918
 6301W        W10501   2.698   9.094   2.835
 6302W        W10502   7.666   3.656   9.504
 6303W        W10503  10.974  11.014   3.123
 6304W        W10504   7.723   0.395  10.398
 6305W        W10505   2.320   4.369   2.625
 6306W        W10506   8.424   2.845   9.522
 6307W        W10507   3.400   4.449   8.512
 6308W        W10508   9.159   6.799   3.970
 6309W        W10509   6.699   2.834  10.060
 6310W        W10510   7.862   0.994   8.888
 6311W        W10511   3.864   6.476  10.451
 6312W        W10512   5.693   1.865   1.117
 6313W        W10513   9.544   1.884   9.300
 6314W        W10514   8.947  11.218   9.097
 6315W        W10515   1.446   0.752   3.003
 6316W        W10516   2.714   8.673  11.551
 6317W        W10517   6.862  10.086   3.141
 6318W        W10518   6.926   1.941   8.995
 6319W        W10519   3.687   9.376  10.333
 6320W        W10520   9.445   0.523   3.414
 6321W        W10521   5.051   4.627   8.176
 6322W        W10522  10.005   2.340   0.391
 6323W        W10523   2.147   4.606   1.884
 6324W        W10524   6.758   8.373   8.462
 6325W        W10525  10.646   6.080  10.265
 6326W        W10526   7.485   1.256  10.027
 6327W        W10527   4.110   1.904   9.619
 6328W        W10528   5.945   9.131   8.998
 6329W        W10529   1.372   3.616   8.994
 6330W        W10530   9.568   6.097  11.039
 6331W        W10531   1.085   4.515   2.578
 6332W        W10532   1.752   3.933   8.901
 6333W        W10533   1.916   2.109   1.379
 6334W        W10534   3.714   3.129  10.819
 6335W        W10535   5.656   1.003   0.847
 6336W        W10536   9.406   0.792  11.410
 6337W        W10537   5.428   7.119   1.441
 6338W        W10538   3.625   9.575  11.887
 6339W        W10539  10.403   7.112   3.255
 6340W        W10540   0.166   2.394   3.275
 6341W        W10541  10.382   4.061   3.098
 6342W        W10542   9.421   3.169   3.253
 6343W        W10543   0.915   4.059   2.688
 6344W        W10544   8.189   3.851   2.929
 6345W        W10545   7.901   7.989   0.114
 6346W        W10546   0.760   4.681   0.912
 6347W        W10547   8.162   2.383   9.332
 6348W        W10548   5.618   4.710   2.001
 6349W        W10549   3.903   8.952   0.965
 6350W        W10550   8.912   6.010   1.851
 6351W        W10551   6.704   0.898   9.808
 6352W        W10552   8.807   3.449  11.985
 6353W        W10553   6.571   2.593   0.925
 6354W        W10554   6.927   6.010   1.819
 6355W        W10555   9.546   8.632   9.426
 6356W        W10556   1.298  10.794   0.348
 6357W        W10557   3.729   8.376  10.789
 6358W        W10558   0.820   1.762   9.950
 6359W        W10559   1.803   9.374   0.357
 6360W        W10560   2.342   5.219  10.001
 6361W        W10561   9.341   1.702   0.877
 6362W        W10562   9.858   0.185   2.774
 6363W        W10563   9.442  11.036   9.248
 6364W        W10564   2.005   2.700   3.177
 6365W        W10565   9.313   1.085   1.704
 6366W        W10566  10.431   5.957   9.014
 6367W        W10567   3.083   1.114   9.698
 6368W        W10568   8.457   7.510   0.414
 6369W        W10569   5.587  10.182   3.477
 6370W        W10570   9.108   1.920   3.184
 6371W        W10571   9.418   3.299   9.839
 6372W        W10572   9.328   5.716  11.279
 6373W        W10573   0.515   7.012   3.493
 6374W        W10574  10.251   3.225   3.365
 6375W        W10575   3.634   3.126   9.892
 6376W        W10576   1.393   8.117   9.258
 6377W        W10577   0.454   9.775   2.874
 6378W        W10578   1.336   0.356   3.334
 6379W        W10579   6.616   7.130   2.741
 6380W        W10580   7.357   3.569  11.879
 6381W        W10581   7.647  11.055   0.319
 6382W        W10582   4.762   8.933   1.999
 6383W        W10583   4.242   4.374   3.635
 6384W        W10584   5.468   8.469   0.235
 6385W        W10585   1.754   2.222   9.813
 6386W        W10586   8.622   5.914   2.281
 6387W        W10587   1.195   9.933  10.251
 6388W        W10588   3.043   7.418   1.177
 6389W        W10589   9.829   2.844   1.384
 6390W        W10590   6.090   0.392   1.204
 6391W        W10591   4.340  11.324   1.333
 6392W        W10592   5.967   6.293   1.881
 6393W        W10593   0.823  10.483  11.392
 6394W        W10594   7.101   2.747   1.111
 6395W        W10595   5.331   4.167   8.302
 6396W        W10596   1.393  10.964   9.020
 6397W        W10597   4.611   9.207   8.903
 6398W        W10598   1.144   9.984   0.232
 6399W        W10599   4.922   3.351   0.915
 6400W        W10600  11.157   1.633   3.492
 6401W        W10601   4.905   2.830   9.500
 6402W        W10602  10.139   7.931   9.334
 6403W        W10603   5.211  10.095  11.337
 6404W        W10604   2.741   3.859  10.518
 6405W        W10605   7.181   3.010   2.434
 6406W        W10606   2.849   6.038   0.298
 6407W        W10607   9.472   5.646   8.933
 6408W        W10608   8.441   4.110   8.770
 6409W        W10609  11.012   2.295   0.490
 6410W        W10610   5.236   2.405   9.454
 6411W        W10611   2.163   9.055  10.031
 6412W        W10612   4.088  10.375   2.523
 6413W        W10613   0.442   6.964   0.217
 6414W        W10614   9.578   5.037   1.222
 6415W        W10615   3.341  10.416   1.639
 6416W        W10616   3.383   6.663   0.690
 6417W        W10617   3.283   1.588   0.653
 6418W        W10618   4.619   8.421  11.251
 6419W        W10619   7.963   2.837   9.244
 6420W        W10620  10.383   1.818   3.191
 6421W        W10621   3.675   1.261   0.811
 6422W        W10622   1.656   9.092   9.898
 6423W        W10623   4.586   5.243  10.187
 6424W        W10624   5.146   0.436  11.263
 6425W        W10625   8.151  10.745   1.899
 6426W        W10626   2.413   9.271  10.680
 6427W        W10627  10.432   3.988  11.410
 6428W        W10628   6.142   2.842   9.390
 6429W        W10629   1.352   7.562   0.673
 6430W        W10630   4.019   2.877   8.596
 6431W        W10631  10.115   3.816   0.468
 6432W        W10632  11.331   1.371  10.297
 6433W        W10633   8.010   6.999   0.205
 6434W        W10634   1.115   9.495  11.448
 6435W        W10635  11.346   9.776   2.408
 6436W        W10636   9.607  11.126  10.724
 6437W        W10637   4.181   8.143  11.438
 6438W        W10638   9.410   6.885   1.164
 6439W        W10639   4.748   5.748   1.825
 6440W        W10640   3.140  10.966  10.357
 6441W        W10641   7.175   2.917   0.625
 6442W        W10642   6.679   0.022   9.634
 6443W        W10643   7.141  10.486   0.943
 6444W        W10644   9.611   1.252   2.166
 6445W        W10645   3.815  11.268   0.439
 6446W        W10646   6.751   7.974   4.089
 6447W        W10647   1.259   9.388   1.746
 6448W        W10648   4.209   6.620   3.126
 6449W        W10649   9.532   8.726  11.327
 6450W        W10650   1.186   5.925   0.836
 6451W        W10651  11.488   0.484   2.175
 6452W        W10652   2.901   7.980   1.838
 6453W        W10653   4.746   4.432   8.579
 6454W        W10654  10.452   3.748  10.345
 6455W        W10655   6.062   4.569   8.898
 6456W        W10656   3.424   0.027   8.660
 6457W        W10657   0.929   5.097  10.801
 6458W        W10658   0.226  10.571  10.086
 6459W        W10659   9.173  10.819  10.717
 6460W        W10660   7.588   6.073   1.033
 6461W        W10661   9.549   9.134   3.384
 6462W        W10662   7.700   2.144  11.297
 6463W        W10663   0.454   9.098  11.818
 6464W        W10664  10.323   5.445  10.087
 6465W        W10665   8.864   3.305   2.150
 6466W        W10666   0.319   8.964   2.728
 6467W        W10667   9.170   3.299  10.716
 6468W        W10668   4.814   8.504   9.362
 6469W        W10669  11.246   4.758   2.900
 6470W        W10670   7.201  11.230   2.353
 6471W        W10671   6.099   4.043   0.388
 6472W        W10672   1.872   3.685   9.808
 6473W        W10673  11.301   8.651   2.663
 6474W        W10674   1.546   8.278  11.622
 6475W        W10675   7.925  11.448   8.896
 6476W        W10676   0.710   5.286   8.771
 6477W        W10677   3.785   9.307  10.847
 6478W        W10678   2.779   6.993   9.261
 6479W        W10679   8.064   5.959  11.918
 6480W        W10680   3.899   2.380  10.298
 6481W        W10681   8.406   1.315  10.006
 6482W        W10682   0.479  11.057   2.181
 6483W        W10683   0.869   2.356  11.182
 6484W        W10684   9.612   6.084   3.373
 6485W        W10685   2.718   5.207   3.034
 6486W        W10686   1.754   8.946   0.814
 6487W        W10687   7.005  10.714  11.257
 6488W        W10688  11.051   7.223   2.628
 6489W        W10689   9.843   5.464  10.344
 6490W        W10690   1.273   3.260   3.232
 6491W        W10691   7.546   2.835   0.259
 6492W        W10692   4.392   0.509  11.081
 6493W        W10693   0.892   9.995   2.693
 6494W        W10694  10.322   0.887   1.000
 6495W        W10695   5.577   6.901   9.525
 6496W        W10696   0.233   6.627   3.698
 6497W        W10697   6.423   8.113   2.438
 6498W        W10698   5.620   3.668   2.814
 6499W        W10699   5.272   3.125  10.213
 6500W        W10700   1.342   5.832   1.315
 6501W        W10701   8.402   7.925   9.504
 6502W        W10702   5.728   0.879   8.616
 6503W        W10703   7.450   0.016  10.703
 6504W        W10704   9.025   2.019  11.867
 6505W        W10705   8.838   9.909   1.549
 6506W        W10706   4.191   8.238  10.939
 6507W        W10707  10.045   8.631  10.193
 6508W        W10708   6.413   0.450   9.721
 6509W        W10709   5.063  11.003   2.232
 6510W        W10710   2.872   6.978   0.372
 6511W        W10711   1.822   1.762   9.532
 6512W        W10712   7.886   0.190   9.342
 6513W        W10713   9.309   1.719  10.904
 6514W        W10714   4.027  11.307   1.760
 6515W        W10715   0.473   0.581   0.960
 6516W        W10716  11.388   9.515   0.270
 6517W        W10717   2.202  10.990  11.890
 6518W        W10718  10.449   0.823  10.165
 6519W        W10719   8.795   9.483   8.788
 6520W        W10720   0.022   8.124   9.524
 6521W        W10721   9.598   1.663   0.429
 6522W        W10722   5.240   4.258   0.394
 6523W        W10723   0.650   5.013   0.045
 6524W        W10724   3.482   7.807  10.356
 6525W        W10725  10.098   6.983  11.748
 6526W        W10726   4.083  11.411  11.999
 6527W        W10727   4.184   0.346   1.026
 6528W        W10728   1.744   8.089  10.124
 6529W        W10729   7.539   8.868   3.416
 6530W        W10730  10.450   9.885   2.432
 6531W        W10731   6.113   7.164   2.199
 6532W        W10732  10.340   4.690   0.950
 6533W        W10733  10.482   5.140   1.200
 6534W        W10734   7.849   9.921   3.122
 6535W        W10735  11.476   7.125   1.735
 6536W        W10736   6.146  10.335   9.869
 6537W        W10737   7.634   0.227   3.239
 6538W        W10738   2.878   6.620   0.763
 6539W        W10739   2.788  10.403  11.222
 6540W        W10740   4.192   3.578   3.291
 6541W        W10741  10.486   8.435   1.666
 6542W        W10742   0.207   0.858   9.219
 6543W        W10743   5.565   8.805  11.443
 6544W        W10744   5.988   8.317   9.917
 6545W        W10745   7.360   2.102   0.415
 6546W        W10746   3.143   1.801   3.007
 6547W        W10747   1.424   5.315   1.816
 6548W        W10748   5.952   8.605   9.063
 6549W        W10749   0.325   1.820   0.535
 6550W        W10750   0.322   4.707   2.071
 6551W        W10751   1.681   9.878   3.395
 6552W        W10752   1.258   6.673   2.157
 6553W        W10753   0.533   4.410   2.477
 6554W        W10754   5.766   0.791   1.305
 6555W        W10755   1.573   6.131   2.907
 6556W        W10756   0.450   8.089   2.626
 6557W        W10757   9.014   7.216   1.318
 6558W        W10758   1.698  10.861   3.378
 6559W        W10759   9.766   5.650   8.498
 6560W        W10760   0.627   7.656   2.293
 6561W        W10761   6.247   7.921   3.240
 6562W        W10762   4.395   5.381   0.261
 6563W        W10763   4.923   5.205   0.014
 6564W        W10764   6.588   0.360   9.229
 6565W        W10765   0.863   6.823  10.852
 6566W        W10766   6.499   9.089   1.920
 6567W        W10767   2.710   2.036   9.982
 6568W        W10768   5.039   8.400   9.846
 6569W        W10769   9.294   3.295   0.018
 6570W        W10770   8.399   7.931   3.612
 6571W        W10771   1.226   6.805   1.114
 6572W        W10772   8.921   2.128  11.382
 6573W        W10773   8.531   3.998   1.256
 6574W        W10774  10.119   5.911  10.300
 6575W        W10775   1.734   1.028   2.636
 6576W        W10776   4.218   4.333  10.933
 6577W        W10777   6.012  11.446   0.902
 6578W        W10778   1.040   6.213  11.543
 6579W        W10779   8.942   6.636  11.499
 6580W        W10780   5.481   6.194   0.825
 6581W        W10781   0.836   0.494  11.331
 6582W        W10782   2.581   0.206   1.462
 6583W        W10783   6.878   2.536   9.031
 6584W        W10784   7.827   9.344   2.026
 6585W        W10785   9.522   7.923   2.700
 6586W        W10786   5.593   5.672   1.493
 6587W        W10787   4.183   8.304   0.468
 6588W        W10788   7.719   6.912   0.991
 6589W        W10789   1.247   1.793   3.616
 6590W        W10790   6.160   6.203  10.575
 6591W        W10791   9.465   1.922   1.351
 6592W        W10792   2.315   3.132   0.880
 6593W        W10793   2.233   9.117   1.523
 6594W        W10794   7.115   3.806   0.289
 6595W        W10795   4.090   4.294   9.063
 6596W        W10796   2.806   0.674  11.863
 6597W        W10797   4.266  10.447   3.080
 6598W        W10798   9.544   4.891  11.015
 6599W        W10799   8.992   9.467  10.931
 6600W        W10800  11.432   2.144   8.586
 6601W        W10801   8.035  11.480  10.862
 6602W        W10802   8.644   1.804  10.390
 6603W        W10803   4.737   8.490   1.758
 6604W        W10804   8.626   0.217   9.799
 6605W        W10805   4.090   5.122   9.024
 6606W        W10806   3.222   7.218   9.431
 6607W        W10807   3.718   7.278  11.589
 6608W        W10808   5.512   7.144   0.809
 6609W        W10809   4.948   1.397   1.265
 6610W        W10810   9.560   7.058   3.758
 6611W        W10811   0.953   0.033   3.536
 6612W        W10812   3.808   9.564   9.412
 6613W        W10813  11.316   0.184   1.187
 6614W        W10814   0.895   8.768  10.784
 6615W        W10815   1.480  10.394   9.490
 6616W        W10816   6.182  10.404   2.474
 6617W        W10817   9.414  11.060   0.024
 6618W        W10818   0.411   2.184   9.275
 6619W        W10819   7.375   3.357   0.397
 6620W        W10820   2.440   4.588   8.781
 6621W        W10821   9.924   7.241   0.975
 6622W        W10822   0.466   3.811   9.041
 6623W        W10823   9.547   3.799   9.826
 6624W        W10824   8.626   1.292   0.440
 6625W        W10825   0.297   9.050   9.843
 6626W        W10826   8.009  10.324  11.795
 6627W        W10827   6.220   7.881  10.018
 6628W        W10828   2.764   0.951   0.805
 6629W        W10829   2.892   4.441   1.843
 6630W        W10830   6.091  10.056  10.721
 6631W        W10831  10.460   1.685   1.647
 6632W        W10832   0.394  11.244   2.760
 6633W        W10833   2.120   6.438   2.184
 6634W        W10834   5.401   4.074   3.090
 6635W        W10835   3.119   0.809   0.251
 6636W        W10836   7.599  10.668   3.553
 6637W        W10837   4.555   7.106   0.120
 6638W        W10838  10.825   6.588   1.686
 6639W        W10839   2.457  10.772   8.698
 6640W        W10840   7.024   6.892   1.953
 6641W        W10841   0.301   1.931   2.363
 6642W        W10842   2.662   7.044   0.992
 6643W        W10843   1.561   6.196   8.711
 6644W        W10844   6.064   9.271  10.122
 6645W        W10845   6.123   0.814   0.920
 6646W        W10846   6.141  10.207   0.673
 6647W        W10847   3.657   7.883  10.916
 6648W        W10848   7.437   4.654  11.917
 6649W        W10849   9.786   0.549  10.917
 6650W        W10850   7.139   7.884   0.577
 6651W        W10851   1.433   3.069   8.857
 6652W        W10852  10.800   9.023   1.849
 6653W        W10853   8.580   8.890  10.951
 6654W        W10854   9.060   8.891  11.767
 6655W        W10855   1.739   6.737   2.318
 6656W        W10856   7.464  10.877  11.445
 6657W        W10857   1.771   3.858   1.789
 6658W        W10858   1.489   5.637   8.915
 6659W        W10859   5.470   8.124   3.492
 6660W        W10860   9.414   9.594   0.526
 6661W        W10861   0.839   1.952   0.595
 6662W        W10862   4.873   3.935  11.326
 6663W        W10863  10.161   4.319   2.211
 6664W        W10864   8.529   0.939  11.677
 6665W        W10865   2.188   4.610  10.488
 6666W        W10866   1.094   9.007  10.270
 6667W        W10867   7.963   2.718   0.916
 6668W        W10868   2.234  11.497  10.422
 6669W        W10869   7.068   1.437   9.115
 6670W        W10870   1.027   8.495   1.295
 6671W        W10871   7.426   0.704  10.933
 6672W        W10872   6.504   8.602   2.621
 6673W        W10873  10.246   4.125  10.085
 6674W        W10874   1.487   1.453   8.857
 6675W        W10875   2.259  10.697  11.418
 6676W        W10876   0.982   0.019  11.465
 6677W        W10877   1.245   8.115  10.024
 6678W        W10878   2.318   4.313   3.535
 6679W        W10879   1.640   6.575   1.292
 6680W        W10880   1.377   6.686   8.803
 6681W        W10881   9.270   2.435   1.797
 6682W        W10882   8.374   4.103   9.789
 6683W        W10883   5.028   5.273   9.915
 6684W        W10884   0.258   4.090   0.356
 6685W        W10885   4.149   1.874   0.869
 6686W        W10886   7.042   4.272   9.098
 6687W        W10887   2.367   6.647   0.830
 6688W        W10888   7.011   4.083  10.483
 6689W        W10889   8.891   2.643  11.470
 6690W        W10890   8.987   2.685  10.115
 6691W        W10891  10.500   3.554   0.255
 6692W        W10892   4.034   4.020  11.857
 6693W        W10893   9.863   5.565   2.154
 6694W        W10894   7.933   7.159  11.300
 6695W        W10895   8.243   8.208   4.020
 6696W        W10896   8.713   5.471   9.410
 6697W        W10897   7.564   9.184   0.564
 6698W        W10898   8.021   6.519   3.221
 6699W        W10899   5.446   8.128   8.620
 6700W        W10900   0.085   4.231   1.134
 6701W        W10901   1.203   2.196   0.920
 6702W        W10902   9.980   9.206   1.326
 6703W        W10903   1.358   8.984   2.462
 6704W        W10904   3.703   1.888   0.643
 6705W        W10905   5.102   8.598  11.359
 6706W        W10906  10.865  10.406   0.294
 6707W        W10907   6.168   7.106   9.061
 6708W        W10908   0.916   6.117   0.428
 6709W        W10909   6.201   8.481   3.168
 6710W        W10910  11.277   0.791   9.506
 6711W        W10911   0.931   0.805   1.120
 6712W        W10912   7.506   8.075   1.874
 6713W        W10913   7.614  10.028   9.005
 6714W        W10914   5.283   8.766   4.145
 6715W        W10915  11.175   0.501   3.410
 6716W        W10916   6.049   3.551   0.487
 6717W        W10917   5.245  10.465   1.563
 6718W        W10918   8.497  11.304   8.772
 6719W        W10919   6.707   3.241  11.160
 6720W        W10920  10.883   3.770  11.565
 6721W        W10921   9.800  10.144  10.222
 6722W        W10922   0.418   5.703   9.072
 6723W        W10923   8.594   9.289   1.310
 6724W        W10924   7.576   2.581   9.552
 6725W        W10925   0.786   4.138   1.680
 6726W        W10926   8.695   3.655  11.512
 6727W        W10927   3.969   7.739   2.665
 6728W        W10928   5.762  11.359  11.288
 6729W        W10929   7.095   7.368   0.371
 6730W        W10930   7.420   1.819   9.053
 6731W        W10931   8.824   0.202   9.290
 6732W        W10932   7.431   9.263   8.948
 6733W        W10933   4.250  10.838   2.727
 6734W        W10934  11.179   2.412   0.963
 6735W        W10935   3.006   2.289   3.288
 6736W        W10936  10.976   9.277   1.430
 6737W        W10937   1.407   3.775  11.990
 6738W        W10938   1.579   1.240   8.378
 6739W        W10939   2.794   0.216   9.421
 6740W        W10940   8.432   2.727   9.031
 6741W        W10941   7.037  10.774   9.912
 6742W        W10942   2.397   2.745   2.134
 6743W        W10943   9.116   1.949   1.746
 6744W        W10944   1.595   5.702   9.723
 6745W        W10945   2.023   8.066  10.553
 6746W        W10946   1.055   6.114  10.191
 6747W        W10947  11.180   4.056   3.462
 6748W        W10948   7.490   5.686  10.298
 6749W        W10949   7.885   6.098   2.924
 6750W        W10950   7.661   4.725   8.631
 6751W        W10951   9.436   9.057   1.341
 6752W        W10952   4.052   4.574   3.203
 6753W        W10953   3.174   6.697   9.467
 6754W        W10954   7.819   1.854   0.384
 6755W        W10955   9.294   3.730   0.687
 6756W        W10956  10.548   1.667  10.503
 6757W        W10957   4.144   4.777   1.898
 6758W        W10958   8.109  11.056   2.322
 6759W        W10959   4.648   2.130   3.007
 6760W        W10960   1.766  10.667   0.613
 6761W        W10961   2.006   2.769   0.015
 6762W        W10962  10.671   9.520   1.769
 6763W        W10963  10.860   5.494   9.111
 6764W        W10964   9.846   5.620   2.664
 6765W        W10965   2.826   4.658   8.029
 6766W        W10966  10.062   5.228   9.682
 6767W        W10967   4.340   7.321  10.064
 6768W        W10968   4.222   3.822   1.621
 6769W        W10969   7.946   2.691   1.937
 6770W        W10970   6.164   4.551   2.205
 6771W        W10971   2.884   4.881  10.384
 6772W        W10972   0.681   6.149   9.823
 6773W        W10973   5.225   8.181   0.660
 6774W        W10974   5.199   9.618   9.515
 6775W        W10975   3.757   4.142   9.701
 6776W        W10976  11.041   9.793  10.886
 6777W        W10977   7.052   6.778   2.858
 6778W        W10978   3.350   7.432   2.138
 6779W        W10979   3.746   5.740   0.963
 6780W        W10980   8.724   5.947   0.298
 6781W        W10981   0.272  10.304   0.510
 6782W        W10982   0.148   6.188  11.652
 6783W        W10983   1.661   7.571   9.511
 6784W        W10984   5.120   8.436  10.876
 6785W        W10985   7.516   5.716   0.682
 6786W        W10986  10.815   8.139  10.626
 6787W        W10987   5.661   2.893   0.929
 6788W        W10988  10.661   4.347   2.264
 6789W        W10989  11.047   1.365  11.161
 6790W        W10990   3.717   7.419  10.605
 6791W        W10991   1.321   1.954  10.763
 6792W        W10992   6.757  11.190  11.267
 6793W        W10993   4.126   1.214   9.944
 6794W        W10994   5.812   2.533   0.488
 6795W        W10995   0.015   0.347   2.691
 6796W        W10996   4.304  10.479   1.517
 6797W        W10997   6.965   7.574  10.316
 6798W        W10998   5.756   5.758   2.994
 6799W        W10999   6.800   1.649  10.359
 6800W        W11000   8.826  11.014  10.375
 6801W        W11001   8.439   9.044   0.896
 6802W        W11002  10.951   3.163   2.503
 6803W        W11003   1.834   3.150  11.450
 6804W        W11004   6.231  11.493   9.367
 6805W        W11005   0.891   5.450   0.244
 6806W        W11006   9.960   7.948  11.453
 6807W        W11007   9.659   5.610   3.147
 6808W        W11008   5.579   7.661  11.909
 6809W        W11009   5.185   9.649   2.898
 6810W        W11010   5.247   0.648   8.700
 6811W        W11011   4.093   8.979   9.583
 6812W        W11012   5.195   9.947   0.272
 6813W        W11013  10.783   6.144   1.458
 6814W        W11014   9.637   3.939   0.369
 6815W        W11015   9.891   5.790   1.709
 6816W        W11016   9.113   4.689   1.850
 6817W        W11017   5.371   3.302   3.545
 6818W        W11018   4.092   5.461   1.271
 6819W        W11019   1.755   2.709   9.065
 6820W        W11020   7.852   1.302   0.788
 6821W        W11021  11.086   0.242   2.407
 6822W        W11022   0.359  10.472   1.928
 6823W        W11023   2.076   8.909  10.533
 6824W        W11024   9.959   9.155  10.111
 6825W        W11025   0.820   8.203   3.012
 6826W        W11026   2.375   4.795   2.336
 6827W        W11027   6.950   5.339  11.034
 6828W        W11028   5.797   8.139   3.099
 6829W        W11029   1.828   4.334   2.762
 6830W        W11030   9.847   8.989  10.574
 6831W        W11031  10.904   2.335   1.408
 6832W        W11032   8.820   0.668  11.179
 6833W        W11033   2.230   6.213   8.909
 6834W        W11034   0.676   0.944   0.658
 6835W        W11035  10.044   3.242  10.299
 6836W        W11036   8.011   2.699   1.428
 6837W        W11037   0.129   9.322  11.324
 6838W        W11038   5.214   9.110   8.126
 6839W        W11039   6.199   2.829  10.795
 6840W        W11040   8.394   2.230  10.250
 6841W        W11041   8.422  11.478  11.952
 6842W        W11042   6.633  10.301   1.692
 6843W        W11043   6.480   7.610   9.557
 6844W        W11044   8.480   2.883   1.017
 6845W        W11045   7.434   1.422   2.737
 6846W        W11046   9.665   5.786  11.749
 6847W        W11047   3.167   3.830   1.579
 6848W        W11048   4.542   9.840  11.910
 6849W        W11049   2.280   4.402   1.324
 6850W        W11050   8.873   7.150  10.740
 6851W        W11051   5.374   1.442   9.710
 6852W        W11052   4.263   0.704   9.908
 6853W        W11053   6.114   0.887   2.955
 6854W        W11054   1.880   8.555   2.748
 6855W        W11055   7.044   1.329   3.084
 6856W        W11056   8.468   2.115   2.220
 6857W        W11057   7.252   6.700  10.830
 6858W        W11058  11.340  10.340   9.025
 6859W        W11059   4.383   2.323   0.720
 6860W        W11060   8.851   5.979   9.326
 6861W        W11061   1.445   3.662   9.497
 6862W        W11062  11.386   5.690   8.503
 6863W        W11063   7.450  10.009   0.908
 6864W        W11064  11.480   1.746   9.574
 6865W        W11065   1.665   5.642   2.146
 6866W        W11066   0.987   8.974   3.453
 6867W        W11067  11.336   1.252   9.297
 6868W        W11068  10.867   7.593  11.286
 6869W        W11069   0.704   5.729   9.505
 6870W        W11070   4.470   6.106  11.715
 6871W        W11071   9.317   1.181   0.873
 6872W        W11072   1.516   8.345  10.999
 6873W        W11073   1.278   1.211   3.160
 6874W        W11074   9.935  11.050   8.517
 6875W        W11075   0.782   7.490   8.973
 6876W        W11076   9.003   3.892   2.978
 6877W        W11077  10.462   3.551  11.748
 6878W        W11078   7.147   4.647   0.451
 6879W        W11079  10.853   6.653   2.173
 6880W        W11080   1.299  11.123   3.522
 6881W        W11081   8.409   4.910   1.341
 6882W        W11082   8.710   3.803   9.507
 6883W        W11083   1.829   1.779   9.025
 6884W        W11084   8.081  10.951   8.844
 6885W        W11085   7.867   9.576   9.183
 6886W        W11086   5.931   6.086   0.602
 6887W        W11087   9.357  10.164  10.470
 6888W        W11088   0.840   7.390   3.317
 6889W        W11089   2.814   8.866   9.106
 6890W        W11090   9.544   8.201  11.271
 6891W        W11091   1.203   7.579   1.535
 6892W        W11092   1.271   3.344  11.139
 6893W        W11093   6.141   8.685   1.354
 6894W        W11094   1.446  11.396   3.138
 6895W        W11095   8.705   0.494  10.309
 6896W        W11096  10.501   2.144   0.434
 6897W        W11097   9.451   5.910   1.492
 6898W        W11098  10.911   6.678  11.588
 6899W        W11099   1.748   3.190   9.377
 6900W        W11100   5.902  10.850  10.910
 6901W        W11101   2.159  10.326   2.202
 6902W        W11102   2.293   2.729  10.355
 6903W        W11103   8.499   9.804  10.818
 6904W        W11104   6.401   1.516  10.009
 6905W        W11105  11.447   0.873   1.651
 6906W        W11106   0.412   2.254  11.364
 6907W        W11107   8.134   1.270  11.133
 6908W        W11108   9.638   6.035   2.868
 6909W        W11109   7.037   2.790   3.605
 6910W        W11110   9.637   1.889  10.346
 6911W        W11111   1.876   7.086   0.502
 6912W        W11112   5.129   2.764   3.642
 6913W        W11113   4.851   6.146   9.766
 6914W        W11114   8.016   3.875   2.451
 6915W        W11115   4.650   1.151   9.906
 6916W        W11116   8.399   2.797  11.534
 6917W        W11117   2.777   5.793  11.231
 6918W        W11118   8.423   0.044   1.614
 6919W        W11119   3.819  11.409   1.301
 6920W        W11120  11.389  10.600   0.226
 6921W        W11121   5.824   0.692   0.472
 6922W        W11122   1.777   4.320  10.442
 6923W        W11123   5.085   4.788  10.713
 6924W        W11124  10.595   1.747   0.739
 6925W        W11125   3.583  11.210   0.878
 6926W        W11126   0.095   4.672  10.503
 6927W        W11127   6.226   9.633   1.264
 6928W        W11128  11.439   7.750   9.079
 6929W        W11129   4.543   6.502  10.968
 6930W        W11130   5.166  10.466   2.090
 6931W        W11131   1.482   7.593   2.562
 6932W        W11132   5.978   7.717   1.313
 6933W        W11133   7.332   5.873   0.238
 6934W        W11134   0.191   7.270   2.372
 6935W        W11135   6.142   7.026  11.075
 6936W        W11136   9.572   0.961  10.133
 6937W        W11137   9.920   9.681  10.064
 6938W        W11138   0.941   3.884   8.827
 6939W        W11139   0.750  10.765   9.317
 6940W        W11140   8.653   7.905   2.644
 6941W        W11141  11.167   9.653  11.359
 6942W        W11142   3.341   3.802  11.327
 6943W        W11143  10.430   2.643   0.339
 6944W        W11144   5.707   7.056   2.944
 6945W        W11145   7.247   2.279   2.370
 6946W        W11146   2.475   5.001   7.862
 6947W        W11147  10.018   2.353   2.405
 6948W        W11148   9.597   5.150   2.188
 6949W        W11149   5.248  10.990   1.285
 6950W        W11150   4.399   2.530   8.822
 6951W        W11151  11.485   4.409  11.997
 6952W        W11152   9.026   3.346   0.472
 6953W        W11153   7.556  10.816  10.079
 6954W        W11154   8.889   4.287   9.372
 6955W        W11155  10.294   3.207   1.869
 6956W        W11156   7.422   6.513   0.778
 6957W        W11157  11.037   5.785   1.219
 6958W        W11158   3.232   5.218  10.526
 6959W        W11159  10.714   5.511   2.685
 6960W        W11160  11.422   9.327   8.596
 6961W        W11161   5.214   4.196   0.912
 6962W        W11162   9.025   7.022   8.607
 6963W        W11163   7.433   4.794   0.849
 6964W        W11164   3.145   1.874  11.260
 6965W        W11165  11.047   5.175   2.493
 6966W        W11166   3.646   4.671   1.752
 6967W        W11167   0.738   2.374   0.940
 6968W        W11168   2.691   6.612   1.274
 6969W        W11169   2.277   3.525   3.066
 6970W        W11170   5.709   1.065   9.966
 6971W        W11171   9.565   8.159   2.239
 6972W        W11172   8.069   1.665  11.475
 6973W        W11173  10.425   8.410   9.907
 6974W        W11174   0.378   7.474   9.837
 6975W        W11175   7.228   8.463  10.550
 6976W        W11176  11.483   9.275   1.605
 6977W        W11177  10.498  11.432   8.941
 6978W        W11178   5.136   1.663  11.981
 6979W        W11179  10.853   2.487   3.305
 6980W        W11180   7.881  10.737   9.633
 6981W        W11181   7.427   5.318  11.258
 6982W        W11182   1.724   9.979  11.085
 6983W        W11183  10.481   3.619   2.187
 6984W        W11184  11.256   6.042   9.556
 6985W        W11185   4.208   4.076   2.170
 6986W        W11186   8.268   5.187   8.686
 6987W        W11187   3.264   5.812  11.044
 6988W        W11188   6.053  11.060   9.114
 6989W        W11189   7.343   6.249  11.517
 6990W        W11190   3.222   5.614   1.038
 6991W        W11191   0.709   1.795   1.478
 6992W        W11192   7.470   4.583   9.095
 6993W        W11193   1.139   0.802   3.482
 6994W        W11194   6.940   8.363   2.472
 6995W        W11195   5.629   9.133   9.866
 6996W        W11196   3.023   2.867  11.448
 6997W        W11197   8.613   8.314   8.645
 6998W        W11198   6.030   3.314  10.735
 6999W        W11199  11.477   9.841   9.759
 7000W        W11200   8.475   3.684   9.066
 7001W        W11201   2.336   0.767  11.352
 7002W        W11202   0.299  11.325  11.317
 7003W        W11203   5.351   2.633  10.313
 7004W        W11204   7.981   8.416   0.380
 7005W        W11205   8.855   8.089   3.422
 7006W        W11206  11.499   5.121  10.772
 7007W        W11207   0.523   7.047   9.519
 7008W        W11208   0.849   6.206   9.324
 7009W        W11209   9.349   2.214  10.627
 7010W        W11210   8.616  10.534   0.027
 7011W        W11211   4.179   5.677  10.791
 7012W        W11212   4.861   1.171   0.255
 7013W        W11213  10.825   8.507   3.369
 7014W        W11214   1.526   9.004   9.405
 7015W        W11215   6.110   4.447  10.459
 7016W        W11216  10.433  10.001   8.956
 7017W        W11217  10.433   9.978   1.397
 7018W        W11218   0.395   3.167  11.218
 7019W        W11219   7.629   0.896   1.139
 7020W        W11220   3.395   2.170   2.724
 7021W        W11221   0.605   1.824  10.447
 7022W        W11222   4.738   4.205   3.618
 7023W        W11223   3.092  11.437  11.878
 7024W        W11224   1.156   6.277   2.602
 7025W        W11225   4.718   6.743   8.636
 7026W        W11226   2.578   8.429   2.504
 7027W        W11227   2.348   5.509   9.567
 7028W        W11228   1.360   4.145   1.462
 7029W        W11229  11.452   4.838   8.759
 7030W        W11230   2.403   3.579   0.235
 7031W        W11231   7.062   3.765  10.873
 7032W        W11232   2.621   7.503   1.637
 7033W        W11233   4.602   2.256   1.629
 7034W        W11234   3.709   9.043   1.493
 7035W        W11235   3.941   8.543   9.817
 7036W        W11236  11.449   6.507   1.291
 7037W        W11237   6.975   0.277   1.680
 7038W        W11238   7.230   3.655   1.314
 7039W        W11239  11.064   1.763  10.502
 7040W        W11240   9.680   0.465  10.290
 7041W        W11241   5.456   4.829   3.298
 7042W        W11242   5.720   0.350   2.782
 7043W        W11243   4.135   7.778   0.387
 7044W        W11244   7.979   0.303   2.866
 7045W        W11245   9.372   8.697   0.934
 7046W        W11246   6.038   9.539   2.461
 7047W        W11247   9.255   7.203  10.371
 7048W        W11248   4.569  10.430   3.537
 7049W        W11249   3.080   1.265   2.381
 7050W        W11250  10.914   9.791   1.407
 7051W        W11251   8.460   7.453   3.406
 7052W        W11252  10.710   2.231   0.926
 7053W        W11253   8.130   1.429   0.368
 7054W        W11254   8.541  10.803   2.268
 7055W        W11255   0.229   9.409   3.131
 7056W        W11256   8.871   3.261   1.625
 7057W        W11257   5.969   2.472   1.640
 7058W        W11258   4.293   1.941  11.059
 7059W        W11259   6.714   6.619   0.232
 7060W        W11260   1.423   0.682   3.896
 7061W        W11261   2.533   5.303   0.755
 7062W        W11262   3.911   4.048   3.347
 7063W        W11263   3.847   3.554  10.519
 7064W        W11264   5.257  10.478   9.827
 7065W        W11265   0.705   9.985  11.385
 7066W        W11266   9.012  10.669  11.196
 7067W        W11267   7.945   7.500  11.697
 7068W        W11268   8.229   8.340  11.920
 7069W        W11269  10.866   1.957   3.199
 7070W        W11270  11.450   7.069  10.886
 7071W        W11271   4.295   8.923  11.875
 7072W        W11272   4.975  11.261  10.119
 7073W        W11273   5.217   0.443  10.738
 7074W        W11274   3.699   5.471   9.399
 7075W        W11275   6.867   8.160   1.531
 7076W        W11276   2.925   8.033   3.369
 7077W        W11277   1.849   9.905   2.317
 7078W        W11278   2.927   6.017   1.148
 7079W        W11279   1.870   1.336   1.839
 7080W        W11280   6.060   9.062  10.609
 7081W        W11281   6.072   1.773  11.992
 7082W        W11282   7.589   3.807   2.175
 7083W        W11283   7.568   2.642  10.056
 7084W        W11284   1.998   4.169   2.234
 7085W        W11285  11.021   3.301  11.428
 7086W        W11286  10.747  11.431  10.350
 7087W        W11287   2.599   6.524   0.340
 7088W        W11288  10.526   7.703  10.573
 7089W        W11289   2.283   3.618   0.732
 7090W        W11290   5.944   3.731   8.451
 7091W        W11291   5.275   2.127   0.915
 7092W        W11292   6.949   9.496   9.056
 7093W        W11293  10.581   3.715   9.273
 7094W        W11294   3.415   6.113   2.397
 7095W        W11295   7.229   6.389   0.251
 7096W        W11296   2.897   6.404  10.407
 7097W        W11297   2.675   6.561   3.176
 7098W        W11298   6.752   3.648   3.139
 7099W        W11299   5.142   4.174  10.030
 7100W        W11300   9.600   0.922  10.646
 7101W        W11301   9.020  10.330  10.823
 7102W        W11302   0.985   4.144   0.004
 7103W        W11303   8.014   6.089   3.500
 7104W        W11304   9.277   6.975   9.184
 7105W        W11305   9.473   0.537   2.570
 7106W        W11306   4.978   8.845   9.027
 7107W        W11307   3.262   0.907   0.734
 7108W        W11308   6.698   6.159  10.502
 7109W        W11309   5.718   9.424   1.222
 7110W        W11310   3.815  10.283  11.355
 7111W        W11311   2.552   0.449   2.536
 7112W        W11312   9.515  11.304  11.194
 7113W        W11313   9.574   5.093   3.177
 7114W        W11314   7.585   7.319   1.351
 7115W        W11315   6.585   9.013   1.413
 7116W        W11316   1.366   9.902   2.503
 7117W        W11317  11.363   9.059   9.573
 7118W        W11318   6.575   1.583   0.000
 7119W        W11319   0.346   9.943   2.397
 7120W        W11320   3.344   8.074  11.614
 7121W        W11321   2.754   5.538   9.170
 7122W        W11322  10.121   3.292   0.506
 7123W        W11323   3.511   4.828   3.124
 7124W        W11324   7.880   2.212   0.757
 7125W        W11325   2.230  11.490   8.858
 7126W        W11326   1.128   4.516   9.464
 7127W        W11327   1.859   1.301   9.795
 7128W        W11328   8.188   6.190   9.996
 7129W        W11329   4.106   8.679   1.383
 7130W        W11330   1.512   4.722   9.787
 7131W        W11331   6.106   4.112   9.638
 7132W        W11332   7.211   5.158   0.575
 7133W        W11333   9.881   7.298   3.301
 7134W        W11334   3.055   8.081   0.804
 7135W        W11335   8.479   8.490  11.272
 7136W        W11336   3.674   6.280   0.837
 7137W        W11337   8.372   6.985   2.835
 7138W        W11338  10.800   8.417   2.350
 7139W        W11339   0.484   7.892   1.653
 7140W        W11340  10.257   1.306  11.821
 7141W        W11341   5.288   2.824  11.095
 7142W        W11342  11.422   3.145   1.643
 7143W        W11343   7.609   7.395   9.150
 7144W        W11344   7.572  10.914   9.048
 7145W        W11345   4.644   1.857   1.959
 7146W        W11346   2.379  10.746  10.035
 7147W        W11347   2.865   6.251  11.447
 7148W        W11348  11.336   3.766  10.850
 7149W        W11349   8.506   2.564   3.030
 7150W        W11350   8.627   8.742   1.259
 7151W        W11351   5.632   8.570   2.812
 7152W        W11352   1.777   0.347  11.973
 7153W        W11353   2.355   7.427   2.305
 7154W        W11354   2.252   8.893  11.517
 7155W        W11355   5.671   7.046  10.563
 7156W        W11356   0.986   1.352  10.942
 7157W        W11357   0.265   8.926   3.284
 7158W        W11358   1.298   9.944   9.762
 7159W        W11359   2.170   9.864   0.370
 7160W        W11360  10.545   7.937   9.683
 7161W        W11361   2.644   2.647  10.762
 7162W        W11362   6.117   6.201   8.709
 7163W        W11363   0.042   2.355   2.306
 7164W        W11364  11.360   4.665   1.328
 7165W        W11365   9.888  11.302   8.984
 7166W        W11366   6.199   9.827   0.313
 7167W        W11367   6.075   6.995   9.568
 7168W        W11368   4.644   4.924   2.283
 7169W        W11369   7.952  11.141   9.314
 7170W        W11370   8.957   1.527  11.697
 7171W        W11371   5.270  10.529   2.905
 7172W        W11372   3.859   5.079   0.529
 7173W        W11373   3.048   0.034   3.241
 7174W        W11374   6.950   8.869   1.774
 7175W        W11375  10.433   2.899  10.257
 7176W        W11376   4.451   7.987  10.547
 7177W        W11377  10.993  10.728   8.685
 7178W        W11378   9.483   3.792   2.158
 7179W        W11379   0.113   3.298   3.169
 7180W        W11380   0.447   6.180   1.302
 7181W        W11381   4.321  10.943   9.833
 7182W        W11382   2.861   1.173  11.932
 7183W        W11383   7.349   9.919   3.211
 7184W        W11384   5.250   7.848   9.012
 7185W        W11385   6.713   8.576  10.564
 7186W        W11386   9.043  10.904   3.049
 7187W        W11387   2.190   9.525   3.363
 7188W        W11388  10.051   4.859   1.365
 7189W        W11389  10.463   8.035   2.461
 7190W        W11390   6.097   4.668  11.336
 7191W        W11391   6.556  10.011   9.835
 7192W        W11392   4.672   6.724   0.906
 7193W        W11393   3.088   1.823   3.504
 7194W        W11394   1.659   1.783  11.096
 7195W        W11395   3.800  10.258   2.983
 7196W        W11396   1.305   7.425  11.756
 7197W        W11397   3.925   6.062   2.331
 7198W        W11398   8.487   2.771   0.029
 7199W        W11399   9.042   9.411  10.407
 7200W        W11400   8.505   8.556   0.301
 7201W        W11401   0.266   8.538   9.306
 7202W        W11402   0.824   3.237   0.494
 7203W        W11403   9.086   2.645   9.608
 7204W        W11404   9.374   0.226   2.980
 7205W        W11405   6.502   9.461   9.891
 7206W        W11406   9.320   1.028   3.451
 7207W        W11407   7.015   8.464   0.423
 7208W        W11408   5.628   9.463   2.745
 7209W        W11409  11.259   8.218   3.582
 7210W        W11410   1.461   5.686  10.703
 7211W        W11411   6.981  11.492   2.733
 7212W        W11412   0.449  10.760   2.611
 7213W        W11413   8.724   2.315   3.396
 7214W        W11414  11.399   7.968  10.841
 7215W        W11415   9.143  11.174   1.187
 7216W        W11416   5.242   3.328   8.351
 7217W        W11417  10.399   4.513   9.808
 7218W        W11418   4.668   6.671   3.390
 7219W        W11419   8.511   7.284   0.884
 7220W        W11420   5.675   4.829   1.468
 7221W        W11421   2.819   2.110   1.403
 7222W        W11422   9.554   9.368   9.857
 7223W        W11423   3.283   0.451  11.914
 7224W        W11424   9.400   3.247   0.803
 7225W        W11425   7.785   3.122  10.083
 7226W        W11426   6.977   7.988   1.062
 7227W        W11427   9.474   0.713   0.746
 7228W        W11428   5.880  10.598   8.981
 7229W        W11429  10.735   4.159   1.397
 7230W        W11430   9.913   6.213   0.949
 7231W        W11431   5.329   4.920   1.096
 7232W        W11432   1.350   1.219  11.546
 7233W        W11433   9.816  10.358   2.507
 7234W        W11434   3.672   6.532  11.465
 7235W        W11435  10.160   4.282   1.346
 7236W        W11436   3.137   0.000   2.716
 7237W        W11437   0.675   9.435   9.370
 7238W        W11438   2.123  11.448  10.942
 7239W        W11439  10.419   1.363  10.095
 7240W        W11440   5.224   8.386  10.337
 7241W        W11441   6.177  10.843  10.078
 7242W        W11442   7.622  10.452   9.305
 7243W        W11443   0.457   9.085   1.722
 7244W        W11444  10.400   1.849   2.670
 7245W        W11445   8.560   2.022   8.484
 7246W        W11446   4.741   0.529  11.969
 7247W        W11447  10.291   9.480   2.120
 7248W        W11448   4.824   0.926   1.127
 7249W        W11449   8.470   3.222   0.287
 7250W        W11450   8.339   7.980   2.238
 7251W        W11451   0.660   8.605   3.277
 7252W        W11452   3.817   8.621   3.976
 7253W        W11453   5.919   4.984   3.096
 7254W        W11454   2.352   2.135   2.867
 7255W        W11455   5.270  10.832   0.136
 7256W        W11456  10.417   6.925   9.919
 7257W        W11457   3.228   6.524  11.723
 7258W        W11458   3.605   7.005   1.939
 7259W        W11459   6.462   5.242   0.919
 7260W        W11460   4.653   7.626   9.802
 7261W        W11461   2.019   2.741   0.875
 7262W        W11462   1.707   9.123   1.645
 7263W        W11463   5.145   4.323  10.990
 7264W        W11464   6.392   7.095   3.536
 7265W        W11465   0.487   7.175  10.806
 7266W        W11466   5.677   2.062   0.611
 7267W        W11467   5.483   8.930   9.040
 7268W        W11468   8.630   0.796   0.337
 7269W        W11469   0.830   6.765   0.818
 7270W        W11470   1.293   7.021   0.641
 7271W        W11471   9.690   8.143   9.454
 7272W        W11472   0.115   3.092   1.174
 7273W        W11473   2.757   1.653   2.235
 7274W        W11474   8.517   5.627   8.502
 7275W        W11475   8.583   8.449  10.670
 7276W        W11476   0.614   7.202   0.988
 7277W        W11477   2.118   9.720   9.828
 7278W        W11478   7.771   6.362  11.000
 7279W        W11479   5.159   0.038   1.230
 7280W        W11480   2.379   6.065   2.393
 7281W        W11481  10.019   9.487   2.987
 7282W        W11482   5.556   7.079   1.946
 7283W        W11483   3.619   6.917   9.338
 7284W        W11484   7.127   0.271   3.272
 7285W        W11485   4.744   2.230   9.035
 7286W        W11486   2.310   3.850   1.282
 7287W        W11487  10.968   3.782   1.030
 7288W        W11488   0.420   5.067   0.507
 7289W        W11489   4.098  10.657  11.512
 7290W        W11490   0.835   1.004  11.301
 7291W        W11491   6.384   2.521   8.178
 7292W        W11492   3.674   7.506   1.756
 7293W        W11493   0.920   5.214  11.324
 7294W        W11494   3.124  10.963   0.425
 7295W        W11495   4.340   4.972   0.580
 7296W        W11496   1.541  10.966   9.907
 7297W        W11497   3.919   2.814  11.596
 7298W        W11498   5.335   4.019  10.500
 7299W        W11499   6.665   4.731   2.166
 7300W        W11500   6.583   7.679   2.737
 7301W        W11501   8.990   6.680   9.957
 7302W        W11502   8.131  11.252  11.357
 7303W        W11503   7.576   3.221   3.319
 7304W        W11504   9.364   1.804   8.805
 7305W        W11505   3.056   0.938  10.610
 7306W        W11506   1.750   5.247   1.411
 7307W        W11507   8.780   5.353  11.614
 7308W        W11508   6.207   1.938   9.795
 7309W        W11509   2.890   7.873   9.013
 7310W        W11510   9.545   2.236   2.704
 7311W        W11511   8.559   6.392   8.171
 7312W        W11512   7.908   4.842   9.066
 7313W        W11513   4.735   8.478   2.288
 7314W        W11514   9.498   3.715   3.415
 7315W        W11515   0.368  10.083   9.994
 7316W        W11516   4.781   1.197   3.721
 7317W        W11517   6.419   2.894   2.759
 7318W        W11518   1.969   3.416   2.671
 7319W        W11519   1.437   7.961   1.774
 7320W        W11520   3.115   6.517   0.257
 7321W        W11521   4.260   0.552   1.974
 7322W        W11522   7.019   2.394   0.748
 7323W        W11523   1.685   8.435   0.568
 7324W        W11524   0.040   2.056   0.916
 7325W        W11525   5.577   2.712   3.892
 7326W        W11526   6.526   3.369  11.624
 7327W        W11527   5.601   4.606   8.255
 7328W        W11528   7.446   8.870   0.945
 7329W        W11529   0.417   9.626  11.942
 7330W        W11530   5.736   1.404   9.323
 7331W        W11531   5.558   2.361   9.860
 7332W        W11532   0.818   5.519  11.725
 7333W        W11533   3.600  10.882   0.193
 7334W        W11534   5.292   9.824  10.402
 7335W        W11535   8.864   9.360  11.917
 7336W        W11536  10.804   3.685   8.814
 7337W        W11537   4.264   7.713   2.261
 7338W        W11538   9.583   6.440   2.574
 7339W        W11539   4.470   8.456  11.732
 7340W        W11540   4.133   5.536   0.694
 7341W        W11541  11.352   8.971   0.985
 7342W        W11542   3.044   9.788   8.342
 7343W        W11543   4.210   1.880   3.190
 7344W        W11544  11.474   1.867   3.147
 7345W        W11545   0.489   3.639   0.478
 7346W        W11546   8.944   3.739   1.448
 7347W        W11547   0.882  10.518  10.537
 7348W        W11548   7.675   1.920  10.632
 7349W        W11549   3.122  11.023   0.955
 7350W        W11550   0.784   4.148   3.713
 7351W        W11551   1.711  11.338   9.583
 7352W        W11552   1.083   1.261   0.860
 7353W        W11553   4.479   4.666   8.948
 7354W        W11554   3.662   3.186   0.396
 7355W        W11555   8.164   7.531   9.726
 7356W        W11556   2.219  10.218  11.034
 7357W        W11557   1.914   3.781   0.249
 7358W        W11558  10.865   3.597  10.660
 7359W        W11559   3.558  10.790   3.316
 7360W        W11560   9.421   1.834   2.245
 7361W        W11561   3.285   0.631  10.021
 7362W        W11562  11.494  11.345   1.509
 7363W        W11563   2.286   2.745   0.443
 7364W        W11564  11.349   8.880  10.073
 7365W        W11565   4.746   5.960   4.032
 7366W        W11566   6.379  10.909  11.084
 7367W        W11567   6.638   5.704  11.505
 7368W        W11568   7.873   2.204   9.734
 7369W        W11569  11.096   3.694   9.246
 7370W        W11570  10.834   4.955   0.354
 7371W        W11571   2.279   9.375  11.707
 7372W        W11572   1.545   5.355   8.478
 7373W        W11573   0.914   9.518   2.934
 7374W        W11574   1.865   7.892   1.514
 7375W        W11575   1.814   5.691   1.133
 7376W        W11576   1.868   7.532   0.743
 7377W        W11577   3.835   3.571   2.646
 7378W        W11578   6.120   9.486   1.937
 7379W        W11579   7.650   4.561   3.756
 7380W        W11580   1.259   6.668   1.628
 7381W        W11581   9.854  10.491   0.300
 7382W        W11582   1.820   4.590   1.449
 7383W        W11583   1.636   5.659  11.188
 7384W        W11584   9.362  10.332   9.967
 7385W        W11585   2.734   5.546   1.189
 7386W        W11586   5.662   7.551   2.704
 7387W        W11587   0.979   4.202  10.565
 7388W        W11588   9.522   4.407   1.795
 7389W        W11589   2.635  10.264   9.548
 7390W        W11590   5.333   4.246   1.961
 7391W        W11591   0.457   1.729   1.936
 7392W        W11592   3.697   1.753   2.559
 7393W        W11593   0.869   0.754   1.665
 7394W        W11594   2.322   7.028   8.548
 7395W        W11595   8.354   5.277  11.943
 7396W        W11596  10.393   2.096   9.580
 7397W        W11597   1.162   5.828   2.887
 7398W        W11598   6.039   2.582   2.109
 7399W        W11599   3.559   5.173   9.008
 7400W        W11600   8.036   5.709   3.845
 7401W        W11601   2.378   6.082   3.317
 7402W        W11602  11.028   8.272   0.797
 7403W        W11603   4.434   0.306   3.233
 7404W        W11604   9.247   0.463   1.627
 7405W        W11605   5.606   4.047  10.961
 7406W        W11606   9.605   7.395   2.683
 7407W        W11607   0.047  10.254   9.482
 7408W        W11608   5.954  10.269   0.188
 7409W        W11609   2.776   9.995   2.652
 7410W        W11610   1.829   7.249   2.322
 7411W        W11611   1.426   8.634  10.063
 7412W        W11612   9.073   5.138   9.334
 7413W        W11613   4.066  10.765   9.409
 7414W        W11614   6.397   7.987   1.537
 7415W        W11615  10.379   4.694   0.387
 7416W        W11616   7.326   5.705   2.442
 7417W        W11617   3.274   8.210  10.604
 7418W        W11618   2.724   0.907   3.133
 7419W        W11619  10.488   9.317   3.136
 7420W        W11620   6.650   3.753  10.330
 7421W        W11621   3.233   6.954   8.990
 7422W        W11622   8.437   0.219   8.401
 7423W        W11623   3.751   2.775   0.667
 7424W        W11624   2.501  11.370   3.276
 7425W        W11625  11.140   7.937   9.839
 7426W        W11626   5.015   3.099   2.331
 7427W        W11627   6.750   9.800  10.450
 7428W        W11628   3.534   4.442   9.357
 7429W        W11629  11.089   8.790   1.414
 7430W        W11630   3.110  10.917   1.540
 7431W        W11631   6.992  11.146   9.521
 7432W        W11632   6.386   9.388   0.467
 7433W        W11633   8.362   9.971   1.733
 7434W        W11634   4.959   3.693  11.740
 7435W        W11635   7.665   1.765  10.110
 7436W        W11636   3.659  10.933   1.742
 7437W        W11637   0.319   4.293   8.820
 7438W        W11638   4.717   5.709   0.035
 7439W        W11639  10.764   0.810   9.409
 7440W        W11640   1.195  11.337   9.828
 7441W        W11641   2.373   8.919   2.483
 7442W        W11642  10.551   4.217   0.928
 7443W        W11643   0.167   2.196  11.824
 7444W        W11644   2.938   2.665   0.006
 7445W        W11645  10.707   5.233   8.545
 7446W        W11646   7.595   8.105  11.755
 7447W        W11647   0.588   5.114   1.864
 7448W        W11648   2.236   3.846  11.840
 7449W        W11649  10.303   0.988  11.419
 7450W        W11650  11.373  10.081  11.134
 7451W        W11651  10.529  11.359   3.300
 7452W        W11652   7.077   1.841   3.463
 7453W        W11653   2.984   2.118   2.231
 7454W        W11654   8.166   9.925   2.726
 7455W        W11655   3.262   9.624  10.271
 7456W        W11656  10.670   0.370   3.252
 7457W        W11657   3.283   4.119   0.841
 7458W        W11658   4.108   6.974   1.932
 7459W        W11659  11.038  10.717   9.985
 7460W        W11660   5.113   7.212  11.527
 7461W        W11661   8.057  10.866   3.323
 7462W        W11662   2.220   5.064   8.624
 7463W        W11663  10.887   0.365   8.520
 7464W        W11664   5.538   7.192   3.809
 7465W        W11665  10.402   5.462   8.880
 7466W        W11666   2.936   2.809   3.367
 7467W        W11667  10.741   9.278  11.619
 7468W        W11668  10.336   5.603   3.033
 7469W        W11669   8.121  10.262   9.598
 7470W        W11670   1.784  10.090   9.740
 7471W        W11671   5.530   4.583   3.772
 7472W        W11672   4.687   9.305  11.771
 7473W        W11673   7.604   4.773   2.172
 7474W        W11674   7.132   8.443   9.246
 7475W        W11675   1.083   4.867   3.652
 7476W        W11676   1.582   8.182   3.459
 7477W        W11677   4.028   7.601  11.886
 7478W        W11678   9.167   3.659  11.677
 7479W        W11679   5.629   0.340   9.484
 7480W        W11680   8.613   8.015  11.525
 7481W        W11681  11.315  10.023   1.170
 7482W        W11682  11.389   8.271   9.053
 7483W        W11683   3.377  10.394   1.113
 7484W        W11684   1.858   8.377   1.029
 7485W        W11685   1.205   9.070  11.140
 7486W        W11686   2.659   9.776   0.416
 7487W        W11687   5.039   5.327   2.349
 7488W        W11688   7.747   2.370   0.268
 7489W        W11689  10.304   9.125   1.749
 7490W        W11690   8.952  10.436   2.826
 7491W        W11691   1.083   4.398   8.694
 7492W        W11692   2.885   8.864   2.399
 7493W        W11693   1.714   1.414  11.893
 7494W        W11694   3.493   2.550   9.010
 7495W        W11695   7.171   8.793   2.255
 7496W        W11696   6.810   7.661   1.408
 7497W        W11697   2.682   0.316   3.514
 7498W        W11698   1.225   9.552   1.247
 7499W        W11699   7.821   8.576  10.004
 7500W        W11700   6.141   7.339   2.688
 7501W        W11701   2.637   0.719   0.354
 7502W        W11702   3.118   1.669   9.104
 7503W        W11703   8.042   4.725  11.296
 7504W        W11704   4.679   8.499   1.252
 7505W        W11705   5.115   6.090   1.943
 7506W        W11706   4.710   4.829   0.941
 7507W        W11707   1.218   0.746   9.443
 7508W        W11708   7.523   2.637   9.058
 7509W        W11709   6.563   9.029  10.733
 7510W        W11710   1.806   6.631   9.587
 7511W        W11711  10.454   0.203   0.463
 7512W        W11712   8.207   8.497  10.310
 7513W        W11713   4.494   5.256  11.742
 7514W        W11714   0.935   3.103   0.968
 7515W        W11715   9.985   6.808   0.700
 7516W        W11716   2.394   8.027   0.070
 7517W        W11717   0.729   5.698   2.000
 7518W        W11718   8.686   2.050   2.946
 7519W        W11719   5.037   4.392  11.495
 7520W        W11720   9.284   8.395   0.512
 7521W        W11721   8.877   2.293  10.445
 7522W        W11722   3.931   2.373   8.619
 7523W        W11723  10.974   5.247  10.029
 7524W        W11724   6.766   5.139  10.125
 7525W        W11725   9.047   2.535   0.460
 7526W        W11726   8.855   4.444   8.865
 7527W        W11727   3.210   8.416   1.756
 7528W        W11728   3.566   4.868   1.258
 7529W        W11729  10.552   3.737   0.725
 7530W        W11730   6.571   3.334  10.027
 7531W        W11731   0.956   4.783   9.039
 7532W        W11732   5.451   8.371  11.689
 7533W        W11733   1.924   3.676   9.306
 7534W        W11734   3.898   2.149  10.790
 7535W        W11735  10.423   1.168  10.565
 7536W        W11736   3.409   5.225   4.125
 7537W        W11737   6.167   2.739   3.167
 7538W        W11738   4.058   9.141  11.382
 7539W        W11739   6.010   4.785  10.835
 7540W        W11740   8.226   8.440   1.388
 7541W        W11741   9.318   1.807  11.467
 7542W        W11742   1.654   6.466   3.280
 7543W        W11743   8.141   7.338   9.260
 7544W        W11744   8.264   1.714   2.984
 7545W        W11745   8.570  10.831   2.814
 7546W        W11746   2.211   4.066   3.105
 7547W        W11747  11.440   9.605  11.774
 7548W        W11748   0.453   2.643   2.877
 7549W        W11749   6.179   5.049   1.326
 7550W        W11750   6.581   9.014   2.919
 7551W        W11751   7.692  11.454  11.526
 7552W        W11752   6.319   0.887   0.452
 7553W        W11753   0.864   8.935  11.526
 7554W        W11754   2.133   9.798  11.353
 7555W        W11755   5.010   7.404   0.048
 7556W        W11756  10.731  10.836   1.278
 7557W        W11757   3.969   7.959   9.173
 7558W        W11758   5.064   4.072   8.738
 7559W        W11759   9.088   3.318   8.939
 7560W        W11760   4.359   9.566   0.325
 7561W        W11761   2.375   6.695   9.000
 7562W        W11762   6.143   6.001   2.249
 7563W        W11763   6.215   4.495   3.037
 7564W        W11764   0.863   5.658   1.163
 7565W        W11765   0.369   9.557   9.964
 7566W        W11766   8.560   5.210   8.184
 7567W        W11767   3.348   2.456   2.296
 7568W        W11768  10.403   0.459   8.786
 7569W        W11769   8.578   3.676  11.022
 7570W        W11770  11.359   8.252  11.292
 7571W        W11771  10.181   0.260   3.182
 7572W        W11772   6.217   6.584  11.327
 7573W        W11773  10.808   3.296   1.875
 7574W        W11774   5.136   7.398  10.102
 7575W        W11775   0.488  10.843  10.428
 7576W        W11776   5.199   8.678   2.570
 7577W        W11777   9.978  11.401  10.960
 7578W        W11778   7.099   9.321   1.487
 7579W        W11779   9.191   8.251   9.457
 7580W        W11780   5.227   1.923   0.424
 7581W        W11781   4.213   4.552   2.364
 7582W        W11782   8.963   8.920  10.237
 7583W        W11783   0.678   2.399   3.285
 7584W        W11784   7.595   6.370   3.980
 7585W        W11785   9.013   6.477   7.883
 7586W        W11786   7.979   6.852  10.866
 7587W        W11787   2.811  11.333   1.216
 7588W        W11788   9.645   4.565   9.302
 7589W        W11789   6.909   7.599  10.823
 7590W        W11790   5.635   9.820  10.844
 7591W        W11791   0.397   6.565   9.684
 7592W        W11792   2.132   0.401   1.334
 7593W        W11793   3.018   2.339  10.631
 7594W        W11794  10.819  10.760  11.407
 7595W        W11795   1.229   7.854   2.922
 7596W        W11796   0.355   7.097   3.008
 7597W        W11797   5.043   8.836  10.547
 7598W        W11798   7.450   1.649   0.718
 7599W        W11799   5.603   0.251  11.008
 7600W        W11800   7.899   7.800   9.351
 7601W        W11801   6.438   9.687  10.867
 7602W        W11802   5.243   2.881   2.720
 7603W        W11803   5.192   6.158  10.468
 7604W        W11804   5.215   2.104   8.478
 7605W        W11805   1.457   0.231  11.249
 7606W        W11806   2.719   1.624   0.127
 7607W        W11807   0.864   6.889   3.110
 7608W        W11808   8.240   3.624   8.625
 7609W        W11809   0.906   9.065   2.002
 7610W        W11810   6.105  11.341  10.893
 7611W        W11811   5.626   9.455  10.289
 7612W        W11812   3.554   0.148  10.041
 7613W        W11813  11.188  10.506   2.805
 7614W        W11814   6.609   8.942   0.432
 7615W        W11815   0.333   4.185   9.367
 7616W        W11816   1.502   7.415  11.155
 7617W        W11817   8.515   2.820  11.005
 7618W        W11818   2.901   9.811   8.970
 7619W        W11819   4.822   2.465  10.442
 7620W        W11820   3.519   1.302  10.733
 7621W        W11821   4.820   7.657   0.831
 7622W        W11822   1.565   5.178   9.491
 7623W        W11823   3.484   5.455   8.555
 7624W        W11824  10.328   5.580   1.925
 7625W        W11825   2.743   5.724  11.748
 7626W        W11826   9.210   5.185   1.896
 7627W        W11827   2.703   3.611   8.936
 7628W        W11828   5.961  10.340   8.524
 7629W        W11829   6.667  10.132   9.368
 7630W        W11830   2.222   2.432   9.019
 7631W        W11831   6.324   8.203   8.228
 7632W        W11832   6.978   0.001  10.481
 7633W        W11833   8.650  10.807   9.944
 7634W        W11834   6.025   4.548   9.931
 7635W        W11835   5.654   2.711  11.495
 7636W        W11836   4.103  10.633   8.676
 7637W        W11837   5.765   3.213   3.857
 7638W        W11838   5.060   0.700  10.328
 7639W        W11839   2.659   4.542  10.693
 7640W        W11840  11.084  11.489  11.775
 7641W        W11841   7.448   1.267  11.838
 7642W        W11842   5.556   5.934  11.096
 7643W        W11843   1.805   6.403   0.025
 7644W        W11844   5.454  11.271  10.291
 7645W        W11845   2.921   8.428   8.383
 7646W        W11846   4.226   5.534  11.312
 7647W        W11847   4.783   7.468   2.255
 7648W        W11848   6.060   2.122  10.600
 7649W        W11849   9.289   8.162  10.263
 7650W        W11850   2.810   1.248   1.919
 7651W        W11851   8.886   1.126   0.007
 7652W        W11852   4.717   9.332  10.680
 7653W        W11853   0.914  11.287   1.940
 7654W        W11854   1.121   2.659   1.137
 7655W        W11855   8.213   6.080   1.227
 7656W        W11856   9.944   0.360   9.620
 7657W        W11857   0.280   6.976   9.986
 7658W        W11858   2.595   8.571   8.733
 7659W        W11859   2.701   5.025   8.380
 7660W        W11860   2.739   4.249   8.325
 7661W        W11861  11.390   4.806  10.067
 7662W        W11862   4.270   2.715  10.203
 7663W        W11863   5.045   4.438   9.092
 7664W        W11864   5.641   9.829   9.355
 7665W        W11865   5.858   3.601   1.422
 7666W        W11866   9.504  10.406   9.028
 7667W        W11867   6.248   5.646   2.620
 7668W        W11868  10.430   5.200   9.313
 7669W        W11869   9.306   7.459   8.533
 7670W        W11870  11.243   8.337   3.071
 7671W        W11871   0.005   6.031   1.090
 7672W        W11872  11.298   4.743   9.556
 7673W        W11873  11.319   1.853  10.055
 7674W        W11874   2.973   6.910  10.360
 7675W        W11875   6.847   7.127  11.534
 7676W        W11876   6.428   6.627   9.554
 7677W        W11877   5.164   2.359  11.312
 7678W        W11878   7.739   5.069  10.774
 7679W        W11879   6.737   3.633   1.278
 7680W        W11880   2.655   1.451   0.795
 7681W        W11881   2.838   2.599   2.358
 7682W        W11882   7.161  10.468   2.922
 7683W        W11883   9.784   9.398   9.109
 7684W        W11884  10.608   4.773  11.935
 7685W        W11885   7.613  10.369   3.131
 7686W        W11886   0.897   1.447   9.524
 7687W        W11887   3.680   3.902  10.153
 7688W        W11888  10.524   5.154   1.716
 7689W        W11889   0.687   9.559   2.472
 7690W        W11890   1.814   5.157   9.931
 7691W        W11891   3.834   3.279  11.351
 7692W        W11892   9.954  10.099   9.741
 7693W        W11893  10.314  11.418   1.827
 7694W        W11894   7.126   2.607  10.829
 7695W        W11895   4.776   9.510   9.250
 7696W        W11896   5.158   9.577  11.363
 7697W        W11897  10.014   2.113   2.928
 7698W        W11898   7.983   5.726  11.480
 7699W        W11899   9.951   4.906   0.067
 7700W        W11900   1.205  10.848  10.276
 7701W        W11901   7.663   0.471   0.723
 7702W        W11902   6.788   7.179   1.199
 7703W        W11903  10.286   0.780   9.239
 7704W        W11904   0.054   6.959  11.863
 7705W        W11905   6.512   4.539   0.643
 7706W        W11906   8.162  11.493   9.712
 7707W        W11907   0.694   3.004   2.380
 7708W        W11908   5.126   7.991   1.131
 7709W        W11909  10.348   0.920   2.391
 7710W        W11910   0.221   9.817  11.390
 7711W        W11911   8.467   9.495  11.638
 7712W        W11912   2.294   0.663   3.318
 7713W        W11913   2.308  10.486  11.947
 7714W        W11914   0.077   1.542   0.871
 7715W        W11915   2.319   8.363   1.230
 7716W        W11916   3.780   3.108   2.836
 7717W        W11917   4.434   9.433   3.635
 7718W        W11918   2.328  11.226   2.297
 7719W        W11919   3.661   7.580   0.430
 7720W        W11920   2.637   4.969   0.358
 7721W        W11921   1.339   9.991  11.753
 7722W        W11922   7.906   1.480  10.746
 7723W        W11923  10.495   1.174   1.543
 7724W        W11924   0.745   3.148   9.357
 7725W        W11925   7.101   1.626  10.824
 7726W        W11926   6.244   7.658   2.301
 7727W        W11927   6.565   6.535   1.122
 7728W        W11928   1.769   2.037   0.502
 7729W        W11929   9.396   1.305  11.516
 7730W        W11930   3.688   3.710   1.651
 7731W        W11931   7.444   4.313   1.966
 7732W        W11932   1.907   1.538   0.478
 7733W        W11933   1.144   9.446   2.259
 7734W        W11934   9.938   6.644   8.702
 7735W        W11935   5.958  10.657   3.271
 7736W        W11936   0.270   9.515   9.013
 7737W        W11937   7.859   5.504  11.023
 7738W        W11938   8.223   9.072   2.194
 7739W        W11939   0.981   3.194   2.773
 7740W        W11940   3.009   4.217  11.508
 7741W        W11941  10.198   4.483  11.932
 7742W        W11942   7.574  10.326  10.293
 7743W        W11943   1.703   9.023   2.836
 7744W        W11944  10.828   6.569   0.678
 7745W        W11945   6.712   0.075   0.432
 7746W        W11946  11.282   6.104   1.546
 7747W        W11947   9.595   3.698  11.915
 7748W        W11948   1.986  11.454   0.868
 7749W        W11949   3.730   7.821   2.190
 7750W        W11950   1.746   5.785   0.649
 7751W        W11951   8.858   8.115   1.476
 7752W        W11952   4.932   6.527   9.081
 7753W        W11953   0.014   2.737   1.978
 7754W        W11954  10.447  11.088  11.094
 7755W        W11955   6.699   2.212   9.389
 7756W        W11956   4.397   1.521   2.284
 7757W        W11957   3.591   4.191   8.927
 7758W        W11958   4.790   0.220  10.958
 7759W        W11959   2.861   7.070   3.272
 7760W        W11960   5.722  10.632   9.947
 7761W        W11961  10.952   4.776   8.590
 7762W        W11962   9.239   9.094   0.622
 7763W        W11963  10.580   2.770  10.713
 7764W        W11964   6.177   1.733   1.011
 7765W        W11965   6.490  10.686   0.807
 7766W        W11966   3.168   4.217   2.269
 7767W        W11967   5.243   6.809   8.760
 7768W        W11968   0.415   5.570   0.050
 7769W        W11969  11.458   6.180   9.074
 7770W        W11970  10.856   5.878  10.983
 7771W        W11971   4.220  10.099  10.791
 7772W        W11972   8.987   9.049   1.056
 7773W        W11973   5.055  11.100   9.350
 7774W        W11974   8.527   5.304   2.390
 7775W        W11975   3.167   3.319   9.982
 7776W        W11976   8.198   0.969   0.107
 7777W        W11977   1.375  10.382  10.485
 7778W        W11978   1.917   4.278   0.433
 7779W        W11979   6.541   3.694   0.381
 7780W        W11980   6.427  10.822   2.304
 7781W        W11981   0.698   9.782   8.944
 7782W        W11982   6.187   4.292  11.889
 7783W        W11983   9.570  11.076   9.807
 7784W        W11984   2.410   5.068  10.510
 7785W        W11985   8.212   5.111  10.995
 7786W        W11986   9.402   3.739   1.185
 7787W        W11987   7.032   7.036   2.431
 7788W        W11988   1.760   7.720   2.159
 7789W        W11989  11.324   9.388   9.985
 7790W        W11990   2.488   3.114  10.611
 7791W        W11991   8.880   9.808  11.675
 7792W        W11992   5.149   1.873   1.833
 7793W        W11993   4.826  11.311   1.527
 7794W        W11994   2.915   3.658   0.244
 7795W        W11995   5.371   2.726   9.039
 7796W        W11996   7.973   0.221  11.879
 7797W        W11997   6.392   9.098   3.732
 7798W        W11998   8.393   3.400   1.774
 7799W        W11999   5.991   0.190   0.214
 7800W        W12000   6.505  10.843  11.581
 7801W        W12001  10.465   2.224   3.526
 7802W        W12002   0.786   6.703   1.811
 7803W        W12003   8.433   1.401  11.955
 7804W        W12004   1.785   1.757  10.041
 7805W        W12005   3.268   8.681  10.338
 7806W        W12006   6.592   6.140   0.806
 7807W        W12007   9.494   8.107   3.199
 7808W        W12008   1.419   3.518   2.068
 7809W        W12009   6.277   8.857  11.104
 7810W        W12010   8.869   6.218   3.234
 7811W        W12011   8.778   9.574   3.177
 7812W        W12012   5.702   5.127   9.146
 7813W        W12013   9.339   3.393   1.778
 7814W        W12014   7.629   5.406   9.813
 7815W        W12015   3.131   2.085   9.696
 7816W        W12016   0.952   1.971   3.221
 7817W        W12017   8.945   0.536   3.199
 7818W        W12018  10.399   6.443   1.987
 7819W        W12019   7.918   4.257  10.050
 7820W        W12020   6.676   2.537  11.991
 7821W        W12021   4.447   5.774   1.066
 7822W        W12022  10.845   7.016   0.920
 7823W        W12023   4.445   3.239   0.777
 7824W        W12024  10.654   9.597   9.567
 7825W        W12025  11.375   5.526   3.220
 7826W        W12026   6.659   2.730   9.494
 7827W        W12027   5.493  10.159  11.814
 7828W        W12028   2.790   4.844   0.837
 7829W        W12029   2.484   9.488   1.774
 7830W        W12030   5.081   6.463   1.143
 7831W        W12031   1.811   3.354   0.840
 7832W        W12032  10.461   9.131   9.421
 7833W        W12033   4.318   8.645   3.723
 7834W        W12034   0.840   0.254   1.132
 7835W        W12035   5.958   8.192   3.603
 7836W        W12036   7.641   6.553  10.536
 7837W        W12037   4.453   4.217  10.453
 7838W        W12038   8.959  10.833   9.458
 7839W        W12039   7.862   6.937   9.078
 7840W        W12040   8.520   6.926   1.396
 7841W        W12041   2.692  10.792   1.099
 7842W        W12042  10.036  11.279   3.086
 7843W        W12043   3.093   7.042   1.942
 7844W        W12044   3.787   5.964  11.031
 7845W        W12045   4.819   6.141  11.303
 7846W        W12046   9.553   8.615  10.350
 7847W        W12047   3.368  10.039   9.177
 7848W        W12048   2.237   7.875   9.469
 7849W        W12049   3.349   3.463   0.074
 7850W        W12050   1.480   7.850  11.976
 7851W        W12051   4.483   2.751   9.766
 7852W        W12052   8.589   9.138   0.443
 7853W        W12053   9.102  11.331  10.782
 7854W        W12054   7.189   2.357   3.380
 7855W        W12055   2.562   2.630  11.284
 7856W        W12056   0.363   4.803   1.246
 7857W        W12057   4.688   0.168   2.800
 7858W        W12058   5.774   4.371   1.683
 7859W        W12059   6.650   6.095   2.260
 7860W        W12060   5.882   2.724   8.973
 7861W        W12061   8.276   5.155   3.220
 7862W        W12062   6.936   5.125   2.366
 7863W        W12063   9.119   8.416  11.507
 7864W        W12064   2.241   5.260   9.091
 7865W        W12065   1.282   4.113   9.750
 7866W        W12066   0.863   0.298   2.135
 7867W        W12067   7.463  11.479  10.183
 7868W        W12068   0.738   2.183   1.955
 7869W        W12069   7.171   0.764  11.841
 7870W        W12070   8.353   4.532  10.305
 7871W        W12071  11.104   4.106   2.291
 7872W        W12072   9.906   3.784   1.338
 7873W        W12073   3.131   9.339   0.729
 7874W        W12074   3.817   1.632   9.934
 7875W        W12075  10.847   4.649  10.838
 7876W        W12076   8.260   6.361  10.803
 7877W        W12077  10.098   3.832   9.539
 7878W        W12078  10.694   4.155  10.577
 7879W        W12079   5.118   7.487  10.604
 7880W        W12080  11.420  10.965   2.786
 7881W        W12081   0.421   5.277   1.404
 7882W        W12082  10.134   3.777   3.448
 7883W        W12083   6.344   3.948   8.181
 7884W        W12084   3.226   5.430   3.690
 7885W        W12085   8.491   0.780   3.181
 7886W        W12086   1.810   6.507   9.077
 7887W        W12087   2.318   1.854   0.454
 7888W        W12088  10.864   3.913  11.076
 7889W        W12089   5.221   1.843  11.433
 7890W        W12090   5.474   8.157   9.899
 7891W        W12091   5.871   2.008   1.902
 7892W        W12092   2.317   7.545  11.787
 7893W        W12093   3.069   0.326   1.402
 7894W        W12094   7.666   3.120  10.963
 7895W        W12095   2.440  10.672  10.905
 7896W        W12096   4.229   3.211  10.411
 7897W        W12097   8.581   4.268   2.864
 7898W        W12098   1.372   0.386   0.839
 7899W        W12099   0.296   0.399   0.005
 7900W        W12100   7.060   0.236   2.228
 7901W        W12101   9.097   6.585   8.871
 7902W        W12102   4.193   7.486   1.823
 7903W        W12103   8.585   1.833   3.373
 7904W        W12104   1.513   0.329   9.583
 7905W        W12105   1.460   2.866   8.365
 7906W        W12106   7.337   6.460  10.096
 7907W        W12107  10.570   7.105   2.760
 7908W        W12108  11.359   9.776   3.403
 7909W        W12109   6.446   9.764   0.815
 7910W        W12110   1.910   7.765   3.487
 7911W        W12111   2.847   1.891   0.545
 7912W        W12112   7.033   4.837   9.125
 7913W        W12113   3.293   6.216  10.703
 7914W        W12114   9.612   3.113   2.755
 7915W        W12115   6.454   6.074  10.979
 7916W        W12116  10.349  10.388   0.229
 7917W        W12117   3.123   6.050  11.843
 7918W        W12118   5.361   1.912  10.017
 7919W        W12119   7.700   5.953  10.706
 7920W        W12120   7.499   5.386   0.240
 7921W        W12121   9.427  10.242   2.812
 7922W        W12122   0.996   9.847   1.662
 7923W        W12123   4.610   1.767   1.428
 7924W        W12124   6.153   2.261   0.771
 7925W        W12125   1.792   2.260   8.772
 7926W        W12126   2.183   7.083  11.565
 7927W        W12127   9.448   9.124   9.391
 7928W        W12128   4.654   1.887  10.293
 7929W        W12129   1.376   7.030   3.250
 7930W        W12130   9.986   3.273  10.845
 7931W        W12131   8.960   5.068   3.755
 7932W        W12132   6.471   9.968  11.894
 7933W        W12133   5.200   8.350   1.558
 7934W        W12134   6.593   2.325   0.472
 7935W        W12135  11.294  10.536  10.410
 7936W        W12136   4.800   0.984   1.627
 7937W        W12137   7.728   8.981  11.472
 7938W        W12138   5.517   7.522  11.435
 7939W        W12139   7.629   3.117   2.017
 7940W        W12140   7.942   6.877  11.719
 7941W        W12141   4.689   9.385   2.220
 7942W        W12142   2.251   6.145   0.275
 7943W        W12143   3.936   0.418   8.795
 7944W        W12144   5.945   0.961   9.478
 7945W        W12145   7.518   4.103   9.270
 7946W        W12146   9.498   1.901   3.549
 7947W        W12147   4.611  11.073   1.950
 7948W        W12148   5.715   1.177   0.353
 7949W        W12149   5.408  10.806  10.738
 7950W        W12150   6.987   4.191   9.966
 7951W        W12151   7.675   7.070  10.481
 7952W        W12152   3.679   6.457  10.933
 7953W        W12153  10.039   8.310   8.403
 7954W        W12154  10.999   0.423  10.339
 7955W        W12155  10.802   4.189   2.740
 7956W        W12156   1.330   6.632   2.926
 7957W        W12157   2.307   4.727   9.239
 7958W        W12158   2.377   1.615   2.951
 7959W        W12159   2.981   7.519   2.573
 7960W        W12160   5.497  11.451   0.858
 7961W        W12161   9.572   5.401   1.621
 7962W        W12162   0.996   7.057   8.736
 7963W        W12163   7.090   3.037   0.111
 7964W        W12164   1.787   5.419   0.300
 7965W        W12165   6.817   3.275   3.740
 7966W        W12166   6.680   5.345  10.583
 7967W        W12167   3.583   1.436   1.284
 7968W        W12168   4.100   8.027   0.894
 7969W        W12169   4.329   4.845   2.801
 7970W        W12170   2.195   0.381   1.934
 7971W        W12171   8.331  10.380   0.441
 7972W        W12172   5.251   9.370  11.835
 7973W        W12173   7.647   2.575  11.786
 7974W        W12174   2.763   2.821   2.862
 7975W        W12175   4.823   2.880  10.130
 7976W        W12176   0.772   7.592   1.280
 7977W        W12177   8.589  10.847   3.320
 7978W        W12178   0.796   4.113   9.568
 7979W        W12179   6.123   0.408   1.715
 7980W        W12180  10.537  10.718   0.565
 7981W        W12181   4.926  10.605   2.533
 7982W        W12182   5.616   9.634   9.817
 7983W        W12183   8.055   7.383   1.664
 7984W        W12184   3.043   9.098   9.559
 7985W        W12185  10.300   3.577   2.965
 7986W        W12186   5.126   1.650   0.853
 7987W        W12187   5.113   1.137   8.806
 7988W        W12188  10.034  10.801   3.258
 7989W        W12189   8.524   0.396  11.483
 7990W        W12190   8.547   7.454   2.843
 7991W        W12191   4.450   0.533   2.458
 7992W        W12192   7.472   3.052   9.690
 7993W        W12193   7.240  10.867   1.970
 7994W        W12194   0.009   5.548  11.719
 7995W        W12195   5.072  10.305   3.403
 7996W        W12196   8.672   9.371   2.325
 7997W        W12197   9.565   1.121   0.359
 7998W        W12198   6.559   9.512  11.647
 7999W        W12199   1.793   5.898   0.132
 8000W        W12200   5.628   3.678   3.313
 8001W        W12201   8.655   1.243   2.480
 8002W        W12202   9.004   4.532  11.874
 8003W        W12203  11.013   9.050   8.781
 8004W        W12204   2.465   7.049  11.070
 8005W        W12205   0.928   9.918   2.181
 8006W        W12206   9.699  10.964   3.637
 8007W        W12207   8.811   7.085  11.251
 8008W        W12208   6.550   2.199   8.793
 8009W        W12209   3.238   6.480  11.201
 8010W        W12210   0.696   3.657   9.806
 8011W        W12211   8.131   6.224   3.978
 8012W        W12212  10.485   8.616   9.405
 8013W        W12213  10.772   9.055  10.745
 8014W        W12214   6.561   4.798   1.659
 8015W        W12215   7.949   4.132   3.674
 8016W        W12216   7.546   2.872  11.389
 8017W        W12217   3.342   2.781   0.330
 8018W        W12218   2.697   6.527   9.534
 8019W        W12219   7.191   6.636   3.686
 8020W        W12220   1.447   2.801   3.030
 8021W        W12221   1.371   6.033   3.381
 8022W        W12222   0.675   5.218   0.936
 8023W        W12223   8.344   5.577  10.824
 8024W        W12224   8.687  10.501   1.766
 8025W        W12225   2.617   8.058   8.598
 8026W        W12226   6.915   9.865  11.670
 8027W        W12227   9.151   1.795  10.415
 8028W        W12228   2.712   6.024   8.994
 8029W        W12229   2.255   6.615  11.848
 8030W        W12230   5.275   6.032  11.509
 8031W        W12231   5.825   2.714   8.341
 8032W        W12232   0.306   7.453   1.413
 8033W        W12233  10.806   7.670  10.149
 8034W        W12234   3.424   5.242   0.321
 8035W        W12235   9.298   9.319   1.803
 8036W        W12236   7.011   9.797   1.649
 8037W        W12237   5.931   8.681  10.287
 8038W        W12238   5.850   0.036   9.019
 8039W        W12239  10.879   8.005   3.242
 8040W        W12240   3.205  10.211   2.187
 8041W        W12241   6.495  11.406  10.270
 8042W        W12242   5.429   9.542   3.691
 8043W        W12243   4.472   1.639   9.886
 8044W        W12244   2.437   2.168  11.460
 8045W        W12245   6.069   8.823   1.833
 8046W        W12246   0.254  10.075   3.234
 8047W        W12247   3.403  10.519   9.921
 8048W        W12248   9.070  10.219   8.781
 8049W        W12249   6.989  10.974  11.689
 8050W        W12250   8.711   5.750   3.122
 8051W        W12251  10.319   2.427  10.413
 8052W        W12252   5.016   6.515  10.097
 8053W        W12253   6.890   8.978   3.696
 8054W        W12254   9.908   4.067   1.787
 8055W        W12255   9.342   6.088   9.229
 8056W        W12256   0.359   1.335  10.370
 8057W        W12257  11.245   4.240   2.981
 8058W        W12258   7.244  11.077  10.398
 8059W        W12259  10.345   1.783   2.163
 8060W        W12260   8.660   5.220  10.623
 8061W        W12261   7.572   4.825  11.454
 8062W        W12262   3.118   4.766   0.418
 8063W        W12263   3.438   8.006   9.106
 8064W        W12264   7.799   3.877   3.260
 8065W        W12265   2.470   7.489  11.307
 8066W        W12266   4.197   3.846  11.028
 8067W        W12267   0.430   0.854   8.757
 8068W        W12268   7.918   0.697   9.313
 8069W        W12269   9.806   2.826  11.584
 8070W        W12270  11.394   8.628   0.138
 8071W        W12271   3.415   9.915  11.558
 8072W        W12272   1.764   4.586   0.021
 8073W        W12273   0.931  11.492   2.967
 8074W        W12274   5.228   5.580   1.875
 8075W        W12275   6.744   0.515   3.555
 8076W        W12276   2.405   7.073   0.546
 8077W        W12277   9.559  11.187   0.498
 8078W        W12278   2.776   6.905   8.732
 8079W        W12279  10.402   5.091   3.287
 8080W        W12280   1.455   3.729   0.492
 8081W        W12281  10.383   5.138   0.663
 8082W        W12282  11.380   8.431   1.651
 8083W        W12283   4.165   4.159  10.030
 8084W        W12284   4.776   0.672   2.811
 8085W        W12285   9.616   2.293   3.209
 8086W        W12286   7.587   7.565   1.832
 8087W        W12287   6.604   2.079   0.933
 8088W        W12288  10.146   8.994   0.497
 8089W        W12289   6.552   0.415   1.432
 8090W        W12290   3.303   6.653   1.669
 8091W        W12291   3.566   8.065   0.832
 8092W        W12292   3.218   3.214   2.765
 8093W        W12293   0.757   2.225   2.806
 8094W        W12294   5.955   3.825  11.865
 8095W        W12295   0.430   3.056   9.763
 8096W        W12296  10.423  10.037   9.483
 8097W        W12297   9.102   5.031  10.295
 8098W        W12298   5.578   9.436   2.226
 8099W        W12299   3.127   5.121   8.671
 8100W        W12300   3.588   9.932  11.070
 8101W        W12301   4.290   2.656   1.452
 8102W        W12302   8.477  10.365   2.616
 8103W        W12303   2.189   2.279   0.743
 8104W        W12304   4.750   0.319   8.359
 8105W        W12305   9.806   7.017   2.338
 8106W        W12306   0.436   4.808  10.122
 8107W        W12307   3.784   5.944  10.489
 8108W        W12308  11.063   2.880  11.713
 8109W        W12309   2.796   0.806  10.024
 8110W        W12310   0.515   9.515  10.722
 8111W        W12311   6.950  11.396   0.862
 8112W        W12312   6.862   6.069   0.353
 8113W        W12313   0.828  11.199  10.173
 8114W        W12314   7.341   8.934  11.772
 8115W        W12315  10.481   8.937   3.516
 8116W        W12316   3.825   2.113   9.062
 8117W        W12317   4.151   1.968  10.129
 8118W        W12318   6.316   6.308   9.176
 8119W        W12319   5.180   1.146   0.851
 8120W        W12320   0.680   5.253   9.281
 8121W        W12321   8.059   5.692   1.677
 8122W        W12322   9.078   8.533  10.537
 8123W        W12323  10.920   9.121  10.269
 8124W        W12324   6.330  10.036  10.285
 8125W        W12325   8.191   6.562   8.951
 8126W        W12326   2.095   7.113   2.741
 8127W        W12327   7.095  10.568   1.495
 8128W        W12328   6.088   9.795   9.900
 8129W        W12329  10.968   4.893   1.617
 8130W        W12330   0.388   2.613  10.485
 8131W        W12331  10.000   0.783   9.927
 8132W        W12332   1.850  11.013  11.500
 8133W        W12333   0.218   4.519   9.748
 8134W        W12334   2.461   6.153   1.265
 8135W        W12335   7.501   9.709   1.338
 8136W        W12336  11.113   7.849   0.027
 8137W        W12337   4.375   8.962   8.524
 8138W        W12338   8.137   3.187  10.446
 8139W        W12339   1.232   9.967  11.267
 8140W        W12340   3.965  10.850   0.880
 8141W        W12341   6.278  10.971  10.559
 8142W        W12342   5.059   9.678  10.866
 8143W        W12343   5.142   2.619   2.283
 8144W        W12344   3.673   4.347  11.979
 8145W        W12345   2.683  11.188  10.410
 8146W        W12346   7.523   4.055  11.832
 8147W        W12347   9.048   9.525   0.877
 8148W        W12348   7.966   8.476  11.424
 8149W        W12349   2.242  10.948  10.521
 8150W        W12350   2.819   3.652   9.826
 8151W        W12351   7.446  10.783  10.746
 8152W        W12352   1.262   1.004  10.439
 8153W        W12353   6.025   3.811   0.915
 8154W        W12354   5.717   4.260   8.646
 8155W        W12355   2.926   3.024   0.941
 8156W        W12356  10.450   7.871  11.053
 8157W        W12357   1.431  10.312   0.503
 8158W        W12358   6.090   8.959   0.504
 8159W        W12359   2.688   0.786   2.160
 8160W        W12360   1.030   1.381   2.329
 8161W        W12361   5.542   1.485  10.197
 8162W        W12362   2.547  11.445   9.994
 8163W        W12363   7.258  10.504   8.952
 8164W        W12364  10.394   8.926   9.904
 8165W        W12365   1.606   9.043  10.406
 8166W        W12366   9.576   6.131   0.529
 8167W        W12367   3.610   7.007   2.830
 8168W        W12368   7.905   5.357   9.074
 8169W        W12369   8.505   1.249   9.008
 8170W        W12370  11.298   6.577  10.954
 8171W        W12371   3.686   2.820   2.179
 8172W        W12372  11.375   2.569  11.991
 8173W        W12373   3.555  10.186  10.344
 8174W        W12374  10.833   7.629   2.904
 8175W        W12375  10.242   9.675  11.255
 8176W        W12376   3.710   7.427   9.320
 8177W        W12377  11.433  10.992  10.155
 8178W        W12378   3.189   6.962  11.978
 8179W        W12379   5.528   4.463  11.694
 8180W        W12380   4.744  10.921   3.000
 8181W        W12381   4.605   6.284   0.660
 8182W        W12382   5.867   7.235   1.211
 8183W        W12383   5.620   6.665   3.626
 8184W        W12384   2.080   0.069   9.865
 8185W        W12385   3.889   5.096   1.578
 8186W        W12386   6.659   8.288   3.394
 8187W        W12387   8.916   7.802   9.461
 8188W        W12388   3.387   1.399   2.783
 8189W        W12389  10.630   5.466   9.685
 8190W        W12390   1.264   6.446   0.722
 8191W        W12391   8.122   6.601   0.493
 8192W        W12392   6.760  10.217   3.632
 8193W        W12393   3.493   8.374   3.635
 8194W        W12394   6.206   6.998  10.566
 8195W        W12395   0.186  10.854  11.177
 8196W        W12396   7.495   0.288   9.025
 8197W        W12397  11.203   2.915   0.939
 8198W        W12398   8.092   0.284   1.986
 8199W        W12399   0.330   8.472   9.814
 8200W        W12400   1.487   1.250   0.491
 8201W        W12401   7.703   8.435   0.805
 8202W        W12402   8.252   2.247   1.746
 8203W        W12403  11.108   1.352   0.945
 8204W        W12404   6.895  10.920   1.047
 8205W        W12405  11.476   0.526   3.820
 8206W        W12406   1.874   9.327  10.854
 8207W        W12407   9.941   6.518   2.217
 8208W        W12408   8.006   2.721   9.775
 8209W        W12409   2.207   9.916  10.310
 8210W        W12410   6.638   1.371  10.788
 8211W        W12411   8.685   6.602   2.645
 8212W        W12412   2.205   5.132   3.149
 8213W        W12413   8.111   8.642  10.807
 8214W        W12414   7.484   8.593   1.833
 8215W        W12415   5.168   6.237  10.962
 8216W        W12416   6.101  10.868   2.710
 8217W        W12417   5.322   6.041   1.271
 8218W        W12418   9.995   5.422  11.910
 8219W        W12419   7.115  10.578  10.390
 8220W        W12420   3.152  10.962   2.908
 8221W        W12421   4.495   3.618   9.164
 8222W        W12422   2.132  10.166   8.943
 8223W        W12423   7.238   3.317   0.928
 8224W        W12424   7.397   9.093   1.898
 8225W        W12425   2.147  11.016   9.608
 8226W        W12426   7.561   0.586   2.750
 8227W        W12427   8.960   4.551  10.164
 8228W        W12428   3.339   9.594  10.786
 8229W        W12429   7.182   5.584   1.956
 8230W        W12430   0.457   4.096   2.885
 8231W        W12431  10.354   7.611   2.729
 8232W        W12432   0.670  11.047  11.113
 8233W        W12433   2.317   2.281  10.926
 8234W        W12434   7.112   1.480   0.374
 8235W        W12435   2.207  10.763   0.369
 8236W        W12436   3.302   9.732   2.349
 8237W        W12437  11.054   7.900   1.139
 8238W        W12438   6.555   7.865  10.398
 8239W        W12439   0.083   3.796   3.604
 8240W        W12440  10.907   3.147  10.942
 8241W        W12441  10.955   0.167   8.995
 8242W        W12442   5.463   3.668  11.791
 8243W        W12443   6.208   4.170   3.468
 8244W        W12444   2.376   4.053   0.370
 8245W        W12445   2.114   2.715  11.497
 8246W        W12446  10.337   4.079   9.002
 8247W        W12447   1.370   2.706   0.133
 8248W        W12448   8.243   0.983   0.632
 8249W        W12449   7.946   4.097   9.536
 8250W        W12450   5.848   7.652   4.019
 8251W        W12451   8.082   4.726   9.908
 8252W        W12452   4.123   5.216  10.533
 8253W        W12453   1.153   4.464   1.829
 8254W        W12454  11.382  10.066  10.620
 8255W        W12455  11.226   6.279  11.388
 8256W        W12456   7.083   6.396   4.145
 8257W        W12457   5.022   4.707   0.206
 8258W        W12458   9.973   9.238  11.989
 8259W        W12459   0.912   3.666   3.408
 8260W        W12460   5.252   4.549   8.638
 8261W        W12461  11.482   3.517   0.392
 8262W        W12462   1.404  11.474   1.808
 8263W        W12463   1.317  11.107   2.181
 8264W        W12464   9.571   6.781  10.362
 8265W        W12465   5.609   6.512   9.876
 8266W        W12466   3.378   7.133   1.493
 8267W        W12467   1.304   5.997   9.199
 8268W        W12468   1.290   9.932   0.795
 8269W        W12469   0.384   0.037   2.344
 8270W        W12470   6.465   2.038  10.247
 8271W        W12471  10.276  10.545  10.256
 8272W        W12472   7.940   0.970  10.722
 8273W        W12473   6.605   7.812   9.110
 8274W        W12474   1.781   7.272   3.478
 8275W        W12475   4.075  10.760   0.046
 8276W        W12476   8.550  10.737   1.336
 8277W        W12477   6.591   5.723   0.019
 8278W        W12478   6.755   7.068   0.657
 8279W        W12479   6.644   3.281  10.538
 8280W        W12480   7.924   6.424   0.914
 8281W        W12481  10.070   5.876   3.387
 8282W        W12482   4.597  10.006  10.012
 8283W        W12483   9.415  10.650   1.219
 8284W        W12484   9.059   4.272   2.619
 8285W        W12485   8.960   5.566   2.141
 8286W        W12486   9.960   6.807   3.183
 8287W        W12487  11.077   0.947  11.753
 8288W        W12488   3.780   4.405  10.232
 8289W        W12489   9.235   5.812   0.208
 8290W        W12490   5.505   6.262   1.684
 8291W        W12491  11.401   7.329   2.990
 8292W        W12492  10.409   9.415   2.634
 8293W        W12493   6.534   8.319   1.174
 8294W        W12494   9.757   7.267  10.403
 8295W        W12495   4.338   7.212   2.348
 8296W        W12496  11.041   6.370   8.521
 8297W        W12497   4.129   4.838   8.587
 8298W        W12498  11.117   3.112   0.488
 8299W        W12499   1.578   6.686   0.381
 8300W        W12500   8.123   9.384   0.526
 8301W        W12501   8.038   9.951   2.222
 8302W        W12502   4.748  10.791   0.310
 8303W        W12503   8.691   8.862   9.818
 8304W        W12504   3.805  10.411   0.350
 8305W        W12505   9.621   8.921   2.687
 8306W        W12506   6.095   3.770   2.667
 8307W        W12507   0.720  10.270   9.161
 8308W        W12508   1.797   6.554   1.780
 8309W        W12509  11.462   5.102   1.648
 8310W        W12510   3.935   9.361   9.874
 8311W        W12511   1.669  11.286  11.085
 8312W        W12512   3.527   5.609   2.363
 8313W        W12513   2.165   0.202   3.495
 8314W        W12514   9.432   9.242  11.260
 8315W        W12515   6.406   1.678   2.044
 8316W        W12516  10.477   5.547   3.532
 8317W        W12517   1.949   3.137  10.485
 8318W        W12518   1.762   0.032   2.748
 8319W        W12519   6.907   8.244  10.213
 8320W        W12520   9.287   9.268   0.143
 8321W        W12521   2.483   7.976  10.368
 8322W        W12522   2.336   1.857   1.480
 8323W        W12523   4.795   8.010   2.890
 8324W        W12524  11.451  10.054   0.145
 8325W        W12525   7.686   5.179   1.816
 8326W        W12526   2.622   0.694  10.500
 8327W        W12527   3.424   6.472   9.082
 8328W        W12528   5.782  11.101   3.460
 8329W        W12529   4.643   9.821   2.487
 8330W        W12530   2.154   3.272  11.884
 8331W        W12531   3.852   7.132   9.748
 8332W        W12532   3.787   7.417  11.104
 8333W        W12533   7.729   8.459  10.496
 8334W        W12534   0.120   7.801   0.182
 8335W        W12535   1.615   5.680   2.658
 8336W        W12536  10.393   4.702   9.335
 8337W        W12537   6.126   1.208   3.377
 8338W        W12538   1.817   9.145  11.354
 8339W        W12539   8.558   2.728   0.529
 8340W        W12540   3.887  10.284   9.936
 8341W        W12541   9.059   9.975   0.570
 8342W        W12542   2.297   3.232  10.139
 8343W        W12543   8.622   0.037   0.865
 8344W        W12544   7.782   7.928  10.748
 8345W        W12545   1.592   9.775   1.510
 8346W        W12546  10.363   4.581   3.403
 8347W        W12547   6.158   9.051   3.251
 8348W        W12548   7.968  10.029   1.274
 8349W        W12549   8.857   5.466   0.114
 8350W        W12550  11.027   6.196   1.991
 8351W        W12551  11.312   7.698   0.594
 8352W        W12552   5.525   3.689  10.133
 8353W        W12553   8.448   2.175  10.765
 8354W        W12554   3.162   4.807   1.583
 8355W        W12555   1.489   4.759  11.070
 8356W        W12556   3.105   7.085   2.820
 8357W        W12557  10.834   6.338  10.738
 8358W        W12558   3.184  10.558   3.561
 8359W        W12559   6.253   9.956   1.700
 8360W        W12560   1.815   1.400  11.388
 8361W        W12561  10.812   6.674   8.881
 8362W        W12562   6.928   4.653   3.179
 8363W        W12563  10.341   8.305   1.217
 8364W        W12564   2.354   1.146   0.497
 8365W        W12565   0.560   2.430   2.390
 8366W        W12566   6.654   2.866  11.582
 8367W        W12567  10.804   2.907   3.663
 8368W        W12568   2.607   9.882   9.877
 8369W        W12569   2.239   0.515  11.795
 8370W        W12570   7.789   8.153   1.424
 8371W        W12571   0.276   1.304   1.714
 8372W        W12572  11.042  10.425   9.474
 8373W        W12573   5.497   6.136   9.518
 8374W        W12574   3.497   2.129   3.236
 8375W        W12575   0.473   7.079   1.717
 8376W        W12576   3.888   1.505   0.393
 8377W        W12577   5.571   7.811   9.543
 8378W        W12578   9.084   7.732   1.204
 8379W        W12579   7.497   8.688   0.394
 8380W        W12580  10.442  10.419   1.669
 8381W        W12581   4.182   8.593   3.088
 8382W        W12582   4.335   9.034   3.337
 8383W        W12583   8.615   8.331   3.012
 8384W        W12584   5.547   0.336   1.387
 8385W        W12585  11.093   3.398   2.964
 8386W        W12586   5.815  10.562  11.780
 8387W        W12587   4.538   4.869   0.097
 8388W        W12588   1.703   4.841   3.195
 8389W        W12589   8.079   1.835   9.442
 8390W        W12590   9.840   3.432   3.150
 8391W        W12591   7.874   1.768   1.014
 8392W        W12592  11.339  11.026  11.569
 8393W        W12593   5.177   6.496   0.174
 8394W        W12594   2.180  11.476   9.376
 8395W        W12595   0.649  11.084   0.273
 8396W        W12596   5.185   1.849   1.332
 8397W        W12597   6.454   5.044  10.954
 8398W        W12598   3.138   4.305   1.342
 8399W        W12599   1.778   9.942   2.828
 8400W        W12600   4.671   8.245   3.683
 8401W        W12601   6.972   8.873   0.095
 8402W        W12602   5.072   1.904   9.305
 8403W        W12603   2.030  11.073   8.600
 8404W        W12604   7.445   3.285   1.583
 8405W        W12605   0.240   1.065   0.891
 8406W        W12606   1.013  10.997  11.481
 8407W        W12607   4.481  11.072  11.942
 8408W        W12608   1.152  10.054   8.919
 8409W        W12609   5.609   9.806  11.449
 8410W        W12610   5.219   0.422   2.739
 8411W        W12611   3.271   3.260  11.069
 8412W        W12612  10.072   6.034   2.107
 8413W        W12613   0.481  10.554   0.090
 8414W        W12614   2.144   4.588   3.167
 8415W        W12615   3.382   2.417  11.489
 8416W        W12616   4.302   2.174   1.230
 8417W        W12617   5.848   8.663  11.851
 8418W        W12618   6.036   0.323  11.287
 8419W        W12619   4.148   0.234   2.801
 8420W        W12620   0.799   4.516   0.327
 8421W        W12621   9.931   8.579   1.060
 8422W        W12622   6.033   0.825  11.065
 8423W        W12623   5.206   0.532   9.230
 8424W        W12624   9.004   2.511  11.958
 8425W        W12625   7.738   6.154  10.235
 8426W        W12626   2.092   5.070   9.532
 8427W        W12627   2.441   0.359  10.853
 8428W        W12628  10.005   5.377   3.406
 8429W        W12629   5.102   9.121   9.475
 8430W        W12630   4.383   7.178   1.465
 8431W        W12631   8.529   0.280   0.390
 8432W        W12632   0.885  10.211  10.958
 8433W        W12633   2.078   9.483   0.763
 8434W        W12634   4.845   3.834  10.493
 8435W        W12635   3.535   5.243   0.871
 8436W        W12636   1.207   3.110   2.302
 8437W        W12637   7.283   0.569   1.391
 8438W        W12638   0.287   3.938   1.524
 8439W        W12639   8.849   2.248   9.915
 8440W        W12640   0.161  10.979   0.440
 8441W        W12641   9.479   9.860   9.882
 8442W        W12642  10.405   6.181  11.653
 8443W        W12643   1.303   6.495   9.268
 8444W        W12644   8.831   4.092  10.398
 8445W        W12645   7.964   7.507   0.290
 8446W        W12646   0.720   2.786  11.458
 8447W        W12647   6.350   7.610   4.069
 8448W        W12648   0.475   4.836   8.947
 8449W        W12649   4.951   0.433   2.282
 8450W        W12650   6.990  10.250  10.018
 8451W        W12651   3.893   8.831   3.511
 8452W        W12652   4.534   8.911  11.431
 8453W        W12653   4.620   2.333   2.177
 8454W        W12654   0.579   4.291   1.235
 8455W        W12655   3.740   7.138   8.890
 8456W        W12656   0.371   6.491  10.192
 8457W        W12657   0.273   0.878   9.725
 8458W        W12658   5.785   8.129  11.992
 8459W        W12659   5.619   9.303  10.782
 8460W        W12660   1.905   1.077   0.225
 8461W        W12661   2.810   4.678   9.137
 8462W        W12662  10.740   7.154   2.232
 8463W        W12663  10.373   7.139   0.741
 8464W        W12664  10.613   1.346   1.076
 8465W        W12665   6.173   0.376   0.651
 8466W        W12666  11.436   8.158   2.623
 8467W        W12667   2.571   1.585   8.994
 8468W        W12668   4.400   6.601  10.450
 8469W        W12669   8.590  10.246  10.563
 8470W        W12670   3.316   0.306   9.618
 8471W        W12671   3.194   3.684  10.334
 8472W        W12672   7.101   6.054   0.877
 8473W        W12673   7.048   7.589   8.973
 8474W        W12674   8.148   1.841  10.489
 8475W        W12675  11.410   4.128   1.884
 8476W        W12676   4.788   1.908  11.678
 8477W        W12677   6.985   5.730  10.437
 8478W        W12678   6.025   9.574  10.579
 8479W        W12679   5.115   7.818   9.797
 8480W        W12680   3.822   3.619   9.749
 8481W        W12681   1.050   8.944   1.532
 8482W        W12682   5.174   8.698   0.595
 8483W        W12683   7.965   7.046   2.063
 8484W        W12684   9.131   5.169   0.471
 8485W        W12685   4.790  10.365   9.669
 8486W        W12686   8.372   5.512  10.328
 8487W        W12687   2.641  10.887   0.603
 8488W        W12688   9.343   0.812   1.254
 8489W        W12689   9.779   2.649   9.093
 8490W        W12690  10.851   3.010   9.919
 8491W        W12691  11.374   0.560  11.260
 8492W        W12692   2.780   1.024  11.433
 8493W        W12693   2.197   2.153   3.420
 8494W        W12694   9.470   1.467  10.103
 8495W        W12695   5.929   1.822  10.206
 8496W        W12696   4.500   7.597   2.703
 8497W        W12697   5.437   6.118   2.754
 8498W        W12698   4.782   8.521   2.838
 8499W        W12699   4.212   2.917   1.917
 8500W        W12700   6.067  10.966   0.692
 8501W        W12701   7.895   4.190  10.592
 8502W        W12702   4.282  11.064   0.417
 8503W        W12703   5.190  11.422  11.106
 8504W        W12704   7.234   9.249   9.946
 8505W        W12705   9.381   6.166  11.535
 8506W        W12706  10.675   3.889   3.617
 8507W        W12707   3.947   7.998  10.497
 8508W        W12708   6.787  10.768  10.788
 8509W        W12709   4.899  10.080   0.951
 8510W        W12710   1.656   0.876   3.470
 8511W        W12711   7.090  10.481   9.457
 8512W        W12712   9.823  10.795   8.974
 8513W        W12713   2.136   0.185   2.436
 8514W        W12714   2.381   6.114  11.334
 8515W        W12715   4.162   1.716   9.149
 8516W        W12716  10.467   4.322  11.010
 8517W        W12717   9.756   0.400   1.266
 8518W        W12718   0.919   4.982   0.513
 8519W        W12719   1.326   5.307   9.920
 8520W        W12720   8.483   5.806   0.811
 8521W        W12721   1.164   8.155  11.305
 8522W        W12722   0.217   3.458  11.943
 8523W        W12723   2.731   3.856   0.676
 8524W        W12724   2.622   5.100   9.411
 8525W        W12725   9.876   5.699   0.742
 8526W        W12726   8.578   8.278   1.038
 8527W        W12727   6.027   9.412   8.583
 8528W        W12728   9.605   3.152  10.521
 8529W        W12729   6.334   2.100   1.743
 8530W        W12730   5.822   9.858   1.471
 8531W        W12731   7.137   9.885   2.178
 8532W        W12732   4.650  11.258   9.619
 8533W        W12733   5.705   8.328   9.479
 8534W        W12734   5.649   5.844   1.984
 8535ION    NA+12735   2.766   6.686  11.881
 8536ION    NA+12736   4.187   1.070   2.068
 8537ION    NA+12737   1.115  10.574   3.374
 8538ION    NA+12738   6.810   0.898   1.365
 8539ION    NA+12739   7.202   3.417   9.462
 8540ION    NA+12740  10.187   9.488   3.548
 8541ION    NA+12741  11.457   2.012  11.410
 8542ION    NA+12742   5.636   4.054   0.654
 8543ION    NA+12743  11.252   7.146   9.680
 8544ION    NA+12744   8.236   4.620   9.426
 8545ION    NA+12745   6.820   6.440  10.907
 8546ION    NA+12746   7.753   2.281   1.666
 8547ION    NA+12747   8.061   4.979   0.987
 8548ION    NA+12748   8.128   2.310   3.245
 8549ION    NA+12749   1.820  10.990   0.993
 8550ION    NA+12750   0.900   9.293  11.894
 8551ION    NA+12751   7.859   6.237  11.516
 8552ION    NA+12752   5.365   1.588   3.219
 8553ION    NA+12753   3.993  10.441  10.458
 8554ION    NA+12754   1.847   3.125   9.923
 8555ION    NA+12755   9.849   4.725   2.275
 8556ION    NA+12756   0.863   8.667   0.830
 8557ION    NA+12757   6.330   7.425  11.921
 8558ION    NA+12758   8.044   3.416   3.137
 8559ION    NA+12759   8.862   6.323  10.671
 8560ION    NA+12760   9.737   7.746   0.946
 8561ION    NA+12761   6.330  10.992   3.157
 8562ION    NA+12762   8.241   2.286   0.398
 8563ION    NA+12763   0.932   2.795   9.689
 8564ION    NA+12764   2.119   0.623   0.298
 8565ION    NA+12765   3.400   2.837  11.795
 8566ION    NA+12766   6.597   7.687   1.899
 8567ION    NA+12767   3.233   4.872   8.238
 8568ION    NA+12768   4.669  11.140   2.556
 8569ION    NA+12769   5.694  10.277   1.201
 8570ION    NA+12770   3.170   4.710  10.829
 8571ION    NA+12771  10.430   0.486  11.513
 8572ION    NA+12772   7.133   7.530   3.437
 8573ION    NA+12773   7.639   3.767   0.261
 8574ION    NA+12774  10.239   7.444  11.968
 8575ION    NA+12775   3.693  10.016   2.160
 8576ION    NA+12776   3.218   1.130  10.177
 8577ION    NA+12777   1.458   7.660  10.011
 8578ION    NA+12778   1.418   8.816   8.919
 8579ION    NA+12779   3.135   9.428  11.799
 8580ION    NA+12780   8.902   0.151   1.321
 8581ION    NA+12781   0.537   5.232   9.796
 8582ION    NA+12782   5.642   7.105   2.442
 8583ION    NA+12783   2.907   3.856   9.356
 8584ION    NA+12784   7.019   5.627   0.577
 8585ION    NA+12785   3.501  11.438   1.731
 8586ION    NA+12786   0.912  10.801   2.281
 8587ION    NA+12787   4.823   6.513   1.915
 8588ION    NA+12788   1.028   6.282   3.114
 8589ION    NA+12789   9.772   2.146   8.916
 8590ION    NA+12790   6.678   6.870   3.179
 8591ION    NA+12791   9.177  10.354   1.843
 8592ION    NA+12792   1.502   4.163   0.737
 8593ION    NA+12793   1.665   4.364   1.881
 8594ION    NA+12794   3.367   6.205   3.331
 8595ION    NA+12795   9.619   7.690   3.490
 8596ION    NA+12796   5.777   8.021  11.466
 8597ION    NA+12797   1.167   6.002   9.698
 8598ION    NA+12798   8.448   3.642   2.223
 8599ION    NA+12799   9.827   2.338   3.779
 8600ION    NA+12800   7.412   1.743   0.047
 8601ION    NA+12801   8.541   8.375   2.498
 8602ION    NA+12802  11.497  11.066   3.285
 8603ION    NA+12803   6.816   7.460   4.197
 8604ION    NA+12804   5.321  11.282  11.575
 8605ION    NA+12805   6.037   2.553   2.622
 8606ION    NA+12806   8.294   8.541   9.815
 8607ION    NA+12807   7.334   8.872   1.435
 8608ION    NA+12808   4.740  10.208   2.201
 8609ION    NA+12809   4.271   5.800   2.007
 8610ION    NA+12810   0.033   8.009   1.896
 8611ION    NA+12811   4.162  10.060   1.265
 8612ION    NA+12812   8.139   0.932   9.755
 8613ION    NA+12813   4.362   5.912   0.389
 8614ION    NA+12814  10.086   0.425   0.864
 8615ION    NA+12815   9.733   7.868   9.021
 8616ION    NA+12816   6.015   3.909   1.838
 8617ION    NA+12817   7.325   9.354  10.830
 8618ION    NA+12818   5.910   3.250   3.344
 8619ION    NA+12819   1.779   1.149   1.346
 8620ION    NA+12820   7.662   2.856   8.629
 8621ION    NA+12821   6.195   8.477   9.490
 8622ION    NA+12822   0.662   4.680   1.623
 8623ION    NA+12823   3.188   6.599   8.612
 8624ION    NA+12824   4.140   6.804   0.257
 8625ION    CL-12825   5.524   1.697   2.132
 8626ION    CL-12826   0.206   7.863  11.296
 8627ION    CL-12827  11.316   4.333   8.648
 8628ION    CL-12828   2.125   8.494   2.291
 8629ION    CL-12829   7.021   7.824   1.864
 8630ION    CL-12830   4.663   8.942   1.497
 8631ION    CL-12831   8.199   3.599  11.384
 8632ION    CL-12832   0.142   7.834   2.290
 8633ION    CL-12833   9.177   5.896   3.534
 8634ION    CL-12834   0.274   0.874   0.211
 8635ION    CL-12835   7.451  11.476   0.822
 8636ION    CL-12836   3.317  11.348   1.336
 8637ION    CL-12837   6.940   3.146   9.702
 8638ION    CL-12838   5.035   0.522   1.384
 8639ION    CL-12839  11.474  11.439   3.024
 8640ION    CL-12840   4.769   1.191  11.021
 8641ION    CL-12841   5.809   9.908   0.959
 8642ION    CL-12842  11.164   7.359   9.296
 8643ION    CL-12843   0.265   4.461   1.625
 8644ION    CL-12844   6.057   7.766  11.745
 8645ION    CL-12845  10.613  10.946  10.114
 8646ION    CL-12846   3.577  11.345  11.981
 8647ION    CL-12847   7.221   1.065   1.423
 8648ION    CL-12848   9.120   1.568   3.535
 8649ION    CL-12849   3.239  11.145   9.131
 8650ION    CL-12850   0.986  10.356   9.593
 8651ION    CL-12851   3.433   2.930   3.169
 8652ION    CL-12852   6.939   7.237   3.137
 8653ION    CL-12853   6.703   2.784  10.604
 8654ION    CL-12854  11.462   3.565   1.300
 8655ION    CL-12855   2.363   0.434  10.130
 8656ION    CL-12856   9.485  10.648  10.344
 8657ION    CL-12857   1.000   7.894   3.381
 8658ION    CL-12858   6.483   7.262   4.436
 8659ION    CL-12859   8.470   4.962   3.642
 8660ION    CL-12860   5.372   2.846   8.531
 8661ION    CL-12861   8.189   6.515   2.743
 8662ION    CL-12862   7.016   9.488   2.491
 8663ION    CL-12863   5.205   3.387   2.714
 8664ION    CL-12864  11.207   3.561  11.928
 8665ION    CL-12865  10.530   3.218   1.398
 8666ION    CL-12866   7.552   7.312   9.654
 8667ION    CL-12867   1.019   1.512   0.405
 8668ION    CL-12868   3.334   1.554  10.101
 8669ION    CL-12869  10.883   3.609  10.118
 8670ION    CL-12870   1.351   1.226   9.657
 8671ION    CL-12871  11.436   5.496   2.342
 8672ION    CL-12872   2.660   6.830   9.971
 8673ION    CL-12873   6.888   9.417  10.765
 8674ION    CL-12874   8.314   4.606   0.955
 8675ION    CL-12875   4.256   8.740  11.013
 8676ION    CL-12876   5.291   3.765   0.667
 8677ION    CL-12877   0.229   5.266  10.121
 8678ION    CL-12878   5.812   4.169   2.142
 8679ION    CL-12879   9.131   9.558   3.543
 8680ION    CL-12880  11.011   5.526   8.101
 8681ION    CL-12881   3.020   7.765   9.889
 8682ION    CL-12882   5.316   1.180  11.964
 8683ION    CL-12883   9.897   6.686   1.198
 8684ION    CL-12884   9.204   7.177   2.919
 8685ION    CL-12885   4.082   7.259   0.279
 8686ION    CL-12886   9.308   6.384  10.671
 8687ION    CL-12887   0.698   4.614   2.917
 8688ION    CL-12888  10.425  10.448   1.142
 8689ION    CL-12889   7.127  10.115   1.284
 8690ION    CL-12890   5.309   3.696   9.625
 8691ION    CL-12891   4.534   6.173   2.008
 8692ION    CL-12892   4.236   6.346   0.307
 8693ION    CL-12893  10.900   0.929   8.497
 8694ION    CL-12894   5.541   8.301  11.188
 8695ION    CL-12895   5.328   3.112  11.548
 8696ION    CL-12896   4.442   3.050   8.839
 8697ION    CL-12897   9.966   7.462  11.615
 8698ION    CL-12898   0.753   5.996   3.362
 8699ION    CL-12899  10.115   3.125   2.775
 8700ION    CL-12900   9.335   7.818   0.760
 8701ION    CL-12901   7.485   1.763  11.607
 8702ION    CL-12902   2.728   5.659   2.104
 8703ION    CL-12903   5.675  10.691   1.395
 8704ION    CL-12904   1.234   2.287   1.857
 8705ION    CL-12905   1.158  11.272  11.039
 8706ION    CL-12906   4.896   1.925   9.808
 8707ION    CL-12907   8.074  11.276   1.863
 8708ION    CL-12908   1.375   9.434   2.721
 8709ION    CL-12909   6.630   7.106   0.044
 8710ION    CL-12910   1.751  10.748  10.347
 8711ION    CL-12911   0.867   4.991   1.355
 8712ION    CL-12912   6.045   9.551  11.556
 8713ION    CL-12913   5.452  10.332   8.897
 8714ION    CL-12914   9.529  10.314   1.570
  11.50000  11.50000  12.00000
