Protein in INSANE! Membrane UpperLeaflet>POPC=1.0 LowerLeaflet>POPC=1.0
12914
    1AU     AUC    1   7.644   9.523   6.709 -0.0327 -0.0923  0.0613
    1AU     AUC    2   7.435   9.742   6.531 -0.0360  0.0248  0.0128
    1AU     AUC    3   7.504   9.411   6.449 -0.1037 -0.0194 -0.0436
    1AU     AUC    4   7.750   9.628   6.986 -0.0615  0.0683  0.0842
    1AU     AUC    5   7.874   9.289   6.830 -0.0698 -0.0073  0.0678
    1AU     AUC    6   7.970   9.587   6.715  0.0655  0.0187 -0.0453
    1AU     AUC    7   7.731   9.674   6.456 -0.0094  0.0782 -0.0593
    1AU     AUC    8   7.549   9.384   6.980 -0.0179 -0.0451  0.0492
    1AU     AUC    9   7.298   9.471   6.717  0.1165 -0.0133 -0.0208
    1AU     AUC   10   7.545   9.210   6.678  0.0161 -0.1088  0.0411
    1AU     AUC   11   7.840   9.353   6.548  0.0699  0.0282  0.0427
    1AU     AUC   12   7.435   9.720   6.895 -0.0331 -0.0233  0.0543
    1AU     AUC   13   7.690   9.839   6.726  0.0373 -0.0278 -0.0390
    1AU     AUC   14   7.236   9.956   6.339  0.0371  0.0554 -0.0721
    1AU     AUC   15   7.251   9.646   6.235 -0.0960  0.0690 -0.0344
    1AU     AUC   16   7.350   9.282   6.173  0.0042  0.0066  0.0075
    1AU     AUC   17   7.881   9.694   7.294  0.0860 -0.0722  0.1131
    1AU     AUC   18   8.036   9.398   7.166 -0.0348  0.0422 -0.0027
    1AU     AUC   19   8.087   9.087   7.014 -0.0265  0.0195 -0.0536
    1AU     AUC   20   8.285   9.702   6.716  0.0327  0.0366  0.0422
    1AU     AUC   21   8.104   9.783   6.416  0.0132  0.0597  0.0425
    1AU     AUC   22   7.880   9.794   6.161 -0.0657  0.0194 -0.0650
    1AU     AUC   23   7.414   9.214   7.274 -0.0037 -0.0098 -0.1017
    1AU     AUC   24   7.157   9.307   7.042  0.0462  0.0183 -0.1391
    1AU     AUC   25   6.933   9.399   6.735  0.0218 -0.0259 -0.1852
    1AU     AUC   26   7.456   8.867   6.688 -0.0369  0.1058 -0.0237
    1AU     AUC   27   7.775   8.980   6.476  0.0502  0.0660 -0.0597
    1AU     AUC   28   8.029   9.166   6.333 -0.0570  0.0836  0.0078
    1AU     AUC   29   7.216   9.912   7.078 -0.0293  0.0255 -0.0129
    1AU     AUC   30   7.495  10.067   6.934 -0.1297  0.0251 -0.0106
    1AU     AUC   31   7.764  10.157   6.770 -0.0249 -0.0368  0.0188
    1AU     AUC   32   7.373   9.051   6.412  0.0039 -0.0194 -0.0498
    1AU     AUC   33   7.691   9.184   6.221 -0.0670  0.0647  0.0023
    1AU     AUC   34   7.220   9.973   6.699 -0.0508  0.0823 -0.0019
    1AU     AUC   35   7.491  10.091   6.516  0.0195  0.1027 -0.0597
    1AU     AUC   36   7.832   8.936   6.831 -0.0528 -0.0467  0.0269
    1AU     AUC   37   8.101   9.091   6.652  0.0411  0.0707  0.0604
    1AU     AUC   38   7.535   9.802   7.195 -0.0505 -0.0395 -0.0066
    1AU     AUC   39   7.810   9.955   7.094  0.0382  0.0785  0.0311
    1AU     AUC   40   7.525   9.885   6.208 -0.0418 -0.0310 -0.0477
    1AU     AUC   41   7.620   9.526   6.156  0.1029 -0.0330  0.0084
    1AU     AUC   42   8.119   9.669   7.027  0.1179 -0.0024  0.0240
    1AU     AUC   43   8.242   9.387   6.871 -0.0052  0.0054 -0.0127
    1AU     AUC   44   7.060   9.672   6.516 -0.1140 -0.0398  0.0181
    1AU     AUC   45   7.129   9.329   6.447  0.0870 -0.0551 -0.0079
    1AU     AUC   46   7.648   9.416   7.312  0.0093  0.0491  0.0097
    1AU     AUC   47   7.749   9.138   7.117  0.0064 -0.0749 -0.0387
    1AU     AUC   48   8.202   9.450   6.506 -0.0229  0.0248  0.0019
    1AU     AUC   49   7.981   9.489   6.232  0.0012  0.0806 -0.0018
    1AU     AUC   50   7.428   9.038   6.968 -0.0039  0.0447  0.0951
    1AU     AUC   51   7.181   9.112   6.756  0.0165 -0.1427 -0.0105
    1AU     AUC   52   8.016   9.935   6.760  0.0374 -0.1477 -0.0075
    1AU     AUC   53   7.831  10.005   6.443 -0.1581  0.0166 -0.0385
    1AU     AUC   54   7.315   9.573   7.204  0.0041  0.0152 -0.0140
    1AU     AUC   55   7.105   9.676   6.871 -0.0175 -0.0645  0.0924
    1AU    AUSL   56   7.381   8.941   6.059  0.0263 -0.0030  0.0806
    1AU    AUSL   57   7.149   8.788   6.483 -0.0302  0.0937 -0.0693
    1AU     AUL   58   7.104   8.722   6.142  0.1149 -0.0154  0.0732
    1AU       S   59   6.703   8.686   6.366 -0.1628 -0.0857 -0.5399
    1AU     LIG   60   6.866   8.337   6.378  0.3415 -0.3778 -0.1517
    1AU     LIG   61   6.663   7.975   6.559 -0.0980  0.2718  0.1235
    1AU     LIG   62   6.426   7.631   6.777  0.2709  0.1651  0.1004
    1AU     LIG   63   6.275   7.191   6.789 -0.0818 -0.0904 -0.0362
    1AU     LIG   64   5.854   7.021   6.679 -0.2571 -0.5134  0.5523
    1AU       S   65   7.402   8.426   5.978 -0.1305 -0.0699  0.3239
    1AU     LIG   66   7.712   8.443   5.591 -0.0484  0.0896 -0.1238
    1AU     LIG   67   8.025   8.401   5.190  0.1584  0.0241  0.2122
    1AU     LIG   68   8.406   8.348   5.023 -0.2016  0.4669 -0.1126
    1AU     LIG   69   8.801   8.294   5.158 -0.0038 -0.3141 -0.2950
    1AU     LIG   70   9.239   8.144   5.231 -0.3302  0.2236 -0.1897
    1AU    AUSL   71   7.564   8.663   6.368 -0.0014 -0.0911 -0.0296
    1AU    AUSL   72   8.041   8.736   6.369  0.0544 -0.0547 -0.0291
    1AU     AUL   73   7.845   8.535   6.106 -0.0879 -0.0255  0.1061
    1AU       S   74   7.432   8.394   6.351 -0.2485  0.0930  0.1040
    1AU     LIG   75   7.301   8.033   6.579  0.0793  0.4200  0.0977
    1AU     LIG   76   7.480   7.709   6.822  0.0111 -0.2749 -0.1511
    1AU     LIG   77   7.547   7.376   7.028 -0.1598 -0.1596  0.0619
    1AU     LIG   78   7.347   6.992   7.092  0.0785  0.1284  0.2310
    1AU     LIG   79   7.136   6.646   7.008 -0.1057  0.6482  0.0200
    1AU       S   80   8.041   8.318   6.467  0.4559 -0.2288  0.0540
    1AU     LIG   81   8.363   7.915   6.470  0.1875 -0.0740  0.1199
    1AU     LIG   82   8.529   7.546   6.454 -0.1590  0.4752  0.1650
    1AU     LIG   83   8.632   7.276   6.804 -0.0819 -0.7544  0.1627
    1AU     LIG   84   8.679   6.935   6.986 -0.2557  0.1412 -0.2450
    1AU     LIG   85   9.082   7.005   7.279  0.0872 -0.1332 -0.1385
    1AU    AUSL   86   7.785   9.037   6.220  0.0527 -0.0362  0.0544
    1AU    AUSL   87   7.635   9.201   5.830  0.0179  0.0748  0.0696
    1AU     AUL   88   7.604   8.843   5.887  0.0254  0.0770  0.0762
    1AU       S   89   8.285   8.722   5.951 -0.2505 -0.2897 -0.0437
    1AU     LIG   90   8.685   8.873   5.840 -0.0954 -0.0489 -0.3973
    1AU     LIG   91   9.082   8.896   5.777  0.2225 -0.1725  0.0522
    1AU     LIG   92   9.403   9.140   5.865  0.2271  0.1493 -0.0040
    1AU     LIG   93   9.738   9.191   6.135 -0.4044 -0.3695  0.0378
    1AU     LIG   94  10.138   9.041   6.358 -0.0271  0.1243 -0.0186
    1AU       S   95   7.790   9.096   5.570 -0.1500  0.3025 -0.0492
    1AU     LIG   96   7.390   8.994   5.461  0.0802  0.0321  0.0183
    1AU     LIG   97   7.092   8.677   5.624 -0.0302 -0.4692  0.0514
    1AU     LIG   98   6.961   8.251   5.850 -0.1281 -0.2525  0.2364
    1AU     LIG   99   7.038   7.947   6.182  0.1180 -0.2962  0.1805
    1AU     LIG  100   7.014   7.600   6.504  0.3332  0.3178 -0.1371
    1AU    AUSL  101   7.282  10.236   6.474 -0.0417 -0.0008 -0.0005
    1AU    AUSL  102   7.693  10.375   6.392 -0.0464 -0.0046 -0.0542
    1AU     AUL  103   7.422  10.567   6.337  0.0225 -0.0215  0.0449
    1AU       S  104   7.395  10.736   6.738  0.1191  0.0263 -0.2592
    1AU     LIG  105   7.272  11.167   6.470  0.0901 -0.2109 -0.1593
    1AU     LIG  106   7.494  11.529   6.604 -0.0682 -0.2958  0.1806
    1AU     LIG  107   7.975  11.483   6.552 -0.3159  0.2009 -0.5057
    1AU     LIG  108   8.440  11.603   6.762 -0.3036 -0.2551  0.2025
    1AU     LIG  109   8.590  11.832   7.022 -0.0708 -0.3800  0.2414
    1AU       S  110   7.785  10.444   5.880  0.0220 -0.0235 -0.3695
    1AU     LIG  111   7.667  10.916   6.109 -0.3225 -0.1542 -0.0267
    1AU     LIG  112   7.693  11.360   6.151 -0.1050  0.0685 -0.0390
    1AU     LIG  113   7.740  11.809   6.221 -0.1702  0.0601 -0.0032
    1AU     LIG  114   7.481  12.282   6.253 -0.1009  0.3480 -0.1600
    1AU     LIG  115   7.266  12.517   6.054  0.0194 -0.1374 -0.2141
    1AU    AUSL  116   7.124  10.348   6.853  0.0548 -0.0158  0.0061
    1AU    AUSL  117   6.877  10.113   6.505 -0.0344  0.0297  0.0659
    1AU     AUL  118   6.993  10.407   6.481  0.0318 -0.0049  0.0540
    1AU       S  119   6.650  10.205   6.728  0.0237 -0.2846  0.2621
    1AU     LIG  120   6.542  10.402   6.313  0.0851 -0.0974 -0.4969
    1AU     LIG  121   6.495  10.522   5.798 -0.0046  0.5327 -0.1570
    1AU     LIG  122   6.605  10.676   5.528  0.0091 -0.2761  0.2550
    1AU     LIG  123   7.000  10.840   5.348 -0.2394  0.2148  0.1401
    1AU     LIG  124   7.383  10.622   5.410 -0.1661  0.2420 -0.0512
    1AU       S  125   7.164  10.763   6.742 -0.0977  0.2934 -0.0560
    1AU     LIG  126   6.701  10.696   6.726 -0.2687  0.0024  0.3024
    1AU     LIG  127   6.436  10.878   6.949 -0.1104 -0.1837 -0.0344
    1AU     LIG  128   6.008  10.986   7.079 -0.3379  0.0272 -0.0229
    1AU     LIG  129   5.655  11.105   7.185  0.3835  0.0724 -0.1015
    1AU     LIG  130   5.236  11.094   7.237  0.0243  0.1343  0.1283
    1AU    AUSL  131   7.552  10.293   6.805  0.0456  0.0452 -0.0590
    1AU    AUSL  132   7.336  10.141   7.179 -0.0961 -0.0389  0.0187
    1AU     AUL  133   7.248  10.451   7.117  0.0484  0.0753 -0.0223
    1AU       S  134   7.413  10.561   7.535 -0.2538  0.3783 -0.1034
    1AU     LIG  135   7.041  10.780   7.419  0.2207  0.2125  0.0310
    1AU     LIG  136   6.835  11.100   7.092 -0.0346  0.2427 -0.0234
    1AU     LIG  137   6.802  11.234   6.760 -0.2305  0.5286  0.2419
    1AU     LIG  138   7.028  11.601   6.679 -0.2318 -0.1433 -0.0654
    1AU     LIG  139   6.996  11.977   6.506  0.0697  0.0221 -0.1459
    1AU       S  140   7.551  10.625   6.780 -0.1030 -0.4237  0.0863
    1AU     LIG  141   7.751  11.045   6.646 -0.1474  0.3882 -0.0369
    1AU     LIG  142   8.247  11.162   6.781 -0.0071 -0.2856  0.2735
    1AU     LIG  143   8.260  11.355   7.151 -0.2280 -0.0326  0.2068
    1AU     LIG  144   8.175  11.745   7.212  0.2176  0.0401 -0.2411
    1AU     LIG  145   8.183  12.042   6.907  0.0144  0.1445 -0.2608
    1AU    AUSL  146   8.198   8.759   6.806  0.0858  0.0533 -0.0287
    1AU    AUSL  147   8.240   9.107   6.450 -0.0301 -0.0009  0.0567
    1AU     AUL  148   8.356   8.754   6.449  0.0083  0.0164  0.0298
    1AU       S  149   8.189   8.344   6.620 -0.0623  0.0973 -0.0852
    1AU     LIG  150   8.606   8.348   6.635  0.0057  0.3798 -0.3642
    1AU     LIG  151   8.946   8.161   6.999  0.0892  0.0761  0.3831
    1AU     LIG  152   9.298   7.929   7.067  0.1945  0.1997  0.4361
    1AU     LIG  153   9.598   7.611   7.158  0.4726 -0.1713  0.1386
    1AU     LIG  154   9.602   7.207   7.260  0.3513 -0.0740  0.2046
    1AU       S  155   8.761   9.030   6.633 -0.2761  0.3043  0.0075
    1AU     LIG  156   8.846   8.730   6.284 -0.2026  0.0200  0.4364
    1AU     LIG  157   8.650   8.431   6.159 -0.0073  0.0690  0.0568
    1AU     LIG  158   8.231   8.213   5.963  0.0096  0.2988 -0.0604
    1AU     LIG  159   7.875   7.987   6.167 -0.4150  0.2825  0.0460
    1AU     LIG  160   7.949   7.554   6.325  0.0270 -0.1619  0.1161
    1AU    AUSL  161   7.759   8.810   6.724  0.0489 -0.0874 -0.0338
    1AU    AUSL  162   7.902   8.696   7.119  0.0390  0.0401  0.0705
    1AU     AUL  163   8.162   8.598   7.040 -0.0319  0.0135  0.0205
    1AU       S  164   7.822   8.371   7.250  0.1804 -0.1186 -0.2602
    1AU     LIG  165   8.232   8.116   7.054 -0.1813  0.1753  0.1908
    1AU     LIG  166   8.535   7.813   6.952 -0.2437 -0.0690  0.4237
    1AU     LIG  167   8.953   7.728   6.691  0.0184  0.1871  0.1559
    1AU     LIG  168   9.190   7.305   6.759  0.0348 -0.0024 -0.0648
    1AU     LIG  169   9.165   6.928   6.753 -0.0738 -0.3852 -0.2267
    1AU       S  170   7.877   8.439   6.659  0.0038  0.0987  0.0282
    1AU     LIG  171   7.855   7.986   6.785  0.4077 -0.2305  0.2305
    1AU     LIG  172   8.036   7.600   6.870  0.1260  0.0436  0.1754
    1AU     LIG  173   8.160   7.200   6.547  0.0726 -0.1475  0.0823
    1AU     LIG  174   8.486   6.969   6.428  0.1182 -0.1577 -0.2062
    1AU     LIG  175   8.794   6.718   6.418 -0.1505 -0.0787 -0.0375
    1AU    AUSL  176   7.690  10.051   7.417  0.0103  0.0926  0.0276
    1AU    AUSL  177   7.316   9.791   7.417 -0.0353  0.0090 -0.0031
    1AU     AUL  178   7.298  10.128   7.506  0.0522  0.0383  0.0480
    1AU       S  179   7.560  10.457   7.698 -0.0921  0.1467 -0.2246
    1AU     LIG  180   7.885  10.872   7.637 -0.3531 -0.0839 -0.4125
    1AU     LIG  181   7.924  11.216   7.503 -0.2435 -0.1434 -0.1787
    1AU     LIG  182   7.994  11.646   7.654  0.2470 -0.5090 -0.0324
    1AU     LIG  183   8.105  12.104   7.529 -0.0806 -0.2242 -0.1306
    1AU     LIG  184   8.333  12.410   7.235  0.4976 -0.1703 -0.0389
    1AU       S  185   7.433   9.801   7.889 -0.2596 -0.7113 -0.0340
    1AU     LIG  186   7.062   9.934   8.072  0.0606  0.0968  0.1761
    1AU     LIG  187   6.861  10.306   8.319 -0.0539 -0.1164  0.2860
    1AU     LIG  188   6.840  10.382   8.778 -0.0694 -0.2814 -0.3739
    1AU     LIG  189   6.685  10.706   8.978 -0.1367  0.2103  0.0458
    1AU     LIG  190   6.742  11.110   9.043  0.3887  0.0396  0.0203
    1AU    AUSL  191   7.723  10.403   7.164  0.0057  0.0038  0.0943
    1AU    AUSL  192   8.127   9.969   7.402 -0.0454  0.0407  0.0144
    1AU     AUL  193   7.957  10.243   7.510 -0.0853 -0.0525  0.0230
    1AU       S  194   8.409  10.113   7.640 -0.2030 -0.2409 -0.0384
    1AU     LIG  195   8.344  10.509   7.916  0.3256  0.0961  0.1423
    1AU     LIG  196   8.283  10.764   8.352 -0.2608 -0.3693  0.2767
    1AU     LIG  197   8.179  11.112   8.218 -0.1566  0.1778  0.2781
    1AU     LIG  198   8.124  11.501   8.445 -0.0877 -0.1675  0.1618
    1AU     LIG  199   7.682  11.595   8.550  0.0291 -0.0847  0.0110
    1AU       S  200   7.648  10.556   7.353 -0.1681 -0.3408  0.0124
    1AU     LIG  201   7.468  10.960   7.211  0.0345  0.1258 -0.2112
    1AU     LIG  202   7.314  11.272   7.006 -0.0489  0.3775 -0.0277
    1AU     LIG  203   7.094  11.669   7.153  0.0878  0.0639 -0.2282
    1AU     LIG  204   6.685  11.624   7.097  0.2467 -0.1551  0.1429
    1AU     LIG  205   6.442  11.360   7.242  0.2277 -0.0377  0.2522
    1AU    AUSL  206   7.610   9.813   5.829  0.0408 -0.0610 -0.1121
    1AU    AUSL  207   7.386  10.203   6.071  0.0510  0.0202 -0.1012
    1AU     AUL  208   7.440  10.135   5.680  0.0286  0.0114  0.0730
    1AU       S  209   7.643  10.456   5.922  0.1958  0.0229 -0.1563
    1AU     LIG  210   7.243  10.684   5.847  0.1338  0.1792 -0.0612
    1AU     LIG  211   6.921  10.794   6.035  0.4179  0.3631  0.1686
    1AU     LIG  212   6.533  10.904   6.225 -0.0355 -0.0693 -0.2043
    1AU     LIG  213   6.381  11.247   6.494  0.0630  0.0091 -0.1425
    1AU     LIG  214   6.127  11.404   6.849 -0.1238  0.2817 -0.3236
    1AU       S  215   7.353   9.676   5.445 -0.4893  0.1135 -0.0115
    1AU     LIG  216   7.483   9.405   5.153 -0.3333 -0.4145 -0.4370
    1AU     LIG  217   7.813   9.032   5.067 -0.0082 -0.4170  0.1916
    1AU     LIG  218   7.650   8.682   5.162  0.1260  0.1710 -0.0930
    1AU     LIG  219   7.441   8.337   5.207  0.0975  0.1504 -0.3740
    1AU     LIG  220   7.041   8.179   5.203 -0.3802 -0.1299  0.1603
    1AU    AUSL  221   7.165   9.868   5.939 -0.0123  0.0464  0.0394
    1AU    AUSL  222   6.950   9.445   6.002 -0.0994  0.1030 -0.0378
    1AU     AUL  223   6.809   9.773   5.848 -0.0499  0.1493 -0.0015
    1AU       S  224   7.189   9.721   5.629 -0.4396  0.3331 -0.0492
    1AU     LIG  225   6.906   9.879   5.361  0.0816  0.2315  0.1275
    1AU     LIG  226   6.576  10.021   5.537 -0.0818  0.1845  0.1561
    1AU     LIG  227   6.367  10.014   5.932  0.1848  0.1441 -0.0401
    1AU     LIG  228   5.955  10.268   6.020  0.1566  0.0695 -0.0772
    1AU     LIG  229   5.658  10.526   6.310 -0.0200 -0.4297  0.2476
    1AU       S  230   6.517   9.363   5.955 -0.1475  0.1472  0.1752
    1AU     LIG  231   6.129   9.158   5.976 -0.0861  0.2412 -0.3038
    1AU     LIG  232   5.903   8.641   6.024 -0.0085  0.3026  0.0482
    1AU     LIG  233   6.128   8.163   6.011  0.2706 -0.2969  0.1526
    1AU     LIG  234   6.419   7.866   6.088 -0.1479  0.2768 -0.0852
    1AU     LIG  235   6.344   7.531   6.252  0.0375  0.0333 -0.1092
    1AU    AUSL  236   7.384   9.491   6.024 -0.0119  0.1722 -0.0486
    1AU    AUSL  237   7.880   9.524   6.022 -0.1108  0.0356 -0.0102
    1AU     AUL  238   7.711   9.522   5.716 -0.0697  0.0682  0.0343
    1AU       S  239   8.009   9.269   5.487 -0.3849 -0.2421  0.4210
    1AU     LIG  240   8.487   9.229   5.605 -0.1704 -0.2898  0.1485
    1AU     LIG  241   8.846   9.346   5.603  0.0021  0.0964 -0.3421
    1AU     LIG  242   9.133   9.560   5.724 -0.0988 -0.2184 -0.0564
    1AU     LIG  243   9.551   9.744   5.966 -0.1094 -0.0847  0.2841
    1AU     LIG  244   9.753  10.149   5.950  0.0657 -0.1983  0.3557
    1AU       S  245   7.260   9.445   5.651  0.0286  0.1903  0.2761
    1AU     LIG  246   6.966   9.154   5.564  0.1005  0.0383  0.0763
    1AU     LIG  247   6.610   8.909   5.736  0.1920 -0.3425  0.1364
    1AU     LIG  248   6.498   8.532   5.948  0.0719 -0.0639 -0.1541
    1AU     LIG  249   6.260   8.413   6.439 -0.0404 -0.2745  0.0386
    1AU     LIG  250   6.157   7.996   6.499  0.0282 -0.0566 -0.2286
    1AU    AUSL  251   8.475   9.580   6.971  0.0419  0.0027 -0.0017
    1AU    AUSL  252   8.354   9.143   6.887  0.0311 -0.0061  0.1756
    1AU     AUL  253   8.755   9.353   7.048  0.0727 -0.0370  0.0264
    1AU       S  254   8.591   8.957   6.816 -0.1076  0.1329  0.2651
    1AU     LIG  255   8.646   8.604   7.083 -0.0553 -0.2226  0.3515
    1AU     LIG  256   9.013   8.532   7.428 -0.1956  0.0670  0.0657
    1AU     LIG  257   9.143   8.741   7.779  0.0530  0.5673  0.3224
    1AU     LIG  258   9.395   8.882   8.056  0.1784  0.1361  0.1652
    1AU     LIG  259   9.667   8.765   8.203 -0.1666 -0.0893  0.0182
    1AU       S  260   8.778   9.804   6.796 -0.0514  0.3349 -0.2244
    1AU     LIG  261   9.189   9.760   6.909  0.4179 -0.0703  0.0206
    1AU     LIG  262   9.289   9.429   7.059  0.1758 -0.4415 -0.1502
    1AU     LIG  263   9.713   9.349   7.181 -0.0982  0.1552 -0.3993
    1AU     LIG  264  10.175   9.293   7.262 -0.1222  0.1257 -0.2027
    1AU     LIG  265  10.599   9.404   7.455  0.1830 -0.0798  0.4749
    1AU    AUSL  266   8.111   9.581   7.246  0.0055  0.1286 -0.0230
    1AU    AUSL  267   8.386   9.996   7.032 -0.0292  0.0483 -0.0384
    1AU     AUL  268   8.461   9.759   7.316 -0.0311  0.1044  0.0022
    1AU       S  269   8.065   9.760   7.813 -0.3284 -0.0433  0.1960
    1AU     LIG  270   8.466   9.777   7.980 -0.1479 -0.0602 -0.0354
    1AU     LIG  271   8.838   9.673   7.782  0.0911  0.1963  0.1658
    1AU     LIG  272   9.016   9.758   7.393  0.2394 -0.1365 -0.2167
    1AU     LIG  273   9.434  10.050   7.235 -0.0136  0.3651  0.1151
    1AU     LIG  274   9.632  10.209   6.823 -0.1446 -0.1057 -0.0927
    1AU       S  275   8.633  10.190   7.139 -0.5789 -0.0556 -0.1820
    1AU     LIG  276   8.697  10.582   6.941 -0.0751  0.5219 -0.0387
    1AU     LIG  277   8.671  10.956   6.738  0.2404  0.1187 -0.2457
    1AU     LIG  278   8.785  11.342   6.597  0.1414 -0.0568 -0.2275
    1AU     LIG  279   8.947  11.715   6.694  0.0133 -0.0848 -0.1262
    1AU     LIG  280   9.129  12.151   6.573  0.1499 -0.0364 -0.1013
    1AU    AUSL  281   8.394   9.257   7.304 -0.0127  0.0240 -0.1094
    1AU    AUSL  282   8.035   9.368   7.597 -0.0136 -0.0634  0.0845
    1AU     AUL  283   8.358   9.436   7.588 -0.0129 -0.0238 -0.0637
    1AU       S  284   8.137   9.033   7.744 -0.2375  0.2044 -0.3649
    1AU     LIG  285   8.164   9.367   8.076 -0.5294 -0.0134  0.3856
    1AU     LIG  286   7.916   9.671   8.276  0.0830 -0.0877  0.1930
    1AU     LIG  287   7.557   9.856   8.378 -0.3201  0.0988 -0.2646
    1AU     LIG  288   7.317  10.149   8.656  0.3586 -0.3820  0.0454
    1AU     LIG  289   7.513  10.576   8.635 -0.2378 -0.0796 -0.2179
    1AU       S  290   8.547   8.997   7.283  0.3648  0.0940 -0.1464
    1AU     LIG  291   9.043   8.985   7.092  0.2825 -0.0207 -0.2617
    1AU     LIG  292   9.477   8.943   6.866  0.0949 -0.0155  0.1365
    1AU     LIG  293   9.902   9.076   6.878  0.0645  0.3530  0.2410
    1AU     LIG  294  10.176   9.431   6.708 -0.2593  0.2930 -0.0187
    1AU     LIG  295  10.392   9.814   6.589  0.2600 -0.3862 -0.0178
    1AU    AUSL  296   6.768   9.433   6.402 -0.0454 -0.0697 -0.0425
    1AU    AUSL  297   7.132   9.198   6.317 -0.0762  0.0361 -0.0828
    1AU     AUL  298   6.907   9.142   6.062  0.0872 -0.0251 -0.0869
    1AU       S  299   6.523   9.383   6.346 -0.1192 -0.1611 -0.1022
    1AU     LIG  300   6.249   9.423   6.575  0.0705  0.1133 -0.0930
    1AU     LIG  301   6.008   9.317   6.859  0.1844  0.3473  0.0718
    1AU     LIG  302   5.734   9.390   7.077  0.1825 -0.2471  0.0481
    1AU     LIG  303   5.727   9.660   7.418  0.1535  0.3306  0.1407
    1AU     LIG  304   5.913   9.953   7.777  0.0956  0.1690 -0.3424
    1AU       S  305   6.638   8.891   6.314  0.3855  0.0740  0.2295
    1AU     LIG  306   6.145   8.919   6.394 -0.0754 -0.3358  0.0532
    1AU     LIG  307   5.692   9.031   6.575 -0.1970 -0.2858  0.0160
    1AU     LIG  308   5.264   9.200   6.544 -0.1442 -0.0405 -0.0620
    1AU     LIG  309   5.096   9.361   6.214 -0.2671  0.0836  0.1290
    1AU     LIG  310   4.905   9.249   5.850 -0.1974  0.0373 -0.0160
    1AU    AUSL  311   7.027   9.755   6.324 -0.1011 -0.0428  0.0389
    1AU    AUSL  312   6.684   9.760   6.683  0.0426  0.0128  0.0681
    1AU     AUL  313   6.680   9.874   6.337 -0.1370  0.0541  0.0590
    1AU       S  314   6.453   9.542   6.108  0.1498  0.1972 -0.2128
    1AU     LIG  315   6.032   9.684   6.216 -0.1698 -0.0969 -0.1599
    1AU     LIG  316   5.782   9.713   6.603 -0.3602 -0.1532 -0.0762
    1AU     LIG  317   5.412   9.621   6.763  0.0336  0.0719 -0.2081
    1AU     LIG  318   4.944   9.713   6.641  0.4160  0.0392  0.1153
    1AU     LIG  319   4.641  10.073   6.606  0.1924  0.0983 -0.0286
    1AU       S  320   6.422  10.056   6.685  0.0232 -0.2991 -0.1714
    1AU     LIG  321   6.083  10.169   6.532  0.0155 -0.3048 -0.0934
    1AU     LIG  322   6.104  10.628   6.531 -0.5086  0.0560 -0.2647
    1AU     LIG  323   5.871  10.985   6.554 -0.0901 -0.3079 -0.0481
    1AU     LIG  324   5.591  11.191   6.705 -0.3454  0.2308 -0.1971
    1AU     LIG  325   5.190  11.505   6.700 -0.4512  0.2035  0.2160
    1AU    AUSL  326   7.655   9.143   7.533  0.0112  0.0255  0.0227
    1AU    AUSL  327   7.720   9.621   7.479  0.0030 -0.0851  0.0235
    1AU     AUL  328   7.773   9.325   7.807  0.0329  0.0253  0.0805
    1AU       S  329   7.583   9.784   7.801 -0.3663 -0.1021 -0.0720
    1AU     LIG  330   7.828  10.171   8.040  0.2538 -0.1748 -0.1274
    1AU     LIG  331   7.783  10.594   8.134  0.1955  0.3664 -0.2883
    1AU     LIG  332   7.497  10.877   7.921 -0.0082 -0.1560  0.0105
    1AU     LIG  333   7.272  11.164   7.718  0.0575  0.2329  0.1407
    1AU     LIG  334   6.930  11.468   7.580  0.2675 -0.1629  0.3465
    1AU       S  335   8.010   8.922   7.759  0.1027 -0.4235 -0.0692
    1AU     LIG  336   7.869   8.528   7.860  0.0590 -0.0219  0.2512
    1AU     LIG  337   8.054   8.096   7.640  0.4817 -0.0059 -0.0304
    1AU     LIG  338   8.247   7.766   7.364 -0.4216 -0.0490 -0.2815
    1AU     LIG  339   8.344   7.396   7.192 -0.0695 -0.1146 -0.1994
    1AU     LIG  340   8.199   7.065   7.010 -0.0771  0.0703 -0.2812
    1AU    AUSL  341   8.007   9.093   7.251 -0.0565 -0.0439 -0.0528
    1AU    AUSL  342   7.541   8.934   7.164 -0.0168  0.0579 -0.0057
    1AU     AUL  343   7.727   8.816   7.431 -0.0138 -0.0221 -0.0205
    1AU       S  344   7.608   8.341   7.307 -0.0750  0.0390  0.0907
    1AU     LIG  345   7.701   7.833   7.301  0.0595  0.0754 -0.0048
    1AU     LIG  346   7.776   7.452   7.410  0.2557  0.1174  0.1224
    1AU     LIG  347   7.812   6.996   7.303 -0.1147  0.0383  0.0889
    1AU     LIG  348   7.919   6.572   7.124 -0.1451  0.1234 -0.3330
    1AU     LIG  349   7.849   6.196   7.302 -0.0061 -0.3517  0.0397
    1AU       S  350   8.148   8.913   7.550 -0.0053 -0.0840  0.0038
    1AU     LIG  351   8.265   8.502   7.473 -0.0998 -0.0494 -0.2146
    1AU     LIG  352   8.569   8.168   7.414  0.3876  0.1180 -0.1123
    1AU     LIG  353   8.918   7.977   7.437 -0.5703 -0.5672  0.2226
    1AU     LIG  354   9.378   8.028   7.569 -0.0233 -0.1485 -0.4388
    1AU     LIG  355   9.585   7.809   7.859  0.4658 -0.3395  0.1393
    1AU    AUSL  356   8.302   9.430   6.180  0.0044 -0.0657  0.2091
    1AU    AUSL  357   8.508   9.425   6.581 -0.0627  0.0243  0.0364
    1AU     AUL  358   8.502   9.148   6.225 -0.0275  0.0776  0.0246
    1AU       S  359   8.744   9.413   6.556  0.1439  0.1364 -0.1360
    1AU     LIG  360   9.260   9.276   6.541 -0.0841  0.0229  0.1457
    1AU     LIG  361   9.701   9.420   6.613  0.6327  0.4976 -0.2072
    1AU     LIG  362   9.712   9.739   6.915  0.2055  0.0208 -0.1067
    1AU     LIG  363   9.934   9.884   7.218 -0.2178 -0.0247 -0.3791
    1AU     LIG  364  10.107   9.718   7.550  0.0713  0.0003  0.0333
    1AU       S  365   8.658   9.515   5.982 -0.2233 -0.2805  0.1323
    1AU     LIG  366   8.990   9.248   6.102 -0.1326  0.0807 -0.3681
    1AU     LIG  367   9.325   8.864   6.340  0.2188 -0.0686 -0.1552
    1AU     LIG  368   9.723   8.735   6.511  0.0059 -0.0854 -0.0998
    1AU     LIG  369  10.115   8.519   6.661 -0.0948 -0.2867 -0.0277
    1AU     LIG  370  10.520   8.499   6.856 -0.1511 -0.3427 -0.0869
    1AU    AUSL  371   8.480   9.801   6.348  0.0528  0.0987  0.0258
    1AU    AUSL  372   8.176  10.141   6.283  0.0246 -0.0481  0.0115
    1AU     AUL  373   8.488  10.120   6.115 -0.0096 -0.0357  0.0240
    1AU       S  374   8.725   9.702   6.161 -0.0443 -0.2510  0.0499
    1AU     LIG  375   9.104   9.696   6.330  0.0433  0.3310  0.0435
    1AU     LIG  376   9.417   9.816   6.449  0.2080  0.1417  0.1057
    1AU     LIG  377   9.896   9.846   6.360 -0.3193  0.0577 -0.2285
    1AU     LIG  378  10.122  10.257   6.532 -0.0380 -0.0647  0.0471
    1AU     LIG  379  10.493  10.308   6.601 -0.1911 -0.3159 -0.0011
    1AU       S  380   8.441  10.444   6.415  0.4641  0.2352 -0.1438
    1AU     LIG  381   8.932  10.608   6.527  0.2603  0.4164  0.3775
    1AU     LIG  382   9.308  10.864   6.440 -0.1144  0.0473  0.0246
    1AU     LIG  383   9.709  10.809   6.620  0.3363  0.3815  0.2942
    1AU     LIG  384  10.055  10.606   6.886  0.0082 -0.2261 -0.2000
    1AU     LIG  385   9.872  10.403   7.231 -0.2735  0.1153  0.3158
    1AU    AUSL  386   8.195   9.808   5.994 -0.1723  0.0058  0.0636
    1AU    AUSL  387   8.082   9.145   5.951 -0.0148  0.0877  0.0284
    1AU     AUL  388   8.193   9.504   5.833  0.0149  0.0047  0.0852
    1AU       S  389   8.039   9.067   5.671 -0.3133  0.3008 -0.3107
    1AU     LIG  390   8.231   8.805   5.371 -0.1832 -0.1730  0.0018
    1AU     LIG  391   8.453   8.495   5.473 -0.5225 -0.1432 -0.2154
    1AU     LIG  392   8.873   8.371   5.712 -0.1748  0.3001 -0.2423
    1AU     LIG  393   9.101   8.344   6.065  0.0540 -0.1567 -0.2176
    1AU     LIG  394   9.055   8.162   6.454 -0.0088  0.0906 -0.2314
    1AU       S  395   8.611   9.751   5.811  0.2054 -0.1282 -0.2213
    1AU     LIG  396   8.879  10.067   5.829  0.0158 -0.1952  0.1580
    1AU     LIG  397   9.175  10.138   6.058  0.0440 -0.1207  0.1106
    1AU     LIG  398   9.553  10.357   6.335  0.2792 -0.0463  0.3010
    1AU     LIG  399   9.879  10.553   6.197 -0.0745 -0.0717 -0.1154
    1AU     LIG  400  10.098  10.823   6.325 -0.1641  0.1655  0.0344
    1AU    AUSL  401   7.174   8.870   6.902  0.0368 -0.0584  0.0025
    1AU    AUSL  402   6.873   9.096   6.638  0.1445  0.0597 -0.0100
    1AU     AUL  403   6.997   8.659   6.726  0.0672  0.1007 -0.0164
    1AU       S  404   6.817   8.620   7.157  0.0506  0.1100 -0.2134
    1AU     LIG  405   6.636   8.321   6.962  0.1098  0.1678  0.4126
    1AU     LIG  406   6.227   8.195   6.950  0.2914 -0.2551  0.1092
    1AU     LIG  407   5.995   7.796   7.037 -0.0569 -0.2397 -0.0830
    1AU     LIG  408   5.553   7.660   7.140  0.0914 -0.1698 -0.1202
    1AU     LIG  409   5.210   7.427   7.286  0.1225 -0.0797 -0.1524
    1AU       S  410   6.681   8.980   6.594  0.0206 -0.0470 -0.0426
    1AU     LIG  411   6.396   8.707   6.778  0.3014  0.0054  0.1456
    1AU     LIG  412   5.955   8.644   6.825 -0.0423 -0.1936  0.3045
    1AU     LIG  413   5.749   8.486   6.541  0.0399 -0.0557 -0.0060
    1AU     LIG  414   5.421   8.696   6.286 -0.1900 -0.0509  0.2450
    1AU     LIG  415   4.975   8.844   6.210  0.3051 -0.3183  0.0307
    1AU    AUSL  416   7.166   8.971   7.359  0.0392 -0.0003 -0.0349
    1AU    AUSL  417   7.481   8.562   6.901  0.0554  0.0063 -0.0959
    1AU     AUL  418   7.293   8.683   7.211 -0.0308 -0.0281  0.0375
    1AU       S  419   6.835   8.722   7.379  0.1057  0.3026  0.0265
    1AU     LIG  420   6.557   8.920   7.654  0.0510 -0.1480  0.0023
    1AU     LIG  421   6.657   9.310   7.817 -0.1758  0.1134 -0.1644
    1AU     LIG  422   6.653   9.776   7.826  0.1862 -0.2194 -0.4149
    1AU     LIG  423   6.512  10.138   8.001 -0.1160  0.2019 -0.0177
    1AU     LIG  424   6.487  10.527   7.923  0.1813 -0.0932 -0.1540
    1AU       S  425   7.607   8.340   7.039  0.3168  0.0915 -0.6076
    1AU     LIG  426   7.118   8.246   7.063 -0.1202  0.0877 -0.0579
    1AU     LIG  427   6.955   7.795   6.935 -0.3494  0.4729 -0.1622
    1AU     LIG  428   6.839   7.451   7.275  0.1184 -0.1101 -0.3986
    1AU     LIG  429   6.850   7.415   7.677 -0.5000  0.0738  0.3115
    1AU     LIG  430   7.015   7.415   8.085 -0.0460 -0.0609  0.2332
    1AU    AUSL  431   6.848   9.100   7.077  0.0507  0.1058  0.0412
    1AU    AUSL  432   7.149   9.391   7.270  0.0305  0.0743  0.0664
    1AU     AUL  433   6.931   9.176   7.481  0.0463  0.0338  0.0736
    1AU       S  434   6.567   9.404   7.275  0.1176  0.0556 -0.3078
    1AU     LIG  435   6.192   9.145   7.303  0.5279  0.0094  0.2234
    1AU     LIG  436   5.818   8.906   7.185 -0.1688 -0.2011  0.2212
    1AU     LIG  437   5.486   8.723   6.942 -0.3788  0.0761 -0.1113
    1AU     LIG  438   5.275   8.389   6.654  0.0248  0.1263  0.0293
    1AU     LIG  439   5.036   8.082   6.330 -0.0846  0.2968  0.0757
    1AU       S  440   6.709   8.893   7.140  0.1396  0.1936  0.1988
    1AU     LIG  441   6.281   8.641   7.229 -0.1525  0.2380  0.2405
    1AU     LIG  442   5.945   8.405   7.305 -0.1017  0.0197 -0.1196
    1AU     LIG  443   5.657   8.162   7.095 -0.2135  0.3008 -0.3659
    1AU     LIG  444   5.681   8.008   6.687  0.3669 -0.3256  0.1265
    1AU     LIG  445   5.612   8.129   6.200 -0.1179 -0.1153 -0.1851
    1AU    AUSL  446   8.017  10.333   6.676  0.0432  0.0255 -0.0597
    1AU    AUSL  447   7.795  10.036   6.139 -0.0212 -0.0079 -0.0177
    1AU     AUL  448   7.963  10.397   6.298  0.0339  0.0229 -0.0022
    1AU       S  449   8.341  10.536   6.614 -0.2727  0.2141  0.1675
    1AU     LIG  450   8.112  10.843   6.430  0.0563  0.1299 -0.2297
    1AU     LIG  451   8.113  11.119   6.254 -0.1904  0.0203  0.3255
    1AU     LIG  452   8.380  11.514   6.242  0.1211 -0.1161 -0.3076
    1AU     LIG  453   8.322  11.924   6.390 -0.0055  0.1116 -0.0801
    1AU     LIG  454   8.683  12.156   6.651 -0.0409 -0.1259  0.0407
    1AU       S  455   7.882  10.210   5.885 -0.3232  0.1228 -0.0764
    1AU     LIG  456   8.005   9.853   5.544 -0.2522 -0.5868 -0.1790
    1AU     LIG  457   8.408   9.704   5.381 -0.1639 -0.2187  0.2524
    1AU     LIG  458   8.806   9.807   5.333 -0.0249 -0.0325 -0.4016
    1AU     LIG  459   9.140  10.064   5.383  0.2370 -0.0109 -0.2911
    1AU     LIG  460   9.539   9.963   5.468 -0.0460  0.5461 -0.1950
    1AU    AUSL  461   8.227   9.929   6.663  0.0229  0.0330  0.0244
    1AU    AUSL  462   7.966  10.066   7.006  0.0354  0.0168  0.0102
    1AU     AUL  463   8.179  10.307   6.971  0.0980  0.0409  0.1026
    1AU       S  464   8.496  10.204   6.634 -0.1047 -0.0772  0.0158
    1AU     LIG  465   8.856  10.152   6.427  0.1462  0.0813  0.1519
    1AU     LIG  466   9.121  10.231   6.750 -0.1250  0.3837  0.2769
    1AU     LIG  467   9.087  10.378   7.207  0.0250  0.2158  0.0312
    1AU     LIG  468   8.936  10.252   7.563  0.0796  0.1296 -0.2777
    1AU     LIG  469   8.745  10.184   8.009 -0.3970 -0.2205 -0.0322
    1AU       S  470   8.427  10.341   7.395  0.0879  0.0829 -0.0240
    1AU     LIG  471   8.303  10.694   7.250 -0.2210  0.2886 -0.0731
    1AU     LIG  472   7.985  10.859   7.036 -0.4468  0.3802  0.0301
    1AU     LIG  473   7.823  11.349   7.045  0.0092 -0.4961  0.4755
    1AU     LIG  474   7.725  11.740   6.980  0.4869 -0.3514  0.2092
    1AU     LIG  475   7.539  12.059   6.680 -0.0253 -0.0009  0.5607
    1AU    AUSL  476   6.906   9.774   7.261  0.0227 -0.0442 -0.1576
    1AU    AUSL  477   7.346   9.409   7.645 -0.0082 -0.0342  0.0587
    1AU     AUL  478   7.060   9.633   7.600 -0.0496 -0.0021 -0.0089
    1AU       S  479   7.407   9.552   7.912 -0.0701 -0.2871  0.4446
    1AU     LIG  480   7.367   9.044   7.953 -0.3063  0.1955 -0.3024
    1AU     LIG  481   7.425   8.612   7.920  0.2117  0.1014 -0.1101
    1AU     LIG  482   7.054   8.332   7.672 -0.4699 -0.1488 -0.1552
    1AU     LIG  483   6.807   7.977   7.453 -0.0186 -0.1613  0.1792
    1AU     LIG  484   6.501   7.832   7.209  0.0832  0.2434  0.1332
    1AU       S  485   6.590   9.557   7.389 -0.1811  0.1325  0.3027
    1AU     LIG  486   6.223   9.677   7.545  0.0269  0.3795 -0.3715
    1AU     LIG  487   5.953  10.087   7.323 -0.0865  0.0839 -0.0235
    1AU     LIG  488   5.767  10.131   6.974 -0.2324 -0.2631 -0.2752
    1AU     LIG  489   5.504  10.148   6.680  0.1729  0.4061 -0.0686
    1AU     LIG  490   5.066  10.346   6.541 -0.3534 -0.1151 -0.3205
    1AU    AUSL  491   6.901   9.491   6.930 -0.0223  0.0036 -0.1029
    1AU    AUSL  492   7.045   9.931   6.878 -0.0765  0.0383  0.0604
    1AU     AUL  493   6.703   9.844   7.035 -0.0124  0.0320  0.0459
    1AU       S  494   6.498   9.383   6.978  0.0918  0.0594  0.3167
    1AU     LIG  495   6.228   9.787   7.077 -0.2429  0.1749 -0.2023
    1AU     LIG  496   6.406  10.134   7.416  0.3185  0.0499 -0.1149
    1AU     LIG  497   6.806  10.282   7.593 -0.1659  0.0535 -0.4258
    1AU     LIG  498   7.060  10.403   7.868 -0.2394 -0.0861  0.1579
    1AU     LIG  499   7.378  10.297   8.174 -0.1503  0.1124 -0.2359
    1AU       S  500   6.615  10.292   6.927 -0.0341  0.5024 -0.0650
    1AU     LIG  501   6.128  10.465   6.964 -0.0376  0.1819 -0.0778
    1AU     LIG  502   5.701  10.611   6.858 -0.0894  0.0972  0.0028
    1AU     LIG  503   5.316  10.671   6.937 -0.3494 -0.2172 -0.4131
    1AU     LIG  504   4.916  10.856   6.877  0.1519 -0.1179  0.0672
    1AU     LIG  505   4.611  11.114   6.888  0.1276 -0.0174 -0.0609
    2POPC   NC3  506   4.301   1.628   8.787 -0.0952  0.0703 -0.2495
    2POPC   PO4  507   3.942   1.711   8.979 -0.1342 -0.0090  0.1954
    2POPC   GL1  508   3.859   1.577   8.502 -0.1796 -0.2787  0.0024
    2POPC   GL2  509   3.578   1.384   8.386 -0.0640 -0.0151  0.1306
    2POPC   C1A  510   3.937   1.726   7.985 -0.0334 -0.0871 -0.2183
    2POPC   D2A  511   4.018   2.337   8.004  0.0790  0.1023 -0.0070
    2POPC   C3A  512   3.750   2.601   7.814  0.2584  0.4168 -0.0526
    2POPC   C4A  513   3.822   2.932   7.567 -0.1433 -0.2842 -0.0718
    2POPC   C1B  514   3.869   1.132   8.108  0.1561 -0.0077 -0.0386
    2POPC   C2B  515   4.298   1.061   7.920 -0.2723 -0.5818 -0.0396
    2POPC   C3B  516   4.621   0.754   7.808  0.0141  0.0399  0.2072
    2POPC   C4B  517   4.893   0.528   7.517  0.0499 -0.1165  0.0882
    3POPC   NC3  518   2.627   9.922   8.198 -0.0703 -0.2205  0.2663
    3POPC   PO4  519   2.996  10.201   8.408  0.2123  0.1980 -0.1520
    3POPC   GL1  520   3.091  10.187   8.096 -0.3390 -0.0561 -0.1615
    3POPC   GL2  521   3.444  10.091   8.092  0.0602 -0.1545  0.1855
    3POPC   C1A  522   3.161  10.171   7.684  0.1909 -0.0127 -0.1390
    3POPC   D2A  523   3.540  10.162   7.600 -0.1500 -0.0087 -0.1077
    3POPC   C3A  524   3.690  10.473   7.271  0.0242  0.3287  0.0349
    3POPC   C4A  525   3.959  10.477   6.930  0.1975 -0.5845 -0.0805
    3POPC   C1B  526   3.523  10.568   7.914  0.3153  0.1419 -0.2847
    3POPC   C2B  527   3.761  10.738   7.676  0.1252 -0.0933  0.2813
    3POPC   C3B  528   3.679  10.990   7.241 -0.3519 -0.0442 -0.0251
    3POPC   C4B  529   3.982  11.053   6.986 -0.3473 -0.0819  0.1918
    4POPC   NC3  530   2.897   2.157   8.768  0.0859  0.0861  0.1044
    4POPC   PO4  531   2.847   2.595   8.641 -0.2039 -0.2518 -0.0567
    4POPC   GL1  532   2.990   2.362   8.308  0.0500 -0.1883  0.1757
    4POPC   GL2  533   3.028   2.580   8.177  0.1895  0.1118  0.0693
    4POPC   C1A  534   3.122   2.049   8.045 -0.0713  0.0862 -0.0264
    4POPC   D2A  535   3.059   1.987   7.609 -0.2198  0.0530  0.0634
    4POPC   C3A  536   3.165   1.769   7.167 -0.0249  0.0590  0.0676
    4POPC   C4A  537   3.411   1.627   6.927 -0.2218 -0.0077 -0.0262
    4POPC   C1B  538   3.254   2.846   7.946  0.0509 -0.0352 -0.1654
    4POPC   C2B  539   3.350   3.060   7.620  0.0001  0.1084 -0.2254
    4POPC   C3B  540   3.531   2.930   7.146 -0.2172 -0.1591 -0.4067
    4POPC   C4B  541   3.795   2.778   6.912 -0.1655 -0.0327  0.2943
    5POPC   NC3  542   4.437   5.087   9.073  0.0032  0.0493  0.0795
    5POPC   PO4  543   4.871   4.997   9.019  0.0162  0.0769  0.1870
    5POPC   GL1  544   4.891   5.048   8.703 -0.2141 -0.3650 -0.1933
    5POPC   GL2  545   4.878   5.293   8.540  0.2903 -0.1047 -0.1755
    5POPC   C1A  546   5.011   4.924   8.271 -0.1002 -0.1161  0.0004
    5POPC   D2A  547   4.939   5.042   7.829  0.0380  0.0572  0.1225
    5POPC   C3A  548   4.747   4.776   7.542 -0.0597  0.0296 -0.0715
    5POPC   C4A  549   5.028   4.512   7.301 -0.0143 -0.2007 -0.1634
    5POPC   C1B  550   4.593   5.205   8.132  0.0258 -0.3118 -0.0948
    5POPC   C2B  551   4.425   5.223   7.603 -0.3102  0.0411  0.0471
    5POPC   C3B  552   4.501   5.002   7.228  0.2680  0.2120  0.4423
    5POPC   C4B  553   4.630   4.769   6.882 -0.0770  0.1887  0.1034
    6POPC   NC3  554   2.662   3.100   9.184  0.0185  0.1078  0.0929
    6POPC   PO4  555   2.858   3.187   8.747  0.0884 -0.1135  0.2705
    6POPC   GL1  556   2.793   3.040   8.290  0.3695  0.1465 -0.3071
    6POPC   GL2  557   2.538   2.689   8.243  0.1769  0.0487 -0.0744
    6POPC   C1A  558   2.988   3.342   7.926 -0.1437  0.4507 -0.0015
    6POPC   D2A  559   2.902   3.581   7.463 -0.1899 -0.2126  0.0115
    6POPC   C3A  560   3.050   3.252   7.123 -0.0910 -0.0548 -0.0755
    6POPC   C4A  561   3.327   3.234   6.779 -0.2374  0.1121  0.1333
    6POPC   C1B  562   2.788   2.808   7.792  0.1979 -0.2039  0.4861
    6POPC   C2B  563   2.657   3.069   7.358  0.0106 -0.1036 -0.1539
    6POPC   C3B  564   2.687   3.040   6.849  0.2425  0.0880  0.0221
    6POPC   C4B  565   3.021   2.884   6.498 -0.2789  0.0725  0.1117
    7POPC   NC3  566   9.710   5.655   9.088 -0.1149  0.2314  0.0410
    7POPC   PO4  567   9.438   5.483   9.293  0.3228 -0.0910  0.0891
    7POPC   GL1  568   9.455   5.299   8.832 -0.1106  0.0720 -0.1044
    7POPC   GL2  569   9.262   5.583   8.773 -0.1824 -0.1702 -0.1227
    7POPC   C1A  570   9.654   5.204   8.349 -0.0419  0.0306  0.2188
    7POPC   D2A  571   9.764   5.079   7.923  0.0228 -0.1769 -0.0120
    7POPC   C3A  572   9.511   5.309   7.582 -0.1973 -0.0690 -0.1441
    7POPC   C4A  573   9.672   5.545   7.289 -0.1133  0.1623  0.4917
    7POPC   C1B  574   9.364   5.591   8.324  0.0652  0.0931  0.1524
    7POPC   C2B  575   9.427   5.606   7.962  0.1777 -0.0421 -0.0740
    7POPC   C3B  576   9.119   5.719   7.675 -0.0168 -0.0340 -0.0511
    7POPC   C4B  577   9.141   5.643   7.222  0.1015 -0.0963 -0.3481
    8POPC   NC3  578   4.253   7.182   8.774 -0.0473  0.4226 -0.0975
    8POPC   PO4  579   4.166   7.642   8.720 -0.0782  0.3098 -0.1238
    8POPC   GL1  580   4.392   7.860   8.414  0.0934 -0.0074  0.1495
    8POPC   GL2  581   4.263   7.800   8.186  0.0028 -0.1932 -0.0831
    8POPC   C1A  582   4.682   8.145   8.271 -0.1533  0.1961  0.2505
    8POPC   D2A  583   4.705   8.477   7.876  0.3992 -0.2695 -0.0655
    8POPC   C3A  584   4.552   8.714   7.733  0.1204  0.2973 -0.1013
    8POPC   C4A  585   4.281   9.113   7.541  0.0338 -0.0038  0.0629
    8POPC   C1B  586   4.562   7.942   7.796 -0.3233  0.3342 -0.2368
    8POPC   C2B  587   4.634   8.173   7.403  0.2487 -0.0693  0.0171
    8POPC   C3B  588   4.697   8.364   6.981  0.0444 -0.3587  0.1624
    8POPC   C4B  589   4.774   8.518   6.515  0.1953 -0.3081 -0.1174
    9POPC   NC3  590   7.380   1.892   9.498  0.0978 -0.1996  0.0865
    9POPC   PO4  591   7.021   1.742   9.582  0.0202 -0.1249  0.1202
    9POPC   GL1  592   7.061   1.418   9.408 -0.0131  0.1308  0.1615
    9POPC   GL2  593   7.009   1.550   8.978  0.1083 -0.1653  0.2522
    9POPC   C1A  594   7.181   1.104   9.094 -0.1790  0.2506 -0.0127
    9POPC   D2A  595   7.303   0.965   8.707 -0.2315 -0.0064  0.3729
    9POPC   C3A  596   7.209   0.731   8.335 -0.1895 -0.1781 -0.0898
    9POPC   C4A  597   7.172   0.325   8.288 -0.2399 -0.3788  0.3661
    9POPC   C1B  598   6.854   1.330   8.754  0.0278  0.0689 -0.3638
    9POPC   C2B  599   6.757   1.307   8.367 -0.2502  0.0661 -0.1214
    9POPC   C3B  600   6.767   0.907   8.086 -0.2017  0.0503 -0.0959
    9POPC   C4B  601   6.898   0.488   7.932  0.1669 -0.0440  0.0468
   10POPC   NC3  602   3.866   8.118   8.675  0.0052  0.1494 -0.1643
   10POPC   PO4  603   3.480   8.171   8.618 -0.1408 -0.0288 -0.1831
   10POPC   GL1  604   3.687   8.139   8.195  0.0979  0.0777  0.0258
   10POPC   GL2  605   3.680   8.419   7.956  0.0101 -0.0147 -0.3514
   10POPC   C1A  606   3.663   7.985   7.711  0.0877 -0.1874 -0.3852
   10POPC   D2A  607   3.650   8.273   7.443  0.1662  0.1626 -0.1499
   10POPC   C3A  608   3.987   8.157   7.178 -0.1630  0.0895  0.0187
   10POPC   C4A  609   4.238   7.865   7.304 -0.0145 -0.3911  0.0539
   10POPC   C1B  610   3.416   8.661   7.722 -0.3701 -0.0071 -0.1601
   10POPC   C2B  611   3.520   8.767   7.350 -0.2604 -0.3606  0.1826
   10POPC   C3B  612   3.478   8.411   6.928  0.3286 -0.2308 -0.4154
   10POPC   C4B  613   3.823   8.335   6.578 -0.1029 -0.1798  0.1630
   11POPC   NC3  614   0.376   8.272   8.740 -0.4430 -0.1364  0.2352
   11POPC   PO4  615   0.650   8.263   8.420 -0.1971 -0.0969  0.0643
   11POPC   GL1  616   0.749   8.548   8.040 -0.1245 -0.2020 -0.1857
   11POPC   GL2  617   0.821   8.232   7.910 -0.3535  0.4238  0.0457
   11POPC   C1A  618   0.683   8.780   7.561  0.1306 -0.1056  0.1301
   11POPC   D2A  619   0.459   8.959   7.194  0.0305 -0.0515  0.0653
   11POPC   C3A  620   0.463   8.865   6.764 -0.1388  0.2532 -0.1390
   11POPC   C4A  621   0.419   8.486   6.450  0.2724  0.1530  0.0084
   11POPC   C1B  622   0.717   8.198   7.469  0.0270 -0.1280 -0.1180
   11POPC   C2B  623   0.357   8.006   7.249  0.0363  0.0721 -0.3672
   11POPC   C3B  624  -0.111   7.904   7.112 -0.0022  0.1400  0.0490
   11POPC   C4B  625  -0.204   7.929   6.654 -0.0233 -0.0715  0.3729
   12POPC   NC3  626   1.670   2.512   8.886  0.0215 -0.2599  0.0434
   12POPC   PO4  627   1.304   2.201   8.784  0.0305 -0.6352 -0.0176
   12POPC   GL1  628   1.112   2.136   8.382 -0.3174  0.3884 -0.0251
   12POPC   GL2  629   1.159   2.401   8.288  0.0946 -0.3843  0.0555
   12POPC   C1A  630   1.200   2.069   7.960  0.3012  0.2507  0.1120
   12POPC   D2A  631   1.255   2.229   7.496  0.1656 -0.1768 -0.2587
   12POPC   C3A  632   1.061   2.013   7.169  0.0815  0.1354 -0.0764
   12POPC   C4A  633   0.918   1.680   7.214  0.2890 -0.2083  0.0591
   12POPC   C1B  634   1.261   2.621   7.896  0.2982  0.0435 -0.3612
   12POPC   C2B  635   1.428   2.768   7.502 -0.0127 -0.1327  0.2044
   12POPC   C3B  636   1.863   2.718   7.422  0.1091 -0.0996 -0.1830
   12POPC   C4B  637   2.388   2.666   7.389 -0.4009  0.1347 -0.4399
   13POPC   NC3  638   0.604   3.578   9.059 -0.1866 -0.1826  0.3388
   13POPC   PO4  639   0.575   3.520   8.706 -0.0855 -0.0606 -0.1485
   13POPC   GL1  640   0.517   3.644   8.319  0.0813 -0.0149 -0.0461
   13POPC   GL2  641   0.161   3.731   8.324 -0.2926  0.1779 -0.0597
   13POPC   C1A  642   0.619   3.671   7.954  0.2226  0.1407 -0.1460
   13POPC   D2A  643   1.072   3.751   7.929 -0.3670 -0.1106  0.0517
   13POPC   C3A  644   1.242   3.912   7.536  0.1132 -0.1477 -0.2072
   13POPC   C4A  645   1.551   3.660   7.269 -0.0315 -0.2530 -0.1841
   13POPC   C1B  646  -0.114   3.572   8.073  0.0076 -0.0404  0.1973
   13POPC   C2B  647  -0.243   3.315   7.727  0.0951 -0.1443  0.3155
   13POPC   C3B  648   0.092   3.214   7.469  0.3810 -0.2794 -0.0706
   13POPC   C4B  649   0.499   3.447   7.373  0.0912 -0.0531 -0.0620
   14POPC   NC3  650   7.077   2.438   9.050  0.0752 -0.1213  0.1010
   14POPC   PO4  651   7.328   2.089   9.066 -0.0444 -0.1198 -0.2973
   14POPC   GL1  652   7.168   2.042   8.776 -0.1768  0.2045  0.1347
   14POPC   GL2  653   6.863   2.022   8.730 -0.0934 -0.0606 -0.2051
   14POPC   C1A  654   7.088   1.658   8.456 -0.0912  0.0223  0.1734
   14POPC   D2A  655   7.287   1.206   8.226  0.2789  0.1756  0.1170
   14POPC   C3A  656   7.479   1.282   7.853  0.0851  0.0239  0.0960
   14POPC   C4A  657   7.543   1.186   7.429 -0.3914  0.1015 -0.0524
   14POPC   C1B  658   6.779   2.341   8.475 -0.1827 -0.0730 -0.0150
   14POPC   C2B  659   6.879   2.529   8.081  0.1014 -0.3012 -0.3145
   14POPC   C3B  660   6.749   2.515   7.687  0.1527  0.1611 -0.3737
   14POPC   C4B  661   6.520   2.483   7.265 -0.2116 -0.0731 -0.0696
   15POPC   NC3  662   3.260   5.680   8.833  0.0647  0.0596  0.2047
   15POPC   PO4  663   2.995   5.245   9.001  0.1870 -0.2960 -0.0184
   15POPC   GL1  664   3.216   4.974   8.652  0.3457  0.1634 -0.1280
   15POPC   GL2  665   3.423   5.209   8.534 -0.0181  0.0067 -0.0849
   15POPC   C1A  666   3.174   4.754   8.318 -0.0304 -0.0499  0.1235
   15POPC   D2A  667   3.009   4.828   7.851  0.0950  0.3241  0.1476
   15POPC   C3A  668   2.837   4.819   7.478  0.1544  0.0957  0.0739
   15POPC   C4A  669   2.472   4.628   7.169  0.0655  0.0950 -0.1157
   15POPC   C1B  670   3.315   5.240   8.158 -0.5945 -0.0145 -0.2647
   15POPC   C2B  671   2.999   5.443   7.891  0.1948  0.0384  0.1466
   15POPC   C3B  672   2.639   5.629   7.851 -0.0806  0.0537 -0.0114
   15POPC   C4B  673   2.349   5.585   7.499  0.1440  0.0571 -0.1857
   16POPC   NC3  674   1.135   8.111   8.317 -0.0410  0.1553  0.1142
   16POPC   PO4  675   1.113   8.511   8.392  0.3431 -0.1291 -0.2112
   16POPC   GL1  676   1.230   8.505   7.962 -0.2541  0.1046 -0.3272
   16POPC   GL2  677   1.482   8.271   7.809  0.0049 -0.1747 -0.1449
   16POPC   C1A  678   1.148   8.528   7.552  0.1326  0.1877 -0.0864
   16POPC   D2A  679   1.311   8.556   7.161 -0.1514 -0.0423  0.0084
   16POPC   C3A  680   1.293   8.201   6.953 -0.2365 -0.0044  0.3073
   16POPC   C4A  681   1.171   7.943   6.620 -0.0024 -0.2714 -0.0805
   16POPC   C1B  682   1.228   8.057   7.596  0.0936  0.5438  0.2349
   16POPC   C2B  683   1.198   7.822   7.351 -0.0220 -0.2562 -0.0393
   16POPC   C3B  684   1.240   7.554   7.006  0.0265  0.0225 -0.1496
   16POPC   C4B  685   1.166   7.404   6.687 -0.2426 -0.1170 -0.0442
   17POPC   NC3  686   8.331   3.285   9.328  0.0753  0.3678  0.2580
   17POPC   PO4  687   8.228   3.332   8.926  0.1331 -0.3839 -0.3454
   17POPC   GL1  688   8.413   3.323   8.559 -0.0224  0.0074  0.2695
   17POPC   GL2  689   8.261   3.099   8.417  0.0106 -0.3918  0.1084
   17POPC   C1A  690   8.527   3.421   8.134  0.2604 -0.0052 -0.0021
   17POPC   D2A  691   8.207   3.555   7.870  0.1049  0.1299 -0.0922
   17POPC   C3A  692   7.979   3.624   7.488 -0.0657 -0.2342 -0.1330
   17POPC   C4A  693   7.654   3.877   7.156 -0.1203  0.2059 -0.0413
   17POPC   C1B  694   8.223   3.028   7.981  0.3568 -0.0316 -0.0954
   17POPC   C2B  695   8.301   3.172   7.587 -0.2566 -0.1205  0.1684
   17POPC   C3B  696   8.672   2.932   7.297 -0.3683 -0.2886  0.1899
   17POPC   C4B  697   9.040   2.671   7.108  0.0189  0.0834  0.0771
   18POPC   NC3  698   9.315   2.514   8.797 -0.4002  0.4865  0.3365
   18POPC   PO4  699   9.144   2.078   8.929  0.1072  0.0344  0.1340
   18POPC   GL1  700   9.181   2.105   8.578 -0.1862  0.0990  0.1360
   18POPC   GL2  701   8.956   2.346   8.487  0.1996  0.0922 -0.2532
   18POPC   C1A  702   9.295   2.203   8.080  0.0089  0.1679  0.1041
   18POPC   D2A  703   9.563   2.335   7.709 -0.2930 -0.1729  0.1170
   18POPC   C3A  704   9.892   2.575   7.660  0.1038  0.1444 -0.0533
   18POPC   C4A  705   9.965   2.936   7.426 -0.3915 -0.1859  0.1327
   18POPC   C1B  706   8.749   2.035   8.246  0.1111  0.0782  0.0991
   18POPC   C2B  707   8.956   1.867   7.856 -0.2066 -0.0477 -0.2630
   18POPC   C3B  708   8.993   1.479   7.645 -0.1476  0.4189 -0.0571
   18POPC   C4B  709   8.588   1.303   7.503 -0.1613  0.0973 -0.0342
   19POPC   NC3  710   5.300   7.218   9.438 -0.0369 -0.2488 -0.0581
   19POPC   PO4  711   5.080   7.360   9.038 -0.1661 -0.2116  0.0645
   19POPC   GL1  712   5.128   7.404   8.574 -0.0173 -0.1384  0.1307
   19POPC   GL2  713   5.041   7.772   8.530 -0.1780  0.2122  0.2504
   19POPC   C1A  714   5.266   7.403   8.174 -0.1488  0.2469 -0.0676
   19POPC   D2A  715   5.402   7.660   7.683  0.1170 -0.1139  0.0048
   19POPC   C3A  716   5.233   8.025   7.368 -0.3237  0.0765 -0.0902
   19POPC   C4A  717   5.075   8.016   6.943  0.0512 -0.1206  0.2145
   19POPC   C1B  718   5.130   7.886   8.087  0.0327 -0.3539  0.2335
   19POPC   C2B  719   5.050   8.180   7.770  0.0051  0.1494  0.0108
   19POPC   C3B  720   5.031   8.585   7.404 -0.3259  0.1165 -0.0672
   19POPC   C4B  721   5.028   8.726   7.029  0.1098 -0.1100 -0.0475
   20POPC   NC3  722   3.250   3.670   8.870 -0.1319  0.0381  0.1086
   20POPC   PO4  723   3.741   3.768   8.902 -0.0328 -0.0240  0.3024
   20POPC   GL1  724   3.564   3.804   8.529 -0.0458 -0.0124 -0.0777
   20POPC   GL2  725   3.523   4.130   8.312 -0.0138 -0.0095 -0.0722
   20POPC   C1A  726   3.774   3.836   8.062 -0.2187  0.4882 -0.1086
   20POPC   D2A  727   4.069   3.963   7.589 -0.0637  0.0410  0.0456
   20POPC   C3A  728   3.939   3.908   7.198  0.1415 -0.0163  0.0940
   20POPC   C4A  729   4.021   3.835   6.772 -0.1142 -0.0756 -0.0838
   20POPC   C1B  730   3.342   4.376   8.009 -0.0302 -0.0515  0.0382
   20POPC   C2B  731   3.330   4.548   7.598 -0.0412  0.2880  0.2274
   20POPC   C3B  732   3.464   4.785   7.235 -0.0843  0.0708  0.2306
   20POPC   C4B  733   3.704   4.806   6.894  0.0174 -0.0417  0.0480
   21POPC   NC3  734   9.459   0.427   9.312 -0.3889  0.1828  0.1355
   21POPC   PO4  735   9.863   0.698   9.271  0.1215  0.2122 -0.1335
   21POPC   GL1  736   9.728   0.538   8.830  0.3865 -0.3823  0.2215
   21POPC   GL2  737   9.614   0.702   8.488  0.0522 -0.0812 -0.0350
   21POPC   C1A  738   9.659   0.196   8.588 -0.4738  0.2199  0.2431
   21POPC   D2A  739   9.293  -0.030   8.350  0.0239  0.2303  0.0770
   21POPC   C3A  740   9.217   0.027   7.994  0.0638 -0.0350 -0.0312
   21POPC   C4A  741   9.262   0.241   7.522 -0.0381 -0.5454  0.0496
   21POPC   C1B  742   9.488   1.034   8.069  0.0428  0.1810 -0.0763
   21POPC   C2B  743   9.379   1.182   7.636  0.0905  0.0001  0.2025
   21POPC   C3B  744   9.015   1.211   7.221  0.2815 -0.2915  0.3521
   21POPC   C4B  745   8.767   0.930   7.080 -0.3509  0.2536  0.2702
   22POPC   NC3  746   5.832   0.050   9.621  0.0405  0.1715  0.1137
   22POPC   PO4  747   6.174   0.455   9.591  0.3566 -0.0023  0.0415
   22POPC   GL1  748   5.935   0.402   9.171 -0.1060 -0.1374 -0.1032
   22POPC   GL2  749   6.182   0.638   9.044  0.0193  0.3155  0.0484
   22POPC   C1A  750   5.940   0.140   8.827  0.0715  0.1849 -0.2217
   22POPC   D2A  751   5.760  -0.124   8.520 -0.1248 -0.2792  0.0395
   22POPC   C3A  752   5.769  -0.519   8.341  0.3325  0.0075  0.3172
   22POPC   C4A  753   5.557  -0.749   7.978 -0.0892 -0.2854  0.0867
   22POPC   C1B  754   6.247   0.587   8.633 -0.1424  0.3548  0.2089
   22POPC   C2B  755   6.306   0.620   8.078 -0.1606 -0.1801 -0.2642
   22POPC   C3B  756   6.469   0.564   7.629 -0.0788 -0.1443 -0.2909
   22POPC   C4B  757   6.452   0.234   7.342 -0.1535 -0.3873 -0.3021
   23POPC   NC3  758   8.980   6.308   9.497  0.1041  0.2231  0.3319
   23POPC   PO4  759   9.044   6.667   9.457 -0.0307  0.3977 -0.0445
   23POPC   GL1  760   9.246   6.502   9.103  0.0899 -0.2776 -0.0032
   23POPC   GL2  761   9.118   6.463   8.853  0.1983  0.2600  0.0833
   23POPC   C1A  762   9.546   6.727   8.694 -0.1029 -0.1031 -0.0274
   23POPC   D2A  763   9.544   6.931   8.301  0.0869 -0.2796 -0.1980
   23POPC   C3A  764   9.316   6.802   7.948 -0.2192 -0.0322  0.1296
   23POPC   C4A  765   9.436   6.869   7.553  0.0148  0.4266  0.1129
   23POPC   C1B  766   8.806   6.459   8.651 -0.1813  0.0158  0.0718
   23POPC   C2B  767   8.716   6.300   8.291 -0.1727  0.0799  0.0845
   23POPC   C3B  768   8.563   6.385   7.948  0.0512  0.1467 -0.3379
   23POPC   C4B  769   8.366   6.083   7.649  0.3409  0.0289 -0.1185
   24POPC   NC3  770   2.405   8.925   8.280  0.0749 -0.1324  0.0016
   24POPC   PO4  771   2.028   9.325   8.248 -0.0404 -0.0862 -0.0150
   24POPC   GL1  772   2.099   9.028   7.899  0.0373 -0.0259  0.1344
   24POPC   GL2  773   2.395   9.270   7.793 -0.1196  0.1571 -0.0512
   24POPC   C1A  774   2.442   8.912   7.459 -0.4070  0.2029 -0.2418
   24POPC   D2A  775   2.601   9.045   7.077 -0.2118 -0.3384  0.0861
   24POPC   C3A  776   2.564   8.843   6.730 -0.1164 -0.1289  0.1146
   24POPC   C4A  777   2.862   8.856   6.312  0.0154  0.0904  0.1930
   24POPC   C1B  778   2.377   9.437   7.406 -0.0113 -0.1427  0.2366
   24POPC   C2B  779   2.597   9.596   7.046  0.1011 -0.0558 -0.0597
   24POPC   C3B  780   2.816   9.791   6.760  0.4322 -0.1421  0.0846
   24POPC   C4B  781   2.883   9.702   6.301 -0.0672 -0.0409 -0.5564
   25POPC   NC3  782   0.157   5.674   9.199 -0.0696 -0.0727  0.1375
   25POPC   PO4  783  -0.188   5.902   9.265  0.1547 -0.3361 -0.1506
   25POPC   GL1  784  -0.221   5.804   8.859  0.2730  0.1047 -0.0867
   25POPC   GL2  785  -0.260   6.158   8.713 -0.2013 -0.3686 -0.0909
   25POPC   C1A  786  -0.359   5.833   8.382 -0.2047 -0.0278  0.3491
   25POPC   D2A  787  -0.284   6.229   7.972  0.1001 -0.0055 -0.0219
   25POPC   C3A  788   0.102   6.141   7.740 -0.2033  0.2685  0.0167
   25POPC   C4A  789   0.239   6.192   7.294 -0.3312  0.2465  0.1427
   25POPC   C1B  790   0.009   6.196   8.385  0.2624  0.1501 -0.2190
   25POPC   C2B  791   0.413   6.056   8.298  0.1158 -0.0085 -0.0140
   25POPC   C3B  792   0.536   5.629   8.169 -0.2162  0.3751 -0.0981
   25POPC   C4B  793   0.476   5.454   7.783  0.1494 -0.2603 -0.0019
   26POPC   NC3  794   8.183   5.749   9.439 -0.1272  0.1436 -0.2292
   26POPC   PO4  795   7.764   5.856   9.281  0.1920  0.0051  0.0107
   26POPC   GL1  796   7.888   5.843   8.870 -0.0593 -0.0555 -0.0191
   26POPC   GL2  797   7.534   5.928   8.825 -0.1290  0.1518 -0.0427
   26POPC   C1A  798   7.947   5.828   8.408 -0.1509  0.0019 -0.0400
   26POPC   D2A  799   8.220   6.084   8.140  0.1973  0.3395 -0.1637
   26POPC   C3A  800   8.646   5.866   8.007  0.1456 -0.1017 -0.1565
   26POPC   C4A  801   9.024   5.858   8.138 -0.2604 -0.3237  0.0905
   26POPC   C1B  802   7.255   6.026   8.592  0.0380 -0.4457 -0.4879
   26POPC   C2B  803   7.142   5.878   8.232 -0.1545 -0.0539  0.0579
   26POPC   C3B  804   7.175   5.648   7.758  0.0977  0.2602  0.2977
   26POPC   C4B  805   7.264   5.305   7.348  0.1439 -0.1614 -0.2860
   27POPC   NC3  806  10.004   0.984   8.845 -0.0936 -0.0227  0.1537
   27POPC   PO4  807  10.296   1.306   8.652  0.1499  0.2113 -0.0677
   27POPC   GL1  808  10.041   1.347   8.220  0.0108  0.0780 -0.2533
   27POPC   GL2  809  10.286   1.397   7.960  0.0244 -0.1106 -0.0508
   27POPC   C1A  810   9.842   1.217   7.772  0.4036 -0.0845 -0.2115
   27POPC   D2A  811   9.882   1.098   7.460  0.3324  0.1928  0.0110
   27POPC   C3A  812   9.567   1.076   7.162 -0.1196  0.3687 -0.2297
   27POPC   C4A  813   9.276   0.874   6.888  0.1122 -0.1137  0.0759
   27POPC   C1B  814  10.348   1.684   7.675 -0.2485  0.2705 -0.0515
   27POPC   C2B  815  10.289   1.720   7.249 -0.3679  0.1474  0.1645
   27POPC   C3B  816  10.420   1.709   6.764 -0.3521 -0.0857 -0.0599
   27POPC   C4B  817  10.293   1.803   6.315 -0.0452  0.1030 -0.2494
   28POPC   NC3  818   3.193   8.785   8.420  0.1491  0.3145 -0.4838
   28POPC   PO4  819   2.882   9.068   8.440  0.4031  0.0619 -0.0297
   28POPC   GL1  820   3.017   9.179   8.096 -0.1058  0.1695  0.1688
   28POPC   GL2  821   2.823   8.989   7.934 -0.2562  0.0747 -0.2959
   28POPC   C1A  822   3.327   9.144   7.734 -0.2214  0.1524  0.1216
   28POPC   D2A  823   3.696   9.266   7.504  0.4016  0.1188  0.2895
   28POPC   C3A  824   3.573   9.261   7.075 -0.0176  0.0856  0.3659
   28POPC   C4A  825   3.753   9.492   6.725 -0.2913  0.1621  0.2049
   28POPC   C1B  826   2.876   9.236   7.554  0.2530 -0.3191 -0.0228
   28POPC   C2B  827   3.056   9.454   7.258 -0.0110  0.0122  0.1325
   28POPC   C3B  828   3.269   9.614   6.852  0.0041  0.1275 -0.0367
   28POPC   C4B  829   3.363   9.843   6.438  0.1884 -0.1031 -0.0797
   29POPC   NC3  830   5.821   1.964   8.923  0.1954 -0.0336 -0.1546
   29POPC   PO4  831   6.024   1.679   9.165 -0.0334 -0.1881  0.0663
   29POPC   GL1  832   6.060   1.573   8.737  0.1490 -0.0431  0.1828
   29POPC   GL2  833   6.388   1.488   8.728 -0.0969  0.0444  0.1825
   29POPC   C1A  834   6.143   1.585   8.294 -0.0072 -0.1271  0.0280
   29POPC   D2A  835   6.447   1.714   7.889  0.1531 -0.0157 -0.0914
   29POPC   C3A  836   6.922   1.498   7.878  0.2330 -0.2552  0.2116
   29POPC   C4A  837   7.123   1.609   7.612 -0.1161  0.2387  0.0890
   29POPC   C1B  838   6.465   1.001   8.683 -0.4007  0.1283 -0.0398
   29POPC   C2B  839   6.804   0.703   8.545 -0.1071 -0.0234 -0.0110
   29POPC   C3B  840   6.666   0.365   8.423  0.0392 -0.3856  0.0510
   29POPC   C4B  841   6.390   0.115   8.502 -0.3646  0.0579  0.3518
   30POPC   NC3  842   7.165   4.445   9.136  0.0913  0.1495 -0.0705
   30POPC   PO4  843   7.483   4.284   8.886 -0.1153  0.0758  0.1050
   30POPC   GL1  844   7.496   4.521   8.529 -0.2157 -0.1496 -0.0113
   30POPC   GL2  845   7.166   4.651   8.655  0.1031 -0.2808 -0.1255
   30POPC   C1A  846   7.326   4.629   8.061  0.2891 -0.0387 -0.0759
   30POPC   D2A  847   7.099   4.459   7.790  0.1272 -0.1937  0.0431
   30POPC   C3A  848   6.924   4.427   7.467  0.1616  0.2743 -0.0407
   30POPC   C4A  849   6.521   4.352   7.226  0.0722 -0.0773 -0.0894
   30POPC   C1B  850   6.959   4.804   8.325 -0.0151  0.1660  0.0115
   30POPC   C2B  851   6.696   4.776   7.957 -0.3997  0.5306  0.2425
   30POPC   C3B  852   6.478   4.555   7.701 -0.0170 -0.3852 -0.1027
   30POPC   C4B  853   6.294   4.124   7.594  0.0635  0.2472  0.2583
   31POPC   NC3  854   6.201   5.381   8.967 -0.1547  0.1662  0.1780
   31POPC   PO4  855   5.794   5.575   8.899 -0.0549  0.2104  0.3491
   31POPC   GL1  856   6.046   5.496   8.528 -0.0233 -0.2455  0.1839
   31POPC   GL2  857   6.325   5.665   8.350  0.2551 -0.1128 -0.1122
   31POPC   C1A  858   6.082   5.191   8.207 -0.3509 -0.0956  0.0351
   31POPC   D2A  859   6.257   4.975   7.828 -0.0799 -0.2260 -0.0646
   31POPC   C3A  860   6.496   5.067   7.471  0.1831 -0.3884  0.0289
   31POPC   C4A  861   6.381   5.305   7.218 -0.1094  0.0759 -0.0209
   31POPC   C1B  862   6.127   5.723   7.967  0.1221  0.0467 -0.3820
   31POPC   C2B  863   6.363   5.591   7.656 -0.0440  0.1656  0.1998
   31POPC   C3B  864   6.361   5.784   7.223 -0.1196  0.1703 -0.1289
   31POPC   C4B  865   6.304   5.736   6.810  0.0666  0.0990 -0.0705
   32POPC   NC3  866   7.293   1.606   9.932 -0.0288  0.4509 -0.4368
   32POPC   PO4  867   7.753   1.609   9.780  0.2607  0.1311 -0.2135
   32POPC   GL1  868   7.779   1.539   9.307  0.1206 -0.0187 -0.1245
   32POPC   GL2  869   7.542   1.436   9.295  0.2449 -0.1572 -0.2070
   32POPC   C1A  870   7.853   1.464   8.918  0.0009 -0.1693  0.1257
   32POPC   D2A  871   8.305   1.373   8.820 -0.1960 -0.0891 -0.0442
   32POPC   C3A  872   8.538   1.596   8.407 -0.0122 -0.0201  0.1750
   32POPC   C4A  873   8.597   1.565   7.973 -0.0131 -0.1018 -0.1715
   32POPC   C1B  874   7.410   1.533   8.764 -0.1202  0.4703 -0.0420
   32POPC   C2B  875   7.585   1.702   8.461 -0.0737 -0.1832  0.2956
   32POPC   C3B  876   7.763   1.677   8.111 -0.0298  0.3582  0.0839
   32POPC   C4B  877   8.118   1.527   8.159  0.0328 -0.2518  0.2393
   33POPC   NC3  878   4.672   7.639   8.915 -0.1435  0.0884 -0.2314
   33POPC   PO4  879   4.651   7.491   8.602  0.2793  0.0969  0.1589
   33POPC   GL1  880   4.499   7.374   8.317  0.1345 -0.2584 -0.2336
   33POPC   GL2  881   4.816   7.320   8.182  0.0140  0.0121  0.3793
   33POPC   C1A  882   4.352   7.337   7.872  0.2645 -0.0098  0.0247
   33POPC   D2A  883   4.271   7.112   7.441 -0.0676  0.3321  0.1520
   33POPC   C3A  884   4.045   7.350   7.187 -0.2012  0.0318 -0.1811
   33POPC   C4A  885   3.763   7.710   7.136 -0.3086 -0.0415 -0.1088
   33POPC   C1B  886   4.946   7.566   7.767  0.2780 -0.1695  0.3753
   33POPC   C2B  887   4.851   7.740   7.229 -0.0874 -0.0266 -0.0031
   33POPC   C3B  888   4.524   7.947   6.868  0.0951 -0.2820 -0.1837
   33POPC   C4B  889   4.008   7.930   6.746 -0.1424 -0.0899 -0.0591
   34POPC   NC3  890   3.104   7.831   8.668 -0.0369 -0.2553  0.0901
   34POPC   PO4  891   2.864   7.435   8.751 -0.0039  0.1891 -0.1299
   34POPC   GL1  892   2.858   7.509   8.276  0.0817  0.0155 -0.0094
   34POPC   GL2  893   2.707   7.650   8.118  0.0729 -0.1096 -0.0184
   34POPC   C1A  894   3.035   7.265   7.922 -0.1087  0.1665  0.0176
   34POPC   D2A  895   3.419   7.137   7.926  0.0955  0.5385  0.1577
   34POPC   C3A  896   3.546   7.467   7.757 -0.3168  0.1449 -0.2739
   34POPC   C4A  897   3.930   7.610   7.581  0.1248  0.0067 -0.3503
   34POPC   C1B  898   2.919   7.797   7.772 -0.0069 -0.0548 -0.1282
   34POPC   C2B  899   2.761   8.105   7.504  0.2082  0.0492 -0.2935
   34POPC   C3B  900   2.722   8.406   7.106  0.0787  0.2625  0.0089
   34POPC   C4B  901   3.028   8.643   6.848  0.1543  0.2013 -0.2391
   35POPC   NC3  902   8.906   9.926  10.180 -0.0845  0.0581 -0.0537
   35POPC   PO4  903   9.174   9.724   9.926 -0.0638  0.1858 -0.3344
   35POPC   GL1  904   9.037   9.680   9.549 -0.2451 -0.3529 -0.2234
   35POPC   GL2  905   8.743   9.430   9.665  0.2525  0.1639 -0.1969
   35POPC   C1A  906   8.874   9.783   9.219 -0.2526  0.1234 -0.2176
   35POPC   D2A  907   8.748   9.884   8.809  0.2309  0.3363 -0.0999
   35POPC   C3A  908   8.690  10.198   8.538 -0.0952  0.0380 -0.0615
   35POPC   C4A  909   8.731  10.554   8.342  0.2171  0.2005 -0.4386
   35POPC   C1B  910   8.391   9.740   9.659  0.2810 -0.2302  0.0980
   35POPC   C2B  911   8.345   9.896   9.258  0.1623  0.1627  0.0096
   35POPC   C3B  912   8.291  10.103   8.863 -0.3302 -0.0866  0.0041
   35POPC   C4B  913   8.307  10.002   8.390 -0.1380 -0.1239  0.1456
   36POPC   NC3  914   0.739   8.808   8.490 -0.2681  0.2698  0.0436
   36POPC   PO4  915   0.649   9.289   8.564 -0.2561  0.2058  0.1861
   36POPC   GL1  916   0.580   9.133   8.071  0.2200 -0.0991  0.1894
   36POPC   GL2  917   0.659   9.282   7.695 -0.1923  0.1418  0.0767
   36POPC   C1A  918   0.273   8.967   7.789 -0.2317  0.3126 -0.3077
   36POPC   D2A  919   0.029   8.876   7.447  0.1666 -0.5020  0.1310
   36POPC   C3A  920  -0.435   8.819   7.295  0.1483 -0.1085  0.2533
   36POPC   C4A  921  -0.590   8.602   6.986 -0.0716 -0.0328 -0.1381
   36POPC   C1B  922   0.961   9.142   7.369 -0.0388  0.0106  0.1217
   36POPC   C2B  923   0.923   8.817   7.018 -0.0784  0.0273 -0.1617
   36POPC   C3B  924   0.965   8.595   6.630 -0.1060 -0.0459 -0.0505
   36POPC   C4B  925   0.826   8.237   6.466 -0.1576 -0.3739  0.1184
   37POPC   NC3  926   7.729   8.329  10.853  0.1141  0.2158 -0.0560
   37POPC   PO4  927   7.884   8.551  10.396  0.1163  0.0130 -0.0777
   37POPC   GL1  928   7.967   8.771   9.881 -0.3320 -0.2453 -0.0847
   37POPC   GL2  929   7.648   8.859   9.760  0.1144  0.0983 -0.2836
   37POPC   C1A  930   8.169   9.164   9.639  0.0219  0.2080  0.1667
   37POPC   D2A  931   8.117   9.208   9.220  0.1499 -0.0769  0.0273
   37POPC   C3A  932   8.331   9.023   8.946  0.0635  0.1216 -0.0162
   37POPC   C4A  933   8.221   8.663   8.600  0.0866 -0.0462  0.0646
   37POPC   C1B  934   7.839   8.776   9.304 -0.2717 -0.1122 -0.0654
   37POPC   C2B  935   7.870   8.983   8.863 -0.1384  0.1231 -0.0427
   37POPC   C3B  936   8.095   9.255   8.588 -0.0573  0.1357 -0.4842
   37POPC   C4B  937   8.469   9.527   8.504  0.0655  0.0993 -0.1559
   38POPC   NC3  938   5.363   4.861   8.945 -0.0838 -0.0644  0.1023
   38POPC   PO4  939   5.799   5.010   8.862 -0.3747 -0.0384  0.0042
   38POPC   GL1  940   5.598   5.189   8.433 -0.4559 -0.3139 -0.1853
   38POPC   GL2  941   5.385   5.241   8.560  0.3002  0.2147 -0.1199
   38POPC   C1A  942   5.465   5.033   8.033 -0.0874  0.0053  0.0330
   38POPC   D2A  943   5.351   4.812   7.660  0.2693  0.6224 -0.0267
   38POPC   C3A  944   5.562   4.555   7.311  0.0226  0.1713 -0.0259
   38POPC   C4A  945   5.349   4.619   6.900 -0.0942 -0.0084 -0.3812
   38POPC   C1B  946   5.180   5.419   8.155 -0.0165 -0.2812  0.4914
   38POPC   C2B  947   5.232   5.682   7.931  0.4593 -0.3307 -0.1029
   38POPC   C3B  948   5.493   5.858   7.686 -0.1573 -0.0414  0.0089
   38POPC   C4B  949   5.883   5.759   7.467 -0.0823 -0.0466 -0.1897
   39POPC   NC3  950   8.942   5.545   9.240  0.0122 -0.1420  0.1533
   39POPC   PO4  951   9.083   5.092   9.094 -0.2145  0.0783  0.2527
   39POPC   GL1  952   8.866   5.068   8.835  0.0626 -0.0034  0.1956
   39POPC   GL2  953   8.765   5.387   8.734 -0.0982  0.2106  0.0495
   39POPC   C1A  954   8.669   5.048   8.295  0.1306  0.0091  0.0618
   39POPC   D2A  955   8.383   4.666   8.240 -0.0988 -0.1039  0.0061
   39POPC   C3A  956   8.203   4.530   7.839  0.4326 -0.1615 -0.2693
   39POPC   C4A  957   8.380   4.480   7.460 -0.1144  0.0918  0.0149
   39POPC   C1B  958   8.869   5.498   8.369  0.1780  0.3082 -0.1565
   39POPC   C2B  959   8.779   5.362   7.920 -0.0104  0.0182 -0.0006
   39POPC   C3B  960   8.793   4.895   7.844  0.0923 -0.2158 -0.2391
   39POPC   C4B  961   8.705   4.500   7.816 -0.0185  0.0311 -0.1683
   40POPC   NC3  962   4.166   4.053   8.911  0.2212 -0.0030  0.0352
   40POPC   PO4  963   3.801   4.261   8.793  0.0936 -0.0948  0.0219
   40POPC   GL1  964   3.901   4.476   8.474  0.0192 -0.1621  0.4722
   40POPC   GL2  965   3.726   4.737   8.424  0.0490  0.0864  0.1372
   40POPC   C1A  966   3.854   4.469   8.026  0.2082 -0.0674 -0.1973
   40POPC   D2A  967   3.737   4.222   7.729  0.3133  0.1769  0.1233
   40POPC   C3A  968   3.785   4.374   7.326 -0.0783 -0.2725 -0.1861
   40POPC   C4A  969   3.489   4.336   7.016 -0.3119 -0.0386  0.2602
   40POPC   C1B  970   3.564   4.818   7.945 -0.2023 -0.1063  0.0936
   40POPC   C2B  971   3.771   5.045   7.554 -0.0201 -0.1632  0.0317
   40POPC   C3B  972   4.052   5.166   7.276 -0.1150 -0.0265 -0.1063
   40POPC   C4B  973   3.995   5.333   6.805 -0.1840  0.2495 -0.1821
   41POPC   NC3  974   8.027   2.496   9.415  0.0991  0.1801 -0.0386
   41POPC   PO4  975   8.025   2.419   8.933 -0.4209  0.1925  0.0243
   41POPC   GL1  976   7.941   2.596   8.579  0.2058  0.2330  0.0519
   41POPC   GL2  977   7.745   2.947   8.612  0.1348  0.0405  0.0850
   41POPC   C1A  978   7.776   2.367   8.278  0.0006 -0.0560  0.0046
   41POPC   D2A  979   7.695   2.169   7.960  0.2507  0.2043 -0.0508
   41POPC   C3A  980   7.754   2.211   7.526 -0.0854  0.3482 -0.1199
   41POPC   C4A  981   7.952   2.378   7.201  0.0118 -0.0687  0.1840
   41POPC   C1B  982   7.620   2.870   8.277 -0.2333 -0.1655  0.2488
   41POPC   C2B  983   7.385   2.612   8.025  0.0590  0.1784 -0.3273
   41POPC   C3B  984   7.256   2.370   7.715  0.2804 -0.0909  0.1131
   41POPC   C4B  985   7.258   2.065   7.450  0.3360  0.0646  0.1047
   42POPC   NC3  986   6.172   2.156   9.318  0.1955 -0.1112  0.2122
   42POPC   PO4  987   5.912   2.436   8.955 -0.1711  0.1584  0.0202
   42POPC   GL1  988   6.005   2.666   8.582 -0.0650  0.0249  0.0965
   42POPC   GL2  989   6.351   2.524   8.543 -0.2546 -0.2745  0.0499
   42POPC   C1A  990   6.016   2.972   8.198  0.3814  0.2222  0.0250
   42POPC   D2A  991   6.062   3.226   7.817  0.0472 -0.0879  0.3439
   42POPC   C3A  992   6.270   3.373   7.410  0.3665 -0.0010  0.0653
   42POPC   C4A  993   6.086   3.675   7.147 -0.0407  0.4537 -0.1099
   42POPC   C1B  994   6.477   2.762   8.196  0.1696 -0.1146  0.0325
   42POPC   C2B  995   6.493   3.123   8.020 -0.1497  0.0791  0.1088
   42POPC   C3B  996   6.495   3.588   7.801  0.0592  0.1057  0.2110
   42POPC   C4B  997   6.642   3.827   7.370  0.2336 -0.4010  0.0855
   43POPC   NC3  998   1.130   5.282   9.265  0.1326 -0.0799 -0.0957
   43POPC   PO4  999   1.433   5.042   8.996  0.0328 -0.3420 -0.2066
   43POPC   GL1 1000   1.296   5.351   8.686  0.0832  0.1860  0.1245
   43POPC   GL2 1001   1.134   5.657   8.848  0.0097  0.0632 -0.3434
   43POPC   C1A 1002   0.933   5.461   8.381  0.2473 -0.1533  0.0361
   43POPC   D2A 1003   0.809   5.161   8.037  0.5623 -0.0171 -0.2934
   43POPC   C3A 1004   0.967   5.157   7.661 -0.0611 -0.1530  0.0921
   43POPC   C4A 1005   0.667   5.155   7.261 -0.3428 -0.1132 -0.3722
   43POPC   C1B 1006   1.396   5.749   8.458  0.0779 -0.1901  0.2141
   43POPC   C2B 1007   1.468   5.928   8.071  0.3409  0.0823  0.1758
   43POPC   C3B 1008   1.309   6.056   7.567 -0.1158 -0.0282 -0.1385
   43POPC   C4B 1009   0.852   6.004   7.250  0.0328 -0.1728  0.2554
   44POPC   NC3 1010   7.724   8.376   9.921 -0.0285 -0.0115 -0.3238
   44POPC   PO4 1011   7.638   8.234   9.535  0.2223 -0.2403 -0.0931
   44POPC   GL1 1012   7.578   8.144   9.097 -0.2479 -0.1571  0.1960
   44POPC   GL2 1013   7.287   8.378   9.113 -0.0127  0.0793 -0.2020
   44POPC   C1A 1014   7.377   8.120   8.714 -0.0631  0.0695  0.0789
   44POPC   D2A 1015   7.241   8.265   8.300 -0.2166  0.0319 -0.0722
   44POPC   C3A 1016   6.805   8.451   8.202 -0.0643  0.0743  0.1293
   44POPC   C4A 1017   6.532   8.457   7.757  0.2598  0.1650 -0.0594
   44POPC   C1B 1018   7.445   8.815   8.992 -0.0265 -0.0436  0.1401
   44POPC   C2B 1019   7.434   9.155   8.710 -0.1690 -0.0629  0.0983
   44POPC   C3B 1020   7.539   9.190   8.382  0.2683 -0.0432 -0.2356
   44POPC   C4B 1021   7.921   8.916   8.261 -0.0225 -0.1633 -0.0183
   45POPC   NC3 1022   2.900   9.434   8.817  0.2142 -0.1116 -0.2129
   45POPC   PO4 1023   3.067   9.608   8.374  0.1916  0.6091 -0.1487
   45POPC   GL1 1024   3.285   9.645   7.998  0.1812  0.1180 -0.0364
   45POPC   GL2 1025   3.529   9.446   8.043 -0.2787  0.2023  0.2666
   45POPC   C1A 1026   3.360   9.712   7.517  0.2730 -0.0843 -0.2080
   45POPC   D2A 1027   3.688   9.709   7.235  0.2575  0.0659 -0.0646
   45POPC   C3A 1028   3.926  10.035   7.222  0.1092  0.1183 -0.1375
   45POPC   C4A 1029   4.253  10.039   6.971 -0.1220 -0.1958  0.0098
   45POPC   C1B 1030   3.991   9.310   7.977 -0.0417 -0.5337  0.0264
   45POPC   C2B 1031   4.452   9.459   7.816 -0.1679  0.0608  0.0545
   45POPC   C3B 1032   4.673   9.542   7.549  0.3322 -0.1416  0.4851
   45POPC   C4B 1033   4.678   9.725   7.175  0.1995  0.0665 -0.0381
   46POPC   NC3 1034   9.984   1.957   9.078  0.0401 -0.1704  0.1605
   46POPC   PO4 1035   9.633   2.077   8.801  0.1941  0.0289  0.1631
   46POPC   GL1 1036   9.572   1.795   8.276  0.0985  0.0947  0.2097
   46POPC   GL2 1037   9.528   1.492   8.187 -0.1651 -0.1120 -0.2093
   46POPC   C1A 1038   9.414   1.764   7.837 -0.1162  0.3556 -0.0376
   46POPC   D2A 1039   9.399   1.909   7.483 -0.0033  0.2552 -0.1639
   46POPC   C3A 1040   9.515   2.050   6.978  0.1984 -0.1731  0.0953
   46POPC   C4A 1041   9.487   2.105   6.475  0.1735  0.0753 -0.0278
   46POPC   C1B 1042   9.146   1.394   8.118  0.3959  0.0663 -0.0981
   46POPC   C2B 1043   8.977   1.021   7.885  0.1588 -0.1861 -0.0621
   46POPC   C3B 1044   8.705   0.800   7.676 -0.2414 -0.0440  0.2468
   46POPC   C4B 1045   8.361   0.555   7.665  0.1629  0.4535  0.0051
   47POPC   NC3 1046   2.129   8.017   8.448 -0.0169  0.0194  0.1208
   47POPC   PO4 1047   2.612   8.007   8.466 -0.1546  0.1656 -0.0313
   47POPC   GL1 1048   2.890   8.131   8.179  0.4187  0.0691 -0.1626
   47POPC   GL2 1049   3.217   8.324   8.163 -0.1434 -0.1827 -0.0173
   47POPC   C1A 1050   2.798   8.519   7.806 -0.1016  0.1290  0.0049
   47POPC   D2A 1051   2.971   8.695   7.428  0.0364  0.0257 -0.1447
   47POPC   C3A 1052   3.113   8.982   7.160 -0.0786  0.2786 -0.3234
   47POPC   C4A 1053   3.065   9.152   6.748  0.2933  0.2931  0.2061
   47POPC   C1B 1054   3.162   8.236   7.707 -0.1478 -0.2671  0.1426
   47POPC   C2B 1055   3.207   8.179   7.269  0.1407  0.0212  0.1988
   47POPC   C3B 1056   3.067   8.137   6.826 -0.3060 -0.1144 -0.2457
   47POPC   C4B 1057   3.183   8.073   6.377  0.0757  0.0190 -0.2296
   48POPC   NC3 1058   6.896   5.125   9.675  0.1012 -0.1042 -0.2460
   48POPC   PO4 1059   6.908   5.449   9.312 -0.4058  0.0873 -0.1292
   48POPC   GL1 1060   7.127   5.579   8.957 -0.1119 -0.1651  0.1980
   48POPC   GL2 1061   6.838   5.675   8.727  0.0522  0.2680  0.0281
   48POPC   C1A 1062   7.354   5.537   8.565  0.4309  0.1474  0.2362
   48POPC   D2A 1063   7.539   5.651   8.135 -0.0202  0.0543 -0.1359
   48POPC   C3A 1064   7.852   5.782   7.906 -0.0311 -0.0982 -0.0069
   48POPC   C4A 1065   7.868   6.165   7.780 -0.0261 -0.1787  0.2889
   48POPC   C1B 1066   6.848   5.440   8.391 -0.0830  0.0019 -0.1630
   48POPC   C2B 1067   7.015   5.177   8.021 -0.4062  0.1135  0.0942
   48POPC   C3B 1068   7.008   4.998   7.574  0.4900 -0.0400  0.0739
   48POPC   C4B 1069   7.222   4.863   7.156  0.1365 -0.4345 -0.3781
   49POPC   NC3 1070   8.777   2.413   9.017 -0.2635  0.0571  0.0139
   49POPC   PO4 1071   8.944   2.827   8.779  0.0268  0.2625  0.2944
   49POPC   GL1 1072   9.104   2.810   8.376 -0.4477 -0.0151 -0.0639
   49POPC   GL2 1073   8.791   2.758   8.321  0.2068  0.0989 -0.1298
   49POPC   C1A 1074   9.266   2.888   7.918  0.0447  0.1178 -0.2175
   49POPC   D2A 1075   9.346   2.917   7.492  0.1209  0.0746 -0.0445
   49POPC   C3A 1076   9.542   2.550   7.250  0.0401  0.0422 -0.0916
   49POPC   C4A 1077   9.935   2.260   7.276 -0.0308 -0.3720  0.1246
   49POPC   C1B 1078   8.882   2.502   8.043 -0.1680 -0.1059 -0.0912
   49POPC   C2B 1079   9.131   2.481   7.622  0.0815 -0.0799 -0.0016
   49POPC   C3B 1080   8.890   2.219   7.390 -0.4732 -0.1084 -0.2709
   49POPC   C4B 1081   8.765   2.207   7.002 -0.0524  0.0965  0.1748
   50POPC   NC3 1082   8.023   6.471   9.514  0.2381 -0.1627 -0.2006
   50POPC   PO4 1083   7.854   6.868   9.268 -0.2346  0.2327 -0.0499
   50POPC   GL1 1084   7.888   6.960   8.829  0.0012 -0.5392  0.4056
   50POPC   GL2 1085   8.000   7.361   8.864  0.0256 -0.1927 -0.0968
   50POPC   C1A 1086   7.862   6.801   8.382 -0.1595  0.0343 -0.1681
   50POPC   D2A 1087   8.080   6.537   8.046 -0.1915  0.2120  0.4391
   50POPC   C3A 1088   8.357   6.736   7.745  0.0745 -0.1544 -0.4263
   50POPC   C4A 1089   8.849   6.702   7.626  0.1950  0.0684 -0.1235
   50POPC   C1B 1090   7.782   7.254   8.466 -0.2056 -0.1906 -0.1629
   50POPC   C2B 1091   7.570   7.378   8.061  0.0111  0.0938  0.0063
   50POPC   C3B 1092   7.355   7.546   7.767  0.1450  0.1829  0.0287
   50POPC   C4B 1093   7.201   7.754   7.377  0.3275  0.0367  0.0319
   51POPC   NC3 1094   3.886   6.619   8.848 -0.3164 -0.0087  0.1559
   51POPC   PO4 1095   4.027   6.732   8.518  0.3129 -0.2947  0.1036
   51POPC   GL1 1096   4.260   6.906   8.259  0.3179  0.1488 -0.0497
   51POPC   GL2 1097   3.993   7.201   8.262 -0.1417  0.1561  0.0990
   51POPC   C1A 1098   4.442   6.868   7.832  0.1157 -0.0693  0.2581
   51POPC   D2A 1099   4.734   7.079   7.494 -0.0244  0.7476 -0.2099
   51POPC   C3A 1100   4.594   7.324   7.127 -0.2275 -0.3266 -0.1514
   51POPC   C4A 1101   4.444   7.382   6.729 -0.0549 -0.0424  0.0404
   51POPC   C1B 1102   3.947   7.006   7.838 -0.1453 -0.4097 -0.0334
   51POPC   C2B 1103   3.703   7.069   7.446 -0.1312  0.0692 -0.2127
   51POPC   C3B 1104   3.461   6.813   7.152  0.0948 -0.1955 -0.0446
   51POPC   C4B 1105   3.247   6.710   6.771 -0.2040  0.0563  0.2282
   52POPC   NC3 1106   9.195   7.165   9.601  0.1988 -0.3233 -0.1122
   52POPC   PO4 1107   9.523   7.065   9.575  0.2648 -0.1377  0.0195
   52POPC   GL1 1108   9.350   6.994   9.138  0.1500 -0.0293  0.1103
   52POPC   GL2 1109   9.558   7.157   8.919 -0.1516  0.0641  0.0894
   52POPC   C1A 1110   9.112   6.931   8.626 -0.0092  0.0248 -0.2234
   52POPC   D2A 1111   8.930   6.759   8.295  0.2523 -0.3820  0.2461
   52POPC   C3A 1112   8.609   7.119   8.003  0.1375 -0.0072  0.3881
   52POPC   C4A 1113   8.194   7.307   8.204  0.2348 -0.2450  0.0562
   52POPC   C1B 1114   9.353   7.388   8.555  0.3250  0.0648 -0.1752
   52POPC   C2B 1115   9.090   7.223   8.162 -0.0422 -0.2344  0.0305
   52POPC   C3B 1116   9.010   7.171   7.708 -0.1772  0.1467 -0.0263
   52POPC   C4B 1117   8.562   7.042   7.444 -0.0819  0.1417 -0.0076
   53POPC   NC3 1118   5.508   0.997   9.104 -0.0899 -0.0405 -0.0358
   53POPC   PO4 1119   5.438   0.589   9.032 -0.1498 -0.1491 -0.0768
   53POPC   GL1 1120   5.345   0.690   8.582 -0.0174 -0.0658 -0.3054
   53POPC   GL2 1121   4.969   0.770   8.495 -0.3784  0.2272 -0.1363
   53POPC   C1A 1122   5.495   0.895   8.244 -0.0617 -0.1216 -0.2188
   53POPC   D2A 1123   5.889   0.850   7.946 -0.1478 -0.3426  0.2517
   53POPC   C3A 1124   5.998   0.532   7.579 -0.1292  0.2232 -0.1887
   53POPC   C4A 1125   5.978   0.173   7.570  0.0484 -0.0160 -0.2330
   53POPC   C1B 1126   5.069   0.850   8.054  0.0539 -0.3464 -0.2643
   53POPC   C2B 1127   5.205   0.863   7.678  0.1342 -0.0642  0.3748
   53POPC   C3B 1128   5.442   1.138   7.414  0.2110  0.0227 -0.2130
   53POPC   C4B 1129   5.939   1.036   7.384  0.0512 -0.4437 -0.0261
   54POPC   NC3 1130   6.246   0.957   9.503 -0.0647  0.1159  0.0538
   54POPC   PO4 1131   5.968   1.181   9.149  0.0609 -0.3396 -0.1619
   54POPC   GL1 1132   5.962   1.081   8.692 -0.1370  0.0660  0.1903
   54POPC   GL2 1133   5.816   0.756   8.751  0.3087  0.0010 -0.0266
   54POPC   C1A 1134   6.243   1.082   8.258  0.0007  0.0620  0.1575
   54POPC   D2A 1135   6.437   1.257   7.987 -0.1305 -0.0810  0.0255
   54POPC   C3A 1136   6.502   1.405   7.488 -0.0029  0.2329  0.3304
   54POPC   C4A 1137   6.228   1.462   7.121  0.0219 -0.2755 -0.0941
   54POPC   C1B 1138   5.867   0.471   8.326  0.0608  0.2659 -0.3468
   54POPC   C2B 1139   5.623   0.383   7.933 -0.2441 -0.0581  0.1456
   54POPC   C3B 1140   5.515   0.378   7.523 -0.1857 -0.1298 -0.1271
   54POPC   C4B 1141   5.562   0.039   7.277 -0.2035 -0.1704 -0.0967
   55POPC   NC3 1142   2.793   6.226   9.117  0.3662  0.1041  0.0398
   55POPC   PO4 1143   3.127   6.218   8.932  0.2047  0.3069  0.4252
   55POPC   GL1 1144   2.981   6.244   8.600  0.2623 -0.1177 -0.0565
   55POPC   GL2 1145   2.599   6.210   8.488 -0.1251 -0.2888  0.0419
   55POPC   C1A 1146   2.985   6.232   8.146 -0.1021  0.1680 -0.0151
   55POPC   D2A 1147   3.092   5.932   7.845 -0.1289 -0.0829 -0.0014
   55POPC   C3A 1148   3.111   6.272   7.481  0.0367 -0.0049  0.1121
   55POPC   C4A 1149   2.971   6.510   7.137  0.2950  0.0447 -0.1373
   55POPC   C1B 1150   2.481   6.006   8.119  0.0034 -0.3676  0.2920
   55POPC   C2B 1151   2.469   6.034   7.646 -0.1207 -0.1170  0.2649
   55POPC   C3B 1152   2.721   5.853   7.257 -0.0104 -0.1966  0.0368
   55POPC   C4B 1153   3.003   5.860   6.863  0.2635 -0.1281  0.1165
   56POPC   NC3 1154   2.599   4.906   9.073 -0.1650 -0.0294  0.1863
   56POPC   PO4 1155   2.336   5.234   9.055  0.3754  0.2853 -0.0675
   56POPC   GL1 1156   2.566   5.311   8.736  0.1275  0.1008 -0.1203
   56POPC   GL2 1157   2.701   4.998   8.648 -0.1902  0.2580  0.2568
   56POPC   C1A 1158   2.368   5.505   8.471  0.0257 -0.1633  0.1313
   56POPC   D2A 1159   2.217   5.492   7.995  0.1646 -0.1002  0.3148
   56POPC   C3A 1160   1.894   5.346   7.809 -0.0591 -0.4727 -0.0986
   56POPC   C4A 1161   1.596   5.605   7.582  0.0131  0.0658  0.4576
   56POPC   C1B 1162   2.755   5.101   8.208 -0.0127 -0.1418 -0.0964
   56POPC   C2B 1163   2.522   5.144   7.873  0.2488 -0.1577  0.0169
   56POPC   C3B 1164   2.156   4.971   7.843 -0.0140  0.2650  0.1845
   56POPC   C4B 1165   1.736   4.910   7.961 -0.2577 -0.2073 -0.2850
   57POPC   NC3 1166   0.456   7.503   9.250 -0.0903 -0.5088 -0.1799
   57POPC   PO4 1167   0.494   7.437   8.802 -0.1613  0.3052 -0.3221
   57POPC   GL1 1168   0.422   7.294   8.301 -0.0638 -0.1316  0.0225
   57POPC   GL2 1169   0.046   7.467   8.194  0.1707  0.0821 -0.2528
   57POPC   C1A 1170   0.338   7.008   7.968  0.3677 -0.1758  0.0960
   57POPC   D2A 1171   0.094   7.064   7.629  0.4061  0.0105  0.1081
   57POPC   C3A 1172   0.141   6.710   7.434  0.0389  0.0256  0.4977
   57POPC   C4A 1173  -0.193   6.427   7.291  0.2722 -0.0674  0.1981
   57POPC   C1B 1174  -0.183   7.498   7.873  0.2033  0.1235  0.2041
   57POPC   C2B 1175  -0.275   7.451   7.379 -0.0072 -0.0816  0.2103
   57POPC   C3B 1176  -0.285   7.472   6.940 -0.0091 -0.0400 -0.3574
   57POPC   C4B 1177  -0.174   7.426   6.475 -0.2181 -0.1102 -0.1550
   58POPC   NC3 1178   9.903   7.239   9.328  0.3141 -0.0287 -0.1704
   58POPC   PO4 1179   9.863   7.646   9.371  0.0157  0.0008 -0.0373
   58POPC   GL1 1180   9.649   7.735   8.944 -0.0614 -0.1933  0.0331
   58POPC   GL2 1181   9.730   7.966   8.671 -0.2290 -0.0617  0.0533
   58POPC   C1A 1182   9.193   7.879   8.722 -0.0435 -0.2948 -0.1149
   58POPC   D2A 1183   8.863   8.062   8.594  0.1729  0.1873 -0.1213
   58POPC   C3A 1184   8.635   8.272   8.303  0.1202  0.2918 -0.0939
   58POPC   C4A 1185   8.542   8.225   7.904  0.0237  0.0730  0.0409
   58POPC   C1B 1186   9.524   7.812   8.374  0.1187 -0.0684 -0.2171
   58POPC   C2B 1187   9.165   7.757   8.170 -0.2663  0.2001  0.3969
   58POPC   C3B 1188   8.860   7.665   7.955  0.3604 -0.3786 -0.2925
   58POPC   C4B 1189   8.687   7.529   7.555  0.3032 -0.0118 -0.3836
   59POPC   NC3 1190   8.334   4.726   9.760  0.0308 -0.1010  0.3158
   59POPC   PO4 1191   8.139   4.883   9.327  0.0248 -0.1393 -0.2722
   59POPC   GL1 1192   8.016   4.941   8.947  0.1869 -0.0294  0.2330
   59POPC   GL2 1193   8.339   4.874   8.814 -0.0911  0.1530 -0.0867
   59POPC   C1A 1194   7.947   4.825   8.490 -0.0074  0.0329 -0.3051
   59POPC   D2A 1195   7.826   4.847   8.091 -0.2999  0.0766  0.0609
   59POPC   C3A 1196   7.906   4.886   7.703  0.1502  0.0925 -0.2144
   59POPC   C4A 1197   7.469   4.687   7.598  0.1374 -0.5050  0.3264
   59POPC   C1B 1198   8.260   5.245   8.549  0.1035  0.1035  0.0390
   59POPC   C2B 1199   8.370   5.562   8.263  0.2830 -0.1241  0.2755
   59POPC   C3B 1200   8.283   5.507   7.791  0.0125 -0.0300  0.1467
   59POPC   C4B 1201   8.506   5.638   7.426  0.4211 -0.1405  0.0957
   60POPC   NC3 1202   6.626   9.895  10.645  0.0260  0.2770  0.2709
   60POPC   PO4 1203   7.071   9.884  10.383  0.2165 -0.0598 -0.0312
   60POPC   GL1 1204   7.073   9.873   9.987  0.3024 -0.1258  0.0575
   60POPC   GL2 1205   7.205   9.545   9.869 -0.0537 -0.2578  0.1703
   60POPC   C1A 1206   7.162  10.145   9.637  0.1717 -0.0542  0.2379
   60POPC   D2A 1207   6.980  10.348   9.376  0.0644  0.0030  0.2547
   60POPC   C3A 1208   7.231  10.498   9.080  0.1023 -0.0925  0.0777
   60POPC   C4A 1209   7.162  10.890   8.821  0.1254  0.0811  0.2628
   60POPC   C1B 1210   7.390   9.706   9.510 -0.0823 -0.2153  0.0007
   60POPC   C2B 1211   7.427  10.053   9.152 -0.1875  0.0643  0.0899
   60POPC   C3B 1212   7.803  10.111   8.864 -0.0172 -0.0714 -0.2429
   60POPC   C4B 1213   7.915  10.310   8.565  0.2878 -0.0786 -0.0172
   61POPC   NC3 1214   0.998   6.586   9.273  0.0175  0.0176 -0.0829
   61POPC   PO4 1215   0.594   6.324   9.006 -0.1581  0.0568 -0.1349
   61POPC   GL1 1216   0.528   6.496   8.531  0.1205 -0.0692  0.1224
   61POPC   GL2 1217   0.201   6.653   8.478 -0.0720  0.0479  0.1197
   61POPC   C1A 1218   0.697   6.731   8.158 -0.0070  0.0045  0.1129
   61POPC   D2A 1219   0.608   6.735   7.642  0.5285 -0.0657 -0.1759
   61POPC   C3A 1220   0.554   6.597   7.241 -0.3484 -0.0298 -0.4084
   61POPC   C4A 1221   0.563   6.205   6.938 -0.2026 -0.2102  0.2190
   61POPC   C1B 1222   0.318   6.441   8.061  0.1430 -0.0912 -0.1197
   61POPC   C2B 1223   0.557   6.186   7.712 -0.0055 -0.1001  0.1358
   61POPC   C3B 1224   0.788   5.867   7.743 -0.0091 -0.0838 -0.0473
   61POPC   C4B 1225   1.093   5.569   7.906  0.2478 -0.1500  0.0192
   62POPC   NC3 1226   7.141   3.337   9.196  0.0281  0.0415 -0.0232
   62POPC   PO4 1227   7.040   2.978   8.966  0.1938  0.1556 -0.1348
   62POPC   GL1 1228   7.019   2.818   8.645 -0.3413  0.1134 -0.1035
   62POPC   GL2 1229   7.308   2.519   8.549 -0.0157 -0.0086  0.0710
   62POPC   C1A 1230   6.936   2.995   8.151 -0.4510  0.0974  0.1195
   62POPC   D2A 1231   6.921   3.376   8.049 -0.1522 -0.1480 -0.1721
   62POPC   C3A 1232   6.985   3.481   7.584 -0.1427  0.0382  0.0504
   62POPC   C4A 1233   7.129   3.724   7.196  0.0618 -0.0724  0.3760
   62POPC   C1B 1234   7.244   2.183   8.236 -0.0341 -0.0441 -0.0515
   62POPC   C2B 1235   7.284   1.900   8.026  0.0250  0.2720 -0.1542
   62POPC   C3B 1236   7.600   1.751   7.673 -0.1042  0.0440  0.1308
   62POPC   C4B 1237   7.760   1.742   7.201 -0.0571 -0.0123  0.3164
   63POPC   NC3 1238   0.121   2.531   8.535 -0.1439  0.0505  0.0114
   63POPC   PO4 1239  -0.154   2.669   8.720 -0.4093 -0.0603  0.2120
   63POPC   GL1 1240  -0.181   2.802   8.241  0.3265 -0.2314  0.0346
   63POPC   GL2 1241  -0.523   2.825   8.039  0.0811 -0.3987 -0.1859
   63POPC   C1A 1242  -0.030   2.811   7.753 -0.1324  0.0417  0.1875
   63POPC   D2A 1243   0.090   2.702   7.326  0.1404 -0.3950  0.2833
   63POPC   C3A 1244   0.362   2.991   7.100 -0.1257  0.1195  0.0766
   63POPC   C4A 1245   0.724   2.943   7.073 -0.0293  0.0596 -0.1507
   63POPC   C1B 1246  -0.717   3.219   7.811 -0.0172 -0.0533  0.3136
   63POPC   C2B 1247  -1.132   3.371   7.614 -0.1185 -0.0117 -0.1248
   63POPC   C3B 1248  -1.644   3.539   7.499  0.1597  0.0157  0.1130
   63POPC   C4B 1249  -1.953   3.731   7.421 -0.0680  0.2138 -0.0810
   64POPC   NC3 1250   0.195   1.129   8.340 -0.0711  0.0239 -0.2174
   64POPC   PO4 1251   0.257   0.744   8.262  0.0739  0.0010 -0.1177
   64POPC   GL1 1252   0.095   0.650   7.898 -0.2184 -0.1282 -0.0909
   64POPC   GL2 1253   0.251   0.447   7.845  0.0044  0.0010 -0.3089
   64POPC   C1A 1254   0.107   1.009   7.629 -0.1569 -0.1072 -0.4049
   64POPC   D2A 1255  -0.128   1.109   7.206 -0.2442 -0.2923  0.0090
   64POPC   C3A 1256  -0.382   0.835   6.962 -0.2470 -0.1104  0.1046
   64POPC   C4A 1257  -0.609   0.884   6.543 -0.2273 -0.1404 -0.0060
   64POPC   C1B 1258   0.087   0.276   7.524  0.1244 -0.4335 -0.0474
   64POPC   C2B 1259   0.206   0.217   7.009 -0.0016  0.2257  0.0683
   64POPC   C3B 1260   0.571   0.018   6.824 -0.1868  0.3001  0.1344
   64POPC   C4B 1261   0.711  -0.334   6.514 -0.0537  0.0533 -0.1510
   65POPC   NC3 1262   4.118   2.161   8.929  0.0554 -0.0369  0.1610
   65POPC   PO4 1263   4.566   2.020   8.751  0.1799 -0.1274 -0.0881
   65POPC   GL1 1264   4.580   2.157   8.348 -0.0468  0.2353 -0.0563
   65POPC   GL2 1265   4.743   2.395   8.374 -0.0125 -0.1787 -0.1358
   65POPC   C1A 1266   4.582   2.107   7.937 -0.0489 -0.2847  0.1810
   65POPC   D2A 1267   4.438   1.882   7.597 -0.0024 -0.1918  0.2304
   65POPC   C3A 1268   4.694   2.080   7.251 -0.2854 -0.1340 -0.0331
   65POPC   C4A 1269   4.802   2.292   6.944 -0.1812  0.1443 -0.1077
   65POPC   C1B 1270   4.947   2.398   7.947 -0.1347 -0.3374  0.3216
   65POPC   C2B 1271   5.226   2.180   7.544 -0.1088  0.1764 -0.2009
   65POPC   C3B 1272   5.307   2.085   7.036  0.3495 -0.2576 -0.1759
   65POPC   C4B 1273   5.436   2.137   6.578  0.3939  0.2712 -0.3684
   66POPC   NC3 1274   4.664   3.188   9.030  0.1680 -0.1809 -0.1995
   66POPC   PO4 1275   5.032   2.972   9.129  0.3077 -0.0153 -0.0634
   66POPC   GL1 1276   5.016   3.051   8.679  0.1125  0.1757 -0.0634
   66POPC   GL2 1277   4.814   2.895   8.567 -0.0217 -0.1026  0.0419
   66POPC   C1A 1278   5.102   3.132   8.219 -0.0575 -0.1346 -0.0540
   66POPC   D2A 1279   5.158   3.128   7.853  0.0348  0.2910 -0.3028
   66POPC   C3A 1280   4.868   2.926   7.634 -0.1584 -0.0040  0.1298
   66POPC   C4A 1281   4.726   2.534   7.485  0.2198 -0.4273 -0.0895
   66POPC   C1B 1282   4.713   2.865   8.081 -0.0138 -0.0540 -0.1201
   66POPC   C2B 1283   4.487   2.592   7.919 -0.2234 -0.0844 -0.3153
   66POPC   C3B 1284   4.216   2.484   7.605  0.1534 -0.1211  0.0350
   66POPC   C4B 1285   3.808   2.500   7.358 -0.0324  0.1502 -0.1280
   67POPC   NC3 1286   5.660   9.548  10.239 -0.0820 -0.0400 -0.1951
   67POPC   PO4 1287   6.001   9.696   9.955 -0.1051 -0.2909 -0.1364
   67POPC   GL1 1288   6.286   9.902   9.674  0.0514  0.4301  0.2308
   67POPC   GL2 1289   6.270  10.266   9.584 -0.0261  0.0621  0.0875
   67POPC   C1A 1290   6.649  10.021   9.447  0.2756  0.0309 -0.1461
   67POPC   D2A 1291   6.844   9.911   9.119 -0.0194  0.1156 -0.0905
   67POPC   C3A 1292   6.925   9.866   8.706  0.2744 -0.0416  0.2184
   67POPC   C4A 1293   6.660   9.754   8.319 -0.3068 -0.2378 -0.0172
   67POPC   C1B 1294   6.356  10.322   9.129 -0.0777 -0.1019 -0.0666
   67POPC   C2B 1295   6.461  10.052   8.819 -0.0505  0.1408  0.0250
   67POPC   C3B 1296   6.227  10.056   8.410 -0.1645  0.1825 -0.1436
   67POPC   C4B 1297   6.014  10.407   8.108 -0.2601  0.0958 -0.3026
   68POPC   NC3 1298   8.231   0.228  10.467 -0.2394 -0.1876  0.1667
   68POPC   PO4 1299   8.447   0.521  10.145 -0.2128  0.1228  0.2923
   68POPC   GL1 1300   8.251   0.675   9.720 -0.0893 -0.0907 -0.1556
   68POPC   GL2 1301   8.170   0.406   9.737 -0.1004 -0.1699  0.0003
   68POPC   C1A 1302   8.025   0.607   9.267  0.0751  0.1386 -0.1080
   68POPC   D2A 1303   7.684   0.530   8.927  0.1967 -0.2183 -0.0867
   68POPC   C3A 1304   7.719   0.621   8.496 -0.1103 -0.2921  0.0056
   68POPC   C4A 1305   7.746   0.879   8.153 -0.0076 -0.2218  0.0756
   68POPC   C1B 1306   8.201   0.052   9.539 -0.1607 -0.2053 -0.0749
   68POPC   C2B 1307   7.927  -0.368   9.418 -0.2528 -0.0883 -0.1921
   68POPC   C3B 1308   7.886  -0.806   9.362  0.0367  0.0717 -0.2390
   68POPC   C4B 1309   7.605  -1.154   9.293 -0.0537  0.2345 -0.0728
   69POPC   NC3 1310   3.717   9.630   9.334 -0.1688 -0.0089  0.2594
   69POPC   PO4 1311   3.806   9.879   9.010  0.2570  0.0739  0.2151
   69POPC   GL1 1312   4.077   9.954   8.607  0.0481  0.0091  0.0833
   69POPC   GL2 1313   4.388   9.888   8.598 -0.2370 -0.0434 -0.0757
   69POPC   C1A 1314   4.078   9.839   8.171  0.0259  0.0669  0.4364
   69POPC   D2A 1315   3.981   9.750   7.661  0.2975  0.1223  0.0008
   69POPC   C3A 1316   4.188   9.629   7.361  0.2632  0.0375 -0.2182
   69POPC   C4A 1317   4.099   9.211   7.101 -0.4020 -0.0279 -0.1040
   69POPC   C1B 1318   4.563   9.779   8.218  0.0452 -0.1326  0.1127
   69POPC   C2B 1319   4.414   9.963   7.805 -0.0492  0.0463 -0.2207
   69POPC   C3B 1320   4.468  10.112   7.432  0.2581  0.2189  0.1928
   69POPC   C4B 1321   4.715  10.282   7.164  0.0675  0.0828  0.2311
   70POPC   NC3 1322  10.039   3.564   8.953  0.1567 -0.1246  0.0387
   70POPC   PO4 1323   9.865   3.986   8.917  0.1345  0.0897 -0.0962
   70POPC   GL1 1324  10.049   4.334   8.671  0.1627  0.2626 -0.0302
   70POPC   GL2 1325  10.365   4.229   8.390 -0.1681 -0.0026  0.2479
   70POPC   C1A 1326   9.982   4.625   8.354  0.1549 -0.0168 -0.2650
   70POPC   D2A 1327   9.855   4.613   7.924 -0.3991 -0.0581 -0.0839
   70POPC   C3A 1328  10.083   4.964   7.568  0.0034  0.3911  0.2745
   70POPC   C4A 1329  10.112   5.388   7.325  0.0502 -0.1832 -0.2153
   70POPC   C1B 1330  10.178   4.189   7.965 -0.0423  0.1543  0.0311
   70POPC   C2B 1331  10.066   4.092   7.646 -0.1957 -0.0848  0.0026
   70POPC   C3B 1332   9.970   3.802   7.522  0.0796 -0.1057 -0.1587
   70POPC   C4B 1333   9.666   3.433   7.321 -0.3380 -0.1579 -0.0192
   71POPC   NC3 1334   6.438   7.702   9.865 -0.2391 -0.0568 -0.1922
   71POPC   PO4 1335   6.236   7.760   9.481  0.0971 -0.1037 -0.1184
   71POPC   GL1 1336   6.206   7.487   9.146 -0.0339  0.0602  0.1954
   71POPC   GL2 1337   6.038   7.424   8.936  0.0622  0.3462 -0.0597
   71POPC   C1A 1338   6.569   7.374   8.829  0.2710 -0.0353  0.0000
   71POPC   D2A 1339   6.919   7.555   8.564 -0.0586  0.0858 -0.3313
   71POPC   C3A 1340   6.933   7.883   8.324  0.4178  0.0744  0.1200
   71POPC   C4A 1341   7.078   7.943   7.957 -0.0424 -0.1584  0.2114
   71POPC   C1B 1342   6.188   7.611   8.467  0.0189  0.1078  0.0676
   71POPC   C2B 1343   6.056   7.814   8.160  0.0006  0.0898  0.0348
   71POPC   C3B 1344   5.696   7.943   7.994 -0.0368 -0.2260  0.1384
   71POPC   C4B 1345   5.613   8.131   7.649  0.0665 -0.1662 -0.1025
   72POPC   NC3 1346   8.142   6.905   9.711 -0.0905 -0.2989  0.3112
   72POPC   PO4 1347   8.593   7.055   9.611  0.0324 -0.0166 -0.0471
   72POPC   GL1 1348   8.832   7.074   9.259 -0.2064 -0.4008  0.1157
   72POPC   GL2 1349   8.740   6.837   8.998 -0.3091  0.2777  0.0982
   72POPC   C1A 1350   9.008   7.348   8.941 -0.0729  0.3968  0.3787
   72POPC   D2A 1351   8.849   7.549   8.548  0.0221 -0.2159 -0.2344
   72POPC   C3A 1352   8.462   7.736   8.371  0.1129  0.2778  0.2234
   72POPC   C4A 1353   8.403   7.781   8.076  0.0762  0.2467 -0.0576
   72POPC   C1B 1354   8.328   6.560   8.821  0.0580  0.0881  0.0818
   72POPC   C2B 1355   8.344   6.139   8.637  0.0035  0.1783  0.2082
   72POPC   C3B 1356   8.657   5.877   8.548 -0.0476  0.1377 -0.0409
   72POPC   C4B 1357   9.065   5.965   8.637  0.1565 -0.3484 -0.3214
   73POPC   NC3 1358   8.454   7.757  10.310  0.1041  0.0065 -0.3591
   73POPC   PO4 1359   8.468   7.893   9.866 -0.1190  0.1080 -0.0071
   73POPC   GL1 1360   8.324   7.824   9.436 -0.0290 -0.2242 -0.3054
   73POPC   GL2 1361   8.597   7.565   9.414  0.1139 -0.0514  0.2225
   73POPC   C1A 1362   8.023   7.816   9.136  0.0821 -0.2484 -0.1718
   73POPC   D2A 1363   7.918   7.931   8.679  0.0013 -0.0696 -0.0622
   73POPC   C3A 1364   7.915   7.744   8.349 -0.1129 -0.4212 -0.0644
   73POPC   C4A 1365   7.987   7.658   7.877 -0.2063  0.0758  0.0694
   73POPC   C1B 1366   8.521   7.663   8.975  0.0021  0.0600 -0.1965
   73POPC   C2B 1367   8.418   7.336   8.720 -0.3753 -0.1779  0.0163
   73POPC   C3B 1368   8.576   7.092   8.495 -0.3956  0.2997  0.0474
   73POPC   C4B 1369   8.364   6.843   8.306 -0.2077 -0.3344  0.1809
   74POPC   NC3 1370  10.119   7.972   8.990  0.0730 -0.2636 -0.2338
   74POPC   PO4 1371  10.318   8.314   8.643  0.0101 -0.1331  0.4273
   74POPC   GL1 1372  10.031   8.343   8.325  0.0041 -0.0419  0.0621
   74POPC   GL2 1373   9.813   8.278   8.318  0.2224 -0.0461 -0.0638
   74POPC   C1A 1374  10.211   8.643   7.987 -0.0792 -0.2914 -0.2045
   74POPC   D2A 1375  10.045   8.920   7.766  0.1098 -0.0976  0.0003
   74POPC   C3A 1376   9.639   8.950   7.661  0.2451  0.1166  0.3550
   74POPC   C4A 1377   9.433   8.905   7.361 -0.0431 -0.0931 -0.4804
   74POPC   C1B 1378   9.556   8.397   7.936 -0.0105  0.1319  0.0967
   74POPC   C2B 1379   9.600   8.417   7.393  0.2781 -0.1928 -0.1866
   74POPC   C3B 1380   9.291   8.466   7.065 -0.0386  0.1607  0.1808
   74POPC   C4B 1381   9.032   8.626   6.758 -0.1819  0.1306  0.3196
   75POPC   NC3 1382  10.223   8.855   8.718 -0.1180  0.1056 -0.0406
   75POPC   PO4 1383  10.660   8.740   8.552 -0.0267 -0.1118  0.0776
   75POPC   GL1 1384  10.696   8.584   8.178 -0.0674 -0.0793  0.1121
   75POPC   GL2 1385  10.661   8.262   8.143 -0.1805 -0.2015 -0.0446
   75POPC   C1A 1386  10.696   8.462   7.711  0.2077  0.2485 -0.0569
   75POPC   D2A 1387  10.746   8.493   7.339  0.0448  0.4315 -0.2725
   75POPC   C3A 1388  11.048   8.409   6.982  0.1847 -0.0784 -0.1503
   75POPC   C4A 1389  11.194   7.970   6.958 -0.1049 -0.0546  0.3154
   75POPC   C1B 1390  10.707   7.964   7.774 -0.0944 -0.1370 -0.3868
   75POPC   C2B 1391  10.321   7.883   7.586 -0.0572  0.2695 -0.1141
   75POPC   C3B 1392   9.893   7.951   7.436 -0.1208  0.2655 -0.3212
   75POPC   C4B 1393   9.751   8.095   7.049  0.0611  0.2631  0.4410
   76POPC   NC3 1394   5.793   6.249   8.900  0.0588  0.5856  0.2764
   76POPC   PO4 1395   5.521   6.610   8.906  0.1681 -0.2207  0.4751
   76POPC   GL1 1396   5.527   6.666   8.552 -0.1444  0.0706  0.0909
   76POPC   GL2 1397   5.457   6.407   8.382 -0.3223 -0.0056  0.1882
   76POPC   C1A 1398   5.651   6.955   8.214  0.0326  0.2035  0.4439
   76POPC   D2A 1399   5.534   6.716   7.777 -0.0443  0.0194  0.1229
   76POPC   C3A 1400   5.324   6.288   7.858 -0.0007  0.0434 -0.0661
   76POPC   C4A 1401   4.994   6.046   7.704  0.2005 -0.2481  0.0086
   76POPC   C1B 1402   5.897   6.568   8.106 -0.4088  0.2877 -0.0977
   76POPC   C2B 1403   6.152   6.680   7.755  0.1957  0.1741  0.0381
   76POPC   C3B 1404   6.507   6.783   7.537  0.1200 -0.0211  0.1220
   76POPC   C4B 1405   6.599   6.928   7.165  0.1294 -0.1471  0.3358
   77POPC   NC3 1406   4.746   1.670   9.079  0.0829  0.1001  0.1594
   77POPC   PO4 1407   5.120   1.394   9.147  0.0358  0.0817  0.2769
   77POPC   GL1 1408   5.211   1.219   8.712 -0.2296 -0.0883  0.1178
   77POPC   GL2 1409   5.510   1.205   8.630  0.0653 -0.1472 -0.1305
   77POPC   C1A 1410   5.132   1.249   8.364 -0.1175 -0.1368 -0.0744
   77POPC   D2A 1411   5.298   1.309   7.990  0.1383 -0.1339  0.2623
   77POPC   C3A 1412   5.413   1.679   7.875  0.3131  0.2056  0.3829
   77POPC   C4A 1413   5.297   2.135   8.063 -0.0739  0.1986  0.1140
   77POPC   C1B 1414   5.772   1.276   8.210 -0.0095 -0.1562  0.1047
   77POPC   C2B 1415   5.964   1.358   7.842 -0.1710  0.2775 -0.1746
   77POPC   C3B 1416   5.753   1.532   7.480  0.3047  0.1690  0.0219
   77POPC   C4B 1417   5.773   1.293   7.007 -0.2097 -0.1072 -0.1951
   78POPC   NC3 1418   3.525  10.299   9.090  0.1289  0.0619 -0.1294
   78POPC   PO4 1419   3.474  10.648   9.002  0.0971 -0.0547  0.1868
   78POPC   GL1 1420   3.633  10.573   8.659  0.0213  0.1050 -0.1578
   78POPC   GL2 1421   3.842  10.424   8.738 -0.0217 -0.2590  0.3637
   78POPC   C1A 1422   3.847  10.802   8.320 -0.0465 -0.0379 -0.0823
   78POPC   D2A 1423   4.218  10.798   7.921 -0.3554  0.1728 -0.1941
   78POPC   C3A 1424   4.206  11.111   7.592 -0.2233 -0.0648  0.1511
   78POPC   C4A 1425   4.472  11.361   7.409 -0.2411 -0.0205  0.0283
   78POPC   C1B 1426   3.908  10.284   8.218  0.2989 -0.3316 -0.2691
   78POPC   C2B 1427   4.034  10.283   7.829  0.1626 -0.0515  0.4132
   78POPC   C3B 1428   4.172  10.535   7.455  0.0104  0.1613  0.0395
   78POPC   C4B 1429   4.557  10.693   7.278  0.0292  0.2554 -0.0321
   79POPC   NC3 1430   1.187   9.565   8.178  0.1813  0.1893 -0.0357
   79POPC   PO4 1431   0.950   9.529   7.994  0.0002 -0.1660 -0.0411
   79POPC   GL1 1432   0.893   9.808   7.661 -0.0898  0.2664 -0.1034
   79POPC   GL2 1433   0.607   9.873   7.730 -0.0306  0.0024  0.1904
   79POPC   C1A 1434   0.997  10.207   7.370  0.1497 -0.0179 -0.0841
   79POPC   D2A 1435   1.097  10.225   6.878  0.1491  0.1981  0.2000
   79POPC   C3A 1436   1.416  10.504   6.613  0.2256 -0.0413  0.0927
   79POPC   C4A 1437   1.763  10.773   6.829  0.0186  0.0194 -0.1367
   79POPC   C1B 1438   0.699   9.561   7.297 -0.2718 -0.1324 -0.1662
   79POPC   C2B 1439   0.739   9.316   6.992  0.0253 -0.2271 -0.1617
   79POPC   C3B 1440   1.133   9.293   6.776 -0.2412  0.0472 -0.0248
   79POPC   C4B 1441   1.521   9.383   6.739  0.1584  0.1037 -0.2310
   80POPC   NC3 1442   1.399   3.920   9.318  0.1391  0.5262  0.3024
   80POPC   PO4 1443   1.404   4.079   8.941  0.0542 -0.2406 -0.0837
   80POPC   GL1 1444   1.390   4.191   8.581  0.2196  0.0811 -0.4302
   80POPC   GL2 1445   1.369   3.952   8.285  0.0791  0.2205  0.0756
   80POPC   C1A 1446   1.499   4.463   8.211 -0.1005 -0.0175 -0.1397
   80POPC   D2A 1447   1.253   4.781   7.899  0.0586 -0.1119  0.0343
   80POPC   C3A 1448   1.301   5.167   8.166 -0.2200 -0.1605  0.1355
   80POPC   C4A 1449   1.721   5.179   8.360 -0.0924 -0.1597  0.1500
   80POPC   C1B 1450   1.569   3.991   7.919  0.0343  0.1326 -0.0741
   80POPC   C2B 1451   1.961   4.179   7.967 -0.1503  0.0486  0.2116
   80POPC   C3B 1452   2.051   4.611   8.215  0.1246 -0.0567  0.1058
   80POPC   C4B 1453   2.197   5.052   8.328  0.0440  0.1459  0.3316
   81POPC   NC3 1454   3.267   0.620   8.688  0.0271 -0.1264  0.0872
   81POPC   PO4 1455   3.186   1.061   8.705  0.0268  0.2330  0.0663
   81POPC   GL1 1456   3.160   1.042   8.335  0.1422  0.0933  0.0627
   81POPC   GL2 1457   2.905   0.863   8.190  0.0861 -0.0183  0.1392
   81POPC   C1A 1458   3.338   1.204   7.982  0.0762 -0.0012 -0.0877
   81POPC   D2A 1459   3.277   1.126   7.463  0.2491  0.0389  0.0356
   81POPC   C3A 1460   3.483   1.106   7.116 -0.0210 -0.2198  0.1598
   81POPC   C4A 1461   3.759   1.087   6.796  0.4095 -0.2960 -0.3366
   81POPC   C1B 1462   3.002   0.873   7.790 -0.0076 -0.1263  0.1961
   81POPC   C2B 1463   2.971   0.699   7.412  0.0859  0.4472 -0.3792
   81POPC   C3B 1464   3.188   0.634   7.020  0.2268  0.0175  0.0595
   81POPC   C4B 1465   3.547   0.681   6.728 -0.2992  0.2446 -0.0232
   82POPC   NC3 1466   9.674   9.049   9.498  0.3453 -0.2482 -0.0951
   82POPC   PO4 1467  10.062   8.969   9.179  0.0796  0.1962  0.1491
   82POPC   GL1 1468   9.808   9.102   8.887  0.0879 -0.0546  0.1197
   82POPC   GL2 1469   9.605   9.220   9.071  0.1791  0.0737 -0.2280
   82POPC   C1A 1470   9.488   9.075   8.553 -0.1045 -0.1810  0.2065
   82POPC   D2A 1471   9.251   9.416   8.344 -0.2418  0.2112  0.3318
   82POPC   C3A 1472   8.831   9.281   8.238 -0.2054 -0.1413  0.1573
   82POPC   C4A 1473   8.585   9.224   7.954  0.0777 -0.0429 -0.0036
   82POPC   C1B 1474   9.255   8.918   8.990 -0.2884 -0.1329 -0.3709
   82POPC   C2B 1475   9.278   8.416   8.837  0.1870 -0.0207  0.2272
   82POPC   C3B 1476   9.260   8.285   8.450 -0.3944  0.0840  0.1532
   82POPC   C4B 1477   9.027   8.317   8.016 -0.3215  0.0904  0.2073
   83POPC   NC3 1478   1.904   7.248   8.543  0.1668  0.1859 -0.1470
   83POPC   PO4 1479   1.809   7.708   8.634  0.0793  0.3427  0.1983
   83POPC   GL1 1480   1.666   7.859   8.229 -0.0878  0.2403  0.0795
   83POPC   GL2 1481   1.906   8.035   7.973 -0.2677 -0.2504  0.0648
   83POPC   C1A 1482   1.584   7.722   7.779 -0.0474 -0.2487 -0.1898
   83POPC   D2A 1483   1.668   7.615   7.259 -0.2907 -0.0642  0.1085
   83POPC   C3A 1484   1.693   7.861   6.836 -0.0958 -0.0320 -0.0212
   83POPC   C4A 1485   1.869   8.249   6.604 -0.1740  0.2444 -0.1348
   83POPC   C1B 1486   1.917   7.997   7.560  0.2222  0.0202  0.0320
   83POPC   C2B 1487   1.676   8.180   7.323  0.0900  0.0844  0.1383
   83POPC   C3B 1488   1.730   8.536   6.971  0.0382 -0.1821 -0.0500
   83POPC   C4B 1489   1.532   8.865   6.764  0.1425 -0.0808 -0.3198
   84POPC   NC3 1490   0.056   1.728   8.352 -0.1581  0.1652 -0.0451
   84POPC   PO4 1491   0.337   1.544   8.146 -0.0520  0.0949 -0.2956
   84POPC   GL1 1492   0.502   1.269   7.785  0.2492 -0.0516 -0.3251
   84POPC   GL2 1493   0.649   0.909   7.957 -0.0353 -0.3902 -0.0943
   84POPC   C1A 1494   0.492   1.274   7.310  0.0580 -0.0098  0.1301
   84POPC   D2A 1495   0.298   1.175   6.963 -0.2545  0.0616 -0.2621
   84POPC   C3A 1496   0.494   0.968   6.576  0.1053  0.2091  0.4074
   84POPC   C4A 1497   0.659   0.870   6.187 -0.1161  0.1175 -0.0460
   84POPC   C1B 1498   0.559   0.782   7.545 -0.0838  0.3262  0.3866
   84POPC   C2B 1499   0.226   0.754   7.238 -0.1862  0.2444 -0.1623
   84POPC   C3B 1500   0.091   0.749   6.848  0.2275 -0.0194  0.4228
   84POPC   C4B 1501   0.103   0.668   6.378  0.0966  0.1261  0.1647
   85POPC   NC3 1502   5.911   3.745   8.882 -0.0287  0.0013 -0.0874
   85POPC   PO4 1503   6.000   4.038   9.137 -0.3363 -0.0420  0.2118
   85POPC   GL1 1504   6.367   3.953   8.791 -0.0631 -0.1615 -0.0885
   85POPC   GL2 1505   6.154   4.125   8.597  0.1405 -0.3371 -0.0757
   85POPC   C1A 1506   6.381   3.797   8.325  0.4085 -0.0706  0.1355
   85POPC   D2A 1507   6.075   3.822   7.939  0.0200  0.0342 -0.0980
   85POPC   C3A 1508   5.821   3.635   7.673 -0.0030  0.1088 -0.0570
   85POPC   C4A 1509   5.564   3.703   7.299  0.0999 -0.0169  0.2142
   85POPC   C1B 1510   5.916   4.266   8.200  0.1635 -0.1731 -0.0306
   85POPC   C2B 1511   5.953   4.465   7.848 -0.3800  0.1403 -0.0309
   85POPC   C3B 1512   6.112   4.638   7.407  0.2012 -0.2058  0.1433
   85POPC   C4B 1513   6.099   4.880   7.127  0.0826  0.0122 -0.2481
   86POPC   NC3 1514   6.564   2.778   8.932 -0.1702 -0.1081  0.1093
   86POPC   PO4 1515   6.489   2.371   9.005 -0.0623  0.4240  0.2019
   86POPC   GL1 1516   6.347   2.022   8.839 -0.1162  0.0273  0.2046
   86POPC   GL2 1517   6.105   2.033   8.551 -0.0034  0.4155 -0.0322
   86POPC   C1A 1518   6.589   1.793   8.437 -0.0765  0.2488 -0.0281
   86POPC   D2A 1519   6.819   2.032   8.026 -0.3914 -0.1979 -0.1308
   86POPC   C3A 1520   6.819   1.986   7.623 -0.0589 -0.2982 -0.0294
   86POPC   C4A 1521   6.625   1.866   7.200  0.1222  0.1066 -0.0192
   86POPC   C1B 1522   6.323   2.158   8.168  0.1642 -0.2863 -0.1008
   86POPC   C2B 1523   6.381   2.143   7.701 -0.0690  0.1318 -0.1089
   86POPC   C3B 1524   6.131   1.895   7.410 -0.4741  0.2077 -0.2657
   86POPC   C4B 1525   5.656   2.055   7.352 -0.0673  0.3006  0.1133
   87POPC   NC3 1526   1.700   4.645   8.881  0.1481 -0.1317  0.2080
   87POPC   PO4 1527   1.921   4.246   8.941 -0.5230  0.1432 -0.1418
   87POPC   GL1 1528   2.223   4.272   8.669 -0.4176  0.0468 -0.1253
   87POPC   GL2 1529   2.578   4.452   8.824  0.0492 -0.0399 -0.0746
   87POPC   C1A 1530   2.383   4.160   8.230  0.1722 -0.1305 -0.1042
   87POPC   D2A 1531   2.542   3.895   7.834  0.2715  0.4545  0.1710
   87POPC   C3A 1532   2.510   4.008   7.386  0.0209 -0.2065 -0.1661
   87POPC   C4A 1533   2.496   4.037   7.004  0.0873  0.2528 -0.0858
   87POPC   C1B 1534   2.611   4.625   8.369  0.3041  0.3061  0.2769
   87POPC   C2B 1535   2.455   4.597   7.978  0.2055  0.2643  0.1119
   87POPC   C3B 1536   2.202   4.535   7.652 -0.0623  0.0651  0.0334
   87POPC   C4B 1537   2.100   4.304   7.239  0.0707  0.3134 -0.0357
   88POPC   NC3 1538   2.429   2.908   8.674  0.3654 -0.2884  0.3654
   88POPC   PO4 1539   2.013   2.942   8.867  0.0512 -0.0701  0.3244
   88POPC   GL1 1540   1.912   2.833   8.500 -0.2237  0.2797  0.1614
   88POPC   GL2 1541   2.009   2.623   8.346  0.0721  0.3693 -0.1581
   88POPC   C1A 1542   1.918   3.072   8.165 -0.1366 -0.3056 -0.0344
   88POPC   D2A 1543   1.673   2.884   7.933  0.0163  0.1343  0.0115
   88POPC   C3A 1544   1.701   2.410   7.874  0.0474  0.1044  0.1046
   88POPC   C4A 1545   1.685   2.057   7.640 -0.1008  0.0980  0.1079
   88POPC   C1B 1546   2.132   2.699   7.869 -0.2023  0.1424 -0.0967
   88POPC   C2B 1547   2.189   3.095   7.607  0.2506 -0.2080  0.1849
   88POPC   C3B 1548   1.860   3.272   7.374 -0.2494 -0.2959  0.0297
   88POPC   C4B 1549   1.635   3.251   7.045 -0.1645 -0.1380  0.0176
   89POPC   NC3 1550   5.411   2.237   9.069  0.2918 -0.0183  0.1930
   89POPC   PO4 1551   5.273   1.874   9.058  0.1972 -0.2973 -0.0600
   89POPC   GL1 1552   5.245   1.766   8.730  0.0532 -0.1100 -0.1029
   89POPC   GL2 1553   5.559   1.721   8.574  0.0559 -0.1493 -0.0362
   89POPC   C1A 1554   5.159   1.771   8.351 -0.2158  0.0251  0.0806
   89POPC   D2A 1555   4.895   1.724   7.941 -0.0908  0.0145  0.0422
   89POPC   C3A 1556   5.007   1.783   7.513  0.1776  0.5386 -0.1297
   89POPC   C4A 1557   5.264   1.615   7.307 -0.2213  0.0177 -0.2098
   89POPC   C1B 1558   5.702   1.847   8.241  0.2104 -0.2095 -0.0025
   89POPC   C2B 1559   5.828   1.985   7.810 -0.4113 -0.0558  0.2542
   89POPC   C3B 1560   5.636   2.408   7.721 -0.0408  0.0787 -0.0921
   89POPC   C4B 1561   5.368   2.728   7.607  0.4592 -0.1254  0.1954
   90POPC   NC3 1562   4.699   6.921   8.516 -0.1572 -0.2786 -0.0146
   90POPC   PO4 1563   4.874   6.515   8.517 -0.0051 -0.0588  0.1398
   90POPC   GL1 1564   4.970   6.578   8.091  0.2544  0.1280 -0.1171
   90POPC   GL2 1565   5.143   6.840   8.134 -0.0423 -0.0066 -0.3171
   90POPC   C1A 1566   4.997   6.707   7.645  0.0796 -0.1120  0.2210
   90POPC   D2A 1567   5.085   6.565   7.324 -0.2756  0.2516  0.0721
   90POPC   C3A 1568   4.952   6.516   6.895  0.0237 -0.1738  0.0080
   90POPC   C4A 1569   4.632   6.624   6.620  0.2269  0.2636 -0.0164
   90POPC   C1B 1570   5.246   7.122   7.777 -0.1046  0.0779  0.1799
   90POPC   C2B 1571   5.579   7.211   7.517  0.3033  0.0120  0.2651
   90POPC   C3B 1572   5.862   7.326   7.101  0.0019 -0.0353 -0.0811
   90POPC   C4B 1573   5.867   7.512   6.651  0.5831  0.0580 -0.1626
   91POPC   NC3 1574   7.514   5.376   9.488  0.0822  0.1576  0.1529
   91POPC   PO4 1575   7.281   5.021   9.299 -0.1298  0.0666 -0.0565
   91POPC   GL1 1576   7.482   5.251   8.990 -0.0123 -0.1773 -0.1254
   91POPC   GL2 1577   7.561   4.943   8.798 -0.0090 -0.1047 -0.1742
   91POPC   C1A 1578   7.803   5.362   8.559 -0.2406  0.0455  0.0842
   91POPC   D2A 1579   7.941   5.380   8.183 -0.1258 -0.1299 -0.2623
   91POPC   C3A 1580   8.350   5.061   7.896  0.0277 -0.0475 -0.0852
   91POPC   C4A 1581   8.390   5.037   7.506 -0.0792  0.2664  0.0028
   91POPC   C1B 1582   7.444   5.131   8.279  0.1436  0.0085 -0.2005
   91POPC   C2B 1583   7.508   5.207   7.802  0.2350 -0.2859 -0.0169
   91POPC   C3B 1584   7.792   5.331   7.479  0.0668 -0.0143 -0.0553
   91POPC   C4B 1585   7.939   5.668   7.355 -0.2107  0.1731  0.1841
   92POPC   NC3 1586  10.021   6.179   9.602 -0.1224 -0.1891 -0.1226
   92POPC   PO4 1587   9.664   6.141   9.201 -0.1306  0.4038 -0.3755
   92POPC   GL1 1588   9.592   6.243   8.795  0.1290 -0.0244  0.1645
   92POPC   GL2 1589   9.625   6.103   8.586  0.1491  0.0386 -0.2478
   92POPC   C1A 1590   9.244   6.414   8.384 -0.1526  0.3966  0.2310
   92POPC   D2A 1591   9.060   6.355   7.931  0.0548  0.1968 -0.4022
   92POPC   C3A 1592   9.296   6.436   7.448 -0.1066  0.0508  0.0931
   92POPC   C4A 1593   9.446   6.636   7.062  0.3690  0.1756 -0.1009
   92POPC   C1B 1594   9.547   6.040   8.210 -0.4131  0.0310 -0.4226
   92POPC   C2B 1595   9.502   6.117   7.733 -0.2225  0.2525 -0.1943
   92POPC   C3B 1596   9.745   6.099   7.277  0.2806 -0.0955  0.0257
   92POPC   C4B 1597   9.951   5.835   6.892 -0.1040  0.0224  0.1300
   93POPC   NC3 1598   0.225   0.128   8.833 -0.0247 -0.2093 -0.3612
   93POPC   PO4 1599  -0.082   0.479   9.084 -0.0103 -0.2530 -0.1598
   93POPC   GL1 1600  -0.117   0.602   8.624  0.0028  0.0089 -0.0830
   93POPC   GL2 1601  -0.218   0.897   8.366  0.0878 -0.1635 -0.2105
   93POPC   C1A 1602  -0.232   0.371   8.253  0.4168  0.0273 -0.0171
   93POPC   D2A 1603  -0.130   0.038   8.023  0.0283 -0.2862 -0.4160
   93POPC   C3A 1604  -0.216  -0.107   7.646 -0.0623  0.0643  0.1707
   93POPC   C4A 1605  -0.066  -0.154   7.173  0.1839  0.0446  0.1382
   93POPC   C1B 1606  -0.503   0.780   8.054 -0.0723 -0.0487  0.0280
   93POPC   C2B 1607  -0.785   0.713   7.633 -0.3012 -0.1838  0.1579
   93POPC   C3B 1608  -0.730   0.417   7.268 -0.2575 -0.3562 -0.0669
   93POPC   C4B 1609  -1.029   0.262   6.941 -0.3627 -0.0158  0.1179
   94POPC   NC3 1610   9.759  10.047   9.778 -0.1787 -0.3075 -0.0310
   94POPC   PO4 1611   9.840  10.106   9.326 -0.3034 -0.0861  0.1842
   94POPC   GL1 1612   9.578   9.835   9.076  0.1670 -0.0754 -0.1649
   94POPC   GL2 1613   9.363   9.663   9.133  0.0640  0.1201  0.0578
   94POPC   C1A 1614   9.230   9.896   8.680  0.2363  0.1942  0.0038
   94POPC   D2A 1615   8.946   9.848   8.320  0.0198  0.0733  0.0473
   94POPC   C3A 1616   9.245   9.928   7.902 -0.0531 -0.0269 -0.0378
   94POPC   C4A 1617   9.506  10.213   7.703  0.1133 -0.2287 -0.1414
   94POPC   C1B 1618   9.051   9.456   8.844  0.0908  0.0411  0.1909
   94POPC   C2B 1619   8.810   9.094   8.720  0.0144  0.3125 -0.0293
   94POPC   C3B 1620   8.513   9.006   8.489  0.1812 -0.2627  0.1689
   94POPC   C4B 1621   8.366   8.681   8.118  0.0161 -0.3353  0.1271
   95POPC   NC3 1622   2.860   1.482   9.628 -0.1244  0.1953  0.1430
   95POPC   PO4 1623   2.911   1.544   9.058 -0.1873  0.2689 -0.1890
   95POPC   GL1 1624   2.859   1.595   8.647  0.1137  0.2110 -0.2146
   95POPC   GL2 1625   2.643   1.821   8.438 -0.2340 -0.0081 -0.0300
   95POPC   C1A 1626   3.087   1.581   8.257  0.1345  0.0937 -0.0087
   95POPC   D2A 1627   3.301   1.645   7.807 -0.2134  0.1831 -0.1072
   95POPC   C3A 1628   3.623   1.449   7.552 -0.1753  0.0987  0.1847
   95POPC   C4A 1629   3.874   1.450   7.101  0.4811  0.0487  0.3946
   95POPC   C1B 1630   2.633   2.011   8.151  0.3682  0.0404 -0.2118
   95POPC   C2B 1631   2.659   2.297   7.911  0.2446 -0.3373  0.2481
   95POPC   C3B 1632   2.785   2.387   7.483  0.2708  0.1030 -0.0167
   95POPC   C4B 1633   2.968   2.724   7.359  0.0290 -0.0895 -0.2511
   96POPC   NC3 1634   1.549   9.213   8.325 -0.2205  0.0657  0.4329
   96POPC   PO4 1635   1.473   8.822   8.180 -0.2677 -0.0667 -0.0060
   96POPC   GL1 1636   1.628   8.789   7.839 -0.3225 -0.1145  0.1542
   96POPC   GL2 1637   1.887   8.530   7.824 -0.2693 -0.6632  0.2465
   96POPC   C1A 1638   1.570   8.981   7.518 -0.2273  0.2038  0.1740
   96POPC   D2A 1639   1.591   9.218   7.190 -0.2862 -0.2504 -0.1188
   96POPC   C3A 1640   1.301   9.549   7.241 -0.2535  0.3617  0.0958
   96POPC   C4A 1641   0.973   9.757   6.934  0.2114 -0.1003 -0.1226
   96POPC   C1B 1642   2.028   8.737   7.419 -0.1051  0.3525  0.0640
   96POPC   C2B 1643   2.068   9.036   7.055  0.0310 -0.0003 -0.1499
   96POPC   C3B 1644   1.978   9.468   6.928 -0.0772  0.0028 -0.2910
   96POPC   C4B 1645   1.681   9.793   7.006  0.1343  0.1033  0.3634
   97POPC   NC3 1646   8.637   0.998   9.681 -0.0914 -0.1272  0.0174
   97POPC   PO4 1647   8.879   1.283   9.439  0.1902  0.1009  0.0053
   97POPC   GL1 1648   8.711   0.808   9.243 -0.2631  0.0491 -0.2002
   97POPC   GL2 1649   8.667   0.818   8.965  0.2680 -0.1718 -0.2667
   97POPC   C1A 1650   8.523   0.409   9.265  0.0613 -0.1892 -0.1240
   97POPC   D2A 1651   8.589  -0.034   9.242  0.0942  0.1413 -0.0363
   97POPC   C3A 1652   8.954  -0.178   9.135 -0.0070  0.0971  0.1087
   97POPC   C4A 1653   9.047   0.002   8.770 -0.1855  0.1104  0.2864
   97POPC   C1B 1654   8.667   0.700   8.575  0.1038  0.1107  0.0741
   97POPC   C2B 1655   8.716   0.626   8.170 -0.0804  0.2217  0.1211
   97POPC   C3B 1656   8.821   0.351   7.861 -0.1897 -0.1149  0.0599
   97POPC   C4B 1657   8.800   0.329   7.430  0.0845  0.1697 -0.1956
   98POPC   NC3 1658   2.059   1.099   8.666  0.2408  0.0602 -0.3695
   98POPC   PO4 1659   1.738   1.457   8.599  0.0070 -0.0171  0.1377
   98POPC   GL1 1660   1.859   1.364   8.273  0.1478  0.1307 -0.0689
   98POPC   GL2 1661   1.788   1.140   8.086  0.1514  0.1958 -0.0259
   98POPC   C1A 1662   2.275   1.404   8.045  0.1740 -0.2937 -0.0059
   98POPC   D2A 1663   2.410   1.726   7.861 -0.0427  0.0282  0.1271
   98POPC   C3A 1664   2.545   1.912   7.501 -0.0035 -0.3357 -0.1413
   98POPC   C4A 1665   2.569   2.043   7.150  0.3300  0.0753  0.3010
   98POPC   C1B 1666   1.987   1.144   7.748 -0.4016  0.1023  0.0645
   98POPC   C2B 1667   1.828   1.187   7.361  0.2079 -0.0311 -0.4342
   98POPC   C3B 1668   1.599   1.313   7.066  0.1524  0.0999 -0.1254
   98POPC   C4B 1669   1.214   1.306   7.086  0.0285  0.0337  0.3365
   99POPC   NC3 1670   7.224   6.171   9.738  0.2598  0.1518  0.1687
   99POPC   PO4 1671   7.566   6.284   9.601  0.1255 -0.2421  0.1468
   99POPC   GL1 1672   7.629   6.364   9.134 -0.0892  0.2753 -0.3479
   99POPC   GL2 1673   7.857   6.413   8.939  0.2219  0.1699 -0.0896
   99POPC   C1A 1674   7.470   6.525   8.713 -0.1727  0.3313  0.0080
   99POPC   D2A 1675   7.280   6.447   8.328 -0.0599  0.1888  0.1881
   99POPC   C3A 1676   7.515   6.565   7.906  0.1192 -0.2148  0.1290
   99POPC   C4A 1677   7.655   6.599   7.596 -0.2573  0.0820 -0.1115
   99POPC   C1B 1678   7.848   6.266   8.553  0.0998  0.1218  0.1175
   99POPC   C2B 1679   7.680   6.172   8.204 -0.0981 -0.0172  0.0653
   99POPC   C3B 1680   7.451   6.063   7.914  0.0068  0.0429  0.3072
   99POPC   C4B 1681   7.479   5.876   7.464  0.1092  0.2126  0.0454
  100POPC   NC3 1682   2.089   3.817   8.773 -0.1215  0.1160 -0.2367
  100POPC   PO4 1683   2.379   3.413   8.869  0.2191  0.2667 -0.0188
  100POPC   GL1 1684   2.376   3.347   8.437  0.0596  0.0290 -0.1196
  100POPC   GL2 1685   2.272   3.669   8.336  0.0725  0.1543  0.4023
  100POPC   C1A 1686   2.419   3.261   8.035  0.0271  0.2236  0.2191
  100POPC   D2A 1687   2.538   3.409   7.709  0.1642 -0.0879 -0.0804
  100POPC   C3A 1688   2.328   3.512   7.420  0.0118  0.1038  0.0641
  100POPC   C4A 1689   2.094   3.701   7.042  0.1905 -0.0004  0.0145
  100POPC   C1B 1690   2.109   3.679   7.913 -0.0306 -0.0104 -0.0105
  100POPC   C2B 1691   2.002   3.897   7.530 -0.0764  0.1013  0.0599
  100POPC   C3B 1692   1.704   4.130   7.406  0.3883  0.3104  0.1194
  100POPC   C4B 1693   1.661   4.491   7.655  0.0708  0.0227  0.1804
  101POPC   NC3 1694   1.119   1.243   8.680  0.0891  0.0353 -0.0153
  101POPC   PO4 1695   1.515   1.016   8.505 -0.1039 -0.0171  0.3371
  101POPC   GL1 1696   1.327   1.131   8.194 -0.0501 -0.2425 -0.1035
  101POPC   GL2 1697   1.092   1.135   7.909 -0.0014 -0.0244  0.1359
  101POPC   C1A 1698   1.481   1.473   7.856  0.3715 -0.1163 -0.0454
  101POPC   D2A 1699   1.396   1.633   7.449  0.2118  0.1208  0.1417
  101POPC   C3A 1700   1.555   1.819   7.124  0.0831  0.2310  0.0570
  101POPC   C4A 1701   1.690   1.678   6.701 -0.1091  0.2785 -0.2261
  101POPC   C1B 1702   1.404   1.004   7.584  0.1403  0.1111  0.3497
  101POPC   C2B 1703   1.481   0.850   7.185 -0.0746  0.1039 -0.0434
  101POPC   C3B 1704   1.815   0.889   6.868  0.0757  0.4379 -0.1654
  101POPC   C4B 1705   2.095   0.823   6.497  0.1642 -0.2782 -0.0749
  102POPC   NC3 1706   0.633   0.462   8.156 -0.4418  0.1351  0.0916
  102POPC   PO4 1707   0.932   0.832   8.326 -0.2584 -0.0709 -0.1186
  102POPC   GL1 1708   1.121   0.615   7.963 -0.0360 -0.2183  0.0646
  102POPC   GL2 1709   1.355   0.531   8.051 -0.0606 -0.3658 -0.0242
  102POPC   C1A 1710   1.014   0.705   7.565  0.4957 -0.0113 -0.0995
  102POPC   D2A 1711   0.984   0.816   7.175  0.0061 -0.1173 -0.2774
  102POPC   C3A 1712   0.804   1.128   6.908  0.1497 -0.1714 -0.0224
  102POPC   C4A 1713   0.958   1.490   6.616 -0.1075  0.0324 -0.0804
  102POPC   C1B 1714   1.401   0.383   7.546  0.1169 -0.1206  0.1834
  102POPC   C2B 1715   1.283   0.379   7.140  0.0391  0.1087  0.0037
  102POPC   C3B 1716   0.983   0.418   6.855 -0.4018  0.0422 -0.0332
  102POPC   C4B 1717   0.949   0.151   6.527  0.0670  0.0506  0.2950
  103POPC   NC3 1718   7.535   7.218   9.440 -0.2970  0.1287 -0.0318
  103POPC   PO4 1719   7.145   7.349   9.429  0.1510  0.1415  0.2935
  103POPC   GL1 1720   7.257   7.265   9.043 -0.1641  0.4447 -0.2526
  103POPC   GL2 1721   7.548   7.350   9.004 -0.3457 -0.4184  0.1188
  103POPC   C1A 1722   7.182   7.108   8.533 -0.2309 -0.0179 -0.1931
  103POPC   D2A 1723   7.394   6.927   8.208  0.2516 -0.1178 -0.2370
  103POPC   C3A 1724   7.842   6.980   7.917 -0.1092  0.3892  0.0872
  103POPC   C4A 1725   8.126   7.219   7.654  0.2536  0.2474  0.0152
  103POPC   C1B 1726   7.527   7.630   8.744 -0.0645  0.1720 -0.2274
  103POPC   C2B 1727   7.355   7.726   8.372  0.1116 -0.1044 -0.0707
  103POPC   C3B 1728   7.572   7.925   8.034  0.2146  0.0361 -0.2784
  103POPC   C4B 1729   7.501   8.101   7.717 -0.2295  0.2439 -0.1800
  104POPC   NC3 1730   2.477   0.246   8.682 -0.0168  0.1196  0.0449
  104POPC   PO4 1731   2.190   0.590   8.559  0.1030  0.0259 -0.1645
  104POPC   GL1 1732   2.472   0.476   8.195  0.2022 -0.1750 -0.2234
  104POPC   GL2 1733   2.582   0.091   8.173 -0.0976  0.1485 -0.1771
  104POPC   C1A 1734   2.622   0.514   7.807  0.1497 -0.2190  0.1530
  104POPC   D2A 1735   2.407   0.540   7.461 -0.0777  0.0990  0.1173
  104POPC   C3A 1736   2.180   0.849   7.323 -0.1654  0.4581 -0.3838
  104POPC   C4A 1737   2.271   1.106   7.005  0.2503  0.2561  0.1331
  104POPC   C1B 1738   2.730  -0.038   7.701 -0.2041 -0.0514  0.1591
  104POPC   C2B 1739   2.509   0.044   7.323 -0.0112  0.0992  0.2062
  104POPC   C3B 1740   2.651   0.412   7.052  0.0898 -0.0772 -0.0668
  104POPC   C4B 1741   2.719   0.850   6.921  0.0934  0.1281  0.1028
  105POPC   NC3 1742  10.070   9.884   8.913 -0.1816  0.1735  0.3945
  105POPC   PO4 1743  10.281  10.125   8.566  0.2897  0.0857 -0.2724
  105POPC   GL1 1744  10.014  10.232   8.403 -0.0671  0.1390  0.3235
  105POPC   GL2 1745   9.735  10.086   8.600 -0.0654 -0.1115 -0.2700
  105POPC   C1A 1746   9.802  10.409   8.128  0.3361 -0.1275  0.1877
  105POPC   D2A 1747   9.636  10.709   7.908 -0.1506  0.1286  0.2207
  105POPC   C3A 1748   9.987  10.749   7.653  0.0183  0.3392  0.1787
  105POPC   C4A 1749  10.140  11.031   7.350  0.0511  0.0445  0.0465
  105POPC   C1B 1750   9.567   9.974   8.305 -0.1364  0.0748  0.1661
  105POPC   C2B 1751   9.640   9.544   8.109 -0.0962  0.0206  0.1025
  105POPC   C3B 1752   9.867   9.369   7.789  0.0283 -0.1423  0.1138
  105POPC   C4B 1753  10.289   9.435   7.932  0.2254 -0.0195  0.2911
  106POPC   NC3 1754   6.952   0.322  10.100  0.2296  0.0452 -0.1597
  106POPC   PO4 1755   6.984   0.711  10.118 -0.2041 -0.1404  0.0889
  106POPC   GL1 1756   7.191   0.568   9.693  0.0210  0.1145  0.1956
  106POPC   GL2 1757   7.220   0.291   9.674  0.1371  0.1331 -0.0088
  106POPC   C1A 1758   7.393   0.624   9.302 -0.2238  0.1233 -0.1233
  106POPC   D2A 1759   7.671   0.957   9.207 -0.0073 -0.0811  0.2310
  106POPC   C3A 1760   7.973   0.970   8.885 -0.2565  0.1003 -0.0882
  106POPC   C4A 1761   8.223   0.647   8.747 -0.0786  0.0440 -0.0553
  106POPC   C1B 1762   7.513   0.164   9.474 -0.0313  0.2417  0.0270
  106POPC   C2B 1763   7.819   0.065   9.171  0.1348  0.3802  0.0212
  106POPC   C3B 1764   8.137   0.169   8.953  0.1786 -0.0659 -0.2096
  106POPC   C4B 1765   8.522   0.243   8.794  0.0003 -0.1972 -0.0961
  107POPC   NC3 1766   0.995   4.993   8.833  0.0946 -0.0239 -0.0886
  107POPC   PO4 1767   0.667   5.200   9.008 -0.2923  0.1760 -0.1918
  107POPC   GL1 1768   0.525   5.085   8.588  0.0160 -0.2241 -0.2698
  107POPC   GL2 1769   0.725   4.815   8.472  0.0040 -0.3892  0.2345
  107POPC   C1A 1770   0.349   5.144   8.170 -0.1619  0.0301  0.0053
  107POPC   D2A 1771   0.278   4.931   7.798 -0.0071 -0.2985 -0.0989
  107POPC   C3A 1772   0.170   5.109   7.467  0.3722 -0.1109 -0.3550
  107POPC   C4A 1773  -0.068   5.050   7.043  0.1568 -0.0381  0.0744
  107POPC   C1B 1774   0.722   4.679   8.024  0.0132  0.1977 -0.0284
  107POPC   C2B 1775   0.662   4.663   7.582  0.3207 -0.1252  0.0254
  107POPC   C3B 1776   0.410   4.319   7.357  0.1104  0.0666 -0.0963
  107POPC   C4B 1777   0.059   3.940   7.209  0.0490  0.0885 -0.2455
  108POPC   NC3 1778   4.861   8.078   8.853 -0.2235 -0.0684  0.0103
  108POPC   PO4 1779   4.561   8.513   8.911 -0.0067 -0.2309  0.0036
  108POPC   GL1 1780   4.373   8.304   8.579 -0.1585 -0.2714  0.1199
  108POPC   GL2 1781   4.051   8.514   8.479  0.1617 -0.2466 -0.0439
  108POPC   C1A 1782   4.231   8.308   8.044  0.2823 -0.2164  0.0680
  108POPC   D2A 1783   4.186   8.287   7.622  0.0141 -0.1596  0.1961
  108POPC   C3A 1784   4.346   8.596   7.309 -0.3315 -0.1927 -0.2277
  108POPC   C4A 1785   4.542   8.838   6.997 -0.0916 -0.1192 -0.1145
  108POPC   C1B 1786   4.082   8.748   8.095 -0.0358  0.3262 -0.0850
  108POPC   C2B 1787   3.921   8.762   7.647  0.0194  0.0920  0.2061
  108POPC   C3B 1788   3.925   8.697   7.062 -0.4889  0.0389  0.1333
  108POPC   C4B 1789   4.223   8.467   6.842  0.3552 -0.0578  0.0690
  109POPC   NC3 1790   0.295   7.790   8.533 -0.0476  0.0716  0.0249
  109POPC   PO4 1791   0.119   7.734   8.865  0.0263 -0.0405 -0.3216
  109POPC   GL1 1792  -0.208   7.881   8.459  0.0321 -0.0507 -0.2264
  109POPC   GL2 1793  -0.349   7.602   8.442  0.1224  0.0672 -0.2637
  109POPC   C1A 1794  -0.336   7.920   8.065  0.0554 -0.1193  0.1599
  109POPC   D2A 1795  -0.392   8.215   7.850  0.1226  0.3208 -0.2157
  109POPC   C3A 1796  -0.235   8.405   7.510 -0.1590 -0.0934 -0.3403
  109POPC   C4A 1797  -0.228   8.339   7.142  0.0606  0.1496  0.3910
  109POPC   C1B 1798  -0.686   7.394   8.189 -0.0369  0.2092  0.1139
  109POPC   C2B 1799  -0.893   7.307   7.795  0.0861 -0.0202 -0.0595
  109POPC   C3B 1800  -1.150   7.521   7.457  0.1290 -0.1940  0.0923
  109POPC   C4B 1801  -1.488   7.480   7.164  0.0865 -0.4141 -0.1430
  110POPC   NC3 1802   6.857   6.813   9.584 -0.2359  0.0700  0.1135
  110POPC   PO4 1803   6.819   6.493   9.654  0.1603  0.2649  0.3428
  110POPC   GL1 1804   6.703   6.583   9.164 -0.1436  0.1012 -0.1577
  110POPC   GL2 1805   6.504   6.599   8.872 -0.1385 -0.2762  0.1696
  110POPC   C1A 1806   6.954   6.441   8.661 -0.0230 -0.2087 -0.1176
  110POPC   D2A 1807   6.792   6.278   8.215 -0.0568 -0.2892  0.1027
  110POPC   C3A 1808   6.997   6.322   7.889 -0.0888 -0.1582  0.1257
  110POPC   C4A 1809   7.128   6.514   7.525 -0.0558  0.3921  0.0886
  110POPC   C1B 1810   6.731   6.908   8.734 -0.2243  0.0217  0.1190
  110POPC   C2B 1811   6.612   7.161   8.382 -0.0376 -0.0859 -0.2449
  110POPC   C3B 1812   6.538   7.556   8.080  0.0077  0.0897  0.0591
  110POPC   C4B 1813   6.399   7.646   7.634 -0.0064 -0.2008 -0.0855
  111POPC   NC3 1814   5.975   4.990   9.742 -0.3238 -0.1138  0.1026
  111POPC   PO4 1815   6.174   4.914   9.241 -0.0036  0.2655  0.2845
  111POPC   GL1 1816   6.376   4.915   8.847 -0.0840 -0.0437 -0.2058
  111POPC   GL2 1817   6.178   4.847   8.671  0.1259  0.0715 -0.1574
  111POPC   C1A 1818   6.555   5.060   8.442 -0.0407 -0.1926  0.0903
  111POPC   D2A 1819   6.549   5.304   8.044 -0.2785 -0.0232  0.0676
  111POPC   C3A 1820   6.673   5.761   8.029 -0.1319 -0.0009 -0.1362
  111POPC   C4A 1821   6.837   5.936   7.503 -0.1256  0.3300 -0.0396
  111POPC   C1B 1822   6.286   4.564   8.316 -0.2104 -0.1241  0.1394
  111POPC   C2B 1823   6.472   4.287   8.072 -0.1958  0.3111 -0.1540
  111POPC   C3B 1824   6.715   4.028   7.901  0.1595  0.0278 -0.0611
  111POPC   C4B 1825   7.042   3.967   7.688 -0.1521  0.0946  0.0909
  112POPC   NC3 1826   5.893   6.627   9.376 -0.0613  0.0145 -0.1819
  112POPC   PO4 1827   5.682   7.041   9.230  0.2560 -0.3539 -0.2930
  112POPC   GL1 1828   5.850   6.954   8.811 -0.0205 -0.0742 -0.0974
  112POPC   GL2 1829   5.635   7.165   8.607  0.0181 -0.1635 -0.0559
  112POPC   C1A 1830   6.179   6.993   8.603 -0.2826 -0.0252  0.0972
  112POPC   D2A 1831   6.128   7.190   8.272 -0.3312 -0.2285  0.1174
  112POPC   C3A 1832   6.067   7.230   7.718  0.0497 -0.1436 -0.1986
  112POPC   C4A 1833   6.331   7.357   7.248  0.3998  0.0742 -0.0894
  112POPC   C1B 1834   5.747   7.455   8.417 -0.1084  0.2142  0.0651
  112POPC   C2B 1835   5.732   7.477   8.020 -0.0493  0.0720 -0.1518
  112POPC   C3B 1836   5.925   7.676   7.576 -0.1905  0.0461  0.0425
  112POPC   C4B 1837   6.170   8.038   7.545  0.2249 -0.1251 -0.2848
  113POPC   NC3 1838   3.977   3.420   8.539  0.0858 -0.1165 -0.0333
  113POPC   PO4 1839   4.272   3.032   8.663  0.1917 -0.2436  0.1093
  113POPC   GL1 1840   4.372   3.211   8.261 -0.2332  0.2378 -0.2959
  113POPC   GL2 1841   4.437   3.475   8.342  0.1212 -0.3898 -0.0956
  113POPC   C1A 1842   4.630   3.321   7.890 -0.0668  0.2251  0.0949
  113POPC   D2A 1843   4.730   3.363   7.411  0.2040 -0.0560  0.0007
  113POPC   C3A 1844   5.058   3.630   7.571  0.1048 -0.0291 -0.1641
  113POPC   C4A 1845   5.168   3.987   7.639  0.2352 -0.0221 -0.0988
  113POPC   C1B 1846   4.155   3.583   7.951 -0.1688 -0.0098  0.1744
  113POPC   C2B 1847   4.201   3.468   7.535  0.0745  0.0607 -0.4083
  113POPC   C3B 1848   4.316   3.567   7.157  0.0745 -0.1737  0.0236
  113POPC   C4B 1849   4.506   3.971   6.847 -0.2413  0.2772 -0.3210
  114POPC   NC3 1850   1.720   1.948   8.684  0.1906 -0.2349 -0.2835
  114POPC   PO4 1851   2.064   2.203   8.861  0.2303  0.0939 -0.0101
  114POPC   GL1 1852   2.044   2.091   8.365  0.1606  0.1036 -0.0606
  114POPC   GL2 1853   2.051   1.823   8.296  0.1783 -0.0317 -0.0935
  114POPC   C1A 1854   2.152   2.157   7.892  0.1088  0.1020  0.0237
  114POPC   D2A 1855   2.173   2.255   7.531  0.1767  0.1242  0.1494
  114POPC   C3A 1856   1.962   2.085   7.174  0.1355  0.0680  0.2091
  114POPC   C4A 1857   1.793   2.269   6.753  0.0259  0.3708 -0.0316
  114POPC   C1B 1858   1.915   1.675   7.910 -0.0376  0.0344 -0.1356
  114POPC   C2B 1859   2.065   1.698   7.553  0.1951 -0.0153  0.1095
  114POPC   C3B 1860   2.331   1.455   7.345  0.2339 -0.0452 -0.1622
  114POPC   C4B 1861   2.622   1.010   7.428 -0.0486 -0.4235 -0.1792
  115POPC   NC3 1862   1.138   6.300   8.852  0.1370  0.4352  0.1138
  115POPC   PO4 1863   1.411   6.584   8.939  0.0189  0.1641 -0.0222
  115POPC   GL1 1864   1.724   6.547   8.627  0.0614 -0.0901  0.0662
  115POPC   GL2 1865   2.045   6.725   8.480 -0.0484 -0.0814 -0.0936
  115POPC   C1A 1866   1.694   6.378   8.254  0.0876  0.0565  0.2192
  115POPC   D2A 1867   1.691   6.298   7.790 -0.0880  0.0518  0.0471
  115POPC   C3A 1868   1.761   6.623   7.532  0.1276 -0.2156 -0.0544
  115POPC   C4A 1869   1.692   7.046   7.387  0.0572 -0.0812  0.2566
  115POPC   C1B 1870   1.974   6.812   8.057  0.1598  0.0767  0.1474
  115POPC   C2B 1871   2.164   6.961   7.555  0.2450 -0.4734  0.0286
  115POPC   C3B 1872   2.157   6.558   7.199  0.2258  0.4469  0.0405
  115POPC   C4B 1873   2.449   6.427   6.944  0.0610  0.2612 -0.0369
  116POPC   NC3 1874   6.670   8.048   9.385 -0.4631 -0.1463 -0.0430
  116POPC   PO4 1875   6.386   8.287   9.679  0.0422  0.2235  0.0345
  116POPC   GL1 1876   6.622   8.615   9.587  0.1405  0.0230 -0.2226
  116POPC   GL2 1877   6.800   8.536   9.196 -0.1618  0.0895 -0.0268
  116POPC   C1A 1878   6.501   9.029   9.385  0.1491  0.2165  0.0693
  116POPC   D2A 1879   6.405   9.115   8.990  0.1387 -0.2786  0.3205
  116POPC   C3A 1880   6.137   8.980   8.730  0.0920 -0.0594  0.0725
  116POPC   C4A 1881   5.754   8.791   8.878 -0.1292  0.2927  0.1020
  116POPC   C1B 1882   6.523   8.657   8.743 -0.2904 -0.0469  0.3345
  116POPC   C2B 1883   6.184   8.539   8.417  0.2238 -0.1483 -0.0166
  116POPC   C3B 1884   5.850   8.240   8.421  0.0665 -0.3325  0.1605
  116POPC   C4B 1885   5.552   7.896   8.471  0.1210 -0.0336  0.0122
  117POPC   NC3 1886   1.929   5.514   9.331 -0.0043  0.2946  0.1312
  117POPC   PO4 1887   1.481   5.644   9.170  0.1394  0.1188  0.0663
  117POPC   GL1 1888   1.690   5.715   8.834  0.0117 -0.2520  0.0211
  117POPC   GL2 1889   1.614   6.073   8.837  0.0967  0.0581 -0.1034
  117POPC   C1A 1890   1.885   5.663   8.416  0.0153  0.2167  0.2617
  117POPC   D2A 1891   1.952   5.884   8.127 -0.1424 -0.2025  0.1374
  117POPC   C3A 1892   1.989   5.913   7.642  0.1453  0.1901 -0.0427
  117POPC   C4A 1893   2.200   6.048   7.245 -0.2618  0.4137  0.0246
  117POPC   C1B 1894   2.060   6.155   8.589  0.1181 -0.1715 -0.1385
  117POPC   C2B 1895   2.196   6.370   8.125  0.0213 -0.1149 -0.4787
  117POPC   C3B 1896   2.189   6.454   7.704  0.1143 -0.1793  0.0764
  117POPC   C4B 1897   2.600   6.440   7.439  0.0024 -0.3226 -0.3101
  118POPC   NC3 1898   5.923   7.875   9.070  0.1424  0.4155 -0.2899
  118POPC   PO4 1899   6.218   8.092   9.123 -0.0572  0.0855  0.1245
  118POPC   GL1 1900   6.348   7.930   8.815 -0.0992  0.0096  0.3905
  118POPC   GL2 1901   6.666   7.863   8.916  0.2365 -0.0785 -0.2666
  118POPC   C1A 1902   6.420   8.026   8.430  0.1440 -0.2287  0.1082
  118POPC   D2A 1903   6.485   8.094   8.052  0.0389  0.0742  0.1748
  118POPC   C3A 1904   6.087   8.395   7.886  0.0720  0.1148 -0.1587
  118POPC   C4A 1905   5.977   8.768   7.629 -0.3105 -0.1498  0.0796
  118POPC   C1B 1906   6.810   8.262   8.678 -0.2563 -0.0660 -0.0406
  118POPC   C2B 1907   7.028   8.680   8.683 -0.1153  0.1047 -0.0238
  118POPC   C3B 1908   7.013   8.905   8.324 -0.1334 -0.1251 -0.0538
  118POPC   C4B 1909   6.982   8.816   7.856  0.0629 -0.0924 -0.1419
  119POPC   NC3 1910   1.749  10.147   8.046  0.1518  0.2343  0.4196
  119POPC   PO4 1911   1.321  10.070   8.230 -0.0766 -0.0363  0.0821
  119POPC   GL1 1912   1.265  10.147   7.781 -0.0621 -0.0504 -0.0077
  119POPC   GL2 1913   1.443   9.860   7.770  0.3505 -0.0349  0.0306
  119POPC   C1A 1914   1.492  10.149   7.436  0.2037  0.0048  0.2812
  119POPC   D2A 1915   1.532  10.329   7.054 -0.0873  0.1134 -0.1249
  119POPC   C3A 1916   1.765  10.204   6.776  0.0081  0.0311 -0.0194
  119POPC   C4A 1917   1.796   9.855   6.416  0.0472  0.2272 -0.1839
  119POPC   C1B 1918   1.795   9.676   7.503  0.0452 -0.3006 -0.3648
  119POPC   C2B 1919   2.141   9.916   7.233 -0.2087 -0.0429  0.4898
  119POPC   C3B 1920   2.267   9.953   6.808 -0.0304 -0.0098  0.0985
  119POPC   C4B 1921   2.576  10.071   6.462  0.0057 -0.0192 -0.1165
  120POPC   NC3 1922   5.155   4.042   8.985  0.1386  0.2039 -0.1728
  120POPC   PO4 1923   4.677   4.041   8.902  0.1226  0.5102  0.4102
  120POPC   GL1 1924   4.497   3.953   8.470 -0.1360  0.0131  0.1525
  120POPC   GL2 1925   4.119   3.954   8.396 -0.2196 -0.0221  0.1692
  120POPC   C1A 1926   4.706   3.863   7.980  0.5476 -0.0362 -0.0816
  120POPC   D2A 1927   4.600   3.870   7.559  0.0232  0.1452 -0.2145
  120POPC   C3A 1928   4.882   3.908   7.148  0.0078  0.2465  0.0145
  120POPC   C4A 1929   5.292   4.049   7.096  0.2587 -0.0543  0.1318
  120POPC   C1B 1930   4.262   4.158   7.990 -0.2557 -0.1273 -0.0891
  120POPC   C2B 1931   4.231   4.449   7.634  0.0318 -0.3190  0.3241
  120POPC   C3B 1932   4.153   4.701   7.336 -0.0540  0.1647 -0.2057
  120POPC   C4B 1933   4.154   4.894   6.829  0.2686 -0.0301 -0.1360
  121POPC   NC3 1934   4.452   0.812   9.018  0.0198 -0.1645  0.1914
  121POPC   PO4 1935   4.153   1.129   8.771  0.1104 -0.2298 -0.0271
  121POPC   GL1 1936   4.423   1.241   8.380  0.2700  0.1974 -0.0698
  121POPC   GL2 1937   4.576   1.639   8.338 -0.1464  0.0929  0.1872
  121POPC   C1A 1938   4.708   1.163   8.209 -0.0247 -0.0132  0.2833
  121POPC   D2A 1939   4.808   1.285   7.815  0.2522 -0.1177 -0.1563
  121POPC   C3A 1940   4.944   1.179   7.370 -0.0157 -0.2159  0.2695
  121POPC   C4A 1941   4.786   1.208   6.985 -0.1277 -0.1852 -0.0342
  121POPC   C1B 1942   4.383   1.552   7.926 -0.1022 -0.3352  0.0752
  121POPC   C2B 1943   4.163   1.505   7.460 -0.6242  0.2654 -0.0467
  121POPC   C3B 1944   4.529   1.532   7.229 -0.2072 -0.4762  0.1771
  121POPC   C4B 1945   4.921   1.733   6.928 -0.1124 -0.2662  0.1320
  122POPC   NC3 1946   0.677   9.896   8.564  0.2439  0.0060 -0.1258
  122POPC   PO4 1947   0.335  10.122   8.520 -0.2938  0.1569  0.3636
  122POPC   GL1 1948   0.163  10.026   8.101 -0.0312 -0.1986 -0.1386
  122POPC   GL2 1949  -0.160   9.893   8.054 -0.2849 -0.4050  0.4424
  122POPC   C1A 1950   0.142   9.950   7.629 -0.1261 -0.2467 -0.1316
  122POPC   D2A 1951   0.114   9.830   7.206  0.2495  0.2119 -0.0064
  122POPC   C3A 1952   0.181   9.406   6.950 -0.3414  0.0810  0.0130
  122POPC   C4A 1953   0.014   9.009   6.873 -0.0054 -0.1451 -0.0156
  122POPC   C1B 1954  -0.532   9.916   7.906 -0.0325 -0.0164 -0.1599
  122POPC   C2B 1955  -0.807   9.692   7.574  0.1636 -0.1474  0.0367
  122POPC   C3B 1956  -1.057   9.412   7.556  0.1722 -0.0275 -0.0639
  122POPC   C4B 1957  -1.441   9.239   7.590  0.0874  0.0008  0.1051
  123POPC   NC3 1958   1.049   0.360   8.461 -0.2445 -0.1781  0.2184
  123POPC   PO4 1959   1.064   0.167   8.120 -0.0733 -0.1359 -0.1241
  123POPC   GL1 1960   0.766   0.213   7.764 -0.1824  0.0877 -0.0594
  123POPC   GL2 1961   0.448   0.007   7.940 -0.2434  0.0422 -0.0111
  123POPC   C1A 1962   0.768   0.374   7.317 -0.1006 -0.2985  0.2031
  123POPC   D2A 1963   0.562   0.584   6.941  0.0300  0.4022  0.1292
  123POPC   C3A 1964   0.560   0.473   6.565  0.1133  0.0976 -0.0299
  123POPC   C4A 1965   0.359   0.424   6.067 -0.1378  0.0344  0.2280
  123POPC   C1B 1966   0.491  -0.085   7.448  0.2245  0.4499  0.1226
  123POPC   C2B 1967   0.576  -0.379   7.128  0.3445  0.1106 -0.0928
  123POPC   C3B 1968   0.501  -0.715   6.781 -0.2647 -0.2562  0.0560
  123POPC   C4B 1969   0.498  -1.080   6.526 -0.2364  0.2025  0.2974
  124POPC   NC3 1970   9.370   8.081  10.064  0.0396 -0.1111 -0.3981
  124POPC   PO4 1971   8.981   8.057   9.889 -0.0174  0.2440  0.0708
  124POPC   GL1 1972   8.721   8.182   9.598 -0.2838  0.3228 -0.1234
  124POPC   GL2 1973   8.815   8.496   9.518  0.4634  0.2240  0.2375
  124POPC   C1A 1974   8.643   8.280   9.081 -0.1461 -0.0379 -0.0205
  124POPC   D2A 1975   8.381   8.149   8.756 -0.0858  0.4980  0.4729
  124POPC   C3A 1976   8.128   8.181   8.333  0.3581 -0.1273 -0.0339
  124POPC   C4A 1977   7.751   8.308   8.252  0.1223 -0.1579  0.3385
  124POPC   C1B 1978   8.416   8.664   9.427 -0.1986  0.2449  0.1964
  124POPC   C2B 1979   8.186   8.529   9.062  0.0206 -0.1744  0.2316
  124POPC   C3B 1980   7.746   8.475   8.760  0.1899 -0.0920  0.1816
  124POPC   C4B 1981   7.563   8.603   8.544 -0.1719 -0.2583  0.1972
  125POPC   NC3 1982   3.502   6.095   8.697  0.1875 -0.1859  0.0067
  125POPC   PO4 1983   3.704   5.642   8.666 -0.2731  0.0765 -0.2395
  125POPC   GL1 1984   3.725   5.830   8.348  0.2489 -0.2558 -0.3443
  125POPC   GL2 1985   3.329   5.750   8.295  0.1364  0.0184 -0.2642
  125POPC   C1A 1986   3.977   6.016   8.024  0.1430 -0.0528 -0.1814
  125POPC   D2A 1987   4.093   6.128   7.589 -0.0796  0.1066  0.5201
  125POPC   C3A 1988   4.113   6.618   7.477  0.1781 -0.4178 -0.0712
  125POPC   C4A 1989   3.998   6.703   7.187  0.3431  0.2312  0.0171
  125POPC   C1B 1990   3.547   5.606   7.906 -0.0428  0.1621  0.2167
  125POPC   C2B 1991   3.905   5.587   7.589 -0.4802  0.0352 -0.0249
  125POPC   C3B 1992   3.912   5.682   7.218  0.1746  0.1465 -0.1137
  125POPC   C4B 1993   3.818   5.867   6.838 -0.2389 -0.0837 -0.2505
  126POPC   NC3 1994   5.419   8.482   9.470 -0.0238 -0.1233 -0.2695
  126POPC   PO4 1995   5.174   8.283   9.223 -0.0702  0.3246 -0.2302
  126POPC   GL1 1996   5.268   8.300   8.702 -0.2774 -0.0132  0.0698
  126POPC   GL2 1997   5.053   8.498   8.732 -0.0385 -0.3368 -0.2040
  126POPC   C1A 1998   5.329   8.350   8.245 -0.0803 -0.2714 -0.2239
  126POPC   D2A 1999   5.612   8.578   7.871 -0.5966 -0.4119 -0.0033
  126POPC   C3A 2000   5.514   8.678   7.486 -0.1812 -0.0328 -0.1242
  126POPC   C4A 2001   5.350   9.085   7.214  0.1329  0.3054 -0.1202
  126POPC   C1B 2002   5.298   8.842   8.586  0.0286  0.1895  0.1473
  126POPC   C2B 2003   5.676   8.874   8.293  0.0527  0.3273 -0.0788
  126POPC   C3B 2004   5.964   8.926   8.105  0.0993 -0.2249  0.1829
  126POPC   C4B 2005   6.212   9.227   7.887  0.1396  0.1134  0.1731
  127POPC   NC3 2006   8.861   0.727  10.140 -0.0707 -0.2170 -0.1491
  127POPC   PO4 2007   9.116   0.768   9.685  0.0486  0.3379 -0.1546
  127POPC   GL1 2008   9.214   0.801   9.321 -0.3202 -0.1315  0.1880
  127POPC   GL2 2009   9.043   0.478   9.116  0.4288  0.0653  0.1800
  127POPC   C1A 2010   9.111   1.007   8.844  0.0061  0.0767  0.0221
  127POPC   D2A 2011   9.035   0.985   8.379 -0.0508  0.0966  0.1538
  127POPC   C3A 2012   8.616   1.115   8.226  0.2922  0.0417 -0.0551
  127POPC   C4A 2013   8.332   1.121   7.981 -0.2593  0.0014  0.2621
  127POPC   C1B 2014   9.086   0.521   8.650  0.1263 -0.0387  0.0806
  127POPC   C2B 2015   9.224   0.472   8.202 -0.2652 -0.0134  0.0585
  127POPC   C3B 2016   9.227   0.593   7.877 -0.0828  0.2028 -0.2152
  127POPC   C4B 2017   9.121   0.754   7.390 -0.1708 -0.3398  0.1089
  128POPC   NC3 2018   4.766  10.022  10.004 -0.1321  0.0716 -0.1335
  128POPC   PO4 2019   4.785  10.083   9.592  0.0224  0.0671 -0.2178
  128POPC   GL1 2020   4.977  10.264   9.234 -0.0818 -0.0552 -0.0075
  128POPC   GL2 2021   4.749  10.386   8.986 -0.0185  0.2064 -0.1105
  128POPC   C1A 2022   5.275  10.317   8.916  0.0873 -0.0602  0.1116
  128POPC   D2A 2023   5.450  10.607   8.684  0.0443  0.3702  0.1131
  128POPC   C3A 2024   5.287  10.656   8.276 -0.1247 -0.3135 -0.0473
  128POPC   C4A 2025   5.097  10.712   7.945 -0.0809  0.2139 -0.1213
  128POPC   C1B 2026   4.845  10.315   8.611  0.0565 -0.0403  0.3635
  128POPC   C2B 2027   5.242  10.223   8.394  0.0442 -0.0090 -0.2691
  128POPC   C3B 2028   5.477  10.196   8.031 -0.0984  0.0687  0.0963
  128POPC   C4B 2029   5.422  10.352   7.770 -0.2310 -0.3628 -0.1558
  129POPC   NC3 2030   4.630   6.150   8.703  0.2378 -0.3010  0.3234
  129POPC   PO4 2031   4.423   6.582   8.763  0.1127  0.0045  0.3528
  129POPC   GL1 2032   4.346   6.427   8.319  0.1525 -0.0073  0.2045
  129POPC   GL2 2033   4.393   6.123   8.251 -0.0752 -0.3003  0.1581
  129POPC   C1A 2034   4.108   6.483   7.949 -0.0124 -0.0498 -0.1019
  129POPC   D2A 2035   3.683   6.647   7.748  0.1300 -0.0431  0.2113
  129POPC   C3A 2036   3.550   6.445   7.459  0.1335 -0.1603  0.0776
  129POPC   C4A 2037   3.707   6.263   7.235  0.3040 -0.1959  0.2118
  129POPC   C1B 2038   4.550   6.180   7.840 -0.1135  0.1224 -0.2134
  129POPC   C2B 2039   4.565   6.415   7.518 -0.1324  0.3004 -0.1802
  129POPC   C3B 2040   4.592   6.714   7.225  0.1258  0.0175  0.1341
  129POPC   C4B 2041   4.394   6.881   6.930  0.1701 -0.4879  0.0965
  130POPC   NC3 2042   6.371   3.955   9.554  0.0406  0.0457 -0.2381
  130POPC   PO4 2043   6.697   3.841   9.229  0.0820 -0.1935 -0.0968
  130POPC   GL1 2044   6.891   3.810   8.853 -0.3374 -0.0363  0.4171
  130POPC   GL2 2045   6.706   3.498   8.738  0.1061 -0.2565  0.0743
  130POPC   C1A 2046   6.998   3.744   8.399 -0.1263  0.0925  0.0966
  130POPC   D2A 2047   7.371   3.578   8.020 -0.0726  0.1731 -0.1957
  130POPC   C3A 2048   7.376   3.176   7.936  0.1753 -0.1486  0.0437
  130POPC   C4A 2049   7.160   2.886   7.626 -0.0486 -0.1678 -0.1636
  130POPC   C1B 2050   6.360   3.313   8.497 -0.0790 -0.0340 -0.3629
  130POPC   C2B 2051   5.907   3.465   8.265  0.3352  0.3588  0.2914
  130POPC   C3B 2052   5.488   3.476   8.108 -0.0981 -0.1459  0.2672
  130POPC   C4B 2053   5.142   3.676   8.072  0.0152  0.0637 -0.2595
  131POPC   NC3 2054   0.908   7.268   8.624 -0.1762  0.1307 -0.0249
  131POPC   PO4 2055   0.860   7.823   8.587  0.0694  0.0147  0.2034
  131POPC   GL1 2056   0.872   7.614   8.237 -0.0346  0.3401 -0.1975
  131POPC   GL2 2057   0.546   7.760   8.139  0.0047  0.0516 -0.0818
  131POPC   C1A 2058   1.158   7.538   7.972  0.0364  0.0243  0.1940
  131POPC   D2A 2059   1.276   7.359   7.473 -0.0375 -0.1355  0.2596
  131POPC   C3A 2060   0.959   7.166   7.263 -0.1465 -0.3570 -0.0420
  131POPC   C4A 2061   0.517   7.132   7.334 -0.1478 -0.1780 -0.1111
  131POPC   C1B 2062   0.779   7.786   7.766  0.0860  0.0897  0.1304
  131POPC   C2B 2063   0.729   7.701   7.385 -0.2132  0.0636  0.1848
  131POPC   C3B 2064   0.683   7.493   7.025  0.3075  0.0764  0.1718
  131POPC   C4B 2065   0.555   7.095   6.847  0.2053  0.3688  0.1203
  132POPC   NC3 2066   8.720   4.552   8.710 -0.0329  0.2692 -0.0021
  132POPC   PO4 2067   8.927   4.188   8.757 -0.3146 -0.1653  0.1960
  132POPC   GL1 2068   9.198   4.228   8.507  0.1428  0.0187  0.1927
  132POPC   GL2 2069   9.601   4.152   8.518 -0.2412  0.1604  0.5429
  132POPC   C1A 2070   9.153   4.227   8.051  0.4869  0.0314 -0.0463
  132POPC   D2A 2071   9.059   4.171   7.658  0.2234 -0.1070 -0.1493
  132POPC   C3A 2072   8.824   4.143   7.419  0.1112  0.0079 -0.2423
  132POPC   C4A 2073   8.605   4.180   7.068 -0.0990 -0.0331 -0.0794
  132POPC   C1B 2074   9.709   4.123   8.039  0.2201 -0.3053 -0.0542
  132POPC   C2B 2075   9.595   4.247   7.584  0.0398 -0.0024 -0.1101
  132POPC   C3B 2076   9.535   4.026   7.250  0.0879  0.3035  0.2184
  132POPC   C4B 2077   9.928   3.837   7.054  0.3569 -0.5095 -0.0970
  133POPC   NC3 2078   0.794   2.251   8.831 -0.0418 -0.1477  0.0993
  133POPC   PO4 2079   0.662   2.439   8.451 -0.3268 -0.2817  0.1037
  133POPC   GL1 2080   0.537   2.566   8.120 -0.0324 -0.3116 -0.0436
  133POPC   GL2 2081   0.306   2.709   8.081  0.1231  0.1741 -0.2934
  133POPC   C1A 2082   0.776   2.420   7.711 -0.0769  0.0451 -0.1737
  133POPC   D2A 2083   0.807   2.037   7.575  0.0477 -0.1737 -0.0870
  133POPC   C3A 2084   0.901   1.633   7.713  0.1369 -0.1131 -0.1431
  133POPC   C4A 2085   0.947   1.229   7.496  0.1994 -0.3414 -0.0485
  133POPC   C1B 2086   0.262   2.431   7.697 -0.2094  0.0194  0.0666
  133POPC   C2B 2087   0.314   2.059   7.718 -0.0348  0.2371  0.1468
  133POPC   C3B 2088   0.434   1.748   7.351 -0.2451  0.1548  0.0203
  133POPC   C4B 2089   0.531   1.600   6.910  0.1207  0.2123 -0.2753
  134POPC   NC3 2090   0.662   5.764   9.609  0.1241  0.0840  0.0648
  134POPC   PO4 2091   0.635   5.624   9.189  0.0613  0.0099 -0.0333
  134POPC   GL1 2092   0.488   5.670   8.724 -0.0264 -0.2643 -0.3266
  134POPC   GL2 2093   0.815   5.957   8.556  0.0823  0.2501  0.2944
  134POPC   C1A 2094   0.130   5.581   8.398 -0.0297  0.3490  0.2606
  134POPC   D2A 2095   0.046   5.738   8.015 -0.2484  0.0838  0.2142
  134POPC   C3A 2096   0.101   5.697   7.555 -0.0129  0.2957  0.1530
  134POPC   C4A 2097   0.427   5.751   7.373 -0.4813  0.2381 -0.0715
  134POPC   C1B 2098   0.955   6.128   8.172  0.3995  0.2082  0.0031
  134POPC   C2B 2099   1.076   6.415   7.912  0.0860 -0.0833 -0.1358
  134POPC   C3B 2100   1.005   6.535   7.471  0.1653  0.2148 -0.4570
  134POPC   C4B 2101   1.289   6.762   7.201 -0.1473  0.2181 -0.1881
  135POPC   NC3 2102   0.108   6.625   8.954  0.0547  0.1988  0.0270
  135POPC   PO4 2103  -0.255   6.951   9.030 -0.0794  0.3455  0.1150
  135POPC   GL1 2104  -0.290   6.890   8.709 -0.2641 -0.0046 -0.3558
  135POPC   GL2 2105  -0.421   7.104   8.553  0.3052 -0.0098 -0.5347
  135POPC   C1A 2106  -0.324   6.570   8.359 -0.0218 -0.3420 -0.3343
  135POPC   D2A 2107  -0.749   6.505   8.119  0.0834 -0.3217  0.4949
  135POPC   C3A 2108  -0.565   6.552   7.658 -0.0362  0.2613  0.1522
  135POPC   C4A 2109  -0.127   6.700   7.863 -0.2165  0.1181  0.0785
  135POPC   C1B 2110  -0.314   7.079   8.184 -0.3558  0.2746 -0.1969
  135POPC   C2B 2111  -0.455   7.017   7.676 -0.0475 -0.1239  0.2495
  135POPC   C3B 2112  -0.394   6.871   7.208  0.2482 -0.2831  0.1603
  135POPC   C4B 2113  -0.317   6.540   6.862 -0.2012 -0.2543  0.0777
  136POPC   NC3 2114   1.727   6.971   8.973  0.1140 -0.0621 -0.1462
  136POPC   PO4 2115   1.370   7.014   8.618 -0.1149  0.3963 -0.1207
  136POPC   GL1 2116   1.553   6.994   8.298  0.1419  0.5563 -0.1106
  136POPC   GL2 2117   1.501   6.757   7.978  0.0027  0.3527  0.0375
  136POPC   C1A 2118   1.738   7.220   7.887  0.1172 -0.0469  0.0346
  136POPC   D2A 2119   1.994   7.543   7.625  0.3634 -0.0777 -0.3327
  136POPC   C3A 2120   2.178   7.383   7.273 -0.0325 -0.3944  0.1072
  136POPC   C4A 2121   2.413   7.466   6.889  0.1051  0.1911  0.3800
  136POPC   C1B 2122   1.201   6.979   7.713 -0.4801  0.1753  0.0951
  136POPC   C2B 2123   0.804   7.252   7.793  0.0061 -0.0681 -0.4303
  136POPC   C3B 2124   0.366   7.475   7.823  0.0022  0.4349  0.0236
  136POPC   C4B 2125   0.218   7.540   7.377  0.0343 -0.2371  0.1972
  137POPC   NC3 2126   9.294   8.342   9.607 -0.0565 -0.1995  0.1209
  137POPC   PO4 2127   9.438   8.746   9.781 -0.2005  0.2186  0.0237
  137POPC   GL1 2128   9.162   8.897   9.462  0.0190  0.0881  0.2001
  137POPC   GL2 2129   9.150   9.194   9.523  0.1631 -0.0842 -0.0188
  137POPC   C1A 2130   8.769   8.799   9.116  0.4884  0.3573 -0.0330
  137POPC   D2A 2131   8.762   8.610   8.632  0.0286  0.3604 -0.2319
  137POPC   C3A 2132   8.867   8.748   8.181 -0.1762 -0.2142  0.1708
  137POPC   C4A 2133   8.662   8.764   7.735 -0.1225  0.2127  0.0707
  137POPC   C1B 2134   8.822   9.278   9.214  0.0012  0.1045 -0.0999
  137POPC   C2B 2135   8.484   9.487   9.044 -0.2448 -0.1492 -0.1044
  137POPC   C3B 2136   8.120   9.648   8.916  0.2184 -0.0761 -0.0226
  137POPC   C4B 2137   7.734   9.601   8.752 -0.0483  0.0768 -0.2331
  138POPC   NC3 2138   4.214   9.382   8.549  0.2535 -0.0138 -0.0131
  138POPC   PO4 2139   4.203   9.582   8.963  0.0803  0.0630 -0.1310
  138POPC   GL1 2140   4.721   9.445   8.837  0.0117  0.3833  0.1742
  138POPC   GL2 2141   4.779   9.497   8.501  0.0386  0.2647 -0.2272
  138POPC   C1A 2142   5.158   9.318   8.759 -0.2729 -0.1133 -0.0126
  138POPC   D2A 2143   5.681   9.313   8.711  0.0410  0.4864  0.0324
  138POPC   C3A 2144   5.942   9.519   8.836  0.2812 -0.1918 -0.1026
  138POPC   C4A 2145   6.401   9.569   8.817  0.4459  0.0507 -0.0615
  138POPC   C1B 2146   5.003   9.232   8.263 -0.0774 -0.2247 -0.1901
  138POPC   C2B 2147   5.391   9.251   8.207 -0.2688 -0.0170  0.1015
  138POPC   C3B 2148   5.880   9.420   8.275  0.2688  0.2654 -0.0794
  138POPC   C4B 2149   6.210   9.675   8.100 -0.0568 -0.0607  0.1746
  139POPC   NC3 2150   9.373   4.055   8.979 -0.1153 -0.2022  0.5166
  139POPC   PO4 2151   9.520   3.575   9.015  0.3723 -0.2690 -0.1471
  139POPC   GL1 2152   9.595   3.660   8.630  0.0327 -0.1307 -0.3206
  139POPC   GL2 2153   9.508   3.314   8.445  0.3022 -0.0141 -0.2113
  139POPC   C1A 2154   9.338   3.800   8.284 -0.0658 -0.3404  0.1141
  139POPC   D2A 2155   8.988   3.751   7.908 -0.0109 -0.0158  0.3519
  139POPC   C3A 2156   8.579   4.061   7.926  0.0584  0.0670 -0.2379
  139POPC   C4A 2157   8.185   4.054   7.749  0.2321 -0.0770 -0.1931
  139POPC   C1B 2158   9.167   3.333   8.197  0.1267  0.0437 -0.0960
  139POPC   C2B 2159   8.878   3.251   7.875  0.1918 -0.0165 -0.1756
  139POPC   C3B 2160   8.701   2.882   7.798 -0.1081  0.0402 -0.1152
  139POPC   C4B 2161   8.549   2.519   7.577 -0.0864  0.0391 -0.0964
  140POPC   NC3 2162   6.041   5.794   9.272  0.2645 -0.2586 -0.2892
  140POPC   PO4 2163   6.213   5.914   8.863  0.1216  0.0784 -0.1170
  140POPC   GL1 2164   6.380   6.152   8.497 -0.0384 -0.0665  0.2388
  140POPC   GL2 2165   6.081   6.471   8.546 -0.0169 -0.0589  0.0217
  140POPC   C1A 2166   6.339   6.181   7.966  0.0182  0.0499 -0.2268
  140POPC   D2A 2167   6.472   6.262   7.601  0.0747  0.0391 -0.2166
  140POPC   C3A 2168   6.223   6.463   7.316  0.2256 -0.2959 -0.0904
  140POPC   C4A 2169   6.131   6.896   7.232  0.0937 -0.5113 -0.0958
  140POPC   C1B 2170   6.374   6.714   8.228 -0.1467  0.0997  0.0153
  140POPC   C2B 2171   6.862   6.782   8.176 -0.0916  0.2407 -0.0402
  140POPC   C3B 2172   7.082   6.880   7.829  0.0292 -0.1436 -0.0770
  140POPC   C4B 2173   7.365   7.070   7.618 -0.1883  0.0403 -0.3403
  141POPC   NC3 2174   2.621   3.902   9.448 -0.3387 -0.1483  0.3331
  141POPC   PO4 2175   2.425   3.966   9.110  0.1402 -0.2083  0.1997
  141POPC   GL1 2176   2.654   3.905   8.680  0.1704 -0.2559 -0.0026
  141POPC   GL2 2177   2.778   3.633   8.615  0.1382 -0.2104  0.3170
  141POPC   C1A 2178   2.881   4.145   8.294 -0.2401 -0.2473 -0.2274
  141POPC   D2A 2179   2.824   4.317   8.024  0.0947  0.0973 -0.3526
  141POPC   C3A 2180   2.838   4.300   7.613 -0.0560 -0.0334  0.0134
  141POPC   C4A 2181   2.993   4.302   7.267  0.0611 -0.0317 -0.0314
  141POPC   C1B 2182   2.739   3.646   8.189 -0.0565  0.0500 -0.1341
  141POPC   C2B 2183   3.093   3.909   7.859 -0.0880 -0.0324 -0.0053
  141POPC   C3B 2184   3.263   3.926   7.493  0.0033 -0.1019  0.0049
  141POPC   C4B 2185   3.027   3.864   7.110 -0.2628  0.1135  0.1429
  142POPC   NC3 2186   0.535   4.667   8.875  0.2036  0.1602 -0.3285
  142POPC   PO4 2187   0.912   4.466   8.750 -0.0316 -0.1096  0.2088
  142POPC   GL1 2188   0.973   4.260   8.317  0.0967 -0.1710  0.1877
  142POPC   GL2 2189   0.759   4.084   8.210  0.0129  0.1049  0.0361
  142POPC   C1A 2190   1.217   4.293   7.860 -0.4165  0.2630  0.0241
  142POPC   D2A 2191   1.132   4.520   7.452  0.0231  0.0487  0.0364
  142POPC   C3A 2192   1.369   4.914   7.395 -0.0385  0.0302 -0.0649
  142POPC   C4A 2193   1.455   5.174   7.662  0.2574  0.1796 -0.6117
  142POPC   C1B 2194   0.738   4.152   7.823 -0.1487  0.1345 -0.3027
  142POPC   C2B 2195   0.612   3.916   7.492  0.2657 -0.1064 -0.0995
  142POPC   C3B 2196   0.687   4.020   7.104 -0.2354  0.1254  0.0429
  142POPC   C4B 2197   0.860   3.909   6.747  0.3787 -0.1142 -0.1620
  143POPC   NC3 2198   6.537   8.569  10.092  0.2350 -0.0813  0.1551
  143POPC   PO4 2199   6.702   8.965  10.034 -0.0476  0.1752  0.0265
  143POPC   GL1 2200   6.917   9.100   9.725 -0.3404  0.3699 -0.1553
  143POPC   GL2 2201   7.144   8.828   9.497  0.0482  0.0368  0.0795
  143POPC   C1A 2202   6.970   9.464   9.298  0.1099 -0.0721  0.0330
  143POPC   D2A 2203   7.177   9.494   8.907  0.0301 -0.1032 -0.3432
  143POPC   C3A 2204   7.169   9.522   8.443  0.2093 -0.1563  0.2949
  143POPC   C4A 2205   7.005   9.426   8.115  0.0587 -0.0604 -0.1385
  143POPC   C1B 2206   6.989   9.010   9.045 -0.0065  0.0937 -0.0550
  143POPC   C2B 2207   6.743   9.181   8.668 -0.0804 -0.1611 -0.0190
  143POPC   C3B 2208   6.501   9.245   8.300 -0.4208  0.0757 -0.0694
  143POPC   C4B 2209   6.459   8.777   8.110 -0.0200  0.1682 -0.1224
  144POPC   NC3 2210   1.911   8.896   8.381 -0.0692  0.3649  0.0203
  144POPC   PO4 2211   2.156   8.504   8.356  0.4695 -0.2370 -0.0112
  144POPC   GL1 2212   2.348   8.245   7.989  0.1293  0.1200 -0.0134
  144POPC   GL2 2213   2.352   7.890   7.802 -0.0617  0.2234  0.0980
  144POPC   C1A 2214   2.369   8.373   7.507 -0.2982  0.3146 -0.0189
  144POPC   D2A 2215   2.258   8.550   7.006  0.0413  0.1610 -0.2904
  144POPC   C3A 2216   2.418   8.403   6.610  0.0555 -0.1657  0.0991
  144POPC   C4A 2217   2.787   8.415   6.449 -0.0071  0.0133 -0.1745
  144POPC   C1B 2218   2.358   7.895   7.322  0.2050  0.2562  0.0812
  144POPC   C2B 2219   2.137   8.035   7.007  0.2368 -0.0291  0.2251
  144POPC   C3B 2220   2.182   7.860   6.581 -0.2810 -0.0062  0.0661
  144POPC   C4B 2221   2.124   7.550   6.228 -0.1196 -0.0836 -0.1186
  145POPC   NC3 2222   1.665   2.903   9.211 -0.1132 -0.2926 -0.6386
  145POPC   PO4 2223   1.397   3.100   8.962 -0.1821  0.2108  0.0152
  145POPC   GL1 2224   1.287   3.413   8.482  0.2138  0.1075 -0.2334
  145POPC   GL2 2225   0.949   3.370   8.348 -0.1286  0.0921  0.0235
  145POPC   C1A 2226   1.449   3.455   8.158 -0.1463  0.0633 -0.1685
  145POPC   D2A 2227   1.602   3.500   7.790  0.2482  0.0647 -0.1624
  145POPC   C3A 2228   1.344   3.333   7.581  0.1309  0.1622  0.0086
  145POPC   C4A 2229   1.178   3.164   7.178 -0.0261 -0.1990 -0.0531
  145POPC   C1B 2230   1.091   3.117   8.047  0.4672 -0.3059  0.1004
  145POPC   C2B 2231   0.967   2.981   7.610  0.0737 -0.1165 -0.0128
  145POPC   C3B 2232   1.040   2.612   7.247  0.1154 -0.2484  0.0035
  145POPC   C4B 2233   0.878   2.494   6.866  0.0910 -0.2391  0.1692
  146POPC   NC3 2234   5.450   3.191   9.012  0.0261  0.1710  0.4924
  146POPC   PO4 2235   5.469   3.595   8.792 -0.0937  0.0644  0.1411
  146POPC   GL1 2236   5.592   3.839   8.392 -0.2343 -0.0242 -0.0650
  146POPC   GL2 2237   5.391   4.078   8.515  0.1011  0.0277 -0.1422
  146POPC   C1A 2238   5.491   4.027   8.015  0.2356  0.0228  0.2210
  146POPC   D2A 2239   5.608   4.110   7.587  0.0443  0.0055  0.2483
  146POPC   C3A 2240   5.926   4.132   7.282 -0.2061 -0.2269 -0.1262
  146POPC   C4A 2241   6.226   4.131   6.904  0.0604  0.0570  0.0691
  146POPC   C1B 2242   5.045   4.073   8.362 -0.2808 -0.1788  0.0474
  146POPC   C2B 2243   4.820   4.304   8.262  0.0298 -0.0056 -0.2921
  146POPC   C3B 2244   4.521   4.650   8.075  0.0152 -0.2869  0.0091
  146POPC   C4B 2245   4.107   4.896   7.874  0.2126 -0.0018 -0.1786
  147POPC   NC3 2246   9.627   2.808   8.541  0.3525  0.0138  0.0006
  147POPC   PO4 2247   9.748   2.424   8.439 -0.2935  0.0086  0.2187
  147POPC   GL1 2248   9.999   2.341   8.123 -0.2592  0.0747  0.2510
  147POPC   GL2 2249  10.075   1.913   8.049  0.1862 -0.0592 -0.2688
  147POPC   C1A 2250  10.243   2.205   7.703 -0.4717  0.0125 -0.1425
  147POPC   D2A 2251  10.476   2.187   7.295 -0.1376 -0.2736 -0.0689
  147POPC   C3A 2252  10.285   2.351   6.953  0.2063  0.0845  0.0565
  147POPC   C4A 2253  10.031   1.985   6.808 -0.1306 -0.1808 -0.1040
  147POPC   C1B 2254   9.874   1.889   7.702 -0.1019  0.0327 -0.1181
  147POPC   C2B 2255   9.835   1.662   7.262  0.0556 -0.1748  0.4085
  147POPC   C3B 2256   9.517   1.540   7.103 -0.4802  0.1975 -0.0768
  147POPC   C4B 2257   9.052   1.701   7.042 -0.1456 -0.1137 -0.2612
  148POPC   NC3 2258   4.513   9.043   9.099  0.0089 -0.2923 -0.0398
  148POPC   PO4 2259   4.178   8.960   8.860 -0.0444  0.4201 -0.1599
  148POPC   GL1 2260   4.444   8.953   8.525  0.1000 -0.1992 -0.2873
  148POPC   GL2 2261   4.757   9.010   8.634  0.0776  0.0295  0.3131
  148POPC   C1A 2262   4.500   9.038   8.071  0.0725 -0.0099 -0.1558
  148POPC   D2A 2263   4.887   9.123   7.786  0.2789 -0.4471  0.0447
  148POPC   C3A 2264   4.827   9.064   7.419  0.1780 -0.2079  0.0809
  148POPC   C4A 2265   4.846   9.299   6.959 -0.2202 -0.1069  0.0970
  148POPC   C1B 2266   4.905   8.750   8.281  0.1669  0.0000  0.1584
  148POPC   C2B 2267   5.125   8.732   7.893 -0.1186  0.0290 -0.0426
  148POPC   C3B 2268   5.331   9.026   7.716 -0.1480  0.1614 -0.2726
  148POPC   C4B 2269   5.671   9.223   7.688 -0.3058  0.0122  0.1782
  149POPC   NC3 2270   0.115   3.095   9.456  0.2834  0.0017  0.1579
  149POPC   PO4 2271   0.114   3.416   9.083  0.0283 -0.0809 -0.1304
  149POPC   GL1 2272  -0.083   3.409   8.587  0.1590 -0.3344  0.1188
  149POPC   GL2 2273  -0.446   3.305   8.390 -0.0504  0.0611 -0.0933
  149POPC   C1A 2274   0.177   3.136   8.230  0.0651 -0.0277  0.3265
  149POPC   D2A 2275   0.543   3.171   7.902 -0.0406 -0.1705 -0.0700
  149POPC   C3A 2276   0.490   2.868   7.575  0.1736 -0.1409  0.0298
  149POPC   C4A 2277   0.535   2.443   7.288  0.1663  0.1417  0.3187
  149POPC   C1B 2278  -0.626   3.580   8.115  0.2956  0.2211 -0.1441
  149POPC   C2B 2279  -0.874   3.734   7.796 -0.0234  0.1474  0.0594
  149POPC   C3B 2280  -1.218   3.771   7.431  0.1420 -0.0473  0.1021
  149POPC   C4B 2281  -1.342   3.848   6.994  0.1380 -0.0771 -0.0924
  150POPC   NC3 2282   4.371   5.393   8.728  0.0937 -0.1916 -0.3108
  150POPC   PO4 2283   4.196   5.815   8.618  0.0766 -0.1240 -0.1787
  150POPC   GL1 2284   4.333   5.599   8.267  0.0702  0.2266 -0.1132
  150POPC   GL2 2285   4.672   5.750   8.432  0.2504  0.3575  0.0034
  150POPC   C1A 2286   4.284   5.528   7.959 -0.0274 -0.0483 -0.2367
  150POPC   D2A 2287   4.423   5.749   7.544 -0.3936 -0.0082 -0.0876
  150POPC   C3A 2288   4.420   5.488   7.127  0.2993  0.1013 -0.1272
  150POPC   C4A 2289   4.476   5.270   6.730  0.0189 -0.1088 -0.1461
  150POPC   C1B 2290   4.747   5.688   7.971 -0.1511 -0.4099 -0.1960
  150POPC   C2B 2291   4.855   5.510   7.576  0.1255  0.0815  0.1683
  150POPC   C3B 2292   5.165   5.723   7.293 -0.0223  0.0046 -0.0811
  150POPC   C4B 2293   5.333   5.474   7.004  0.1008  0.2037  0.0734
  151POPC   NC3 2294   3.370   2.014   9.000 -0.1360  0.0644  0.0688
  151POPC   PO4 2295   3.633   2.059   8.690 -0.2472  0.2787 -0.0628
  151POPC   GL1 2296   3.626   2.041   8.222 -0.3102 -0.0450  0.0072
  151POPC   GL2 2297   3.486   2.389   8.144 -0.1473  0.1551  0.1545
  151POPC   C1A 2298   3.589   2.050   7.800  0.0217  0.0587  0.2851
  151POPC   D2A 2299   3.623   1.885   7.307 -0.0886 -0.1544  0.0534
  151POPC   C3A 2300   4.053   1.989   7.295  0.1822 -0.1075  0.0752
  151POPC   C4A 2301   4.326   2.104   6.923  0.0145 -0.1918 -0.3080
  151POPC   C1B 2302   3.296   2.458   7.658 -0.0670  0.0090 -0.1064
  151POPC   C2B 2303   3.356   2.318   7.271  0.2641  0.1025  0.1281
  151POPC   C3B 2304   3.707   2.258   6.957  0.1582  0.0996  0.2200
  151POPC   C4B 2305   3.963   2.366   6.697  0.2466 -0.1175  0.1510
  152POPC   NC3 2306   5.984   4.531   9.003  0.0065  0.1152  0.0066
  152POPC   PO4 2307   5.559   4.282   9.028  0.1988  0.1245  0.1580
  152POPC   GL1 2308   5.700   4.584   8.586  0.2665  0.0140 -0.3447
  152POPC   GL2 2309   5.381   4.709   8.480 -0.3342  0.2035 -0.3352
  152POPC   C1A 2310   5.883   4.797   8.164  0.2807 -0.2894 -0.0783
  152POPC   D2A 2311   5.830   4.899   7.699 -0.1004  0.0184 -0.0912
  152POPC   C3A 2312   5.984   5.270   7.478  0.0725  0.0941  0.0624
  152POPC   C4A 2313   5.916   5.440   6.963 -0.0821  0.0482  0.1188
  152POPC   C1B 2314   5.405   4.537   8.103  0.1998  0.0256  0.3283
  152POPC   C2B 2315   5.062   4.453   7.834  0.2294 -0.1368  0.1983
  152POPC   C3B 2316   4.716   4.315   7.722 -0.0662 -0.0552  0.0198
  152POPC   C4B 2317   4.531   4.334   7.282 -0.2338 -0.1579  0.0045
  153POPC   NC3 2318   2.714   7.081   9.056  0.0713 -0.2565 -0.3320
  153POPC   PO4 2319   2.224   7.044   8.840 -0.0785  0.0441 -0.1418
  153POPC   GL1 2320   2.488   7.038   8.566  0.4566  0.2509 -0.3060
  153POPC   GL2 2321   2.320   7.065   8.269  0.1275 -0.1356  0.2405
  153POPC   C1A 2322   2.653   6.647   8.337 -0.1195 -0.0955 -0.1550
  153POPC   D2A 2323   2.615   6.608   7.991 -0.0886  0.1549  0.2410
  153POPC   C3A 2324   2.622   6.843   7.691  0.0608 -0.1276  0.1325
  153POPC   C4A 2325   2.634   6.873   7.162  0.2466 -0.0286 -0.2022
  153POPC   C1B 2326   2.359   7.340   7.870 -0.1172  0.0050  0.0706
  153POPC   C2B 2327   2.613   7.417   7.489  0.0254  0.0709 -0.2920
  153POPC   C3B 2328   2.820   7.707   7.194  0.0808 -0.1251 -0.2686
  153POPC   C4B 2329   3.201   7.583   6.829 -0.0348 -0.0411  0.1606
  154POPC   NC3 2330   5.331   5.483   9.058 -0.2495  0.5076  0.1460
  154POPC   PO4 2331   5.484   5.894   9.073  0.1509 -0.1594  0.2139
  154POPC   GL1 2332   5.582   5.935   8.608 -0.4189  0.4591 -0.0900
  154POPC   GL2 2333   5.886   5.980   8.495  0.0051  0.0113 -0.2595
  154POPC   C1A 2334   5.649   5.635   8.248  0.3032  0.1828  0.2320
  154POPC   D2A 2335   5.717   5.414   7.859  0.1279 -0.0717  0.2232
  154POPC   C3A 2336   5.458   5.320   7.578 -0.0926 -0.0526 -0.0262
  154POPC   C4A 2337   5.128   4.998   7.235  0.1375  0.0821 -0.2284
  154POPC   C1B 2338   5.718   6.120   8.106 -0.1816  0.1239  0.2084
  154POPC   C2B 2339   5.851   6.271   7.707  0.0139 -0.1209 -0.1895
  154POPC   C3B 2340   5.678   6.573   7.330  0.0618 -0.1899 -0.1417
  154POPC   C4B 2341   5.448   6.865   7.165 -0.0874  0.0493  0.1335
  155POPC   NC3 2342   3.975   0.158   9.259 -0.0391  0.2124 -0.0294
  155POPC   PO4 2343   4.342   0.326   9.067 -0.1220 -0.3898 -0.1144
  155POPC   GL1 2344   4.523   0.275   8.658  0.0474  0.0235  0.0612
  155POPC   GL2 2345   4.313   0.082   8.558 -0.0435  0.0252 -0.2758
  155POPC   C1A 2346   4.661   0.290   8.206 -0.1680 -0.0914 -0.2432
  155POPC   D2A 2347   4.622   0.177   7.745 -0.3014 -0.3194 -0.2611
  155POPC   C3A 2348   5.044   0.087   7.467  0.0014  0.1278  0.0349
  155POPC   C4A 2349   5.194  -0.205   7.022 -0.1216  0.2152  0.1357
  155POPC   C1B 2350   4.446  -0.148   8.176 -0.1759 -0.2178  0.0367
  155POPC   C2B 2351   4.872  -0.235   7.949 -0.3646 -0.1464 -0.1853
  155POPC   C3B 2352   4.991  -0.407   7.570  0.0564  0.2303  0.0248
  155POPC   C4B 2353   5.383  -0.421   7.436 -0.0651 -0.0187  0.2001
  156POPC   NC3 2354   2.162   9.735   8.548  0.2163  0.1196  0.1634
  156POPC   PO4 2355   2.163   9.794   8.061 -0.0506 -0.2236  0.0003
  156POPC   GL1 2356   2.305  10.114   7.790 -0.2829 -0.2290  0.1802
  156POPC   GL2 2357   2.228  10.492   7.792  0.0229 -0.0450  0.0819
  156POPC   C1A 2358   2.709   9.932   7.497 -0.1584  0.2175  0.0011
  156POPC   D2A 2359   2.972   9.990   7.170 -0.1523  0.3773 -0.1794
  156POPC   C3A 2360   3.411  10.080   7.034 -0.1272  0.1322 -0.0316
  156POPC   C4A 2361   3.791  10.019   6.747  0.1514 -0.0550 -0.0324
  156POPC   C1B 2362   2.008  10.343   7.440 -0.0582  0.2027  0.2106
  156POPC   C2B 2363   2.154  10.488   7.014  0.0093  0.0485 -0.2397
  156POPC   C3B 2364   2.244  10.465   6.566 -0.1046 -0.0230 -0.0674
  156POPC   C4B 2365   2.698  10.551   6.373 -0.0547  0.0231  0.4160
  157POPC   NC3 2366   5.529   2.738   8.729 -0.2029  0.2823  0.2037
  157POPC   PO4 2367   5.122   2.553   8.849  0.0161 -0.1518 -0.4509
  157POPC   GL1 2368   5.265   2.358   8.477  0.0184  0.2717 -0.3046
  157POPC   GL2 2369   5.587   2.262   8.546 -0.0816  0.1640 -0.4002
  157POPC   C1A 2370   5.353   2.643   8.115  0.0646  0.1763 -0.2099
  157POPC   D2A 2371   5.613   2.928   7.941 -0.1904  0.0907  0.1262
  157POPC   C3A 2372   5.784   2.868   7.480 -0.0779 -0.0619 -0.2143
  157POPC   C4A 2373   5.897   3.160   7.208  0.1198  0.0336 -0.1250
  157POPC   C1B 2374   5.854   2.405   8.200 -0.0512 -0.2314  0.0773
  157POPC   C2B 2375   6.078   2.565   7.858  0.0326  0.1019 -0.0619
  157POPC   C3B 2376   6.374   2.776   7.620 -0.0559  0.0826  0.1646
  157POPC   C4B 2377   6.639   3.001   7.351 -0.0279 -0.3297 -0.0685
  158POPC   NC3 2378   7.519   3.787   9.637  0.0836  0.4659  0.0571
  158POPC   PO4 2379   7.800   3.510   9.284  0.0108  0.2210 -0.1387
  158POPC   GL1 2380   7.640   3.598   8.850  0.0356 -0.0670  0.0469
  158POPC   GL2 2381   7.823   3.449   8.645 -0.0052 -0.4468 -0.0936
  158POPC   C1A 2382   7.549   3.784   8.416 -0.1059 -0.0536 -0.1309
  158POPC   D2A 2383   7.414   4.059   8.158 -0.0648 -0.1173  0.1525
  158POPC   C3A 2384   6.993   4.235   8.408  0.1669 -0.0646 -0.1256
  158POPC   C4A 2385   6.654   4.348   8.693 -0.4388  0.1039 -0.1465
  158POPC   C1B 2386   7.924   3.330   8.208 -0.1612  0.1836  0.2626
  158POPC   C2B 2387   7.824   3.224   7.714  0.2215 -0.1061  0.0786
  158POPC   C3B 2388   7.875   2.994   7.294  0.0636  0.0098 -0.1440
  158POPC   C4B 2389   7.861   2.841   6.885  0.3292  0.0759 -0.1142
  159POPC   NC3 2390   1.750   0.610   8.341 -0.1956 -0.0432 -0.0666
  159POPC   PO4 2391   2.025   0.225   8.254 -0.1419 -0.1280  0.0573
  159POPC   GL1 2392   2.078   0.650   7.975  0.3100  0.1520 -0.2343
  159POPC   GL2 2393   2.188   0.862   8.135 -0.2056 -0.1657 -0.1358
  159POPC   C1A 2394   1.809   0.689   7.637  0.1021  0.1214  0.0880
  159POPC   D2A 2395   1.900   0.427   7.320  0.1440  0.1163 -0.1674
  159POPC   C3A 2396   2.202   0.591   6.913  0.0316  0.0273 -0.0720
  159POPC   C4A 2397   2.517   0.550   6.572 -0.1856 -0.2109 -0.1951
  159POPC   C1B 2398   2.541   1.018   7.932 -0.0508  0.3048 -0.0973
  159POPC   C2B 2399   2.772   1.349   7.819  0.0611 -0.1698  0.0219
  159POPC   C3B 2400   2.817   1.497   7.412 -0.2277  0.0954 -0.0157
  159POPC   C4B 2401   3.014   1.292   7.030  0.1737 -0.2446 -0.1359
  160POPC   NC3 2402   9.510   4.930   9.183  0.0910  0.1842 -0.0511
  160POPC   PO4 2403   9.614   4.497   9.091 -0.3001 -0.1095  0.1551
  160POPC   GL1 2404   9.517   4.609   8.706 -0.0335 -0.2535  0.2461
  160POPC   GL2 2405   9.237   4.812   8.663  0.0963  0.0806 -0.0675
  160POPC   C1A 2406   9.479   4.584   8.246 -0.1795 -0.0640  0.0786
  160POPC   D2A 2407   9.325   4.605   7.805 -0.4021 -0.1428 -0.2509
  160POPC   C3A 2408   9.641   4.772   7.525  0.2057  0.1709  0.1081
  160POPC   C4A 2409   9.714   4.557   7.133  0.0685  0.0419  0.0553
  160POPC   C1B 2410   9.177   5.130   8.404  0.2330  0.2234  0.3670
  160POPC   C2B 2411   9.224   5.112   7.981  0.0964  0.0681  0.0421
  160POPC   C3B 2412   8.955   5.237   7.517  0.2909 -0.0206  0.2858
  160POPC   C4B 2413   8.658   5.285   7.092 -0.2283 -0.0350  0.1065
  161POPC   NC3 2414   8.184   1.761   9.495 -0.2549  0.3307  0.2641
  161POPC   PO4 2415   8.403   2.160   9.178  0.1524 -0.0692 -0.0750
  161POPC   GL1 2416   8.262   1.967   8.850  0.0229  0.2087  0.3277
  161POPC   GL2 2417   8.381   2.265   8.608 -0.1511  0.3284  0.1122
  161POPC   C1A 2418   8.068   1.981   8.401  0.4236  0.0031  0.1308
  161POPC   D2A 2419   8.192   2.020   7.968 -0.0813  0.5336 -0.0958
  161POPC   C3A 2420   8.528   2.011   7.710  0.1665 -0.3158  0.2213
  161POPC   C4A 2421   8.691   1.767   7.364  0.0854  0.1286  0.2902
  161POPC   C1B 2422   8.381   2.492   8.150 -0.2947 -0.0065  0.2607
  161POPC   C2B 2423   8.076   2.532   7.802 -0.0652  0.1110 -0.0413
  161POPC   C3B 2424   7.654   2.674   7.596  0.1576  0.0591 -0.1760
  161POPC   C4B 2425   7.368   2.523   7.219  0.0145  0.2892 -0.2235
  162POPC   NC3 2426   8.051   3.878   8.801  0.1612  0.0064  0.1112
  162POPC   PO4 2427   8.583   3.756   8.867 -0.3230  0.5489  0.3394
  162POPC   GL1 2428   8.351   4.028   8.420 -0.1047  0.1711 -0.0035
  162POPC   GL2 2429   8.187   3.774   8.304  0.1046  0.2437  0.2575
  162POPC   C1A 2430   7.987   4.302   8.288 -0.0535 -0.0067 -0.1283
  162POPC   D2A 2431   7.754   4.407   7.896 -0.0150  0.0161 -0.2772
  162POPC   C3A 2432   7.885   4.383   7.435 -0.0922  0.2106  0.2862
  162POPC   C4A 2433   8.129   4.100   7.247  0.2634 -0.0522  0.4000
  162POPC   C1B 2434   7.874   3.867   8.037  0.2164  0.4984  0.0318
  162POPC   C2B 2435   7.720   4.014   7.607 -0.2438  0.1983  0.0020
  162POPC   C3B 2436   7.427   4.210   7.481  0.0366 -0.1920  0.0057
  162POPC   C4B 2437   7.279   4.412   7.094  0.2199  0.0140 -0.3276
  163POPC   NC3 2438   5.257   9.978   9.543  0.0381  0.0382 -0.0056
  163POPC   PO4 2439   5.037   9.688   9.450  0.2768  0.1329 -0.3840
  163POPC   GL1 2440   5.180   9.775   9.056 -0.2009 -0.0917 -0.0532
  163POPC   GL2 2441   5.042   9.806   8.812 -0.0820 -0.0030  0.1774
  163POPC   C1A 2442   5.553   9.872   8.797 -0.0837 -0.2675  0.0250
  163POPC   D2A 2443   5.966  10.012   8.826 -0.0017  0.2806 -0.3082
  163POPC   C3A 2444   6.150   9.881   9.168  0.0386 -0.0794 -0.1565
  163POPC   C4A 2445   6.458   9.514   9.359 -0.1972 -0.2690  0.1976
  163POPC   C1B 2446   5.210   9.732   8.422 -0.2270 -0.0261 -0.0007
  163POPC   C2B 2447   5.036   9.634   7.965  0.0433 -0.2720 -0.1326
  163POPC   C3B 2448   5.266   9.519   7.571  0.0681 -0.2432 -0.1931
  163POPC   C4B 2449   5.228   9.571   7.209 -0.1007  0.0697  0.1066
  164POPC   NC3 2450   3.539   6.933   8.425  0.1180 -0.2038  0.0149
  164POPC   PO4 2451   3.416   6.597   8.766 -0.0529 -0.0855  0.0980
  164POPC   GL1 2452   3.381   6.482   8.345  0.0722  0.1627 -0.0092
  164POPC   GL2 2453   3.708   6.447   8.265 -0.1601 -0.1760 -0.2688
  164POPC   C1A 2454   3.222   6.662   7.943  0.0074  0.2191 -0.1975
  164POPC   D2A 2455   3.157   6.882   7.566  0.0411 -0.1328  0.3284
  164POPC   C3A 2456   3.219   7.316   7.433  0.4833  0.0824 -0.2963
  164POPC   C4A 2457   3.308   7.698   7.368  0.1432  0.2344 -0.0618
  164POPC   C1B 2458   3.530   6.165   7.931 -0.1888 -0.3283  0.0324
  164POPC   C2B 2459   3.443   5.937   7.497 -0.0348 -0.0336 -0.2493
  164POPC   C3B 2460   3.150   5.642   7.342  0.0239 -0.0843  0.1668
  164POPC   C4B 2461   2.770   5.279   7.460  0.0827  0.0575  0.3457
  165POPC   NC3 2462   3.763   2.896   8.790  0.0015 -0.1974 -0.1218
  165POPC   PO4 2463   3.517   3.284   8.734  0.2616 -0.1280 -0.0181
  165POPC   GL1 2464   3.655   3.135   8.288  0.0896  0.2034 -0.0531
  165POPC   GL2 2465   3.884   2.974   8.326  0.1387 -0.0117  0.0533
  165POPC   C1A 2466   3.751   3.284   7.942 -0.4003  0.1428  0.3165
  165POPC   D2A 2467   3.659   3.520   7.554  0.0170 -0.0356  0.0013
  165POPC   C3A 2468   3.805   3.364   7.228 -0.0136 -0.2207  0.1348
  165POPC   C4A 2469   3.887   3.291   6.775 -0.1192  0.1535 -0.4254
  165POPC   C1B 2470   4.180   2.951   7.912 -0.0141  0.1741 -0.1074
  165POPC   C2B 2471   4.389   2.980   7.469  0.0789  0.2776 -0.0704
  165POPC   C3B 2472   4.260   3.048   7.005  0.2161 -0.1434  0.2004
  165POPC   C4B 2473   4.194   2.923   6.614 -0.2170  0.2376  0.2837
  166POPC   NC3 2474   2.662   0.853   8.755  0.0886  0.0336 -0.2799
  166POPC   PO4 2475   2.763   0.634   8.595 -0.0040 -0.3087 -0.3825
  166POPC   GL1 2476   2.922   0.388   8.355 -0.0365  0.0390 -0.3178
  166POPC   GL2 2477   3.290   0.322   8.311  0.1453 -0.1419  0.2285
  166POPC   C1A 2478   3.093   0.330   7.824  0.4596 -0.0360  0.0362
  166POPC   D2A 2479   3.261   0.256   7.475  0.0006  0.0910 -0.0284
  166POPC   C3A 2480   3.022   0.112   7.185 -0.0388  0.0849 -0.1455
  166POPC   C4A 2481   2.720  -0.089   6.853  0.1735 -0.0272  0.3255
  166POPC   C1B 2482   3.456   0.659   8.054  0.4242  0.0714  0.2815
  166POPC   C2B 2483   3.668   0.863   7.663 -0.1449 -0.2086 -0.2560
  166POPC   C3B 2484   3.918   1.057   7.428  0.1950 -0.0083  0.0688
  166POPC   C4B 2485   4.226   1.109   7.006  0.0574  0.0673  0.1037
  167POPC   NC3 2486  10.180   4.313   9.174  0.2996 -0.3105  0.0394
  167POPC   PO4 2487  10.551   4.354   8.822 -0.0444 -0.0906  0.0042
  167POPC   GL1 2488  10.483   4.746   8.586  0.1644 -0.0866  0.0691
  167POPC   GL2 2489  10.383   4.964   8.526  0.0156  0.2003  0.0403
  167POPC   C1A 2490  10.366   4.736   8.082  0.0850  0.6088  0.0784
  167POPC   D2A 2491  10.701   4.320   7.932  0.0267  0.1033  0.2204
  167POPC   C3A 2492  10.598   3.961   7.742 -0.1000  0.0393  0.0825
  167POPC   C4A 2493  10.445   3.670   7.636 -0.0485  0.1050 -0.3830
  167POPC   C1B 2494  10.142   5.204   8.267 -0.3151 -0.0738  0.0869
  167POPC   C2B 2495  10.117   5.428   7.932 -0.0722  0.2313  0.1457
  167POPC   C3B 2496   9.911   5.652   7.717  0.0623  0.0778 -0.0265
  167POPC   C4B 2497  10.068   5.929   7.578 -0.1164 -0.0369 -0.1026
  168POPC   NC3 2498   2.428   7.095   4.782  0.0107 -0.1392 -0.0203
  168POPC   PO4 2499   2.349   7.531   4.737 -0.1934 -0.0843 -0.0603
  168POPC   GL1 2500   2.442   7.608   5.211  0.1215  0.0457  0.1430
  168POPC   GL2 2501   2.639   7.419   5.221 -0.0479 -0.1752 -0.0329
  168POPC   C1A 2502   2.531   7.893   5.412 -0.0328 -0.5222 -0.0256
  168POPC   D2A 2503   2.780   8.131   5.759 -0.2831  0.0842  0.2889
  168POPC   C3A 2504   2.552   8.163   6.122  0.1721  0.2313 -0.1853
  168POPC   C4A 2505   2.234   8.101   6.197  0.0104 -0.0365  0.2292
  168POPC   C1B 2506   2.677   7.331   5.616 -0.0102 -0.0922 -0.2996
  168POPC   C2B 2507   2.622   7.311   6.111  0.1244  0.1427  0.0926
  168POPC   C3B 2508   2.442   7.144   6.459 -0.0553  0.3247 -0.1052
  168POPC   C4B 2509   2.196   6.840   6.753  0.1061  0.0561  0.1463
  169POPC   NC3 2510   5.260   5.431   4.912  0.0389 -0.1974  0.0077
  169POPC   PO4 2511   5.144   5.314   5.279 -0.1819  0.2553  0.0519
  169POPC   GL1 2512   4.851   5.464   5.552 -0.0108 -0.2285  0.1134
  169POPC   GL2 2513   4.992   5.863   5.759 -0.3419 -0.1606  0.3383
  169POPC   C1A 2514   4.550   5.313   5.867 -0.1326 -0.3531  0.0687
  169POPC   D2A 2515   4.231   5.187   6.296 -0.0420  0.0528  0.0797
  169POPC   C3A 2516   4.053   5.540   6.377 -0.2169  0.1843 -0.1501
  169POPC   C4A 2517   3.648   5.586   6.445  0.1884  0.1734  0.0194
  169POPC   C1B 2518   5.049   5.853   6.170  0.2229 -0.1691 -0.0735
  169POPC   C2B 2519   5.355   5.630   6.512  0.2930  0.3019  0.1258
  169POPC   C3B 2520   5.707   5.889   6.760  0.1342 -0.0459  0.2484
  169POPC   C4B 2521   6.069   6.113   6.994 -0.2448  0.0280 -0.1701
  170POPC   NC3 2522   2.094   3.720   5.219  0.1105  0.1792 -0.0214
  170POPC   PO4 2523   1.687   3.911   5.390  0.3056 -0.0402  0.0665
  170POPC   GL1 2524   1.675   4.235   5.752 -0.1366  0.0639 -0.1777
  170POPC   GL2 2525   1.988   4.272   5.819  0.1071  0.1028  0.0268
  170POPC   C1A 2526   1.636   4.335   6.167 -0.2670 -0.0585 -0.0033
  170POPC   D2A 2527   1.642   4.460   6.633  0.1462 -0.1313  0.0236
  170POPC   C3A 2528   1.756   4.118   6.903 -0.0159 -0.0529  0.0319
  170POPC   C4A 2529   1.759   3.679   6.702  0.0117 -0.2516 -0.1950
  170POPC   C1B 2530   2.132   4.170   6.229  0.2538 -0.3168  0.4489
  170POPC   C2B 2531   2.156   3.980   6.617  0.1725 -0.2528 -0.2106
  170POPC   C3B 2532   2.463   3.615   6.682 -0.1871 -0.0164  0.1009
  170POPC   C4B 2533   2.658   3.542   6.984  0.0008  0.1157 -0.0469
  171POPC   NC3 2534   0.424   6.778   4.939  0.0003  0.0588 -0.0463
  171POPC   PO4 2535  -0.030   6.744   4.981  0.1730  0.0742 -0.0968
  171POPC   GL1 2536  -0.156   7.078   5.317 -0.0134 -0.1683  0.2321
  171POPC   GL2 2537  -0.481   7.089   5.383 -0.3503 -0.1130 -0.1718
  171POPC   C1A 2538  -0.134   7.250   5.694 -0.0844 -0.3730  0.1488
  171POPC   D2A 2539  -0.122   7.642   6.056  0.2242 -0.1419  0.2707
  171POPC   C3A 2540  -0.455   7.841   6.187  0.1033  0.1700  0.0584
  171POPC   C4A 2541  -0.549   8.076   6.380  0.2499 -0.1056  0.2276
  171POPC   C1B 2542  -0.628   7.406   5.506 -0.2201 -0.2235  0.4869
  171POPC   C2B 2543  -0.605   7.775   5.760 -0.2235  0.0054  0.0299
  171POPC   C3B 2544  -0.913   7.877   6.087  0.0291  0.1594  0.2570
  171POPC   C4B 2545  -1.212   7.607   6.187 -0.1253  0.0091  0.1608
  172POPC   NC3 2546   3.398   1.862   4.802  0.0029  0.2783  0.1834
  172POPC   PO4 2547   3.272   1.412   4.601 -0.2597 -0.0525 -0.1586
  172POPC   GL1 2548   3.210   1.468   4.989  0.1958  0.2179  0.1459
  172POPC   GL2 2549   2.907   1.666   5.151 -0.1361  0.1575  0.0437
  172POPC   C1A 2550   3.331   1.424   5.425  0.2667 -0.0563 -0.1909
  172POPC   D2A 2551   3.271   1.523   5.928  0.3329  0.2403 -0.1372
  172POPC   C3A 2552   3.080   1.204   6.223 -0.0354 -0.2168  0.0969
  172POPC   C4A 2553   2.743   1.168   6.498  0.3618 -0.0043 -0.1401
  172POPC   C1B 2554   2.810   1.560   5.595 -0.1366 -0.1894  0.1042
  172POPC   C2B 2555   2.695   1.492   6.064 -0.0042  0.0606 -0.3249
  172POPC   C3B 2556   2.535   1.594   6.505  0.0667 -0.1042 -0.1960
  172POPC   C4B 2557   2.587   1.580   6.935 -0.1147 -0.0569  0.0993
  173POPC   NC3 2558   5.575   6.408   4.807  0.0504 -0.0404 -0.0241
  173POPC   PO4 2559   5.609   6.263   5.231  0.3462 -0.0399  0.2069
  173POPC   GL1 2560   5.672   6.088   5.537  0.0184 -0.1553 -0.0506
  173POPC   GL2 2561   5.421   6.199   5.731 -0.1696  0.2910 -0.3630
  173POPC   C1A 2562   5.948   6.199   5.829  0.2237  0.3221 -0.3682
  173POPC   D2A 2563   6.253   6.394   6.171 -0.1080  0.1073 -0.0442
  173POPC   C3A 2564   6.358   6.221   6.629  0.2342 -0.1931 -0.0299
  173POPC   C4A 2565   6.668   6.318   6.968  0.1197  0.0439  0.0106
  173POPC   C1B 2566   5.499   6.339   6.111 -0.0634 -0.0900  0.2465
  173POPC   C2B 2567   5.409   6.124   6.400 -0.1630 -0.1039 -0.2169
  173POPC   C3B 2568   5.251   6.003   6.881 -0.2379  0.3756  0.1724
  173POPC   C4B 2569   5.593   6.045   7.196  0.0117 -0.0384 -0.0740
  174POPC   NC3 2570   8.171   6.248   4.870  0.0530  0.1989 -0.2664
  174POPC   PO4 2571   7.900   6.500   4.578  0.0383 -0.2419  0.1744
  174POPC   GL1 2572   8.036   6.720   4.951 -0.0866 -0.1518  0.0398
  174POPC   GL2 2573   7.889   6.601   5.086 -0.0440  0.0008  0.0911
  174POPC   C1A 2574   8.346   6.924   5.229  0.3831  0.3034  0.1533
  174POPC   D2A 2575   8.762   6.908   5.414 -0.1986 -0.0062  0.0436
  174POPC   C3A 2576   9.089   7.015   5.822 -0.3097 -0.1370 -0.0635
  174POPC   C4A 2577   9.396   6.982   6.287  0.3647 -0.1883 -0.1277
  174POPC   C1B 2578   7.918   6.843   5.483  0.2639 -0.2422 -0.1857
  174POPC   C2B 2579   7.876   6.865   5.866  0.0626  0.2041  0.1427
  174POPC   C3B 2580   7.588   7.067   6.275  0.1320  0.1100 -0.0443
  174POPC   C4B 2581   7.394   7.270   6.587  0.0773  0.2387 -0.5452
  175POPC   NC3 2582   9.508   7.694   3.685  0.1697 -0.2409 -0.0661
  175POPC   PO4 2583   9.759   8.012   3.785  0.2111  0.4507 -0.0561
  175POPC   GL1 2584   9.713   8.235   4.184  0.1646  0.1767 -0.3011
  175POPC   GL2 2585   9.968   8.316   4.314  0.2619  0.1233 -0.2092
  175POPC   C1A 2586   9.445   8.389   4.456 -0.2304 -0.2284  0.2848
  175POPC   D2A 2587   9.041   8.349   4.673  0.1696 -0.1434  0.0240
  175POPC   C3A 2588   8.632   8.118   4.678 -0.0407 -0.1560 -0.0379
  175POPC   C4A 2589   8.185   8.207   4.608 -0.1705 -0.3877  0.0622
  175POPC   C1B 2590   9.864   8.539   4.661  0.1380  0.0012 -0.2403
  175POPC   C2B 2591   9.430   8.637   4.893  0.1914 -0.0238  0.1595
  175POPC   C3B 2592   9.017   8.777   4.954  0.0004 -0.0755  0.1739
  175POPC   C4B 2593   8.806   8.864   5.355  0.1250  0.4402  0.1654
  176POPC   NC3 2594  10.292   4.998   5.246 -0.0874  0.1550 -0.2772
  176POPC   PO4 2595  10.163   4.617   5.481 -0.1229  0.1079  0.3097
  176POPC   GL1 2596   9.938   4.540   5.894 -0.1727  0.1197 -0.2385
  176POPC   GL2 2597  10.259   4.500   6.043  0.0347 -0.0791 -0.0710
  176POPC   C1A 2598   9.574   4.422   6.104 -0.1168 -0.2359  0.2466
  176POPC   D2A 2599   9.179   4.363   6.383  0.2669  0.0289  0.0242
  176POPC   C3A 2600   9.031   4.405   6.769  0.2015 -0.3103  0.0270
  176POPC   C4A 2601   9.238   4.482   7.107  0.1990  0.2653  0.2439
  176POPC   C1B 2602  10.102   4.460   6.468  0.2211  0.2034  0.0077
  176POPC   C2B 2603  10.153   4.284   6.825 -0.1734 -0.1608  0.1065
  176POPC   C3B 2604  10.202   4.396   7.247  0.2037 -0.2424 -0.1547
  176POPC   C4B 2605  10.412   4.558   7.538  0.2762  0.2790 -0.0488
  177POPC   NC3 2606   5.498   4.044   4.896 -0.0283  0.0945 -0.1516
  177POPC   PO4 2607   5.385   3.533   5.066  0.3742  0.1255 -0.1158
  177POPC   GL1 2608   5.554   3.770   5.384 -0.0023 -0.0513 -0.1152
  177POPC   GL2 2609   5.696   3.860   5.661  0.0840  0.1255 -0.1383
  177POPC   C1A 2610   5.331   4.227   5.621 -0.1278 -0.1432  0.0541
  177POPC   D2A 2611   5.182   4.360   6.116  0.1949 -0.1396  0.0182
  177POPC   C3A 2612   5.117   4.623   6.468 -0.0242 -0.1435  0.1542
  177POPC   C4A 2613   5.039   5.037   6.764  0.0731  0.4415 -0.0056
  177POPC   C1B 2614   5.496   3.961   6.079  0.1077 -0.1085 -0.2629
  177POPC   C2B 2615   5.529   3.749   6.437  0.0066  0.0727  0.0733
  177POPC   C3B 2616   5.260   3.590   6.734  0.1034 -0.1720 -0.1232
  177POPC   C4B 2617   4.929   3.460   6.966 -0.0707  0.0456  0.2436
  178POPC   NC3 2618   7.259   2.625   4.331 -0.0186  0.0223 -0.0450
  178POPC   PO4 2619   7.466   2.266   4.664 -0.0087 -0.2146 -0.0409
  178POPC   GL1 2620   7.619   1.874   4.919  0.1186 -0.0643 -0.1076
  178POPC   GL2 2621   7.435   1.626   4.734  0.1141 -0.1050  0.1090
  178POPC   C1A 2622   7.802   1.652   5.353 -0.0375  0.0801  0.0340
  178POPC   D2A 2623   7.929   1.678   5.772  0.2777  0.2084 -0.0198
  178POPC   C3A 2624   8.158   1.416   5.904 -0.0667 -0.0860 -0.1073
  178POPC   C4A 2625   8.508   1.253   5.725 -0.1548  0.0409  0.0898
  178POPC   C1B 2626   7.272   1.589   5.183 -0.0666  0.0938 -0.1570
  178POPC   C2B 2627   7.048   1.474   5.447 -0.0691  0.2191  0.0668
  178POPC   C3B 2628   7.136   1.224   5.759 -0.0888 -0.2405 -0.0348
  178POPC   C4B 2629   7.238   1.336   6.137  0.2652 -0.0647 -0.2416
  179POPC   NC3 2630   5.516   3.196   5.401 -0.1769 -0.1047  0.1183
  179POPC   PO4 2631   5.745   2.927   5.385  0.1507 -0.0519  0.2210
  179POPC   GL1 2632   5.820   3.043   5.837 -0.5862 -0.0851  0.0295
  179POPC   GL2 2633   5.721   3.329   5.886  0.0785 -0.0490  0.2683
  179POPC   C1A 2634   5.959   3.105   6.289  0.1154 -0.4217 -0.0634
  179POPC   D2A 2635   5.845   2.959   6.669  0.0781 -0.0093 -0.2453
  179POPC   C3A 2636   5.522   2.625   6.932 -0.0808 -0.2516 -0.0659
  179POPC   C4A 2637   5.204   2.536   7.188 -0.3202  0.2609 -0.3268
  179POPC   C1B 2638   5.459   3.208   6.309  0.0852 -0.1264 -0.0874
  179POPC   C2B 2639   5.343   3.100   6.722  0.1609  0.2405 -0.2079
  179POPC   C3B 2640   5.355   3.062   7.188  0.2218  0.2005  0.1143
  179POPC   C4B 2641   5.452   3.244   7.469  0.1401  0.2759  0.0902
  180POPC   NC3 2642   2.845   4.356   5.096  0.0282  0.5831 -0.0079
  180POPC   PO4 2643   2.379   4.044   4.950 -0.4456 -0.1284  0.1366
  180POPC   GL1 2644   2.592   4.016   5.437  0.1470  0.2294  0.2837
  180POPC   GL2 2645   2.644   3.620   5.677 -0.0376 -0.3402 -0.1189
  180POPC   C1A 2646   2.450   4.159   5.715 -0.0688 -0.1481 -0.0019
  180POPC   D2A 2647   2.481   4.498   6.050 -0.1074  0.2593 -0.0772
  180POPC   C3A 2648   2.569   4.419   6.477 -0.1385 -0.0856  0.0763
  180POPC   C4A 2649   2.817   4.438   6.745  0.2169 -0.1406  0.0408
  180POPC   C1B 2650   3.008   3.503   5.892 -0.1981 -0.0100 -0.0709
  180POPC   C2B 2651   3.143   3.123   5.923  0.2085 -0.0014 -0.0677
  180POPC   C3B 2652   3.340   2.864   6.130  0.2257  0.1910 -0.0156
  180POPC   C4B 2653   3.647   2.988   6.522  0.4845  0.0860 -0.1549
  181POPC   NC3 2654   4.537   7.703   3.973  0.1515 -0.0733 -0.0058
  181POPC   PO4 2655   4.660   7.984   4.310 -0.1021 -0.4253  0.1382
  181POPC   GL1 2656   4.832   7.596   4.704 -0.1567 -0.0878  0.3377
  181POPC   GL2 2657   4.586   7.387   4.644  0.0215 -0.1008 -0.1509
  181POPC   C1A 2658   4.828   7.542   5.096  0.2359  0.2430  0.0113
  181POPC   D2A 2659   4.872   7.630   5.489 -0.2307  0.2423 -0.2178
  181POPC   C3A 2660   5.222   7.374   5.773 -0.0538  0.0358  0.0982
  181POPC   C4A 2661   5.687   7.184   5.699 -0.0011 -0.1113 -0.4791
  181POPC   C1B 2662   4.365   7.482   5.132 -0.1585  0.1044  0.4092
  181POPC   C2B 2663   4.342   7.577   5.622  0.1872  0.0406 -0.3977
  181POPC   C3B 2664   4.037   7.717   5.841 -0.1219  0.2570 -0.0016
  181POPC   C4B 2665   4.011   7.850   6.227  0.3333  0.0496  0.0815
  182POPC   NC3 2666   6.349   6.359   4.806 -0.0971  0.1310 -0.2660
  182POPC   PO4 2667   6.049   6.284   4.997 -0.0997  0.0696 -0.0640
  182POPC   GL1 2668   6.085   6.394   5.362 -0.1419  0.1428  0.0358
  182POPC   GL2 2669   5.952   6.659   5.336  0.0136 -0.1705  0.0698
  182POPC   C1A 2670   6.444   6.278   5.704  0.1548 -0.0194 -0.0110
  182POPC   D2A 2671   6.849   6.389   5.752  0.1867 -0.3251 -0.1122
  182POPC   C3A 2672   7.061   6.766   5.543 -0.2485  0.0269 -0.2399
  182POPC   C4A 2673   7.438   7.073   5.390 -0.4492  0.0112 -0.0898
  182POPC   C1B 2674   6.099   6.679   5.744 -0.1052 -0.1373 -0.1493
  182POPC   C2B 2675   5.968   6.786   5.977 -0.1964 -0.0425 -0.0762
  182POPC   C3B 2676   6.181   6.803   6.387 -0.1026 -0.4490 -0.2236
  182POPC   C4B 2677   6.234   6.663   6.800 -0.0486  0.1769  0.0496
  183POPC   NC3 2678   6.196   7.856   3.215 -0.0645 -0.0152 -0.0694
  183POPC   PO4 2679   5.954   8.052   3.521  0.2278 -0.2934 -0.1019
  183POPC   GL1 2680   6.110   8.236   3.928  0.0510  0.0057  0.1231
  183POPC   GL2 2681   6.438   8.076   3.959 -0.3493  0.1299  0.1451
  183POPC   C1A 2682   6.246   8.456   4.324 -0.0736 -0.0673 -0.1503
  183POPC   D2A 2683   6.596   8.678   4.573 -0.2355  0.0151  0.1004
  183POPC   C3A 2684   6.712   8.501   4.966 -0.0029 -0.0046  0.1295
  183POPC   C4A 2685   6.662   8.412   5.446  0.0931  0.1663  0.4196
  183POPC   C1B 2686   6.267   7.948   4.351  0.4541  0.4145 -0.3756
  183POPC   C2B 2687   6.386   8.189   4.731  0.0841  0.1514 -0.2165
  183POPC   C3B 2688   6.490   8.030   5.125  0.0265 -0.6538  0.0109
  183POPC   C4B 2689   6.440   7.978   5.545  0.2735 -0.2034  0.0386
  184POPC   NC3 2690   3.573   6.134   4.437  0.0025 -0.2157 -0.1238
  184POPC   PO4 2691   3.553   6.229   4.842  0.0496  0.0500 -0.1836
  184POPC   GL1 2692   3.684   6.383   5.298  0.2485 -0.2624 -0.2009
  184POPC   GL2 2693   3.687   6.703   5.437  0.0131  0.0062 -0.2982
  184POPC   C1A 2694   3.905   6.290   5.677 -0.2159 -0.2177  0.1385
  184POPC   D2A 2695   4.189   6.265   6.022 -0.1121 -0.1791 -0.0791
  184POPC   C3A 2696   4.247   6.073   6.474  0.0222  0.2536 -0.1854
  184POPC   C4A 2697   4.313   5.751   6.743  0.2451 -0.3242 -0.1573
  184POPC   C1B 2698   3.656   6.809   5.845 -0.0207  0.0333  0.2287
  184POPC   C2B 2699   3.515   6.912   6.210  0.2703 -0.1083  0.0265
  184POPC   C3B 2700   3.516   7.281   6.556 -0.0119  0.0552  0.0532
  184POPC   C4B 2701   3.548   7.299   6.994  0.0468  0.1624 -0.0453
  185POPC   NC3 2702   5.342   7.304   4.525 -0.0674 -0.0202 -0.1210
  185POPC   PO4 2703   5.382   6.910   4.751  0.0004  0.0938 -0.0026
  185POPC   GL1 2704   5.499   6.937   5.044  0.1303  0.0979 -0.2243
  185POPC   GL2 2705   5.443   6.852   5.288 -0.2464 -0.1472  0.2329
  185POPC   C1A 2706   5.801   7.312   5.216  0.2015 -0.2599  0.2766
  185POPC   D2A 2707   6.008   7.653   5.371  0.1023  0.0121  0.0720
  185POPC   C3A 2708   6.002   7.662   5.853  0.1401  0.0696 -0.0386
  185POPC   C4A 2709   5.665   7.581   5.985  0.1145 -0.1505  0.3853
  185POPC   C1B 2710   5.531   6.679   5.711  0.0478  0.2428  0.3599
  185POPC   C2B 2711   5.471   6.820   6.202  0.0867  0.2623 -0.0175
  185POPC   C3B 2712   5.449   7.221   6.321 -0.2160 -0.4688 -0.2404
  185POPC   C4B 2713   5.351   7.638   6.385  0.0171 -0.2180  0.0015
  186POPC   NC3 2714   1.352   8.102   4.475 -0.0868  0.3265 -0.1386
  186POPC   PO4 2715   1.286   7.646   4.486 -0.0419 -0.0349 -0.2344
  186POPC   GL1 2716   1.361   7.754   4.968  0.1136 -0.1013  0.3729
  186POPC   GL2 2717   1.704   7.949   4.998 -0.2007  0.1848 -0.2136
  186POPC   C1A 2718   1.520   7.469   5.325 -0.0843  0.0288 -0.0181
  186POPC   D2A 2719   1.849   7.350   5.536  0.3605  0.0674  0.1117
  186POPC   C3A 2720   2.207   7.461   5.587  0.3547  0.0146  0.2796
  186POPC   C4A 2721   2.454   7.728   5.922 -0.2829  0.0706  0.0486
  186POPC   C1B 2722   1.987   7.863   5.334  0.1238  0.0160  0.1806
  186POPC   C2B 2723   1.989   7.888   5.797 -0.0542  0.1176 -0.0430
  186POPC   C3B 2724   1.806   7.920   6.242  0.0323 -0.0378  0.2286
  186POPC   C4B 2725   1.547   7.703   6.443 -0.1266 -0.1829  0.4141
  187POPC   NC3 2726   9.973   9.282   3.394  0.1263 -0.1489 -0.1531
  187POPC   PO4 2727  10.369   9.234   3.678 -0.0641  0.0679  0.2538
  187POPC   GL1 2728  10.322   9.328   4.060 -0.1688 -0.2260 -0.0340
  187POPC   GL2 2729  10.625   9.368   4.313 -0.2243 -0.1709  0.0422
  187POPC   C1A 2730  10.111   9.543   4.519 -0.1370  0.0779  0.2369
  187POPC   D2A 2731  10.018   9.720   4.882 -0.3718 -0.0409  0.0230
  187POPC   C3A 2732   9.565   9.613   5.014 -0.0398  0.1043  0.1025
  187POPC   C4A 2733   9.236   9.569   5.224 -0.0492  0.0131 -0.1120
  187POPC   C1B 2734  10.535   9.524   4.745  0.1587  0.2782 -0.2128
  187POPC   C2B 2735  10.405   9.558   5.172  0.1518 -0.1466  0.2189
  187POPC   C3B 2736  10.133   9.696   5.461  0.1691 -0.1428  0.1387
  187POPC   C4B 2737  10.051   9.670   5.859  0.1920 -0.0993  0.1991
  188POPC   NC3 2738   1.126   9.194   4.303 -0.2554  0.1412  0.0455
  188POPC   PO4 2739   1.146   9.576   4.375  0.4086  0.0847  0.2255
  188POPC   GL1 2740   1.130   9.401   4.825  0.1576 -0.2361  0.0339
  188POPC   GL2 2741   1.212   9.709   4.992  0.1938 -0.4848 -0.3439
  188POPC   C1A 2742   1.034   9.281   5.156 -0.0141  0.0040 -0.1726
  188POPC   D2A 2743   0.738   9.010   5.439 -0.1430  0.2412  0.2489
  188POPC   C3A 2744   0.868   8.570   5.643 -0.0777 -0.1418  0.0848
  188POPC   C4A 2745   0.954   8.482   6.068 -0.2194  0.1097 -0.0126
  188POPC   C1B 2746   0.941   9.769   5.368 -0.1535  0.0991 -0.2696
  188POPC   C2B 2747   0.694   9.927   5.572  0.2734  0.1134  0.1601
  188POPC   C3B 2748   0.465   9.952   5.926 -0.2096  0.1779 -0.2626
  188POPC   C4B 2749   0.472   9.742   6.229 -0.0354 -0.0663 -0.1913
  189POPC   NC3 2750   7.642   0.679   3.682 -0.1227 -0.0249 -0.2791
  189POPC   PO4 2751   7.228   0.844   3.894  0.0570  0.0403 -0.3327
  189POPC   GL1 2752   7.336   0.910   4.277  0.3511 -0.3170 -0.2020
  189POPC   GL2 2753   7.508   0.600   4.326 -0.1563  0.1313 -0.1025
  189POPC   C1A 2754   7.581   1.082   4.711 -0.0226  0.0814  0.2182
  189POPC   D2A 2755   7.889   1.344   4.998 -0.0295 -0.0681 -0.1812
  189POPC   C3A 2756   8.092   1.236   5.439 -0.1658 -0.1729  0.0076
  189POPC   C4A 2757   8.238   0.836   5.633 -0.1739  0.1389  0.0634
  189POPC   C1B 2758   7.141   0.375   4.368 -0.0633  0.1259  0.0135
  189POPC   C2B 2759   6.919   0.033   4.103 -0.0823 -0.1967  0.0916
  189POPC   C3B 2760   6.951  -0.369   3.959 -0.2006 -0.0679  0.1420
  189POPC   C4B 2761   6.566  -0.612   4.053 -0.2672 -0.0579 -0.1179
  190POPC   NC3 2762   5.287   5.855   5.303  0.0256 -0.0408 -0.2651
  190POPC   PO4 2763   5.635   5.516   5.248  0.0269 -0.0886 -0.0815
  190POPC   GL1 2764   5.550   5.551   5.676  0.0300  0.0598  0.1355
  190POPC   GL2 2765   5.291   5.441   5.829  0.0154 -0.0307 -0.4731
  190POPC   C1A 2766   5.626   5.795   6.026  0.1425  0.2641 -0.0405
  190POPC   D2A 2767   5.960   5.900   6.319 -0.2180  0.2229  0.0469
  190POPC   C3A 2768   5.853   6.320   6.471 -0.0289 -0.1837 -0.2336
  190POPC   C4A 2769   5.747   6.462   6.862 -0.0198 -0.0567  0.0318
  190POPC   C1B 2770   5.027   5.382   6.232  0.1037  0.2274 -0.0323
  190POPC   C2B 2771   4.770   4.994   6.323 -0.1437  0.2292  0.0966
  190POPC   C3B 2772   4.490   4.753   6.442  0.0773 -0.0438  0.0243
  190POPC   C4B 2773   4.057   4.693   6.404 -0.0229  0.0410 -0.1842
  191POPC   NC3 2774   5.991   1.645   4.745 -0.1807 -0.0529 -0.0863
  191POPC   PO4 2775   6.048   1.688   5.215 -0.1468 -0.0082 -0.0384
  191POPC   GL1 2776   5.859   1.294   5.340  0.1602  0.1619  0.1099
  191POPC   GL2 2777   5.685   1.140   5.148  0.2671  0.0543  0.0205
  191POPC   C1A 2778   5.994   0.977   5.524  0.1237  0.3618  0.1491
  191POPC   D2A 2779   6.304   0.651   5.729 -0.1462 -0.0056  0.0408
  191POPC   C3A 2780   6.720   0.856   5.806 -0.0622  0.0371  0.1198
  191POPC   C4A 2781   6.922   0.941   6.205 -0.2029  0.2587  0.0129
  191POPC   C1B 2782   5.457   1.101   5.664 -0.3322  0.3442  0.1194
  191POPC   C2B 2783   5.441   1.265   6.078 -0.1220  0.0244  0.2283
  191POPC   C3B 2784   5.708   1.269   6.476  0.1143  0.0521 -0.1806
  191POPC   C4B 2785   6.087   1.428   6.594 -0.2728  0.3926 -0.1761
  192POPC   NC3 2786   5.610   0.028   3.570  0.0596  0.2088 -0.0747
  192POPC   PO4 2787   5.309  -0.005   3.834 -0.1174  0.2303  0.0788
  192POPC   GL1 2788   5.325  -0.186   4.257 -0.0350 -0.1097 -0.3887
  192POPC   GL2 2789   5.545  -0.150   4.439  0.0397 -0.0869 -0.3084
  192POPC   C1A 2790   5.342  -0.541   4.684  0.1857 -0.0267 -0.2302
  192POPC   D2A 2791   5.420  -0.810   5.031 -0.0107 -0.1723 -0.1117
  192POPC   C3A 2792   5.638  -0.586   5.303 -0.2876 -0.0821  0.1240
  192POPC   C4A 2793   6.029  -0.362   5.521 -0.1315 -0.1369 -0.2136
  192POPC   C1B 2794   5.848  -0.448   4.770  0.0392  0.0812 -0.1232
  192POPC   C2B 2795   6.140  -0.531   5.094  0.0820 -0.1072 -0.0052
  192POPC   C3B 2796   6.421  -0.760   5.147 -0.0535 -0.1644  0.0954
  192POPC   C4B 2797   6.560  -0.875   5.483 -0.1418 -0.3204 -0.0928
  193POPC   NC3 2798   3.923   3.015   4.869 -0.0280  0.0072  0.0348
  193POPC   PO4 2799   4.213   2.837   4.951  0.1273  0.0368 -0.0566
  193POPC   GL1 2800   4.255   2.745   5.458  0.4058  0.1390  0.4361
  193POPC   GL2 2801   4.274   2.363   5.568  0.3572 -0.1713  0.6372
  193POPC   C1A 2802   4.535   2.908   5.726  0.1260  0.1452 -0.0318
  193POPC   D2A 2803   4.456   2.991   6.166 -0.0016  0.2855  0.0352
  193POPC   C3A 2804   4.689   2.913   6.758  0.0694  0.2734 -0.0508
  193POPC   C4A 2805   4.813   2.918   7.083 -0.3003 -0.0672  0.3530
  193POPC   C1B 2806   4.098   2.108   5.813  0.1640  0.0117 -0.1514
  193POPC   C2B 2807   3.855   2.240   6.172  0.1304  0.0069  0.1452
  193POPC   C3B 2808   3.551   2.478   6.446 -0.1202 -0.1124  0.1148
  193POPC   C4B 2809   3.354   2.632   6.794 -0.3708  0.2052  0.0773
  194POPC   NC3 2810   9.044   6.569   4.510  0.2253  0.0148  0.1068
  194POPC   PO4 2811   9.123   7.007   4.402 -0.0953 -0.0175  0.0217
  194POPC   GL1 2812   8.976   7.237   4.671 -0.4304  0.0119 -0.2307
  194POPC   GL2 2813   9.210   7.449   4.732 -0.2398  0.0118 -0.1991
  194POPC   C1A 2814   8.649   7.279   5.018  0.0243 -0.2820  0.0760
  194POPC   D2A 2815   8.538   7.446   5.492 -0.0922  0.0358  0.3390
  194POPC   C3A 2816   8.686   7.321   5.923 -0.1846 -0.0768  0.0689
  194POPC   C4A 2817   8.952   7.193   6.273  0.0106 -0.0453 -0.3965
  194POPC   C1B 2818   8.975   7.698   5.019 -0.2282  0.4728  0.0613
  194POPC   C2B 2819   8.781   7.829   5.359 -0.1928 -0.0066 -0.0468
  194POPC   C3B 2820   8.850   7.833   5.794 -0.0320 -0.2735 -0.0429
  194POPC   C4B 2821   8.778   7.888   6.174 -0.0349  0.0438  0.2728
  195POPC   NC3 2822   4.990   0.977   4.408  0.0087  0.2125 -0.0353
  195POPC   PO4 2823   5.054   0.580   4.466  0.2661 -0.0509 -0.1714
  195POPC   GL1 2824   5.273   0.283   4.799  0.0774  0.1906 -0.3002
  195POPC   GL2 2825   5.308  -0.084   4.916  0.6499  0.2673 -0.1287
  195POPC   C1A 2826   5.244   0.283   5.214 -0.1787 -0.1295  0.0197
  195POPC   D2A 2827   5.134   0.311   5.627  0.0112 -0.0562 -0.1661
  195POPC   C3A 2828   5.208   0.287   6.107 -0.0130  0.1495 -0.0658
  195POPC   C4A 2829   5.314   0.499   6.500  0.2017  0.2643 -0.0640
  195POPC   C1B 2830   5.174  -0.343   5.247 -0.0301  0.3328 -0.0258
  195POPC   C2B 2831   5.183  -0.580   5.589  0.1214  0.0646  0.0683
  195POPC   C3B 2832   5.362  -0.850   5.822 -0.0134 -0.1228  0.2257
  195POPC   C4B 2833   5.679  -0.577   5.883 -0.4495  0.0642 -0.0604
  196POPC   NC3 2834   9.663   3.728   4.773  0.0105  0.2095  0.1456
  196POPC   PO4 2835   9.468   3.470   5.051  0.1806 -0.0815  0.1006
  196POPC   GL1 2836   9.344   3.520   5.555  0.0709  0.0001  0.2822
  196POPC   GL2 2837   9.535   3.386   5.564  0.3026 -0.1746  0.0490
  196POPC   C1A 2838   9.202   3.491   5.977  0.0477 -0.1038  0.1403
  196POPC   D2A 2839   9.033   3.270   6.252  0.2752  0.1044  0.1248
  196POPC   C3A 2840   9.211   3.033   6.661 -0.0638  0.1515  0.1033
  196POPC   C4A 2841   9.548   2.987   6.998  0.1247 -0.1161  0.1474
  196POPC   C1B 2842   9.615   3.146   6.045 -0.2943 -0.0716  0.1000
  196POPC   C2B 2843   9.534   3.323   6.378 -0.2196 -0.0792 -0.1000
  196POPC   C3B 2844   9.416   3.454   6.797  0.1874  0.0458  0.1371
  196POPC   C4B 2845   9.148   3.321   7.106  0.1330  0.0011  0.0541
  197POPC   NC3 2846   8.466   3.978   5.386 -0.3494  0.0249 -0.1297
  197POPC   PO4 2847   8.115   4.202   5.265  0.1265  0.1004  0.0945
  197POPC   GL1 2848   8.104   4.370   5.703 -0.3745  0.2502 -0.0431
  197POPC   GL2 2849   8.312   4.255   5.864 -0.1975  0.0699  0.3205
  197POPC   C1A 2850   7.916   4.485   6.080  0.3534  0.1084  0.1583
  197POPC   D2A 2851   7.651   4.525   6.435 -0.1411 -0.2599  0.1573
  197POPC   C3A 2852   7.718   4.794   6.707 -0.1392 -0.0945  0.2075
  197POPC   C4A 2853   7.750   4.865   7.204  0.3912  0.4044 -0.3354
  197POPC   C1B 2854   8.513   4.393   6.274 -0.1208 -0.1487  0.1456
  197POPC   C2B 2855   8.489   4.548   6.669 -0.2784  0.0347  0.2558
  197POPC   C3B 2856   8.686   4.723   7.067  0.3760  0.0486 -0.2137
  197POPC   C4B 2857   8.902   4.677   7.410 -0.0121 -0.0809 -0.0343
  198POPC   NC3 2858   8.188   1.009   3.957  0.1495 -0.0104 -0.2130
  198POPC   PO4 2859   8.122   0.601   3.725  0.1847 -0.0978  0.0471
  198POPC   GL1 2860   7.971   0.569   4.117  0.0974  0.0680  0.2837
  198POPC   GL2 2861   8.240   0.584   4.340  0.0749  0.0651 -0.1087
  198POPC   C1A 2862   7.825   0.253   4.350 -0.0510  0.2788  0.2346
  198POPC   D2A 2863   7.819  -0.128   4.601 -0.0494 -0.1603 -0.0657
  198POPC   C3A 2864   7.419  -0.176   4.884 -0.0984 -0.0108  0.2189
  198POPC   C4A 2865   7.303  -0.268   5.175 -0.0122  0.1111 -0.1300
  198POPC   C1B 2866   8.451   0.553   4.746 -0.1948 -0.1543 -0.0379
  198POPC   C2B 2867   8.605   0.481   5.194 -0.1312 -0.0164 -0.0891
  198POPC   C3B 2868   8.435   0.321   5.580 -0.0274  0.0265 -0.3961
  198POPC   C4B 2869   8.256   0.135   5.917  0.0018 -0.3696 -0.0887
  199POPC   NC3 2870   8.231   9.771   2.908 -0.1305 -0.0003  0.0791
  199POPC   PO4 2871   8.283  10.207   3.158  0.2582  0.4015 -0.0217
  199POPC   GL1 2872   8.450  10.059   3.563 -0.1034  0.2207 -0.0141
  199POPC   GL2 2873   8.258  10.059   3.844 -0.2383  0.1488 -0.0989
  199POPC   C1A 2874   8.715  10.189   3.853 -0.2213  0.2108 -0.0922
  199POPC   D2A 2875   8.845  10.438   4.182  0.3013  0.0776  0.5516
  199POPC   C3A 2876   8.829  10.318   4.632 -0.0472  0.3461  0.0220
  199POPC   C4A 2877   9.158   9.927   4.870 -0.0646  0.0419 -0.1883
  199POPC   C1B 2878   8.423  10.233   4.232  0.1868  0.0785 -0.1229
  199POPC   C2B 2879   8.362  10.408   4.589 -0.0022 -0.0688  0.0829
  199POPC   C3B 2880   8.244  10.487   4.935 -0.2379  0.1490 -0.0092
  199POPC   C4B 2881   8.137  10.841   5.176  0.2303 -0.2321 -0.0848
  200POPC   NC3 2882   3.861   5.960   5.177  0.0714 -0.0866 -0.1050
  200POPC   PO4 2883   3.854   5.431   5.236 -0.0959  0.1186  0.2996
  200POPC   GL1 2884   3.877   5.723   5.628 -0.0962  0.0376 -0.0426
  200POPC   GL2 2885   3.513   5.961   5.594 -0.1673 -0.2928 -0.2798
  200POPC   C1A 2886   3.839   5.863   5.927  0.2804 -0.2226 -0.0495
  200POPC   D2A 2887   3.773   6.103   6.367  0.1170 -0.1746  0.2329
  200POPC   C3A 2888   3.391   6.041   6.586 -0.1122 -0.0955 -0.1175
  200POPC   C4A 2889   3.323   6.237   6.925  0.1693 -0.1188 -0.2075
  200POPC   C1B 2890   3.476   6.237   5.920 -0.1752  0.5264  0.1851
  200POPC   C2B 2891   3.442   6.467   6.318  0.0329  0.1598 -0.0407
  200POPC   C3B 2892   3.719   6.500   6.741  0.0847 -0.2730 -0.0860
  200POPC   C4B 2893   3.911   6.998   6.800  0.1523  0.0594 -0.0560
  201POPC   NC3 2894  10.397   7.174   4.821  0.1246  0.0305  0.2451
  201POPC   PO4 2895  10.596   7.553   4.725  0.2377 -0.1687  0.2036
  201POPC   GL1 2896  10.652   7.888   5.125  0.3784  0.0312  0.1082
  201POPC   GL2 2897  10.904   8.073   4.963  0.1542  0.3086  0.2031
  201POPC   C1A 2898  10.721   8.127   5.533 -0.3344 -0.2284  0.0394
  201POPC   D2A 2899  10.892   8.312   5.914 -0.1228  0.1794  0.0309
  201POPC   C3A 2900  10.950   8.821   5.941  0.2957 -0.0719  0.1260
  201POPC   C4A 2901  10.682   9.111   5.733 -0.2524  0.0205  0.1494
  201POPC   C1B 2902  11.188   8.200   5.338 -0.0979  0.1890 -0.1302
  201POPC   C2B 2903  11.349   8.028   5.703 -0.1076  0.1060 -0.0186
  201POPC   C3B 2904  11.199   7.888   6.130 -0.1897 -0.0334  0.2124
  201POPC   C4B 2905  11.068   7.702   6.516  0.0598  0.1307  0.1869
  202POPC   NC3 2906   3.200   0.944   4.717 -0.2209  0.0229 -0.0025
  202POPC   PO4 2907   2.849   0.699   4.842 -0.2139  0.2638 -0.0316
  202POPC   GL1 2908   2.791   0.789   5.236  0.3387  0.1445  0.1923
  202POPC   GL2 2909   3.119   0.974   5.222 -0.5513 -0.0971  0.0382
  202POPC   C1A 2910   2.720   0.595   5.662 -0.2515 -0.2594 -0.1382
  202POPC   D2A 2911   2.859   0.283   5.933 -0.3957 -0.1360 -0.1022
  202POPC   C3A 2912   3.231   0.091   5.721  0.1791  0.1006 -0.2617
  202POPC   C4A 2913   3.408   0.110   5.376 -0.0959 -0.1051 -0.2093
  202POPC   C1B 2914   2.852   1.065   5.683 -0.1194  0.4030 -0.2527
  202POPC   C2B 2915   2.798   0.840   6.084  0.0635  0.3177 -0.0043
  202POPC   C3B 2916   2.945   0.622   6.385 -0.0712  0.1435 -0.1619
  202POPC   C4B 2917   3.003   0.355   6.703  0.0802 -0.0086  0.1423
  203POPC   NC3 2918   3.036   3.269   5.306 -0.0687 -0.1715 -0.0335
  203POPC   PO4 2919   3.505   3.142   5.099 -0.1916 -0.2246  0.0089
  203POPC   GL1 2920   3.563   2.813   5.429 -0.0269  0.1640  0.0526
  203POPC   GL2 2921   3.685   2.620   5.627  0.3118 -0.1375 -0.2036
  203POPC   C1A 2922   3.632   3.124   5.821  0.0939 -0.0265  0.0503
  203POPC   D2A 2923   3.459   3.353   6.174 -0.3511  0.1054  0.0279
  203POPC   C3A 2924   3.580   3.594   6.519 -0.1102 -0.1652 -0.1079
  203POPC   C4A 2925   3.482   3.733   6.922  0.1276 -0.2470 -0.2577
  203POPC   C1B 2926   3.430   2.459   5.916  0.2664  0.3122 -0.2746
  203POPC   C2B 2927   3.393   2.159   6.136 -0.0833 -0.2076  0.1119
  203POPC   C3B 2928   3.329   1.778   6.313  0.3901 -0.2254 -0.2570
  203POPC   C4B 2929   2.993   1.548   6.580 -0.1384 -0.2616 -0.0189
  204POPC   NC3 2930   4.322   1.442   4.551 -0.1965 -0.0926 -0.1639
  204POPC   PO4 2931   4.496   0.974   4.540 -0.2020  0.2989 -0.3075
  204POPC   GL1 2932   4.550   0.695   4.815 -0.1860 -0.3633 -0.0156
  204POPC   GL2 2933   4.855   0.632   4.939  0.0337 -0.0940 -0.1177
  204POPC   C1A 2934   4.517   0.890   5.288  0.0901 -0.2965 -0.3774
  204POPC   D2A 2935   4.567   0.980   5.766 -0.0333 -0.0448  0.0176
  204POPC   C3A 2936   4.332   0.883   6.032 -0.0300  0.2093  0.1528
  204POPC   C4A 2937   3.909   0.794   6.042  0.0269 -0.2237 -0.2261
  204POPC   C1B 2938   4.726   0.406   5.230 -0.2447 -0.5009  0.0828
  204POPC   C2B 2939   4.640   0.483   5.679  0.0831  0.0889  0.1676
  204POPC   C3B 2940   4.701   0.256   5.978 -0.2537 -0.1371  0.1664
  204POPC   C4B 2941   4.496   0.037   6.302 -0.0499 -0.0084 -0.0241
  205POPC   NC3 2942   1.052   5.279   4.925  0.1452 -0.0491  0.1059
  205POPC   PO4 2943   0.705   5.294   5.193 -0.1924  0.0244 -0.3086
  205POPC   GL1 2944   0.758   5.408   5.608 -0.3456 -0.1711 -0.1171
  205POPC   GL2 2945   1.164   5.417   5.722  0.4257  0.0833 -0.3356
  205POPC   C1A 2946   0.767   5.595   5.985  0.0625 -0.1956 -0.0569
  205POPC   D2A 2947   0.800   5.481   6.434  0.2553 -0.0574  0.0816
  205POPC   C3A 2948   0.922   5.186   6.525  0.1869  0.1737 -0.3098
  205POPC   C4A 2949   0.994   4.987   6.879  0.0256 -0.2608  0.0050
  205POPC   C1B 2950   1.485   5.181   5.934  0.0357  0.1496  0.3808
  205POPC   C2B 2951   1.529   4.948   6.339  0.0320 -0.5189 -0.1413
  205POPC   C3B 2952   1.477   4.892   6.751  0.4417 -0.2060 -0.1180
  205POPC   C4B 2953   1.584   4.575   7.107 -0.3608 -0.1964 -0.0870
  206POPC   NC3 2954   1.531   0.985   4.094  0.1322  0.0519  0.4760
  206POPC   PO4 2955   1.467   0.575   4.243 -0.0994  0.0804  0.0606
  206POPC   GL1 2956   1.299   0.571   4.637 -0.1373  0.1791  0.2767
  206POPC   GL2 2957   1.023   0.394   4.776  0.3117  0.1844  0.3427
  206POPC   C1A 2958   1.309   0.743   5.085 -0.1977  0.1134 -0.1908
  206POPC   D2A 2959   1.277   0.767   5.573 -0.0249  0.0554  0.4908
  206POPC   C3A 2960   1.294   0.759   6.017 -0.0344 -0.3159  0.0128
  206POPC   C4A 2961   1.474   0.404   6.221  0.0842 -0.0382  0.1692
  206POPC   C1B 2962   1.092   0.336   5.257 -0.0516 -0.2235  0.1526
  206POPC   C2B 2963   1.123   0.263   5.634 -0.1877 -0.1004 -0.3611
  206POPC   C3B 2964   0.851   0.026   5.982 -0.2480  0.0976 -0.2017
  206POPC   C4B 2965   0.535  -0.028   6.211 -0.0713  0.1095  0.1464
  207POPC   NC3 2966   5.731   0.780   4.263 -0.1502  0.4030 -0.1985
  207POPC   PO4 2967   5.541   0.764   4.579  0.1372 -0.2092  0.4787
  207POPC   GL1 2968   5.745   0.413   4.776  0.1345 -0.1797  0.1505
  207POPC   GL2 2969   6.054   0.261   4.490 -0.1570  0.1775  0.2302
  207POPC   C1A 2970   5.711   0.385   5.205 -0.0287 -0.1142  0.2637
  207POPC   D2A 2971   5.589   0.633   5.565 -0.4697 -0.2628 -0.2877
  207POPC   C3A 2972   5.833   0.514   5.909  0.0217  0.1700  0.0204
  207POPC   C4A 2973   6.102   0.315   6.073  0.0387 -0.2511 -0.0240
  207POPC   C1B 2974   5.981   0.036   4.909 -0.0189 -0.1629  0.3454
  207POPC   C2B 2975   5.719  -0.132   5.192  0.2892  0.0094 -0.0679
  207POPC   C3B 2976   5.562  -0.043   5.567  0.0731  0.1973 -0.1357
  207POPC   C4B 2977   5.425  -0.157   5.963  0.1153 -0.1896 -0.0562
  208POPC   NC3 2978   9.852   2.114   4.362  0.0529 -0.2948 -0.2465
  208POPC   PO4 2979   9.974   2.333   4.823 -0.4340  0.1291  0.0959
  208POPC   GL1 2980  10.034   2.229   5.215 -0.0901 -0.1964 -0.0691
  208POPC   GL2 2981  10.250   2.011   5.193  0.2486 -0.1623 -0.1119
  208POPC   C1A 2982  10.025   2.173   5.642 -0.1214 -0.2921 -0.0236
  208POPC   D2A 2983  10.332   1.966   5.791 -0.0315  0.1449 -0.2652
  208POPC   C3A 2984  10.731   2.101   6.044  0.2806  0.0189 -0.0472
  208POPC   C4A 2985  10.971   2.221   6.406 -0.2231  0.0200  0.0300
  208POPC   C1B 2986  10.007   1.639   5.513  0.3342  0.1289 -0.2652
  208POPC   C2B 2987  10.032   1.549   5.976  0.1306 -0.1527 -0.0934
  208POPC   C3B 2988   9.962   1.405   6.353 -0.0622 -0.0113 -0.3407
  208POPC   C4B 2989   9.953   1.342   6.862  0.1809  0.1254 -0.1101
  209POPC   NC3 2990   7.532   6.326   4.938  0.0762 -0.0850  0.2292
  209POPC   PO4 2991   7.759   5.964   5.104  0.2331 -0.2715  0.0551
  209POPC   GL1 2992   7.614   6.108   5.520 -0.1773  0.1940  0.2484
  209POPC   GL2 2993   7.265   6.127   5.516  0.3317 -0.4162 -0.2306
  209POPC   C1A 2994   7.549   6.229   5.936  0.2916  0.1448  0.2198
  209POPC   D2A 2995   7.548   6.563   6.214  0.1246 -0.2322  0.1229
  209POPC   C3A 2996   7.495   6.560   6.569 -0.1290 -0.2522  0.1113
  209POPC   C4A 2997   7.517   6.381   6.921 -0.1020 -0.1857  0.1659
  209POPC   C1B 2998   7.506   6.578   5.596 -0.0178  0.0441  0.1500
  209POPC   C2B 2999   7.352   6.904   5.882 -0.2101  0.0275 -0.0617
  209POPC   C3B 3000   7.177   6.843   6.344  0.0877  0.2372 -0.2452
  209POPC   C4B 3001   6.763   6.656   6.563  0.2328  0.0517  0.2129
  210POPC   NC3 3002   5.271   0.885   4.969  0.0133  0.1339  0.2593
  210POPC   PO4 3003   5.248   1.294   4.816  0.0205  0.1121  0.1295
  210POPC   GL1 3004   5.206   1.323   5.261  0.0885 -0.2145 -0.5941
  210POPC   GL2 3005   5.007   1.060   5.409  0.0585 -0.1106  0.0198
  210POPC   C1A 3006   5.442   1.554   5.560  0.0535  0.0224  0.0865
  210POPC   D2A 3007   5.811   1.431   5.832 -0.2586 -0.1330 -0.0569
  210POPC   C3A 3008   5.952   1.934   5.824 -0.1734 -0.0221  0.0146
  210POPC   C4A 3009   6.298   2.027   6.125  0.1255  0.2888 -0.0212
  210POPC   C1B 3010   5.055   0.823   5.717  0.2909 -0.0405 -0.2447
  210POPC   C2B 3011   5.417   0.803   6.130  0.1692  0.1453 -0.1207
  210POPC   C3B 3012   5.880   0.990   6.077 -0.0750 -0.3127 -0.0820
  210POPC   C4B 3013   6.286   1.044   6.070  0.2420  0.0413  0.0322
  211POPC   NC3 3014   1.212   3.682   5.316  0.1574 -0.0462 -0.3684
  211POPC   PO4 3015   0.776   3.504   5.223  0.0512 -0.0693  0.0648
  211POPC   GL1 3016   0.783   3.744   5.576  0.1121 -0.1033 -0.0423
  211POPC   GL2 3017   0.790   4.032   5.459 -0.1965  0.0958  0.0453
  211POPC   C1A 3018   1.056   3.523   5.975  0.0464  0.2018 -0.0577
  211POPC   D2A 3019   1.067   3.435   6.441  0.1706 -0.2553  0.2196
  211POPC   C3A 3020   1.054   2.962   6.680 -0.0011 -0.3146  0.0641
  211POPC   C4A 3021   1.304   2.753   6.862 -0.0104  0.3010  0.1197
  211POPC   C1B 3022   0.803   4.237   5.930  0.1357  0.0210  0.0537
  211POPC   C2B 3023   0.708   4.162   6.305 -0.0845 -0.0790 -0.2100
  211POPC   C3B 3024   0.746   4.408   6.703  0.3417  0.0845  0.0574
  211POPC   C4B 3025   0.734   4.640   7.077  0.1483  0.3253  0.0726
  212POPC   NC3 3026   3.277   9.934   4.433 -0.0990  0.1343  0.0734
  212POPC   PO4 3027   3.803   9.652   4.441 -0.2070 -0.3317 -0.0822
  212POPC   GL1 3028   3.657   9.645   4.976 -0.0495 -0.1283  0.2255
  212POPC   GL2 3029   3.988   9.616   4.952  0.1200 -0.0490 -0.1329
  212POPC   C1A 3030   3.369   9.570   5.359 -0.2228  0.3022 -0.3063
  212POPC   D2A 3031   3.199   9.383   5.660 -0.0692 -0.0155  0.2157
  212POPC   C3A 3032   3.355   9.524   5.979 -0.0526  0.0659  0.0252
  212POPC   C4A 3033   3.352   9.292   6.364 -0.0741  0.0328  0.0917
  212POPC   C1B 3034   3.960   9.647   5.439  0.4692 -0.1251  0.0897
  212POPC   C2B 3035   3.840   9.740   5.787  0.0801 -0.0555  0.0998
  212POPC   C3B 3036   3.846   9.812   6.256 -0.0406  0.1324  0.0288
  212POPC   C4B 3037   4.142  10.180   6.503 -0.1806 -0.1715  0.2235
  213POPC   NC3 3038   7.811   6.184   4.094  0.0908 -0.0206  0.2234
  213POPC   PO4 3039   7.692   6.681   4.021  0.2156 -0.1598  0.0493
  213POPC   GL1 3040   7.595   6.900   4.454 -0.0851  0.2886  0.1604
  213POPC   GL2 3041   7.264   6.929   4.565  0.0760 -0.0715 -0.2334
  213POPC   C1A 3042   7.708   7.088   4.855  0.2150 -0.4009 -0.3104
  213POPC   D2A 3043   7.615   7.469   5.049  0.0724 -0.1568 -0.0295
  213POPC   C3A 3044   7.526   7.564   5.428  0.4339  0.5990  0.1938
  213POPC   C4A 3045   7.674   7.318   5.796 -0.4409 -0.1838  0.0567
  213POPC   C1B 3046   7.219   7.243   4.873  0.1946 -0.1292  0.2047
  213POPC   C2B 3047   7.021   7.632   5.103  0.0200 -0.1967 -0.0039
  213POPC   C3B 3048   7.041   7.757   5.524  0.0207 -0.2354 -0.1614
  213POPC   C4B 3049   7.389   7.949   5.851 -0.2943  0.2389  0.2825
  214POPC   NC3 3050   6.170   3.065   4.991 -0.0095  0.2642 -0.2804
  214POPC   PO4 3051   6.164   2.633   5.193  0.2406 -0.0609 -0.0815
  214POPC   GL1 3052   6.341   2.788   5.511  0.1488  0.1112  0.1926
  214POPC   GL2 3053   6.227   3.041   5.514 -0.0941  0.0779 -0.0231
  214POPC   C1A 3054   6.377   2.865   5.980  0.0117 -0.0838 -0.2749
  214POPC   D2A 3055   6.421   2.902   6.441 -0.0626 -0.0171  0.0075
  214POPC   C3A 3056   6.823   2.869   6.576  0.3159 -0.0865  0.0872
  214POPC   C4A 3057   6.936   2.811   7.038  0.2385  0.2178 -0.3398
  214POPC   C1B 3058   6.232   3.395   5.842  0.0361  0.0782 -0.2229
  214POPC   C2B 3059   5.987   3.681   6.198 -0.1103  0.1372 -0.0447
  214POPC   C3B 3060   6.074   3.734   6.606 -0.0090 -0.2268  0.1384
  214POPC   C4B 3061   5.748   3.449   6.852 -0.0288  0.3361  0.1540
  215POPC   NC3 3062   8.565   2.073   4.831 -0.0420 -0.2207 -0.5882
  215POPC   PO4 3063   9.073   2.343   4.778 -0.2718  0.4207 -0.2185
  215POPC   GL1 3064   9.164   2.251   5.253 -0.0650  0.1341 -0.2515
  215POPC   GL2 3065   9.211   1.813   5.250  0.4929  0.0100 -0.3321
  215POPC   C1A 3066   9.428   2.207   5.544 -0.0791  0.0164 -0.0160
  215POPC   D2A 3067   9.606   1.840   5.756 -0.5652  0.3243 -0.1434
  215POPC   C3A 3068   9.436   1.622   6.151  0.0892 -0.1743 -0.1763
  215POPC   C4A 3069   9.479   1.416   6.598 -0.1380  0.1200 -0.1451
  215POPC   C1B 3070   9.106   1.734   5.712  0.4667 -0.2276 -0.1472
  215POPC   C2B 3071   9.157   2.025   6.051  0.2433  0.1936 -0.1618
  215POPC   C3B 3072   8.902   2.271   6.239  0.0950  0.2110 -0.2009
  215POPC   C4B 3073   8.583   2.423   6.539  0.2413 -0.2798 -0.0879
  216POPC   NC3 3074   9.321   9.059   2.952  0.0931 -0.1046  0.1140
  216POPC   PO4 3075   9.096   9.491   3.084  0.0349  0.5072 -0.2277
  216POPC   GL1 3076   8.990   9.384   3.479  0.1317 -0.5130  0.1197
  216POPC   GL2 3077   8.853   9.663   3.651  0.4899  0.3791 -0.2108
  216POPC   C1A 3078   8.799   9.306   4.015  0.1536  0.2979  0.0568
  216POPC   D2A 3079   8.822   9.133   4.465 -0.0548 -0.1279  0.1278
  216POPC   C3A 3080   9.194   9.222   4.803 -0.1457 -0.3179  0.2317
  216POPC   C4A 3081   9.236   9.107   5.235 -0.0037 -0.2067 -0.2392
  216POPC   C1B 3082   9.114   9.787   3.974 -0.0999  0.0503 -0.0270
  216POPC   C2B 3083   9.240  10.059   4.265 -0.0113 -0.1184  0.3940
  216POPC   C3B 3084   9.598  10.191   4.445 -0.1906 -0.1821  0.3006
  216POPC   C4B 3085   9.758  10.155   4.809 -0.0664 -0.1527 -0.4735
  217POPC   NC3 3086   1.715   3.450   5.527  0.0202  0.0992 -0.1531
  217POPC   PO4 3087   1.814   3.104   5.307  0.0739  0.1138  0.0485
  217POPC   GL1 3088   1.781   3.034   5.684  0.0362  0.1990 -0.1471
  217POPC   GL2 3089   2.040   2.787   5.715  0.3476 -0.2600  0.0925
  217POPC   C1A 3090   1.539   3.201   6.115 -0.2890 -0.2617 -0.2115
  217POPC   D2A 3091   1.512   3.162   6.589  0.0677 -0.0856 -0.1689
  217POPC   C3A 3092   1.803   2.783   6.839  0.0234 -0.1976 -0.1202
  217POPC   C4A 3093   2.114   2.633   6.679  0.3653 -0.2184  0.2472
  217POPC   C1B 3094   2.378   2.781   6.045  0.1961  0.0349  0.1054
  217POPC   C2B 3095   2.557   2.659   6.408  0.0368  0.0542  0.0166
  217POPC   C3B 3096   2.596   2.553   6.771  0.1759  0.0051 -0.0801
  217POPC   C4B 3097   2.942   2.369   7.011 -0.1390 -0.2190  0.0417
  218POPC   NC3 3098   6.731   2.557   5.416 -0.2073 -0.2115 -0.4290
  218POPC   PO4 3099   7.175   2.493   5.556 -0.1143 -0.1281  0.2606
  218POPC   GL1 3100   7.137   2.575   5.892 -0.0163 -0.2538 -0.0862
  218POPC   GL2 3101   6.786   2.704   5.912  0.2216  0.0727  0.1963
  218POPC   C1A 3102   7.164   2.658   6.350 -0.0836 -0.2252 -0.0464
  218POPC   D2A 3103   7.231   2.498   6.705  0.1157 -0.0840  0.0167
  218POPC   C3A 3104   7.117   2.063   6.633 -0.1617 -0.3189  0.0647
  218POPC   C4A 3105   6.650   1.976   6.495  0.0082  0.0290 -0.0850
  218POPC   C1B 3106   6.595   2.416   6.320 -0.2523 -0.1560  0.2093
  218POPC   C2B 3107   6.707   2.425   6.753 -0.3074  0.2439  0.1086
  218POPC   C3B 3108   6.982   2.188   7.081 -0.0013  0.0757  0.3194
  218POPC   C4B 3109   7.144   1.711   7.044  0.0101 -0.0429  0.1682
  219POPC   NC3 3110   4.722   2.098   5.313  0.3220 -0.1932  0.2070
  219POPC   PO4 3111   5.199   2.178   5.129  0.2176 -0.0179 -0.2986
  219POPC   GL1 3112   5.183   1.935   5.538  0.1000 -0.1331 -0.1446
  219POPC   GL2 3113   4.940   1.877   5.683 -0.1136  0.1626 -0.1950
  219POPC   C1A 3114   5.454   1.854   5.960  0.1918  0.1106 -0.0940
  219POPC   D2A 3115   5.675   1.741   6.339 -0.0061 -0.0992 -0.0378
  219POPC   C3A 3116   6.116   1.881   6.569  0.3334 -0.1894 -0.2582
  219POPC   C4A 3117   6.341   2.166   6.889  0.3406  0.1498 -0.2019
  219POPC   C1B 3118   4.987   1.678   6.095  0.0829  0.1135 -0.0135
  219POPC   C2B 3119   5.054   1.516   6.489  0.0112  0.0068 -0.1132
  219POPC   C3B 3120   5.442   1.569   6.837  0.1535 -0.0276  0.1244
  219POPC   C4B 3121   5.865   1.804   6.969 -0.1461 -0.2979 -0.3334
  220POPC   NC3 3122   6.690   3.929   5.252  0.0476 -0.3312 -0.1122
  220POPC   PO4 3123   6.375   3.657   4.991 -0.2869 -0.0467  0.0231
  220POPC   GL1 3124   6.451   3.540   5.443 -0.3474  0.0374  0.1140
  220POPC   GL2 3125   6.288   3.805   5.565  0.3108  0.1276 -0.0487
  220POPC   C1A 3126   6.720   3.318   5.699 -0.1198  0.6739  0.2045
  220POPC   D2A 3127   6.912   3.129   6.113  0.3167  0.2906 -0.2004
  220POPC   C3A 3128   6.967   3.373   6.481  0.0025 -0.0134 -0.2454
  220POPC   C4A 3129   6.871   3.336   6.976  0.0778  0.0802 -0.2700
  220POPC   C1B 3130   6.583   3.793   5.842 -0.1461  0.2026 -0.0281
  220POPC   C2B 3131   6.565   3.525   6.230  0.0389 -0.2741 -0.0164
  220POPC   C3B 3132   6.343   3.361   6.576  0.0113  0.1810  0.3485
  220POPC   C4B 3133   6.288   3.112   6.863 -0.4119 -0.1207 -0.1449
  221POPC   NC3 3134   1.888   4.814   5.109  0.0043  0.0385 -0.0414
  221POPC   PO4 3135   1.907   4.657   5.481  0.0137  0.1920 -0.2311
  221POPC   GL1 3136   1.823   4.736   5.886 -0.1108  0.1328  0.0914
  221POPC   GL2 3137   1.984   5.056   5.932 -0.2565  0.0150  0.0598
  221POPC   C1A 3138   2.006   4.731   6.285  0.1010 -0.0978  0.0132
  221POPC   D2A 3139   2.130   4.490   6.715 -0.1816 -0.0882  0.0884
  221POPC   C3A 3140   2.057   4.753   6.929 -0.2599  0.1020 -0.2463
  221POPC   C4A 3141   1.888   5.164   6.801  0.1468  0.6131  0.3457
  221POPC   C1B 3142   1.852   5.340   6.228  0.0712 -0.0334 -0.0217
  221POPC   C2B 3143   1.852   5.627   6.550 -0.0078 -0.2458  0.3145
  221POPC   C3B 3144   1.806   5.768   6.908 -0.0273 -0.0087 -0.0246
  221POPC   C4B 3145   1.704   6.012   7.257 -0.2570  0.2602 -0.3034
  222POPC   NC3 3146   0.805  10.326   4.213  0.3157 -0.1430  0.0268
  222POPC   PO4 3147   0.559   9.982   4.212  0.1555  0.0160 -0.2087
  222POPC   GL1 3148   0.374  10.176   4.543 -0.3375 -0.2284  0.2307
  222POPC   GL2 3149   0.575  10.391   4.633 -0.1449 -0.2286 -0.3007
  222POPC   C1A 3150   0.271   9.989   4.924 -0.3820 -0.0023 -0.0440
  222POPC   D2A 3151   0.305  10.035   5.350  0.1466 -0.2813  0.5105
  222POPC   C3A 3152  -0.006  10.110   5.644  0.1565 -0.2534 -0.0523
  222POPC   C4A 3153  -0.079  10.018   6.116  0.2777  0.0936 -0.0292
  222POPC   C1B 3154   0.778  10.341   5.094  0.1762 -0.0347  0.1594
  222POPC   C2B 3155   0.754  10.422   5.444 -0.2452  0.1394  0.1590
  222POPC   C3B 3156   0.388  10.433   5.690 -0.0314 -0.4145 -0.3745
  222POPC   C4B 3157  -0.014  10.510   5.963  0.0685 -0.1126 -0.0313
  223POPC   NC3 3158   3.516   8.981   4.470 -0.2359 -0.0480  0.0115
  223POPC   PO4 3159   3.359   9.435   4.557  0.0368  0.1559 -0.0138
  223POPC   GL1 3160   3.085   9.585   4.898  0.0819 -0.0523 -0.0747
  223POPC   GL2 3161   3.235   9.870   4.952  0.4171  0.1964 -0.0889
  223POPC   C1A 3162   2.895   9.255   5.242 -0.1734  0.0815  0.0492
  223POPC   D2A 3163   2.570   8.974   5.366  0.0006  0.0115 -0.1775
  223POPC   C3A 3164   2.541   9.110   5.706  0.0992  0.0883  0.1142
  223POPC   C4A 3165   2.480   9.153   6.283  0.1078 -0.0604  0.0945
  223POPC   C1B 3166   3.080  10.250   5.141  0.1148 -0.0252 -0.4065
  223POPC   C2B 3167   2.913  10.530   5.412  0.4041 -0.1366  0.0855
  223POPC   C3B 3168   2.530  10.558   5.536  0.0523 -0.0408  0.0763
  223POPC   C4B 3169   2.091  10.633   5.525  0.2467 -0.1824 -0.1775
  224POPC   NC3 3170   3.625   0.592   4.183 -0.0079  0.1522 -0.4217
  224POPC   PO4 3171   3.272   0.462   4.567 -0.1552  0.2727 -0.1977
  224POPC   GL1 3172   3.281   0.503   5.037  0.2691 -0.1559 -0.0845
  224POPC   GL2 3173   3.558   0.543   5.196 -0.2239  0.2609  0.1890
  224POPC   C1A 3174   3.182   0.591   5.541  0.1724  0.1237  0.0363
  224POPC   D2A 3175   3.230   0.612   5.870  0.2135 -0.1226  0.1210
  224POPC   C3A 3176   3.396   0.795   6.219 -0.3503  0.2033  0.2104
  224POPC   C4A 3177   3.235   0.984   6.650  0.1056 -0.3261  0.0459
  224POPC   C1B 3178   3.719   0.448   5.598 -0.1815  0.1095  0.0656
  224POPC   C2B 3179   3.615   0.320   6.044  0.2570 -0.1170  0.2673
  224POPC   C3B 3180   3.191   0.187   6.278 -0.2468 -0.0428 -0.2226
  224POPC   C4B 3181   3.107  -0.152   6.600 -0.0283 -0.2202  0.2492
  225POPC   NC3 3182   3.935  10.118   4.243 -0.0371  0.0345  0.3430
  225POPC   PO4 3183   3.710  10.089   4.626 -0.1340  0.0522  0.1155
  225POPC   GL1 3184   3.651  10.143   5.059  0.1357  0.1579 -0.4407
  225POPC   GL2 3185   4.036  10.069   5.179 -0.0536  0.1104 -0.0055
  225POPC   C1A 3186   3.545  10.060   5.446 -0.3043  0.0194  0.3107
  225POPC   D2A 3187   3.493  10.169   5.981  0.2017 -0.1496 -0.0102
  225POPC   C3A 3188   3.560  10.264   6.359  0.0888 -0.0296  0.0329
  225POPC   C4A 3189   3.487  10.520   6.822  0.1798  0.1163  0.2220
  225POPC   C1B 3190   4.412   9.899   5.292 -0.2775 -0.2652  0.1914
  225POPC   C2B 3191   4.666   9.736   5.642  0.1367  0.0209  0.2113
  225POPC   C3B 3192   5.023   9.819   6.075 -0.0493 -0.0110 -0.0570
  225POPC   C4B 3193   5.408   9.838   6.328 -0.1888 -0.0885 -0.0181
  226POPC   NC3 3194  10.102   5.508   4.888 -0.0905  0.0063  0.1531
  226POPC   PO4 3195  10.139   5.480   5.275  0.0851  0.1148 -0.0546
  226POPC   GL1 3196  10.271   5.513   5.691 -0.3766 -0.0133  0.3075
  226POPC   GL2 3197   9.963   5.513   5.812  0.0045 -0.1955 -0.1159
  226POPC   C1A 3198  10.655   5.637   5.919  0.4321 -0.3254  0.0473
  226POPC   D2A 3199  10.929   5.955   6.152 -0.1113 -0.0696 -0.0441
  226POPC   C3A 3200  10.994   6.325   6.410 -0.1161  0.0163  0.0954
  226POPC   C4A 3201  11.049   6.626   6.724  0.0268  0.0539 -0.0469
  226POPC   C1B 3202  10.356   5.293   6.177 -0.1636 -0.1984 -0.3690
  226POPC   C2B 3203  10.470   4.957   6.471  0.0339 -0.2274  0.1346
  226POPC   C3B 3204  10.539   4.616   6.729  0.1026  0.0062 -0.3238
  226POPC   C4B 3205  10.692   4.434   6.907 -0.0664  0.0430 -0.0365
  227POPC   NC3 3206   0.858   7.356   4.238 -0.2097  0.0092 -0.1868
  227POPC   PO4 3207   0.824   7.628   4.670  0.1629 -0.0327 -0.1014
  227POPC   GL1 3208   0.882   7.748   5.075  0.1397  0.1078 -0.1631
  227POPC   GL2 3209   1.027   7.476   5.256 -0.2780 -0.1879  0.0734
  227POPC   C1A 3210   0.621   7.719   5.431  0.1798  0.1628 -0.2310
  227POPC   D2A 3211   0.353   7.694   5.956  0.1072 -0.0207  0.2122
  227POPC   C3A 3212   0.275   7.949   6.355  0.1766  0.0891  0.0754
  227POPC   C4A 3213   0.266   8.062   6.741  0.0740 -0.0728 -0.0304
  227POPC   C1B 3214   1.006   7.421   5.713  0.2042  0.0084 -0.0642
  227POPC   C2B 3215   1.200   7.566   6.113  0.2507 -0.0147 -0.0086
  227POPC   C3B 3216   1.313   8.034   6.158  0.4049  0.3311 -0.0205
  227POPC   C4B 3217   1.451   8.340   6.396  0.0808  0.0962 -0.0395
  228POPC   NC3 3218   7.514   5.182   5.815 -0.1098 -0.1170  0.1404
  228POPC   PO4 3219   7.619   5.575   5.765  0.0734  0.0498 -0.2820
  228POPC   GL1 3220   7.421   5.762   6.096 -0.1257 -0.2512 -0.0953
  228POPC   GL2 3221   7.140   5.723   6.373  0.1311  0.0999  0.1792
  228POPC   C1A 3222   7.545   6.031   6.435 -0.2915  0.1047  0.1241
  228POPC   D2A 3223   7.621   5.868   6.875  0.0162  0.2912  0.2620
  228POPC   C3A 3224   7.707   5.368   6.920  0.1441 -0.0090  0.1248
  228POPC   C4A 3225   8.183   5.134   6.974  0.1578 -0.1095 -0.0511
  228POPC   C1B 3226   7.273   5.369   6.392 -0.0723  0.2327 -0.0782
  228POPC   C2B 3227   7.693   5.497   6.413  0.1435  0.1108 -0.1534
  228POPC   C3B 3228   8.134   5.645   6.120  0.3656  0.2058 -0.1696
  228POPC   C4B 3229   8.509   5.806   6.302 -0.1421  0.4296 -0.2706
  229POPC   NC3 3230   6.763   9.925   2.920 -0.2842  0.2400 -0.2351
  229POPC   PO4 3231   6.855   9.549   3.118  0.0920  0.0767 -0.2963
  229POPC   GL1 3232   6.912   9.447   3.504 -0.2550  0.2652  0.0243
  229POPC   GL2 3233   6.976   9.142   3.535 -0.0740  0.0203  0.5425
  229POPC   C1A 3234   6.944   9.535   3.831 -0.0305  0.0225  0.2131
  229POPC   D2A 3235   7.023   9.603   4.250  0.0710  0.0779  0.1442
  229POPC   C3A 3236   7.141  10.065   4.425  0.0255 -0.0342 -0.1886
  229POPC   C4A 3237   7.408  10.303   4.305  0.1305 -0.4884  0.3506
  229POPC   C1B 3238   6.942   8.961   3.911 -0.1732  0.0398 -0.3048
  229POPC   C2B 3239   6.839   9.174   4.269 -0.0133  0.1511 -0.0686
  229POPC   C3B 3240   6.938   9.233   4.775  0.2437 -0.0919 -0.1683
  229POPC   C4B 3241   6.955   9.457   5.163  0.1559 -0.2895  0.0697
  230POPC   NC3 3242  10.278  10.283   3.241  0.0817 -0.2511 -0.1189
  230POPC   PO4 3243   9.997  10.114   3.558 -0.2855 -0.1435 -0.0709
  230POPC   GL1 3244  10.093   9.946   3.965  0.0428 -0.1182 -0.0285
  230POPC   GL2 3245   9.932   9.682   3.956 -0.1172 -0.0435  0.1463
  230POPC   C1A 3246  10.073  10.075   4.320  0.1719 -0.0851  0.0114
  230POPC   D2A 3247  10.269  10.143   4.704  0.1702  0.0376 -0.0600
  230POPC   C3A 3248  10.231  10.083   5.084 -0.0183  0.0141 -0.0518
  230POPC   C4A 3249   9.970  10.192   5.373 -0.0889 -0.4459 -0.0837
  230POPC   C1B 3250   9.663   9.720   4.365  0.2382  0.2980 -0.1642
  230POPC   C2B 3251   9.568   9.384   4.587 -0.0501 -0.1178 -0.1047
  230POPC   C3B 3252   9.640   9.115   4.937 -0.0097  0.0905 -0.0190
  230POPC   C4B 3253   9.718   8.872   5.333 -0.0499  0.0654 -0.1775
  231POPC   NC3 3254   0.907   1.661   5.034 -0.0199 -0.0582 -0.0461
  231POPC   PO4 3255   1.070   1.285   4.802  0.0746  0.0876  0.0443
  231POPC   GL1 3256   1.209   1.329   5.275 -0.1486  0.1440  0.0050
  231POPC   GL2 3257   1.567   1.467   5.317 -0.1867  0.3399 -0.3158
  231POPC   C1A 3258   1.290   1.293   5.792  0.2478 -0.2355  0.3206
  231POPC   D2A 3259   1.642   1.386   5.937 -0.0389 -0.0700  0.1946
  231POPC   C3A 3260   1.765   1.835   5.746 -0.0785 -0.4564 -0.2471
  231POPC   C4A 3261   1.562   2.312   5.866  0.2288 -0.1436  0.1200
  231POPC   C1B 3262   1.760   1.076   5.525 -0.0038 -0.0354  0.2462
  231POPC   C2B 3263   1.858   0.918   5.895 -0.2301 -0.1057  0.0381
  231POPC   C3B 3264   1.613   0.978   6.333  0.1323  0.1997 -0.1258
  231POPC   C4B 3265   1.317   1.094   6.633 -0.1520  0.3541 -0.0349
  232POPC   NC3 3266   7.610   4.320   5.513 -0.1249  0.0537 -0.0819
  232POPC   PO4 3267   7.183   4.077   5.509  0.4270  0.3294 -0.0968
  232POPC   GL1 3268   7.426   3.906   5.840  0.0272  0.1151  0.0367
  232POPC   GL2 3269   7.549   4.158   6.095 -0.1770 -0.0471 -0.0076
  232POPC   C1A 3270   7.413   3.613   6.273 -0.1568 -0.0202  0.0484
  232POPC   D2A 3271   7.501   3.526   6.598 -0.0118 -0.1117  0.1792
  232POPC   C3A 3272   7.926   3.851   6.744 -0.0192  0.0164  0.0247
  232POPC   C4A 3273   8.178   4.166   6.621  0.1198  0.0571  0.0098
  232POPC   C1B 3274   7.980   3.944   6.193 -0.0935  0.1237 -0.1623
  232POPC   C2B 3275   8.453   3.887   6.200 -0.0000  0.2671 -0.2919
  232POPC   C3B 3276   8.658   3.570   6.003 -0.1115  0.1860 -0.1878
  232POPC   C4B 3277   8.499   3.165   5.841  0.3314  0.1598 -0.1504
  233POPC   NC3 3278   4.116   8.321   4.567  0.1518 -0.0538 -0.1276
  233POPC   PO4 3279   3.758   8.503   4.761 -0.4251  0.1441 -0.0527
  233POPC   GL1 3280   3.657   8.745   4.985  0.0008 -0.1958  0.1053
  233POPC   GL2 3281   3.694   9.158   5.259  0.0585 -0.2561  0.2682
  233POPC   C1A 3282   3.285   8.875   5.325  0.0400  0.0923  0.0945
  233POPC   D2A 3283   3.018   8.914   5.658 -0.0203  0.1322 -0.1065
  233POPC   C3A 3284   2.693   8.654   5.793 -0.0894 -0.0105 -0.2427
  233POPC   C4A 3285   2.372   8.659   6.185 -0.0892 -0.2125  0.1340
  233POPC   C1B 3286   3.676   9.200   5.601 -0.3046  0.4039  0.0076
  233POPC   C2B 3287   3.824   9.234   5.982  0.1214  0.3517 -0.1056
  233POPC   C3B 3288   4.116   9.245   6.280 -0.2001 -0.2458  0.2717
  233POPC   C4B 3289   4.172   9.082   6.651  0.0982 -0.1882 -0.1113
  234POPC   NC3 3290   5.179   3.201   4.751  0.0425  0.0660 -0.2177
  234POPC   PO4 3291   5.246   2.805   5.016  0.2525 -0.5542 -0.0742
  234POPC   GL1 3292   5.431   2.556   5.392 -0.0317  0.0172  0.0945
  234POPC   GL2 3293   5.336   2.771   5.676  0.0587  0.0622  0.1651
  234POPC   C1A 3294   5.598   2.317   5.741  0.0595  0.0558  0.1350
  234POPC   D2A 3295   5.767   2.258   6.158 -0.2285  0.0619  0.2846
  234POPC   C3A 3296   6.057   2.517   6.423  0.4162  0.1419 -0.0303
  234POPC   C4A 3297   6.226   2.651   6.844  0.1035  0.1128  0.2577
  234POPC   C1B 3298   5.435   2.703   6.107 -0.0131  0.1932  0.0451
  234POPC   C2B 3299   5.561   2.599   6.458  0.2097  0.1631  0.2889
  234POPC   C3B 3300   5.817   2.299   6.769 -0.2791 -0.1691 -0.2513
  234POPC   C4B 3301   5.931   2.459   7.262 -0.0361  0.1614 -0.1661
  235POPC   NC3 3302   2.372   4.944   5.609 -0.0616 -0.0681 -0.2080
  235POPC   PO4 3303   2.786   4.986   5.390  0.1107  0.2606 -0.1617
  235POPC   GL1 3304   2.838   4.909   5.843  0.1695  0.1488  0.2922
  235POPC   GL2 3305   2.659   5.084   6.025 -0.2999  0.1156  0.0191
  235POPC   C1A 3306   2.961   4.821   6.384  0.0047 -0.1481 -0.0496
  235POPC   D2A 3307   2.935   4.839   6.931  0.0734 -0.1204 -0.0338
  235POPC   C3A 3308   3.211   5.134   7.057  0.0682  0.0717  0.2218
  235POPC   C4A 3309   3.274   5.175   7.488  0.0853 -0.0533 -0.1805
  235POPC   C1B 3310   2.389   5.046   6.326  0.2575 -0.1204 -0.2465
  235POPC   C2B 3311   2.445   5.002   6.774  0.1428 -0.0076  0.0728
  235POPC   C3B 3312   2.319   5.144   7.280  0.4403  0.1446 -0.0804
  235POPC   C4B 3313   1.919   4.908   7.372  0.0513  0.0428 -0.1702
  236POPC   NC3 3314   3.102   9.187   4.176 -0.0848 -0.1545  0.0312
  236POPC   PO4 3315   3.045   8.779   4.366  0.0976 -0.1214 -0.0555
  236POPC   GL1 3316   2.696   8.878   4.608  0.0863  0.4521 -0.2937
  236POPC   GL2 3317   2.708   9.167   4.736 -0.2239  0.1805 -0.2063
  236POPC   C1A 3318   2.445   8.738   4.928  0.1211  0.0192  0.0913
  236POPC   D2A 3319   2.149   8.854   5.183 -0.0201  0.1681 -0.1465
  236POPC   C3A 3320   2.210   8.725   5.633 -0.0648  0.2146  0.0130
  236POPC   C4A 3321   2.331   8.297   5.697 -0.0170 -0.2143 -0.3232
  236POPC   C1B 3322   2.403   9.331   5.006  0.0508  0.1492  0.0079
  236POPC   C2B 3323   2.455   9.527   5.457 -0.0547 -0.2444  0.2010
  236POPC   C3B 3324   2.681   9.583   5.829 -0.3149  0.2057  0.1976
  236POPC   C4B 3325   2.960   9.254   6.048 -0.0762  0.0938  0.0786
  237POPC   NC3 3326   0.371   9.054   3.964  0.0691  0.0963 -0.0881
  237POPC   PO4 3327   0.325   8.600   4.271  0.1266 -0.3908 -0.2660
  237POPC   GL1 3328   0.086   8.690   4.690  0.0835  0.2483 -0.1517
  237POPC   GL2 3329  -0.015   8.336   4.752  0.2644  0.2038 -0.1306
  237POPC   C1A 3330  -0.244   8.713   5.050 -0.2111  0.0616 -0.0274
  237POPC   D2A 3331  -0.263   8.594   5.520 -0.0049  0.0197 -0.1184
  237POPC   C3A 3332  -0.695   8.724   5.782 -0.2941  0.3727 -0.0534
  237POPC   C4A 3333  -0.850   8.468   6.147 -0.0473  0.1163  0.5107
  237POPC   C1B 3334  -0.174   8.134   5.179  0.1232  0.0937  0.0381
  237POPC   C2B 3335  -0.198   8.155   5.558  0.2126  0.4106  0.4933
  237POPC   C3B 3336  -0.453   8.280   5.891 -0.2948 -0.1458  0.0209
  237POPC   C4B 3337  -0.369   8.615   6.144  0.1449  0.3982 -0.2662
  238POPC   NC3 3338   0.211   4.133   4.822  0.0377  0.4774 -0.0823
  238POPC   PO4 3339   0.081   4.527   5.063  0.0705 -0.0911  0.3260
  238POPC   GL1 3340   0.267   4.609   5.457  0.2484  0.0888  0.1367
  238POPC   GL2 3341   0.403   4.352   5.622 -0.1570 -0.0867  0.2493
  238POPC   C1A 3342   0.406   4.747   5.920  0.0623 -0.1407 -0.2079
  238POPC   D2A 3343   0.757   4.670   6.180 -0.0434 -0.0108 -0.0514
  238POPC   C3A 3344   0.594   4.829   6.576 -0.0768 -0.2488  0.3486
  238POPC   C4A 3345   0.372   5.153   6.844 -0.0637  0.2200  0.2911
  238POPC   C1B 3346   0.311   4.055   5.924 -0.1569  0.0420  0.0436
  238POPC   C2B 3347   0.601   3.665   6.105 -0.0211 -0.2296  0.1323
  238POPC   C3B 3348   0.563   3.554   6.598  0.0518 -0.0643  0.3637
  238POPC   C4B 3349   0.695   3.434   6.938 -0.2453  0.4288 -0.6235
  239POPC   NC3 3350   1.615   8.954   4.261 -0.1566  0.0815  0.0627
  239POPC   PO4 3351   1.269   8.653   4.378 -0.1073 -0.0099  0.2195
  239POPC   GL1 3352   0.992   8.693   4.685  0.0972  0.0759 -0.0735
  239POPC   GL2 3353   0.749   8.533   4.703  0.2183  0.1422 -0.2553
  239POPC   C1A 3354   1.007   8.694   5.142 -0.0412 -0.0476 -0.0316
  239POPC   D2A 3355   1.231   8.885   5.537 -0.2141  0.1003  0.2126
  239POPC   C3A 3356   1.016   8.985   5.934  0.2901 -0.1376  0.5157
  239POPC   C4A 3357   0.785   8.986   6.317  0.0094  0.1963  0.0741
  239POPC   C1B 3358   0.552   8.620   5.140  0.0910 -0.2352  0.2276
  239POPC   C2B 3359   0.276   8.630   5.490  0.2040  0.1296 -0.1756
  239POPC   C3B 3360   0.104   8.608   5.953 -0.0010 -0.0506  0.1733
  239POPC   C4B 3361   0.205   8.975   6.329 -0.1041 -0.0399 -0.0199
  240POPC   NC3 3362   2.688   6.022   4.329 -0.0134  0.0373  0.0826
  240POPC   PO4 3363   2.701   5.842   4.761  0.1142 -0.1272 -0.1207
  240POPC   GL1 3364   2.991   6.028   5.139  0.0639  0.4343  0.1622
  240POPC   GL2 3365   3.204   6.098   5.243  0.0577 -0.2588 -0.2031
  240POPC   C1A 3366   2.962   5.804   5.609 -0.0850 -0.0431 -0.1784
  240POPC   D2A 3367   2.832   5.662   5.991  0.0518 -0.0325  0.3303
  240POPC   C3A 3368   2.670   5.898   6.396  0.0325  0.1861  0.1746
  240POPC   C4A 3369   2.484   5.952   6.830 -0.2798 -0.2285  0.4399
  240POPC   C1B 3370   3.094   6.312   5.579 -0.2422  0.3395  0.3163
  240POPC   C2B 3371   3.168   6.638   5.933  0.1496  0.0422  0.2265
  240POPC   C3B 3372   3.033   6.796   6.331 -0.0182 -0.2191  0.6304
  240POPC   C4B 3373   2.685   6.761   6.677  0.0646  0.0832  0.4214
  241POPC   NC3 3374   8.610   5.332   5.178  0.1083 -0.1209 -0.1892
  241POPC   PO4 3375   9.000   5.459   5.399 -0.0922  0.0972 -0.1287
  241POPC   GL1 3376   8.871   5.549   5.892 -0.4412  0.2982  0.3547
  241POPC   GL2 3377   9.044   5.165   6.042  0.0902  0.0704  0.0088
  241POPC   C1A 3378   9.044   5.573   6.306  0.0385 -0.0643 -0.3096
  241POPC   D2A 3379   9.045   5.717   6.754  0.0791 -0.0074  0.0365
  241POPC   C3A 3380   9.329   6.058   6.978 -0.0320  0.0603  0.0945
  241POPC   C4A 3381   9.687   6.290   6.783  0.1031  0.0587 -0.3532
  241POPC   C1B 3382   9.332   4.858   6.165  0.2657  0.0659  0.3709
  241POPC   C2B 3383   9.474   4.742   6.539 -0.1505 -0.0852 -0.2715
  241POPC   C3B 3384   9.531   4.338   6.724  0.0459 -0.2430 -0.0433
  241POPC   C4B 3385   9.478   3.980   6.754  0.1517  0.0878 -0.2593
  242POPC   NC3 3386   3.710   6.726   4.921 -0.0824  0.1987  0.1102
  242POPC   PO4 3387   4.115   6.462   5.030  0.4102  0.0383  0.1649
  242POPC   GL1 3388   4.190   6.712   5.292  0.0550  0.0633  0.4605
  242POPC   GL2 3389   4.238   7.007   5.283  0.2498 -0.0312 -0.1384
  242POPC   C1A 3390   4.169   6.740   5.764  0.0960  0.1065  0.3219
  242POPC   D2A 3391   4.058   6.765   6.236  0.1185  0.1304  0.3273
  242POPC   C3A 3392   4.152   6.522   6.577 -0.0117 -0.0320 -0.1074
  242POPC   C4A 3393   4.333   6.312   6.999 -0.0069  0.3363 -0.0407
  242POPC   C1B 3394   4.514   7.146   5.572  0.0086  0.1260 -0.1340
  242POPC   C2B 3395   4.763   7.412   5.937 -0.1501  0.1043  0.0271
  242POPC   C3B 3396   4.915   7.449   6.297 -0.2457  0.0051 -0.1282
  242POPC   C4B 3397   4.902   7.543   6.760  0.2375  0.1500 -0.2370
  243POPC   NC3 3398   7.897  10.160   3.528 -0.0845 -0.0206  0.0875
  243POPC   PO4 3399   7.474  10.227   3.387  0.5966  0.0409  0.1326
  243POPC   GL1 3400   7.454  10.104   3.774  0.0037  0.1925 -0.2364
  243POPC   GL2 3401   7.789  10.139   4.003  0.3042 -0.3420 -0.0882
  243POPC   C1A 3402   7.444   9.794   4.020  0.1709  0.2164 -0.5304
  243POPC   D2A 3403   7.544   9.799   4.486  0.4422 -0.2875  0.1789
  243POPC   C3A 3404   7.632   9.748   4.856 -0.0310 -0.5045 -0.2639
  243POPC   C4A 3405   7.898   9.575   5.113 -0.2213  0.0810 -0.0541
  243POPC   C1B 3406   8.063   9.950   4.388  0.1253  0.2656  0.1117
  243POPC   C2B 3407   8.115   9.953   4.840 -0.0940  0.0433  0.2730
  243POPC   C3B 3408   7.864  10.132   5.113 -0.2535 -0.0840  0.3812
  243POPC   C4B 3409   7.805  10.358   5.407  0.0218 -0.0793 -0.0776
  244POPC   NC3 3410   1.396   2.703   5.331 -0.0235  0.2426  0.1814
  244POPC   PO4 3411   1.292   3.139   5.475  0.0189  0.0785 -0.2829
  244POPC   GL1 3412   0.930   3.072   5.728  0.0354 -0.0952  0.1081
  244POPC   GL2 3413   0.852   2.731   5.729  0.2867 -0.3405  0.3882
  244POPC   C1A 3414   0.845   2.994   6.184 -0.1284  0.1497  0.0834
  244POPC   D2A 3415   0.609   2.841   6.516  0.2854 -0.1188  0.3075
  244POPC   C3A 3416   0.389   2.556   6.758  0.1279  0.2996  0.1038
  244POPC   C4A 3417   0.111   2.202   6.552  0.0868  0.1244 -0.3189
  244POPC   C1B 3418   0.476   2.588   5.993 -0.1166 -0.1391  0.1612
  244POPC   C2B 3419   0.116   2.684   6.336  0.0893 -0.3058 -0.3692
  244POPC   C3B 3420  -0.071   2.800   6.680  0.2975  0.1612  0.0528
  244POPC   C4B 3421  -0.208   3.052   6.961 -0.0722  0.0114  0.0197
  245POPC   NC3 3422   3.810   7.604   4.672  0.1232  0.1836 -0.0131
  245POPC   PO4 3423   3.918   7.234   4.797  0.2563  0.0864 -0.0871
  245POPC   GL1 3424   3.783   7.267   5.177  0.1119  0.0988 -0.2498
  245POPC   GL2 3425   3.856   7.598   5.279 -0.1413 -0.2737 -0.0570
  245POPC   C1A 3426   3.929   7.185   5.585  0.3267 -0.1407 -0.0334
  245POPC   D2A 3427   4.180   7.184   5.969  0.0743  0.1873  0.1250
  245POPC   C3A 3428   4.433   7.581   6.206  0.0366 -0.3657  0.0883
  245POPC   C4A 3429   4.609   7.852   6.341  0.5169 -0.0997 -0.1104
  245POPC   C1B 3430   3.610   7.560   5.582  0.3592 -0.1788 -0.0257
  245POPC   C2B 3431   3.574   7.575   6.001 -0.2214 -0.0004  0.0891
  245POPC   C3B 3432   3.622   7.711   6.430  0.1009 -0.2060  0.1206
  245POPC   C4B 3433   3.519   7.948   6.739  0.0720 -0.1005 -0.3232
  246POPC   NC3 3434   1.377   1.812   5.006 -0.1322 -0.0727 -0.5272
  246POPC   PO4 3435   1.357   2.200   5.160 -0.1243  0.1448 -0.2094
  246POPC   GL1 3436   1.226   1.802   5.502  0.2894  0.4843 -0.0567
  246POPC   GL2 3437   0.889   1.789   5.498 -0.0755  0.1189  0.2370
  246POPC   C1A 3438   1.286   1.762   5.942  0.1094 -0.1550  0.1086
  246POPC   D2A 3439   1.282   1.940   6.364  0.0898  0.0025 -0.0622
  246POPC   C3A 3440   0.940   1.969   6.592  0.1389  0.1645 -0.3349
  246POPC   C4A 3441   0.573   2.096   6.875 -0.2680  0.3491 -0.0149
  246POPC   C1B 3442   0.772   1.817   5.972  0.4581 -0.1112  0.1063
  246POPC   C2B 3443   0.566   1.769   6.394  0.1103 -0.1965  0.0672
  246POPC   C3B 3444   0.261   1.377   6.445 -0.2031 -0.2079  0.2217
  246POPC   C4B 3445  -0.051   1.132   6.581 -0.1607 -0.2316 -0.2515
  247POPC   NC3 3446   0.330   1.383   4.485 -0.0742  0.1284  0.1040
  247POPC   PO4 3447   0.529   1.721   4.695  0.2926  0.1680 -0.1013
  247POPC   GL1 3448   0.586   1.319   4.959  0.1921  0.1316 -0.1168
  247POPC   GL2 3449   0.708   1.258   5.331  0.1047 -0.0435 -0.2132
  247POPC   C1A 3450   0.287   1.125   5.247 -0.2485  0.0069  0.4057
  247POPC   D2A 3451  -0.132   1.106   5.325 -0.1598  0.1282 -0.2587
  247POPC   C3A 3452  -0.233   1.065   5.663 -0.0975 -0.1034  0.1293
  247POPC   C4A 3453  -0.268   0.934   6.134  0.2186  0.0386  0.0897
  247POPC   C1B 3454   0.621   1.374   5.860  0.1500 -0.0885  0.2675
  247POPC   C2B 3455   0.919   1.399   6.107 -0.0199 -0.0686 -0.1993
  247POPC   C3B 3456   1.306   1.443   6.302 -0.0745 -0.1669  0.1796
  247POPC   C4B 3457   1.717   1.781   6.229 -0.3829  0.0279  0.2116
  248POPC   NC3 3458   8.527   9.500   3.295  0.1881 -0.1801  0.0825
  248POPC   PO4 3459   8.250   9.211   3.346  0.2265 -0.1278 -0.2733
  248POPC   GL1 3460   8.317   9.401   3.816 -0.0529  0.2020  0.0167
  248POPC   GL2 3461   8.069   9.508   3.794  0.2282 -0.0398  0.0837
  248POPC   C1A 3462   8.471   9.693   4.153  0.1149 -0.3301 -0.0711
  248POPC   D2A 3463   8.779   9.861   4.416  0.2963 -0.3447 -0.0377
  248POPC   C3A 3464   9.062   9.595   4.508 -0.0114  0.1394  0.3374
  248POPC   C4A 3465   9.276   9.297   4.160 -0.2816  0.1123 -0.3414
  248POPC   C1B 3466   7.775   9.428   4.188  0.1514 -0.1782 -0.0424
  248POPC   C2B 3467   7.946   9.376   4.630  0.0307 -0.1873 -0.2993
  248POPC   C3B 3468   8.311   9.256   5.039  0.4291 -0.3014 -0.2945
  248POPC   C4B 3469   8.731   9.318   5.057  0.2531  0.0178  0.0879
  249POPC   NC3 3470   5.529   8.923   3.840 -0.1156 -0.0539  0.1875
  249POPC   PO4 3471   5.524   8.480   3.937  0.0228  0.2148  0.0434
  249POPC   GL1 3472   5.459   8.435   4.325 -0.0706 -0.3647 -0.0053
  249POPC   GL2 3473   5.593   8.191   4.543 -0.0184 -0.0844 -0.1453
  249POPC   C1A 3474   5.413   8.518   4.811  0.0867 -0.1408 -0.0267
  249POPC   D2A 3475   5.664   8.628   5.086  0.4261 -0.3033 -0.2867
  249POPC   C3A 3476   5.825   8.805   5.437 -0.1632  0.1365  0.0974
  249POPC   C4A 3477   6.238   9.094   5.425  0.1032  0.1785 -0.0554
  249POPC   C1B 3478   5.200   8.029   4.837  0.0848 -0.1458  0.2028
  249POPC   C2B 3479   5.089   8.004   5.222 -0.0245 -0.3603  0.0023
  249POPC   C3B 3480   4.977   8.288   5.556  0.3332 -0.0352 -0.2851
  249POPC   C4B 3481   4.992   8.383   5.908  0.0159 -0.1374 -0.0606
  250POPC   NC3 3482   6.603   7.567   3.846  0.1533  0.1277  0.3327
  250POPC   PO4 3483   6.453   7.195   4.047 -0.0287 -0.3556  0.1148
  250POPC   GL1 3484   6.384   7.144   4.515 -0.1918  0.0964 -0.1425
  250POPC   GL2 3485   6.211   7.413   4.482 -0.1021 -0.1026  0.3639
  250POPC   C1A 3486   6.220   7.036   4.929 -0.5615  0.0926  0.3181
  250POPC   D2A 3487   6.234   7.189   5.430  0.1283 -0.1458 -0.0725
  250POPC   C3A 3488   6.287   7.239   5.820 -0.2599 -0.1470 -0.4292
  250POPC   C4A 3489   5.935   7.253   6.203 -0.2480  0.0271  0.3140
  250POPC   C1B 3490   6.062   7.585   4.841 -0.0529 -0.2431  0.2210
  250POPC   C2B 3491   5.845   7.883   4.989  0.2506 -0.0861 -0.3008
  250POPC   C3B 3492   6.011   8.197   5.182 -0.1477 -0.0157  0.1527
  250POPC   C4B 3493   6.189   8.419   5.578  0.4524  0.1349 -0.1444
  251POPC   NC3 3494   7.472   2.380   5.137 -0.1104 -0.0532  0.0192
  251POPC   PO4 3495   7.526   2.912   5.250  0.0450 -0.2631  0.0265
  251POPC   GL1 3496   7.482   2.848   5.705 -0.0293  0.0750 -0.0406
  251POPC   GL2 3497   7.348   3.073   5.856 -0.1688 -0.0149 -0.0324
  251POPC   C1A 3498   7.598   2.676   6.041  0.0068  0.0383  0.2921
  251POPC   D2A 3499   7.660   2.705   6.492 -0.1068 -0.2316  0.3077
  251POPC   C3A 3500   7.673   2.305   6.698  0.1755  0.1285 -0.1348
  251POPC   C4A 3501   7.522   2.084   6.956  0.2263  0.1512  0.0755
  251POPC   C1B 3502   7.428   3.091   6.372 -0.0948 -0.0389  0.1171
  251POPC   C2B 3503   7.343   2.982   6.797  0.5139 -0.1753  0.3267
  251POPC   C3B 3504   7.390   3.078   7.248  0.2755 -0.0092 -0.2777
  251POPC   C4B 3505   7.468   3.485   7.426 -0.0959 -0.0526 -0.2408
  252POPC   NC3 3506   2.564   2.675   4.953  0.0247 -0.3182 -0.0595
  252POPC   PO4 3507   2.644   2.988   5.169 -0.2856  0.2892  0.1535
  252POPC   GL1 3508   2.635   2.829   5.457  0.1963  0.0442  0.3304
  252POPC   GL2 3509   2.452   2.583   5.569  0.2219  0.1258  0.2256
  252POPC   C1A 3510   2.658   3.034   5.769  0.0730  0.3923 -0.0267
  252POPC   D2A 3511   2.761   3.206   6.144  0.4295  0.2002 -0.0929
  252POPC   C3A 3512   2.419   3.132   6.406 -0.0728 -0.0332 -0.2036
  252POPC   C4A 3513   1.984   3.000   6.364 -0.0742 -0.2570  0.1006
  252POPC   C1B 3514   2.603   2.305   5.892  0.1184 -0.0850  0.1430
  252POPC   C2B 3515   2.356   2.107   6.324  0.2279  0.0988 -0.1250
  252POPC   C3B 3516   2.239   1.943   6.777 -0.1810 -0.0329  0.1953
  252POPC   C4B 3517   2.057   1.595   6.992  0.2498 -0.0008  0.0125
  253POPC   NC3 3518   2.575   8.395   4.436  0.5390 -0.1543 -0.1678
  253POPC   PO4 3519   2.901   8.079   4.624  0.2067 -0.1611  0.0927
  253POPC   GL1 3520   2.868   8.430   4.950 -0.0151 -0.1883  0.0459
  253POPC   GL2 3521   3.129   8.452   5.186 -0.0544 -0.0437  0.0876
  253POPC   C1A 3522   2.570   8.419   5.284 -0.2047  0.1427 -0.1567
  253POPC   D2A 3523   2.085   8.324   5.242 -0.0060  0.3071 -0.1023
  253POPC   C3A 3524   1.807   8.329   5.580 -0.1248  0.1128 -0.0491
  253POPC   C4A 3525   1.857   8.424   6.008  0.2726  0.2476  0.1723
  253POPC   C1B 3526   3.109   8.408   5.599 -0.1118  0.0364  0.2580
  253POPC   C2B 3527   3.146   8.453   6.051 -0.1588 -0.0961  0.0508
  253POPC   C3B 3528   3.394   8.592   6.478 -0.0385 -0.3373 -0.2507
  253POPC   C4B 3529   3.579   8.977   6.654 -0.0984 -0.1928  0.0462
  254POPC   NC3 3530   4.031   1.780   4.774 -0.1554  0.0177  0.1536
  254POPC   PO4 3531   3.842   1.422   4.545  0.3354 -0.3395 -0.1283
  254POPC   GL1 3532   3.722   1.365   4.962  0.0286  0.0559 -0.0105
  254POPC   GL2 3533   3.753   1.611   5.202 -0.0691  0.0311 -0.1267
  254POPC   C1A 3534   3.709   1.008   5.205 -0.0440  0.1977 -0.2833
  254POPC   D2A 3535   3.521   0.935   5.615 -0.0060  0.1026 -0.0424
  254POPC   C3A 3536   3.669   1.216   5.932 -0.4051  0.0343  0.2584
  254POPC   C4A 3537   3.565   1.279   6.354  0.0749 -0.2562 -0.0266
  254POPC   C1B 3538   3.982   1.279   5.540  0.0242 -0.0304  0.1135
  254POPC   C2B 3539   4.159   1.329   5.928  0.1793 -0.3095  0.0633
  254POPC   C3B 3540   4.556   1.329   6.122  0.2499  0.0231  0.2382
  254POPC   C4B 3541   4.473   1.091   6.485  0.0958 -0.1861  0.1422
  255POPC   NC3 3542   2.997   6.774   4.645 -0.0095 -0.0917  0.4168
  255POPC   PO4 3543   2.872   7.059   4.970  0.0523 -0.2729 -0.2408
  255POPC   GL1 3544   2.902   6.928   5.387 -0.1369 -0.1391  0.1814
  255POPC   GL2 3545   3.168   6.850   5.482 -0.0355  0.0749 -0.1811
  255POPC   C1A 3546   2.663   6.813   5.759  0.1149  0.2524  0.0051
  255POPC   D2A 3547   2.521   6.760   6.104  0.0440  0.1579  0.0002
  255POPC   C3A 3548   2.038   6.704   6.245  0.1417  0.0210  0.1800
  255POPC   C4A 3549   1.758   6.619   6.459 -0.1358  0.2052 -0.0478
  255POPC   C1B 3550   3.290   7.169   5.770  0.1693 -0.2582  0.1453
  255POPC   C2B 3551   3.173   7.300   6.178  0.0302 -0.2838  0.2209
  255POPC   C3B 3552   2.878   7.310   6.538  0.1168 -0.2908  0.1880
  255POPC   C4B 3553   3.049   7.131   6.953 -0.1900  0.0184  0.2072
  256POPC   NC3 3554   6.743   5.221   5.062  0.1570  0.1134 -0.4081
  256POPC   PO4 3555   6.568   4.697   5.177 -0.2693 -0.4365 -0.1727
  256POPC   GL1 3556   6.535   4.711   5.661  0.2131 -0.0187  0.0491
  256POPC   GL2 3557   6.112   4.939   5.672 -0.2514  0.0386 -0.1621
  256POPC   C1A 3558   6.409   4.548   6.000 -0.2802 -0.1152  0.1248
  256POPC   D2A 3559   6.202   4.547   6.404  0.0764  0.0804 -0.5461
  256POPC   C3A 3560   6.418   4.658   6.778  0.1602  0.0690  0.0798
  256POPC   C4A 3561   6.657   4.808   7.066  0.2226  0.0257  0.1125
  256POPC   C1B 3562   5.944   4.647   5.982 -0.0785 -0.0815  0.0537
  256POPC   C2B 3563   5.721   4.409   6.180  0.0558 -0.0872  0.2513
  256POPC   C3B 3564   5.870   4.153   6.413  0.0529  0.1296  0.0262
  256POPC   C4B 3565   5.751   3.967   6.861  0.3195 -0.0246 -0.0506
  257POPC   NC3 3566   9.555   8.443   3.734 -0.2741 -0.0480  0.2062
  257POPC   PO4 3567   9.747   8.829   3.528  0.0612  0.1103 -0.2530
  257POPC   GL1 3568   9.919   8.865   3.962 -0.0955 -0.1183  0.4044
  257POPC   GL2 3569  10.259   8.818   4.057  0.0764  0.1579  0.4275
  257POPC   C1A 3570   9.662   8.859   4.360 -0.1170 -0.2277  0.0593
  257POPC   D2A 3571   9.290   8.862   4.502  0.1681 -0.0032  0.2944
  257POPC   C3A 3572   9.000   8.709   4.251 -0.2153 -0.0260 -0.2512
  257POPC   C4A 3573   8.609   8.792   4.011 -0.0141  0.1108  0.2080
  257POPC   C1B 3574  10.117   9.051   4.440  0.2042  0.3247  0.1564
  257POPC   C2B 3575  10.105   9.148   4.867 -0.4323  0.0429 -0.0724
  257POPC   C3B 3576   9.932   9.333   5.238  0.0076  0.3007 -0.1201
  257POPC   C4B 3577   9.664   9.392   5.509  0.1068  0.0125  0.2285
  258POPC   NC3 3578   8.315   4.690   5.366 -0.4626 -0.0956  0.2288
  258POPC   PO4 3579   8.228   5.145   5.359 -0.0403  0.3928  0.0210
  258POPC   GL1 3580   8.527   5.115   5.675 -0.1226  0.1171  0.0429
  258POPC   GL2 3581   8.576   4.753   5.772 -0.1937 -0.0334  0.3758
  258POPC   C1A 3582   8.542   5.253   6.090  0.0426 -0.0736 -0.1160
  258POPC   D2A 3583   8.642   5.408   6.606 -0.0170 -0.0123  0.2955
  258POPC   C3A 3584   8.433   5.680   6.899  0.2191 -0.1356 -0.2159
  258POPC   C4A 3585   8.292   6.024   7.105 -0.0422  0.1081 -0.3141
  258POPC   C1B 3586   8.284   4.757   6.049 -0.0066  0.0034 -0.2747
  258POPC   C2B 3587   8.108   5.033   6.385 -0.0248 -0.2434 -0.0086
  258POPC   C3B 3588   8.147   5.412   6.554  0.0786  0.1124  0.0281
  258POPC   C4B 3589   8.072   5.819   6.579 -0.2159  0.1811  0.1807
  259POPC   NC3 3590   8.459   5.663   5.546 -0.0100 -0.1988 -0.3144
  259POPC   PO4 3591   8.760   5.963   5.309 -0.0284  0.0661  0.0038
  259POPC   GL1 3592   8.875   5.997   5.742 -0.0554  0.0756 -0.1768
  259POPC   GL2 3593   8.586   6.072   5.836 -0.1758 -0.0486  0.1303
  259POPC   C1A 3594   9.177   5.994   6.017  0.1405 -0.3192  0.0256
  259POPC   D2A 3595   9.245   6.018   6.435  0.0950  0.0144  0.0081
  259POPC   C3A 3596   9.512   5.793   6.631  0.1936  0.2791 -0.5001
  259POPC   C4A 3597   9.412   5.321   6.651  0.0585  0.3181 -0.0836
  259POPC   C1B 3598   8.768   6.199   6.217  0.2910 -0.0265 -0.1044
  259POPC   C2B 3599   8.728   6.082   6.640 -0.0016 -0.2387  0.3288
  259POPC   C3B 3600   8.834   6.050   7.076 -0.0835 -0.1298 -0.1127
  259POPC   C4B 3601   8.839   6.109   7.493  0.6178 -0.1550 -0.2387
  260POPC   NC3 3602   9.937   0.552   3.897 -0.0014 -0.0919 -0.2967
  260POPC   PO4 3603   9.604   0.740   4.072  0.1747  0.0795  0.0096
  260POPC   GL1 3604   9.528   0.767   4.441 -0.1844 -0.0700  0.2608
  260POPC   GL2 3605   9.646   0.516   4.653  0.3181 -0.0547 -0.0181
  260POPC   C1A 3606   9.216   0.945   4.876 -0.1370 -0.1549 -0.2042
  260POPC   D2A 3607   9.238   0.925   5.311  0.0950 -0.0022  0.2786
  260POPC   C3A 3608   9.434   0.845   5.729  0.0566  0.1102  0.1598
  260POPC   C4A 3609   9.696   0.624   6.033 -0.3101  0.1600 -0.1714
  260POPC   C1B 3610   9.376   0.512   5.045  0.2223  0.0396  0.0025
  260POPC   C2B 3611   9.190   0.435   5.416 -0.0175  0.2800  0.2734
  260POPC   C3B 3612   9.018   0.159   5.658  0.0452  0.0744 -0.2036
  260POPC   C4B 3613   8.783   0.097   6.005  0.0306 -0.1538 -0.0285
  261POPC   NC3 3614   4.169   5.671   4.813 -0.0709  0.0211 -0.0113
  261POPC   PO4 3615   4.277   5.669   5.231 -0.0842  0.0435  0.2290
  261POPC   GL1 3616   4.263   5.937   5.565 -0.0153  0.0532  0.1121
  261POPC   GL2 3617   4.350   6.249   5.517  0.1286  0.0164  0.1391
  261POPC   C1A 3618   4.325   5.785   6.069 -0.2367  0.1068  0.2820
  261POPC   D2A 3619   4.567   5.556   6.344  0.5690  0.2168 -0.2717
  261POPC   C3A 3620   4.880   5.576   6.654 -0.0760 -0.3035 -0.1447
  261POPC   C4A 3621   4.854   5.396   7.132 -0.2369  0.1076  0.1828
  261POPC   C1B 3622   4.651   6.151   5.880 -0.2938 -0.2553  0.4766
  261POPC   C2B 3623   4.706   6.184   6.315 -0.1429 -0.0841 -0.1085
  261POPC   C3B 3624   4.786   6.091   6.770  0.1457  0.3281 -0.1611
  261POPC   C4B 3625   4.693   5.909   7.156  0.0946  0.0946  0.2039
  262POPC   NC3 3626   4.728   5.846   5.250 -0.2573  0.2158  0.1913
  262POPC   PO4 3627   4.972   6.120   5.007  0.0698  0.1575 -0.0393
  262POPC   GL1 3628   4.991   6.268   5.392 -0.1504  0.1569 -0.2295
  262POPC   GL2 3629   5.094   6.487   5.374  0.0798  0.0964 -0.0881
  262POPC   C1A 3630   5.012   6.476   5.909  0.0247 -0.1271 -0.0619
  262POPC   D2A 3631   5.071   6.508   6.414 -0.0540  0.1204 -0.0072
  262POPC   C3A 3632   5.335   6.772   6.685 -0.1917 -0.3359  0.2504
  262POPC   C4A 3633   5.404   7.222   6.831 -0.2633  0.2510 -0.1522
  262POPC   C1B 3634   4.680   6.664   5.598  0.0527  0.1391  0.1522
  262POPC   C2B 3635   4.550   6.778   6.048  0.2616 -0.0649  0.0462
  262POPC   C3B 3636   4.453   7.036   6.402  0.1002 -0.1743  0.0279
  262POPC   C4B 3637   4.039   7.360   6.395 -0.1606  0.2208 -0.0977
  263POPC   NC3 3638   3.023   3.442   4.694 -0.0423 -0.1093 -0.1783
  263POPC   PO4 3639   3.256   3.560   4.933  0.0026 -0.0166  0.2772
  263POPC   GL1 3640   3.509   3.499   5.450  0.2082  0.0639 -0.0157
  263POPC   GL2 3641   3.330   3.796   5.683 -0.1652 -0.0931  0.2628
  263POPC   C1A 3642   3.731   3.643   5.856 -0.0968  0.2765  0.0639
  263POPC   D2A 3643   3.804   3.956   6.215  0.0007 -0.1018 -0.0090
  263POPC   C3A 3644   3.684   4.384   6.134 -0.0777  0.0848 -0.0012
  263POPC   C4A 3645   3.506   4.621   6.420  0.1097 -0.0338 -0.2123
  263POPC   C1B 3646   3.319   3.855   6.150 -0.1171 -0.0554 -0.2791
  263POPC   C2B 3647   3.440   4.105   6.552  0.3692  0.2359 -0.0737
  263POPC   C3B 3648   3.837   4.328   6.648 -0.1388 -0.0357  0.1753
  263POPC   C4B 3649   4.138   4.380   6.954 -0.0357 -0.0744  0.1243
  264POPC   NC3 3650   2.907   7.581   4.856 -0.2130 -0.0524 -0.0729
  264POPC   PO4 3651   3.295   7.670   4.583  0.1163  0.0453  0.0132
  264POPC   GL1 3652   3.350   7.698   5.022 -0.2150  0.1551 -0.1313
  264POPC   GL2 3653   3.217   7.449   5.262 -0.0156  0.1219 -0.0723
  264POPC   C1A 3654   3.442   8.002   5.339 -0.1372 -0.1775 -0.4344
  264POPC   D2A 3655   3.643   8.380   5.340  0.0589  0.1042 -0.0800
  264POPC   C3A 3656   3.526   8.642   5.709  0.0245 -0.3226 -0.0144
  264POPC   C4A 3657   3.472   8.894   5.980 -0.3110  0.0783  0.0821
  264POPC   C1B 3658   3.107   7.641   5.627  0.0234  0.2375  0.3042
  264POPC   C2B 3659   2.932   7.726   6.068  0.1076 -0.1937  0.0204
  264POPC   C3B 3660   2.688   7.744   6.417  0.0102  0.1214  0.1480
  264POPC   C4B 3661   2.616   7.985   6.838 -0.1281  0.2032  0.0102
  265POPC   NC3 3662   8.399   7.114   3.996  0.1914  0.0360  0.3983
  265POPC   PO4 3663   8.682   6.880   4.288  0.3561  0.1997 -0.1317
  265POPC   GL1 3664   8.393   7.096   4.608 -0.3071 -0.1391  0.0128
  265POPC   GL2 3665   8.117   6.957   4.554 -0.2473  0.0580  0.0890
  265POPC   C1A 3666   8.115   7.304   4.987  0.0457 -0.3120  0.1329
  265POPC   D2A 3667   7.946   7.273   5.312 -0.4209 -0.3192  0.1483
  265POPC   C3A 3668   8.036   7.623   5.560  0.0067  0.0474 -0.1411
  265POPC   C4A 3669   7.821   7.899   5.671  0.0765  0.2152 -0.1911
  265POPC   C1B 3670   7.979   7.474   4.372  0.0692 -0.0338 -0.2151
  265POPC   C2B 3671   7.909   7.898   4.179 -0.1744 -0.2418  0.1554
  265POPC   C3B 3672   7.973   8.340   4.163  0.1102  0.1873  0.2200
  265POPC   C4B 3673   8.190   8.626   4.267 -0.1624  0.1618 -0.0562
  266POPC   NC3 3674   2.505   6.167   5.049  0.2230  0.0382  0.2488
  266POPC   PO4 3675   2.290   5.756   5.150 -0.2282 -0.0904 -0.0279
  266POPC   GL1 3676   2.335   5.739   5.481  0.0869 -0.1465  0.0062
  266POPC   GL2 3677   2.478   5.412   5.692  0.0211  0.4697 -0.1721
  266POPC   C1A 3678   2.383   6.023   5.847 -0.0498  0.0150 -0.2046
  266POPC   D2A 3679   2.299   6.279   6.038  0.0816 -0.1705 -0.1625
  266POPC   C3A 3680   2.472   6.408   6.424  0.1890 -0.0388  0.1386
  266POPC   C4A 3681   2.952   6.343   6.544 -0.1008  0.2751  0.0836
  266POPC   C1B 3682   2.331   5.527   6.066  0.1916 -0.1406  0.0234
  266POPC   C2B 3683   2.323   5.535   6.627 -0.1078  0.0620 -0.0262
  266POPC   C3B 3684   2.271   5.548   7.048 -0.0949  0.0610  0.2708
  266POPC   C4B 3685   1.938   5.432   7.279  0.2001 -0.0671  0.4541
  267POPC   NC3 3686   2.690  10.377   4.269 -0.0596  0.0015 -0.1159
  267POPC   PO4 3687   2.759  10.564   4.684  0.2892  0.0208  0.1067
  267POPC   GL1 3688   2.571  10.311   5.137 -0.1580 -0.0013  0.4342
  267POPC   GL2 3689   2.213  10.378   5.166  0.0336  0.2556  0.1606
  267POPC   C1A 3690   2.579  10.023   5.515  0.0270  0.2463  0.1281
  267POPC   D2A 3691   2.575  10.055   5.885  0.2194  0.0440 -0.0844
  267POPC   C3A 3692   2.331   9.748   6.223  0.1227 -0.0743  0.1568
  267POPC   C4A 3693   2.360   9.537   6.644  0.1495  0.1197  0.1230
  267POPC   C1B 3694   2.106   9.989   5.425 -0.0706 -0.2067 -0.0762
  267POPC   C2B 3695   2.106   9.726   5.770  0.1262  0.2700  0.0194
  267POPC   C3B 3696   1.951   9.481   6.138  0.1026 -0.0140 -0.0458
  267POPC   C4B 3697   1.945   9.260   6.481  0.1623  0.2690 -0.2915
  268POPC   NC3 3698   3.614   0.104   4.306 -0.0802 -0.2119  0.2706
  268POPC   PO4 3699   4.057   0.236   4.170 -0.0449  0.1397  0.3492
  268POPC   GL1 3700   4.017   0.095   4.638  0.1500 -0.1565  0.1200
  268POPC   GL2 3701   3.700   0.225   4.797 -0.0330 -0.1394  0.0680
  268POPC   C1A 3702   4.319  -0.032   4.916  0.3106 -0.1831  0.0588
  268POPC   D2A 3703   4.727  -0.037   5.075  0.1793  0.1006 -0.1662
  268POPC   C3A 3704   4.845  -0.082   5.512 -0.1378  0.2630 -0.0154
  268POPC   C4A 3705   4.974  -0.135   5.855  0.1712  0.2701 -0.3041
  268POPC   C1B 3706   3.880   0.124   5.194  0.2568  0.2291 -0.2663
  268POPC   C2B 3707   3.913  -0.032   5.675 -0.0536  0.1205  0.3462
  268POPC   C3B 3708   3.962  -0.047   6.103  0.2724 -0.0780 -0.0396
  268POPC   C4B 3709   3.853   0.208   6.486 -0.3971 -0.4202 -0.0010
  269POPC   NC3 3710   8.835   2.750   4.646  0.1062  0.1009  0.0901
  269POPC   PO4 3711   8.707   3.000   4.955 -0.0993 -0.0841 -0.2719
  269POPC   GL1 3712   8.645   2.994   5.433 -0.2338 -0.4153  0.0643
  269POPC   GL2 3713   8.441   2.771   5.600  0.0224 -0.0006 -0.1003
  269POPC   C1A 3714   9.049   3.007   5.743  0.5871 -0.1617 -0.0010
  269POPC   D2A 3715   9.258   2.707   5.807 -0.0118 -0.2148  0.0814
  269POPC   C3A 3716   8.978   2.427   5.701  0.0765  0.0057 -0.1844
  269POPC   C4A 3717   8.817   2.019   5.443  0.1625 -0.6147  0.0166
  269POPC   C1B 3718   8.701   2.728   6.081  0.2266  0.1424 -0.0489
  269POPC   C2B 3719   8.987   2.751   6.345  0.0223  0.0908 -0.0328
  269POPC   C3B 3720   9.166   2.527   6.602 -0.0260  0.0966 -0.1719
  269POPC   C4B 3721   9.496   2.596   6.692 -0.0142 -0.0933  0.1524
  270POPC   NC3 3722   9.570   7.193   4.386 -0.0251  0.2012  0.2125
  270POPC   PO4 3723   9.524   6.713   4.393 -0.0217  0.1148 -0.1974
  270POPC   GL1 3724   9.398   6.945   4.815 -0.2856  0.2290  0.2687
  270POPC   GL2 3725   9.639   7.214   4.903  0.2069 -0.0217 -0.0270
  270POPC   C1A 3726   9.221   7.249   5.198  0.1123 -0.0829  0.1245
  270POPC   D2A 3727   9.070   7.422   5.488  0.1005 -0.0728 -0.2176
  270POPC   C3A 3728   9.295   7.828   5.616 -0.3292 -0.0720 -0.2991
  270POPC   C4A 3729   9.541   8.208   5.716  0.0839  0.0058 -0.0072
  270POPC   C1B 3730   9.508   7.626   5.112 -0.0301  0.0041 -0.2470
  270POPC   C2B 3731   9.748   7.913   5.258  0.0124 -0.2225  0.1286
  270POPC   C3B 3732   9.757   8.373   5.261  0.0051 -0.0948  0.1547
  270POPC   C4B 3733   9.287   8.583   5.432 -0.1127 -0.0380  0.0025
  271POPC   NC3 3734   4.021   0.988   4.409  0.1548  0.0596 -0.2681
  271POPC   PO4 3735   4.085   0.569   4.540  0.0316 -0.1271 -0.1444
  271POPC   GL1 3736   4.037   0.657   5.018 -0.1438 -0.3810  0.2439
  271POPC   GL2 3737   4.178   0.454   5.152 -0.0720 -0.0180 -0.0303
  271POPC   C1A 3738   4.120   0.754   5.545  0.0106 -0.2145 -0.0295
  271POPC   D2A 3739   4.192   0.437   5.767  0.0696  0.2115  0.0097
  271POPC   C3A 3740   4.222   0.424   6.229 -0.1092 -0.1550 -0.0232
  271POPC   C4A 3741   4.302   0.331   6.639 -0.2736  0.0313 -0.2200
  271POPC   C1B 3742   4.373   0.077   5.428  0.1227 -0.0975  0.0849
  271POPC   C2B 3743   4.433  -0.237   5.786  0.1261 -0.4441 -0.2349
  271POPC   C3B 3744   4.347  -0.507   6.139  0.0926  0.0921 -0.1093
  271POPC   C4B 3745   4.327  -0.724   6.596 -0.0200  0.0518 -0.3645
  272POPC   NC3 3746   0.880   4.806   5.106  0.1065 -0.0664  0.2405
  272POPC   PO4 3747   1.328   4.906   5.104 -0.0242  0.2091 -0.0733
  272POPC   GL1 3748   1.163   4.937   5.569  0.2606 -0.1017 -0.1882
  272POPC   GL2 3749   1.366   4.637   5.635 -0.1116 -0.3067 -0.1536
  272POPC   C1A 3750   0.996   5.102   6.040  0.4016 -0.0576 -0.0051
  272POPC   D2A 3751   0.494   5.182   6.136 -0.0713  0.1769 -0.3326
  272POPC   C3A 3752   0.327   5.466   6.442  0.2236  0.2144 -0.0441
  272POPC   C4A 3753   0.366   5.816   6.669  0.1172 -0.0829  0.0259
  272POPC   C1B 3754   1.269   4.604   6.070  0.1953  0.1306 -0.1326
  272POPC   C2B 3755   1.135   4.578   6.464 -0.0323 -0.0404 -0.0616
  272POPC   C3B 3756   1.189   4.516   6.886 -0.0402  0.0394  0.0848
  272POPC   C4B 3757   1.270   4.087   7.050 -0.1540  0.1481 -0.2516
  273POPC   NC3 3758   8.886   3.629   5.211 -0.0833 -0.0577 -0.1825
  273POPC   PO4 3759   8.901   4.083   5.120 -0.2823  0.0205 -0.1672
  273POPC   GL1 3760   9.025   3.955   5.602  0.2663 -0.1890 -0.1978
  273POPC   GL2 3761   9.148   4.297   5.688 -0.0568 -0.0797 -0.3583
  273POPC   C1A 3762   8.886   4.048   6.102 -0.0543 -0.0134  0.0147
  273POPC   D2A 3763   8.749   4.041   6.554  0.1802 -0.1241 -0.1486
  273POPC   C3A 3764   8.422   3.750   6.858 -0.0162  0.2883 -0.0737
  273POPC   C4A 3765   8.340   3.208   7.025  0.3741  0.1688 -0.2805
  273POPC   C1B 3766   8.948   4.524   5.921 -0.1734  0.0999 -0.0859
  273POPC   C2B 3767   8.866   4.728   6.356  0.0397  0.0574 -0.0991
  273POPC   C3B 3768   9.001   4.946   6.786 -0.0002 -0.0212  0.0061
  273POPC   C4B 3769   9.316   4.999   7.111 -0.0560 -0.2814  0.0090
  274POPC   NC3 3770   0.350   3.300   5.204 -0.1982 -0.1964 -0.0736
  274POPC   PO4 3771   0.345   2.884   5.180  0.0622 -0.3757 -0.1947
  274POPC   GL1 3772   0.361   2.816   5.564  0.0868 -0.1819  0.0125
  274POPC   GL2 3773   0.393   3.142   5.691 -0.1597 -0.1995 -0.2353
  274POPC   C1A 3774  -0.014   2.871   5.827  0.0995  0.0067  0.1765
  274POPC   D2A 3775  -0.130   3.229   6.226  0.3107 -0.1237  0.0554
  274POPC   C3A 3776  -0.391   3.513   6.211  0.0317  0.0628 -0.1579
  274POPC   C4A 3777  -0.579   3.629   5.835  0.1677 -0.1598 -0.1311
  274POPC   C1B 3778   0.323   3.114   6.161 -0.0545 -0.4226  0.1438
  274POPC   C2B 3779   0.214   3.208   6.570 -0.0128  0.3462 -0.2533
  274POPC   C3B 3780   0.193   3.460   6.855  0.0351  0.0919 -0.2333
  274POPC   C4B 3781  -0.211   3.458   7.171  0.1999 -0.0105  0.2241
  275POPC   NC3 3782   0.026   3.210   4.804  0.0064 -0.0450 -0.1493
  275POPC   PO4 3783  -0.092   3.650   4.966 -0.2951  0.0236  0.0535
  275POPC   GL1 3784  -0.151   3.518   5.396 -0.2336 -0.2145  0.1671
  275POPC   GL2 3785  -0.022   3.121   5.410  0.3889 -0.1553 -0.1133
  275POPC   C1A 3786  -0.039   3.512   5.816  0.0081  0.0410  0.0100
  275POPC   D2A 3787   0.137   3.658   6.302 -0.2809  0.0151 -0.1936
  275POPC   C3A 3788   0.044   4.088   6.373 -0.4241  0.0186  0.0231
  275POPC   C4A 3789   0.306   4.465   6.322  0.0838  0.0119 -0.1502
  275POPC   C1B 3790  -0.398   3.156   5.703 -0.0729  0.0557  0.2242
  275POPC   C2B 3791  -0.402   2.820   6.168 -0.0362  0.3565 -0.0168
  275POPC   C3B 3792  -0.515   3.035   6.531 -0.0705 -0.1211  0.0672
  275POPC   C4B 3793  -0.464   3.378   6.700 -0.0511 -0.1117  0.0863
  276POPC   NC3 3794   4.743   4.018   4.685 -0.3961 -0.0506 -0.0769
  276POPC   PO4 3795   4.590   4.219   5.026  0.0059  0.1629  0.0968
  276POPC   GL1 3796   4.476   3.986   5.506 -0.1185 -0.2919 -0.0329
  276POPC   GL2 3797   4.569   3.704   5.704 -0.1319  0.1621  0.0016
  276POPC   C1A 3798   4.211   3.818   5.946 -0.1149  0.0423 -0.0022
  276POPC   D2A 3799   4.157   3.562   6.270  0.0291  0.1210  0.2602
  276POPC   C3A 3800   4.022   3.229   6.291 -0.1175 -0.0308 -0.0775
  276POPC   C4A 3801   4.037   2.784   5.935 -0.0342 -0.0064  0.3845
  276POPC   C1B 3802   4.671   3.376   5.907 -0.0472 -0.0164 -0.2365
  276POPC   C2B 3803   4.937   3.078   6.091  0.2355  0.1376 -0.0251
  276POPC   C3B 3804   4.880   2.594   6.199 -0.2738  0.0098 -0.2081
  276POPC   C4B 3805   5.098   2.523   6.588 -0.1172 -0.0287  0.1408
  277POPC   NC3 3806   9.485  10.144   3.405  0.2562  0.4005 -0.0577
  277POPC   PO4 3807   9.572  10.614   3.617  0.2698 -0.0333  0.0610
  277POPC   GL1 3808   9.623  10.611   4.117  0.3393 -0.0226  0.0562
  277POPC   GL2 3809   9.431  10.634   4.261 -0.0905  0.0521  0.0346
  277POPC   C1A 3810   9.928  10.532   4.469 -0.2160 -0.0481  0.0568
  277POPC   D2A 3811  10.029  10.558   4.959 -0.1627  0.0314  0.1159
  277POPC   C3A 3812   9.850  10.775   5.212 -0.0289 -0.3118 -0.1822
  277POPC   C4A 3813   9.871  11.068   5.525 -0.1379  0.0958 -0.3356
  277POPC   C1B 3814   9.379  10.469   4.767  0.1998 -0.2121  0.2339
  277POPC   C2B 3815   9.548  10.394   5.144  0.2865  0.2981 -0.1814
  277POPC   C3B 3816   9.499  10.452   5.543  0.1213  0.1259  0.0127
  277POPC   C4B 3817   9.471  10.605   5.912  0.1789 -0.1900  0.1402
  278POPC   NC3 3818   3.380   8.398   4.362 -0.2594  0.1085  0.0289
  278POPC   PO4 3819   3.679   8.019   4.471  0.1176 -0.0190  0.0396
  278POPC   GL1 3820   3.889   7.968   4.993 -0.1581 -0.0326 -0.0215
  278POPC   GL2 3821   4.198   8.229   5.007 -0.2351 -0.0252  0.0645
  278POPC   C1A 3822   4.032   8.036   5.416 -0.0041 -0.0774 -0.0278
  278POPC   D2A 3823   3.981   8.234   5.854 -0.0544  0.1566 -0.0073
  278POPC   C3A 3824   3.586   8.201   6.018  0.1539 -0.0929 -0.3962
  278POPC   C4A 3825   3.363   8.029   5.884  0.2013 -0.0586  0.0490
  278POPC   C1B 3826   4.323   8.534   5.317  0.2336 -0.1598 -0.2892
  278POPC   C2B 3827   4.151   8.754   5.644 -0.0755  0.2504  0.0159
  278POPC   C3B 3828   3.994   8.775   5.932  0.0606  0.1064  0.1084
  278POPC   C4B 3829   3.857   8.790   6.311  0.0199 -0.2617  0.1095
  279POPC   NC3 3830   1.858   5.746   4.833  0.1483  0.2683  0.0960
  279POPC   PO4 3831   1.568   5.871   5.188 -0.0343  0.0099 -0.0806
  279POPC   GL1 3832   1.582   5.680   5.619  0.1006 -0.0855  0.0273
  279POPC   GL2 3833   1.904   5.556   5.755 -0.2670  0.0646 -0.1594
  279POPC   C1A 3834   1.459   5.776   5.979  0.4681 -0.0818 -0.1142
  279POPC   D2A 3835   1.242   5.434   6.294 -0.0315  0.1584 -0.1580
  279POPC   C3A 3836   1.331   5.409   6.695  0.0534 -0.1577  0.0517
  279POPC   C4A 3837   1.428   5.331   7.154  0.0212  0.0542 -0.1720
  279POPC   C1B 3838   1.946   5.920   6.072 -0.2827 -0.0585  0.0497
  279POPC   C2B 3839   2.083   6.120   6.425  0.1967  0.0773  0.0066
  279POPC   C3B 3840   1.988   6.225   6.833 -0.1958  0.0150  0.0947
  279POPC   C4B 3841   1.677   6.479   6.961  0.1212  0.2384 -0.1011
  280POPC   NC3 3842   4.520   6.852   4.811 -0.1197 -0.3589  0.0128
  280POPC   PO4 3843   4.917   7.020   4.572 -0.0983 -0.0830 -0.1711
  280POPC   GL1 3844   4.959   7.055   5.094 -0.1517 -0.4088  0.0617
  280POPC   GL2 3845   4.882   6.941   5.272 -0.0648 -0.1079 -0.1681
  280POPC   C1A 3846   5.216   7.305   5.302 -0.0350  0.1556  0.0293
  280POPC   D2A 3847   5.505   7.724   5.455  0.1598  0.1526 -0.2475
  280POPC   C3A 3848   5.366   7.948   5.756 -0.0454  0.2853  0.3089
  280POPC   C4A 3849   4.980   7.872   5.912 -0.0174 -0.0582 -0.1009
  280POPC   C1B 3850   5.080   6.902   5.658 -0.1351  0.4954 -0.2858
  280POPC   C2B 3851   4.980   6.949   6.162 -0.1661 -0.1549  0.1994
  280POPC   C3B 3852   4.935   7.050   6.562  0.2238 -0.1110 -0.4826
  280POPC   C4B 3853   4.989   6.978   7.056 -0.1374 -0.2309  0.4634
  281POPC   NC3 3854   1.973   8.251   4.699  0.0872 -0.0185 -0.2370
  281POPC   PO4 3855   1.893   8.535   4.393 -0.3668 -0.2711 -0.2068
  281POPC   GL1 3856   1.684   8.662   4.787 -0.0657  0.1723  0.1524
  281POPC   GL2 3857   1.393   8.434   4.847  0.2789 -0.0978 -0.1062
  281POPC   C1A 3858   1.623   8.763   5.246 -0.1517 -0.1159  0.0198
  281POPC   D2A 3859   1.713   8.940   5.634  0.4418  0.2917  0.0337
  281POPC   C3A 3860   1.491   9.209   5.899  0.0830  0.0783 -0.0541
  281POPC   C4A 3861   1.455   9.520   6.224  0.1953 -0.2461  0.1475
  281POPC   C1B 3862   1.328   8.269   5.225 -0.2287 -0.3716  0.1392
  281POPC   C2B 3863   1.304   8.379   5.698  0.2561  0.2245 -0.0157
  281POPC   C3B 3864   1.413   8.653   5.949 -0.1722  0.1921  0.1201
  281POPC   C4B 3865   1.279   9.013   6.365  0.0593  0.2773 -0.3633
  282POPC   NC3 3866   7.921   8.455   3.134 -0.0256  0.4980 -0.2064
  282POPC   PO4 3867   7.799   8.172   3.319  0.0101  0.1022  0.2572
  282POPC   GL1 3868   7.678   8.359   3.642  0.0003  0.3333  0.1089
  282POPC   GL2 3869   7.499   8.198   3.909  0.1510 -0.0666  0.2761
  282POPC   C1A 3870   7.693   8.626   3.921  0.2066  0.0689 -0.1265
  282POPC   D2A 3871   7.798   8.915   4.348  0.2773  0.2654  0.2074
  282POPC   C3A 3872   7.528   8.853   4.636 -0.0605  0.1692 -0.1486
  282POPC   C4A 3873   7.181   8.846   5.042 -0.0283 -0.2491  0.2497
  282POPC   C1B 3874   7.416   7.763   4.196 -0.1126  0.0493  0.2950
  282POPC   C2B 3875   7.535   7.572   4.555  0.0586 -0.1301 -0.0132
  282POPC   C3B 3876   7.895   7.823   4.750  0.1141 -0.0983  0.1312
  282POPC   C4B 3877   7.791   7.915   5.123 -0.0325 -0.0615 -0.0235
  283POPC   NC3 3878   1.925   7.112   4.542 -0.0176 -0.0857 -0.1326
  283POPC   PO4 3879   1.680   6.830   4.740 -0.1946  0.0008  0.0136
  283POPC   GL1 3880   1.621   6.986   5.270  0.0734  0.0065  0.0974
  283POPC   GL2 3881   1.886   6.896   5.305  0.3176 -0.1340 -0.2012
  283POPC   C1A 3882   1.403   7.088   5.621  0.0018  0.0406  0.2075
  283POPC   D2A 3883   1.117   7.040   6.023  0.2077 -0.1208  0.2153
  283POPC   C3A 3884   1.413   6.985   6.395  0.1932 -0.1712 -0.0888
  283POPC   C4A 3885   1.643   6.995   6.846  0.0126 -0.0999  0.0051
  283POPC   C1B 3886   2.095   6.941   5.685  0.1316 -0.3803 -0.0965
  283POPC   C2B 3887   2.182   7.139   6.007  0.3668  0.1382 -0.0126
  283POPC   C3B 3888   1.936   7.166   6.439 -0.3433  0.1438  0.0490
  283POPC   C4B 3889   1.957   7.431   6.724  0.0502  0.0105 -0.2368
  284POPC   NC3 3890   1.190   6.497   4.626 -0.0837 -0.0842 -0.0652
  284POPC   PO4 3891   0.811   6.496   4.926 -0.0576 -0.2779  0.0977
  284POPC   GL1 3892   0.509   6.617   5.374 -0.4013 -0.0530  0.0679
  284POPC   GL2 3893   0.364   6.824   5.506  0.0522 -0.0299 -0.3170
  284POPC   C1A 3894   0.434   6.459   5.816 -0.4529  0.4278  0.0832
  284POPC   D2A 3895   0.103   6.374   6.079 -0.0653 -0.4563  0.2406
  284POPC   C3A 3896   0.067   6.459   6.473 -0.1399  0.0308  0.1043
  284POPC   C4A 3897   0.182   6.557   6.901  0.1205 -0.2633  0.3781
  284POPC   C1B 3898   0.279   6.940   5.876 -0.0386 -0.3575  0.0543
  284POPC   C2B 3899  -0.031   6.973   6.276 -0.2090  0.5151  0.3193
  284POPC   C3B 3900  -0.130   7.025   6.727  0.1089  0.2845 -0.0750
  284POPC   C4B 3901   0.101   7.097   7.090  0.0462 -0.5061  0.0509
  285POPC   NC3 3902   4.555   3.729   5.134  0.0270 -0.1663 -0.0805
  285POPC   PO4 3903   4.858   3.440   5.102 -0.0216 -0.2587 -0.0302
  285POPC   GL1 3904   5.090   3.540   5.520 -0.0519 -0.1935 -0.0171
  285POPC   GL2 3905   5.217   3.395   5.746 -0.1265  0.0154  0.0435
  285POPC   C1A 3906   5.019   3.875   5.722 -0.1838 -0.0227 -0.2121
  285POPC   D2A 3907   4.763   3.961   6.043  0.1036  0.0377  0.0657
  285POPC   C3A 3908   4.735   3.574   6.389 -0.0871 -0.0905  0.0562
  285POPC   C4A 3909   4.406   3.456   6.678 -0.0235  0.1843  0.2859
  285POPC   C1B 3910   5.112   3.566   6.099  0.2490  0.0608  0.0604
  285POPC   C2B 3911   5.093   3.987   6.436  0.1193  0.2410  0.1344
  285POPC   C3B 3912   5.425   4.217   6.640 -0.1970 -0.1689  0.0745
  285POPC   C4B 3913   5.868   4.469   6.893  0.0649 -0.0543 -0.1483
  286POPC   NC3 3914   6.303   4.220   5.014  0.2650  0.0048  0.1346
  286POPC   PO4 3915   5.963   3.978   5.083  0.1526 -0.0674 -0.1817
  286POPC   GL1 3916   5.933   4.316   5.383  0.2149 -0.2106  0.1412
  286POPC   GL2 3917   6.171   4.474   5.454  0.1137 -0.1006 -0.7893
  286POPC   C1A 3918   5.706   4.762   5.508  0.1183 -0.1594 -0.1548
  286POPC   D2A 3919   5.514   5.079   5.636 -0.0079  0.0827 -0.2253
  286POPC   C3A 3920   5.810   5.168   6.027  0.1622 -0.0890  0.0125
  286POPC   C4A 3921   5.887   5.425   6.425  0.2271  0.0706 -0.2050
  286POPC   C1B 3922   6.113   4.149   5.827 -0.0780 -0.0099  0.2299
  286POPC   C2B 3923   6.379   4.108   6.190 -0.0439  0.3828 -0.0587
  286POPC   C3B 3924   6.581   4.120   6.549 -0.4010 -0.0464  0.3575
  286POPC   C4B 3925   6.523   3.745   6.893  0.3849 -0.0585 -0.0274
  287POPC   NC3 3926   9.716   4.744   5.296 -0.1735  0.1086  0.1585
  287POPC   PO4 3927   9.455   5.051   5.245 -0.1705  0.1011 -0.0707
  287POPC   GL1 3928   9.443   5.168   5.694  0.2716  0.2124 -0.3608
  287POPC   GL2 3929   9.347   5.537   5.852  0.0492 -0.0244  0.0255
  287POPC   C1A 3930   9.796   5.145   6.079  0.0787 -0.0081  0.2538
  287POPC   D2A 3931   9.996   4.946   6.214 -0.0527  0.2576  0.0107
  287POPC   C3A 3932   9.955   4.887   6.702 -0.1907  0.1963 -0.1345
  287POPC   C4A 3933   9.844   5.192   6.945  0.1204  0.0007 -0.0805
  287POPC   C1B 3934   9.556   5.679   6.108  0.0476  0.1394  0.0542
  287POPC   C2B 3935   9.898   5.429   6.425  0.0879 -0.2208  0.2584
  287POPC   C3B 3936  10.237   5.387   6.662 -0.4442 -0.1444  0.2027
  287POPC   C4B 3937  10.508   5.620   7.044  0.0330 -0.0284 -0.0850
  288POPC   NC3 3938   4.320   9.430   4.481  0.0804 -0.0005  0.1627
  288POPC   PO4 3939   4.652   9.542   4.617 -0.1430  0.3014 -0.2238
  288POPC   GL1 3940   4.463   9.392   5.037  0.0056  0.1733  0.2676
  288POPC   GL2 3941   4.790   9.423   5.117 -0.1136 -0.0839 -0.2219
  288POPC   C1A 3942   4.358   9.343   5.435 -0.0122 -0.4883  0.1831
  288POPC   D2A 3943   4.277   9.448   5.857 -0.0176  0.3796  0.2086
  288POPC   C3A 3944   4.610   9.482   6.136 -0.0224  0.0312  0.2081
  288POPC   C4A 3945   4.723   9.232   6.475 -0.4157  0.0002  0.2018
  288POPC   C1B 3946   5.028   9.390   5.353 -0.2559 -0.1843 -0.1858
  288POPC   C2B 3947   5.249   9.089   5.504  0.1592  0.1662 -0.3303
  288POPC   C3B 3948   5.566   9.034   5.846 -0.2226 -0.2330 -0.3164
  288POPC   C4B 3949   5.582   9.415   6.255 -0.2597  0.2666  0.2340
  289POPC   NC3 3950   9.127   0.472   3.964  0.2279 -0.2887 -0.0166
  289POPC   PO4 3951   8.604   0.522   3.954  0.0411  0.1071 -0.0247
  289POPC   GL1 3952   8.763   0.562   4.388  0.1882 -0.1465 -0.0244
  289POPC   GL2 3953   8.999   0.777   4.490  0.1254  0.1263  0.3358
  289POPC   C1A 3954   8.900   0.410   4.836 -0.3993  0.2245 -0.0867
  289POPC   D2A 3955   8.960   0.079   5.152 -0.1885 -0.2770 -0.0097
  289POPC   C3A 3956   8.599  -0.071   5.269 -0.0450  0.1899  0.3571
  289POPC   C4A 3957   8.334  -0.211   5.593  0.1881 -0.4885 -0.0460
  289POPC   C1B 3958   8.746   0.969   4.770  0.1035 -0.3501  0.1120
  289POPC   C2B 3959   8.547   0.947   5.236  0.1260  0.2771  0.0495
  289POPC   C3B 3960   8.731   0.771   5.676 -0.2986  0.2634 -0.0364
  289POPC   C4B 3961   9.080   0.586   5.955 -0.2430  0.3140 -0.1086
  290POPC   NC3 3962   5.121   9.933   3.833  0.3338 -0.0069  0.2098
  290POPC   PO4 3963   5.419   9.669   3.646 -0.1104 -0.1410 -0.4048
  290POPC   GL1 3964   5.656   9.510   4.033 -0.0696 -0.2956 -0.1531
  290POPC   GL2 3965   5.450   9.751   4.198  0.0455 -0.0358  0.3296
  290POPC   C1A 3966   6.040   9.471   4.273 -0.0867  0.1428  0.1618
  290POPC   D2A 3967   6.244   9.121   4.401 -0.1377  0.0307 -0.0476
  290POPC   C3A 3968   6.013   8.822   4.654  0.3318 -0.0238 -0.0016
  290POPC   C4A 3969   6.253   8.651   5.117 -0.3961  0.1050 -0.0150
  290POPC   C1B 3970   5.679   9.413   4.594 -0.2056 -0.4563  0.0380
  290POPC   C2B 3971   6.106   9.369   4.893 -0.0310  0.1682  0.0972
  290POPC   C3B 3972   6.454   9.177   4.977 -0.0492  0.0492 -0.2621
  290POPC   C4B 3973   6.688   8.859   5.286 -0.2489 -0.1096  0.0012
  291POPC   NC3 3974   6.128   5.326   5.330 -0.1746 -0.3183  0.1563
  291POPC   PO4 3975   6.430   5.627   5.150 -0.2005  0.0354 -0.1890
  291POPC   GL1 3976   6.332   5.723   5.607  0.2250 -0.0751  0.2246
  291POPC   GL2 3977   6.059   5.638   5.674 -0.3659  0.0031  0.0829
  291POPC   C1A 3978   6.346   5.440   6.065  0.0415  0.0401 -0.1448
  291POPC   D2A 3979   6.281   5.018   6.185 -0.1513  0.0477 -0.2101
  291POPC   C3A 3980   6.656   4.736   6.344  0.0504 -0.0354  0.0277
  291POPC   C4A 3981   6.916   4.567   6.673 -0.1521  0.0371 -0.1539
  291POPC   C1B 3982   6.401   5.928   6.046 -0.2331 -0.0049 -0.1436
  291POPC   C2B 3983   6.663   5.926   6.384  0.1822  0.0750 -0.3268
  291POPC   C3B 3984   6.881   5.768   6.783  0.2208  0.0841  0.0968
  291POPC   C4B 3985   7.207   5.626   6.876 -0.1856 -0.0313 -0.1281
  292POPC   NC3 3986   8.088   3.698   5.154  0.1234 -0.4477  0.1245
  292POPC   PO4 3987   8.398   3.393   5.222 -0.0303 -0.4966 -0.0155
  292POPC   GL1 3988   8.169   3.394   5.588 -0.0137 -0.2695  0.0349
  292POPC   GL2 3989   7.957   3.158   5.472  0.1378  0.2180 -0.0472
  292POPC   C1A 3990   8.154   3.521   5.962 -0.2457 -0.0549  0.2425
  292POPC   D2A 3991   8.235   3.493   6.450  0.0531 -0.0368  0.3204
  292POPC   C3A 3992   8.529   3.195   6.511  0.2238  0.0556 -0.1151
  292POPC   C4A 3993   8.757   2.901   6.752 -0.1855  0.0441  0.0960
  292POPC   C1B 3994   7.992   2.955   5.849  0.0527  0.0556 -0.2229
  292POPC   C2B 3995   8.169   2.835   6.269 -0.1344  0.2558  0.0933
  292POPC   C3B 3996   8.237   2.831   6.668 -0.2297 -0.0508  0.3735
  292POPC   C4B 3997   8.409   2.592   7.084  0.0527  0.0692  0.0151
  293POPC   NC3 3998   7.294   8.065   3.441  0.3699 -0.3704  0.0952
  293POPC   PO4 3999   6.830   8.104   3.377  0.2229  0.1457 -0.3331
  293POPC   GL1 4000   7.007   8.099   3.814  0.2458 -0.2281  0.0491
  293POPC   GL2 4001   6.952   7.885   4.039 -0.1354 -0.2444  0.0359
  293POPC   C1A 4002   7.129   8.495   4.008  0.1163  0.0318  0.1239
  293POPC   D2A 4003   7.113   8.649   4.343 -0.4724  0.0588  0.3001
  293POPC   C3A 4004   7.157   8.419   4.730  0.1327  0.1234  0.2438
  293POPC   C4A 4005   7.345   7.940   4.796 -0.3809 -0.1161 -0.1575
  293POPC   C1B 4006   7.195   8.160   4.307  0.1073  0.1621  0.0712
  293POPC   C2B 4007   7.523   8.189   4.387  0.1033 -0.1324 -0.2997
  293POPC   C3B 4008   7.726   8.365   4.708  0.0132 -0.0018  0.0116
  293POPC   C4B 4009   8.015   8.705   4.748  0.0708  0.1023  0.4242
  294POPC   NC3 4010   4.386   8.470   4.159  0.1007  0.1868 -0.0133
  294POPC   PO4 4011   4.253   8.866   4.456 -0.2967 -0.0740  0.1071
  294POPC   GL1 4012   4.551   8.532   4.714  0.1415 -0.1638  0.1894
  294POPC   GL2 4013   4.665   8.234   4.717  0.1165 -0.1984  0.0635
  294POPC   C1A 4014   4.883   8.480   5.065  0.3408 -0.1038  0.0527
  294POPC   D2A 4015   5.168   8.678   5.212  0.0386  0.3497  0.2131
  294POPC   C3A 4016   5.415   8.493   5.608 -0.1474 -0.0237 -0.0562
  294POPC   C4A 4017   5.746   8.223   5.661  0.2849  0.2807  0.2117
  294POPC   C1B 4018   4.584   8.066   5.260 -0.4110 -0.1384 -0.0719
  294POPC   C2B 4019   4.490   8.082   5.682 -0.0461  0.1346  0.0203
  294POPC   C3B 4020   4.400   8.413   6.008  0.2376 -0.0497  0.0508
  294POPC   C4B 4021   4.289   8.249   6.384 -0.0527 -0.1516  0.0870
  295POPC   NC3 4022   2.402   1.912   4.766 -0.3156 -0.3392  0.0478
  295POPC   PO4 4023   2.693   2.212   4.723 -0.0295  0.1554 -0.3935
  295POPC   GL1 4024   2.615   2.153   5.129 -0.1224 -0.3100  0.0833
  295POPC   GL2 4025   2.841   2.370   5.243  0.0461 -0.0313  0.1356
  295POPC   C1A 4026   2.489   1.876   5.443 -0.0493  0.1930  0.1309
  295POPC   D2A 4027   2.378   1.849   5.861  0.0538  0.2779 -0.1118
  295POPC   C3A 4028   2.137   1.565   6.120 -0.0905  0.0607 -0.0732
  295POPC   C4A 4029   1.964   1.295   6.452 -0.2028  0.1910 -0.1197
  295POPC   C1B 4030   2.977   2.067   5.456  0.1986  0.1170 -0.2140
  295POPC   C2B 4031   3.037   1.955   5.866 -0.3233  0.0740  0.0248
  295POPC   C3B 4032   2.783   1.985   6.195 -0.2383  0.2843  0.1116
  295POPC   C4B 4033   2.745   1.995   6.614  0.0104 -0.3276 -0.0312
  296POPC   NC3 4034   0.763   2.533   5.285 -0.1107 -0.0165  0.1417
  296POPC   PO4 4035   0.720   2.130   5.173 -0.0017 -0.0864  0.2476
  296POPC   GL1 4036   0.443   2.067   5.511  0.1029  0.1031 -0.0273
  296POPC   GL2 4037   0.636   2.203   5.625  0.0782  0.0194 -0.1121
  296POPC   C1A 4038   0.303   1.723   5.761  0.0136 -0.2293 -0.3662
  296POPC   D2A 4039   0.105   1.433   5.907 -0.1644 -0.0771  0.2022
  296POPC   C3A 4040   0.231   1.015   5.884 -0.1628 -0.1395  0.0093
  296POPC   C4A 4041   0.010   0.602   5.738  0.2105 -0.2943 -0.1500
  296POPC   C1B 4042   0.909   2.308   6.009  0.0680  0.0361 -0.2348
  296POPC   C2B 4043   1.022   2.408   6.366  0.1186  0.0280 -0.1099
  296POPC   C3B 4044   1.287   2.245   6.750  0.6694 -0.2430 -0.0173
  296POPC   C4B 4045   1.511   2.349   7.149  0.0234 -0.1501  0.0702
  297POPC   NC3 4046   1.473   9.914   4.592  0.1506  0.1398 -0.2123
  297POPC   PO4 4047   1.821  10.208   4.687  0.1046 -0.1772 -0.1289
  297POPC   GL1 4048   1.771  10.031   5.032  0.1342  0.0341  0.1301
  297POPC   GL2 4049   1.798   9.711   4.928 -0.0210 -0.1690  0.1420
  297POPC   C1A 4050   1.587   9.889   5.414  0.1026 -0.1667  0.3594
  297POPC   D2A 4051   1.449   9.781   5.796  0.0137  0.0013 -0.2113
  297POPC   C3A 4052   1.054   9.453   5.751 -0.2865 -0.3931 -0.0664
  297POPC   C4A 4053   0.650   9.421   5.923 -0.5055 -0.2743 -0.1712
  297POPC   C1B 4054   2.015   9.538   5.223 -0.2446  0.0036  0.0528
  297POPC   C2B 4055   2.108   9.232   5.597  0.2678 -0.4240  0.0710
  297POPC   C3B 4056   1.986   8.968   6.067 -0.2252  0.1742 -0.0693
  297POPC   C4B 4057   1.996   8.739   6.519  0.0800  0.0226  0.0267
  298POPC   NC3 4058   3.607   3.963   5.258  0.1252  0.1794 -0.0361
  298POPC   PO4 4059   3.270   4.106   5.093 -0.0293 -0.1142 -0.1255
  298POPC   GL1 4060   3.210   4.210   5.507  0.0290 -0.3470  0.2041
  298POPC   GL2 4061   3.524   4.450   5.686  0.2301  0.0563 -0.0553
  298POPC   C1A 4062   2.956   4.079   5.766  0.1023 -0.1036  0.0035
  298POPC   D2A 4063   2.687   4.028   6.153 -0.0531  0.2341  0.1406
  298POPC   C3A 4064   2.520   3.676   6.186 -0.0127 -0.0358 -0.0880
  298POPC   C4A 4065   2.231   3.282   5.971  0.0389  0.0004  0.0022
  298POPC   C1B 4066   3.119   4.537   5.949 -0.1325 -0.1397  0.1115
  298POPC   C2B 4067   3.034   4.312   6.307 -0.0634 -0.0553  0.1429
  298POPC   C3B 4068   2.918   3.971   6.607  0.2109  0.0853  0.2692
  298POPC   C4B 4069   2.947   3.547   6.488  0.1666 -0.0994  0.4242
  299POPC   NC3 4070   7.418   5.582   5.302  0.1939  0.2730  0.2178
  299POPC   PO4 4071   7.163   5.155   5.428  0.0586  0.0805  0.3160
  299POPC   GL1 4072   7.029   5.524   5.800  0.1091  0.3101 -0.3387
  299POPC   GL2 4073   6.830   5.443   6.123  0.3124 -0.1879 -0.0010
  299POPC   C1A 4074   6.977   5.954   5.927  0.2408  0.0823 -0.0422
  299POPC   D2A 4075   7.084   6.260   6.209 -0.0475 -0.1432  0.1126
  299POPC   C3A 4076   7.102   6.197   6.620  0.3250 -0.1991 -0.1422
  299POPC   C4A 4077   7.138   6.107   7.066 -0.0098  0.0793  0.0313
  299POPC   C1B 4078   6.778   5.298   6.498 -0.3379  0.2235 -0.4312
  299POPC   C2B 4079   6.475   5.114   6.712  0.4283 -0.0326  0.0608
  299POPC   C3B 4080   6.041   4.965   6.615  0.2861 -0.0205 -0.3185
  299POPC   C4B 4081   5.724   4.787   6.535  0.3004  0.0766 -0.0478
  300POPC   NC3 4082   6.541   1.388   3.969  0.0084 -0.2136  0.2511
  300POPC   PO4 4083   6.235   1.512   4.374  0.3043 -0.0340  0.1562
  300POPC   GL1 4084   6.610   1.316   4.448 -0.2852  0.0025 -0.0309
  300POPC   GL2 4085   6.873   1.483   4.490  0.3291  0.1706  0.2440
  300POPC   C1A 4086   6.668   0.987   4.808  0.6531 -0.1481  0.1281
  300POPC   D2A 4087   6.599   0.730   5.231 -0.2380 -0.0121  0.0118
  300POPC   C3A 4088   6.215   0.527   5.246  0.1020 -0.0855 -0.0028
  300POPC   C4A 4089   6.022   0.769   5.027 -0.0091  0.1134  0.2227
  300POPC   C1B 4090   6.741   1.447   4.979  0.0502  0.3284  0.1507
  300POPC   C2B 4091   6.586   1.318   5.387 -0.2504  0.1156  0.2285
  300POPC   C3B 4092   6.297   1.398   5.720 -0.2262  0.0760 -0.1715
  300POPC   C4B 4093   6.252   1.516   6.155  0.1401 -0.1354  0.1197
  301POPC   NC3 4094  10.283   7.766   3.896  0.1898  0.1165 -0.1877
  301POPC   PO4 4095   9.908   7.507   4.070  0.3417 -0.1114 -0.1283
  301POPC   GL1 4096   9.888   7.731   4.416 -0.0515  0.1687 -0.1707
  301POPC   GL2 4097  10.043   7.513   4.687 -0.1036 -0.0896  0.3819
  301POPC   C1A 4098   9.917   8.087   4.746  0.1716 -0.3693 -0.3548
  301POPC   D2A 4099   9.492   8.077   4.838 -0.1740 -0.0863 -0.2009
  301POPC   C3A 4100   9.183   7.893   4.617  0.2712  0.0618  0.0484
  301POPC   C4A 4101   8.882   7.720   4.352  0.1154  0.2718  0.1039
  301POPC   C1B 4102  10.135   7.657   5.239  0.0956 -0.0674  0.0697
  301POPC   C2B 4103  10.401   7.707   5.551 -0.2498 -0.0447 -0.1287
  301POPC   C3B 4104  10.478   8.079   5.930 -0.0552  0.1759  0.3282
  301POPC   C4B 4105  10.352   8.288   6.271 -0.0962  0.1680 -0.0802
  302POPC   NC3 4106   7.576   1.289   3.820 -0.0756  0.1076 -0.3128
  302POPC   PO4 4107   7.720   1.003   4.029  0.0038  0.1492  0.1823
  302POPC   GL1 4108   8.005   0.988   4.401  0.0304 -0.1471 -0.1515
  302POPC   GL2 4109   8.323   1.122   4.410  0.1700 -0.2044 -0.0188
  302POPC   C1A 4110   7.926   0.648   4.672  0.0441 -0.1179 -0.0991
  302POPC   D2A 4111   7.679   0.382   4.913  0.1025  0.2194  0.1953
  302POPC   C3A 4112   7.259   0.289   4.910  0.0366 -0.0695 -0.0392
  302POPC   C4A 4113   7.006   0.049   4.756 -0.0974  0.1008  0.1710
  302POPC   C1B 4114   8.211   0.950   4.868 -0.1223  0.0242 -0.1049
  302POPC   C2B 4115   7.892   0.866   5.158  0.1327 -0.3000  0.3475
  302POPC   C3B 4116   7.483   1.136   5.278 -0.2806  0.0722  0.1235
  302POPC   C4B 4117   7.043   1.004   5.179  0.1817  0.1656 -0.0531
  303POPC   NC3 4118   9.240   5.866   5.391  0.1474  0.2748  0.1151
  303POPC   PO4 4119   9.514   6.250   5.290 -0.0483  0.3001  0.1212
  303POPC   GL1 4120   9.192   6.404   5.652 -0.1883 -0.1606  0.0811
  303POPC   GL2 4121   8.906   6.458   5.493  0.2939 -0.4441 -0.0600
  303POPC   C1A 4122   9.158   6.512   6.108 -0.0182  0.4273 -0.1288
  303POPC   D2A 4123   9.377   6.505   6.423  0.2131  0.2085  0.2646
  303POPC   C3A 4124   9.128   6.448   6.690  0.2266  0.1323 -0.0365
  303POPC   C4A 4125   8.888   6.532   7.099 -0.1245 -0.2877  0.3209
  303POPC   C1B 4126   8.747   6.626   5.890  0.0021 -0.0335  0.1758
  303POPC   C2B 4127   8.338   6.566   6.180  0.1222 -0.1359  0.2761
  303POPC   C3B 4128   8.002   6.732   6.412 -0.2743 -0.0658 -0.2564
  303POPC   C4B 4129   7.797   6.903   6.779 -0.0959 -0.3766 -0.0518
  304POPC   NC3 4130   1.411   2.817   4.520  0.0383  0.0613 -0.2259
  304POPC   PO4 4131   1.660   2.654   4.884  0.0705  0.0660  0.0749
  304POPC   GL1 4132   1.820   2.393   5.313 -0.2640  0.3350  0.2715
  304POPC   GL2 4133   2.121   2.227   5.221  0.0349  0.1711  0.2815
  304POPC   C1A 4134   2.052   2.307   5.807  0.1452  0.3195 -0.2798
  304POPC   D2A 4135   1.943   2.438   6.234  0.0524  0.1034  0.2237
  304POPC   C3A 4136   1.590   2.443   6.355 -0.2078 -0.1727  0.0727
  304POPC   C4A 4137   1.314   2.797   6.291  0.1414 -0.1504  0.0515
  304POPC   C1B 4138   1.925   1.909   5.317 -0.0398  0.0695 -0.2471
  304POPC   C2B 4139   2.083   1.545   5.521  0.2039  0.0245  0.0444
  304POPC   C3B 4140   2.358   1.227   5.720 -0.0640  0.0985  0.0034
  304POPC   C4B 4141   2.302   1.079   6.131 -0.0191 -0.0313  0.0168
  305POPC   NC3 4142   6.667   6.785   4.091  0.1508  0.0072 -0.0330
  305POPC   PO4 4143   6.584   6.655   4.520  0.0455  0.1441  0.1864
  305POPC   GL1 4144   6.799   6.834   4.935 -0.1243 -0.3806  0.4668
  305POPC   GL2 4145   6.595   6.647   5.287  0.1224 -0.0817 -0.4036
  305POPC   C1A 4146   6.775   7.123   5.247 -0.1245 -0.0561  0.1531
  305POPC   D2A 4147   6.971   7.216   5.702  0.1779 -0.1733 -0.2349
  305POPC   C3A 4148   7.244   7.377   5.993 -0.0470 -0.0906 -0.0288
  305POPC   C4A 4149   7.437   7.588   6.237 -0.0454  0.3267 -0.0655
  305POPC   C1B 4150   6.560   6.887   5.637 -0.1170  0.0840  0.1725
  305POPC   C2B 4151   6.632   6.764   6.049  0.2726 -0.0570  0.0651
  305POPC   C3B 4152   6.587   7.126   6.397  0.1338  0.1613 -0.1425
  305POPC   C4B 4153   6.840   7.244   6.811  0.1055 -0.0567 -0.1201
  306POPC   NC3 4154   8.287   2.865   5.136 -0.1620 -0.2232 -0.0584
  306POPC   PO4 4155   8.386   2.504   4.809  0.0614  0.0656 -0.2187
  306POPC   GL1 4156   8.249   2.319   5.306  0.3699  0.2143  0.1652
  306POPC   GL2 4157   7.894   2.151   5.339 -0.2566  0.1126 -0.0383
  306POPC   C1A 4158   8.189   2.396   5.711 -0.0806 -0.0502 -0.0148
  306POPC   D2A 4159   8.535   2.301   5.964  0.1931  0.2734  0.5217
  306POPC   C3A 4160   8.632   1.814   6.099  0.1840  0.0921 -0.1775
  306POPC   C4A 4161   8.939   1.533   6.122  0.2115 -0.1015 -0.1990
  306POPC   C1B 4162   7.763   2.144   5.804  0.2352 -0.0733  0.3088
  306POPC   C2B 4163   7.926   2.348   6.097  0.1276  0.1570 -0.0223
  306POPC   C3B 4164   8.147   2.293   6.360  0.2615 -0.2495 -0.4759
  306POPC   C4B 4165   8.210   2.135   6.732  0.1353 -0.0869  0.1938
  307POPC   NC3 4166   4.833   2.477   4.885 -0.1463  0.1604 -0.0901
  307POPC   PO4 4167   4.866   2.567   5.353  0.3395  0.0012  0.1389
  307POPC   GL1 4168   4.747   2.437   5.688 -0.2138  0.0121 -0.3382
  307POPC   GL2 4169   5.071   2.386   5.783  0.2522 -0.0198  0.1958
  307POPC   C1A 4170   4.482   2.409   6.029  0.0942  0.0815 -0.0279
  307POPC   D2A 4171   4.424   2.191   6.364 -0.0290 -0.3178  0.0446
  307POPC   C3A 4172   4.461   2.497   6.628 -0.2139  0.2131 -0.2253
  307POPC   C4A 4173   4.337   2.575   7.029  0.0938  0.0713 -0.3152
  307POPC   C1B 4174   5.244   2.282   6.170  0.2136  0.1373  0.3140
  307POPC   C2B 4175   4.913   2.026   6.472  0.1933 -0.1576 -0.0877
  307POPC   C3B 4176   4.606   1.747   6.545  0.1495  0.1785  0.1722
  307POPC   C4B 4177   4.369   1.620   6.737 -0.0128  0.1164 -0.3060
  308POPC   NC3 4178   1.600   4.375   5.270  0.0067 -0.0270 -0.0056
  308POPC   PO4 4179   1.194   4.285   5.293  0.2325  0.1010 -0.0855
  308POPC   GL1 4180   1.206   4.055   5.748  0.2020  0.0236  0.2428
  308POPC   GL2 4181   1.466   3.757   5.860 -0.0458 -0.0304  0.0052
  308POPC   C1A 4182   1.248   4.047   6.151  0.1698  0.1571 -0.3483
  308POPC   D2A 4183   1.349   4.011   6.592 -0.2539  0.0307 -0.0948
  308POPC   C3A 4184   1.271   3.617   6.863  0.2127 -0.2254  0.1766
  308POPC   C4A 4185   1.007   3.698   7.229  0.1378  0.0371  0.0932
  308POPC   C1B 4186   1.781   3.796   6.147  0.1518 -0.2693  0.0679
  308POPC   C2B 4187   2.030   3.515   6.388 -0.0586 -0.0089 -0.0486
  308POPC   C3B 4188   2.054   3.313   6.756 -0.0691  0.0374 -0.0455
  308POPC   C4B 4189   2.235   2.981   7.039  0.2339 -0.1188  0.2104
  309POPC   NC3 4190   0.858   8.420   4.252  0.1402  0.2587  0.2023
  309POPC   PO4 4191   0.790   8.820   4.147  0.0912  0.1893 -0.3096
  309POPC   GL1 4192   0.664   9.045   4.551  0.1297 -0.2023 -0.3457
  309POPC   GL2 4193   0.610   9.488   4.565 -0.1127 -0.2945 -0.0159
  309POPC   C1A 4194   0.476   9.136   4.925 -0.3680  0.0235 -0.0985
  309POPC   D2A 4195   0.183   9.052   5.259 -0.2758  0.0786  0.3156
  309POPC   C3A 4196  -0.129   9.044   5.459 -0.4824 -0.3767 -0.0605
  309POPC   C4A 4197  -0.320   9.150   5.752 -0.0043  0.1687 -0.0925
  309POPC   C1B 4198   0.714   9.633   4.922 -0.0473  0.1342  0.0673
  309POPC   C2B 4199   0.498   9.464   5.303  0.1396 -0.1727  0.2714
  309POPC   C3B 4200   0.281   9.628   5.616 -0.1358  0.2379 -0.0880
  309POPC   C4B 4201   0.112   9.418   6.079 -0.4989  0.0100 -0.0679
  310POPC   NC3 4202   8.397   5.647   4.624  0.0400 -0.1061  0.2467
  310POPC   PO4 4203   8.326   5.842   5.066  0.0918  0.0763  0.1069
  310POPC   GL1 4204   8.157   6.119   5.363  0.2501  0.0928  0.0573
  310POPC   GL2 4205   8.062   5.975   5.717 -0.2069  0.0007  0.0412
  310POPC   C1A 4206   8.275   6.452   5.691 -0.0812  0.2172  0.1058
  310POPC   D2A 4207   8.377   6.943   5.695  0.1140 -0.0348 -0.0008
  310POPC   C3A 4208   8.156   7.287   5.892  0.0384  0.0074  0.0102
  310POPC   C4A 4209   8.322   7.731   5.959 -0.0876  0.1722 -0.2370
  310POPC   C1B 4210   8.003   6.172   6.155  0.1387 -0.0799 -0.1259
  310POPC   C2B 4211   8.093   6.301   6.639 -0.3483  0.1612 -0.0985
  310POPC   C3B 4212   8.406   6.504   6.798  0.1434  0.2404 -0.1889
  310POPC   C4B 4213   8.408   6.464   7.265  0.2264 -0.2872 -0.1666
  311POPC   NC3 4214   1.324   5.432   5.289  0.1528  0.1208 -0.3509
  311POPC   PO4 4215   0.929   5.791   5.211 -0.2130 -0.0320 -0.0756
  311POPC   GL1 4216   1.128   5.878   5.508  0.1130 -0.5085 -0.3766
  311POPC   GL2 4217   1.361   6.155   5.574  0.1272  0.3141  0.2900
  311POPC   C1A 4218   0.961   6.020   5.880 -0.2585  0.2955  0.1719
  311POPC   D2A 4219   1.104   5.999   6.287 -0.0868 -0.1728 -0.0055
  311POPC   C3A 4220   0.963   5.889   6.711  0.2537  0.2158  0.1735
  311POPC   C4A 4221   0.737   5.555   6.906 -0.1710  0.0859 -0.0137
  311POPC   C1B 4222   1.180   6.503   5.887  0.0402  0.1000 -0.0049
  311POPC   C2B 4223   1.073   6.541   6.402 -0.0703  0.3108 -0.0943
  311POPC   C3B 4224   1.232   6.590   6.783  0.1128 -0.0977 -0.1374
  311POPC   C4B 4225   1.236   6.236   7.096 -0.0294  0.0860  0.0026
  312POPC   NC3 4226   6.973   4.554   5.479  0.3354 -0.3068  0.3024
  312POPC   PO4 4227   7.326   4.701   5.626 -0.2370  0.2457 -0.1394
  312POPC   GL1 4228   7.267   4.620   6.005  0.0576 -0.0912 -0.0091
  312POPC   GL2 4229   6.926   4.485   5.959 -0.4799  0.1528  0.0161
  312POPC   C1A 4230   7.142   4.833   6.308  0.0930  0.2350 -0.2876
  312POPC   D2A 4231   7.169   5.032   6.696 -0.3224  0.0399 -0.0617
  312POPC   C3A 4232   6.909   5.223   7.037 -0.1864 -0.0341  0.1809
  312POPC   C4A 4233   6.858   5.508   7.302  0.3574  0.1628 -0.4524
  312POPC   C1B 4234   7.133   4.298   6.318  0.1635  0.1010 -0.0245
  312POPC   C2B 4235   7.475   4.079   6.585  0.1413 -0.0160 -0.2910
  312POPC   C3B 4236   7.698   4.320   6.888 -0.1820  0.1616 -0.0160
  312POPC   C4B 4237   8.047   4.516   6.979  0.3786 -0.5752  0.0484
  313POPC   NC3 4238   4.187   4.609   5.099 -0.0591  0.1694 -0.3844
  313POPC   PO4 4239   4.120   4.082   5.181 -0.1236  0.0639 -0.1996
  313POPC   GL1 4240   3.986   4.236   5.611  0.1116 -0.1165 -0.0407
  313POPC   GL2 4241   3.956   4.683   5.562 -0.1146 -0.0029 -0.2181
  313POPC   C1A 4242   4.163   4.334   6.043 -0.3433  0.1031 -0.1158
  313POPC   D2A 4243   4.276   4.257   6.457  0.0356  0.0735 -0.1969
  313POPC   C3A 4244   4.686   4.260   6.493  0.0960 -0.1346  0.0896
  313POPC   C4A 4245   4.910   4.328   6.826  0.1205  0.0336  0.0821
  313POPC   C1B 4246   3.889   4.841   5.976 -0.1821 -0.0654 -0.0775
  313POPC   C2B 4247   3.720   5.113   6.306 -0.3058  0.3866  0.2826
  313POPC   C3B 4248   3.427   5.198   6.616 -0.0879  0.0484 -0.1570
  313POPC   C4B 4249   3.369   5.573   6.865 -0.3363  0.0951 -0.2198
  314POPC   NC3 4250   5.104   8.184   4.137  0.1265  0.0994 -0.0273
  314POPC   PO4 4251   4.856   8.619   4.346 -0.0310  0.2313 -0.0599
  314POPC   GL1 4252   4.969   8.904   4.702 -0.2293  0.0058 -0.3446
  314POPC   GL2 4253   4.708   9.008   4.816  0.0932 -0.0597 -0.0048
  314POPC   C1A 4254   5.253   9.156   4.959 -0.1476 -0.0931 -0.1441
  314POPC   D2A 4255   5.670   9.148   5.093  0.2569 -0.1921  0.0304
  314POPC   C3A 4256   5.739   9.341   5.473  0.2970 -0.2585 -0.2172
  314POPC   C4A 4257   6.115   9.574   5.744 -0.2247  0.2488 -0.3407
  314POPC   C1B 4258   4.669   8.971   5.272  0.0919 -0.0708 -0.0232
  314POPC   C2B 4259   4.722   8.766   5.679  0.1108  0.1950  0.1255
  314POPC   C3B 4260   4.476   8.982   5.972 -0.0877 -0.0634 -0.1403
  314POPC   C4B 4261   4.351   8.764   6.378 -0.0142 -0.0168 -0.1233
  315POPC   NC3 4262   4.894   1.673   5.066  0.2656 -0.4002  0.2511
  315POPC   PO4 4263   4.390   1.580   5.061 -0.1812 -0.1078 -0.0594
  315POPC   GL1 4264   4.591   1.500   5.409 -0.2524 -0.0465 -0.1281
  315POPC   GL2 4265   4.446   1.747   5.608  0.0484  0.0697  0.0795
  315POPC   C1A 4266   4.880   1.400   5.713  0.3746  0.3481 -0.0649
  315POPC   D2A 4267   4.983   1.179   6.098 -0.0176  0.2096  0.0715
  315POPC   C3A 4268   4.838   0.721   6.144 -0.3144 -0.0376  0.0229
  315POPC   C4A 4269   4.844   0.394   6.403  0.2549  0.0348  0.1683
  315POPC   C1B 4270   4.512   1.853   6.006 -0.2643  0.4400  0.2876
  315POPC   C2B 4271   4.190   1.755   6.254  0.2640 -0.0833 -0.0468
  315POPC   C3B 4272   4.027   1.365   6.495  0.1508 -0.0802 -0.1473
  315POPC   C4B 4273   4.033   0.902   6.468  0.0823 -0.4172 -0.1594
  316POPC   NC3 4274   2.392   0.828   4.647  0.3788 -0.2085 -0.1635
  316POPC   PO4 4275   2.169   1.045   4.944  0.1295 -0.2207  0.3573
  316POPC   GL1 4276   2.161   0.807   5.171 -0.3307 -0.1352  0.1515
  316POPC   GL2 4277   1.973   0.478   5.079  0.0698  0.2186 -0.1316
  316POPC   C1A 4278   2.252   0.711   5.666 -0.0205 -0.0848  0.0441
  316POPC   D2A 4279   2.402   0.470   6.064  0.3758 -0.0263 -0.1050
  316POPC   C3A 4280   2.341   0.123   5.997 -0.0157  0.2891  0.0580
  316POPC   C4A 4281   2.061  -0.192   6.136  0.2677 -0.0270  0.1010
  316POPC   C1B 4282   1.667   0.541   5.399  0.0529 -0.3047  0.1323
  316POPC   C2B 4283   1.631   0.408   5.735 -0.2608  0.0540 -0.1363
  316POPC   C3B 4284   1.915   0.435   5.946 -0.5033 -0.0190 -0.2362
  316POPC   C4B 4285   1.972   0.363   6.263 -0.0368 -0.1127 -0.0954
  317POPC   NC3 4286   6.448   0.469   3.572  0.1121 -0.2682  0.0020
  317POPC   PO4 4287   6.166   0.156   3.608  0.0756 -0.0084 -0.0116
  317POPC   GL1 4288   6.222  -0.164   3.868 -0.1840  0.2227 -0.0110
  317POPC   GL2 4289   6.484  -0.124   3.891 -0.1785  0.2490 -0.0390
  317POPC   C1A 4290   6.092  -0.302   4.267 -0.3593 -0.2162  0.1835
  317POPC   D2A 4291   6.306  -0.610   4.556 -0.1150 -0.1810  0.1183
  317POPC   C3A 4292   6.649  -0.755   4.559 -0.2226  0.1897  0.0667
  317POPC   C4A 4293   7.085  -0.644   4.812 -0.0852  0.0217  0.0711
  317POPC   C1B 4294   6.518  -0.198   4.425 -0.1498 -0.1690 -0.0856
  317POPC   C2B 4295   6.540  -0.241   4.882 -0.4035 -0.2950 -0.0771
  317POPC   C3B 4296   6.342  -0.061   5.245  0.3878  0.0692  0.2213
  317POPC   C4B 4297   6.007   0.198   5.582 -0.1999 -0.0855 -0.2175
  318POPC   NC3 4298   2.192   9.793   4.021 -0.0193  0.1577 -0.1856
  318POPC   PO4 4299   2.507   9.939   4.256  0.1583  0.1249 -0.2804
  318POPC   GL1 4300   2.362   9.766   4.637 -0.0568 -0.1138  0.0236
  318POPC   GL2 4301   2.238   9.902   4.936  0.0639 -0.1179 -0.0211
  318POPC   C1A 4302   2.079   9.358   4.606 -0.1771 -0.2407 -0.2534
  318POPC   D2A 4303   1.894   9.072   4.845 -0.0876 -0.3101  0.0215
  318POPC   C3A 4304   1.580   9.250   5.121 -0.3623  0.0946  0.0938
  318POPC   C4A 4305   1.655   9.417   5.509 -0.1549 -0.1078  0.0087
  318POPC   C1B 4306   2.630   9.772   5.044 -0.0680 -0.1884 -0.2050
  318POPC   C2B 4307   2.894   9.717   5.380 -0.1566  0.0832  0.1290
  318POPC   C3B 4308   3.053   9.957   5.671 -0.2202  0.0536  0.1910
  318POPC   C4B 4309   3.006  10.192   6.103 -0.3285 -0.1632 -0.0150
  319POPC   NC3 4310   3.199   5.096   5.177 -0.0768  0.2308 -0.1134
  319POPC   PO4 4311   3.161   4.673   5.254  0.0837 -0.1368 -0.1313
  319POPC   GL1 4312   3.310   4.894   5.687  0.1949 -0.2103  0.0911
  319POPC   GL2 4313   3.602   5.104   5.615 -0.0346  0.1263  0.1234
  319POPC   C1A 4314   3.273   5.139   6.104  0.0887  0.0992  0.3295
  319POPC   D2A 4315   3.118   5.411   6.331  0.1103  0.1071  0.0998
  319POPC   C3A 4316   2.823   5.338   6.602  0.1575 -0.1260  0.2103
  319POPC   C4A 4317   2.756   5.385   7.002  0.0236  0.0652  0.0580
  319POPC   C1B 4318   3.550   5.407   5.790 -0.3171  0.2048 -0.4418
  319POPC   C2B 4319   3.379   5.714   5.987  0.0669 -0.2359  0.0478
  319POPC   C3B 4320   3.037   6.090   6.136  0.1935  0.1188 -0.3343
  319POPC   C4B 4321   2.753   6.340   5.973 -0.1308 -0.0364 -0.0510
  320POPC   NC3 4322   4.791   4.572   4.387 -0.0369  0.2100  0.4744
  320POPC   PO4 4323   5.122   4.456   4.835  0.0029  0.2185  0.0799
  320POPC   GL1 4324   5.072   4.477   5.285  0.4629 -0.0702 -0.1822
  320POPC   GL2 4325   5.156   4.671   5.521 -0.0999 -0.1146 -0.0217
  320POPC   C1A 4326   4.876   4.352   5.701 -0.0141  0.1527 -0.0247
  320POPC   D2A 4327   4.696   4.452   6.043  0.0487  0.0388  0.1425
  320POPC   C3A 4328   4.409   4.845   5.920  0.0656  0.3074 -0.1297
  320POPC   C4A 4329   4.046   5.251   5.847  0.0655  0.2378 -0.1974
  320POPC   C1B 4330   5.122   4.878   5.920 -0.1195  0.0392 -0.0648
  320POPC   C2B 4331   5.382   4.935   6.152 -0.1572  0.2019 -0.0730
  320POPC   C3B 4332   5.465   5.168   6.592  0.0043 -0.1331 -0.1301
  320POPC   C4B 4333   5.638   5.010   7.082 -0.1294  0.1863 -0.0407
  321POPC   NC3 4334   7.448   7.062   3.726  0.1673 -0.3398 -0.1254
  321POPC   PO4 4335   7.015   7.231   3.853  0.0645 -0.0709 -0.2419
  321POPC   GL1 4336   6.905   7.399   4.190  0.0842 -0.0816 -0.1809
  321POPC   GL2 4337   6.849   7.134   4.388 -0.2988 -0.1200 -0.0882
  321POPC   C1A 4338   7.057   7.695   4.500 -0.0025 -0.3408  0.1272
  321POPC   D2A 4339   6.831   8.058   4.626  0.0293 -0.3919 -0.1104
  321POPC   C3A 4340   6.691   8.239   4.343  0.0619  0.2130  0.3116
  321POPC   C4A 4341   6.619   8.606   4.047  0.1340  0.0487 -0.0573
  321POPC   C1B 4342   6.729   7.404   4.750  0.0156 -0.1175 -0.1136
  321POPC   C2B 4343   6.528   7.532   5.083 -0.1362 -0.3592 -0.1530
  321POPC   C3B 4344   6.622   7.507   5.532  0.0400 -0.1640  0.3180
  321POPC   C4B 4345   6.764   7.504   6.021 -0.2076 -0.0130  0.0736
  322POPC   NC3 4346   3.886   2.537   5.210  0.2958 -0.1920  0.0104
  322POPC   PO4 4347   3.831   2.192   5.000  0.5730  0.1167 -0.0276
  322POPC   GL1 4348   3.520   2.125   5.338  0.0521  0.0008  0.1551
  322POPC   GL2 4349   3.353   2.345   5.357 -0.0714 -0.1702  0.1332
  322POPC   C1A 4350   3.597   1.898   5.715  0.0728  0.2789  0.0517
  322POPC   D2A 4351   3.734   1.669   6.083  0.1809 -0.0705  0.3664
  322POPC   C3A 4352   3.744   1.804   6.544  0.0818 -0.1230  0.4932
  322POPC   C4A 4353   3.912   1.850   6.852  0.2004 -0.5055  0.1516
  322POPC   C1B 4354   3.119   2.649   5.624  0.0860  0.2726 -0.1252
  322POPC   C2B 4355   2.938   2.581   6.082  0.0287 -0.1219  0.0212
  322POPC   C3B 4356   3.025   2.398   6.432  0.1000  0.0216 -0.0434
  322POPC   C4B 4357   3.259   2.149   6.701  0.2074  0.1791  0.0125
  323POPC   NC3 4358   1.081   7.208   4.734  0.0868 -0.0533 -0.2006
  323POPC   PO4 4359   1.070   6.925   4.968  0.1181  0.0039  0.0676
  323POPC   GL1 4360   0.826   7.054   5.255  0.2880  0.4256 -0.1193
  323POPC   GL2 4361   0.908   6.825   5.593  0.0390 -0.2164  0.1690
  323POPC   C1A 4362   0.581   7.260   5.633  0.5871 -0.0765 -0.1050
  323POPC   D2A 4363   0.655   7.308   6.058 -0.1164  0.1120 -0.0263
  323POPC   C3A 4364   0.784   7.249   6.379 -0.2032  0.3251  0.1852
  323POPC   C4A 4365   0.995   6.980   6.652  0.0905  0.2444  0.0200
  323POPC   C1B 4366   0.724   6.764   6.065  0.0589 -0.1136  0.0554
  323POPC   C2B 4367   0.461   6.847   6.339 -0.1787  0.0903  0.1101
  323POPC   C3B 4368   0.310   7.279   6.426  0.0333 -0.0215  0.4539
  323POPC   C4B 4369   0.227   7.545   6.848  0.1439  0.1866 -0.1288
  324POPC   NC3 4370   0.478   6.127   5.035  0.0882 -0.1139 -0.5268
  324POPC   PO4 4371   0.073   6.259   4.917  0.1814 -0.0249 -0.0049
  324POPC   GL1 4372   0.085   6.333   5.366  0.3249 -0.1334 -0.1119
  324POPC   GL2 4373  -0.050   6.644   5.552  0.2233  0.1259 -0.2504
  324POPC   C1A 4374   0.048   6.041   5.727 -0.3682  0.0336 -0.4734
  324POPC   D2A 4375  -0.181   5.925   6.048 -0.1403 -0.0994 -0.1724
  324POPC   C3A 4376  -0.096   5.938   6.527  0.2221  0.0001  0.2727
  324POPC   C4A 4377  -0.080   6.134   6.941  0.0923 -0.1263 -0.3661
  324POPC   C1B 4378  -0.297   6.733   5.943  0.2363 -0.2753  0.3252
  324POPC   C2B 4379  -0.487   7.139   6.093 -0.1323  0.0018 -0.1397
  324POPC   C3B 4380  -0.771   7.399   6.398 -0.2290 -0.1666  0.0991
  324POPC   C4B 4381  -0.718   7.639   6.651 -0.1518  0.5609 -0.3091
  325POPC   NC3 4382   1.585   0.183   4.492  0.2857  0.0691 -0.0273
  325POPC   PO4 4383   1.221  -0.025   4.519  0.1653  0.1057  0.0119
  325POPC   GL1 4384   1.336  -0.006   4.889 -0.2154 -0.1326  0.1439
  325POPC   GL2 4385   1.531   0.297   4.982 -0.1264 -0.1044  0.0077
  325POPC   C1A 4386   1.290  -0.229   5.209 -0.1749 -0.0068  0.1403
  325POPC   D2A 4387   1.209  -0.220   5.701  0.1818 -0.1551  0.2822
  325POPC   C3A 4388   0.946  -0.504   6.018  0.1272  0.3283  0.0275
  325POPC   C4A 4389   0.961  -0.826   6.336 -0.0307  0.1346 -0.2218
  325POPC   C1B 4390   1.660   0.067   5.331 -0.2263  0.1291  0.2139
  325POPC   C2B 4391   1.771  -0.125   5.758 -0.0063  0.1817 -0.1566
  325POPC   C3B 4392   1.521  -0.113   6.072  0.1514 -0.0159  0.0708
  325POPC   C4B 4393   1.238  -0.396   6.436 -0.1461 -0.1424  0.0452
  326POPC   NC3 4394   9.634   1.219   4.200  0.2282  0.1637  0.0363
  326POPC   PO4 4395   9.860   1.635   4.374  0.0054 -0.2139 -0.0105
  326POPC   GL1 4396   9.759   1.508   4.796 -0.2693 -0.3204  0.0413
  326POPC   GL2 4397   9.709   1.252   4.719 -0.0100 -0.0176  0.1382
  326POPC   C1A 4398   9.774   1.358   5.162  0.4353  0.2071 -0.1366
  326POPC   D2A 4399   9.715   1.075   5.447  0.0265  0.2322  0.1227
  326POPC   C3A 4400   9.675   1.154   5.989  0.2395 -0.0918 -0.1168
  326POPC   C4A 4401   9.323   1.050   6.273  0.1007  0.1611  0.0551
  326POPC   C1B 4402   9.918   0.859   4.987  0.2139 -0.3776  0.1672
  326POPC   C2B 4403  10.287   0.625   5.093 -0.1283  0.3497  0.1677
  326POPC   C3B 4404  10.626   0.641   5.301  0.0620 -0.2586  0.2727
  326POPC   C4B 4405  10.961   0.379   5.239  0.0330 -0.0867 -0.2574
  327POPC   NC3 4406   9.340   4.448   5.227 -0.1733  0.0044  0.0183
  327POPC   PO4 4407   9.780   4.260   5.229  0.1429 -0.0456 -0.0683
  327POPC   GL1 4408   9.750   4.179   5.644 -0.1020  0.1250 -0.0832
  327POPC   GL2 4409  10.084   4.004   5.669 -0.0758  0.1411  0.1009
  327POPC   C1A 4410   9.448   3.985   5.875 -0.1322  0.0509  0.1744
  327POPC   D2A 4411   9.524   3.764   6.199 -0.2039 -0.1442 -0.0555
  327POPC   C3A 4412   9.125   3.784   6.440  0.1800  0.1130 -0.0533
  327POPC   C4A 4413   8.839   3.538   6.699 -0.0320  0.0722  0.1510
  327POPC   C1B 4414  10.031   4.090   6.091  0.2571  0.1310 -0.1527
  327POPC   C2B 4415   9.951   3.907   6.463  0.1064 -0.1937  0.1705
  327POPC   C3B 4416  10.298   3.811   6.734 -0.0474  0.1842 -0.1277
  327POPC   C4B 4417  10.756   3.969   6.735 -0.2158  0.4738  0.0842
  328POPC   NC3 4418   0.640   0.742   4.065  0.1393 -0.2481 -0.1510
  328POPC   PO4 4419   0.247   0.879   4.252 -0.1446 -0.2706 -0.3776
  328POPC   GL1 4420   0.147   0.532   4.608 -0.0617 -0.0594  0.0197
  328POPC   GL2 4421   0.449   0.531   4.786  0.2039  0.2069 -0.0305
  328POPC   C1A 4422   0.042   0.203   4.659 -0.1668 -0.0335 -0.0592
  328POPC   D2A 4423   0.135   0.100   5.054  0.2285 -0.0995  0.0162
  328POPC   C3A 4424  -0.094   0.134   5.375 -0.0414  0.0982 -0.1454
  328POPC   C4A 4425  -0.419   0.211   5.695 -0.2045 -0.0482 -0.3590
  328POPC   C1B 4426   0.695   0.809   5.056 -0.0193  0.1107  0.0172
  328POPC   C2B 4427   0.768   0.748   5.535 -0.0783 -0.2923  0.2461
  328POPC   C3B 4428   0.820   0.476   5.961  0.4416 -0.0033  0.0860
  328POPC   C4B 4429   1.062   0.641   6.406  0.1238  0.0410  0.0892
  329POPC   NC3 4430   6.824   1.003   4.130  0.0422  0.2695  0.0069
  329POPC   PO4 4431   6.426   0.761   4.227  0.0368  0.0708 -0.1129
  329POPC   GL1 4432   6.685   0.557   4.431  0.2491 -0.2904 -0.2500
  329POPC   GL2 4433   6.545   0.265   4.575  0.1695  0.0648 -0.3233
  329POPC   C1A 4434   6.968   0.622   4.767  0.0483  0.2863  0.2084
  329POPC   D2A 4435   7.416   0.713   5.084 -0.1838  0.1004 -0.2766
  329POPC   C3A 4436   7.308   0.700   5.592 -0.0036 -0.0245 -0.1186
  329POPC   C4A 4437   7.306   0.814   5.944  0.2200 -0.0254  0.4937
  329POPC   C1B 4438   6.609   0.261   4.996  0.1663 -0.0510 -0.2886
  329POPC   C2B 4439   6.870  -0.025   5.205 -0.1218 -0.0772  0.1131
  329POPC   C3B 4440   6.970  -0.084   5.642  0.4077 -0.1759 -0.0771
  329POPC   C4B 4441   6.867  -0.148   5.986 -0.0982  0.2260 -0.2130
  330POPC   NC3 4442   7.590   9.081   2.746 -0.1816  0.4302  0.1594
  330POPC   PO4 4443   7.524   8.834   3.027 -0.0147  0.0837 -0.1201
  330POPC   GL1 4444   7.691   8.974   3.424  0.2094  0.0383 -0.2136
  330POPC   GL2 4445   7.969   8.804   3.544 -0.0595  0.0530  0.3858
  330POPC   C1A 4446   7.632   9.208   3.716 -0.0564 -0.1841 -0.0278
  330POPC   D2A 4447   7.312   9.293   3.836 -0.3044  0.2816 -0.3273
  330POPC   C3A 4448   7.329   9.118   4.260 -0.0236 -0.1466 -0.0932
  330POPC   C4A 4449   7.426   9.339   4.672 -0.3022  0.4166 -0.1835
  330POPC   C1B 4450   8.064   8.988   3.951  0.1490  0.0230 -0.0820
  330POPC   C2B 4451   8.281   9.163   4.336 -0.0186  0.1781 -0.2846
  330POPC   C3B 4452   8.522   9.467   4.614  0.0349 -0.7101 -0.1548
  330POPC   C4B 4453   8.633   9.888   4.879  0.1943 -0.2932  0.0728
  331POPC   NC3 4454  10.033   6.321   5.144  0.0202  0.0497  0.2443
  331POPC   PO4 4455   9.780   5.851   5.094  0.4284  0.0423 -0.4861
  331POPC   GL1 4456   9.967   5.956   5.477  0.1007  0.3091 -0.0327
  331POPC   GL2 4457   9.677   5.992   5.705 -0.5557 -0.0422  0.2309
  331POPC   C1A 4458  10.016   6.319   5.797 -0.0155  0.0007  0.0261
  331POPC   D2A 4459   9.577   6.643   5.955 -0.2545  0.0360 -0.0416
  331POPC   C3A 4460   9.577   6.985   5.776 -0.0431 -0.1458 -0.1491
  331POPC   C4A 4461   9.476   7.295   5.889  0.3522  0.1388 -0.1606
  331POPC   C1B 4462   9.771   6.093   6.172  0.2281 -0.2141  0.1711
  331POPC   C2B 4463   9.957   6.381   6.356 -0.3397 -0.0597  0.0085
  331POPC   C3B 4464   9.831   6.752   6.461  0.0390 -0.0392  0.0063
  331POPC   C4B 4465   9.755   7.012   6.790  0.0517 -0.2205  0.1319
  332POPC   NC3 4466   1.239   6.166   5.039  0.2141 -0.1036  0.1463
  332POPC   PO4 4467   1.646   6.414   5.208  0.0216 -0.2268  0.2313
  332POPC   GL1 4468   1.679   6.528   5.678 -0.0686  0.1191  0.4228
  332POPC   GL2 4469   1.800   6.376   5.780 -0.0051 -0.0097  0.0181
  332POPC   C1A 4470   1.670   6.876   5.979  0.3919  0.1232 -0.0760
  332POPC   D2A 4471   1.681   7.434   6.031  0.3130 -0.0145  0.2749
  332POPC   C3A 4472   1.544   7.684   5.782 -0.2284 -0.1204 -0.1617
  332POPC   C4A 4473   1.444   7.909   5.510 -0.2272  0.2940  0.3216
  332POPC   C1B 4474   1.565   6.274   6.181  0.2406 -0.0227 -0.2098
  332POPC   C2B 4475   1.438   6.122   6.649  0.2115 -0.2745  0.0980
  332POPC   C3B 4476   1.297   5.770   7.039  0.0214  0.0778  0.0473
  332POPC   C4B 4477   1.037   5.602   7.383  0.0123  0.0290  0.3110
  333POPC   NC3 4478   0.395   2.626   4.228 -0.0873 -0.1405 -0.2394
  333POPC   PO4 4479   0.166   2.769   4.666 -0.1686 -0.2937  0.1251
  333POPC   GL1 4480  -0.024   2.576   4.979  0.0656 -0.0591  0.0165
  333POPC   GL2 4481   0.190   2.436   5.177 -0.1212 -0.0886 -0.1899
  333POPC   C1A 4482  -0.311   2.684   5.432 -0.2988 -0.1374  0.0692
  333POPC   D2A 4483  -0.684   2.615   5.668  0.1514 -0.1085  0.1883
  333POPC   C3A 4484  -0.723   2.404   6.097 -0.0045  0.2099 -0.0353
  333POPC   C4A 4485  -0.513   2.039   6.161 -0.4781 -0.1056 -0.1537
  333POPC   C1B 4486   0.110   2.400   5.647  0.4912 -0.0221  0.1677
  333POPC   C2B 4487  -0.134   2.405   6.031  0.0817 -0.0125  0.0183
  333POPC   C3B 4488  -0.418   2.421   6.504  0.0322  0.0128 -0.0355
  333POPC   C4B 4489  -0.489   2.674   6.909  0.4327  0.0462 -0.0518
  334POPC   NC3 4490   7.244   3.283   5.002 -0.1853  0.0607  0.0566
  334POPC   PO4 4491   7.166   3.841   5.103  0.0222 -0.0449 -0.1396
  334POPC   GL1 4492   7.005   3.535   5.424  0.1479 -0.0512 -0.2845
  334POPC   GL2 4493   7.385   3.408   5.461  0.0533 -0.2632  0.0363
  334POPC   C1A 4494   7.060   3.553   5.955  0.5498  0.1414  0.1704
  334POPC   D2A 4495   6.919   3.878   6.160 -0.1106  0.1249  0.0979
  334POPC   C3A 4496   7.014   3.868   6.613  0.1980  0.2180 -0.0395
  334POPC   C4A 4497   6.879   4.115   7.029 -0.0877 -0.2908  0.1157
  334POPC   C1B 4498   7.671   3.472   5.803  0.1355 -0.1802  0.1347
  334POPC   C2B 4499   7.857   3.306   6.194 -0.1341  0.2897  0.1732
  334POPC   C3B 4500   7.899   3.179   6.586 -0.1169 -0.1783  0.0308
  334POPC   C4B 4501   7.781   3.376   7.006  0.0322  0.0214  0.1927
  335POPC   NC3 4502   8.704   7.108   3.415 -0.0908  0.2325 -0.1029
  335POPC   PO4 4503   8.198   7.249   3.564 -0.1905 -0.2053 -0.2472
  335POPC   GL1 4504   8.162   7.550   3.877 -0.0880 -0.3019  0.1333
  335POPC   GL2 4505   8.240   7.858   3.793  0.0962 -0.0084  0.0205
  335POPC   C1A 4506   8.406   7.830   4.284  0.1024  0.0329  0.1709
  335POPC   D2A 4507   8.440   7.588   4.670 -0.0655  0.3359  0.2424
  335POPC   C3A 4508   8.306   7.812   5.016  0.4252  0.0093  0.3007
  335POPC   C4A 4509   8.274   8.033   5.442  0.0296 -0.1800  0.2921
  335POPC   C1B 4510   8.402   8.231   3.922  0.1373 -0.3299  0.4005
  335POPC   C2B 4511   8.672   8.362   4.222 -0.4850 -0.2510 -0.1743
  335POPC   C3B 4512   8.586   8.707   4.568 -0.0543  0.0436 -0.4212
  335POPC   C4B 4513   8.514   8.817   4.941 -0.4076 -0.3202 -0.1890
  336POPC   NC3 4514   9.518   2.062   4.746  0.1633 -0.0899  0.3356
  336POPC   PO4 4515   9.001   1.838   4.749 -0.0224 -0.1073 -0.0738
  336POPC   GL1 4516   8.800   1.558   4.985  0.0560 -0.0633  0.0413
  336POPC   GL2 4517   8.432   1.404   4.958 -0.1071  0.1910  0.1473
  336POPC   C1A 4518   8.863   1.395   5.409  0.1538  0.0683  0.0332
  336POPC   D2A 4519   9.067   1.205   5.747 -0.2095 -0.1317  0.0453
  336POPC   C3A 4520   8.843   1.039   6.059 -0.0407  0.1858  0.0152
  336POPC   C4A 4521   8.591   0.578   6.197 -0.1094  0.1069 -0.1946
  336POPC   C1B 4522   8.368   1.640   5.251 -0.0512 -0.1499  0.1777
  336POPC   C2B 4523   8.337   1.937   5.629  0.2483 -0.0102 -0.0050
  336POPC   C3B 4524   8.155   1.889   6.104 -0.0090 -0.0191 -0.2063
  336POPC   C4B 4525   7.936   1.838   6.467  0.2281  0.0219 -0.1019
  337POPC   NC3 4526   6.584   2.043   5.291  0.1656 -0.1513  0.0673
  337POPC   PO4 4527   6.977   2.225   5.155 -0.2126 -0.2476 -0.0239
  337POPC   GL1 4528   7.104   1.992   5.561 -0.1542 -0.1092  0.4214
  337POPC   GL2 4529   7.363   1.986   5.548 -0.2385  0.1227 -0.0840
  337POPC   C1A 4530   6.960   1.734   5.881 -0.0039  0.1417  0.0355
  337POPC   D2A 4531   6.716   1.372   5.956  0.0682  0.1108  0.0504
  337POPC   C3A 4532   6.608   1.295   6.379 -0.1337 -0.0976  0.4004
  337POPC   C4A 4533   6.564   1.603   6.805 -0.2438  0.0497  0.0745
  337POPC   C1B 4534   7.431   1.687   5.778  0.0851  0.1121  0.0801
  337POPC   C2B 4535   7.645   1.251   5.777 -0.3284 -0.3803 -0.0711
  337POPC   C3B 4536   7.742   0.918   5.652 -0.3145 -0.0684  0.0892
  337POPC   C4B 4537   7.792   0.464   5.608 -0.1461 -0.3755  0.1052
  338W        W 4538   2.696   8.810  12.054  0.3552 -0.0734  0.1215
  339W        W 4539   3.348   6.087  11.274  0.0746 -0.1750 -0.0927
  340W        W 4540   5.791   2.480   9.470  0.1074  0.2630  0.1242
  341W        W 4541   0.753   9.606   0.645  0.0081  0.0533 -0.2216
  342W        W 4542   0.203  10.158   1.830 -0.1527 -0.0217 -0.1267
  343W        W 4543   2.527   2.200  11.183  0.1356 -0.0112 -0.2041
  344W        W 4544   5.993   3.392   0.444 -0.2656  0.1205  0.0045
  345W        W 4545   3.199   6.154  11.746  0.0427 -0.0474  0.1041
  346W        W 4546   1.585   6.487   9.924 -0.0931 -0.0355 -0.0051
  347W        W 4547   6.096   9.764   3.829 -0.0882  0.0371 -0.0136
  348W        W 4548   0.929   9.798  11.687 -0.0455  0.0411 -0.0487
  349W        W 4549   2.801   1.015   9.217  0.1214  0.3905  0.5146
  350W        W 4550   0.369   0.752   0.348  0.1253  0.1638  0.2159
  351W        W 4551   1.770   2.655   0.403 -0.0836  0.1970  0.0622
  352W        W 4552   4.508   3.258   5.390 -0.1176 -0.1341  0.0291
  353W        W 4553   2.901   4.204  11.666 -0.0256 -0.1449  0.0230
  354W        W 4554   3.806   1.464  11.152  0.1745 -0.0140  0.3169
  355W        W 4555   6.609   7.868   2.751 -0.0068 -0.2039 -0.3241
  356W        W 4556  10.161   3.357   2.584 -0.1131 -0.1954  0.1916
  357W        W 4557   9.038   2.703  13.324  0.3616 -0.1809  0.2601
  358W        W 4558   5.897   8.783  11.331 -0.1033 -0.2395  0.1854
  359W        W 4559   0.817   9.168  12.902 -0.4932  0.0174  0.3118
  360W        W 4560   9.110   2.647   2.959  0.1241 -0.2394 -0.3425
  361W        W 4561   1.011   3.852  11.475 -0.2037  0.1454 -0.1373
  362W        W 4562   4.708   2.888   1.151  0.0317 -0.2399 -0.1582
  363W        W 4563   9.462   8.616   2.578  0.2532 -0.0913 -0.1966
  364W        W 4564   8.872   0.061   1.785 -0.0225 -0.4121 -0.1555
  365W        W 4565   6.128   3.774   9.990  0.0492 -0.0756 -0.2121
  366W        W 4566   5.060   4.448   0.351  0.2081 -0.3090  0.3371
  367W        W 4567   4.417   4.807   3.581 -0.1338  0.0732 -0.1001
  368W        W 4568   2.767   3.306   1.833  0.1292 -0.1382 -0.0177
  369W        W 4569   4.597   3.111   0.168  0.1087 -0.1758 -0.1512
  370W        W 4570   0.586   8.066   1.892  0.0958  0.1337  0.1029
  371W        W 4571   4.682   1.511   9.640 -0.3402 -0.3707 -0.0517
  372W        W 4572   5.521   5.511  13.289 -0.0317  0.0775 -0.1313
  373W        W 4573   7.833   9.746  11.547 -0.3497  0.0692  0.2768
  374W        W 4574   6.771   7.298  13.382 -0.2324  0.1015 -0.0561
  375W        W 4575   4.843   6.691   4.212 -0.1203  0.2637 -0.2818
  376W        W 4576   1.546   4.321   1.544  0.4049  0.3034 -0.0781
  377W        W 4577   1.715   5.797  10.459  0.0208  0.2334  0.0681
  378W        W 4578   6.924   6.301   4.222 -0.1243 -0.2948 -0.2769
  379W        W 4579   9.333   2.626   0.936  0.0108  0.0787  0.1575
  380W        W 4580   1.034   3.142   4.629  0.2182 -0.0612  0.0056
  381W        W 4581   0.341   3.859   5.373 -0.1433 -0.0311  0.1261
  382W        W 4582   5.588  10.390  12.584  0.3944 -0.0537 -0.0017
  383W        W 4583   3.691   0.843  10.513  0.0488  0.1923 -0.4072
  384W        W 4584   5.878   7.003   3.417  0.0740  0.2034 -0.1644
  385W        W 4585   8.928   8.781  11.621  0.0620  0.0911  0.0867
  386W        W 4586   9.077   3.819   4.720  0.1582  0.1949  0.3066
  387W        W 4587   4.214   0.529   9.561 -0.0973 -0.1009  0.1425
  388W        W 4588   0.190   1.354   9.090 -0.0818  0.1558 -0.2217
  389W        W 4589   9.993   2.448   3.984 -0.1337 -0.1136  0.1553
  390W        W 4590   8.163   2.274  12.799 -0.1479  0.1344 -0.0876
  391W        W 4591   9.386   7.833   1.413  0.0215  0.2789 -0.1330
  392W        W 4592   7.179   9.151  12.496 -0.1812 -0.0329  0.3246
  393W        W 4593   6.017   1.978   2.185 -0.0893 -0.4513  0.2737
  394W        W 4594   9.551   9.971  12.382 -0.0370 -0.0768 -0.1873
  395W        W 4595   4.290   2.224  11.701  0.2140 -0.1719  0.0118
  396W        W 4596   0.739   7.147   3.734 -0.0284  0.0709  0.0111
  397W        W 4597   3.826   8.612  12.726  0.2041  0.1853  0.3706
  398W        W 4598   0.091   9.262   8.365 -0.3261 -0.0632  0.1550
  399W        W 4599   8.205   5.299  10.268  0.0503 -0.2869  0.2495
  400W        W 4600   2.725   9.632   1.021  0.2735 -0.3397  0.3872
  401W        W 4601   8.935  10.066   3.450 -0.2203 -0.1859 -0.0217
  402W        W 4602   7.179   6.786   9.075 -0.3109 -0.0083 -0.1709
  403W        W 4603   0.670   5.150  10.734 -0.0830  0.1000 -0.0433
  404W        W 4604   0.300   0.541   3.120  0.0859 -0.2828 -0.1473
  405W        W 4605   1.961   6.019   5.481  0.3702  0.0755  0.1919
  406W        W 4606   0.553   5.748  13.275  0.1333 -0.1626  0.2461
  407W        W 4607   5.519   7.292   1.093 -0.2642 -0.1983  0.1092
  408W        W 4608   9.381   0.337   3.140 -0.0520 -0.3056 -0.0702
  409W        W 4609   2.730   2.977  12.357  0.2226  0.3643 -0.3194
  410W        W 4610   4.920   2.184  12.953 -0.0509 -0.3642  0.2310
  411W        W 4611   9.430   6.290  12.969 -0.2577 -0.3970  0.0220
  412W        W 4612   1.204   8.885  11.117  0.1416 -0.1018  0.2571
  413W        W 4613   0.845   3.922   4.940  0.1599 -0.3766  0.1395
  414W        W 4614   1.987   2.552  12.109  0.0820  0.1797 -0.3243
  415W        W 4615   3.278  10.214   3.418 -0.0886  0.2197  0.1004
  416W        W 4616   1.545   7.268   4.836  0.1139 -0.1585 -0.0238
  417W        W 4617   2.298   7.958  12.224 -0.1483 -0.1503  0.0415
  418W        W 4618   1.947   1.861  11.653 -0.0516  0.2684 -0.1298
  419W        W 4619   0.679   9.100   9.256  0.1151 -0.1665  0.3364
  420W        W 4620   2.695   8.704   0.540 -0.1971  0.1379  0.0060
  421W        W 4621   3.451   9.220   0.251  0.0691  0.1540 -0.2749
  422W        W 4622   3.190   7.520   9.711 -0.0428  0.1378 -0.1057
  423W        W 4623   6.989   8.000  11.894  0.0404  0.0877  0.2904
  424W        W 4624   1.997   3.019   1.243 -0.0755 -0.0661 -0.1123
  425W        W 4625   8.290   2.095   3.013  0.2685 -0.2405  0.1934
  426W        W 4626   4.158   3.524   0.183 -0.0188 -0.1947 -0.2801
  427W        W 4627   9.243   7.927   1.933  0.0076 -0.3072  0.2043
  428W        W 4628   6.775   2.986  12.439 -0.1238  0.2058 -0.1185
  429W        W 4629   8.221   7.942  11.223 -0.1037 -0.2365  0.2743
  430W        W 4630   2.661   2.261   2.925  0.0209 -0.1413 -0.1769
  431W        W 4631   8.943   5.010   0.400 -0.3993  0.2468 -0.1927
  432W        W 4632   6.883   5.512  11.172  0.2974  0.0036  0.2337
  433W        W 4633   3.056   4.699   9.051  0.0355  0.2564 -0.2720
  434W        W 4634   7.046   6.493   4.716 -0.1290  0.4209  0.0813
  435W        W 4635  10.148   8.122   0.766 -0.0077  0.1814 -0.2308
  436W        W 4636   8.809   6.803  10.474 -0.1383  0.2304 -0.0890
  437W        W 4637   2.148   3.280  10.070 -0.0071  0.3387  0.0054
  438W        W 4638   3.179   8.816   1.942 -0.0681  0.0749  0.3427
  439W        W 4639   8.949   8.623   1.161  0.0498  0.0572  0.2027
  440W        W 4640   9.316   1.666  12.444 -0.2189  0.0856 -0.1976
  441W        W 4641   7.378   2.337  13.430 -0.0540  0.0834 -0.2824
  442W        W 4642   7.367   8.954  12.078  0.2608  0.2542  0.1607
  443W        W 4643   1.304   1.946   2.538  0.4468 -0.0545  0.0281
  444W        W 4644   7.075   6.531  10.503  0.1351  0.0110 -0.0642
  445W        W 4645   8.493   0.740  10.611  0.2027  0.2882 -0.1331
  446W        W 4646   6.932   7.286   2.764  0.2614 -0.0923 -0.2503
  447W        W 4647   9.839   8.467   9.642  0.1721 -0.1344 -0.1153
  448W        W 4648   4.958   9.245   9.214  0.0892 -0.0416 -0.1324
  449W        W 4649   2.238   2.606  10.868 -0.0383 -0.2870 -0.0832
  450W        W 4650   4.650   0.808  11.334 -0.2755  0.3868 -0.1546
  451W        W 4651   8.620   4.446   1.350 -0.1743 -0.2273  0.2850
  452W        W 4652   7.261   0.725  11.994 -0.0512  0.2080  0.1348
  453W        W 4653   0.316   4.791  13.529 -0.0801  0.0821 -0.2242
  454W        W 4654  10.210   9.213  12.296  0.0367 -0.3035 -0.1281
  455W        W 4655   9.345   5.914   9.536 -0.1423 -0.3160  0.0530
  456W        W 4656   3.917   7.557   2.700  0.1413 -0.2889 -0.0653
  457W        W 4657   7.650   3.639   4.839 -0.1961 -0.0971  0.0200
  458W        W 4658   0.671   5.250   1.920 -0.2077  0.6874 -0.1162
  459W        W 4659   9.839   3.730   5.247 -0.4605 -0.2103 -0.1951
  460W        W 4660   3.012   0.213   2.001  0.2611  0.1088  0.1444
  461W        W 4661   4.126   5.168   4.910  0.1191  0.0797  0.3625
  462W        W 4662   9.101   4.186   2.437 -0.0967  0.0716  0.4201
  463W        W 4663   2.832  10.052   4.714 -0.0410 -0.2256 -0.0338
  464W        W 4664   7.888   3.022   0.145 -0.0128 -0.1519  0.0245
  465W        W 4665   5.104   2.409   3.221  0.3149 -0.1042  0.0927
  466W        W 4666   0.633   2.145   3.794 -0.0043 -0.4533  0.0159
  467W        W 4667   7.466   1.736   3.956  0.2482  0.0853 -0.1461
  468W        W 4668   0.424   9.802  12.533  0.0541 -0.0008 -0.0482
  469W        W 4669   7.232   2.255  12.254 -0.1026 -0.2546 -0.0060
  470W        W 4670   4.244   1.653  11.129 -0.1422  0.3031  0.0643
  471W        W 4671   4.245   5.466  13.022 -0.2174  0.1980  0.0479
  472W        W 4672   0.572   7.551   2.780  0.1581  0.3108 -0.0685
  473W        W 4673   6.016   3.190   4.468  0.1310  0.1256 -0.2476
  474W        W 4674   7.202   5.318   3.975 -0.0288  0.1985  0.2040
  475W        W 4675   6.739   1.687   3.557  0.1455 -0.5450  0.0730
  476W        W 4676   9.101   6.022  12.493 -0.1265  0.1748  0.1282
  477W        W 4677   2.968   8.349  11.672 -0.0935 -0.2516  0.1547
  478W        W 4678   0.370   7.717  11.874 -0.0975 -0.3008 -0.1317
  479W        W 4679   6.408   6.361   3.835  0.0856 -0.0439 -0.0946
  480W        W 4680   2.215   8.877   0.338  0.2717 -0.0961  0.2518
  481W        W 4681   1.681   6.098   2.261  0.0544  0.0868 -0.2814
  482W        W 4682   7.317   0.317   3.819  0.0456  0.0600  0.1650
  483W        W 4683   2.439   1.261   8.959 -0.1470  0.2318 -0.1900
  484W        W 4684   3.389   0.236   3.625  0.0235 -0.1207 -0.1517
  485W        W 4685   1.068   7.546  11.375 -0.2566  0.1314  0.2573
  486W        W 4686   8.982   4.514   1.739  0.1204 -0.0366  0.3109
  487W        W 4687   7.760   7.317   9.867 -0.1359  0.2936  0.0624
  488W        W 4688   5.481   6.255   1.313  0.1846  0.3557 -0.0391
  489W        W 4689   5.689   2.038   5.355  0.2364 -0.0476  0.1816
  490W        W 4690   4.564   0.972  10.007  0.0256  0.0487  0.1749
  491W        W 4691   7.553   6.039  12.079  0.1646  0.0642  0.0355
  492W        W 4692  10.360   3.436  10.902  0.0083 -0.1092 -0.1147
  493W        W 4693   1.450   9.182   8.841 -0.0692 -0.1278  0.3493
  494W        W 4694   3.635   2.368   3.184 -0.2573 -0.2934  0.0597
  495W        W 4695   0.811   1.360   9.043  0.2400 -0.1795  0.0487
  496W        W 4696   0.406   6.635   9.371  0.2913  0.0640 -0.2206
  497W        W 4697   4.209   1.586  12.967  0.3706 -0.0713  0.4126
  498W        W 4698   4.745   7.916  13.075 -0.0676  0.0021 -0.0382
  499W        W 4699   8.282   3.617  10.186  0.1084  0.0023  0.1869
  500W        W 4700   8.110   1.660  10.892 -0.1039  0.2635 -0.0612
  501W        W 4701   0.102  10.131  12.080  0.0762  0.1239 -0.0140
  502W        W 4702   9.781   2.742   3.096 -0.3105  0.1906 -0.2483
  503W        W 4703   3.102   4.757   4.103 -0.0404  0.2066 -0.3808
  504W        W 4704   5.922   8.629   2.606 -0.1897 -0.1672 -0.0885
  505W        W 4705  10.186   1.898   3.348  0.1270 -0.0377  0.0245
  506W        W 4706   6.744   6.215  10.478 -0.3206 -0.3861  0.0344
  507W        W 4707   9.651   3.152   3.721  0.1565 -0.2891  0.0781
  508W        W 4708  10.199   1.855  12.779 -0.3861 -0.0480  0.1296
  509W        W 4709   1.587   6.268   1.117 -0.0799  0.0776 -0.2979
  510W        W 4710  10.175   3.874   9.316 -0.1430  0.2610 -0.1026
  511W        W 4711   9.725   9.413   1.745  0.0233  0.0864 -0.0668
  512W        W 4712   1.066   0.452   1.176  0.1034  0.1665 -0.0472
  513W        W 4713   1.590   0.600   3.714  0.0372  0.2213 -0.1213
  514W        W 4714   0.790   9.659  12.853  0.1937 -0.1505  0.0873
  515W        W 4715   1.359   9.278   2.049 -0.0716  0.1529 -0.2592
  516W        W 4716   4.062   2.422   4.652 -0.2508 -0.1815  0.0950
  517W        W 4717  10.351   4.827   3.191  0.0303  0.0403 -0.0753
  518W        W 4718   1.134   5.983  11.709  0.0006 -0.0993 -0.1446
  519W        W 4719   3.663   6.064   9.686  0.0532 -0.0483 -0.1817
  520W        W 4720   6.079   7.502   1.730 -0.0175 -0.0591  0.0418
  521W        W 4721   7.342   5.858  11.575  0.1247 -0.1089 -0.0093
  522W        W 4722   9.848   4.571   2.098  0.0554 -0.3026 -0.3705
  523W        W 4723   3.306   4.367   0.785  0.1358 -0.2368  0.0063
  524W        W 4724   8.235   7.122   1.867 -0.1720 -0.3652 -0.0785
  525W        W 4725  10.250   2.289   0.193 -0.0853  0.2137 -0.0751
  526W        W 4726   6.695   7.475  11.904  0.2190 -0.4686  0.1911
  527W        W 4727   2.769   1.755   0.067  0.2277  0.0569  0.0271
  528W        W 4728   2.149   7.434   2.475 -0.0203 -0.0858 -0.2303
  529W        W 4729   8.346   8.199   3.183 -0.2118 -0.1495  0.0832
  530W        W 4730   9.977   3.291   5.012  0.1111  0.3836  0.1618
  531W        W 4731   5.615   0.551  11.433  0.2667 -0.0745 -0.0345
  532W        W 4732  10.011   9.082   1.134  0.0771  0.1911 -0.0023
  533W        W 4733   6.035   5.322  13.330  0.0738 -0.0381 -0.1673
  534W        W 4734   0.716   3.664   9.979  0.1174 -0.1246 -0.1447
  535W        W 4735   6.381   9.657   0.980 -0.1020 -0.3770  0.1072
  536W        W 4736   0.742   5.682  11.945  0.1555  0.0234 -0.1188
  537W        W 4737   4.889   3.305  12.281  0.0078 -0.2611  0.1227
  538W        W 4738  10.059   5.942  12.008  0.0254  0.0995  0.1356
  539W        W 4739   6.529   1.164   9.111 -0.2316 -0.2440 -0.1897
  540W        W 4740   5.512   6.522   1.963  0.0148 -0.1851  0.2179
  541W        W 4741   6.142   8.599   0.539  0.0456 -0.0155 -0.2359
  542W        W 4742   9.419   5.029  11.818  0.3055  0.4015 -0.2099
  543W        W 4743   1.874   9.970  13.649  0.0892 -0.0805 -0.0616
  544W        W 4744   5.898   3.906   3.147 -0.3777 -0.2633  0.0595
  545W        W 4745   9.282   9.879  10.524 -0.0621 -0.1403 -0.4108
  546W        W 4746   7.366   5.697   2.645 -0.2876  0.0637 -0.1185
  547W        W 4747   5.597   2.051   1.400 -0.5571  0.0638 -0.0941
  548W        W 4748   4.567   3.618  10.493  0.0884  0.0691 -0.3070
  549W        W 4749   9.834   6.473  12.495  0.3053 -0.0057 -0.1217
  550W        W 4750   2.370   8.578   1.973 -0.0210  0.1106  0.1726
  551W        W 4751   5.060   6.082   8.294  0.3666 -0.2792 -0.0744
  552W        W 4752   8.083   1.762   2.618 -0.1962 -0.2441  0.0247
  553W        W 4753   4.373   2.091   4.394 -0.0693 -0.2080 -0.0819
  554W        W 4754  10.334   0.943   2.905  0.1849  0.1158 -0.0681
  555W        W 4755   3.208  10.351  11.901 -0.4246 -0.3516  0.1332
  556W        W 4756   6.519   8.097  11.022  0.1477  0.1574 -0.0797
  557W        W 4757   0.891   1.463   3.336 -0.0090 -0.0864 -0.0975
  558W        W 4758   8.906   7.754   0.408  0.0985  0.0849  0.1036
  559W        W 4759   0.059   0.399  13.579 -0.1627 -0.2442 -0.3867
  560W        W 4760   2.345   2.639  12.562 -0.1000  0.1275  0.0317
  561W        W 4761   5.048   3.815   1.347  0.2528 -0.2230 -0.1071
  562W        W 4762   2.577   9.331   4.105 -0.1415 -0.0829 -0.3587
  563W        W 4763   3.875   1.365  11.644 -0.0558 -0.0699 -0.1590
  564W        W 4764   4.251   4.831   1.794 -0.2448  0.1773 -0.1279
  565W        W 4765   0.788   2.037  13.427  0.0342  0.2874  0.0582
  566W        W 4766   7.900   1.340   0.217 -0.2220  0.1112 -0.2589
  567W        W 4767   5.937   4.362  11.932  0.3023 -0.0885 -0.1802
  568W        W 4768   1.882   4.117   3.507 -0.2169 -0.4851  0.0951
  569W        W 4769   4.252   3.901   4.726 -0.3283  0.0767  0.1480
  570W        W 4770   4.479   9.497   2.457  0.0537  0.0173 -0.3310
  571W        W 4771   6.663   9.366   2.676  0.1459  0.0354  0.0343
  572W        W 4772   4.275   5.150   3.957 -0.0004 -0.4758  0.2511
  573W        W 4773   6.676   3.797  10.000  0.2518  0.1694  0.1502
  574W        W 4774   0.716   4.315   2.630 -0.0212  0.4615 -0.0693
  575W        W 4775   5.151   1.732   3.257 -0.1294  0.1261 -0.0769
  576W        W 4776   1.044   2.381   1.710 -0.2227 -0.0711 -0.0438
  577W        W 4777   1.271   4.425   3.969  0.1225  0.1223 -0.0078
  578W        W 4778   1.271   0.626   0.747  0.2029 -0.2155 -0.3128
  579W        W 4779   5.937   6.748  10.740 -0.2091  0.2179  0.5010
  580W        W 4780   3.933   0.307  12.393  0.0992 -0.1313 -0.2892
  581W        W 4781   4.057   1.070  12.958  0.3179 -0.0674  0.2607
  582W        W 4782   6.348   8.272  13.363 -0.1874  0.0752 -0.1615
  583W        W 4783   8.298   3.107   1.682  0.2023  0.2856 -0.2854
  584W        W 4784   4.585   3.834  11.207 -0.2054  0.3866 -0.1292
  585W        W 4785   5.947   3.314  10.550 -0.0389  0.0422  0.0525
  586W        W 4786   8.894   0.503  11.741  0.0923  0.1169 -0.0385
  587W        W 4787   3.811   2.140   2.758 -0.1031 -0.0718 -0.3191
  588W        W 4788   8.788   4.213   3.581 -0.0865 -0.2733 -0.1374
  589W        W 4789   2.135   8.439  11.477  0.2556  0.0248  0.0552
  590W        W 4790   6.144   2.815   1.777 -0.0248  0.1303  0.0770
  591W        W 4791   9.836   7.759  10.225 -0.0778 -0.0808  0.1438
  592W        W 4792   7.629   1.355   3.064 -0.0377 -0.1945  0.1297
  593W        W 4793   8.548   7.536   2.560 -0.0963  0.0792 -0.3867
  594W        W 4794   7.368   1.609  11.427 -0.1395  0.0442 -0.1162
  595W        W 4795   0.123   6.717   4.516  0.4779  0.1373  0.1928
  596W        W 4796   3.665   3.501   1.789 -0.2770  0.0343  0.0277
  597W        W 4797   3.701   4.029  10.996  0.2035  0.0311  0.4383
  598W        W 4798   3.577   9.151   9.493 -0.0358  0.1220 -0.0305
  599W        W 4799   3.398   1.650   9.337 -0.0796 -0.4679  0.0116
  600W        W 4800   3.258   9.183   9.048 -0.1792  0.1139 -0.1436
  601W        W 4801   3.930   3.189   5.449  0.1516  0.2331  0.0675
  602W        W 4802   8.133   9.385  12.327  0.1515 -0.0419 -0.0723
  603W        W 4803   1.866   7.796  11.949  0.1074 -0.0421 -0.0786
  604W        W 4804   1.707   5.090   3.507  0.2784  0.2617 -0.4276
  605W        W 4805  10.211   6.677   3.240 -0.1012  0.3032 -0.0249
  606W        W 4806   0.820   3.145   9.992 -0.0280  0.0282  0.1823
  607W        W 4807   1.115   3.403  13.409 -0.0259  0.0684 -0.2638
  608W        W 4808   5.539   4.095  12.060  0.1388  0.0339 -0.1431
  609W        W 4809   4.950   6.098   2.506  0.3838  0.1475 -0.1467
  610W        W 4810   1.968   1.632   9.062  0.2090  0.0755 -0.0519
  611W        W 4811   7.711   3.626  10.932  0.0408  0.0871 -0.0360
  612W        W 4812   4.469   5.645   0.860 -0.0621  0.0015  0.0019
  613W        W 4813   4.422   6.688  13.475  0.3411 -0.3877  0.0570
  614W        W 4814   4.473   1.886  10.509  0.4319  0.0278 -0.0960
  615W        W 4815   1.608   0.218  12.661 -0.4979  0.0236 -0.0303
  616W        W 4816   4.720   5.164   0.770  0.1555  0.0575  0.1451
  617W        W 4817  10.191   4.658   2.698 -0.0196 -0.2059 -0.0187
  618W        W 4818   3.591   7.059  11.329  0.0890  0.0518  0.0416
  619W        W 4819   1.351   0.178   3.971 -0.0082  0.1088 -0.0953
  620W        W 4820   4.401   3.580   8.885  0.0319 -0.1530  0.1610
  621W        W 4821   0.230   7.827  11.218 -0.0431 -0.0092  0.0785
  622W        W 4822   4.186   0.675   3.980 -0.2241 -0.2393 -0.2968
  623W        W 4823   8.711   5.768   2.627 -0.2904 -0.4372  0.0420
  624W        W 4824   4.001   7.168   2.001 -0.1468 -0.3519 -0.0999
  625W        W 4825   3.707   2.783   1.053  0.1212 -0.1351  0.3268
  626W        W 4826   5.249   7.797   4.387 -0.1081 -0.1390 -0.2389
  627W        W 4827  10.185   3.390  12.202 -0.0422 -0.0049 -0.0469
  628W        W 4828   0.575   1.636   1.216  0.1512  0.1388  0.2076
  629W        W 4829  10.130   6.352   9.154 -0.2364 -0.2306  0.0289
  630W        W 4830   4.826   4.436   3.807 -0.3007  0.0168  0.0906
  631W        W 4831   3.323   8.631   8.922  0.0849 -0.3343 -0.0474
  632W        W 4832  10.260   3.994  10.936  0.1138  0.2051  0.0293
  633W        W 4833   9.773   8.231   3.323 -0.0974  0.2406  0.0830
  634W        W 4834   7.425   5.412   1.544 -0.0952  0.0362  0.0790
  635W        W 4835   5.433   7.826   3.604 -0.1139 -0.1193  0.1863
  636W        W 4836   0.715   7.587  10.024  0.1540  0.3707  0.1521
  637W        W 4837   8.126   1.444  10.308  0.1294  0.0262  0.2711
  638W        W 4838   1.751   5.084  12.525  0.0064 -0.0546  0.2353
  639W        W 4839   3.234   8.123   9.111 -0.4219  0.2005  0.1266
  640W        W 4840   4.155   5.989   0.451  0.1106  0.0779  0.1632
  641W        W 4841   0.048   7.372  10.900  0.1256  0.0213 -0.1712
  642W        W 4842   2.086   2.226   9.817 -0.0736 -0.1140  0.4251
  643W        W 4843   6.893   4.493   1.165 -0.1755  0.0267 -0.1716
  644W        W 4844   4.145   3.776  10.859  0.2834 -0.0538 -0.1591
  645W        W 4845   7.750   9.250  10.780  0.3027  0.0393  0.0799
  646W        W 4846   4.337   9.634  11.861  0.0017  0.2434 -0.0847
  647W        W 4847   5.734   7.028   4.268 -0.0177 -0.0657  0.0225
  648W        W 4848   0.550   5.269   1.407 -0.0968 -0.2664 -0.0992
  649W        W 4849   4.241   4.047   0.152 -0.1567 -0.0514  0.4835
  650W        W 4850   2.912   8.386   4.075  0.0506  0.0985  0.2284
  651W        W 4851   7.063   1.449   4.017  0.0536  0.0125 -0.0502
  652W        W 4852   4.503   5.422  10.077 -0.0341 -0.2669  0.0941
  653W        W 4853   8.857   1.177   2.575  0.0021 -0.1848 -0.0202
  654W        W 4854   0.804   4.816   2.738 -0.0311  0.3188 -0.1806
  655W        W 4855   1.349   1.425  11.018 -0.0306 -0.2311  0.2145
  656W        W 4856   9.761   6.305   2.546 -0.0055  0.1192 -0.3070
  657W        W 4857   2.380   6.787  11.217 -0.2371  0.1590  0.1318
  658W        W 4858   4.534   4.859   1.101  0.4420 -0.1220 -0.5440
  659W        W 4859   5.028   5.539   9.458 -0.0816  0.0636 -0.0186
  660W        W 4860   1.269   0.766   9.975  0.0279 -0.1980 -0.1949
  661W        W 4861   5.993   6.825   0.007  0.0266  0.1597 -0.1393
  662W        W 4862   8.949   0.585   3.305  0.0945  0.0296  0.1948
  663W        W 4863   4.715   1.435  11.884  0.2228 -0.0447  0.0643
  664W        W 4864   3.901   4.151  10.134  0.2354  0.0499 -0.0106
  665W        W 4865   6.013   2.686  11.253  0.2716 -0.1547  0.0901
  666W        W 4866  10.001   6.667  10.150 -0.1746  0.2479 -0.1436
  667W        W 4867   1.025   1.645  10.383 -0.1023 -0.1075  0.4042
  668W        W 4868   3.094   8.212  10.370  0.2382 -0.2593  0.0411
  669W        W 4869   9.476   1.526   3.812 -0.0067 -0.4150 -0.0310
  670W        W 4870   5.258   5.635  11.478 -0.2265  0.1412 -0.0219
  671W        W 4871   2.251   2.455  10.318  0.3675 -0.0125  0.2157
  672W        W 4872   1.360   8.996   4.741 -0.2562  0.3174  0.1550
  673W        W 4873   8.687   3.172   9.016 -0.0823  0.1598  0.0217
  674W        W 4874   0.185   1.411   1.357  0.0911 -0.0917  0.0293
  675W        W 4875   0.772   9.124   0.442  0.3752  0.1526 -0.0949
  676W        W 4876   1.737   3.084  12.247 -0.1634 -0.0897  0.1051
  677W        W 4877   7.278   4.200  12.044 -0.0392  0.0717 -0.2979
  678W        W 4878   5.073   8.424  12.088  0.1220 -0.0513  0.0330
  679W        W 4879   3.154   6.603   3.623  0.4390  0.3324 -0.0179
  680W        W 4880   2.898   1.998   1.140 -0.3501 -0.0570 -0.2701
  681W        W 4881  10.210   8.657  10.320 -0.3413 -0.0103  0.0951
  682W        W 4882   5.753   3.332   9.692 -0.0125  0.1662  0.1789
  683W        W 4883   0.396   1.054  11.914 -0.1643  0.2326 -0.0750
  684W        W 4884   3.064   0.087   9.288  0.4328 -0.1508  0.0166
  685W        W 4885  10.329   3.050  13.514 -0.0201 -0.0531  0.1473
  686W        W 4886   4.040   1.792   4.210  0.0477 -0.0796  0.1012
  687W        W 4887   7.153   8.136   9.530 -0.0259  0.4666 -0.1355
  688W        W 4888   9.875   9.614   2.471  0.1231  0.0807  0.2200
  689W        W 4889   6.178   3.191  12.564 -0.1176 -0.1244 -0.0424
  690W        W 4890   9.824   4.458   0.286 -0.1097  0.0637 -0.0904
  691W        W 4891   9.333   9.331   0.395 -0.1230 -0.0805 -0.1846
  692W        W 4892   1.475   1.795   2.996  0.0227 -0.0969  0.1468
  693W        W 4893   5.125   4.834   0.660 -0.2057 -0.1452  0.2257
  694W        W 4894   0.506   8.306   0.151  0.0462  0.0137 -0.0372
  695W        W 4895   8.104   7.788   3.334 -0.0099 -0.2281  0.0863
  696W        W 4896   0.376   5.376  12.918  0.1825  0.0603  0.0323
  697W        W 4897  10.051   3.439   4.524 -0.1108  0.0905 -0.0610
  698W        W 4898   5.913   1.246   9.733  0.1877 -0.1343 -0.3439
  699W        W 4899   6.664   2.307  11.039  0.0402  0.1408  0.3868
  700W        W 4900   0.385   9.082   1.359 -0.0199 -0.0113 -0.0677
  701W        W 4901   9.890   1.149  10.099 -0.1621  0.1655 -0.2367
  702W        W 4902   0.645   1.874   3.412  0.0392  0.3999  0.0706
  703W        W 4903   2.309   1.110   0.529 -0.3091 -0.4371  0.1261
  704W        W 4904   3.913  10.044   3.393 -0.1685  0.3463  0.3216
  705W        W 4905   2.110   2.732   9.920  0.0405  0.0560 -0.2828
  706W        W 4906   3.982   0.267   1.957  0.0189  0.1582 -0.0825
  707W        W 4907   8.828   8.855  11.049 -0.2594  0.0713  0.0754
  708W        W 4908   8.756   6.294  10.281  0.0828 -0.1780 -0.1490
  709W        W 4909  10.282   4.010   9.779  0.1829 -0.2000 -0.2344
  710W        W 4910   3.695   9.764   1.370 -0.0295  0.0902 -0.1411
  711W        W 4911   6.385   9.401   0.571 -0.0315  0.3077 -0.0883
  712W        W 4912   3.893   8.552   9.521  0.0665 -0.0720 -0.5589
  713W        W 4913   5.206   8.101  13.512  0.0355  0.1281 -0.2440
  714W        W 4914   6.593   5.647   0.424  0.1346 -0.2047 -0.1407
  715W        W 4915   5.730   1.582  12.871 -0.0622 -0.0068  0.0954
  716W        W 4916   6.665   0.380  11.009 -0.2271  0.2383  0.0212
  717W        W 4917   3.919   4.477   9.763  0.1635 -0.1922  0.0783
  718W        W 4918   9.296  10.278  11.239 -0.1968 -0.0375 -0.3120
  719W        W 4919   6.645   5.588   9.759 -0.2234  0.0804  0.4406
  720W        W 4920   1.537   8.526  10.718  0.0676 -0.0653 -0.0503
  721W        W 4921   0.862   1.492   4.441 -0.0492  0.1787  0.0042
  722W        W 4922   3.204   0.295  10.282 -0.5015  0.4063  0.0814
  723W        W 4923   7.958   3.005  10.913  0.2909 -0.3067 -0.0695
  724W        W 4924   0.202  10.382   9.902  0.0084 -0.0691 -0.0339
  725W        W 4925   2.675   9.454   2.414  0.1577 -0.2263  0.0971
  726W        W 4926   2.640   8.697  12.662 -0.2185 -0.3375  0.0072
  727W        W 4927   8.027   9.841  12.001  0.2159 -0.2201 -0.2510
  728W        W 4928   5.520   7.587   9.001 -0.0485  0.2166 -0.0194
  729W        W 4929   6.518   4.010   1.465  0.1266 -0.2063  0.2406
  730W        W 4930   2.059   1.980   9.409 -0.0428  0.0141  0.2398
  731W        W 4931   2.124   2.294   1.146 -0.4653  0.1231  0.3288
  732W        W 4932   4.314   9.900   4.695 -0.0212 -0.2503 -0.0735
  733W        W 4933   8.375   1.283   3.529  0.2049 -0.3212 -0.0405
  734W        W 4934   0.867   1.665  10.902 -0.2064 -0.0542  0.2460
  735W        W 4935   8.426   1.412   2.681  0.2183 -0.2486 -0.0192
  736W        W 4936   2.256   6.864   1.079 -0.1494 -0.0782 -0.3243
  737W        W 4937   8.065   2.128   0.560 -0.0849  0.0196  0.0017
  738W        W 4938   6.788   0.066   0.030  0.1196 -0.1418 -0.3057
  739W        W 4939   4.633   1.720   3.105 -0.0286 -0.0422  0.1150
  740W        W 4940   4.380   0.535   1.869  0.2086 -0.2232  0.1571
  741W        W 4941   5.487   4.103   0.223 -0.0446 -0.0442  0.1277
  742W        W 4942   1.868   8.299   8.751 -0.0332  0.0064  0.0339
  743W        W 4943   3.807   9.614   3.066  0.0817  0.0782  0.1296
  744W        W 4944   1.472   8.651  13.234  0.2509 -0.3167  0.2841
  745W        W 4945   0.046   5.584   0.687  0.2124  0.1348  0.2521
  746W        W 4946   8.394   5.666   0.505  0.1349  0.2177 -0.0200
  747W        W 4947   3.089   0.267   4.058  0.0945 -0.3263  0.1463
  748W        W 4948  10.362   7.379   4.293 -0.1085  0.1224 -0.1975
  749W        W 4949   9.029   1.238   4.443 -0.2065  0.0982  0.1031
  750W        W 4950   8.770   4.140   4.492 -0.0006  0.0078 -0.1208
  751W        W 4951   9.062   2.238   2.494 -0.0586 -0.0215  0.1323
  752W        W 4952   6.179   1.709  10.590 -0.2127 -0.1480  0.2779
  753W        W 4953   6.271   5.896   3.583  0.1075  0.1784  0.2460
  754W        W 4954   1.137   5.778  10.478 -0.0190 -0.1324 -0.0220
  755W        W 4955   0.791   0.746  11.595  0.0369  0.1724 -0.1531
  756W        W 4956  10.231   8.723   0.206  0.3918  0.1182 -0.2897
  757W        W 4957   5.472   8.533  13.471 -0.3434 -0.0228 -0.1691
  758W        W 4958   2.656   3.012   0.875  0.1607 -0.2800  0.0081
  759W        W 4959   1.540   6.994   0.568 -0.0648  0.0618 -0.2755
  760W        W 4960   9.231   9.123  11.758 -0.1030  0.1242  0.0057
  761W        W 4961   0.997   0.414   4.224  0.0834 -0.1035  0.1675
  762W        W 4962   1.122   5.820   3.806  0.0662 -0.0019 -0.1729
  763W        W 4963   1.548   2.978   1.771  0.0575  0.2114 -0.1836
  764W        W 4964   4.221   9.104   3.467  0.1882  0.0630 -0.2012
  765W        W 4965   9.131   3.732   0.441  0.1249  0.0327  0.2259
  766W        W 4966   1.474   0.942  10.768 -0.1283  0.2118 -0.2682
  767W        W 4967   9.157   3.216   9.261 -0.2425 -0.0591 -0.1710
  768W        W 4968   5.021   4.814   1.208  0.0173  0.1944  0.0829
  769W        W 4969   2.411   7.533   8.651 -0.0048 -0.3795  0.0200
  770W        W 4970   5.219   1.822  12.818 -0.0141 -0.0855 -0.2692
  771W        W 4971   1.884   9.859   9.458 -0.1519  0.2358 -0.0865
  772W        W 4972   8.657   4.441   4.040  0.1890  0.0453  0.2789
  773W        W 4973   2.533   4.536  11.390  0.1459 -0.4190  0.3788
  774W        W 4974   5.233   9.857  11.586  0.0202 -0.0330 -0.1456
  775W        W 4975   5.523   4.751   3.249 -0.0801  0.1741 -0.1554
  776W        W 4976   7.887   2.645   5.450 -0.1552 -0.1143 -0.5585
  777W        W 4977   3.216   7.681  13.355  0.2033  0.2320  0.0387
  778W        W 4978   5.135  10.023   2.784  0.1478 -0.1844  0.1381
  779W        W 4979   2.054   2.035   4.429 -0.4007 -0.0319 -0.0016
  780W        W 4980   3.210   1.199  12.178  0.2129 -0.0595  0.4076
  781W        W 4981   0.128   0.450   3.894  0.0678  0.0957  0.1659
  782W        W 4982   1.539   2.001  11.365  0.0333  0.1981  0.2392
  783W        W 4983  10.394   2.339  12.516  0.1933  0.0538  0.1397
  784W        W 4984   6.956   1.658  13.393 -0.0804  0.0150 -0.3111
  785W        W 4985   3.902   6.294  10.063 -0.0878  0.2713  0.0064
  786W        W 4986   6.598   2.228  10.461 -0.3349  0.0906 -0.0292
  787W        W 4987   4.213   1.370  12.050  0.3459 -0.2269 -0.0473
  788W        W 4988   5.147   4.828   3.671 -0.1422  0.1366  0.0274
  789W        W 4989   7.627   4.764   1.520 -0.0750  0.2324 -0.5040
  790W        W 4990   5.266   7.876   0.677  0.2329  0.0295  0.1745
  791W        W 4991   2.539   0.178   9.605  0.0849  0.0290 -0.0165
  792W        W 4992   0.339   0.953  11.326 -0.0095  0.0343 -0.0151
  793W        W 4993  10.095   7.822   3.380  0.0868 -0.0656  0.0403
  794W        W 4994   9.246   5.625  10.741 -0.2042  0.4783  0.0252
  795W        W 4995   1.645   7.270  12.709  0.1568 -0.1793 -0.2263
  796W        W 4996   3.822   9.166  13.255  0.2194 -0.2390  0.3145
  797W        W 4997   2.107   8.444  12.868 -0.0871  0.4153  0.2390
  798W        W 4998   5.279   5.845  13.081 -0.1948 -0.0210 -0.1668
  799W        W 4999  10.237   5.260   3.832  0.2480  0.0191  0.1186
  800W        W 5000   6.736   5.956   3.016  0.0737 -0.1230  0.1931
  801W        W 5001   6.801   1.308  13.128  0.0850 -0.1656  0.0254
  802W        W 5002   8.702   1.047   4.084 -0.0730 -0.2121  0.3369
  803W        W 5003   8.913   7.510   1.344  0.0847  0.3312  0.0342
  804W        W 5004   4.687   2.605   0.311  0.5543  0.1855  0.2486
  805W        W 5005   9.136   6.960   3.557  0.2972 -0.0715  0.0390
  806W        W 5006   7.767   2.623  13.409 -0.1272  0.0197  0.0599
  807W        W 5007   4.133   1.369   9.239 -0.2842 -0.2664 -0.0111
  808W        W 5008   8.992   6.655  11.041  0.0535 -0.0048 -0.2860
  809W        W 5009   8.569   1.036  13.158  0.2663 -0.2654 -0.2246
  810W        W 5010   5.077   2.833   3.422  0.1381  0.1734 -0.0308
  811W        W 5011   8.245   2.680  13.142  0.0672 -0.1090  0.1746
  812W        W 5012   1.051   8.967   8.025 -0.2608  0.3183  0.1478
  813W        W 5013   6.740   0.580   1.587 -0.0254  0.4487  0.1388
  814W        W 5014   9.512   6.717   3.827  0.0276  0.0219 -0.4002
  815W        W 5015   7.261   0.762  10.566  0.0015  0.0587 -0.0514
  816W        W 5016   5.674   0.799   2.427 -0.0499 -0.0302  0.0648
  817W        W 5017   0.479   6.971   8.738  0.1063  0.2419 -0.1585
  818W        W 5018   9.229   3.849   3.142  0.0249 -0.2965  0.3157
  819W        W 5019   1.990   4.543  12.452 -0.0565 -0.1234  0.0607
  820W        W 5020   5.419   5.100   4.165 -0.0472  0.2192 -0.0957
  821W        W 5021   2.235   9.956  11.486  0.1285 -0.3097 -0.3717
  822W        W 5022   2.139   6.014  10.654 -0.0516  0.1186 -0.4555
  823W        W 5023   5.611   5.777   1.401  0.1371  0.1738 -0.2384
  824W        W 5024   5.023   5.035  13.335 -0.0844  0.0256 -0.0581
  825W        W 5025   1.682   4.314   4.405  0.0437  0.1655  0.0537
  826W        W 5026  10.056   0.783   4.449  0.2305  0.1822 -0.1012
  827W        W 5027   6.898   8.696   2.241 -0.0077  0.3346 -0.0146
  828W        W 5028   9.826   7.562   3.082 -0.2107 -0.3260  0.0631
  829W        W 5029   4.017   2.581  13.266  0.4483 -0.0844  0.0583
  830W        W 5030   8.194   2.378   2.590  0.0582  0.1939 -0.0939
  831W        W 5031   9.600   2.323   0.574 -0.2242 -0.1694  0.2112
  832W        W 5032   5.655   2.971   0.297  0.1297 -0.1435  0.1006
  833W        W 5033   0.766   1.323   8.279  0.1130 -0.1749  0.1986
  834W        W 5034   8.905   0.937  11.464  0.0397 -0.3100  0.0626
  835W        W 5035   0.437   4.433  12.849 -0.0396 -0.3279 -0.5148
  836W        W 5036   0.581   1.585   2.472 -0.1006  0.2355  0.1474
  837W        W 5037   1.555   7.519   2.743  0.1772  0.2604  0.4961
  838W        W 5038   1.026   1.995   4.222 -0.2462 -0.3437  0.2430
  839W        W 5039   9.430   1.269  10.674 -0.1170  0.4059 -0.2550
  840W        W 5040   2.427   4.001   0.582  0.1989  0.3129  0.2114
  841W        W 5041   5.988   9.136  12.239 -0.1113  0.2055  0.0665
  842W        W 5042   8.227   3.436   4.763 -0.1297 -0.2495 -0.1938
  843W        W 5043   2.474   8.318   1.474 -0.1945 -0.3025 -0.1318
  844W        W 5044   2.544   1.901   8.969 -0.1516  0.0262 -0.0037
  845W        W 5045   9.492   7.209   3.872 -0.4279  0.2463  0.0361
  846W        W 5046   5.663   2.010  12.592 -0.1497 -0.0249 -0.2389
  847W        W 5047   4.139   7.643  12.186 -0.0787  0.1056  0.1193
  848W        W 5048   8.849   6.733  12.809  0.0140  0.1086  0.1005
  849W        W 5049   3.235   5.587  11.490 -0.0327 -0.2215  0.0346
  850W        W 5050   6.890   3.831  12.967 -0.0415 -0.1588  0.0102
  851W        W 5051  10.183   4.645  10.893  0.3506 -0.1293 -0.1129
  852W        W 5052   9.566   3.188  11.727  0.0922 -0.0652 -0.0216
  853W        W 5053   7.028   1.970   3.857 -0.1633  0.0204 -0.0245
  854W        W 5054   7.890   6.188   1.182 -0.0742 -0.0955  0.1495
  855W        W 5055   9.485   7.173   3.309  0.2538  0.1057 -0.0295
  856W        W 5056   7.377   7.508  12.383 -0.2784 -0.3374 -0.1844
  857W        W 5057   1.330   8.257   3.098 -0.2769 -0.0096 -0.1890
  858W        W 5058   0.382   3.334   9.850 -0.2205  0.0486 -0.1258
  859W        W 5059   6.253   3.270   2.039  0.2955  0.0398  0.2103
  860W        W 5060   1.405   1.966  10.204  0.1153  0.1694  0.2129
  861W        W 5061   3.781   8.636   3.026  0.2550 -0.4462 -0.0804
  862W        W 5062   4.000   8.426  10.551  0.1457 -0.0515 -0.1348
  863W        W 5063   8.251   2.648   0.007  0.2048 -0.1112  0.2810
  864W        W 5064   9.082   1.963  12.156  0.0155  0.0530  0.0490
  865W        W 5065   1.108   9.473  12.036 -0.2742 -0.1925  0.0889
  866W        W 5066   6.256   1.316  12.649 -0.2613 -0.3329  0.3093
  867W        W 5067   6.587   4.989   1.228  0.0184  0.0522 -0.2465
  868W        W 5068   7.791   4.053  13.081 -0.2040 -0.0955 -0.0915
  869W        W 5069   4.598   8.116   3.354 -0.1003 -0.0159 -0.0720
  870W        W 5070   2.205   8.349   4.083 -0.1851  0.3404 -0.0847
  871W        W 5071   2.714   5.062  10.520  0.2360 -0.0877  0.1391
  872W        W 5072   1.876   7.189   0.927 -0.0873 -0.0208  0.2822
  873W        W 5073   8.688   6.513  13.219  0.3327  0.2026  0.1321
  874W        W 5074   2.619   2.699  10.135 -0.0510 -0.2159  0.0363
  875W        W 5075   5.837   6.868  11.616 -0.2086  0.4222  0.1984
  876W        W 5076   8.152   0.899   2.087 -0.0344  0.0800 -0.2132
  877W        W 5077   6.564   3.911  12.600 -0.2081  0.2013  0.2452
  878W        W 5078   4.131   8.823  10.874  0.0161  0.1146  0.0577
  879W        W 5079   3.113   4.601  10.573  0.0949 -0.3426  0.0228
  880W        W 5080   0.510   1.265   9.457  0.1001 -0.2672 -0.1027
  881W        W 5081   3.080   9.705   3.299 -0.3352 -0.3637  0.0966
  882W        W 5082   4.854   9.675  11.876 -0.2543  0.3553 -0.3231
  883W        W 5083   5.110   3.904  10.232 -0.1770 -0.0709 -0.0175
  884W        W 5084   0.910   1.602   3.792 -0.4031  0.3147 -0.0986
  885W        W 5085   9.105   7.011  11.577 -0.0871  0.0563 -0.0910
  886W        W 5086   5.630   9.250  12.916  0.0835  0.0860 -0.3726
  887W        W 5087   0.112   3.274  11.773 -0.2477 -0.4222  0.1970
  888W        W 5088   5.766   6.158   9.482 -0.2888  0.1552 -0.1308
  889W        W 5089   5.699   7.196   1.597 -0.0012  0.2444  0.1864
  890W        W 5090   4.146   2.473  10.132  0.2315  0.3977 -0.1932
  891W        W 5091   6.558   0.940  12.834  0.1917  0.0744  0.0982
  892W        W 5092   6.855   7.529   3.445 -0.1278  0.0637  0.4111
  893W        W 5093   7.081   3.734  11.863 -0.0219 -0.2684 -0.3434
  894W        W 5094   4.986   1.439   1.422 -0.1922 -0.1129 -0.2016
  895W        W 5095   6.569   2.826   0.558  0.1964  0.0689  0.1282
  896W        W 5096   2.848   3.002   3.081 -0.2122  0.1988  0.5701
  897W        W 5097   3.662   4.062  11.465  0.1534  0.0605 -0.0011
  898W        W 5098   4.664   3.662  12.505  0.3306 -0.0386  0.0341
  899W        W 5099   6.579   1.128   2.306  0.3198 -0.1840 -0.2435
  900W        W 5100   0.889   2.481   4.413 -0.0288 -0.1157 -0.0941
  901W        W 5101   2.047   6.405  11.294  0.2075 -0.1141  0.0799
  902W        W 5102   6.741   7.319   9.815 -0.0421  0.2035  0.0544
  903W        W 5103   9.160   0.901   2.978 -0.0113  0.2862 -0.0448
  904W        W 5104   5.538   1.205   1.254  0.0688 -0.3468  0.0442
  905W        W 5105   8.929   3.411  10.961  0.0857 -0.2214 -0.2140
  906W        W 5106   2.673   0.650   0.525  0.1341 -0.3491 -0.1855
  907W        W 5107   4.753   5.209   3.540 -0.1577 -0.1639  0.2313
  908W        W 5108   8.622  10.271  10.423 -0.0359  0.2064 -0.2208
  909W        W 5109   0.021   1.876  12.151 -0.0759  0.1335 -0.0296
  910W        W 5110   4.896   0.973  11.755  0.0793 -0.1216  0.1376
  911W        W 5111   2.589   2.873   2.661 -0.1354 -0.0011 -0.0483
  912W        W 5112   1.498   1.635   1.430 -0.2324  0.1012  0.2128
  913W        W 5113   2.747   4.508   5.549  0.1640 -0.1495 -0.1086
  914W        W 5114   5.675   7.746  10.684 -0.0956 -0.1097 -0.0165
  915W        W 5115   0.729   3.688  13.205 -0.0713  0.1435 -0.0648
  916W        W 5116   8.165   3.119   3.078  0.1408 -0.1735 -0.1266
  917W        W 5117   8.771   3.048   9.507 -0.0638  0.0382 -0.1329
  918W        W 5118   4.338   7.039  13.083 -0.1354  0.2140  0.0688
  919W        W 5119   5.882   6.326  12.868 -0.2418  0.0074  0.2667
  920W        W 5120   4.830   9.079  11.373  0.2494  0.5325  0.3995
  921W        W 5121   7.498   6.376  11.728  0.0236 -0.1183  0.2966
  922W        W 5122   9.970   0.440   2.013  0.1385  0.3789  0.1921
  923W        W 5123   8.393   7.541   1.501  0.1673  0.1201  0.3307
  924W        W 5124   8.065   5.962   1.778  0.0241  0.0229 -0.2571
  925W        W 5125  10.111   9.532   1.448 -0.1403 -0.3661  0.0903
  926W        W 5126   8.730   2.334   2.904  0.0911  0.0265  0.2999
  927W        W 5127   9.452   9.584  13.264 -0.0655 -0.0896 -0.1129
  928W        W 5128   4.507   0.180   2.698  0.0398  0.1531 -0.1437
  929W        W 5129   5.163   0.105   2.030  0.0234 -0.2586 -0.3084
  930W        W 5130   8.792  10.133   9.645 -0.0502  0.0489 -0.3332
  931W        W 5131   3.507   3.638  12.960 -0.1284  0.0355 -0.0659
  932W        W 5132   2.639   6.890  10.310  0.0913 -0.1296 -0.0721
  933W        W 5133   0.812   7.947   1.020  0.0938 -0.1846  0.1010
  934W        W 5134   1.360   9.750  13.505  0.2198 -0.0453 -0.0220
  935W        W 5135   0.534   9.149   0.915  0.2220 -0.1754  0.0729
  936W        W 5136   2.532   2.138   2.388 -0.2082 -0.0594 -0.2875
  937W        W 5137   6.625   5.037   2.078  0.2780 -0.2489  0.1160
  938W        W 5138   9.661   0.181  13.221 -0.1137 -0.1269  0.0780
  939W        W 5139   4.103   6.962  12.608  0.0811 -0.1475  0.2172
  940W        W 5140   4.028   4.773   0.724 -0.1853  0.0287  0.2874
  941W        W 5141   9.619   6.535  11.478 -0.0755 -0.0978 -0.0173
  942W        W 5142   6.175   5.447   3.753  0.1121 -0.0705 -0.0984
  943W        W 5143   9.279   9.484   0.916  0.1021 -0.1879 -0.4970
  944W        W 5144   6.892   3.275  12.062 -0.2349 -0.4115 -0.0830
  945W        W 5145   4.610   7.023  12.645  0.0810 -0.1717 -0.1655
  946W        W 5146   1.902   1.353  10.313 -0.2447  0.1403  0.1237
  947W        W 5147   9.622   2.885  12.581 -0.1906  0.0427 -0.2462
  948W        W 5148   4.334   3.382   4.882  0.1892  0.2267  0.2116
  949W        W 5149   9.729   3.505  12.341 -0.1791 -0.4126 -0.2071
  950W        W 5150   5.464   3.611  11.355  0.1403 -0.0893 -0.2446
  951W        W 5151   3.575   6.091   1.531 -0.0324  0.1806 -0.2840
  952W        W 5152   0.310   5.283   9.772  0.1230  0.0892  0.2839
  953W        W 5153   3.336   4.105  13.023 -0.0758 -0.1390  0.1051
  954W        W 5154   7.637   5.048  12.476  0.1959  0.0722  0.1635
  955W        W 5155   4.028   1.912  10.778 -0.0804 -0.0837  0.3726
  956W        W 5156   0.581   4.668  10.737 -0.0931 -0.0847  0.1812
  957W        W 5157   1.440   9.836   2.079 -0.0092  0.2686 -0.3719
  958W        W 5158   8.737   0.939   1.182 -0.1801  0.0772 -0.1387
  959W        W 5159   8.073   0.013  13.257 -0.2495  0.3099  0.1968
  960W        W 5160   5.038   6.340   2.106  0.0939 -0.1474 -0.4357
  961W        W 5161   9.241   2.007  10.955 -0.0814 -0.0046  0.3729
  962W        W 5162   8.608   3.010   2.211 -0.0291  0.3989 -0.0824
  963W        W 5163   4.367   4.062  10.373 -0.2369 -0.1586 -0.2399
  964W        W 5164  10.239   6.656  12.840  0.2879  0.0319 -0.2299
  965W        W 5165   4.076   5.602   1.661  0.0096  0.1187  0.3004
  966W        W 5166   0.043   7.938   4.408 -0.1815  0.0974 -0.1985
  967W        W 5167   3.092   2.086  11.555  0.0244 -0.2355  0.2650
  968W        W 5168   0.350   3.406   1.228 -0.2500  0.1418 -0.1952
  969W        W 5169   1.666   0.737  12.456 -0.1914 -0.0574 -0.1832
  970W        W 5170   9.162   3.651   1.739 -0.0436 -0.3741 -0.2273
  971W        W 5171   2.073   4.441   4.848  0.0773 -0.0485  0.0668
  972W        W 5172   0.896   9.447   1.114 -0.1283 -0.1518 -0.0739
  973W        W 5173   1.019   4.409   4.823  0.0624 -0.0296 -0.0454
  974W        W 5174   2.273   3.718   3.532  0.4226  0.1958  0.0425
  975W        W 5175   4.200   6.273  12.504  0.3196  0.2129  0.0256
  976W        W 5176   8.011   3.522   0.479  0.1282 -0.1321 -0.0209
  977W        W 5177   3.031   9.530  11.156  0.0351 -0.5453  0.1714
  978W        W 5178   7.940  10.319   1.013  0.4792 -0.1828  0.3518
  979W        W 5179  10.076   2.639   1.564 -0.0334 -0.0168 -0.0546
  980W        W 5180  10.012   3.065   1.027 -0.0210 -0.0205 -0.2620
  981W        W 5181   1.325   7.177   0.972 -0.0541  0.4248  0.0592
  982W        W 5182   1.315   9.878   3.688  0.2409  0.2183 -0.1000
  983W        W 5183   4.505   4.414  11.101 -0.1394 -0.0265  0.0346
  984W        W 5184   4.073   7.199  11.291 -0.3986  0.1282  0.0266
  985W        W 5185   8.762   2.787   9.919  0.0329  0.0284 -0.3166
  986W        W 5186   8.574   6.428   2.226  0.0560  0.1468 -0.1100
  987W        W 5187   7.843   3.873   1.311  0.1567 -0.1534 -0.2927
  988W        W 5188   1.286   2.513   0.474  0.1002  0.1066 -0.0189
  989W        W 5189   2.942   7.686  12.923  0.1277  0.0393 -0.0703
  990W        W 5190   3.159   3.839   9.414  0.1435 -0.1672 -0.1541
  991W        W 5191   5.286   6.514  13.093 -0.1726 -0.0793  0.0468
  992W        W 5192   8.315   1.769  12.579 -0.0768  0.2227  0.1545
  993W        W 5193   0.486   1.420   3.584 -0.0319  0.1552 -0.0650
  994W        W 5194   1.790   9.598   3.537 -0.0485  0.0368  0.0682
  995W        W 5195   7.704   8.047  10.422 -0.1140 -0.0114 -0.1158
  996W        W 5196   1.517   4.705  12.808  0.5024 -0.2428 -0.2368
  997W        W 5197   6.263   3.480   1.533  0.0742 -0.0499  0.3410
  998W        W 5198   2.373  10.061  13.391 -0.0357  0.2968  0.2473
  999W        W 5199   5.109   7.860   2.722 -0.1070  0.1986 -0.1787
 1000W        W 5200   8.920   9.543   2.186 -0.0668 -0.0218 -0.6261
 1001W        W 5201   4.645   2.569  11.791 -0.2088  0.0386  0.1036
 1002W        W 5202   1.436   3.586  11.346  0.3586  0.2455  0.0874
 1003W        W 5203   0.676   4.766   1.635 -0.3233  0.0507 -0.1093
 1004W        W 5204   0.865   1.983  11.701  0.3948  0.1235 -0.0885
 1005W        W 5205   4.673   7.725   2.969 -0.1584  0.2195 -0.0410
 1006W        W 5206   3.516   5.857   3.182  0.1835 -0.2080  0.0367
 1007W        W 5207   7.760   7.905  12.757  0.3138  0.3191  0.0335
 1008W        W 5208   9.237   1.093   3.952 -0.0386  0.1382  0.1271
 1009W        W 5209   7.516  10.025   2.230 -0.0022 -0.0322  0.0689
 1010W        W 5210   4.290   7.454   0.558 -0.0382  0.1738 -0.1926
 1011W        W 5211   0.878   4.012   3.094 -0.3901  0.1164 -0.2562
 1012W        W 5212   1.658   8.519   3.959  0.0066  0.6707  0.2861
 1013W        W 5213   9.943   8.098  12.965 -0.1251 -0.0842 -0.0914
 1014W        W 5214   8.344   7.058   9.138 -0.2054 -0.1341 -0.3308
 1015W        W 5215   2.396   7.746   0.585 -0.0045  0.0299 -0.2559
 1016W        W 5216   0.833   6.386   4.252 -0.1502 -0.0122  0.1311
 1017W        W 5217   6.082   5.086   2.210 -0.4532 -0.2379 -0.0556
 1018W        W 5218   8.597   4.271   2.659 -0.3372  0.3343 -0.1946
 1019W        W 5219   6.397   1.323   3.410 -0.0622  0.2572 -0.4430
 1020W        W 5220   0.383   4.037   2.949 -0.1411 -0.1977  0.1206
 1021W        W 5221   6.486   7.331   1.951  0.3154 -0.1880  0.3557
 1022W        W 5222   5.106   7.386  11.493 -0.3129 -0.0169  0.2569
 1023W        W 5223   7.779   9.929   9.983 -0.0186  0.1882  0.0984
 1024W        W 5224   1.154   3.010   4.137  0.0690 -0.1681 -0.0045
 1025W        W 5225   6.560   4.693   0.808  0.1847  0.0209  0.1567
 1026W        W 5226  10.172   8.386  11.636  0.4343 -0.1405  0.0562
 1027W        W 5227   3.373   6.529   0.081 -0.0065 -0.0730 -0.2404
 1028W        W 5228   4.606   1.776   2.549  0.1431 -0.2819 -0.0625
 1029W        W 5229   6.406   8.224   1.916 -0.1937 -0.0963 -0.2492
 1030W        W 5230   8.866  10.345  12.899 -0.2910 -0.2858  0.1980
 1031W        W 5231   3.752   8.401  13.319 -0.0091 -0.1723 -0.3059
 1032W        W 5232   7.650   4.629   9.227 -0.0284 -0.2434 -0.1805
 1033W        W 5233   1.316   2.293   4.638 -0.1575 -0.3105 -0.1244
 1034W        W 5234   0.637   0.070   8.449 -0.1510 -0.0204  0.0978
 1035W        W 5235   1.410   8.716   0.832 -0.1032  0.1435  0.2952
 1036W        W 5236   3.182   0.023  12.473  0.1645 -0.2565  0.0013
 1037W        W 5237   9.778   7.199  10.295  0.0540 -0.0425  0.1229
 1038W        W 5238   2.398   6.589  11.692  0.2408  0.4831 -0.2656
 1039W        W 5239   3.166   7.973   0.360  0.1845 -0.2759 -0.2851
 1040W        W 5240   0.116   9.372   2.236 -0.3382 -0.3453 -0.1670
 1041W        W 5241   1.792   1.244  12.412 -0.1434 -0.0155 -0.0546
 1042W        W 5242   4.408   9.678   9.989 -0.0909 -0.1197 -0.1525
 1043W        W 5243   8.907   5.900   2.119  0.0724 -0.0866  0.0014
 1044W        W 5244   2.504   8.483   0.098 -0.1408  0.2598 -0.1053
 1045W        W 5245   1.074   2.053  11.209  0.1093  0.1728 -0.0749
 1046W        W 5246   0.621   9.486   1.535 -0.1707 -0.0133  0.0703
 1047W        W 5247   7.364   2.473  12.917 -0.3222  0.2427  0.1327
 1048W        W 5248   9.224   8.026   3.934 -0.0635 -0.1829 -0.1646
 1049W        W 5249   1.661   3.646   2.365  0.0470 -0.1754  0.1323
 1050W        W 5250   0.742   8.746  12.076  0.1243 -0.1212 -0.0518
 1051W        W 5251   6.649   1.411  10.165  0.1335 -0.5271 -0.1421
 1052W        W 5252   8.073   0.420   2.157  0.1258 -0.2327 -0.1369
 1053W        W 5253   4.948   4.073   9.496  0.0955  0.2250 -0.1936
 1054W        W 5254   5.066   4.874   9.983  0.0725  0.0774  0.0398
 1055W        W 5255   6.869   5.192   1.608  0.1303 -0.3249 -0.0525
 1056W        W 5256  10.242   5.283   1.539  0.2892 -0.0097  0.2551
 1057W        W 5257   7.001   3.159   1.548 -0.1674 -0.0668  0.0819
 1058W        W 5258   0.169   6.835   9.825 -0.1288  0.2576 -0.1443
 1059W        W 5259   5.887   3.851   0.258 -0.2133 -0.0932 -0.0677
 1060W        W 5260   5.527   4.165   2.302 -0.2515  0.1666  0.2229
 1061W        W 5261   5.004   4.083  13.644 -0.3208  0.0668 -0.2088
 1062W        W 5262   8.145   0.494   2.963 -0.1818 -0.0055  0.0055
 1063W        W 5263   5.099   7.163  12.549 -0.4369 -0.0437 -0.2688
 1064W        W 5264   4.455   6.836  11.146  0.0004 -0.0360  0.0742
 1065W        W 5265   5.221   4.610   4.150  0.0620 -0.0592  0.5992
 1066W        W 5266   3.810   7.170  10.914  0.5585 -0.0527  0.1993
 1067W        W 5267   7.357   6.927   2.868 -0.0158  0.0970 -0.0936
 1068W        W 5268   0.584   9.075  10.752  0.1727  0.0016  0.0426
 1069W        W 5269   2.419   9.009   1.204 -0.1401  0.1817  0.5232
 1070W        W 5270   5.502   2.388   3.508  0.1879 -0.0191  0.2301
 1071W        W 5271  10.045   8.385  13.461 -0.1177  0.1651 -0.0234
 1072W        W 5272   3.385   7.432   3.371 -0.0225 -0.0141  0.0371
 1073W        W 5273   9.735   5.341  10.469  0.0588  0.0162 -0.1943
 1074W        W 5274   9.546   2.697  11.865 -0.1378 -0.0017  0.0813
 1075W        W 5275   2.562   7.827  13.213 -0.3061  0.1580  0.0950
 1076W        W 5276   5.957   4.940  12.565  0.1020 -0.0123  0.1890
 1077W        W 5277   6.066   6.663  12.456 -0.0397 -0.2325  0.0633
 1078W        W 5278   9.158  10.059  12.022  0.0997 -0.3944  0.1952
 1079W        W 5279   0.209   0.914   1.304  0.1411 -0.0733  0.5417
 1080W        W 5280  10.374   4.797   9.118 -0.2191 -0.1849  0.2252
 1081W        W 5281   2.401   1.548   0.367 -0.2549 -0.1316  0.1588
 1082W        W 5282   9.670   2.982   9.268  0.2365 -0.3898  0.0956
 1083W        W 5283   1.100   9.483   2.463  0.2015  0.2768  0.3432
 1084W        W 5284   9.097   1.131   0.227  0.1113  0.0420  0.0939
 1085W        W 5285   5.285   4.855  11.762  0.0837 -0.2601  0.4357
 1086W        W 5286   2.881   5.579  12.689 -0.1312 -0.1116 -0.0154
 1087W        W 5287   4.736   5.402  10.644 -0.2500  0.2036  0.2133
 1088W        W 5288   2.370   8.546  11.052  0.1647 -0.1288 -0.1142
 1089W        W 5289   2.404   3.501  12.183 -0.3220  0.0648 -0.0876
 1090W        W 5290   1.757   9.019   2.131 -0.0645  0.3159 -0.4918
 1091W        W 5291   9.027   2.758   2.362  0.2848 -0.3826 -0.2166
 1092W        W 5292   9.617   8.738  10.382 -0.1080  0.0613 -0.1043
 1093W        W 5293   3.558  10.179   9.956  0.3763  0.3665 -0.0667
 1094W        W 5294   5.644   5.966  11.394 -0.2546 -0.1349 -0.0881
 1095W        W 5295   5.373   0.372  11.831  0.0523 -0.0405  0.1763
 1096W        W 5296   3.711   2.036  12.216  0.4763 -0.1917  0.0451
 1097W        W 5297   5.108   3.906  12.669  0.2802  0.2107  0.0882
 1098W        W 5298   1.937   5.490  10.836  0.0039 -0.1961  0.2747
 1099W        W 5299   2.673   3.675   0.318  0.2285 -0.1411  0.2666
 1100W        W 5300   2.663   5.002   4.354 -0.0319  0.1393  0.4059
 1101W        W 5301   0.206   3.157   3.370 -0.1064  0.0392 -0.0441
 1102W        W 5302   1.402   9.888   9.360 -0.2107  0.2842 -0.2139
 1103W        W 5303   6.520   8.636   0.191 -0.0847 -0.0502  0.3799
 1104W        W 5304   9.019   8.687   2.881  0.2755  0.3031  0.4269
 1105W        W 5305   1.842   2.670  12.629 -0.0579 -0.2009  0.0790
 1106W        W 5306  10.084  10.057  10.236 -0.1891 -0.0122  0.2195
 1107W        W 5307   5.974   5.538  10.571  0.1175  0.2086  0.1140
 1108W        W 5308   1.961   0.010  10.518 -0.2114  0.0967  0.2048
 1109W        W 5309   9.338   4.877  11.331  0.0058 -0.0369 -0.1422
 1110W        W 5310   7.780   8.840  11.044  0.0991 -0.3105 -0.1638
 1111W        W 5311   3.817   7.907  13.337 -0.2319 -0.0072 -0.2936
 1112W        W 5312   7.798   0.151   3.214 -0.2286  0.0947  0.2931
 1113W        W 5313   3.697   2.333   0.444 -0.0808  0.4406  0.2434
 1114W        W 5314   7.543   4.481   3.439 -0.3462  0.0712  0.1012
 1115W        W 5315  10.293   1.249   0.999 -0.2180 -0.1639 -0.1836
 1116W        W 5316   9.644   0.811   2.944  0.1839  0.2539 -0.2382
 1117W        W 5317   0.628   2.432   9.886  0.2154  0.2577  0.0898
 1118W        W 5318   5.324   0.740   0.526 -0.2054 -0.2062 -0.0777
 1119W        W 5319   5.505   5.567   2.524  0.1101  0.0526  0.0648
 1120W        W 5320   3.887   3.624   4.933  0.1147 -0.0034  0.0136
 1121W        W 5321   0.645   0.330   0.251  0.0014  0.5111  0.2272
 1122W        W 5322   2.998   5.469  12.207 -0.0576  0.0802  0.1301
 1123W        W 5323   8.786   4.066   0.595  0.2270  0.0671  0.0905
 1124W        W 5324   8.303   8.629   0.630  0.3924 -0.0347  0.1747
 1125W        W 5325   5.745   2.751   1.060  0.0112  0.0029 -0.1389
 1126W        W 5326   1.728   9.140  11.743  0.1309 -0.2546 -0.0020
 1127W        W 5327   7.323   2.825   3.123 -0.4660 -0.1334 -0.1228
 1128W        W 5328   4.652   1.859   0.924 -0.0263  0.0162 -0.1055
 1129W        W 5329   7.833   3.089  12.523  0.0989 -0.0918  0.4334
 1130W        W 5330   2.868   2.575   1.120  0.0991  0.2139  0.0953
 1131W        W 5331   0.125   1.234  10.538  0.1887  0.0683  0.1479
 1132W        W 5332   3.144   3.797  11.536 -0.1243  0.1308  0.1258
 1133W        W 5333   2.993   9.592  12.331 -0.0473 -0.0638 -0.0892
 1134W        W 5334   0.309   6.563  11.493 -0.2088 -0.0192 -0.4436
 1135W        W 5335   4.449   9.978   2.229  0.1925 -0.1675  0.1407
 1136W        W 5336   2.883   6.581  12.461 -0.0405 -0.0591  0.2705
 1137W        W 5337   0.456   2.317  12.594  0.0380  0.0085 -0.1893
 1138W        W 5338   6.404   3.605  10.404  0.0310 -0.0302 -0.2692
 1139W        W 5339   9.344   3.769  10.966 -0.0709 -0.1282 -0.0387
 1140W        W 5340   4.588   9.430   3.395 -0.1156 -0.1902 -0.0439
 1141W        W 5341   4.897   2.304   9.194  0.0709  0.2042  0.0700
 1142W        W 5342   5.623   2.943  11.121  0.0596  0.0312 -0.0324
 1143W        W 5343   2.829   3.724  12.058 -0.0710 -0.3450  0.1261
 1144W        W 5344   8.320   3.520   2.234  0.0346 -0.0703  0.0095
 1145W        W 5345   6.845   0.431   2.259 -0.0935  0.1295 -0.0032
 1146W        W 5346   7.590   8.477  12.791  0.2004  0.2175  0.1558
 1147W        W 5347   8.244   2.751  12.659  0.0187  0.2077  0.1627
 1148W        W 5348   5.689   2.073   4.798  0.0878  0.2165  0.0414
 1149W        W 5349   8.682   9.528  13.084 -0.2352 -0.4448 -0.0449
 1150W        W 5350   6.566   6.140   0.687  0.1114 -0.0310 -0.3012
 1151W        W 5351   4.470   0.319   3.788  0.1723  0.0375 -0.3616
 1152W        W 5352   1.651   0.840   2.073 -0.3330 -0.3019 -0.2952
 1153W        W 5353   2.632  10.218   2.694  0.3797 -0.1054 -0.1896
 1154W        W 5354   1.182   8.875   1.781  0.0453  0.0882 -0.2806
 1155W        W 5355   3.334   2.453   1.962  0.2106  0.3611 -0.2444
 1156W        W 5356   1.826   1.551  13.444 -0.2138 -0.0402 -0.2107
 1157W        W 5357   9.485   7.256   2.791  0.3171 -0.2752 -0.1810
 1158W        W 5358   3.867   8.159   2.888 -0.1676 -0.0001 -0.2084
 1159W        W 5359   2.796   1.861   0.608 -0.0226 -0.1274 -0.0229
 1160W        W 5360   6.730   6.012   4.646  0.2544  0.0819  0.1408
 1161W        W 5361   9.297   0.575   1.555  0.3737  0.1647  0.2364
 1162W        W 5362   6.888   1.175   3.608 -0.1570  0.1564  0.1162
 1163W        W 5363   5.220   9.027  13.590 -0.1550 -0.0775 -0.1632
 1164W        W 5364   6.181   5.336   1.078 -0.0692  0.1116  0.4124
 1165W        W 5365   0.447   3.807   4.038  0.0633  0.2191 -0.0136
 1166W        W 5366   6.552   1.797  11.010  0.2402 -0.0422 -0.3227
 1167W        W 5367   9.413   5.824   0.797  0.0913 -0.0449 -0.0102
 1168W        W 5368   0.007   3.072   4.250  0.0717 -0.3301 -0.2013
 1169W        W 5369   4.029   7.190   1.477 -0.1879  0.1474 -0.2193
 1170W        W 5370   1.871   4.212  12.085 -0.4410 -0.3441 -0.1216
 1171W        W 5371   2.450   0.395   4.954 -0.1134  0.0967 -0.0072
 1172W        W 5372   1.250   2.529   9.220  0.0220  0.0916  0.0113
 1173W        W 5373   0.593   7.946  11.522 -0.2200 -0.1555  0.2511
 1174W        W 5374   8.998   5.504   9.731 -0.0028  0.1373 -0.2584
 1175W        W 5375   0.415   8.026  12.734 -0.0848 -0.1137  0.1676
 1176W        W 5376   9.438   3.621  11.445  0.2859 -0.2144 -0.0020
 1177W        W 5377   3.581   8.412  10.225  0.3100 -0.0613  0.0184
 1178W        W 5378   6.021   6.982   1.855 -0.2978 -0.1692  0.1506
 1179W        W 5379   5.447   9.969   2.352 -0.0766  0.1565  0.2868
 1180W        W 5380   0.483   3.132  11.467 -0.2560  0.0966 -0.0638
 1181W        W 5381   5.428   2.313   0.990 -0.1447 -0.1778 -0.0870
 1182W        W 5382   6.670   8.403  11.401  0.1253 -0.3727  0.3740
 1183W        W 5383   5.564   8.290  12.038 -0.1832  0.1695 -0.0976
 1184W        W 5384   8.443   2.722   8.721 -0.1489  0.1240  0.2364
 1185W        W 5385   6.346   5.081   4.819 -0.2308  0.1618 -0.1909
 1186W        W 5386   1.107   9.292  11.509  0.2224 -0.0904 -0.3881
 1187W        W 5387   8.777   2.095  11.706 -0.2056 -0.2482 -0.4099
 1188W        W 5388   7.531   1.081   2.320  0.2001  0.3126  0.0352
 1189W        W 5389   6.860   7.094   2.179  0.0130 -0.1446 -0.2867
 1190W        W 5390   2.314   7.951   4.436  0.2271 -0.3104  0.0591
 1191W        W 5391   9.426   4.455  12.288 -0.2304  0.0065  0.0833
 1192W        W 5392   6.722   1.412  10.661  0.0708 -0.0985 -0.2538
 1193W        W 5393   2.807   2.370   4.091 -0.1070 -0.1564 -0.1786
 1194W        W 5394   5.143   0.953   1.541  0.0294 -0.3600  0.0130
 1195W        W 5395   7.411   1.406   0.099 -0.0177 -0.0454 -0.0316
 1196W        W 5396   6.675   3.290  10.792 -0.3197  0.0545 -0.1464
 1197W        W 5397   8.824   9.453   0.417  0.1320 -0.0330  0.0246
 1198W        W 5398   3.893   0.950   3.247  0.1843  0.1946 -0.1458
 1199W        W 5399   1.521   1.866   8.229 -0.0628 -0.0009 -0.1735
 1200W        W 5400   0.818   9.178   3.036 -0.0716  0.0794 -0.0464
 1201W        W 5401   1.423   7.891  12.732  0.2529 -0.1517  0.2123
 1202W        W 5402   1.464   6.965  12.321  0.0031 -0.1023  0.0760
 1203W        W 5403   9.486   7.696  12.105 -0.2677 -0.1021 -0.2112
 1204W        W 5404   4.515   5.956  11.256 -0.1563 -0.5075 -0.2203
 1205W        W 5405   3.373   6.318   3.337  0.4639  0.0079  0.2587
 1206W        W 5406   7.904   6.874   0.544  0.0872 -0.2519 -0.0742
 1207W        W 5407   0.840   8.814  12.587  0.2405  0.0325 -0.3176
 1208W        W 5408   3.835  10.081  11.230  0.0434  0.1065 -0.2847
 1209W        W 5409   3.281   9.136  10.766  0.0965 -0.0014  0.0786
 1210W        W 5410   5.788   9.767  12.928 -0.2721 -0.2228  0.2020
 1211W        W 5411   4.663   0.299  11.176 -0.2462 -0.1238  0.2277
 1212W        W 5412   6.568   3.450  12.398  0.0162  0.0161 -0.0580
 1213W        W 5413   5.657   0.981   3.790 -0.0597  0.1094 -0.1388
 1214W        W 5414  10.032   5.499   2.557 -0.0357 -0.1508  0.2524
 1215W        W 5415   3.996   5.769   3.322  0.1646 -0.0703 -0.2988
 1216W        W 5416   5.638   6.543   0.929  0.0449 -0.1800  0.2882
 1217W        W 5417   2.062   6.940   0.404 -0.0210 -0.1186 -0.0411
 1218W        W 5418   6.234   1.254   4.993 -0.2466 -0.0764 -0.1803
 1219W        W 5419   7.645   0.330  12.124  0.0745  0.4493  0.0815
 1220W        W 5420   5.377   0.859  11.737  0.1493 -0.1877 -0.0153
 1221W        W 5421   9.104   8.449  12.020  0.1704 -0.0518  0.0954
 1222W        W 5422   7.049   2.352  10.678 -0.0235 -0.0515  0.3044
 1223W        W 5423   9.597   8.180   9.106  0.4461  0.1401 -0.2707
 1224W        W 5424   1.874   2.250  13.656 -0.0988  0.0051  0.3821
 1225W        W 5425   0.525   7.123  11.082 -0.3113 -0.0951 -0.0355
 1226W        W 5426   6.136   8.012  10.646  0.2818 -0.2072 -0.0913
 1227W        W 5427   1.738   0.538  11.934 -0.2574 -0.2014 -0.2913
 1228W        W 5428   1.304   7.974   2.679 -0.0201  0.1012 -0.0865
 1229W        W 5429  10.333   9.674   3.399  0.1366 -0.0934  0.0148
 1230W        W 5430   4.527   2.400  13.191 -0.1177  0.0964 -0.2563
 1231W        W 5431   8.661   3.717  12.113 -0.1245 -0.0598  0.0449
 1232W        W 5432   5.260   2.015   3.700  0.0213  0.0937 -0.1547
 1233W        W 5433   9.185   5.857   3.444  0.1056 -0.0707  0.0295
 1234W        W 5434   6.834   3.760  11.217  0.1348  0.0416 -0.1674
 1235W        W 5435   1.886   8.178   3.165  0.0263  0.2527  0.0682
 1236W        W 5436   9.382   1.593   0.067  0.0496  0.0852  0.2927
 1237W        W 5437   6.079   7.353   2.233 -0.2722 -0.0271 -0.3423
 1238W        W 5438   6.016   0.151   1.267  0.0816  0.3844  0.1692
 1239W        W 5439   6.134   4.374   9.541  0.2173  0.0003 -0.2322
 1240W        W 5440  10.043   8.458   9.059 -0.0769  0.3212 -0.0893
 1241W        W 5441   0.240   8.803   2.918 -0.0441  0.0677  0.0991
 1242W        W 5442   2.099   7.754   3.382 -0.1063 -0.5146 -0.1675
 1243W        W 5443   2.901   6.606   0.281  0.0768  0.1382 -0.1286
 1244W        W 5444   3.177   6.857  11.080 -0.1156 -0.1907 -0.0284
 1245W        W 5445   7.194   4.174   2.437 -0.0023  0.1427 -0.0802
 1246W        W 5446   3.478   9.325   1.436  0.1234 -0.0662  0.0274
 1247W        W 5447   5.770   6.823   2.960  0.1148  0.1295  0.1442
 1248W        W 5448   1.687   5.364   2.319 -0.3312  0.0962  0.1931
 1249W        W 5449   2.364   9.582   2.819 -0.1498 -0.2601  0.3066
 1250W        W 5450   3.643   0.887   8.467 -0.1301  0.0885 -0.0553
 1251W        W 5451   1.552   3.441   9.968 -0.2936  0.3055  0.2019
 1252W        W 5452   3.914   5.675   0.771  0.1877 -0.1723  0.0459
 1253W        W 5453   1.742   7.687   9.711  0.0406 -0.0900 -0.2573
 1254W        W 5454   4.902   4.067   3.012  0.3155 -0.0265 -0.2162
 1255W        W 5455   8.359   6.903   0.318 -0.0360 -0.3036  0.1278
 1256W        W 5456   1.184   8.056  11.588  0.1554 -0.2916  0.2869
 1257W        W 5457   3.027   2.573   9.387 -0.1778  0.2191  0.1573
 1258W        W 5458   4.650   5.162   1.453 -0.0523  0.0267  0.2596
 1259W        W 5459   4.746   1.596  12.847  0.3922 -0.1943  0.4901
 1260W        W 5460   8.295   6.864   0.875  0.1224 -0.0449  0.3449
 1261W        W 5461   3.641   0.715   2.852 -0.1865 -0.2161  0.1347
 1262W        W 5462   2.172   6.515   5.429 -0.0299 -0.1477 -0.0911
 1263W        W 5463   3.429   5.606   4.304 -0.2048  0.0137  0.1166
 1264W        W 5464   3.385   9.920  12.241  0.2316  0.0288  0.0314
 1265W        W 5465   6.697  10.050   0.895  0.2401  0.1374 -0.0604
 1266W        W 5466   7.977   0.634  10.181  0.1936  0.1262  0.2221
 1267W        W 5467   9.035   0.369   2.666  0.0656 -0.1014 -0.0853
 1268W        W 5468   2.815   9.643   7.820 -0.0469 -0.0606  0.0393
 1269W        W 5469   6.560   5.343  13.578 -0.4208  0.0501 -0.4537
 1270W        W 5470   5.194   1.166   3.277 -0.1212  0.0959 -0.0158
 1271W        W 5471   1.478   3.613  10.655 -0.3584 -0.1145  0.2042
 1272W        W 5472   4.704   1.360  10.263  0.0474  0.1506 -0.1180
 1273W        W 5473   0.921   4.836   9.379  0.0409  0.0673  0.2705
 1274W        W 5474   6.367   6.721   9.508  0.2113 -0.3117  0.0230
 1275W        W 5475   0.819   8.799   2.179 -0.1484  0.0756 -0.1507
 1276W        W 5476   8.041   3.846  11.344 -0.0212 -0.0757 -0.1818
 1277W        W 5477   6.414   5.891   1.772 -0.0033 -0.0470  0.2235
 1278W        W 5478   7.579   0.412  13.597  0.2585  0.0937  0.0092
 1279W        W 5479   9.846   2.654  13.167  0.2399  0.2724 -0.0962
 1280W        W 5480   1.429   2.871   8.358 -0.2525 -0.0211  0.0527
 1281W        W 5481   6.110   6.719   4.128 -0.1894 -0.0289 -0.3441
 1282W        W 5482   2.423   9.670   9.554 -0.0200  0.5199 -0.1027
 1283W        W 5483   2.885   8.810   8.869  0.1267 -0.0941 -0.0711
 1284W        W 5484   7.227   8.268  10.717 -0.0901  0.0810 -0.0049
 1285W        W 5485   2.618   9.245  13.331  0.1245  0.0219  0.0335
 1286W        W 5486   3.645   4.670  10.176  0.0377  0.1860  0.1675
 1287W        W 5487   0.301   5.802  11.761  0.1006  0.1167  0.0038
 1288W        W 5488   1.289   5.262   3.353  0.2490 -0.2016  0.0519
 1289W        W 5489   5.229   3.266  10.971  0.1307 -0.0005  0.1865
 1290W        W 5490   4.224   7.519  10.833 -0.0518 -0.1699  0.1863
 1291W        W 5491   0.136   1.407   3.991  0.0159  0.0992  0.1893
 1292W        W 5492   2.837   5.784   3.316  0.0987  0.0638 -0.0648
 1293W        W 5493   2.977   9.977  12.792 -0.1292 -0.1745  0.0509
 1294W        W 5494   8.855   0.352  10.479 -0.0269 -0.0069  0.1308
 1295W        W 5495   5.996   0.761   9.901  0.0533 -0.0841  0.1743
 1296W        W 5496   1.992   7.371   5.056 -0.3170 -0.0106  0.1848
 1297W        W 5497   1.995   9.320   4.126 -0.1389  0.0767  0.0656
 1298W        W 5498   0.027   1.864   9.426 -0.1132  0.1596  0.0673
 1299W        W 5499   6.005   8.512  13.111  0.0228 -0.1775  0.1844
 1300W        W 5500   8.492   2.315   3.417 -0.0102  0.1125  0.0204
 1301W        W 5501   4.690   9.512   1.448 -0.1890  0.3620 -0.2380
 1302W        W 5502   3.703   5.376   3.418  0.2518  0.0430  0.1085
 1303W        W 5503   4.646   3.164   2.726 -0.1921  0.1845  0.2033
 1304W        W 5504   5.886   7.945  11.140 -0.0170  0.1041  0.1059
 1305W        W 5505   1.514   0.180   8.364  0.1875  0.2229 -0.2169
 1306W        W 5506   4.716   2.285   2.420  0.1447  0.3321 -0.4355
 1307W        W 5507   3.317   6.899   1.086  0.5036 -0.2489 -0.0560
 1308W        W 5508   7.709   4.025  11.763  0.0127  0.2717 -0.0086
 1309W        W 5509   8.490   5.343   2.890  0.0249 -0.1712 -0.1749
 1310W        W 5510   1.453   9.227  10.831  0.1750 -0.0369 -0.1112
 1311W        W 5511   7.842   3.490   0.990  0.1331 -0.0044 -0.0044
 1312W        W 5512   9.303   2.566   3.439  0.2509 -0.3730  0.1651
 1313W        W 5513   8.403   0.432  11.354  0.1292 -0.0931  0.0373
 1314W        W 5514   7.054  10.334   3.058  0.3494  0.4335  0.3290
 1315W        W 5515  10.040   3.175   1.532 -0.0750  0.3754  0.1925
 1316W        W 5516   4.607   0.408   3.143 -0.1092 -0.1397 -0.1279
 1317W        W 5517   7.845   3.861  10.488  0.0574  0.0504  0.1818
 1318W        W 5518   3.801   4.123   3.101 -0.0090 -0.1701 -0.2289
 1319W        W 5519   4.865   2.817   2.391 -0.5835  0.0237 -0.2711
 1320W        W 5520   0.851   5.670   3.413  0.0099  0.1715  0.0429
 1321W        W 5521   8.860   3.299   0.446  0.0585 -0.1126 -0.0482
 1322W        W 5522   3.733   0.938   3.744 -0.4658  0.0399 -0.0855
 1323W        W 5523   7.200   0.056   2.302  0.0910 -0.1554  0.3362
 1324W        W 5524   3.341   2.370  10.648 -0.2586  0.0156  0.2560
 1325W        W 5525   9.734   3.614   2.498 -0.2136  0.2316  0.1247
 1326W        W 5526   0.479   7.685   0.097 -0.4528 -0.0740  0.1388
 1327W        W 5527   4.534   4.518  10.597 -0.2212 -0.2971 -0.4366
 1328W        W 5528   3.489   0.467  11.321 -0.1076  0.1175 -0.1825
 1329W        W 5529   5.430   1.560   3.767 -0.1478 -0.2108 -0.1820
 1330W        W 5530   1.161   7.341  12.161 -0.1865 -0.1037 -0.1874
 1331W        W 5531   3.829   9.164  12.757  0.2870 -0.2525 -0.0477
 1332W        W 5532   0.575   8.450  13.349  0.1790  0.3778  0.1179
 1333W        W 5533   7.959   7.686  10.714 -0.2160 -0.1035 -0.3570
 1334W        W 5534   1.864   5.970   9.236  0.0800  0.0512  0.0107
 1335W        W 5535   6.746   6.341  11.881 -0.0451  0.1325 -0.2202
 1336W        W 5536   7.472   8.755  10.641 -0.0725  0.1072  0.0541
 1337W        W 5537   1.975   9.610  11.772  0.4017  0.0025 -0.7771
 1338W        W 5538   7.317   7.375   2.314  0.0507  0.3658 -0.1249
 1339W        W 5539  10.135   3.702   1.632 -0.1130  0.2009 -0.1968
 1340W        W 5540   4.838   9.917   4.911  0.1354  0.3294 -0.2242
 1341W        W 5541   6.807   9.392   0.842  0.2037 -0.0448 -0.2853
 1342W        W 5542   6.395   1.858   0.898  0.1231 -0.0385 -0.0125
 1343W        W 5543   9.696   2.155   0.101 -0.0181 -0.0900  0.3252
 1344W        W 5544   2.095   1.709   3.082  0.0611 -0.3775 -0.0968
 1345W        W 5545   3.645   1.714  10.045 -0.4794  0.2910  0.0563
 1346W        W 5546   0.493   4.792   1.134  0.2971 -0.2844 -0.0639
 1347W        W 5547   5.331   0.211   3.127  0.0912 -0.1931  0.0496
 1348W        W 5548   5.480   4.115   3.595 -0.2130  0.0733 -0.3326
 1349W        W 5549   4.313   4.365   4.664 -0.1071 -0.1437  0.1309
 1350W        W 5550   8.019   8.171  13.055 -0.0214 -0.3060 -0.0138
 1351W        W 5551   1.800   2.546   3.326 -0.2112 -0.3477  0.0061
 1352W        W 5552   2.779   5.702   8.335 -0.1920  0.0032  0.3780
 1353W        W 5553   9.155   8.288  12.513 -0.1529 -0.3147 -0.1018
 1354W        W 5554   2.592   1.541  12.330 -0.0970  0.2143  0.0303
 1355W        W 5555   4.497   6.294   2.294 -0.4753  0.0161 -0.0906
 1356W        W 5556   0.461   0.971  10.795 -0.2456  0.0647  0.0481
 1357W        W 5557   2.741  10.171   0.411  0.2922  0.1624  0.1198
 1358W        W 5558   4.508   7.481  13.380  0.1518  0.1128 -0.1059
 1359W        W 5559   0.687   6.751  13.449 -0.0704 -0.1178 -0.2548
 1360W        W 5560   0.329   8.573   9.987 -0.2252  0.1696  0.2233
 1361W        W 5561   8.827   9.296  11.376  0.0840 -0.1861 -0.2220
 1362W        W 5562   6.447   1.723   0.444 -0.0089 -0.0147 -0.0534
 1363W        W 5563   6.871   5.281   3.123  0.0363  0.0668  0.1919
 1364W        W 5564   4.955   9.367   0.368  0.0315 -0.0405 -0.1532
 1365W        W 5565   7.494   5.447  11.873 -0.0746  0.5449 -0.1466
 1366W        W 5566   3.026   4.398   4.639 -0.1527  0.3288  0.2986
 1367W        W 5567   7.373   7.931   2.567 -0.1594  0.1513  0.3365
 1368W        W 5568  10.256   4.955  13.346  0.0873  0.1587 -0.0290
 1369W        W 5569   1.842   3.349   8.591  0.0024  0.0554 -0.2056
 1370W        W 5570   5.233   8.141   9.781 -0.0459 -0.1173 -0.0548
 1371W        W 5571   2.517   1.776   2.767  0.1649 -0.1129  0.2088
 1372W        W 5572   4.468  10.348   1.636 -0.0282  0.0875 -0.0238
 1373W        W 5573   6.117   2.828   2.288 -0.0900  0.1588 -0.5352
 1374W        W 5574   7.648   0.392   1.884  0.3391 -0.2238  0.0155
 1375W        W 5575   4.475   8.992  12.630 -0.0914 -0.1979 -0.4228
 1376W        W 5576   6.274   2.253   5.605  0.1543 -0.0839 -0.0202
 1377W        W 5577   9.921   5.058   2.381 -0.0091 -0.1059 -0.0670
 1378W        W 5578   1.772   0.411   9.244 -0.2767 -0.2274  0.1874
 1379W        W 5579   4.759   4.473   0.768  0.1942  0.1908 -0.3260
 1380W        W 5580   0.845   7.246  10.715 -0.0063 -0.3216 -0.0202
 1381W        W 5581   3.038   9.713   4.013 -0.2647  0.0006 -0.0429
 1382W        W 5582   1.174   6.101   2.469  0.1891 -0.1436  0.2945
 1383W        W 5583   4.477   6.952  11.685 -0.1053  0.0886  0.0807
 1384W        W 5584   4.376   6.983   3.382 -0.0166 -0.2986  0.0941
 1385W        W 5585   2.361  10.211   8.511 -0.4365  0.2847  0.4946
 1386W        W 5586   4.977   9.810   3.350 -0.1149  0.0114 -0.3280
 1387W        W 5587   3.467   6.935  13.471 -0.0260 -0.2969 -0.0259
 1388W        W 5588   8.526   5.003   0.086 -0.2067  0.0016 -0.1003
 1389W        W 5589   6.640   4.239   0.379 -0.0548 -0.0565  0.2677
 1390W        W 5590   9.563   4.011  12.317 -0.0680 -0.0162 -0.1442
 1391W        W 5591  10.341   7.134   2.762  0.1813 -0.0364 -0.0671
 1392W        W 5592   9.843   5.480   3.038  0.0384  0.1177  0.1354
 1393W        W 5593   9.928   5.356   8.710 -0.0992 -0.4532  0.0326
 1394W        W 5594   7.459   7.008   0.766 -0.1294 -0.3104  0.1680
 1395W        W 5595   1.028   0.214   9.927  0.1806 -0.4377 -0.0277
 1396W        W 5596   6.093   0.220   1.883 -0.3130  0.4023 -0.0267
 1397W        W 5597   0.469   5.466   3.740 -0.0839 -0.2049 -0.1273
 1398W        W 5598   1.463  10.106  10.453  0.1283 -0.0187 -0.1137
 1399W        W 5599   6.786   8.091   9.907  0.1761 -0.1901 -0.0594
 1400W        W 5600   3.674   0.102  11.042 -0.0157 -0.1523 -0.0979
 1401W        W 5601   6.934   4.506  11.830  0.0932 -0.1940  0.2256
 1402W        W 5602   3.592   4.127   4.123  0.0876  0.0361 -0.0632
 1403W        W 5603   4.525   5.314  11.899 -0.0103 -0.1706 -0.0445
 1404W        W 5604   1.423   8.135   9.788 -0.3943 -0.3458  0.1698
 1405W        W 5605  10.234   8.226  10.525  0.0787 -0.0720 -0.1516
 1406W        W 5606   4.806   4.583   9.617 -0.3268  0.0817 -0.0431
 1407W        W 5607   4.815   5.474  13.530  0.2059  0.4356  0.0274
 1408W        W 5608   3.400   2.657  11.757  0.1259  0.1357 -0.0605
 1409W        W 5609   4.264   5.890  10.231  0.1094  0.0750 -0.1126
 1410W        W 5610   8.535   7.802  11.620 -0.1497 -0.2627  0.0407
 1411W        W 5611   9.740   6.361  10.420 -0.2765 -0.1572 -0.2791
 1412W        W 5612   8.816   0.176   3.580 -0.3753  0.0227  0.0991
 1413W        W 5613   7.859   5.170  11.966 -0.2027  0.0103  0.1741
 1414W        W 5614  10.388   4.866   1.259  0.1288  0.1746 -0.1991
 1415W        W 5615   1.845   9.133   0.934  0.1783 -0.1664  0.5360
 1416W        W 5616   1.085   0.154  12.767  0.0546 -0.1616 -0.3949
 1417W        W 5617   4.463   7.705   0.957 -0.4303  0.2420 -0.2475
 1418W        W 5618   4.919   4.215  11.256  0.1113 -0.0053  0.1121
 1419W        W 5619   0.795   6.883   1.376  0.0882  0.2656  0.1492
 1420W        W 5620   5.839   0.128   4.079  0.0435  0.0150 -0.0841
 1421W        W 5621   0.344   7.963   3.923  0.1105 -0.0507  0.0854
 1422W        W 5622   8.045   5.752   0.972 -0.0031  0.4094  0.2328
 1423W        W 5623   4.900   2.494  10.863  0.0477 -0.0803 -0.0280
 1424W        W 5624   9.960   1.012   0.611  0.1032  0.0506 -0.0093
 1425W        W 5625   5.527   7.044   9.905  0.0856  0.2246 -0.0307
 1426W        W 5626   2.442   5.297  12.928  0.2914 -0.3109 -0.0917
 1427W        W 5627   9.867   6.948  13.620 -0.2108 -0.0918 -0.3742
 1428W        W 5628   2.190   5.940   4.115 -0.1988  0.2061  0.1435
 1429W        W 5629   4.448   7.933   2.127  0.0757  0.1612  0.1799
 1430W        W 5630   1.154   4.834   4.644  0.1726 -0.0174  0.0330
 1431W        W 5631   4.362   5.090  10.412  0.2331  0.0778  0.2998
 1432W        W 5632   0.902   4.489  10.376 -0.3065  0.2947  0.2410
 1433W        W 5633   5.961   1.590  13.402  0.2310  0.2374 -0.1882
 1434W        W 5634   0.946   9.372   8.951  0.2384 -0.2349 -0.2707
 1435W        W 5635   4.913   7.719  11.063  0.2556 -0.0531 -0.1022
 1436W        W 5636   2.336   1.411   4.585  0.0212  0.1688 -0.0841
 1437W        W 5637   6.188   0.181  12.383  0.0610 -0.0902  0.0141
 1438W        W 5638   0.398   9.736   1.936 -0.0241  0.0473 -0.1679
 1439W        W 5639   4.394   0.742  12.676 -0.1560 -0.0301  0.1075
 1440W        W 5640   3.365   9.902  11.081 -0.2993 -0.2728 -0.1022
 1441W        W 5641   6.246   6.035  13.547  0.0139  0.1514  0.4762
 1442W        W 5642   9.470   8.830   0.484 -0.1272  0.0832 -0.2108
 1443W        W 5643   2.827   6.440   9.900 -0.1162 -0.4414  0.2427
 1444W        W 5644   0.363   4.931   5.082  0.1726  0.2275  0.0501
 1445W        W 5645   2.974   8.382   3.367  0.0919  0.0989 -0.2499
 1446W        W 5646   6.619   5.505   4.663  0.0746  0.0518  0.0021
 1447W        W 5647   4.490   4.063   4.282  0.2366 -0.3019 -0.3089
 1448W        W 5648   0.210   3.762  10.085  0.0877 -0.2657  0.0555
 1449W        W 5649   5.642   8.608   0.380 -0.0948 -0.0275  0.2780
 1450W        W 5650   3.426   9.170  10.279  0.0954  0.1171  0.0483
 1451W        W 5651   4.532   1.417   0.639 -0.2507  0.0593 -0.0581
 1452W        W 5652   6.538   7.913  12.182 -0.0117 -0.0637 -0.2357
 1453W        W 5653   7.950   8.746  12.992 -0.2942 -0.2586 -0.2213
 1454W        W 5654   9.007   4.918   4.551  0.0077 -0.4724  0.3340
 1455W        W 5655   1.995  10.055   1.004  0.1340 -0.0003 -0.2402
 1456W        W 5656   4.364   4.353   1.985 -0.1141  0.0767 -0.1637
 1457W        W 5657   0.726   3.741   2.654  0.2042  0.3408  0.0620
 1458W        W 5658   6.147   9.678   1.605 -0.0886  0.1805 -0.1362
 1459W        W 5659   3.703   7.441  13.457 -0.3374 -0.0701  0.0152
 1460W        W 5660   1.080   7.819  12.332  0.2019 -0.0231  0.3775
 1461W        W 5661   2.185   2.950   9.410  0.0281 -0.0751  0.0066
 1462W        W 5662   1.117   8.748   8.830  0.0865 -0.0263 -0.0976
 1463W        W 5663   2.286   4.287   0.976  0.0635 -0.1305 -0.3568
 1464W        W 5664  10.371   7.023   2.295  0.1747 -0.1047 -0.3618
 1465W        W 5665   1.256   8.659   1.374  0.0675  0.0861  0.3189
 1466W        W 5666   1.233   4.302  11.459 -0.2581 -0.7191  0.0706
 1467W        W 5667   9.588   5.851  12.704 -0.1359  0.4337 -0.2058
 1468W        W 5668   4.896   8.686   9.200  0.1017 -0.0173 -0.0500
 1469W        W 5669   2.311   7.971  11.631  0.2137  0.2744 -0.0428
 1470W        W 5670   3.773   8.123   1.815 -0.2575 -0.2398  0.2731
 1471W        W 5671   8.795   7.980   2.165 -0.1477 -0.2768 -0.2225
 1472W        W 5672   3.329   2.648  11.265  0.1977 -0.1179 -0.0045
 1473W        W 5673   2.176   7.539  13.273 -0.2259  0.0020 -0.3203
 1474W        W 5674   9.234   5.090   1.817 -0.1621 -0.0393 -0.1487
 1475W        W 5675   2.435   0.408   2.030 -0.2814 -0.3140  0.0775
 1476W        W 5676   7.617   6.258  13.463 -0.0047  0.0213  0.0262
 1477W        W 5677   9.760   8.089   1.612  0.0308  0.0569  0.4025
 1478W        W 5678   8.605   5.457  11.265 -0.1791 -0.2720 -0.1668
 1479W        W 5679   5.722  10.042   9.265  0.1415  0.1663 -0.1074
 1480W        W 5680   7.574   2.271   1.401  0.2569  0.0838 -0.1848
 1481W        W 5681   1.103   9.355   0.227  0.1482  0.0073 -0.0247
 1482W        W 5682   6.270   5.467  12.711 -0.0838  0.1052 -0.0027
 1483W        W 5683   0.052   7.255   8.644 -0.0174 -0.2299 -0.3975
 1484W        W 5684   1.074   4.282   9.531 -0.3240 -0.2883  0.1917
 1485W        W 5685   2.343   1.062  12.650  0.0919 -0.1580  0.0563
 1486W        W 5686  10.072   9.335  11.809 -0.1379  0.0784  0.1215
 1487W        W 5687   6.665   9.178   0.157 -0.1819 -0.1583 -0.3373
 1488W        W 5688   1.492   8.111  12.088  0.2751 -0.1882  0.1871
 1489W        W 5689   4.320   8.481  12.535 -0.1229 -0.1324  0.0353
 1490W        W 5690   8.612   5.661  11.706  0.3636  0.0976 -0.1567
 1491W        W 5691   8.150   0.813  13.245  0.0103  0.0437 -0.1888
 1492W        W 5692   6.165   7.279   0.374 -0.1742  0.0921  0.4026
 1493W        W 5693   8.271   8.028  12.571 -0.1894 -0.1275 -0.3219
 1494W        W 5694   4.657   7.009   9.009  0.3448  0.1193 -0.1180
 1495W        W 5695   4.174   5.972  12.012  0.2037  0.2370  0.0526
 1496W        W 5696   0.810   6.190  10.508  0.2368 -0.1128 -0.0113
 1497W        W 5697   8.639   1.730   9.322  0.1682  0.0059 -0.0168
 1498W        W 5698   5.950   8.324   2.181  0.1381 -0.1410 -0.0728
 1499W        W 5699   2.293   4.039   0.077  0.1674 -0.2464  0.2693
 1500W        W 5700   7.422   7.740  10.738 -0.1324  0.0531 -0.0586
 1501W        W 5701   4.979   3.556  13.219 -0.0486 -0.2107 -0.1085
 1502W        W 5702   8.200   3.035   4.045 -0.0922  0.2582  0.0718
 1503W        W 5703   7.600   5.693  12.884  0.0868  0.2314 -0.3441
 1504W        W 5704  10.110   9.368   0.656  0.1278 -0.5140  0.0952
 1505W        W 5705   5.204   5.813   3.843  0.1753  0.2311 -0.1704
 1506W        W 5706   2.770   5.856  10.591 -0.2370 -0.1246  0.1432
 1507W        W 5707   9.566   4.222   4.769 -0.0982  0.2180 -0.3749
 1508W        W 5708   0.380   8.473   2.195  0.3291 -0.1416 -0.0562
 1509W        W 5709   3.488   1.064   4.292  0.0718 -0.0108 -0.1167
 1510W        W 5710   4.484   5.995  12.735 -0.2049  0.5309  0.0640
 1511W        W 5711   9.621   1.113   9.083  0.0177 -0.2864 -0.3063
 1512W        W 5712   1.807   6.017   4.415  0.0010  0.0691  0.3433
 1513W        W 5713   7.114   4.349   4.131 -0.2571 -0.0391  0.3005
 1514W        W 5714   1.993   6.733  13.607 -0.1744 -0.1309  0.2497
 1515W        W 5715   5.530   3.655  10.699  0.0264  0.1494  0.0002
 1516W        W 5716   6.960   7.677   2.425  0.0189 -0.4415  0.1286
 1517W        W 5717   2.098   3.325   3.268  0.1648  0.3409  0.0630
 1518W        W 5718   4.265   5.344   1.232  0.1006 -0.0296 -0.0208
 1519W        W 5719   6.143   2.923   0.806 -0.0949 -0.0384 -0.3740
 1520W        W 5720   6.182   3.173   9.475  0.1632  0.2273  0.0380
 1521W        W 5721   3.921   8.578   4.197  0.1635 -0.4609 -0.2045
 1522W        W 5722   1.501   5.122   0.404 -0.0779 -0.2138  0.0717
 1523W        W 5723   6.006   1.988   2.925 -0.2594 -0.2433 -0.1449
 1524W        W 5724   9.622   9.701  10.150 -0.3970  0.0021 -0.0137
 1525W        W 5725   5.684   9.814  11.834 -0.0106 -0.1537 -0.0264
 1526W        W 5726   9.388   5.775   4.308  0.2242  0.1170  0.1861
 1527W        W 5727   7.096   3.402   3.188  0.2531 -0.2427 -0.0531
 1528W        W 5728   5.175   4.618  13.128  0.2306  0.1869  0.4656
 1529W        W 5729   6.139   3.246  10.023 -0.1292 -0.1643  0.0142
 1530W        W 5730   9.094   7.975  12.141  0.1685 -0.2284  0.3848
 1531W        W 5731   0.111   4.442  13.236 -0.1872 -0.0554 -0.3369
 1532W        W 5732   6.040   3.252   3.805  0.1399  0.3837  0.2364
 1533W        W 5733   6.992   5.228   4.508 -0.0915 -0.0815  0.0586
 1534W        W 5734   1.156   3.619   4.693  0.4087  0.2405 -0.1305
 1535W        W 5735   5.512   0.620  10.944 -0.0988 -0.3811 -0.1424
 1536W        W 5736   2.000   9.328   9.655 -0.1887 -0.0391  0.0156
 1537W        W 5737   7.607   2.713   2.279 -0.1404  0.2346  0.0038
 1538W        W 5738   6.703   0.454   9.532  0.2265 -0.2566  0.3532
 1539W        W 5739   3.398   1.785   1.795  0.1203  0.0304 -0.1505
 1540W        W 5740   6.775   2.106   0.647  0.0043 -0.1608 -0.1720
 1541W        W 5741   8.022   6.803  12.184 -0.3108  0.3526  0.0661
 1542W        W 5742   7.648   3.794   4.355 -0.1641 -0.1873  0.0403
 1543W        W 5743   6.816   5.871  11.727  0.0942 -0.1343 -0.0892
 1544W        W 5744   3.178   0.978   3.079 -0.0981  0.1802 -0.0287
 1545W        W 5745   2.490  10.062   0.884 -0.3403  0.1828  0.1071
 1546W        W 5746   2.310   9.178   3.696 -0.0072  0.1848 -0.0626
 1547W        W 5747   9.687   3.770  12.793  0.2480  0.3348 -0.0051
 1548W        W 5748   5.192   9.186   2.116 -0.4773 -0.1367  0.0275
 1549W        W 5749   2.388   6.990   5.318  0.0196 -0.1156 -0.0547
 1550W        W 5750   7.943   7.008  10.242 -0.1935 -0.2211  0.2349
 1551W        W 5751   3.879  10.233  12.543 -0.1563 -0.0097  0.0817
 1552W        W 5752   5.550   6.282  12.161 -0.2841  0.1584 -0.1420
 1553W        W 5753   3.941   0.139   9.782  0.1469  0.1742 -0.2189
 1554W        W 5754   1.162   6.235   9.704 -0.2239  0.0285  0.1030
 1555W        W 5755   9.331  10.245  13.075 -0.1170  0.0056 -0.1917
 1556W        W 5756   9.850   6.777   5.001 -0.2373  0.0009  0.0559
 1557W        W 5757   6.127   4.928   0.698 -0.0440  0.0809 -0.4199
 1558W        W 5758   3.444   1.654   3.840  0.0881  0.0549  0.0699
 1559W        W 5759   6.978   7.536   1.312 -0.1934 -0.0220 -0.1638
 1560W        W 5760   8.337   0.445  13.565  0.2367  0.2109 -0.2527
 1561W        W 5761   9.027  10.360   3.018 -0.2711  0.1092 -0.1024
 1562W        W 5762   1.075   6.272  11.301  0.2323  0.0980 -0.0458
 1563W        W 5763   3.799   0.213   1.282  0.0920  0.0163  0.2728
 1564W        W 5764   5.400   0.698  12.263  0.1738  0.2000  0.2551
 1565W        W 5765   5.883   4.648   2.231  0.0310 -0.0163  0.0149
 1566W        W 5766   3.333   1.265   2.703 -0.0516 -0.0297 -0.2555
 1567W        W 5767   0.812   6.286  12.075 -0.0474 -0.0451 -0.1206
 1568W        W 5768  10.039   5.722  12.544 -0.2806 -0.2308  0.1901
 1569W        W 5769   8.606   7.984   0.028  0.0296  0.3243  0.0150
 1570W        W 5770   4.383   9.393   3.945  0.1631 -0.1128 -0.0639
 1571W        W 5771   8.819   2.975  10.465 -0.2903  0.1038 -0.1224
 1572W        W 5772   2.197   8.522  12.394  0.0072  0.0732 -0.1941
 1573W        W 5773   5.691   5.042   1.934  0.1861  0.0415 -0.1128
 1574W        W 5774   4.059   6.795   4.572 -0.1040  0.1709 -0.1421
 1575W        W 5775   9.496   6.168   2.114 -0.1964 -0.1142  0.2233
 1576W        W 5776   3.973   2.257  12.527 -0.1906  0.0403  0.0874
 1577W        W 5777   9.485   2.572   3.948 -0.0005  0.0327  0.2111
 1578W        W 5778   5.151   3.759   4.660 -0.1190  0.3925 -0.4471
 1579W        W 5779   7.325   5.217   3.463 -0.1320 -0.1893  0.1793
 1580W        W 5780   8.413   3.479   3.905 -0.4205  0.2425 -0.0720
 1581W        W 5781   2.702   6.875   2.330 -0.1879  0.1213 -0.0716
 1582W        W 5782   9.392   3.515   2.813  0.1916  0.1844 -0.1917
 1583W        W 5783   2.214   7.926   8.902 -0.0973 -0.1100 -0.0935
 1584W        W 5784   8.379  10.341   9.997 -0.0850 -0.1488  0.0254
 1585W        W 5785   6.687   8.109   1.017 -0.4349  0.3515  0.1760
 1586W        W 5786   4.545   8.288  12.127  0.1686  0.0233 -0.1374
 1587W        W 5787   4.068   9.666   2.196 -0.0653 -0.1468 -0.3475
 1588W        W 5788   0.814   0.573  12.621 -0.1841 -0.0637 -0.3208
 1589W        W 5789   4.340   5.764  13.486 -0.1146 -0.1135 -0.1002
 1590W        W 5790   7.641   3.743   1.839  0.1937 -0.0133 -0.3584
 1591W        W 5791   6.838   7.711  11.396 -0.3481  0.0148 -0.0684
 1592W        W 5792   8.299   2.817  10.274 -0.0645 -0.0921 -0.0672
 1593W        W 5793   0.476   1.844   2.866 -0.0025 -0.1614 -0.1211
 1594W        W 5794   6.811   6.821  12.503 -0.0228  0.0772  0.4232
 1595W        W 5795   5.920   0.298  10.127 -0.3859  0.0494  0.2157
 1596W        W 5796   7.298   4.094   1.939  0.3608  0.1975  0.3640
 1597W        W 5797   8.507   2.670   4.206  0.0112  0.0815 -0.0322
 1598W        W 5798   5.004   5.636   3.452 -0.2424 -0.0613  0.0460
 1599W        W 5799   3.248   8.094  12.595 -0.2166  0.1689  0.2807
 1600W        W 5800   9.310   6.042  10.338  0.1551 -0.0873  0.3499
 1601W        W 5801   6.569  10.246   3.270 -0.0485  0.0106  0.0404
 1602W        W 5802   1.645   8.537  12.316  0.0488 -0.2151  0.0747
 1603W        W 5803   6.491   0.850   3.217 -0.0808  0.2032 -0.1128
 1604W        W 5804   1.415   4.356  10.388  0.0650  0.0161 -0.0342
 1605W        W 5805   4.500   5.451  11.079 -0.1158  0.1721  0.2218
 1606W        W 5806   7.106   4.639  10.517 -0.2300 -0.2887  0.1640
 1607W        W 5807   6.650   0.974  10.398 -0.0093  0.2072 -0.1101
 1608W        W 5808   2.146   8.806   8.783  0.1906 -0.2130  0.0363
 1609W        W 5809   4.397   4.538   4.065  0.5298 -0.1949 -0.0590
 1610W        W 5810   9.475   1.276  12.672 -0.0089 -0.1805 -0.0712
 1611W        W 5811   8.586   7.619  12.113 -0.1514  0.0395 -0.4062
 1612W        W 5812   2.975   7.659  10.963  0.0344  0.0156  0.1741
 1613W        W 5813   0.118   0.316   1.042 -0.3886  0.0317 -0.0351
 1614W        W 5814   4.664   4.080  11.715  0.2631  0.3700 -0.0284
 1615W        W 5815   8.864   3.612   4.274 -0.2389  0.1071 -0.0738
 1616W        W 5816   9.226   1.580   8.692 -0.1187  0.1680  0.1271
 1617W        W 5817   2.751   3.708  10.356 -0.0012 -0.0942 -0.1257
 1618W        W 5818   6.330  10.011  12.355 -0.0321  0.0922  0.0942
 1619W        W 5819   4.141   6.941   0.601 -0.2190 -0.3287  0.2125
 1620W        W 5820   6.862   3.913   0.655  0.0893  0.0895 -0.1984
 1621W        W 5821   9.182   4.134  12.621 -0.4451 -0.0555  0.0946
 1622W        W 5822   6.436   0.163   1.515  0.0087  0.0190  0.1715
 1623W        W 5823   6.376   5.984  11.839  0.1102  0.1362 -0.1994
 1624W        W 5824   3.143   5.232   9.790 -0.0716 -0.3565 -0.3936
 1625W        W 5825   1.493   3.864  10.252 -0.0114  0.0199  0.0638
 1626W        W 5826   1.169   5.654   3.055 -0.2702  0.0518  0.3079
 1627W        W 5827   8.473   8.611  12.984  0.1425  0.0868 -0.0620
 1628W        W 5828   2.469   1.989   1.382  0.0726  0.0503 -0.1796
 1629W        W 5829   1.933   6.897   9.835 -0.0106 -0.1460 -0.3440
 1630W        W 5830   5.664   1.098  11.368  0.3682  0.0907  0.0025
 1631W        W 5831  10.024   5.611  11.507  0.3520  0.2627  0.3409
 1632W        W 5832   2.642   1.405   3.847  0.1204 -0.2013  0.0734
 1633W        W 5833   9.745   2.239  10.957 -0.0055 -0.1967 -0.0178
 1634W        W 5834   0.859   0.739  10.645  0.1510 -0.2309  0.2272
 1635W        W 5835   3.761   3.296  12.649  0.2482 -0.2500  0.0649
 1636W        W 5836   6.072   7.595  10.405 -0.0857  0.0923 -0.2062
 1637W        W 5837   3.007   4.978  12.099 -0.3372 -0.0076 -0.1103
 1638W        W 5838   2.203   4.056  11.169 -0.0096  0.2271 -0.0369
 1639W        W 5839   5.538   1.656   0.377 -0.1801  0.0706  0.0771
 1640W        W 5840   6.321   7.791   1.204  0.1746  0.2270 -0.0705
 1641W        W 5841   9.861   5.665  13.119 -0.0687 -0.0721  0.0007
 1642W        W 5842   7.565   2.350  10.406 -0.1146  0.3094 -0.0717
 1643W        W 5843   6.869   3.406   4.282  0.0217  0.4715 -0.1215
 1644W        W 5844   6.538   1.542  12.258 -0.3883 -0.0780  0.0388
 1645W        W 5845   6.208   4.949  11.775  0.1127 -0.1504 -0.1255
 1646W        W 5846  10.021   1.687   1.136 -0.0033 -0.1222 -0.0239
 1647W        W 5847   7.682   7.588  11.178  0.0748 -0.1918 -0.3051
 1648W        W 5848   7.187   3.315  11.606 -0.1625  0.0594 -0.0099
 1649W        W 5849   2.758   8.358  12.230 -0.1888  0.2357 -0.0181
 1650W        W 5850   0.577   4.342  13.407 -0.0573  0.1003 -0.0276
 1651W        W 5851   7.160   4.106   0.275 -0.3458 -0.0732  0.0312
 1652W        W 5852   2.453   8.440   8.881 -0.1031  0.0416 -0.1242
 1653W        W 5853   1.946   1.979   3.948  0.3956  0.0362  0.3577
 1654W        W 5854   1.584   2.391  11.032 -0.1207 -0.1684  0.0420
 1655W        W 5855   8.804   0.762  12.656  0.2743  0.1298  0.0025
 1656W        W 5856   1.540   6.096  12.057  0.2920 -0.1263  0.0704
 1657W        W 5857   1.061   0.266  10.778  0.4359 -0.2799 -0.3009
 1658W        W 5858   4.305   4.371  11.598  0.0270 -0.1371 -0.1111
 1659W        W 5859   1.893   3.784  12.298 -0.0962  0.0404  0.0114
 1660W        W 5860   2.759   2.574   3.399 -0.3360 -0.0175 -0.1098
 1661W        W 5861   5.436   6.030   1.821  0.0157  0.4166  0.0324
 1662W        W 5862   5.816   6.668   1.453 -0.0861  0.1253  0.0973
 1663W        W 5863   2.576   6.171  13.132 -0.1875 -0.0347  0.3034
 1664W        W 5864   7.665   1.506  13.083  0.0287  0.0875  0.3415
 1665W        W 5865   9.817   5.689   9.557 -0.1301  0.1372  0.1839
 1666W        W 5866   9.405   8.479   1.956  0.1093  0.2868 -0.0919
 1667W        W 5867   4.149   8.364  13.047 -0.1894 -0.1763  0.0233
 1668W        W 5868   0.964   2.252   9.577  0.0831 -0.1981 -0.1277
 1669W        W 5869   9.171   5.915   0.345  0.2240  0.1294  0.2504
 1670W        W 5870   3.917   1.784  11.865  0.1990  0.1834  0.1199
 1671W        W 5871   4.115   9.916   2.745  0.0315 -0.2519 -0.1321
 1672W        W 5872   7.525   7.374   2.762  0.1948  0.2179  0.1797
 1673W        W 5873   6.030   3.543  11.595  0.1240 -0.2943  0.1457
 1674W        W 5874   8.447   8.577  11.594 -0.0536  0.0083  0.0315
 1675W        W 5875   1.826   7.893   2.405 -0.0549 -0.1186  0.0549
 1676W        W 5876   9.950   7.919  12.489  0.0270  0.1247 -0.2440
 1677W        W 5877   3.373   5.598   5.287 -0.1681 -0.2121  0.2899
 1678W        W 5878   2.383   1.105   1.380 -0.0261 -0.1303 -0.0545
 1679W        W 5879   7.440   6.940  12.567 -0.1667  0.1014 -0.2102
 1680W        W 5880   1.983   6.547  13.082  0.1077 -0.1013  0.0815
 1681W        W 5881   0.563   3.639  11.674  0.1539  0.1573  0.1799
 1682W        W 5882   0.359   1.054   3.225  0.1544 -0.2829 -0.3030
 1683W        W 5883   4.668   6.950   0.336 -0.0142  0.0087 -0.0419
 1684W        W 5884   8.027   1.372   0.765 -0.3936 -0.2419 -0.0802
 1685W        W 5885   7.365   7.525   0.294 -0.1305  0.2841 -0.1298
 1686W        W 5886   2.795   4.232  12.138 -0.2055 -0.1013  0.1000
 1687W        W 5887   7.883   4.860   5.609 -0.2174 -0.1848 -0.1597
 1688W        W 5888   0.836   1.178  11.285  0.0662 -0.1150 -0.2595
 1689W        W 5889   7.168   1.790   0.506 -0.4640 -0.0265  0.0634
 1690W        W 5890   1.042   2.985   9.363  0.0759 -0.0185  0.1825
 1691W        W 5891   5.992   6.154   4.009  0.3536  0.1646  0.0715
 1692W        W 5892   2.852   8.455   9.453 -0.1931  0.1983  0.0421
 1693W        W 5893  10.283   6.153  10.259  0.0825  0.2581 -0.0206
 1694W        W 5894   9.321   1.392  11.151  0.1833  0.5877  0.0851
 1695W        W 5895   9.785   0.525   1.065 -0.1805  0.0292  0.0664
 1696W        W 5896   5.743   4.681   4.214 -0.0660 -0.1783 -0.0975
 1697W        W 5897   9.074   9.630  12.286  0.0758  0.4402 -0.2660
 1698W        W 5898   8.831   2.155  11.122  0.1184 -0.1711 -0.2317
 1699W        W 5899   2.461   4.581  10.447  0.0758 -0.0623 -0.0530
 1700W        W 5900   7.690   5.462   0.102  0.1632 -0.2955  0.1753
 1701W        W 5901   5.880   8.393  10.833  0.1213  0.0841 -0.0067
 1702W        W 5902   3.366   3.628   2.509  0.1410  0.2197 -0.1807
 1703W        W 5903   3.420   0.435  12.641 -0.0021  0.2057 -0.1553
 1704W        W 5904   8.586   2.389   0.634  0.2154 -0.1445 -0.0146
 1705W        W 5905   3.833   1.637   9.526 -0.0225 -0.0648 -0.3731
 1706W        W 5906   2.650   8.922   2.269 -0.0442  0.0882 -0.0569
 1707W        W 5907   0.858   6.266   0.584 -0.1146  0.1517 -0.1031
 1708W        W 5908   2.853   3.034   1.391  0.1302 -0.0362 -0.3877
 1709W        W 5909   3.728   7.303   9.358 -0.0272  0.1526 -0.0548
 1710W        W 5910   0.077   1.740  10.759  0.1263 -0.0385  0.4158
 1711W        W 5911   9.407   4.837   4.305 -0.1152  0.0786 -0.0866
 1712W        W 5912   6.938   7.221  11.538 -0.1343 -0.2759 -0.1562
 1713W        W 5913   1.343   1.964   1.761 -0.1535  0.3009 -0.1698
 1714W        W 5914   6.380   6.623  12.904  0.0019  0.0012  0.1681
 1715W        W 5915   6.085   3.064   1.354 -0.2940 -0.2817 -0.2046
 1716W        W 5916   7.823   0.960   0.537  0.0863 -0.3150 -0.2560
 1717W        W 5917   7.911   6.731   1.765  0.1049  0.1037 -0.1204
 1718W        W 5918   2.119   4.069   4.453  0.1503  0.2917  0.0336
 1719W        W 5919   1.785   4.004   3.996  0.0202  0.0374 -0.2117
 1720W        W 5920   7.560   5.811   9.790  0.0001 -0.0338  0.0305
 1721W        W 5921   8.623   0.917   0.007 -0.1937  0.2037  0.1866
 1722W        W 5922   3.365   4.012   4.653  0.2723 -0.0813 -0.1581
 1723W        W 5923   2.327   0.114   3.403  0.0380  0.3117 -0.0356
 1724W        W 5924   0.457   4.774   4.258 -0.0303  0.0076  0.1289
 1725W        W 5925   1.086   1.566  13.021  0.4010  0.1748  0.0068
 1726W        W 5926   6.762   4.752  10.106  0.3098 -0.0068 -0.2976
 1727W        W 5927  10.068   5.496  13.509 -0.2246 -0.0139 -0.2892
 1728W        W 5928   5.934   9.739   2.494  0.0383  0.2885  0.3259
 1729W        W 5929   0.275   6.159   9.356 -0.1870 -0.0314 -0.0391
 1730W        W 5930   7.763   4.268  12.236  0.0888  0.0125  0.0025
 1731W        W 5931   7.688   4.801   2.994  0.2139  0.0851 -0.0224
 1732W        W 5932   1.096   9.429  10.015  0.3977  0.1270  0.2092
 1733W        W 5933   5.385   2.467  11.290 -0.2199  0.1979 -0.3105
 1734W        W 5934   7.807   9.467   2.953  0.0790 -0.1713 -0.0874
 1735W        W 5935   8.523   7.568  10.821  0.3652  0.2042 -0.1401
 1736W        W 5936   7.983   2.008   3.929 -0.2741  0.0992 -0.0932
 1737W        W 5937   4.008   8.317   9.985 -0.3147  0.0315  0.0828
 1738W        W 5938   6.484   0.561  12.447 -0.0388  0.2329 -0.1779
 1739W        W 5939   4.872   7.377   0.189 -0.1189 -0.0030 -0.2190
 1740W        W 5940   2.720   4.068   3.819 -0.0456  0.0625  0.3033
 1741W        W 5941   0.528   1.691  10.502  0.1751  0.2536  0.1375
 1742W        W 5942   5.923   9.475   0.704  0.0286  0.1525  0.0275
 1743W        W 5943   6.216   6.032   2.162 -0.0952  0.0743 -0.2101
 1744W        W 5944   1.103   0.073   2.635  0.0917 -0.2405 -0.0171
 1745W        W 5945   6.653   4.560  12.604 -0.1659  0.0601 -0.1596
 1746W        W 5946   1.872   9.543  10.858 -0.0063  0.1110  0.1411
 1747W        W 5947   1.645   2.345   8.390 -0.0724  0.0425  0.0614
 1748W        W 5948   2.821   2.601   2.102  0.2035  0.0456  0.0875
 1749W        W 5949   2.607   4.397   9.333 -0.0370 -0.2163  0.1111
 1750W        W 5950   4.313   9.254  13.468 -0.3553  0.3143  0.2673
 1751W        W 5951   2.005   2.954  11.722 -0.1965 -0.1726  0.2091
 1752W        W 5952   9.829   1.665  12.488 -0.2067  0.0133  0.1604
 1753W        W 5953   3.493   6.536  11.506  0.1681 -0.4828 -0.5494
 1754W        W 5954   3.882   8.432  11.119 -0.0194 -0.3924  0.1915
 1755W        W 5955   1.555   8.118   3.593  0.0505 -0.0891  0.1919
 1756W        W 5956   0.354   6.387   4.024  0.3178 -0.0498 -0.1127
 1757W        W 5957   1.331   0.301   1.931 -0.1983  0.0279 -0.1952
 1758W        W 5958   0.334   4.194  12.412 -0.2503  0.4859  0.0788
 1759W        W 5959   6.382   9.197  13.001  0.0208  0.0378 -0.0321
 1760W        W 5960   3.929   6.332   3.435 -0.0602 -0.1468 -0.1858
 1761W        W 5961   2.153   7.327   9.565  0.1625  0.1308 -0.1652
 1762W        W 5962   8.070   7.327   9.424  0.1190  0.2269 -0.0343
 1763W        W 5963   3.597   7.276   2.415  0.0614 -0.1287 -0.1221
 1764W        W 5964   9.831   7.162  13.150 -0.3376  0.1190 -0.0732
 1765W        W 5965   0.841   2.619   3.874  0.2071  0.2274 -0.0532
 1766W        W 5966   4.025   0.414   2.841  0.4421 -0.0873  0.2059
 1767W        W 5967   0.298   6.195  13.481  0.0195 -0.0109 -0.0705
 1768W        W 5968   7.937   6.527  12.566  0.0329 -0.0019 -0.0024
 1769W        W 5969  10.047   8.071  12.029 -0.0212 -0.0662  0.0111
 1770W        W 5970   7.324   9.162  11.131 -0.1542  0.2196  0.3783
 1771W        W 5971   0.901   3.273  12.301 -0.1486  0.1996  0.2816
 1772W        W 5972  10.321   0.744   0.863 -0.0122 -0.1674  0.0742
 1773W        W 5973   2.364   8.048  12.678 -0.0717  0.0135 -0.1421
 1774W        W 5974   8.287   5.882   3.106 -0.2335  0.0806 -0.2753
 1775W        W 5975   1.631   8.025   1.753  0.0799 -0.4181 -0.3594
 1776W        W 5976   5.482   1.243   4.191  0.4451 -0.1485  0.1257
 1777W        W 5977   3.926   2.084   9.777 -0.0648  0.1031 -0.1520
 1778W        W 5978   9.852   3.838   9.963 -0.1229 -0.1011  0.1397
 1779W        W 5979   9.715   7.528   1.704 -0.1919  0.0900  0.0535
 1780W        W 5980   0.369   4.625  11.278 -0.1627  0.3331  0.1386
 1781W        W 5981   9.617   1.295   0.328  0.1591 -0.0582 -0.0616
 1782W        W 5982   3.237   5.205  11.125 -0.0636 -0.2510  0.2197
 1783W        W 5983   5.203   7.376   0.693 -0.0713  0.1000 -0.2486
 1784W        W 5984   8.784   5.502   3.295  0.0302  0.3260 -0.0209
 1785W        W 5985   6.993   7.109   1.688 -0.1093 -0.1206 -0.1352
 1786W        W 5986   9.375   3.021   9.677  0.0802 -0.0442 -0.0252
 1787W        W 5987   1.692   0.901  10.178 -0.0994  0.1817 -0.0425
 1788W        W 5988   9.987   6.631   1.616 -0.2301 -0.3454  0.3241
 1789W        W 5989   6.820   6.633   3.628 -0.2814  0.2725  0.1474
 1790W        W 5990  10.107   1.264   0.206  0.2501 -0.0957 -0.0581
 1791W        W 5991   9.452   3.229  11.081  0.0170 -0.4034 -0.2726
 1792W        W 5992   8.757   0.550  13.153  0.4755 -0.2388 -0.3482
 1793W        W 5993   0.546   9.535  11.463 -0.0494  0.2045 -0.1953
 1794W        W 5994   1.235   9.003  12.011 -0.0622 -0.0586  0.1464
 1795W        W 5995   2.071   0.140  12.894  0.4371  0.1734 -0.0069
 1796W        W 5996   6.124   7.098  12.047  0.3325 -0.1223  0.1008
 1797W        W 5997  10.223   8.521  13.011  0.0689 -0.3024 -0.2999
 1798W        W 5998   7.998  10.128   0.530 -0.0084 -0.1372  0.3500
 1799W        W 5999   5.176   0.201  12.314  0.2007  0.2022  0.0608
 1800W        W 6000   1.068   8.108  10.074  0.4703  0.2524  0.0080
 1801W        W 6001   3.440   4.579  11.568 -0.0924  0.1317  0.3229
 1802W        W 6002   6.671   3.195  10.204  0.1299 -0.3183  0.0277
 1803W        W 6003   4.771   5.612  11.512 -0.3590  0.1632  0.2184
 1804W        W 6004   3.885   4.263   9.304 -0.2961  0.0432  0.1640
 1805W        W 6005   4.104   3.647   5.476 -0.2008 -0.0839 -0.1042
 1806W        W 6006   3.933   4.476  12.676 -0.0567  0.1051  0.0535
 1807W        W 6007   5.656  10.302   1.330  0.3010 -0.0094 -0.1908
 1808W        W 6008   9.162  10.310  10.399 -0.2897  0.0670 -0.3242
 1809W        W 6009   0.315   5.113   9.300 -0.2843  0.1054 -0.2257
 1810W        W 6010   9.649   1.467   2.939 -0.1105 -0.0487 -0.1455
 1811W        W 6011   9.363   6.059   1.658 -0.0851  0.1678 -0.0452
 1812W        W 6012   0.021   9.818   0.854 -0.0675 -0.1357  0.1128
 1813W        W 6013   0.963   1.026  13.046 -0.2313 -0.1497  0.0541
 1814W        W 6014   9.757   0.654   3.390  0.0553  0.1319 -0.1584
 1815W        W 6015   4.960   6.190  12.863 -0.1796  0.1220  0.3010
 1816W        W 6016   1.954   0.001   4.226  0.0998  0.0115  0.0175
 1817W        W 6017   9.805   5.594  10.972 -0.1251 -0.1163  0.1961
 1818W        W 6018   6.303   4.100  10.382 -0.1042 -0.0767 -0.2581
 1819W        W 6019   1.710   4.489   2.020  0.1568  0.1736 -0.1083
 1820W        W 6020   5.983   7.461   9.890  0.2025  0.3325  0.0269
 1821W        W 6021  10.185   0.787  10.344 -0.0088  0.0181 -0.1883
 1822W        W 6022   3.347   9.515   2.821  0.0448  0.3502  0.0053
 1823W        W 6023   6.190   8.170   0.871 -0.4479 -0.2391 -0.0898
 1824W        W 6024   2.608   8.078  11.224  0.0785  0.2537  0.1397
 1825W        W 6025   3.709   5.241   3.913 -0.2624  0.1893 -0.0327
 1826W        W 6026   2.585   8.795   4.154  0.1708  0.1349 -0.0769
 1827W        W 6027   7.232   2.834   9.417  0.1509  0.0830 -0.4292
 1828W        W 6028   6.230   2.543   1.322  0.1873 -0.1515  0.1368
 1829W        W 6029  10.030   4.134   1.924  0.0317 -0.3803  0.1783
 1830W        W 6030   5.196   8.024   1.622 -0.1195  0.1730 -0.0265
 1831W        W 6031   9.076   6.280   5.072  0.0823 -0.2527  0.0124
 1832W        W 6032   3.782   7.030  10.426  0.1598  0.3044  0.1338
 1833W        W 6033   9.581   5.827   3.857  0.0028 -0.0201  0.1102
 1834W        W 6034   8.630   3.106  11.395 -0.3118 -0.0186  0.3998
 1835W        W 6035   4.456   6.218  13.653  0.2498 -0.0293  0.2113
 1836W        W 6036   3.784   3.601   2.820  0.0509  0.1344  0.1246
 1837W        W 6037   3.363   3.541   0.343  0.0793  0.2520 -0.0376
 1838W        W 6038   7.198   1.930   4.379  0.0209  0.0001  0.0418
 1839W        W 6039   4.396   4.166   9.367 -0.1858  0.0488  0.0188
 1840W        W 6040   8.447   1.296  10.706  0.2097 -0.2746  0.4088
 1841W        W 6041   1.446   4.900   2.186  0.2155 -0.1911  0.0200
 1842W        W 6042   3.109   0.429  13.454  0.2651 -0.1473 -0.3506
 1843W        W 6043   3.714   6.087   1.005 -0.0661  0.0311 -0.3186
 1844W        W 6044   7.489   0.722  11.555 -0.2319  0.4283  0.0955
 1845W        W 6045   4.396   6.086   4.971  0.0506  0.2759  0.2319
 1846W        W 6046   1.680   1.933   2.169 -0.1892 -0.0813  0.2686
 1847W        W 6047   5.324   6.827   1.599 -0.0061 -0.1945  0.0549
 1848W        W 6048   9.679   2.058   9.817  0.3141 -0.0344 -0.0573
 1849W        W 6049   2.838   6.826   2.842 -0.0328 -0.0925  0.1365
 1850W        W 6050   3.965   5.179  11.523  0.1619 -0.1242  0.0954
 1851W        W 6051   1.651   8.387   2.718 -0.1375  0.2225 -0.1218
 1852W        W 6052   1.414   3.339   9.416  0.1426 -0.0771 -0.0316
 1853W        W 6053   3.496   2.473   2.525 -0.0304  0.0820 -0.1141
 1854W        W 6054   0.190   2.254   3.144 -0.4035 -0.2410 -0.0527
 1855W        W 6055   9.663   6.834  10.595 -0.1198  0.0495 -0.1060
 1856W        W 6056   0.279   2.423  12.091 -0.1612  0.0621 -0.0301
 1857W        W 6057  10.016   1.209  12.561 -0.2517  0.3309  0.0390
 1858W        W 6058   6.321   0.243   0.125 -0.1025 -0.2667  0.4505
 1859W        W 6059   1.483   4.507  12.302  0.0414 -0.0314 -0.0417
 1860W        W 6060   2.661   9.323  12.093 -0.0827 -0.2087  0.0440
 1861W        W 6061   1.070   6.743  10.459  0.2722  0.0145  0.0499
 1862W        W 6062   6.429   4.738   9.601  0.0969 -0.0263  0.2463
 1863W        W 6063   3.249   1.287   1.785  0.1909  0.0054  0.5241
 1864W        W 6064   7.198   1.272   2.735 -0.1324  0.2275 -0.3439
 1865W        W 6065   7.469   5.314   9.994  0.0172  0.0664 -0.3019
 1866W        W 6066   6.437   1.716   2.287  0.0091 -0.0566 -0.0583
 1867W        W 6067  10.347   8.149  12.570 -0.2194  0.1078 -0.0912
 1868W        W 6068   8.126   8.919   1.076 -0.1767  0.0873 -0.1479
 1869W        W 6069   6.662   2.288   9.936  0.1841 -0.3587 -0.2734
 1870W        W 6070   5.854   2.910  13.470  0.1284  0.1843 -0.1156
 1871W        W 6071   5.630   3.783  12.505  0.1858  0.2021 -0.0142
 1872W        W 6072   6.285   9.341  13.492 -0.0296 -0.0781 -0.0611
 1873W        W 6073   4.499   3.110  12.504  0.1399 -0.0846 -0.0195
 1874W        W 6074   9.890   2.612  11.373  0.1483  0.0876 -0.0941
 1875W        W 6075   4.870   5.454   1.972  0.1944 -0.0515 -0.0337
 1876W        W 6076   4.131   3.909   3.493 -0.0219 -0.1155 -0.1900
 1877W        W 6077   6.374   5.635  13.219 -0.1879  0.1820 -0.0424
 1878W        W 6078   4.755   3.003   4.913 -0.0242  0.2194 -0.0549
 1879W        W 6079   2.388   4.607   5.225  0.0683  0.0558  0.0127
 1880W        W 6080   3.652   0.585   9.489 -0.1649  0.1296 -0.0839
 1881W        W 6081   6.238   6.357  10.696  0.0340 -0.2696  0.0960
 1882W        W 6082   1.039   2.642   4.882 -0.0522 -0.4094 -0.2641
 1883W        W 6083   5.139   2.644  11.869  0.0442 -0.2261 -0.0697
 1884W        W 6084   9.126  10.128   1.434  0.1391  0.0614  0.0157
 1885W        W 6085   4.576   6.314   1.315  0.1694  0.0105 -0.1796
 1886W        W 6086   3.847   9.255   3.734 -0.1254  0.1745  0.2540
 1887W        W 6087   2.187   8.456   2.654 -0.0409 -0.0848  0.0471
 1888W        W 6088   4.307   4.048   3.009  0.0793 -0.0538  0.1305
 1889W        W 6089   0.493   3.504   3.620 -0.1820 -0.2622 -0.2740
 1890W        W 6090   5.775   9.015   0.598  0.0004  0.2274 -0.0702
 1891W        W 6091   8.903   9.153  12.143  0.0629 -0.0163  0.1243
 1892W        W 6092   6.015  10.148   3.400 -0.2924  0.0743  0.2243
 1893W        W 6093   6.286   5.145  12.190 -0.1236 -0.1755  0.0485
 1894W        W 6094   9.300   6.256   4.188  0.0786 -0.1857  0.3358
 1895W        W 6095   4.690   0.407  12.982  0.2976 -0.0461 -0.1224
 1896W        W 6096   7.124  10.009   2.566  0.4159  0.0623  0.2543
 1897W        W 6097   1.671   6.015   9.693  0.0933 -0.2841 -0.2867
 1898W        W 6098   7.493   4.323   9.560 -0.4477 -0.1744 -0.1200
 1899W        W 6099   5.767   3.379   0.024 -0.0689  0.0806 -0.1262
 1900W        W 6100  10.042   6.998   4.579  0.1260 -0.1516 -0.0643
 1901W        W 6101   7.999   5.655   4.025 -0.0672 -0.0117 -0.4398
 1902W        W 6102   3.195   6.967   4.197 -0.0965  0.0678 -0.1310
 1903W        W 6103   3.674   6.087   0.468  0.1629 -0.2530 -0.0734
 1904W        W 6104   2.773   4.670  10.082 -0.5381 -0.1268 -0.3969
 1905W        W 6105   4.281   7.434   9.160 -0.0058 -0.0214 -0.0249
 1906W        W 6106   2.886   5.515   0.829  0.1508  0.1204 -0.1957
 1907W        W 6107   8.017   3.219   3.592  0.1621 -0.2604 -0.3299
 1908W        W 6108   8.854   7.434   9.881 -0.1305  0.0481  0.0693
 1909W        W 6109  10.245   1.308   4.468  0.0690 -0.2930  0.0100
 1910W        W 6110   2.298   4.440   1.979  0.0778  0.0614 -0.0224
 1911W        W 6111   2.665   5.613   9.837  0.0480  0.1648  0.2385
 1912W        W 6112   7.361   6.749   9.546 -0.0340 -0.1496  0.2020
 1913W        W 6113   0.970   9.940  10.692 -0.0848  0.1347  0.0514
 1914W        W 6114   2.402  10.182   1.775 -0.4777  0.2247  0.0239
 1915W        W 6115   3.921   2.483  11.986 -0.0358 -0.0829 -0.2714
 1916W        W 6116   2.091   5.393   1.718 -0.1551  0.3164 -0.0160
 1917W        W 6117   6.250   4.452   1.491  0.0848  0.0880  0.1292
 1918W        W 6118   3.539   3.587   1.285  0.0581  0.2724 -0.0277
 1919W        W 6119   9.904   5.014   1.852 -0.3366 -0.2321 -0.2029
 1920W        W 6120   0.884   5.597  10.916  0.1119 -0.2498 -0.1559
 1921W        W 6121   1.929   6.423   9.583  0.2192  0.0807 -0.2236
 1922W        W 6122   8.926   4.502  12.493  0.0996 -0.2236  0.2132
 1923W        W 6123   9.377   6.747   5.292 -0.0511  0.0028 -0.3117
 1924W        W 6124   5.448   7.698  12.472 -0.0642  0.1131 -0.0764
 1925W        W 6125   1.484   4.363  13.229 -0.0197  0.1417 -0.3123
 1926W        W 6126   3.327   2.361   0.103 -0.3375 -0.1809  0.0711
 1927W        W 6127   2.111   9.552  13.592 -0.0820  0.3111 -0.0745
 1928W        W 6128  10.376   9.259   0.231  0.2734 -0.0095  0.3049
 1929W        W 6129   1.223   6.608   5.310  0.3443 -0.0621  0.1398
 1930W        W 6130   6.394   2.282   3.031 -0.1990 -0.0129 -0.2367
 1931W        W 6131   1.994   7.669  10.540 -0.1151  0.0951  0.0221
 1932W        W 6132   3.531   4.598   3.856 -0.3087  0.1347 -0.1929
 1933W        W 6133   7.398   4.757   3.871  0.0074  0.1671  0.0178
 1934W        W 6134   0.666   0.364   2.791  0.1708  0.1530  0.1822
 1935W        W 6135   3.618   7.544  11.459 -0.0610  0.2834 -0.0997
 1936W        W 6136   6.083   1.152   3.927 -0.0439 -0.1219 -0.3153
 1937W        W 6137   1.567   7.885  10.253 -0.3553 -0.3219 -0.0105
 1938W        W 6138   5.706   9.878   2.861 -0.0206  0.2628 -0.0719
 1939W        W 6139   5.573   5.679   9.528 -0.3722 -0.0887 -0.0207
 1940W        W 6140   5.736   6.478   9.854  0.1550 -0.0539  0.2076
 1941W        W 6141   6.273   4.661   1.938  0.1882 -0.1037 -0.0073
 1942W        W 6142   1.096   5.319   3.865 -0.1173 -0.1876  0.1553
 1943W        W 6143   4.884   1.563   4.563 -0.1138 -0.0134  0.2812
 1944W        W 6144   9.470   9.246   3.343 -0.0353 -0.1076 -0.1213
 1945W        W 6145   0.639  10.115   2.198  0.2079  0.0331 -0.0757
 1946W        W 6146   7.128   3.459  10.937 -0.2489  0.0537  0.1834
 1947W        W 6147   2.314   4.910   4.752 -0.0033  0.0277 -0.2452
 1948W        W 6148   5.055   1.914   2.240  0.1254 -0.1512 -0.3771
 1949W        W 6149   5.735   1.351   2.192  0.1382 -0.0094  0.0744
 1950W        W 6150   3.359   5.750  12.011 -0.0646  0.1103 -0.1258
 1951W        W 6151   4.265   2.975   3.082 -0.1929 -0.0076 -0.1398
 1952W        W 6152  10.292   2.756   0.369 -0.0883  0.0200 -0.1616
 1953W        W 6153   1.459   3.327   4.425  0.0130  0.0549  0.1099
 1954W        W 6154   3.046   4.724   1.017 -0.1845 -0.2378  0.2284
 1955W        W 6155   9.485   1.072  13.577 -0.0222  0.0970 -0.0851
 1956W        W 6156   9.178   8.952   0.890 -0.0450  0.1286  0.1549
 1957W        W 6157   5.989   2.717   3.638 -0.2655  0.0410  0.1287
 1958W        W 6158   2.799  10.072  12.282 -0.0104 -0.3331  0.1786
 1959W        W 6159  10.241   3.163   3.776 -0.1918  0.3252 -0.1610
 1960W        W 6160   6.629  10.386   0.493  0.1505 -0.2514 -0.4582
 1961W        W 6161   5.625   4.582   3.762  0.0291 -0.1060 -0.3156
 1962W        W 6162   0.546   2.496   4.802  0.1550  0.1482 -0.2239
 1963W        W 6163   3.845   0.435   3.712 -0.0876 -0.3521 -0.2627
 1964W        W 6164   1.530   8.606   3.457 -0.2161  0.0088  0.0931
 1965W        W 6165   7.136   6.637  11.910  0.0743 -0.2275  0.0722
 1966W        W 6166   9.240   0.098  11.687  0.4088 -0.3633 -0.1284
 1967W        W 6167   7.083   8.313  12.868  0.0388  0.1244 -0.1108
 1968W        W 6168   1.482   4.501   3.492  0.0189 -0.4856  0.0416
 1969W        W 6169   5.840   8.482  12.463  0.1236  0.2781 -0.0691
 1970W        W 6170   2.194   4.297  11.649  0.0380 -0.2387 -0.0863
 1971W        W 6171   5.259   6.814   2.889  0.3003  0.0296  0.1779
 1972W        W 6172   1.264  10.201  10.967 -0.3316 -0.1752  0.3118
 1973W        W 6173   3.171   3.298   3.891 -0.2795 -0.1641  0.0106
 1974W        W 6174   4.420   8.254   1.125 -0.1025  0.0340  0.0424
 1975W        W 6175   4.233   8.701   1.772  0.0348 -0.1277  0.0637
 1976W        W 6176   7.021   0.503   0.091  0.3428 -0.0827 -0.0074
 1977W        W 6177   5.504   8.721   0.901  0.1182  0.1715  0.0330
 1978W        W 6178   6.738   6.045   9.962 -0.1883  0.1857 -0.0520
 1979W        W 6179   7.487   6.743  13.403  0.1591 -0.1505 -0.0612
 1980W        W 6180  10.398   1.226  11.140  0.2293 -0.0025  0.1518
 1981W        W 6181   9.435   7.778  10.509 -0.0923 -0.0303 -0.0634
 1982W        W 6182   9.698   2.955  10.259  0.1319  0.0740 -0.0277
 1983W        W 6183   7.144   6.080  10.232  0.2536  0.0162  0.1730
 1984W        W 6184   7.357   4.671   2.681 -0.1054  0.1025  0.1270
 1985W        W 6185   5.911   6.207   4.515  0.1458 -0.0039 -0.1924
 1986W        W 6186   3.148   3.453   3.444  0.2632  0.0733  0.0256
 1987W        W 6187   7.704   6.688   9.879  0.1572 -0.0060  0.0221
 1988W        W 6188   4.186   3.330   5.846  0.0583  0.2360 -0.1486
 1989W        W 6189   0.115   6.283   2.891 -0.2919 -0.0436  0.1126
 1990W        W 6190   2.611   9.879   3.787 -0.2836  0.0085 -0.1173
 1991W        W 6191   0.146   5.747   3.412  0.0373 -0.0287 -0.1183
 1992W        W 6192   2.793   1.631  10.152 -0.2661 -0.2354 -0.0233
 1993W        W 6193   6.396   8.918  11.274  0.0639  0.3440  0.0232
 1994W        W 6194   9.614   5.442   3.524 -0.2292  0.4118  0.3914
 1995W        W 6195   8.614   6.748   3.792 -0.0739  0.3005  0.0697
 1996W        W 6196   2.108   2.877   4.036 -0.1304  0.0511 -0.1258
 1997W        W 6197   9.035   7.650  11.753  0.0110  0.1190  0.3097
 1998W        W 6198   1.453   5.210  12.934  0.2140 -0.2515  0.0610
 1999W        W 6199  10.126   5.959   0.025 -0.1648 -0.0382  0.1757
 2000W        W 6200   8.733   9.191   1.679 -0.2043  0.2992 -0.3738
 2001W        W 6201   8.374   1.947   4.406  0.4327  0.0258  0.0427
 2002W        W 6202   9.690   8.622   0.128 -0.0223  0.1288 -0.0613
 2003W        W 6203   1.763   2.139   4.840  0.0165 -0.2071 -0.2444
 2004W        W 6204   9.734   8.734   1.432 -0.1244  0.1072  0.1087
 2005W        W 6205   4.784  10.184  11.246 -0.1093  0.0472 -0.2734
 2006W        W 6206  10.147   7.756   1.768 -0.0405 -0.0536  0.1983
 2007W        W 6207   5.259   8.981   1.317 -0.0731 -0.1964  0.1601
 2008W        W 6208   2.971   7.967   5.217 -0.3130  0.2618 -0.1752
 2009W        W 6209   4.459  10.149   0.701 -0.1632 -0.0434 -0.4069
 2010W        W 6210   2.661   5.264   3.963  0.1062 -0.2689  0.0481
 2011W        W 6211   7.114   7.799   3.001  0.2002  0.0767 -0.0911
 2012W        W 6212   8.656   1.461  10.208  0.3703 -0.1701 -0.0515
 2013W        W 6213   9.012   2.171   3.334  0.3146 -0.1147 -0.0238
 2014W        W 6214   6.425   0.793  10.817  0.0223  0.2382 -0.1430
 2015W        W 6215   3.959   8.114   0.927 -0.0555 -0.1189 -0.0422
 2016W        W 6216   7.787   6.003   4.551  0.1212 -0.2003  0.0847
 2017W        W 6217   3.452   0.394   1.810  0.2391  0.0568  0.1017
 2018W        W 6218   2.594   0.159  10.850 -0.0417  0.1835  0.1321
 2019W        W 6219   2.312   4.934   3.808 -0.1398  0.0109 -0.0754
 2020W        W 6220   4.419   1.200   4.073 -0.3070 -0.1707 -0.1492
 2021W        W 6221   8.719   8.761  13.404  0.2744 -0.2115 -0.3443
 2022W        W 6222   1.224   6.231   2.012  0.0027  0.2188 -0.1356
 2023W        W 6223   0.434   2.938   0.326  0.0254  0.2629 -0.2379
 2024W        W 6224   0.690   3.695  12.308 -0.0547  0.1066  0.2810
 2025W        W 6225   9.003   5.719  11.160 -0.0682 -0.2760  0.0482
 2026W        W 6226   9.160   8.257   1.479 -0.4505 -0.2654 -0.2410
 2027W        W 6227   6.048   2.421  12.350  0.1771 -0.1527 -0.0387
 2028W        W 6228   9.782   4.823  10.486  0.1348  0.1305 -0.0272
 2029W        W 6229   8.723   5.012  12.524  0.0067 -0.0797 -0.1312
 2030W        W 6230   3.165  10.154   2.786 -0.0536  0.1786 -0.1099
 2031W        W 6231   1.517   4.406   2.578  0.2400 -0.1094 -0.1968
 2032W        W 6232   3.198   8.652  12.176 -0.3214  0.0097 -0.2398
 2033W        W 6233   8.869   7.949  10.655 -0.0117  0.1563  0.3336
 2034W        W 6234   9.950   4.749   9.383 -0.3678  0.0725 -0.0149
 2035W        W 6235   1.601   0.140   2.909  0.1461  0.1918  0.0371
 2036W        W 6236   2.106   7.335   1.368  0.1516 -0.1053  0.0433
 2037W        W 6237   5.235   0.761   4.058 -0.0008 -0.2223 -0.1108
 2038W        W 6238   7.425   2.526   1.839 -0.1075 -0.1464 -0.0337
 2039W        W 6239   5.716   1.543   3.105  0.0121 -0.1684 -0.0991
 2040W        W 6240   0.465   4.037   1.119 -0.2553  0.1497  0.1012
 2041W        W 6241   0.413   8.864  11.662 -0.0146 -0.1964  0.1827
 2042W        W 6242   5.523   7.202   2.611  0.0213 -0.2887  0.0089
 2043W        W 6243   1.037   7.157   0.560 -0.2348 -0.2613  0.1878
 2044W        W 6244   4.915   2.587  13.528 -0.2340 -0.2268  0.0113
 2045W        W 6245   8.170   0.571  10.922 -0.3040 -0.0718  0.4922
 2046W        W 6246   7.089   6.239  12.245 -0.2948 -0.1009  0.3332
 2047W        W 6247   2.145   8.211   1.175  0.3195 -0.0462 -0.3694
 2048W        W 6248   9.760  10.376   0.799 -0.2246  0.4177  0.1198
 2049W        W 6249   9.762   3.981   0.959 -0.1211 -0.2602 -0.0805
 2050W        W 6250   1.499   0.159  11.726 -0.0385  0.2665 -0.1481
 2051W        W 6251   2.893   9.930   2.367 -0.7221  0.0319 -0.2759
 2052W        W 6252   4.083   2.808   3.978 -0.0102  0.2342  0.0955
 2053W        W 6253   2.480   6.900   9.769  0.1092 -0.0326  0.0717
 2054W        W 6254   5.817   5.221   1.379  0.2671 -0.3447  0.3631
 2055W        W 6255   1.090   3.666  11.942 -0.0468  0.0582  0.0289
 2056W        W 6256   3.492   9.534  12.988 -0.1575  0.1474  0.1697
 2057W        W 6257   8.413   5.952   2.225 -0.0940 -0.0914  0.2651
 2058W        W 6258   4.110   4.963  12.854  0.2126  0.2077  0.1645
 2059W        W 6259   5.438   6.529   2.501 -0.0733 -0.1252 -0.1360
 2060W        W 6260   9.195   6.268  11.994  0.0910 -0.2673  0.0872
 2061W        W 6261   1.071   5.263  10.434 -0.2414  0.0127 -0.2341
 2062W        W 6262   5.530   7.753  13.369  0.0999  0.2089  0.0315
 2063W        W 6263   7.016   0.618  11.502 -0.3323 -0.0417 -0.4804
 2064W        W 6264   7.847   8.110  12.323 -0.1441 -0.0020  0.0153
 2065W        W 6265   3.292   4.986   9.395  0.1653  0.0385 -0.4459
 2066W        W 6266   0.461   8.739   0.663 -0.4008  0.0437 -0.0063
 2067W        W 6267   7.360   5.820  13.529  0.1409 -0.0367  0.0261
 2068W        W 6268   7.454   2.071   9.969 -0.1208  0.2203  0.2766
 2069W        W 6269   5.257   4.803  12.356  0.1207 -0.2510  0.2339
 2070W        W 6270   5.191   2.745  12.536 -0.2587 -0.2673  0.3046
 2071W        W 6271   6.949   7.543   1.966  0.4771 -0.1059 -0.0262
 2072W        W 6272  10.269   8.109   1.431 -0.3905  0.1257 -0.1867
 2073W        W 6273   3.197   8.089  12.096 -0.2560  0.2934 -0.0841
 2074W        W 6274   2.253   3.086  12.786 -0.1868 -0.0437  0.1309
 2075W        W 6275   5.029  10.193  10.399  0.1884  0.5276  0.1194
 2076W        W 6276  10.317   7.626   2.904 -0.3823  0.0934  0.1401
 2077W        W 6277   4.533   5.702   2.470  0.1576  0.0546 -0.1660
 2078W        W 6278   9.410   2.492  12.862  0.1976 -0.2102  0.1070
 2079W        W 6279   5.754   6.063  10.590  0.2025  0.2098  0.1535
 2080W        W 6280   3.466   7.580   8.931  0.1075  0.0754 -0.2247
 2081W        W 6281   2.475   0.895   0.133  0.0534  0.3698 -0.1473
 2082W        W 6282   3.335   1.984   2.824 -0.0555  0.2233 -0.0478
 2083W        W 6283   3.848   7.979  11.387 -0.0358  0.0658  0.3468
 2084W        W 6284   7.532   2.679   9.995  0.1412  0.0843  0.1350
 2085W        W 6285   2.009   3.656   9.722 -0.4410 -0.1960  0.1146
 2086W        W 6286   5.490   4.312  10.313  0.2349  0.3060  0.0254
 2087W        W 6287   9.015  10.042   2.549  0.0796  0.2525 -0.0469
 2088W        W 6288   8.080   0.055   2.800  0.1408 -0.1164  0.0653
 2089W        W 6289   2.254   2.971  10.502  0.1960  0.1405  0.2042
 2090W        W 6290   3.374   9.238   8.557  0.0190  0.1067  0.0896
 2091W        W 6291   1.622   4.106  11.214  0.0328 -0.0248  0.1656
 2092W        W 6292   9.316   6.865   0.307  0.0236  0.0880 -0.4158
 2093W        W 6293  10.053   0.471  10.995 -0.2298 -0.2730  0.0327
 2094W        W 6294   3.097   2.109  13.385  0.0838 -0.0706 -0.5274
 2095W        W 6295   6.467   2.269   4.595  0.0259  0.2087  0.1393
 2096W        W 6296   3.928   5.161   8.757  0.1493 -0.0250 -0.1251
 2097W        W 6297   6.315   3.972   2.794 -0.1343 -0.1338 -0.4621
 2098W        W 6298   0.202   3.724  11.996  0.1713  0.0478  0.3549
 2099W        W 6299   2.039   6.506   4.475 -0.2399  0.1767  0.1767
 2100W        W 6300   2.820   4.935  10.997 -0.2642 -0.0479  0.4431
 2101W        W 6301   8.677   6.217   9.025  0.1008  0.3059  0.2506
 2102W        W 6302   2.330   2.380   1.642 -0.2762 -0.0048  0.0580
 2103W        W 6303   8.572   2.871   0.508  0.0183 -0.5257 -0.1660
 2104W        W 6304   7.999   0.923  10.534  0.1319 -0.5507 -0.4377
 2105W        W 6305   0.769   0.626  10.143  0.0459  0.1577  0.1481
 2106W        W 6306   6.033   6.404   3.164  0.0803  0.0400  0.3837
 2107W        W 6307  10.151   9.217   9.566 -0.0558  0.0196 -0.1542
 2108W        W 6308   6.422   4.790   2.486  0.2873  0.0576 -0.3015
 2109W        W 6309   5.678   0.184   2.250  0.3599 -0.3058 -0.2091
 2110W        W 6310  10.256   6.654   3.765 -0.0773 -0.3279  0.0111
 2111W        W 6311   9.848   4.452   3.079 -0.2452  0.1085 -0.0534
 2112W        W 6312   5.215   5.851   4.624  0.0603 -0.1815  0.0814
 2113W        W 6313   6.745   8.309   1.438  0.1817 -0.3149 -0.1239
 2114W        W 6314   5.492   9.579   9.739 -0.0603 -0.1102 -0.2486
 2115W        W 6315   1.830   2.547   4.420  0.0299 -0.1546 -0.0245
 2116W        W 6316   7.418   3.398   1.346 -0.1754  0.0021 -0.1656
 2117W        W 6317   2.238   3.044  12.246  0.0421 -0.2385 -0.0798
 2118W        W 6318   1.152   8.010   9.126  0.0897 -0.0160  0.1560
 2119W        W 6319   4.935   2.235  10.448  0.1792  0.0627 -0.1331
 2120W        W 6320   6.264   3.618   9.227 -0.1254  0.0954  0.3825
 2121W        W 6321   3.629   3.021   1.852  0.3413 -0.3842  0.3915
 2122W        W 6322   7.095   2.363  10.219 -0.1008 -0.0387  0.0826
 2123W        W 6323   0.523   7.511  11.457 -0.0573 -0.0500 -0.2724
 2124W        W 6324   5.741   5.220   9.336 -0.1270 -0.1237  0.1259
 2125W        W 6325   0.121  10.357   4.203  0.1452 -0.1201  0.3044
 2126W        W 6326   2.481  10.146  12.936  0.1534  0.2385  0.3760
 2127W        W 6327   6.792   5.730  13.470 -0.1659  0.1309  0.2309
 2128W        W 6328   0.178   4.430   0.895 -0.0082 -0.0107  0.2607
 2129W        W 6329   5.095   3.102   9.995 -0.0421 -0.2635  0.0239
 2130W        W 6330   9.184   4.073   1.947 -0.0530 -0.0493 -0.0471
 2131W        W 6331   4.718   8.959   0.108 -0.0488  0.0463  0.3044
 2132W        W 6332   1.298   5.695  12.905  0.1451 -0.0639 -0.4455
 2133W        W 6333   3.844   9.381   9.803 -0.1403 -0.1651  0.0342
 2134W        W 6334   0.499   6.738   2.112  0.2655 -0.2781 -0.1475
 2135W        W 6335   9.933   4.834   0.624  0.0941 -0.1833 -0.1987
 2136W        W 6336   1.562   6.106  13.027  0.3073 -0.0159  0.0705
 2137W        W 6337   0.602   3.761   1.535  0.0767 -0.0839  0.1685
 2138W        W 6338   2.923   8.764  13.159  0.2374 -0.0379 -0.0682
 2139W        W 6339   4.248   7.994   2.555 -0.0007  0.1117 -0.0714
 2140W        W 6340   3.017   4.724   3.172  0.0425 -0.0373  0.1964
 2141W        W 6341   1.645   9.707   8.307  0.0859  0.2015  0.0409
 2142W        W 6342   7.874   5.667  10.161 -0.0805 -0.1150  0.2889
 2143W        W 6343   2.650   3.177  10.941 -0.0985  0.2049 -0.0678
 2144W        W 6344   0.637   0.653   1.351  0.1891 -0.2312 -0.1167
 2145W        W 6345   8.549   7.808   2.959 -0.4827  0.1900 -0.1703
 2146W        W 6346   8.949   7.074  13.183  0.2428  0.0220  0.0576
 2147W        W 6347   6.987   7.818  12.795 -0.2372  0.2056 -0.1503
 2148W        W 6348   0.411   6.159   1.866  0.1049 -0.2110 -0.2597
 2149W        W 6349   1.143   8.351   1.815  0.0777 -0.3947  0.2961
 2150W        W 6350   1.279   4.575   9.130  0.0162  0.2872  0.0624
 2151W        W 6351   9.400   1.419  13.194  0.1149  0.1671  0.0746
 2152W        W 6352   2.444   4.853   2.233 -0.2645 -0.1253  0.0312
 2153W        W 6353   2.291   6.823   2.789 -0.1669  0.2076  0.3200
 2154W        W 6354   3.072  10.104   8.972 -0.3349 -0.1392  0.0419
 2155W        W 6355   5.415   4.763   2.314  0.3909  0.0594 -0.0112
 2156W        W 6356   4.969   6.158   9.987 -0.0112 -0.2163 -0.0941
 2157W        W 6357   9.932   6.737   0.976 -0.1359 -0.0303  0.2874
 2158W        W 6358   6.685   3.760   3.345  0.2126  0.0371 -0.3208
 2159W        W 6359   7.330   3.860   1.441 -0.0410 -0.2327 -0.3943
 2160W        W 6360   4.649   5.847   9.640 -0.0205 -0.1049 -0.0984
 2161W        W 6361   4.115   3.681   9.268 -0.2282 -0.1280 -0.1005
 2162W        W 6362   6.281   9.027   2.802  0.0602  0.1661 -0.0442
 2163W        W 6363   8.590   9.600   0.875  0.1277  0.1062 -0.1000
 2164W        W 6364   5.990   9.226   1.413  0.0143  0.3399  0.1912
 2165W        W 6365   6.012   7.197   3.835  0.0406  0.0081  0.0212
 2166W        W 6366   8.081   7.343  13.244 -0.3074 -0.2212  0.2338
 2167W        W 6367   9.863   4.954  13.022 -0.0233  0.4534 -0.1037
 2168W        W 6368   0.320   5.068  11.045 -0.1690 -0.3758 -0.1167
 2169W        W 6369   7.779   4.266   1.713  0.3350  0.3257 -0.0217
 2170W        W 6370   2.585   1.196   8.451 -0.1659 -0.1440  0.1069
 2171W        W 6371   9.682   3.975   0.443 -0.0920  0.2310 -0.0861
 2172W        W 6372  10.029   9.226   8.392  0.0359 -0.1239 -0.0875
 2173W        W 6373   4.453   6.992   1.714 -0.2141 -0.1429 -0.0552
 2174W        W 6374  10.157   7.347   0.051  0.1049  0.1210 -0.2870
 2175W        W 6375   3.310   5.339   1.486 -0.0308 -0.3340 -0.0090
 2176W        W 6376   6.391   4.592  13.581  0.1086  0.1562  0.0875
 2177W        W 6377   1.275  10.223  12.376  0.2333 -0.1404  0.1747
 2178W        W 6378   2.764   0.511  11.821  0.2150  0.0807  0.2387
 2179W        W 6379   5.024   5.304   0.263  0.0133 -0.0387  0.2699
 2180W        W 6380   2.513   5.356  11.990 -0.0599  0.3093 -0.0728
 2181W        W 6381   6.510   2.712   4.377 -0.0869 -0.1511 -0.2111
 2182W        W 6382   0.466   0.727   0.846  0.0876  0.1205 -0.1369
 2183W        W 6383   1.844   1.045  11.939 -0.1929 -0.1552 -0.1573
 2184W        W 6384   1.386   0.621  11.530 -0.1196 -0.1585 -0.0466
 2185W        W 6385   6.052   0.836  12.708  0.0200 -0.3354  0.2359
 2186W        W 6386   6.138   3.453   2.819  0.3937  0.2556  0.0031
 2187W        W 6387   5.718   8.994   0.049 -0.1298  0.1681  0.1963
 2188W        W 6388   1.814   6.848   4.134  0.0962 -0.2660  0.2499
 2189W        W 6389   4.357   0.193  12.629  0.0431  0.1680  0.1691
 2190W        W 6390   3.997   5.421  10.006 -0.0296  0.1723  0.0910
 2191W        W 6391   8.483   9.573   1.356  0.2325  0.0230 -0.3223
 2192W        W 6392   8.029   6.885  10.831  0.4888 -0.2491  0.0206
 2193W        W 6393   6.106   5.841   0.859  0.1231  0.1725 -0.1113
 2194W        W 6394   9.765   1.683   9.503  0.1464 -0.0840 -0.0018
 2195W        W 6395   6.033   8.243   2.914  0.2924 -0.1360 -0.0585
 2196W        W 6396   0.761   5.253   9.616  0.2625  0.3039  0.0562
 2197W        W 6397   5.762   7.502   9.451 -0.1621  0.2191  0.0266
 2198W        W 6398   0.964   3.075   1.965  0.3007  0.0855  0.2188
 2199W        W 6399   5.702   7.623   2.506 -0.0452 -0.1852 -0.0223
 2200W        W 6400   0.165   4.218   0.063 -0.0289 -0.1218  0.1809
 2201W        W 6401   8.243   6.870   3.265  0.1361  0.1085 -0.3573
 2202W        W 6402   7.532   3.120   9.038  0.1360  0.2030 -0.1054
 2203W        W 6403   4.094   0.026   2.509 -0.2369  0.1782  0.0199
 2204W        W 6404   2.067   5.409  13.324 -0.0337  0.0299 -0.1922
 2205W        W 6405   8.795   0.967   3.605 -0.0934 -0.2471 -0.1023
 2206W        W 6406   4.434  10.335   4.391 -0.0103 -0.3884  0.0269
 2207W        W 6407   9.128   1.243   0.958  0.4370  0.3137  0.3723
 2208W        W 6408   9.303  10.212   9.919 -0.1308  0.2284  0.0240
 2209W        W 6409   9.497   0.470   2.054 -0.3278  0.0491 -0.1895
 2210W        W 6410   4.290  10.224   9.885 -0.0201 -0.1199  0.0432
 2211W        W 6411   7.471   3.560   2.792 -0.1738 -0.3252  0.0025
 2212W        W 6412   9.082   8.853  10.533 -0.0189  0.0683  0.1839
 2213W        W 6413  10.358   8.485  12.121  0.3047 -0.3180 -0.2245
 2214W        W 6414   5.948   2.147   1.012 -0.1062 -0.3774 -0.0162
 2215W        W 6415   3.564   7.236   4.366 -0.1152 -0.1972 -0.2738
 2216W        W 6416   5.942   5.023   4.606  0.3077  0.1167  0.0090
 2217W        W 6417   8.487   8.705   3.091  0.3528  0.0455  0.0898
 2218W        W 6418   5.369   5.354   1.527  0.1517 -0.0214  0.0333
 2219W        W 6419   2.709   0.758   2.846 -0.2594 -0.0041 -0.0946
 2220W        W 6420   6.119   3.421   0.967 -0.0405  0.2098  0.0068
 2221W        W 6421   5.936   3.598  13.293 -0.2131  0.1132  0.2352
 2222W        W 6422   0.525   1.817   9.062 -0.1078  0.3481 -0.1313
 2223W        W 6423   1.459   5.477  12.496  0.4365  0.1358 -0.0978
 2224W        W 6424   6.667   4.741  13.138 -0.0759 -0.1433  0.3794
 2225W        W 6425   0.605   0.832   1.862 -0.4239  0.1195 -0.6073
 2226W        W 6426   1.104   6.497   1.235  0.2893 -0.3205  0.1587
 2227W        W 6427   9.412   0.913   0.615  0.0096 -0.2749 -0.0748
 2228W        W 6428   9.082   7.554  12.296 -0.0005  0.3683  0.1461
 2229W        W 6429   2.043   5.582   0.156 -0.4042  0.0227 -0.1054
 2230W        W 6430   1.737   9.111   3.232 -0.0126  0.1600  0.0130
 2231W        W 6431   7.921   3.605   0.029  0.2265  0.1166 -0.1322
 2232W        W 6432   6.596   6.415   2.212 -0.2927 -0.2663 -0.3611
 2233W        W 6433   7.277   9.677   0.448 -0.3261 -0.0276 -0.0073
 2234W        W 6434   5.492   1.599   1.591  0.0062 -0.2796 -0.0208
 2235W        W 6435   3.221   2.960   8.462 -0.3837  0.1926  0.2829
 2236W        W 6436   7.473   3.682  13.245  0.2823  0.0550 -0.0650
 2237W        W 6437   4.167   9.045   0.890  0.1308 -0.2603  0.1262
 2238W        W 6438   5.669   2.340   9.955  0.0115  0.0122  0.0634
 2239W        W 6439   7.024   3.368  13.087 -0.1909 -0.2389 -0.5011
 2240W        W 6440   3.035   8.162  10.859 -0.1984  0.3041  0.1745
 2241W        W 6441   6.607   4.374   9.206 -0.2813 -0.1478  0.2463
 2242W        W 6442   0.068   7.920  10.143  0.0119  0.0337  0.2821
 2243W        W 6443   5.593   2.183   0.488 -0.3677 -0.1140 -0.0285
 2244W        W 6444  10.347   6.215   1.786  0.2177  0.0431  0.3085
 2245W        W 6445   9.375   4.335  13.091 -0.1200 -0.0517  0.1411
 2246W        W 6446   2.112   1.218   1.010 -0.0151 -0.3418 -0.0758
 2247W        W 6447   3.612   2.132   3.911 -0.0111 -0.1134 -0.0180
 2248W        W 6448   8.535   2.102   9.658 -0.0739 -0.2156 -0.1745
 2249W        W 6449   0.591   7.284   4.923 -0.0071 -0.1000 -0.1375
 2250W        W 6450   6.421   3.620   3.819  0.4095  0.1095  0.0303
 2251W        W 6451   8.851   3.980   0.068 -0.2867 -0.2499 -0.1366
 2252W        W 6452   7.869   7.745   1.762  0.3302 -0.3500  0.1682
 2253W        W 6453   3.739   6.639   2.920 -0.1283  0.2320 -0.3182
 2254W        W 6454   4.989   8.280   2.492  0.2786  0.1367 -0.1189
 2255W        W 6455  10.041   0.202   0.257  0.2908  0.1305 -0.1166
 2256W        W 6456   2.128   6.925   3.262  0.1373  0.0944  0.0895
 2257W        W 6457   2.963   6.325  13.471  0.0539  0.0492  0.0603
 2258W        W 6458   2.051   4.220  10.618  0.0327 -0.0450  0.0401
 2259W        W 6459   5.104   4.469   9.261  0.0671 -0.2984 -0.0105
 2260W        W 6460   8.039   8.955  11.541  0.0624 -0.1527 -0.1269
 2261W        W 6461   9.948   2.768   4.977 -0.1098 -0.3429  0.1303
 2262W        W 6462   7.218   1.512  10.892 -0.0620  0.0456  0.0585
 2263W        W 6463   0.391   0.192   2.028 -0.0857 -0.1024  0.2948
 2264W        W 6464  10.396   3.259  12.679  0.1526  0.2935  0.2987
 2265W        W 6465   8.727   3.505  11.668  0.2222  0.0057  0.1162
 2266W        W 6466   7.355   3.285  12.209  0.0796 -0.1565 -0.0246
 2267W        W 6467   8.755   1.612   1.113 -0.1523  0.0759 -0.2245
 2268W        W 6468   9.466   9.026   0.003  0.1273  0.2751 -0.1792
 2269W        W 6469   5.363   4.487   1.030  0.4175 -0.0045  0.1669
 2270W        W 6470   1.980   0.763  10.988  0.0753  0.0595  0.4209
 2271W        W 6471   7.830   0.051  10.216  0.1114 -0.1170  0.4388
 2272W        W 6472   4.050   3.885   4.009 -0.0388  0.3043  0.0969
 2273W        W 6473   2.380   2.685   1.250 -0.1847 -0.1112 -0.0544
 2274W        W 6474   3.108   2.917   2.661 -0.0469 -0.1165  0.2474
 2275W        W 6475  10.116   9.679   8.444  0.1160 -0.1843  0.0637
 2276W        W 6476   5.668   8.156   0.727  0.1541  0.1489  0.0861
 2277W        W 6477   9.507   6.753  10.097  0.3480  0.1470  0.0279
 2278W        W 6478   6.330   3.569   4.313 -0.0992 -0.0863  0.0816
 2279W        W 6479   4.876   8.049   1.190 -0.0169 -0.0609  0.1694
 2280W        W 6480   1.486   9.837  12.596  0.1081 -0.2272 -0.4267
 2281W        W 6481   6.064   5.296   2.780  0.0710  0.1567  0.1880
 2282W        W 6482   1.305   8.198  10.474 -0.0433 -0.0244 -0.1826
 2283W        W 6483   7.706   1.865   0.332  0.1482 -0.0978 -0.0097
 2284W        W 6484   5.471   9.776   0.835  0.0330 -0.0234  0.3858
 2285W        W 6485   6.302   0.140  11.261  0.3370  0.2886  0.2815
 2286W        W 6486   6.408   5.043   3.030 -0.0513 -0.3727 -0.2121
 2287W        W 6487   0.496  10.392   3.863  0.0823 -0.0672 -0.0962
 2288W        W 6488   3.577   4.395  10.605 -0.2829 -0.1261 -0.1482
 2289W        W 6489   2.428   5.608   1.362  0.1587  0.1632 -0.1132
 2290W        W 6490   3.463   0.030   2.190 -0.2378 -0.0272 -0.1374
 2291W        W 6491   1.638   5.612   0.527  0.1748  0.0070  0.1203
 2292W        W 6492   4.984   4.127   4.273  0.0048 -0.2991 -0.0177
 2293W        W 6493  10.056   0.310  10.439  0.1674  0.0565 -0.1469
 2294W        W 6494   9.196   3.794   9.364  0.0125  0.1210  0.1585
 2295W        W 6495   1.725   6.568  12.059 -0.1076 -0.1045 -0.1477
 2296W        W 6496   4.724   6.013   1.817  0.0282  0.2074 -0.2804
 2297W        W 6497   8.338   6.466  11.112 -0.3315 -0.4200 -0.0769
 2298W        W 6498   9.254   5.893  13.139 -0.1355 -0.1813  0.0242
 2299W        W 6499   4.006   2.527   0.753 -0.1349 -0.2214 -0.2017
 2300W        W 6500   1.763   1.727   9.847  0.2773  0.0604  0.0493
 2301W        W 6501   1.348   2.525   4.128 -0.2588  0.2053 -0.1851
 2302W        W 6502   3.319   4.627   9.742  0.4200 -0.3633 -0.1455
 2303W        W 6503  10.300   4.241  12.761  0.3278 -0.0978 -0.1271
 2304W        W 6504   3.271   4.362   2.801 -0.0235 -0.0869 -0.0330
 2305W        W 6505   8.012   2.375   2.085  0.1334  0.1619 -0.0823
 2306W        W 6506   0.696   6.372   2.758 -0.2052  0.0219 -0.1066
 2307W        W 6507   2.346   5.467   3.076  0.1090  0.0110 -0.1362
 2308W        W 6508   5.966   5.440   4.838 -0.0421 -0.2444 -0.1140
 2309W        W 6509   0.782   4.409   1.186  0.1959 -0.0089 -0.1781
 2310W        W 6510   6.029   4.481   0.885  0.1115  0.1681  0.1516
 2311W        W 6511   0.228   9.960   2.386 -0.0759  0.1271 -0.0179
 2312W        W 6512   1.705  10.094  11.752 -0.1626  0.2242 -0.0959
 2313W        W 6513   3.640   3.761  10.073 -0.0421  0.2058 -0.1131
 2314W        W 6514   6.510  10.022   1.813 -0.3552  0.2932 -0.0298
 2315W        W 6515   8.743   1.861   8.754 -0.0761 -0.3062  0.4217
 2316W        W 6516   1.579   1.466  11.486  0.0147  0.2016  0.1980
 2317W        W 6517   2.610   5.049   0.662 -0.0874  0.0344  0.1062
 2318W        W 6518   5.429   4.120  11.217 -0.3346  0.0505  0.2910
 2319W        W 6519   2.881   9.562   4.491 -0.0923 -0.1075 -0.1252
 2320W        W 6520   3.499   8.337  11.820 -0.2736 -0.0033 -0.1032
 2321W        W 6521   3.348   6.231  10.023 -0.0321 -0.1842  0.0473
 2322W        W 6522   7.989   4.889   4.302 -0.0764  0.0219  0.1366
 2323W        W 6523   4.916   9.200   2.540  0.2058  0.2505  0.0908
 2324W        W 6524   5.479   3.548  10.219  0.0852 -0.1391 -0.0776
 2325W        W 6525   7.211   0.954   0.490  0.0864  0.0723 -0.0870
 2326W        W 6526   8.860   4.581   0.157  0.1164  0.0849  0.0059
 2327W        W 6527   0.836   6.145  13.412  0.0159  0.0509 -0.0589
 2328W        W 6528  10.067   1.483  12.061  0.1323 -0.0094 -0.0237
 2329W        W 6529   8.466   5.677   1.804 -0.1309  0.0763  0.0479
 2330W        W 6530   2.386   8.028   3.005 -0.4100  0.0085  0.2336
 2331W        W 6531   2.943   6.060   2.553  0.0334  0.1333  0.0149
 2332W        W 6532   0.813   1.886   2.071 -0.0196  0.1716 -0.2186
 2333W        W 6533   3.457   7.346  10.277 -0.0873  0.1387  0.1679
 2334W        W 6534   3.791   3.672  12.038  0.0371 -0.3077 -0.0170
 2335W        W 6535   4.145   3.145   3.564 -0.1381  0.2608  0.1873
 2336W        W 6536   9.607   9.450   2.873 -0.2396 -0.0544  0.2091
 2337W        W 6537   9.667   3.767   1.978 -0.2027  0.0823  0.0519
 2338W        W 6538   5.133   4.353   2.586  0.0860  0.1191  0.2167
 2339W        W 6539   9.439   6.526   1.739 -0.1435 -0.0334 -0.1016
 2340W        W 6540   1.289   2.012  12.855  0.2886 -0.1384 -0.1001
 2341W        W 6541   9.730   5.410   4.038  0.1244 -0.2666 -0.2438
 2342W        W 6542   8.671   9.547   2.678 -0.1589  0.1816  0.0169
 2343W        W 6543   3.531   9.630  13.487 -0.1361  0.0532  0.1205
 2344W        W 6544   1.225   2.268  13.270 -0.0315 -0.0032 -0.0824
 2345W        W 6545   2.385   5.250  10.844  0.1260  0.1192  0.1573
 2346W        W 6546   5.139   5.276   3.831  0.2798 -0.1959  0.1401
 2347W        W 6547   8.391   2.279  11.454 -0.1879 -0.1470 -0.1498
 2348W        W 6548   1.113   0.496   2.962 -0.1325  0.0507 -0.0191
 2349W        W 6549   7.797   6.961  13.044 -0.0350 -0.1540  0.1759
 2350W        W 6550   5.242   3.702  12.083  0.1356  0.2554 -0.3634
 2351W        W 6551   1.025   3.931   1.809  0.0833 -0.2424 -0.0308
 2352W        W 6552   5.677   0.610  13.107 -0.2437 -0.3648  0.0956
 2353W        W 6553   5.444   7.832  11.490  0.0593  0.0773 -0.0421
 2354W        W 6554  10.372   1.275  13.451 -0.1240  0.0051  0.2035
 2355W        W 6555   9.546  10.170   0.387  0.0256  0.0821 -0.1913
 2356W        W 6556   4.936   6.540   9.031 -0.1313 -0.3565  0.0233
 2357W        W 6557   8.354   2.787   3.563 -0.1402 -0.2748 -0.1518
 2358W        W 6558  10.212   9.047  12.873 -0.0179  0.2640 -0.1791
 2359W        W 6559   6.458   0.994   9.961 -0.0739  0.2314 -0.1015
 2360W        W 6560  10.323   2.589  13.418  0.0120 -0.0638 -0.1398
 2361W        W 6561   2.578   8.545   1.037 -0.0501 -0.0025  0.0787
 2362W        W 6562   2.641   4.696  11.822 -0.0103 -0.0067 -0.0088
 2363W        W 6563   8.041   1.076  11.061  0.0746 -0.0697  0.1052
 2364W        W 6564   1.673   4.483  11.614  0.2312  0.0708  0.2457
 2365W        W 6565   9.485   5.624  11.327  0.1536  0.2272 -0.0413
 2366W        W 6566   9.162   1.858  11.504  0.1339 -0.4729 -0.2560
 2367W        W 6567  10.110   1.880   4.730  0.2422  0.1550 -0.2404
 2368W        W 6568   6.032   2.308   1.734  0.0454 -0.2181 -0.0408
 2369W        W 6569   1.038   7.867   1.889 -0.0866 -0.2073 -0.1929
 2370W        W 6570   2.737   7.897  11.953 -0.0495 -0.0277  0.3176
 2371W        W 6571   9.024   5.092  13.604  0.0557  0.2491  0.1930
 2372W        W 6572   4.412   6.995   9.552 -0.0083 -0.2312 -0.1994
 2373W        W 6573   7.144   8.237  11.515 -0.3244 -0.1175  0.0317
 2374W        W 6574   3.496   0.321  12.141 -0.1472 -0.0220  0.0619
 2375W        W 6575   8.684   7.275   0.300 -0.0754  0.0153  0.1085
 2376W        W 6576   0.753   5.799   0.110  0.2244  0.1300 -0.2320
 2377W        W 6577   1.455   7.458   0.473  0.0521 -0.1841 -0.1766
 2378W        W 6578   5.469   2.662   3.934 -0.0985  0.0385 -0.0832
 2379W        W 6579   2.651   7.943   1.004 -0.0355 -0.3120 -0.5767
 2380W        W 6580   1.663   8.399  10.161  0.0579  0.2878  0.0831
 2381W        W 6581  10.130   2.797  12.562 -0.2830 -0.2190 -0.1901
 2382W        W 6582   3.000   1.609  11.606 -0.0602  0.1464 -0.0010
 2383W        W 6583   5.469   2.753   3.088  0.0688 -0.0890 -0.1033
 2384W        W 6584  10.394   4.455   4.542 -0.1543  0.2568  0.0125
 2385W        W 6585   1.758   1.765  11.012 -0.1575 -0.2624  0.1339
 2386W        W 6586   1.659   1.275   1.187  0.1273  0.0886  0.1923
 2387W        W 6587   7.317   6.022   2.230  0.2768 -0.1870 -0.0212
 2388W        W 6588   4.603   1.238   1.171  0.2352 -0.1938 -0.0101
 2389W        W 6589   9.208   8.201   2.951  0.2664  0.3073 -0.0405
 2390W        W 6590   6.212   2.855   0.218  0.3585  0.0501  0.0909
 2391W        W 6591  10.216   0.593   1.325 -0.0912 -0.1837  0.2729
 2392W        W 6592   6.245  10.087   2.902 -0.0580  0.1268 -0.0682
 2393W        W 6593   0.044   3.557   3.982 -0.0822  0.1969 -0.0623
 2394W        W 6594   9.666   7.272   0.313  0.1185 -0.0611  0.2410
 2395W        W 6595   5.488   9.874   1.535  0.0157  0.0026 -0.1547
 2396W        W 6596   7.078   7.326   0.670 -0.0340 -0.1020  0.1451
 2397W        W 6597   0.217   6.635  12.556  0.0937  0.1515  0.2246
 2398W        W 6598   1.602   7.928  10.815 -0.0472  0.1643 -0.0065
 2399W        W 6599   4.904   2.933   4.423 -0.0664  0.3576  0.2318
 2400W        W 6600   7.603   7.967   0.423 -0.0959 -0.1932  0.3603
 2401W        W 6601   7.302   6.324  10.896  0.2951  0.2512 -0.2474
 2402W        W 6602   0.066   1.445   9.688 -0.0745 -0.1747 -0.1250
 2403W        W 6603   9.777   3.184   2.835 -0.1676  0.0551 -0.2910
 2404W        W 6604   5.017   5.584   0.665 -0.2146  0.1190 -0.1088
 2405W        W 6605   9.622   0.682  13.237  0.0463 -0.0389  0.2726
 2406W        W 6606   8.046   3.420   9.690  0.0606  0.0369 -0.3117
 2407W        W 6607   0.096   6.905   1.837  0.0357  0.0939  0.2756
 2408W        W 6608   8.061   6.823   2.262  0.0590 -0.1384 -0.0752
 2409W        W 6609   6.469   5.533   3.027  0.1122  0.4410  0.0181
 2410W        W 6610   0.439   2.251  13.154  0.1732  0.1128 -0.0579
 2411W        W 6611   7.142   7.415  11.122 -0.0385  0.3085  0.1667
 2412W        W 6612   8.787   4.754  10.489  0.1261 -0.3845  0.1271
 2413W        W 6613   7.828   6.110  13.000 -0.1335 -0.3449  0.0181
 2414W        W 6614   2.111   2.669   0.816 -0.0379  0.1151  0.1660
 2415W        W 6615   8.566   5.178   4.673  0.2111 -0.2176 -0.3676
 2416W        W 6616   5.741   0.759   1.471  0.5115 -0.0522 -0.1852
 2417W        W 6617   9.152   0.418   0.870 -0.2284 -0.1091  0.0001
 2418W        W 6618   9.054   3.443   9.711  0.4977  0.0022  0.4643
 2419W        W 6619   1.571   8.701   8.716 -0.0618  0.0214  0.0318
 2420W        W 6620   8.564   4.634   9.222 -0.3157  0.0134 -0.0799
 2421W        W 6621   2.130   9.850  10.489 -0.0900  0.0682 -0.0292
 2422W        W 6622   6.799   0.480  10.536  0.4397 -0.1600  0.0551
 2423W        W 6623   8.300   9.019  13.322  0.2629 -0.2697  0.0778
 2424W        W 6624   1.822   5.615   9.927  0.2537 -0.1664 -0.2039
 2425W        W 6625   3.570   4.264  13.594  0.1346 -0.2937  0.1538
 2426W        W 6626   0.020   3.870   8.799 -0.1390 -0.0390  0.1531
 2427W        W 6627   8.417   7.967   2.466 -0.0174 -0.1286  0.0953
 2428W        W 6628   0.675   0.331  11.335  0.0963 -0.0812  0.3291
 2429W        W 6629   0.896   2.884   0.578  0.0010  0.4149  0.2078
 2430W        W 6630   7.421   0.510   2.306 -0.0334  0.0757 -0.1051
 2431W        W 6631   0.181   9.672   8.627  0.0512 -0.0152  0.0505
 2432W        W 6632   9.646   6.411  12.031  0.1798 -0.1304 -0.2275
 2433W        W 6633   5.122   0.321  10.278 -0.1116  0.2427 -0.0296
 2434W        W 6634  10.240   8.277   9.948  0.2898 -0.1791  0.0682
 2435W        W 6635  10.008   1.973  10.659 -0.1329  0.0298  0.1380
 2436W        W 6636   7.497   1.802   1.541  0.2823 -0.0250 -0.0896
 2437W        W 6637   3.091   2.745  13.542  0.2183  0.0159 -0.0116
 2438W        W 6638   4.562   5.780  12.327 -0.2613 -0.1617  0.4501
 2439W        W 6639   5.992   6.243  11.662  0.0133 -0.1565  0.0358
 2440W        W 6640   5.605   5.081   3.710 -0.3021  0.2673 -0.2529
 2441W        W 6641   1.043   1.275   9.922  0.2002  0.2173  0.0500
 2442W        W 6642   6.728   4.023   3.770  0.2620  0.2168 -0.2041
 2443W        W 6643   0.273   2.712  12.788 -0.1288  0.3590  0.3713
 2444W        W 6644   1.985   7.466  11.528 -0.0601  0.0038  0.0589
 2445W        W 6645   4.970   3.474   3.684  0.4375  0.0689 -0.0449
 2446W        W 6646   5.194   1.680   4.212  0.0449 -0.1422  0.1877
 2447W        W 6647   9.144  10.238   0.787  0.1817  0.1464 -0.0294
 2448W        W 6648   1.538   7.247   9.885 -0.1755  0.1411  0.0586
 2449W        W 6649   7.150   2.381   2.230 -0.2455 -0.0388  0.1909
 2450W        W 6650   4.851   0.359   9.298 -0.3518 -0.0730  0.1179
 2451W        W 6651   2.983   2.367   0.685 -0.0731 -0.0350  0.3296
 2452W        W 6652   5.414   1.119   1.952  0.2782 -0.1448  0.3749
 2453W        W 6653   4.143   8.968   5.146  0.2590  0.1944  0.2845
 2454W        W 6654   2.743   7.889  10.550 -0.2352 -0.0988  0.1322
 2455W        W 6655   2.128   4.586   3.425 -0.0008 -0.1827 -0.0350
 2456W        W 6656   0.767   1.587   0.294 -0.1973  0.2298 -0.2518
 2457W        W 6657   0.487   4.599   4.723  0.0588 -0.0087 -0.3828
 2458W        W 6658   6.974   0.689  12.511 -0.1292  0.0604  0.2955
 2459W        W 6659   3.132   7.898   2.468 -0.0625 -0.0136  0.1823
 2460W        W 6660   9.004   4.947   5.539  0.0448 -0.0073 -0.1735
 2461W        W 6661   9.933   5.132  11.747 -0.0611  0.0765  0.4131
 2462W        W 6662   5.025   2.878   3.956 -0.0792 -0.2169  0.0493
 2463W        W 6663   4.956   9.558   0.822  0.2435 -0.0708  0.0009
 2464W        W 6664   2.134   1.666  10.626 -0.0480  0.0546 -0.1426
 2465W        W 6665   8.639   4.051  12.514 -0.1798  0.5126  0.2001
 2466W        W 6666   6.110   1.098   2.502 -0.0459  0.0713 -0.0129
 2467W        W 6667   2.506   4.449  13.550  0.3828 -0.0675  0.0523
 2468W        W 6668   9.715   1.304   8.604  0.0959  0.1493 -0.1627
 2469W        W 6669   7.042   6.253   0.486 -0.1082 -0.1893  0.0520
 2470W        W 6670   0.396   0.645   2.348  0.0897  0.0993 -0.1324
 2471W        W 6671   3.425   4.214   9.133 -0.1893 -0.0257 -0.0175
 2472W        W 6672   7.219   3.947  10.926 -0.1827  0.1479  0.1634
 2473W        W 6673   2.384   3.010  11.362  0.0517 -0.0787  0.1644
 2474W        W 6674   0.522   2.117   4.417 -0.0448 -0.1432  0.0153
 2475W        W 6675  10.026   1.811   0.096  0.2836  0.0546 -0.1284
 2476W        W 6676   7.964   9.332  11.239  0.0773  0.0467 -0.2392
 2477W        W 6677   4.514   1.937  13.162  0.0040  0.3613  0.0902
 2478W        W 6678   2.313   1.079   9.453 -0.1103  0.2343 -0.3084
 2479W        W 6679   5.746   9.773   1.979 -0.1413  0.0618 -0.1420
 2480W        W 6680   0.226   7.416   0.404  0.0693 -0.0717 -0.0328
 2481W        W 6681   3.693   1.952   0.084 -0.0059  0.1031  0.1786
 2482W        W 6682   6.184   5.912   3.068 -0.0775  0.1233 -0.0923
 2483W        W 6683   8.857   0.121  11.250  0.1321 -0.2008 -0.1825
 2484W        W 6684   7.820   5.145  11.030  0.0338 -0.3261 -0.0240
 2485W        W 6685   3.602   8.408  12.304  0.0208  0.0024  0.3666
 2486W        W 6686   4.119   0.948   2.604 -0.0648 -0.2509 -0.0534
 2487W        W 6687   0.659   8.448   3.818  0.3948 -0.5166  0.4842
 2488W        W 6688   9.333   0.824   1.129 -0.0361  0.2545 -0.1800
 2489W        W 6689   3.439   6.583   9.656  0.1838 -0.1781  0.0329
 2490W        W 6690   5.457  10.026  13.384  0.1885  0.0803  0.1540
 2491W        W 6691   5.519  10.012  10.447 -0.0148  0.1032 -0.1543
 2492W        W 6692   9.258   5.492   1.529 -0.0530  0.0878  0.0170
 2493W        W 6693   2.815   1.181   0.471 -0.0531 -0.1758 -0.2772
 2494W        W 6694   6.583   8.920   0.599 -0.1602 -0.0192 -0.1298
 2495W        W 6695   0.602   6.620   3.626 -0.2652  0.1902  0.2576
 2496W        W 6696   6.227   4.890   3.836  0.5159 -0.1714  0.1775
 2497W        W 6697   1.154   8.478   2.654  0.2204  0.3904  0.0103
 2498W        W 6698   3.287   0.668  11.845  0.1979  0.2228 -0.1654
 2499W        W 6699   5.537   6.418  11.622  0.2453 -0.2327 -0.0106
 2500W        W 6700   7.914   3.522  12.231 -0.3597  0.1294 -0.2800
 2501W        W 6701   1.678   7.256   9.408  0.0658  0.0777 -0.4269
 2502W        W 6702   0.294   7.238  13.618  0.1596  0.3683  0.0761
 2503W        W 6703   0.002   5.836   2.202 -0.2914 -0.3064  0.1372
 2504W        W 6704   3.691   2.924   0.565  0.0529 -0.2261 -0.1299
 2505W        W 6705   1.620   9.370  12.178  0.2558 -0.1800  0.1582
 2506W        W 6706   8.572   2.775   2.678  0.1943 -0.0350  0.3284
 2507W        W 6707   9.565   1.455   9.905  0.3145  0.0218  0.1912
 2508W        W 6708   7.268  10.246  12.388  0.1356  0.0969 -0.4737
 2509W        W 6709   1.661   8.860  11.237 -0.0087  0.1080  0.1280
 2510W        W 6710   1.776   9.866  11.298  0.1555  0.0122 -0.0779
 2511W        W 6711   4.985   0.364   2.743  0.1179 -0.0430 -0.0469
 2512W        W 6712   8.194   5.400  10.919 -0.1530 -0.1264 -0.0634
 2513W        W 6713   8.415   5.035  10.679 -0.3082 -0.2429 -0.0166
 2514W        W 6714   9.922   3.124  11.257  0.1053  0.2208 -0.0534
 2515W        W 6715   7.144   4.397  10.074 -0.0885  0.0997  0.0930
 2516W        W 6716   8.358   7.385   9.864  0.0432 -0.0244  0.0436
 2517W        W 6717   2.476   8.805   9.187  0.2544  0.2109 -0.0551
 2518W        W 6718   5.144   1.904   0.592  0.1566 -0.0552  0.4201
 2519W        W 6719   6.183   1.834  12.683 -0.5314  0.0538  0.2986
 2520W        W 6720   6.597   6.784   1.829  0.1693 -0.0700 -0.0453
 2521W        W 6721   5.761  10.394   3.050  0.2672  0.0491  0.1103
 2522W        W 6722   2.629   2.026   1.966 -0.0982 -0.1530  0.2109
 2523W        W 6723  10.067   5.436   2.017 -0.1328 -0.0574  0.0252
 2524W        W 6724   1.220   0.733   8.724 -0.3491 -0.0523  0.4137
 2525W        W 6725   3.732   2.692   4.366  0.1782  0.2643  0.2302
 2526W        W 6726   0.887   0.443   9.431  0.0070  0.0442 -0.0215
 2527W        W 6727   3.079   5.571   2.364 -0.1698 -0.0263  0.0061
 2528W        W 6728   3.537   9.971   3.939  0.3653  0.0991 -0.1243
 2529W        W 6729   3.458   1.757  11.441  0.0458  0.1642  0.1574
 2530W        W 6730   7.716   5.167   3.952  0.1261  0.3481  0.0136
 2531W        W 6731   6.210   1.699  11.385  0.3210  0.1070  0.3020
 2532W        W 6732   5.668   9.305   2.266  0.0470 -0.0727  0.4376
 2533W        W 6733   4.097   6.381  11.716 -0.1725 -0.0948 -0.1098
 2534W        W 6734   1.612   6.484   0.362  0.1233 -0.0665 -0.1307
 2535W        W 6735   3.652   5.739   4.789  0.0716 -0.2844  0.1101
 2536W        W 6736   0.552   7.597  12.351 -0.2748  0.1031  0.0430
 2537W        W 6737   4.344   2.374   5.080  0.1274 -0.0207  0.0081
 2538W        W 6738   2.564   1.386  11.835  0.0519  0.1567  0.2676
 2539W        W 6739   7.730   7.291   2.064 -0.3095  0.0407 -0.0364
 2540W        W 6740   4.503   4.028   3.810 -0.0313 -0.0807 -0.1475
 2541W        W 6741   1.900   5.504   5.268  0.0254 -0.0118  0.1683
 2542W        W 6742   0.493   2.977   3.825 -0.0713 -0.0079 -0.0194
 2543W        W 6743   8.106  10.140  10.508  0.1943  0.3880  0.2141
 2544W        W 6744   6.412  10.043   1.302 -0.0472 -0.2648  0.0631
 2545W        W 6745   3.033   6.063  12.253 -0.1970 -0.5439  0.0714
 2546W        W 6746   2.384   5.236   5.198 -0.0875  0.1986  0.0180
 2547W        W 6747   8.061   2.472   1.446  0.6911 -0.4566 -0.0600
 2548W        W 6748   7.745   4.041   9.205 -0.0735 -0.3251  0.0525
 2549W        W 6749   0.008   1.558   4.938  0.0096  0.1892  0.1740
 2550W        W 6750   9.849   6.884   3.557  0.1496  0.0892 -0.2254
 2551W        W 6751   5.798   5.784  10.085  0.0200 -0.0502 -0.2526
 2552W        W 6752   4.361   5.067   2.327  0.4036  0.0291 -0.1487
 2553W        W 6753   9.881   5.053   3.409 -0.3421 -0.0045 -0.2557
 2554W        W 6754   5.442   4.535   1.838  0.1639 -0.0580  0.2496
 2555W        W 6755   0.488   4.713   9.808 -0.1465 -0.0764 -0.1527
 2556W        W 6756   2.696   7.406   1.789 -0.0083  0.0660 -0.1169
 2557W        W 6757   5.945   9.414  10.644 -0.1617 -0.2414 -0.1177
 2558W        W 6758   9.572   9.810  12.861  0.0678  0.1502 -0.2149
 2559W        W 6759  10.094   0.060   9.811  0.2521 -0.2189 -0.4079
 2560W        W 6760   5.495   2.747   2.469 -0.3357 -0.4561  0.1385
 2561W        W 6761   6.312   4.589  12.235  0.3138  0.1474 -0.1318
 2562W        W 6762   6.228   8.333   1.332  0.1784 -0.1369  0.1440
 2563W        W 6763  10.343   3.998   3.721  0.0628  0.0112  0.0241
 2564W        W 6764   2.697   9.631   1.922  0.0147 -0.0410 -0.4997
 2565W        W 6765   0.212   2.427   1.147 -0.2811 -0.1316  0.2814
 2566W        W 6766   9.062   5.600  13.492 -0.0587  0.3582 -0.0837
 2567W        W 6767   8.567   4.793   1.000 -0.1017 -0.2219 -0.2627
 2568W        W 6768   7.642   2.235   2.421 -0.1128 -0.2589  0.1838
 2569W        W 6769   2.185   3.281   4.941  0.3292 -0.3189  0.0782
 2570W        W 6770   9.462   4.296  10.713  0.0726  0.3905  0.1848
 2571W        W 6771   6.978   8.668  10.416 -0.2195  0.0371 -0.1938
 2572W        W 6772   5.917   8.283   9.471  0.1850 -0.2026 -0.2058
 2573W        W 6773  10.361   5.347  11.288  0.1152 -0.2789 -0.3565
 2574W        W 6774   6.151   1.472   1.959 -0.1650 -0.4018  0.0599
 2575W        W 6775   6.401   4.641   4.704 -0.0677 -0.2625  0.2372
 2576W        W 6776   7.833   6.689   0.996  0.1658 -0.0593 -0.0195
 2577W        W 6777   0.678   7.710  10.972  0.1589 -0.1818 -0.2137
 2578W        W 6778   0.178   8.192  11.854  0.0080 -0.1635 -0.0520
 2579W        W 6779   1.740   4.313   3.041 -0.1410  0.0474 -0.0559
 2580W        W 6780   3.602   9.197   3.297  0.0921 -0.2295 -0.0637
 2581W        W 6781   9.532   4.023   2.743 -0.2528  0.1313  0.0687
 2582W        W 6782   3.617   4.810  13.563  0.0622  0.1410  0.1354
 2583W        W 6783   4.543   5.853  10.782 -0.3428 -0.1891 -0.2921
 2584W        W 6784   1.551   9.612  10.416  0.0993  0.1083 -0.1543
 2585W        W 6785   8.555   4.333  10.567 -0.0674 -0.3309  0.4461
 2586W        W 6786   5.782   9.092   9.919 -0.1865 -0.1167 -0.2912
 2587W        W 6787   2.807   4.314   1.283  0.1255 -0.2394 -0.0360
 2588W        W 6788   9.963   8.781   2.217 -0.2048  0.0037  0.3155
 2589W        W 6789   9.893   6.363   3.525  0.0684  0.4657 -0.0017
 2590W        W 6790   8.079   9.412  11.747  0.1290 -0.3195 -0.0104
 2591W        W 6791   6.228   4.474   0.429 -0.2765 -0.3379 -0.0354
 2592W        W 6792   8.549   6.194   1.783  0.3095 -0.0229 -0.0494
 2593W        W 6793   4.874   3.087  13.424  0.0916 -0.1594 -0.0212
 2594W        W 6794   0.637   1.338   2.908  0.1343  0.0946  0.1253
 2595W        W 6795   7.530  10.281   2.848  0.2703 -0.1184 -0.0014
 2596W        W 6796   5.860   1.498  11.098 -0.4499  0.0077 -0.1542
 2597W        W 6797   7.118   3.613   4.628  0.0654 -0.0019 -0.2470
 2598W        W 6798   5.087   3.776  11.098 -0.1966 -0.0729  0.0064
 2599W        W 6799   3.428   8.503   1.643  0.4101 -0.3604 -0.1354
 2600W        W 6800   0.218   6.123   8.790 -0.0130 -0.0681 -0.2224
 2601W        W 6801   4.051   9.825   0.885  0.3898  0.3604 -0.2454
 2602W        W 6802   2.181   8.822   2.379  0.1354 -0.2401 -0.1882
 2603W        W 6803   6.781   2.361   4.208  0.1021 -0.2570 -0.1848
 2604W        W 6804   0.349   1.937  11.748  0.1818 -0.4754 -0.0462
 2605W        W 6805   4.904   8.705   0.997  0.0169  0.3314  0.3529
 2606W        W 6806   6.928   2.353   2.704 -0.1056  0.0690  0.0622
 2607W        W 6807   3.503   0.486  13.188 -0.4520  0.0263 -0.1694
 2608W        W 6808   9.034   2.204   9.399 -0.2135 -0.0581  0.0856
 2609W        W 6809   2.219   4.991  11.790 -0.0766 -0.0966 -0.0320
 2610W        W 6810   1.168   9.362  12.525  0.4824  0.0128 -0.0195
 2611W        W 6811   7.253   0.262  10.517 -0.1143  0.2062 -0.0711
 2612W        W 6812  10.268  10.360   2.708  0.3173 -0.0130  0.3102
 2613W        W 6813   7.178   9.118   2.336 -0.2715 -0.1897 -0.0834
 2614W        W 6814   9.214   0.430  12.820 -0.1868  0.1084  0.0446
 2615W        W 6815   0.633   9.593   2.366  0.0394 -0.3761 -0.0289
 2616W        W 6816   5.017   4.449  10.377 -0.2483  0.1163 -0.1712
 2617W        W 6817   0.397   3.973   2.375 -0.1077  0.0112  0.1153
 2618W        W 6818   2.799   7.169  11.033  0.0124 -0.0067  0.0820
 2619W        W 6819   4.056   7.677   1.250 -0.1916  0.1630 -0.0340
 2620W        W 6820   2.285   5.832  10.120  0.1365 -0.0453 -0.3694
 2621W        W 6821   8.242   5.163   1.635 -0.0805 -0.0901 -0.1823
 2622W        W 6822   7.726   0.740   3.174 -0.0896 -0.0052  0.1210
 2623W        W 6823   8.455   4.246   9.641 -0.1873  0.0929 -0.3135
 2624W        W 6824   8.327   3.780   0.833  0.0065 -0.0225 -0.0598
 2625W        W 6825   2.542   7.565   9.128 -0.2611  0.1363 -0.1269
 2626W        W 6826   1.524   7.715  11.333 -0.1752 -0.2408 -0.0898
 2627W        W 6827   5.581   2.422  10.434 -0.3471 -0.0994  0.0156
 2628W        W 6828   3.671  10.161   1.051 -0.1786 -0.0888  0.1819
 2629W        W 6829   4.351   7.902  10.565 -0.0115 -0.2123 -0.0892
 2630W        W 6830   6.306   9.678   0.168  0.1729 -0.1891  0.4033
 2631W        W 6831  10.056   3.308   9.363 -0.1996 -0.2268 -0.3083
 2632W        W 6832   8.458   4.395  12.176 -0.2772 -0.1555 -0.1872
 2633W        W 6833   5.952   6.503   3.671  0.4602 -0.2412  0.1361
 2634W        W 6834   5.395   0.049   9.411 -0.0398 -0.1089  0.1716
 2635W        W 6835   0.132   5.689   0.094 -0.2008 -0.0183  0.2360
 2636W        W 6836   0.034   3.691   3.340 -0.0844 -0.2555  0.0497
 2637W        W 6837   4.394   4.567   0.019  0.0536 -0.1185  0.2203
 2638W        W 6838   0.470   1.352   9.976  0.0431 -0.3640  0.3914
 2639W        W 6839   5.127   7.291   3.717 -0.2599 -0.1596  0.2938
 2640W        W 6840   8.491   2.782   9.195  0.1556 -0.2406  0.1270
 2641W        W 6841   2.196   6.730   2.292  0.1566  0.0210  0.6488
 2642W        W 6842   8.936   3.557   3.770 -0.2888  0.1983 -0.1672
 2643W        W 6843   2.124  10.125   8.975 -0.1547  0.0052 -0.1100
 2644W        W 6844   9.746   5.837  10.333 -0.1347 -0.2741  0.0302
 2645W        W 6845   5.693   9.603  11.422  0.0489 -0.2420  0.2186
 2646W        W 6846   0.218   3.040   8.664  0.0483  0.2002  0.1112
 2647W        W 6847   2.234   4.864  13.302 -0.2522 -0.0542  0.1541
 2648W        W 6848   4.777   5.745  13.037 -0.1396  0.3968 -0.1856
 2649W        W 6849   6.519   7.320   2.492  0.0834 -0.1975 -0.0788
 2650W        W 6850   5.673   8.684   1.435 -0.0972  0.0264  0.1274
 2651W        W 6851   8.978   1.198  13.407 -0.1833  0.0656 -0.0815
 2652W        W 6852   8.661   0.709   2.882  0.0111  0.0962  0.0381
 2653W        W 6853   8.424   4.208   0.305  0.0223 -0.1022  0.2552
 2654W        W 6854   4.873   5.050   4.505 -0.0699  0.1974 -0.0674
 2655W        W 6855   3.133   6.257   1.712  0.0023 -0.2153  0.0447
 2656W        W 6856   3.991   1.693  12.547 -0.1006 -0.0589 -0.2553
 2657W        W 6857   5.417   6.041   2.587  0.0255 -0.2127  0.0479
 2658W        W 6858   3.233   4.424   8.668  0.0482  0.1970 -0.0133
 2659W        W 6859   4.597   2.623   4.064  0.1740 -0.0622  0.1970
 2660W        W 6860   4.310   7.475   1.875  0.0829 -0.1948  0.0373
 2661W        W 6861   8.786   7.930  11.200 -0.1476 -0.1709 -0.2264
 2662W        W 6862   7.630   2.669  12.107 -0.3176 -0.1470 -0.2357
 2663W        W 6863   9.360   4.792  13.344  0.3073 -0.1505  0.0542
 2664W        W 6864   6.746   2.057  12.201 -0.1903 -0.2968 -0.1103
 2665W        W 6865   8.483   8.400  11.153 -0.2519 -0.0107  0.2138
 2666W        W 6866   5.515   3.552   0.484 -0.2057 -0.3514  0.2646
 2667W        W 6867   2.640   4.861   0.196 -0.0503  0.0990 -0.0306
 2668W        W 6868   1.811   7.336  11.968 -0.1343 -0.1513  0.0293
 2669W        W 6869   5.757   4.843  11.594  0.0532 -0.1306  0.0373
 2670W        W 6870   2.900  10.326  10.473 -0.0884 -0.0476  0.0307
 2671W        W 6871   5.043   6.249  12.291 -0.1629 -0.1064  0.0955
 2672W        W 6872   6.812   2.467  13.166 -0.2087 -0.3453  0.2875
 2673W        W 6873   8.946  10.213  10.833  0.1409  0.0314 -0.2481
 2674W        W 6874   9.423   9.200  12.424  0.3025  0.0370 -0.2199
 2675W        W 6875   0.606   7.078   1.789 -0.1067  0.0106  0.1349
 2676W        W 6876   1.346   3.630   4.011  0.1038 -0.1463 -0.2753
 2677W        W 6877   4.741   4.520  12.263  0.1544 -0.2772  0.1841
 2678W        W 6878   4.448   4.945  10.946 -0.2300 -0.0372  0.0725
 2679W        W 6879   7.989   2.015   1.629  0.2206 -0.2358 -0.2728
 2680W        W 6880   9.324   7.570   9.319  0.3837  0.0738 -0.2460
 2681W        W 6881   6.771  10.252   2.218 -0.2142  0.0700  0.0995
 2682W        W 6882   4.176   3.831   2.395  0.1790 -0.0048 -0.1005
 2683W        W 6883   4.074   6.994   2.765  0.2690 -0.1417  0.3943
 2684W        W 6884   9.886   8.438  12.558 -0.0688 -0.1397 -0.4200
 2685W        W 6885   1.688   6.632   2.509 -0.0126  0.1221  0.3475
 2686W        W 6886   6.499   5.160   3.493  0.0048  0.2233 -0.0402
 2687W        W 6887   3.484   2.116  12.659 -0.3726 -0.0348 -0.1227
 2688W        W 6888   8.479   7.209   1.141  0.0652 -0.0536  0.1410
 2689W        W 6889   0.933   1.725   8.660  0.4143 -0.2290 -0.0779
 2690W        W 6890   4.586   3.912   1.562 -0.0056 -0.0811 -0.2714
 2691W        W 6891   5.145   6.359  10.539  0.2080 -0.1543 -0.1238
 2692W        W 6892   8.692   3.950  10.212 -0.2893 -0.2318 -0.1316
 2693W        W 6893   0.338   5.152  12.161  0.2422 -0.0504  0.2324
 2694W        W 6894  10.316   4.544   1.854  0.2543  0.0722  0.1540
 2695W        W 6895   4.963   2.694   9.570  0.3806  0.0814  0.0725
 2696W        W 6896   5.368   7.960   2.134 -0.2814  0.0686  0.0250
 2697W        W 6897   8.666   9.388  12.537  0.2121  0.2170  0.0451
 2698W        W 6898   5.367   2.207   4.145  0.0868 -0.2037  0.3311
 2699W        W 6899   4.814   1.608  11.324 -0.0801  0.0162  0.2424
 2700W        W 6900   3.960   7.729   2.171  0.3437  0.0413  0.1011
 2701W        W 6901   8.891   4.880   2.156 -0.0183 -0.0542  0.1204
 2702W        W 6902   5.859   0.626   0.548  0.4379  0.0897  0.1734
 2703W        W 6903   4.678   2.175   9.596  0.1224  0.3513 -0.1645
 2704W        W 6904   0.296   4.629   2.712 -0.1987  0.1235 -0.1500
 2705W        W 6905   3.333   7.075  11.733 -0.1998 -0.3012 -0.2402
 2706W        W 6906   2.756   0.306   1.560  0.3393  0.0981 -0.0424
 2707W        W 6907   1.343   5.553  10.050  0.3589 -0.0067  0.0326
 2708W        W 6908   4.246   2.531  12.775  0.0528 -0.5778  0.1274
 2709W        W 6909   3.281   0.258   3.020  0.3618 -0.0909 -0.1524
 2710W        W 6910   1.226   9.551  13.055  0.0532 -0.1181  0.2389
 2711W        W 6911   7.779   9.983   3.103 -0.0643 -0.0457  0.0608
 2712W        W 6912   7.168   6.172   1.759 -0.0029  0.2211 -0.0859
 2713W        W 6913   5.002   2.998  10.594 -0.1595 -0.1341 -0.1213
 2714W        W 6914   9.193   7.012  10.657  0.1251 -0.0810  0.0879
 2715W        W 6915   3.510   5.803   9.242 -0.1533  0.0164 -0.2503
 2716W        W 6916   9.492   5.371  12.933 -0.1667  0.0226  0.0239
 2717W        W 6917   0.741   1.314   1.952  0.0763  0.0575  0.2315
 2718W        W 6918   3.489   5.002   4.343 -0.3041 -0.0951  0.0698
 2719W        W 6919   4.680   3.947   9.924  0.0333 -0.0638  0.0283
 2720W        W 6920   0.487   1.761   4.080 -0.2734  0.1074  0.1276
 2721W        W 6921   3.837   8.818  13.602  0.0354 -0.1215 -0.5312
 2722W        W 6922   6.734   2.728  10.335  0.2207 -0.1150  0.1063
 2723W        W 6923   9.935   9.377  13.439 -0.0943  0.2405  0.0630
 2724W        W 6924   4.393   9.369   0.313 -0.0002  0.2604  0.1293
 2725W        W 6925   8.222   6.647   4.196 -0.0418 -0.2111  0.2143
 2726W        W 6926   0.190   8.347   1.744 -0.1342  0.0446 -0.1069
 2727W        W 6927   5.547   6.900   3.776  0.1359  0.1797  0.1724
 2728W        W 6928   3.802   8.813   1.162 -0.0812  0.2671  0.1397
 2729W        W 6929   4.281   1.154  13.388  0.2171  0.0806 -0.1062
 2730W        W 6930   2.228   0.190   1.608 -0.0336 -0.1811 -0.1313
 2731W        W 6931   2.212   5.808   8.885 -0.0815 -0.3156 -0.0662
 2732W        W 6932   8.270   5.406   3.600  0.0209 -0.2910  0.2008
 2733W        W 6933   6.718   0.403  12.869  0.4673 -0.2074 -0.3673
 2734W        W 6934   6.954   2.086   0.159 -0.1536 -0.3420  0.3379
 2735W        W 6935   3.664   5.454   9.590  0.1657 -0.2466  0.2356
 2736W        W 6936   2.045   2.187  11.235  0.1080 -0.0897 -0.2895
 2737W        W 6937   7.886   2.513   4.896 -0.1980 -0.3328  0.0777
 2738W        W 6938  10.140   1.890  11.650  0.4294 -0.0275  0.1712
 2739W        W 6939   6.788   3.009   2.998  0.2818  0.1338 -0.1493
 2740W        W 6940   8.197   4.814   1.322  0.0147  0.1854  0.1153
 2741W        W 6941   8.827   1.343   1.647  0.0411  0.1551  0.1612
 2742W        W 6942   0.216   4.099   1.876 -0.0124  0.1552  0.1897
 2743W        W 6943   0.215   8.185   1.004  0.1873 -0.2591  0.2464
 2744W        W 6944   1.447   5.615   4.181 -0.0751 -0.3581  0.1378
 2745W        W 6945   7.490   7.011   0.217  0.0472 -0.2704 -0.0141
 2746W        W 6946   9.310   0.816   3.566  0.2608  0.0845 -0.0864
 2747W        W 6947   9.394   3.710  13.577  0.0226 -0.0425  0.1335
 2748W        W 6948   1.594   3.857   4.440 -0.4130  0.0244 -0.5098
 2749W        W 6949   7.848  10.372   1.889  0.1096 -0.3917 -0.1858
 2750W        W 6950   2.314   9.658   9.038 -0.1627  0.0311 -0.0538
 2751W        W 6951   7.334   5.305  12.777 -0.0511  0.0981 -0.0895
 2752W        W 6952   4.086   6.646   9.737 -0.1069  0.3571 -0.0308
 2753W        W 6953   4.686   3.349  10.916 -0.0108 -0.1162 -0.0620
 2754W        W 6954   0.999   7.194  11.687  0.1720  0.1215  0.0386
 2755W        W 6955   0.829   1.040   3.627  0.1312  0.1310 -0.1432
 2756W        W 6956   6.465   0.427  10.025  0.1210 -0.0193 -0.3594
 2757W        W 6957   4.023   0.576   8.781 -0.0967  0.1105 -0.0091
 2758W        W 6958   7.578   1.185  11.207  0.0390  0.0277 -0.0526
 2759W        W 6959   4.080   5.498   2.224 -0.0595  0.1629 -0.1679
 2760W        W 6960   6.653   2.760   1.359 -0.4501 -0.1187  0.1394
 2761W        W 6961   8.091   1.524   4.562 -0.0396  0.0145  0.0404
 2762W        W 6962  10.326   2.316   4.419  0.0214  0.2003  0.4932
 2763W        W 6963   6.194   6.642  11.336 -0.1437  0.2712 -0.0094
 2764W        W 6964   8.541   8.387   2.133 -0.4144 -0.0108 -0.0087
 2765W        W 6965   7.559   0.091   0.482 -0.0273 -0.0983 -0.0016
 2766W        W 6966   0.342   7.093   1.379 -0.1245 -0.5787 -0.1052
 2767W        W 6967   6.912   4.788   4.823  0.1479 -0.1097 -0.2220
 2768W        W 6968   3.104   6.478   4.152 -0.0840 -0.0851  0.1833
 2769W        W 6969   2.781   3.234  11.918 -0.0710 -0.2724  0.4263
 2770W        W 6970   9.181   4.064   1.369 -0.2095 -0.0325  0.2932
 2771W        W 6971   4.036  10.129  11.709  0.1287  0.2159  0.0050
 2772W        W 6972   0.508   5.382   0.455  0.0193 -0.2450 -0.1065
 2773W        W 6973   1.075   3.627   2.276  0.0890  0.2038 -0.0032
 2774W        W 6974   5.796   0.994  10.361 -0.0201 -0.1366 -0.0889
 2775W        W 6975   2.146   8.693   0.866  0.0363  0.0091 -0.0471
 2776W        W 6976   1.418   4.210  12.791 -0.1558  0.2653  0.4871
 2777W        W 6977   7.938   3.063   0.712  0.1761  0.0467 -0.0586
 2778W        W 6978   6.362   8.678   2.288 -0.2447 -0.0749 -0.0907
 2779W        W 6979   8.540   5.830   4.092 -0.1205  0.0418 -0.0217
 2780W        W 6980   6.588   6.210  13.100 -0.1557 -0.0078  0.2044
 2781W        W 6981   3.401   6.523  12.043  0.1601  0.1624 -0.2052
 2782W        W 6982   7.428   3.116   2.569 -0.1292  0.0358  0.0285
 2783W        W 6983   6.340   2.345   2.163  0.3219 -0.2327  0.0823
 2784W        W 6984   8.017   6.044  12.303 -0.0418  0.2191 -0.1625
 2785W        W 6985   4.214   1.422   2.531  0.4105 -0.2401  0.1836
 2786W        W 6986   9.079   3.325  13.109 -0.0020  0.1922  0.1335
 2787W        W 6987   8.063   7.486  11.546 -0.0764 -0.3180 -0.2508
 2788W        W 6988   4.545   5.134  11.458 -0.2651  0.0014 -0.3115
 2789W        W 6989   2.422  10.237  10.482 -0.3525  0.0309  0.1799
 2790W        W 6990   9.312   8.862   3.912  0.0675 -0.2138  0.0373
 2791W        W 6991   4.850   1.188  13.401 -0.1964 -0.0588  0.1763
 2792W        W 6992   6.291   6.997   9.048  0.3163  0.0656 -0.2386
 2793W        W 6993  10.036   3.310   2.069  0.1076 -0.0829 -0.0234
 2794W        W 6994   7.877   6.466  11.317  0.0193  0.0296  0.0420
 2795W        W 6995   7.081   8.718  11.549 -0.3186 -0.0444  0.0154
 2796W        W 6996   1.741   0.497   0.578  0.2549  0.0145  0.0588
 2797W        W 6997   5.867   4.340   0.028  0.1335  0.1536 -0.3643
 2798W        W 6998   7.173   5.741   3.683 -0.0892 -0.1883 -0.0521
 2799W        W 6999   8.745   3.568   9.297 -0.0530  0.2137 -0.2000
 2800W        W 7000   1.858   6.970   1.726  0.2247  0.2414 -0.1290
 2801W        W 7001   4.066   1.691   0.249 -0.1151  0.0410 -0.1099
 2802W        W 7002   1.623   6.828  13.220  0.0892 -0.2057 -0.0481
 2803W        W 7003   4.150   3.493   3.219 -0.0282 -0.2374 -0.0266
 2804W        W 7004   2.207   8.967   4.476 -0.0939 -0.1495 -0.0339
 2805W        W 7005   2.784   0.285   2.917  0.1270  0.2862  0.1007
 2806W        W 7006   4.521   1.602  13.559 -0.3326  0.1275 -0.1763
 2807W        W 7007   0.809   8.434  11.341 -0.0166 -0.3192  0.5321
 2808W        W 7008   1.076   8.058   0.458  0.0810 -0.2112  0.1816
 2809W        W 7009   2.809   3.611   9.080  0.3940 -0.1552 -0.2898
 2810W        W 7010   3.865   0.412  11.794 -0.0892  0.0546  0.0342
 2811W        W 7011   0.801   8.419  10.368 -0.0320 -0.1777 -0.3576
 2812W        W 7012   7.509   7.920   9.950  0.0957 -0.1702  0.0556
 2813W        W 7013   5.141   6.144   3.439  0.1453  0.1240 -0.3535
 2814W        W 7014   4.074   0.024  10.298 -0.2080 -0.0178  0.0897
 2815W        W 7015   1.190   9.490   1.584 -0.1338  0.1653 -0.3108
 2816W        W 7016   1.488   4.736  11.195  0.0917 -0.1224 -0.0442
 2817W        W 7017   5.193   9.057   9.594  0.0878 -0.1091  0.2630
 2818W        W 7018   9.733   5.689   1.726 -0.2515 -0.6031 -0.0852
 2819W        W 7019   6.565   8.330   3.001  0.1727  0.1623  0.0613
 2820W        W 7020   4.225   3.073   4.473  0.0508  0.1029  0.0013
 2821W        W 7021   9.482   1.262   3.346 -0.3075  0.2771  0.2854
 2822W        W 7022   4.558   7.357  11.236 -0.1488 -0.1635 -0.2547
 2823W        W 7023   1.981   5.511  11.651 -0.2684  0.1335  0.0239
 2824W        W 7024   3.587   9.737   0.332 -0.0174  0.0895 -0.0932
 2825W        W 7025   6.705   5.633  10.418  0.2257  0.0035 -0.1797
 2826W        W 7026   7.245   5.071  12.147  0.1151 -0.2551 -0.0177
 2827W        W 7027   3.521   4.633   3.247  0.2430  0.1371  0.0458
 2828W        W 7028   3.950   1.814   2.075  0.3220 -0.3689 -0.2136
 2829W        W 7029   2.115   3.159   1.759  0.2949  0.1465  0.1505
 2830W        W 7030   1.202   6.496  13.224  0.2305  0.1349 -0.1565
 2831W        W 7031   7.284   7.662   3.754 -0.0104 -0.1459  0.1821
 2832W        W 7032   0.501   9.105   1.876 -0.2756 -0.1951 -0.0126
 2833W        W 7033   1.077   3.365  10.785 -0.3312  0.2716  0.2851
 2834W        W 7034   0.911   9.914   9.662 -0.3288  0.0623  0.2569
 2835W        W 7035   1.329   2.794  11.347  0.1918 -0.0856 -0.2869
 2836W        W 7036   8.247   0.949  12.233  0.0264 -0.2069 -0.2186
 2837W        W 7037   7.148   4.923   1.325 -0.0729 -0.1706  0.0039
 2838W        W 7038   7.337   1.014   3.363  0.1438  0.2001  0.0265
 2839W        W 7039   9.622   0.895   9.713  0.0795  0.0244 -0.2121
 2840W        W 7040   2.667   6.063   9.588  0.1972 -0.1171 -0.0329
 2841W        W 7041   4.377   0.694  10.930  0.0171 -0.1502  0.0737
 2842W        W 7042   3.201   4.014   1.626  0.2995 -0.2841  0.1194
 2843W        W 7043   8.791   7.849  12.575 -0.2080 -0.2518 -0.2601
 2844W        W 7044   9.536   2.458   1.678 -0.2790  0.0116 -0.0203
 2845W        W 7045   0.577   9.335  10.336  0.0754  0.1956  0.0836
 2846W        W 7046   8.952   7.145  11.041 -0.0991 -0.1114 -0.0004
 2847W        W 7047   4.237   4.907   8.467  0.1164  0.0592  0.1754
 2848W        W 7048   4.601   4.077   2.597 -0.2285 -0.1852  0.1599
 2849W        W 7049   9.691   7.599  13.587  0.3219  0.1012 -0.1517
 2850W        W 7050   5.499   8.720  10.957 -0.1014 -0.0800  0.0142
 2851W        W 7051   5.848   3.146   8.647  0.0979  0.0220 -0.0912
 2852W        W 7052   6.275   1.803   3.390  0.3221  0.0002  0.0630
 2853W        W 7053   0.618   2.547  10.697  0.2240  0.2924 -0.0139
 2854W        W 7054   6.794   4.526  11.311 -0.3137  0.3289 -0.2095
 2855W        W 7055   5.996   6.082   2.615  0.1695  0.2691 -0.2590
 2856W        W 7056   2.012   0.092  11.630 -0.1360 -0.2901  0.0204
 2857W        W 7057   7.170   5.694   3.146  0.1548 -0.0238 -0.0482
 2858W        W 7058   7.314   2.009  12.692  0.0875 -0.0209  0.1065
 2859W        W 7059   5.548   8.726  12.993 -0.0098  0.2115  0.1073
 2860W        W 7060   4.118   7.646   0.015 -0.0959 -0.0819  0.0796
 2861W        W 7061   4.031   0.863   9.233  0.0514 -0.3075 -0.1068
 2862W        W 7062   1.946   5.887   1.100 -0.0531  0.0010 -0.0916
 2863W        W 7063   4.448   2.804   9.774  0.0865  0.1743  0.0288
 2864W        W 7064   5.567   5.407   4.519  0.2032  0.1934  0.0461
 2865W        W 7065   0.020   2.324  10.718  0.0790 -0.0781 -0.1627
 2866W        W 7066   9.753   0.767   0.244  0.0347 -0.2950  0.2098
 2867W        W 7067   5.316   8.619  10.057 -0.0219  0.0228  0.1975
 2868W        W 7068   0.356   9.679   3.800  0.0881  0.2066 -0.0515
 2869W        W 7069   2.555   2.119   9.448 -0.1648 -0.2431  0.2764
 2870W        W 7070   8.632   0.271   3.110 -0.0828  0.0312  0.1504
 2871W        W 7071   0.894   1.439   0.810 -0.2010  0.1275  0.3164
 2872W        W 7072   8.853   1.860   4.217 -0.0711  0.1902  0.1924
 2873W        W 7073   3.002   1.481   3.023 -0.2153 -0.0138 -0.2196
 2874W        W 7074   6.375   8.581  10.910 -0.0820 -0.3020  0.2038
 2875W        W 7075   5.194   9.794  10.116 -0.2312 -0.1031  0.1520
 2876W        W 7076   6.172   2.299   9.768 -0.2788  0.0427  0.0619
 2877W        W 7077   5.730   6.822  12.067 -0.1828  0.1477  0.3242
 2878W        W 7078   4.702   8.170   1.641 -0.1016 -0.0305  0.2018
 2879W        W 7079   9.631   4.611   2.589  0.1394 -0.0960 -0.1823
 2880W        W 7080   2.369   9.760  11.004 -0.0353  0.2503 -0.1325
 2881W        W 7081   5.543   9.156   3.397  0.1382 -0.0139 -0.2686
 2882W        W 7082   1.450   8.481   9.160 -0.3024  0.2115  0.1858
 2883W        W 7083   5.011   6.443   1.071  0.6143 -0.1337  0.0037
 2884W        W 7084  10.040   2.056   1.647 -0.0691  0.0808  0.1885
 2885W        W 7085   4.357   8.025   9.006 -0.0441  0.2051 -0.1977
 2886W        W 7086   5.885   7.979  12.443 -0.0393 -0.1847  0.2476
 2887W        W 7087   7.738   4.372   4.233 -0.0896  0.3473 -0.0091
 2888W        W 7088   9.573   4.491   3.953 -0.3212  0.1943  0.0425
 2889W        W 7089   8.636   1.511   4.491 -0.0230 -0.0526 -0.0726
 2890W        W 7090   6.694   5.754  12.773 -0.1223 -0.0908  0.3108
 2891W        W 7091   5.352   1.379  11.045 -0.3359 -0.0931 -0.0525
 2892W        W 7092   4.542   1.659   1.586 -0.0533 -0.0196  0.2667
 2893W        W 7093   1.608   2.624   9.732  0.1434  0.1057  0.0795
 2894W        W 7094   1.781   0.720   4.706 -0.0572  0.1311  0.1768
 2895W        W 7095   8.527   4.017  11.663  0.1505 -0.3139  0.0015
 2896W        W 7096   8.590   6.406   2.923 -0.1807  0.0704 -0.4296
 2897W        W 7097   0.060   7.550   2.444  0.3496  0.0802  0.2507
 2898W        W 7098   1.897  10.156   8.522  0.1075 -0.0306  0.0583
 2899W        W 7099   9.360   0.940  10.151 -0.0428  0.0954  0.1340
 2900W        W 7100   6.116   2.120   5.001  0.0356  0.0748 -0.0917
 2901W        W 7101   6.680   2.781  10.801  0.0306  0.3541 -0.1360
 2902W        W 7102   4.910   6.087  13.426  0.0789 -0.0537 -0.0283
 2903W        W 7103   3.023   5.660   0.389  0.0279  0.0648  0.2100
 2904W        W 7104   7.408   5.924   1.372  0.0683 -0.0678 -0.0608
 2905W        W 7105   9.834   1.472  11.484 -0.1364  0.0316  0.2349
 2906W        W 7106   6.273   2.526  13.413  0.3277  0.1750  0.1837
 2907W        W 7107   5.174   6.226   8.761 -0.0120  0.1760  0.1122
 2908W        W 7108   9.515   2.118   9.326  0.2448  0.2092  0.0546
 2909W        W 7109   9.683   6.147   4.537  0.1417 -0.4295  0.0673
 2910W        W 7110   8.108   2.281  10.352  0.0544  0.0774 -0.5087
 2911W        W 7111   1.799   2.641   2.236 -0.0182 -0.3522 -0.2684
 2912W        W 7112   7.146   3.273  12.649  0.1565  0.1008  0.1577
 2913W        W 7113   8.711   4.796   5.046  0.1063 -0.0224  0.0948
 2914W        W 7114   9.126   4.639  10.899 -0.0279  0.1831  0.2003
 2915W        W 7115   3.726   1.678   2.605 -0.1443  0.1176 -0.0620
 2916W        W 7116   6.017   8.901  12.701  0.2063  0.1945  0.0184
 2917W        W 7117   4.691   5.422  12.617 -0.1063  0.1021  0.0360
 2918W        W 7118   7.188   0.348   1.454  0.2233 -0.0035 -0.2572
 2919W        W 7119   9.610   0.394  10.639  0.2717  0.1874 -0.2051
 2920W        W 7120   8.473   2.002   1.904  0.0984  0.3539  0.0353
 2921W        W 7121   1.801   3.551   1.781 -0.2132  0.1814 -0.1515
 2922W        W 7122   1.837   3.617  13.533  0.0381  0.3160  0.0506
 2923W        W 7123   3.278   5.857   3.623  0.4072 -0.0992  0.2639
 2924W        W 7124   3.918   7.711   0.624  0.0617 -0.0155  0.0336
 2925W        W 7125   9.475   6.483   4.798 -0.1520 -0.0209 -0.1752
 2926W        W 7126   6.914   6.944  11.067 -0.3896 -0.0473  0.1246
 2927W        W 7127   6.297   2.470   4.005 -0.0353 -0.0196 -0.0629
 2928W        W 7128   7.534   8.802   2.233  0.4063 -0.2330  0.0933
 2929W        W 7129   3.212   2.931   0.899  0.1894  0.1259  0.0110
 2930W        W 7130   5.209   2.388   1.458 -0.0357 -0.3864 -0.5156
 2931W        W 7131   8.300   1.372   9.820 -0.2225  0.2512  0.0690
 2932W        W 7132   3.663   3.190   3.630  0.0584  0.0051 -0.0601
 2933W        W 7133   2.524   2.265   0.857 -0.2493  0.3935 -0.0299
 2934W        W 7134   4.576   9.518   9.496  0.1105  0.0456  0.3900
 2935W        W 7135   7.509   2.647  11.364  0.0400  0.0954 -0.0385
 2936W        W 7136   9.779   5.416   1.321 -0.1500 -0.0159  0.1648
 2937W        W 7137   4.877   8.892  10.074 -0.1517 -0.0605  0.1423
 2938W        W 7138   4.825   2.310   1.861  0.0838 -0.3794 -0.0326
 2939W        W 7139   1.098   3.754  12.620  0.3499  0.4016  0.1267
 2940W        W 7140   3.222   5.170   1.010  0.0219 -0.2767 -0.0625
 2941W        W 7141   3.618   9.776  10.291  0.2030  0.1236  0.0001
 2942W        W 7142   1.191   6.604   2.338 -0.0516  0.0425  0.2987
 2943W        W 7143   0.667   7.601   3.302 -0.1567  0.1038 -0.0616
 2944W        W 7144   5.586   1.828   2.090 -0.0148  0.1001  0.2868
 2945W        W 7145   2.596   2.554   9.137  0.1017  0.4534 -0.2067
 2946W        W 7146   0.885   0.185   2.214  0.1841  0.3121  0.0577
 2947W        W 7147   3.181   7.874   3.259  0.0936  0.0509 -0.0652
 2948W        W 7148   4.878   2.221  11.403 -0.1218 -0.0885 -0.0105
 2949W        W 7149   8.543   4.745   1.716  0.2139  0.0277  0.2368
 2950W        W 7150   2.153   7.565   8.201  0.0204  0.0928 -0.1880
 2951W        W 7151   0.815   1.687  12.499 -0.0944 -0.0237 -0.2549
 2952W        W 7152   7.279   5.825   9.356  0.0931 -0.2859  0.0481
 2953W        W 7153   2.949   0.551   3.293 -0.2618 -0.1387 -0.3206
 2954W        W 7154   5.513   5.989   4.222 -0.2022  0.2457  0.3077
 2955W        W 7155   1.173  10.351   9.227 -0.2530 -0.3045  0.2858
 2956W        W 7156   5.813   0.448  10.610  0.0411 -0.0277  0.5278
 2957W        W 7157   3.215   6.230  10.756  0.2204 -0.0131  0.1620
 2958W        W 7158   2.600   5.562   2.508  0.0653  0.0634  0.1503
 2959W        W 7159   9.239   2.884   4.376 -0.0077  0.1336  0.1870
 2960W        W 7160   8.848   5.437   4.329  0.3762  0.1493  0.1663
 2961W        W 7161   7.206   1.768   1.965 -0.1281  0.0000  0.0378
 2962W        W 7162   2.414   8.544   3.088  0.0159 -0.1128 -0.1708
 2963W        W 7163   7.129   0.226  12.101 -0.2188  0.0687 -0.2575
 2964W        W 7164   5.959   2.456   2.654 -0.0808 -0.0932 -0.0251
 2965W        W 7165   6.473   1.803   4.818  0.2980 -0.1994  0.2744
 2966W        W 7166   6.027   9.176   3.233  0.0276  0.1196  0.1786
 2967W        W 7167   4.244   5.234   0.736 -0.3571 -0.2162  0.1325
 2968W        W 7168  10.242   9.728   1.884  0.3363 -0.1898 -0.0100
 2969W        W 7169   2.544   1.940  10.400 -0.1330  0.0763 -0.2840
 2970W        W 7170   6.687  10.298  13.185  0.0621 -0.0465  0.2482
 2971W        W 7171   6.729   6.296   1.702  0.4114 -0.2439  0.4144
 2972W        W 7172   3.046   1.215  10.072  0.0557  0.0434  0.0402
 2973W        W 7173   3.004   3.264   0.646  0.1783  0.0604  0.4098
 2974W        W 7174   0.694   4.482   3.136 -0.0118  0.0864  0.3494
 2975W        W 7175   0.413   9.562   3.230 -0.0990  0.0742  0.2235
 2976W        W 7176   1.828   7.654   4.601  0.0238  0.0576  0.2361
 2977W        W 7177   7.454   8.286   2.965 -0.0466  0.3568  0.1181
 2978W        W 7178   3.022   7.642   9.211  0.0243  0.3937  0.1848
 2979W        W 7179   2.266   4.285   3.871  0.0794  0.1697 -0.0539
 2980W        W 7180   1.516   4.379   9.901 -0.1604 -0.0065 -0.0083
 2981W        W 7181   4.958   3.603   9.611 -0.0039 -0.1256  0.0033
 2982W        W 7182   6.464   1.917   1.821 -0.0928 -0.0197 -0.3212
 2983W        W 7183   8.014   3.641  13.199 -0.1431 -0.1045  0.0249
 2984W        W 7184   3.688   9.355  12.009 -0.0094 -0.1563  0.0801
 2985W        W 7185   8.049   3.700   3.106  0.1820 -0.0248  0.0840
 2986W        W 7186   0.211   9.714  10.349  0.0413 -0.0201  0.0473
 2987W        W 7187   7.554   4.378   0.652  0.2783  0.0614  0.2842
 2988W        W 7188   1.140   5.125   9.982 -0.2864 -0.0560 -0.1299
 2989W        W 7189   5.692   1.136  13.125  0.3092  0.2597  0.2485
 2990W        W 7190   4.144   6.437   0.910  0.1094  0.2932 -0.0120
 2991W        W 7191   3.716   7.768   3.214 -0.0531 -0.2342  0.0548
 2992W        W 7192   2.936   1.814  11.199  0.1239  0.0492 -0.0665
 2993W        W 7193   1.674   9.307   0.011 -0.6524  0.0776 -0.2722
 2994W        W 7194  10.095   5.660   3.501 -0.0552  0.0989  0.2003
 2995W        W 7195   8.737   5.348   3.782  0.1016 -0.0328 -0.1405
 2996W        W 7196   2.518   8.609   3.722 -0.0685 -0.0804 -0.0153
 2997W        W 7197   4.475   2.375   0.787  0.2836 -0.0766  0.2429
 2998W        W 7198   7.735   0.072   2.417  0.0769 -0.1735  0.2876
 2999W        W 7199   2.148  10.227  11.082 -0.3353 -0.0037 -0.2239
 3000W        W 7200   0.842   2.794  11.562 -0.0589  0.1633 -0.0442
 3001W        W 7201   5.629   5.346  10.202 -0.0740 -0.1303 -0.2393
 3002W        W 7202   2.973   3.616  13.080 -0.0488  0.1566  0.1448
 3003W        W 7203  10.088   0.091   3.993 -0.2290 -0.1429 -0.0787
 3004W        W 7204   4.798   8.991   3.121  0.0813 -0.2391  0.1170
 3005W        W 7205   3.411   4.883   2.845  0.0867 -0.2441  0.1102
 3006W        W 7206   7.383   8.352   0.227 -0.2763  0.0447  0.0039
 3007W        W 7207   8.274   5.971  11.896 -0.2020 -0.1672  0.0642
 3008W        W 7208   2.244   6.017   4.625  0.5042 -0.2733  0.2166
 3009W        W 7209   2.078   8.076  13.216 -0.0430  0.0218  0.1862
 3010W        W 7210   9.862   4.887   3.954  0.3559  0.0528 -0.1482
 3011W        W 7211   3.439   5.281  12.061 -0.2790  0.0710  0.0900
 3012W        W 7212   0.106   5.828   9.710 -0.2671 -0.0123  0.1094
 3013W        W 7213   5.292   5.285  12.391  0.3675  0.0624 -0.0060
 3014W        W 7214   5.956  10.316   2.572 -0.1364 -0.1453 -0.2369
 3015W        W 7215   8.867   5.662   4.910  0.2496  0.1787 -0.2608
 3016W        W 7216   4.846   9.985   4.436  0.2660 -0.0622  0.1706
 3017W        W 7217   1.032   4.397   3.497  0.0461  0.1946  0.0287
 3018W        W 7218   8.012   5.616  12.591  0.1233  0.1288  0.1746
 3019W        W 7219   0.219   4.445   9.391  0.0205 -0.1331 -0.3192
 3020W        W 7220  10.266   0.354  11.811 -0.0366  0.1032 -0.1145
 3021W        W 7221   4.685   1.649  12.307 -0.0587  0.0844 -0.1331
 3022W        W 7222   7.474   3.180   3.495  0.2617  0.3186 -0.0176
 3023W        W 7223   3.804   3.928   0.301 -0.1305 -0.2883 -0.3187
 3024W        W 7224  10.060   4.718  12.630  0.0847 -0.0969 -0.0955
 3025W        W 7225   1.711   1.514  12.005 -0.2246  0.2119  0.3069
 3026W        W 7226  10.319   6.737   9.416 -0.5562  0.2450 -0.1882
 3027W        W 7227   2.040   7.340  12.410  0.1249  0.1304 -0.2220
 3028W        W 7228   4.516   1.464  10.756 -0.2177 -0.2187  0.0665
 3029W        W 7229   2.524   5.910   0.984  0.0444  0.3676  0.1850
 3030W        W 7230   4.768   9.651  11.387  0.3827  0.2322  0.1629
 3031W        W 7231   4.578   6.657   0.882 -0.2259  0.0945  0.1140
 3032W        W 7232   3.797   6.813   2.320  0.3261  0.0342 -0.0640
 3033W        W 7233   0.567   3.067   4.781  0.2538 -0.0857  0.0313
 3034W        W 7234   3.227   8.549  12.728  0.5409 -0.1546 -0.0156
 3035W        W 7235   4.718   5.151   9.723  0.4079 -0.1325 -0.0772
 3036W        W 7236   4.955   0.832   9.066  0.1787  0.4015  0.2475
 3037W        W 7237   0.881  10.173  12.689  0.1606  0.3978  0.0486
 3038W        W 7238  10.095   2.081   0.606  0.4717 -0.0994  0.0534
 3039W        W 7239   4.299   2.829  12.027  0.1707  0.0320 -0.0689
 3040W        W 7240   0.014   8.283   4.101  0.1902  0.2366  0.0603
 3041W        W 7241   7.586   9.257   1.715 -0.1011  0.0297  0.1918
 3042W        W 7242   9.443   3.627   3.803  0.0149  0.2687  0.3304
 3043W        W 7243   9.314   5.385   3.117  0.1983  0.0449 -0.0424
 3044W        W 7244   7.943   3.953   2.141  0.0399  0.0946 -0.0074
 3045W        W 7245   4.346   0.791   1.418 -0.0571 -0.0094  0.1535
 3046W        W 7246   4.209   3.214  13.456  0.1383 -0.0696 -0.3295
 3047W        W 7247   8.207   2.618   3.108  0.1857 -0.0231 -0.1987
 3048W        W 7248   5.174   9.475   1.295 -0.0113 -0.0425  0.0018
 3049W        W 7249   4.137   4.078  11.276 -0.0998 -0.1477  0.1003
 3050W        W 7250   6.539   8.850  10.535  0.2035 -0.1591  0.2469
 3051W        W 7251   4.189   8.904   3.900 -0.0755  0.0687 -0.1093
 3052W        W 7252   9.012   4.834  11.981  0.0506 -0.0225 -0.1278
 3053W        W 7253   9.646   9.216  12.932  0.0008  0.4582 -0.2139
 3054W        W 7254   1.084   5.395  13.277 -0.0859  0.0944  0.2661
 3055W        W 7255   4.484   4.111  12.540  0.0830 -0.1264  0.0010
 3056W        W 7256   9.151   4.241   0.350  0.0631 -0.1028 -0.1306
 3057W        W 7257   3.203   3.433   1.623 -0.0537 -0.1688 -0.0727
 3058W        W 7258   3.085   9.294   2.086 -0.1025 -0.0029  0.3692
 3059W        W 7259   0.422   5.981   0.465 -0.3155  0.2289  0.0197
 3060W        W 7260   0.434   8.549  12.388 -0.0879  0.1163 -0.1664
 3061W        W 7261   3.427   7.668   2.805 -0.0584  0.2472  0.1493
 3062W        W 7262   4.707   3.314   3.208 -0.2889 -0.3722 -0.2874
 3063W        W 7263   4.839   8.375  12.570  0.3365 -0.0827  0.2287
 3064W        W 7264   3.348   8.514   9.468 -0.2248  0.1807 -0.5945
 3065W        W 7265   2.024   1.927  10.224 -0.0336 -0.0315  0.1749
 3066W        W 7266   3.593   0.249   2.627  0.6554 -0.0064  0.1641
 3067W        W 7267   2.688   2.353  10.656 -0.4249 -0.1117 -0.1084
 3068W        W 7268   7.462   9.791  11.919  0.0351 -0.0304  0.0777
 3069W        W 7269   8.497   4.544  12.858 -0.1953 -0.2151 -0.2891
 3070W        W 7270   6.139   2.040   4.360 -0.0306 -0.3803 -0.0430
 3071W        W 7271  10.037   1.531   0.624  0.0763 -0.1327  0.0273
 3072W        W 7272   3.198   5.370   3.994 -0.2186 -0.0730  0.2524
 3073W        W 7273   7.544   9.192  11.574 -0.2344 -0.0490  0.0350
 3074W        W 7274   7.323   9.673  13.190 -0.0186  0.0665 -0.0843
 3075W        W 7275   2.529   8.072   1.912 -0.3375  0.0189 -0.0210
 3076W        W 7276   9.456   3.818   4.276 -0.0692  0.0664 -0.3388
 3077W        W 7277   1.015   2.063   2.928  0.3235  0.2943  0.1431
 3078W        W 7278   8.022   6.333   3.101 -0.3524 -0.0124 -0.0930
 3079W        W 7279   9.954   1.607   2.572  0.0155  0.1807  0.0504
 3080W        W 7280  10.079   0.027   8.902  0.0813  0.1241  0.2234
 3081W        W 7281   6.082   3.812  10.756 -0.4366 -0.2677 -0.1357
 3082W        W 7282   5.206   7.471   2.335  0.0861 -0.0622 -0.0726
 3083W        W 7283   0.377   8.930   0.195  0.2635  0.1549 -0.2464
 3084W        W 7284   2.698   0.134  12.141 -0.2146 -0.0178  0.2083
 3085W        W 7285   9.294   8.213   2.444 -0.0817  0.1590  0.3873
 3086W        W 7286   6.104   2.043  10.974  0.0069  0.2343  0.0960
 3087W        W 7287   5.923   3.953   3.643  0.1575 -0.3308  0.1468
 3088W        W 7288   5.241   0.573   2.377 -0.0828  0.0766  0.0105
 3089W        W 7289   3.206   0.894  12.702  0.1359 -0.2543 -0.1478
 3090W        W 7290   8.675   6.793  11.458 -0.0910 -0.0931  0.0886
 3091W        W 7291   7.268   5.025   1.868 -0.2072  0.2943  0.0935
 3092W        W 7292   5.526   0.028  10.231  0.0320 -0.3109  0.0278
 3093W        W 7293   1.365   3.838  13.197  0.0564 -0.0141 -0.2440
 3094W        W 7294   2.245   2.323   4.109 -0.2784  0.0043  0.2034
 3095W        W 7295   9.522  10.295  10.791 -0.4691 -0.0694 -0.1909
 3096W        W 7296   7.005   8.482   1.060  0.3061 -0.2521 -0.2626
 3097W        W 7297   8.672   8.465   0.277  0.1066 -0.1503  0.0009
 3098W        W 7298   7.408   5.486   4.383  0.0365 -0.1411  0.1861
 3099W        W 7299   7.606   4.044   2.957  0.0977  0.0466 -0.0161
 3100W        W 7300   0.628   2.318  11.423 -0.1001  0.2380  0.0374
 3101W        W 7301   6.305   7.663  10.902  0.2855 -0.0449  0.0172
 3102W        W 7302   3.701   8.014   1.319  0.0449 -0.0254  0.1959
 3103W        W 7303   7.765   1.902   4.389 -0.1149  0.0770  0.0656
 3104W        W 7304   7.067   1.700  12.205 -0.1425 -0.0137  0.0384
 3105W        W 7305   4.085   8.428   8.998 -0.2241 -0.2409  0.0473
 3106W        W 7306   2.653  10.154  11.201 -0.0825 -0.1667 -0.0251
 3107W        W 7307   1.911   0.185   9.753 -0.1575  0.4715  0.0398
 3108W        W 7308   7.598   1.211   1.401 -0.0564 -0.0045  0.1950
 3109W        W 7309   3.397   0.214   0.919 -0.1169 -0.1618  0.1716
 3110W        W 7310   5.275   3.195   9.501 -0.3649  0.0110 -0.1658
 3111W        W 7311   4.505   1.898   2.061 -0.1072 -0.0523 -0.1242
 3112W        W 7312   3.817   0.572   0.971 -0.3814 -0.2086  0.2278
 3113W        W 7313   9.936   3.903   4.337  0.0923  0.0409  0.2349
 3114W        W 7314   9.880   7.386   3.575  0.2093 -0.1698 -0.1029
 3115W        W 7315   5.538   5.717  10.928 -0.1012  0.1492 -0.1438
 3116W        W 7316   7.087   3.390  10.040  0.0065  0.0734 -0.2240
 3117W        W 7317   7.107   9.542  12.054  0.3267  0.3625  0.3089
 3118W        W 7318   3.172   6.154   0.364  0.2852 -0.0357 -0.2571
 3119W        W 7319   1.610   9.394   4.599 -0.1931  0.2466 -0.1682
 3120W        W 7320   9.919   1.119   2.699  0.0891  0.3149  0.0831
 3121W        W 7321   8.672   9.450  10.172  0.0769  0.1057  0.0451
 3122W        W 7322   0.930   7.794   2.380 -0.0127  0.0251  0.3057
 3123W        W 7323   5.449   4.275  12.834  0.0687 -0.0402 -0.1023
 3124W        W 7324   8.041   3.935   9.726 -0.1598  0.3424  0.3487
 3125W        W 7325   3.982   6.278   9.442  0.0155  0.1200  0.1691
 3126W        W 7326   1.631   2.441   0.881 -0.0525 -0.1902  0.0069
 3127W        W 7327   5.231   6.942   2.302 -0.0900 -0.1615  0.1452
 3128W        W 7328   6.974   3.746  12.372 -0.0330 -0.1995  0.1457
 3129W        W 7329   4.691   0.039  12.273 -0.0194 -0.2182 -0.1312
 3130W        W 7330   7.952   6.382  11.963  0.1750 -0.3340  0.2677
 3131W        W 7331   6.164   1.149  11.415  0.0490 -0.1093  0.1894
 3132W        W 7332   6.761   4.870   9.205  0.1633  0.1412 -0.1108
 3133W        W 7333   7.960   1.598   1.246 -0.1652 -0.0601 -0.2592
 3134W        W 7334   0.200   4.887  12.985  0.0161 -0.2895  0.4453
 3135W        W 7335   0.380   2.174  10.392 -0.0494  0.0010 -0.1446
 3136W        W 7336   2.044   5.586   2.681  0.2813  0.1319 -0.0373
 3137W        W 7337   9.799   4.828  12.170  0.1312  0.0427  0.0187
 3138W        W 7338   8.157   6.856  11.345 -0.0030 -0.0139 -0.1699
 3139W        W 7339   1.693   0.718   9.748  0.1282 -0.3579 -0.2188
 3140W        W 7340   8.434   8.918  12.507 -0.0986  0.1271 -0.1762
 3141W        W 7341   4.872   4.878  12.731  0.0966 -0.1196  0.1503
 3142W        W 7342   9.748   0.883  12.186 -0.1605 -0.0772 -0.1131
 3143W        W 7343   5.118   1.195  12.114 -0.2036 -0.0729 -0.0810
 3144W        W 7344   8.627   2.962  13.296 -0.2434  0.1375  0.0972
 3145W        W 7345   2.589   0.732   1.684 -0.1038  0.0991  0.2738
 3146W        W 7346   7.557   5.537  12.385  0.2477 -0.0165 -0.0806
 3147W        W 7347   9.984   1.690   8.583 -0.0529 -0.1266  0.2676
 3148W        W 7348   9.881   2.263   2.077  0.0579 -0.1543  0.0890
 3149W        W 7349   9.127   5.130  10.510 -0.2214  0.0456  0.0772
 3150W        W 7350   8.881   3.091   0.933 -0.1266 -0.0804  0.1144
 3151W        W 7351   6.548   0.446  11.489 -0.0966  0.0704 -0.1085
 3152W        W 7352   3.202   1.016   2.240 -0.0300  0.2492  0.0447
 3153W        W 7353   0.636   1.987  12.194  0.0328 -0.1549 -0.2235
 3154W        W 7354   0.664  10.286   1.661 -0.0707 -0.1719  0.1677
 3155W        W 7355   3.110   2.032   2.080 -0.4978  0.0120 -0.0935
 3156W        W 7356   5.004   5.683  10.962 -0.0051  0.0216  0.0895
 3157W        W 7357   2.044   1.066   9.899  0.0491 -0.1630  0.0604
 3158W        W 7358   9.699   8.089   0.076  0.2665  0.0424  0.4618
 3159W        W 7359   8.403   4.230   8.914  0.1053  0.0631 -0.0584
 3160W        W 7360  10.078   2.931  11.742  0.2229 -0.2061  0.0169
 3161W        W 7361   5.758   0.246  12.095 -0.0246  0.1960  0.1318
 3162W        W 7362   9.509   9.976   1.064 -0.2488 -0.0625  0.2396
 3163W        W 7363   5.270   0.562   9.477  0.1442  0.1277 -0.2826
 3164W        W 7364   0.249   1.149   1.833 -0.1767  0.1401 -0.3812
 3165W        W 7365   3.839   4.478  11.207 -0.0064  0.0358 -0.0991
 3166W        W 7366   3.980   8.003  10.850 -0.0182 -0.0494  0.0827
 3167W        W 7367   0.864   2.096  10.605  0.2806 -0.2199 -0.2466
 3168W        W 7368   4.844  10.009  12.977  0.0392 -0.0089  0.1330
 3169W        W 7369   4.018   6.130   4.629  0.2988 -0.0353 -0.0337
 3170W        W 7370   5.774   2.456   2.145  0.0065  0.1013  0.1373
 3171W        W 7371   2.899   4.159  10.377  0.0799  0.1902 -0.0174
 3172W        W 7372   5.331   7.592   0.193  0.1615 -0.1331  0.2561
 3173W        W 7373   5.448   7.536   4.958 -0.0336  0.0912  0.0101
 3174W        W 7374   9.541   5.789  13.559 -0.0676  0.0012 -0.4077
 3175W        W 7375   4.788   4.691  11.431 -0.0206  0.0469  0.2710
 3176W        W 7376   0.318   2.039   2.365 -0.1649 -0.2404 -0.2232
 3177W        W 7377   0.624   3.689  11.197  0.0768 -0.0777  0.1485
 3178W        W 7378   0.428   3.121   2.085  0.0600 -0.0854 -0.1982
 3179W        W 7379   5.467   0.135  10.688  0.2759  0.0086  0.0342
 3180W        W 7380   7.169   8.000   1.114  0.0353 -0.3164 -0.1597
 3181W        W 7381   5.610   2.773  13.049  0.2702 -0.1523  0.1975
 3182W        W 7382   0.560   8.749   8.939 -0.1469 -0.1818 -0.2151
 3183W        W 7383   1.280   4.801   0.922  0.1944  0.0491 -0.2731
 3184W        W 7384   9.752   9.931  10.580 -0.1886  0.1084 -0.0719
 3185W        W 7385   6.633  10.382  12.580  0.6562 -0.3133  0.2612
 3186W        W 7386   3.221   5.987   4.098  0.0199  0.1717  0.1634
 3187W        W 7387   2.171   5.853   0.619 -0.0595 -0.0684 -0.0981
 3188W        W 7388   3.222   0.692   0.777  0.0241 -0.2470 -0.0679
 3189W        W 7389   4.433   0.208   0.513 -0.0055 -0.1761 -0.1116
 3190W        W 7390   8.390   4.495   3.631 -0.1704  0.3968  0.2023
 3191W        W 7391  10.068   1.565  11.006 -0.0589 -0.5318 -0.0880
 3192W        W 7392  10.059   1.949   3.949  0.3236  0.2377  0.1203
 3193W        W 7393   6.954  10.238   1.480  0.2522  0.2698  0.2754
 3194W        W 7394   8.836   4.727  13.373  0.1499 -0.0418  0.2721
 3195W        W 7395   9.736   2.066   0.984 -0.0019  0.0556 -0.0614
 3196W        W 7396   9.072   2.420   0.527  0.0300  0.2485 -0.1964
 3197W        W 7397   5.375   2.247   2.404  0.0500 -0.0650 -0.2949
 3198W        W 7398   5.918   2.494   0.620 -0.0539 -0.1796 -0.2010
 3199W        W 7399  10.104   6.288   1.133 -0.1064  0.2837  0.0819
 3200W        W 7400   2.699   5.825   8.797  0.0413 -0.0547  0.2161
 3201W        W 7401   6.181   0.719   0.136  0.2043 -0.1840  0.0928
 3202W        W 7402   0.442   0.038   2.508  0.1841  0.1876  0.0999
 3203W        W 7403   0.896   4.531   4.356 -0.1118 -0.0079  0.2051
 3204W        W 7404   0.160   1.919   1.434  0.1097 -0.1158  0.0017
 3205W        W 7405   6.486   5.000  12.635  0.0345  0.0222  0.2240
 3206W        W 7406   1.838   2.461  11.616 -0.1182  0.1570  0.1030
 3207W        W 7407   2.126   9.459  11.315 -0.1260  0.1394  0.0316
 3208W        W 7408  10.245   7.169   3.772  0.1369 -0.2520  0.0546
 3209W        W 7409   2.718   4.793   2.757 -0.1728  0.1622 -0.2606
 3210W        W 7410   3.822   1.809   3.184 -0.0029 -0.1634 -0.2389
 3211W        W 7411   1.217   9.078   9.249  0.0687 -0.1052  0.0194
 3212W        W 7412   8.412   1.395  11.170  0.3815  0.1884 -0.2563
 3213W        W 7413   4.335   0.203  10.672  0.1168  0.0607  0.4211
 3214W        W 7414   2.350  10.310   3.955  0.3009 -0.0921  0.0141
 3215W        W 7415   3.489   6.206  13.350 -0.0859  0.0690  0.1029
 3216W        W 7416   9.603   3.374  13.194  0.3923 -0.0178  0.3110
 3217W        W 7417   0.072   8.415  10.909 -0.0032  0.1229  0.1844
 3218W        W 7418   6.461   5.450  10.949  0.0261  0.0029  0.0792
 3219W        W 7419   0.989  10.021  13.224  0.0445 -0.2934 -0.1915
 3220W        W 7420   3.043   1.567   3.530  0.1793 -0.1081  0.1015
 3221W        W 7421   7.442   5.013   4.311 -0.1183 -0.0363 -0.0969
 3222W        W 7422   1.826   5.857  13.367  0.1436 -0.2245 -0.0898
 3223W        W 7423   3.845   2.547   9.667 -0.1071 -0.4392 -0.2410
 3224W        W 7424   3.507   4.928  10.612 -0.0100 -0.1417 -0.0573
 3225W        W 7425   4.436   3.110   2.252 -0.2447  0.2536 -0.1812
 3226W        W 7426   5.924   5.496   1.780 -0.1811 -0.3495 -0.0503
 3227W        W 7427   1.717   4.680   1.202 -0.1733  0.1140  0.0987
 3228W        W 7428   8.471   2.210   0.155  0.0167 -0.0365  0.0319
 3229W        W 7429   2.515   5.713   9.278  0.2527 -0.3793  0.6680
 3230W        W 7430   1.563   2.153   9.669  0.3469 -0.0278 -0.0664
 3231W        W 7431   9.185   8.331  10.461 -0.2315 -0.0562  0.0138
 3232W        W 7432   1.007   3.377  11.445 -0.0856 -0.2876 -0.0681
 3233W        W 7433   7.076   3.820  13.553 -0.2003  0.1733  0.0283
 3234W        W 7434   2.242   6.746   3.821 -0.2314 -0.0109  0.0505
 3235W        W 7435   3.005   2.647   4.494  0.0383 -0.0951  0.1785
 3236W        W 7436   4.342   9.214  11.452  0.1603 -0.0172 -0.0891
 3237W        W 7437   4.684   7.849  11.513 -0.0423  0.2421  0.0825
 3238W        W 7438   2.585   3.496   0.748  0.2773  0.0909  0.0147
 3239W        W 7439   5.386   2.767  13.520  0.1823 -0.2818 -0.3754
 3240W        W 7440   3.169   0.944  10.527 -0.0019 -0.2622  0.0222
 3241W        W 7441   5.934   6.967   9.714  0.3555 -0.0938  0.0891
 3242W        W 7442   8.613   6.181   1.297  0.1418 -0.2316  0.2523
 3243W        W 7443   6.731   0.984   9.488 -0.0741  0.0337  0.1103
 3244W        W 7444   5.614   9.356   1.693 -0.2090 -0.0779  0.1582
 3245W        W 7445   0.134   1.854   3.646 -0.3275 -0.0277 -0.1880
 3246W        W 7446   5.934   6.705   4.639  0.1673  0.1870 -0.1809
 3247W        W 7447   0.127   0.413   2.674 -0.4084  0.1727  0.1206
 3248W        W 7448   5.427   5.695   0.365 -0.5629 -0.3426  0.0876
 3249W        W 7449   3.242   5.385  13.019  0.1045 -0.2583  0.1893
 3250W        W 7450   0.351   6.078   2.462  0.0632  0.0323  0.0934
 3251W        W 7451   0.488   8.067   2.388 -0.0382 -0.2033 -0.2021
 3252W        W 7452   1.238   4.381  10.920  0.1916 -0.1154  0.0140
 3253W        W 7453   2.186   5.323   9.802  0.0925 -0.1020  0.0610
 3254W        W 7454   5.966   8.627   1.025  0.0443  0.2362  0.0081
 3255W        W 7455   6.332   3.591  11.166  0.0691 -0.0068 -0.0404
 3256W        W 7456   8.260   3.474  11.031  0.0443 -0.0624  0.1654
 3257W        W 7457   6.624   9.393  11.408  0.1573 -0.1695 -0.1813
 3258W        W 7458   6.309   3.159  11.449 -0.0982  0.3065  0.0365
 3259W        W 7459   4.318   3.772  13.379 -0.2986 -0.0815  0.0584
 3260W        W 7460   2.436   2.085   0.313  0.4587  0.2229  0.0404
 3261W        W 7461   6.791   7.024   3.243  0.1734  0.1389  0.0859
 3262W        W 7462   6.967   5.976   2.618  0.0191  0.1376 -0.1571
 3263W        W 7463   1.959   3.702  10.888  0.0777  0.3994  0.2491
 3264W        W 7464   9.859   0.048   2.412 -0.1085 -0.1729  0.2945
 3265W        W 7465   6.242   5.001  10.808 -0.2406  0.1945  0.0807
 3266W        W 7466   6.804   5.992   2.072 -0.0422 -0.1305  0.0204
 3267W        W 7467   2.869   4.790   9.536 -0.0336  0.2014  0.0346
 3268W        W 7468   7.045   0.839   2.445 -0.0367  0.0746 -0.1235
 3269W        W 7469   4.482  10.331  13.086  0.2764  0.5087 -0.1044
 3270W        W 7470   8.545   2.679  11.092 -0.1787  0.0190 -0.0300
 3271W        W 7471   3.675   4.034   1.674  0.2633 -0.0372  0.0502
 3272W        W 7472   9.752   1.873   5.113  0.3472  0.3473  0.1838
 3273W        W 7473   1.284   0.248   0.509 -0.1324  0.0980  0.1676
 3274W        W 7474   2.926   3.608   2.878 -0.2242 -0.2217  0.2489
 3275W        W 7475   5.028   3.957   5.125 -0.1841 -0.0389  0.1037
 3276W        W 7476   6.769   8.630  13.221 -0.0162  0.1943  0.0843
 3277W        W 7477   1.095   7.325   1.772  0.1081 -0.1187  0.0287
 3278W        W 7478   3.934   5.703   4.324 -0.0625  0.2382 -0.0571
 3279W        W 7479  10.039   6.178  10.783 -0.2865  0.2042  0.0106
 3280W        W 7480   3.748   1.200  10.207  0.1808  0.0781 -0.2826
 3281W        W 7481   7.676   6.483   3.581 -0.1224  0.1499 -0.4193
 3282W        W 7482   3.691   6.717  10.057  0.0231 -0.3309  0.1161
 3283W        W 7483   9.561   2.495   5.171 -0.0011 -0.0093  0.0907
 3284W        W 7484   8.577   3.161  11.939  0.2851  0.2195 -0.0625
 3285W        W 7485   4.949   7.621   3.355  0.1276  0.1152  0.0309
 3286W        W 7486   1.476   4.525   4.815  0.2864  0.1437 -0.1040
 3287W        W 7487   0.918   5.007   1.291  0.0386  0.0818  0.1751
 3288W        W 7488   3.509   2.820   2.960  0.0464  0.0122  0.1506
 3289W        W 7489   2.334   6.399   9.819  0.3370  0.2268 -0.1098
 3290W        W 7490   5.401   4.420  13.542  0.1119 -0.2753  0.2701
 3291W        W 7491   8.511   9.405  10.985 -0.0021  0.2298 -0.0734
 3292W        W 7492   0.802   4.611   0.746  0.2979 -0.1105  0.0439
 3293W        W 7493   2.085   8.582  13.424  0.0334  0.2270 -0.0114
 3294W        W 7494   7.915   8.915  12.018 -0.0503  0.0119  0.1699
 3295W        W 7495   3.105   6.532   2.261 -0.2698 -0.3392  0.0863
 3296W        W 7496   4.441   6.336  10.912 -0.0416 -0.0421  0.1105
 3297W        W 7497   8.822   0.857   0.665 -0.1260 -0.4363 -0.0434
 3298W        W 7498   1.600   6.804   1.177 -0.0740 -0.2264  0.1272
 3299W        W 7499   5.184   6.148   0.684  0.1449 -0.3185 -0.1144
 3300W        W 7500   0.859   1.132  12.031 -0.2220 -0.2226  0.3718
 3301W        W 7501   9.095   2.645   1.441  0.1768 -0.1441  0.0031
 3302W        W 7502   8.311   6.694  12.826  0.0567 -0.0856  0.1513
 3303W        W 7503   7.393   2.469   3.467 -0.0800  0.1781  0.3419
 3304W        W 7504   4.802   0.516   2.279  0.2500 -0.0821  0.4630
 3305W        W 7505   3.897   9.415   0.604  0.1201  0.2981  0.0417
 3306W        W 7506   6.880   0.100   3.638 -0.2151 -0.0901  0.1568
 3307W        W 7507   5.751   2.415   4.414  0.2662 -0.1503 -0.2127
 3308W        W 7508   6.550   3.307   0.679  0.2874  0.1192  0.1069
 3309W        W 7509   1.980   0.365   2.387 -0.1878  0.4559  0.3059
 3310W        W 7510   1.424   3.229  11.840 -0.2135  0.1537  0.1886
 3311W        W 7511   1.674   8.698   0.026 -0.0752 -0.2612  0.1499
 3312W        W 7512   9.777   4.656  11.508 -0.2526 -0.3504  0.0380
 3313W        W 7513   3.394   3.479   9.698  0.0048 -0.0283  0.1398
 3314W        W 7514   3.138   2.766   5.063  0.2801  0.1259  0.1347
 3315W        W 7515   1.761   5.121   4.024  0.0903 -0.2303 -0.1798
 3316W        W 7516   0.405  10.026   9.371  0.1427  0.0817  0.0255
 3317W        W 7517   9.555   4.341  13.558 -0.2146 -0.0538 -0.1916
 3318W        W 7518   7.610   3.478  11.779  0.1074  0.2071 -0.1997
 3319W        W 7519   4.336   2.106   3.781 -0.1360  0.0753  0.2180
 3320W        W 7520   2.767   2.452  13.217 -0.0550 -0.1136  0.3822
 3321W        W 7521   5.901   5.726   4.386  0.0813  0.0535  0.1621
 3322W        W 7522  10.310   8.411   2.250 -0.0177  0.1317 -0.0025
 3323W        W 7523   6.013   4.851   3.409 -0.1761  0.0225  0.1440
 3324W        W 7524   6.541   1.847  11.767 -0.1450 -0.0545  0.1237
 3325W        W 7525   6.782   2.269  11.560 -0.1938  0.1204  0.0519
 3326W        W 7526   0.239   1.580   3.206  0.1507 -0.2712  0.1565
 3327W        W 7527   0.231   2.476   2.629  0.1233  0.2650 -0.3952
 3328W        W 7528   4.186   8.129   9.454  0.2510  0.0496  0.0069
 3329W        W 7529   7.268   6.824  11.431 -0.1621 -0.1044  0.1624
 3330W        W 7530   7.753   6.889   3.317  0.2592 -0.1388 -0.0819
 3331W        W 7531   4.152   2.143  13.527 -0.0531  0.3020  0.0825
 3332W        W 7532   4.036   1.247   0.528  0.1363  0.1729  0.2410
 3333W        W 7533   7.302   1.173   1.803 -0.0601  0.2835 -0.0964
 3334W        W 7534   3.334   4.690  12.654  0.2172 -0.2975 -0.0513
 3335W        W 7535   3.092   7.541   1.226 -0.0940 -0.0738  0.0918
 3336W        W 7536   8.384   5.738   8.907 -0.1631  0.6109  0.1568
 3337W        W 7537   6.844   8.987  12.161 -0.0622  0.1374 -0.0078
 3338W        W 7538   7.973   7.885   0.052  0.1456 -0.1670 -0.1677
 3339W        W 7539   4.628   9.952   2.722  0.0883  0.0315  0.3296
 3340W        W 7540   0.196   8.200   9.650  0.1621 -0.2407  0.0784
 3341W        W 7541   7.655   6.186  10.120 -0.0506  0.1698  0.2104
 3342W        W 7542   3.594   8.676  11.450  0.0363  0.0517 -0.0732
 3343W        W 7543  10.277   8.649   9.530 -0.2417  0.3514 -0.1258
 3344W        W 7544   1.111   7.973  11.083  0.0468  0.2623 -0.0218
 3345W        W 7545   5.399   2.761   9.747 -0.1045 -0.2627 -0.1439
 3346W        W 7546   4.860   3.604   8.631 -0.2134 -0.2278 -0.1464
 3347W        W 7547   2.363   0.377   3.863 -0.2594  0.1296  0.4050
 3348W        W 7548   3.266   8.829   0.608  0.0262 -0.5465 -0.2551
 3349W        W 7549   1.857   1.283  10.895  0.0017  0.0386 -0.4054
 3350W        W 7550   0.264   8.297  11.393 -0.2509 -0.1219  0.0612
 3351W        W 7551   0.906   4.265  12.392 -0.3578 -0.4235  0.0386
 3352W        W 7552   6.518   5.797   2.505 -0.1158 -0.1464 -0.1928
 3353W        W 7553   7.540   6.519   3.061  0.1548  0.1669  0.2251
 3354W        W 7554   3.804   2.061   9.260 -0.2051  0.2192  0.3865
 3355W        W 7555   6.830   0.183   1.854 -0.4836  0.0860  0.0299
 3356W        W 7556   9.775   5.590   4.505 -0.1200 -0.2884 -0.1393
 3357W        W 7557   7.011   6.408  11.500 -0.0802  0.3662 -0.0602
 3358W        W 7558   1.375   4.294   1.016 -0.3476 -0.0960  0.0951
 3359W        W 7559   3.509   0.092   9.599 -0.0246 -0.0397  0.0740
 3360W        W 7560   7.890   5.002  10.061  0.1745 -0.0502  0.2281
 3361W        W 7561   3.150   8.033   9.607  0.4427 -0.1379 -0.0631
 3362W        W 7562   6.234   7.125  13.318  0.0847 -0.1343 -0.1428
 3363W        W 7563   6.108   2.666   4.623  0.0785  0.2208 -0.3343
 3364W        W 7564   2.812   6.912   0.954 -0.4452 -0.1278 -0.0766
 3365W        W 7565   3.628   1.448   1.140  0.0739 -0.0335 -0.2789
 3366W        W 7566   9.483   5.388   4.866  0.1365  0.0847 -0.2290
 3367W        W 7567   1.300   0.422  12.314  0.1750  0.1660 -0.2219
 3368W        W 7568   7.114   1.956  11.802 -0.1635 -0.3980  0.0674
 3369W        W 7569   4.303   9.417  12.314  0.0766 -0.1256 -0.0598
 3370W        W 7570   1.861   6.655   0.766  0.0622  0.3148 -0.0574
 3371W        W 7571   2.040   0.277  10.932 -0.2551  0.1258 -0.0167
 3372W        W 7572   4.185   7.975   4.229  0.2101 -0.1144  0.1180
 3373W        W 7573   1.514   6.762   9.423 -0.1791 -0.0599  0.0081
 3374W        W 7574   2.687   6.617   5.033 -0.0174 -0.1348 -0.0380
 3375W        W 7575   0.251   3.794  10.669  0.1051 -0.3890  0.1373
 3376W        W 7576   1.613   7.604  12.342 -0.1021  0.0482  0.0404
 3377W        W 7577   8.782   8.252  11.592 -0.2457  0.0494 -0.0931
 3378W        W 7578   2.504   2.885   1.714  0.3316  0.1984  0.1736
 3379W        W 7579   1.436   1.168  12.802  0.0701 -0.1269  0.4421
 3380W        W 7580   4.645   1.021  12.243 -0.1060  0.1412 -0.2100
 3381W        W 7581   2.107   0.927  10.426  0.1204 -0.1637  0.0987
 3382W        W 7582  10.360   6.410  11.124  0.4516  0.1533 -0.0841
 3383W        W 7583  10.084   5.790   9.964  0.1108 -0.3489 -0.0778
 3384W        W 7584   9.400   0.568  11.820 -0.0378  0.1597 -0.0739
 3385W        W 7585   8.653   8.670  12.120  0.2665  0.0167 -0.3102
 3386W        W 7586   0.153   7.822  12.320  0.0403  0.3426  0.0201
 3387W        W 7587   4.054   8.913   2.471  0.0902 -0.0979 -0.2389
 3388W        W 7588   0.522   5.604  12.409  0.0839  0.0449 -0.1082
 3389W        W 7589   6.335   9.427  10.382 -0.4035 -0.1840  0.0326
 3390W        W 7590   3.178   7.083   3.657 -0.2741  0.1111 -0.0868
 3391W        W 7591   0.386   6.622   3.103  0.1221 -0.1036  0.0803
 3392W        W 7592   6.688   1.156   1.564  0.0342  0.1285  0.0693
 3393W        W 7593   9.684   3.986   3.391 -0.2723 -0.0586 -0.3606
 3394W        W 7594   9.015   5.149   4.982 -0.0771 -0.1704  0.3753
 3395W        W 7595   6.773   6.510  10.994 -0.0896 -0.0293  0.1823
 3396W        W 7596   3.377   6.402   1.155 -0.0653 -0.1729  0.1615
 3397W        W 7597   9.551   7.158   0.783 -0.1451 -0.0014  0.0550
 3398W        W 7598   9.499   8.601   0.933 -0.0821 -0.1591 -0.1182
 3399W        W 7599   6.817   0.880   2.007  0.0359  0.1176  0.2113
 3400W        W 7600   1.081   9.484   9.463  0.1886  0.2877 -0.2130
 3401W        W 7601   6.347   7.391   3.437  0.2399 -0.4264 -0.1582
 3402W        W 7602   3.738   6.553  12.587  0.0452 -0.2142  0.0032
 3403W        W 7603   1.806   5.010   9.958 -0.0464 -0.0715 -0.0488
 3404W        W 7604   2.846   4.845   4.837 -0.0667  0.2656 -0.5247
 3405W        W 7605   4.588   3.873   2.117 -0.0329 -0.2632  0.1661
 3406W        W 7606   8.825   4.927   9.974 -0.0967  0.2571 -0.0380
 3407W        W 7607   6.017   6.610  10.221  0.2023 -0.5187 -0.0440
 3408W        W 7608   7.652   4.422   0.167 -0.0039  0.0211 -0.0974
 3409W        W 7609   7.338   5.140   0.336 -0.1181 -0.0035  0.1083
 3410W        W 7610   4.643   4.527   2.850  0.0044  0.1482 -0.0177
 3411W        W 7611   1.930   9.794   4.422  0.0657  0.1867 -0.1728
 3412W        W 7612   3.409   1.724  10.917 -0.1495  0.1890 -0.0970
 3413W        W 7613   2.738   5.275   9.428  0.0742  0.1642  0.2537
 3414W        W 7614   7.652   5.537   4.833  0.0972  0.2171 -0.2736
 3415W        W 7615   4.173   4.314   2.580 -0.0181 -0.2442  0.0186
 3416W        W 7616   3.431   2.967  10.590  0.1014 -0.1017 -0.0326
 3417W        W 7617   2.167   5.088   4.279 -0.1326 -0.0222 -0.0802
 3418W        W 7618   2.008  10.299   2.213 -0.2885  0.3249  0.1960
 3419W        W 7619   5.030   8.766   2.325 -0.1245  0.0836  0.2805
 3420W        W 7620   4.739   8.259   0.697  0.0258 -0.0231 -0.3239
 3421W        W 7621   1.674   9.340   2.473 -0.0834 -0.2534 -0.1067
 3422W        W 7622   9.725   9.035  11.559 -0.0554 -0.0936 -0.1401
 3423W        W 7623   6.153   0.725  13.239 -0.1766  0.2467 -0.1368
 3424W        W 7624   4.631  10.390   1.156  0.1218  0.4692 -0.1698
 3425W        W 7625   5.223   5.040   9.383  0.1273  0.1056  0.0521
 3426W        W 7626   0.347   9.088  12.891  0.3271 -0.0258  0.3705
 3427W        W 7627   2.289   3.713   4.066  0.3209  0.0822 -0.0304
 3428W        W 7628   7.376  10.364  10.033  0.0489 -0.0674  0.0845
 3429W        W 7629   1.304   0.630  12.848  0.1720  0.1224  0.0999
 3430W        W 7630   1.093   2.675   8.787 -0.0332  0.0721 -0.2070
 3431W        W 7631   7.423   6.141   0.942 -0.0934  0.1837  0.0647
 3432W        W 7632   7.875  10.018   2.621 -0.0862  0.2411 -0.0123
 3433W        W 7633  10.059   5.410  12.102 -0.0129 -0.2170 -0.3255
 3434W        W 7634   6.221   5.896   4.765  0.2234  0.0568  0.3340
 3435W        W 7635   8.911   9.730   1.599  0.2459 -0.0299  0.0890
 3436W        W 7636   9.898   1.125  11.153 -0.2467 -0.1752  0.2402
 3437W        W 7637   2.798   9.396   3.624 -0.2510 -0.1195  0.1953
 3438W        W 7638   1.845   1.042   9.302  0.0208 -0.1627 -0.1146
 3439W        W 7639   1.366   9.181   1.195  0.0962 -0.1914  0.1335
 3440W        W 7640   6.707   8.616  12.489 -0.2146 -0.1732 -0.1493
 3441W        W 7641   0.478   8.580   1.172 -0.2529  0.1277 -0.3924
 3442W        W 7642   5.307   0.738   3.422 -0.1747  0.0841  0.0526
 3443W        W 7643   2.068   6.086   2.649 -0.4556 -0.0955 -0.0319
 3444W        W 7644  10.036   6.482   4.615  0.0954  0.1892 -0.0278
 3445W        W 7645   5.011  10.009   0.951 -0.2405 -0.1368  0.1740
 3446W        W 7646   0.655   3.345  13.584  0.1385 -0.0812  0.3679
 3447W        W 7647   0.068   1.134   0.566  0.0900  0.1506  0.1921
 3448W        W 7648   4.320   7.357   2.939 -0.1260 -0.0261 -0.1059
 3449W        W 7649   0.804   5.459  10.049 -0.1613  0.0376 -0.0676
 3450W        W 7650   6.841   1.813   1.490  0.0586 -0.0236  0.2602
 3451W        W 7651   5.455   8.938   2.502 -0.2357  0.3149  0.2563
 3452W        W 7652   9.870   5.080   4.970  0.0737 -0.3033 -0.3809
 3453W        W 7653   9.649   1.808   0.482 -0.1390  0.2471  0.1386
 3454W        W 7654   6.768   4.883  12.203  0.1770  0.0804  0.0174
 3455W        W 7655   5.653   1.027   3.230  0.0379  0.0972 -0.1700
 3456W        W 7656   2.827   2.367   0.096  0.3265  0.1581  0.0767
 3457W        W 7657   8.434   1.941   1.417  0.2083 -0.0407  0.1996
 3458W        W 7658   1.779   9.742   8.807  0.1607  0.3390 -0.1068
 3459W        W 7659   7.269   7.246   3.228 -0.0643 -0.0449  0.0547
 3460W        W 7660   8.469   3.975   3.898  0.0909 -0.1354 -0.1968
 3461W        W 7661  10.076   0.693   9.803  0.1168 -0.0453 -0.1488
 3462W        W 7662   7.826   8.346  13.506  0.1552  0.5083 -0.0341
 3463W        W 7663   2.708   6.711  10.846 -0.1154  0.0878 -0.3040
 3464W        W 7664   6.841   3.262   2.239 -0.2826  0.0124 -0.0058
 3465W        W 7665   0.806   8.705   0.040 -0.0823 -0.0114  0.1758
 3466W        W 7666   9.632   1.285   2.099  0.1490  0.0138  0.1371
 3467W        W 7667   2.849   3.230   2.345 -0.0578 -0.0593 -0.0656
 3468W        W 7668   4.293   6.527  10.336  0.0937 -0.1791 -0.1034
 3469W        W 7669   3.321   4.994   3.674  0.0154  0.2889  0.1630
 3470W        W 7670   8.662   6.776   1.825 -0.1495  0.1472 -0.0899
 3471W        W 7671   2.553   5.176   1.792  0.0667 -0.2219 -0.3035
 3472W        W 7672   5.197   1.912  12.304 -0.0997 -0.0142  0.4502
 3473W        W 7673   4.497   2.035  12.611 -0.1278  0.2226  0.2290
 3474W        W 7674   6.274   0.377  11.875  0.0099 -0.0594 -0.0229
 3475W        W 7675   6.905   3.803   2.171 -0.2067 -0.2022  0.0627
 3476W        W 7676   7.854   2.035   1.064  0.0639  0.4127  0.0881
 3477W        W 7677   2.211   0.674   0.679 -0.1825 -0.2316 -0.1199
 3478W        W 7678   9.343   7.216  10.091 -0.1570  0.1932 -0.3325
 3479W        W 7679   0.143   2.777   9.073 -0.0069  0.1076  0.0609
 3480W        W 7680   3.047   3.791  12.572  0.2364 -0.0223  0.3582
 3481W        W 7681   1.215   6.271   0.116  0.0253 -0.1122 -0.0332
 3482W        W 7682   0.588   0.192  10.381 -0.0090 -0.0503  0.1143
 3483W        W 7683   9.676   0.227  11.146 -0.2285 -0.1361  0.0316
 3484W        W 7684   9.411   5.049  10.125 -0.0033 -0.0670 -0.0625
 3485W        W 7685  10.217   6.014   2.661  0.1724 -0.3440 -0.0612
 3486W        W 7686   7.968   2.373  11.203  0.4036  0.1444 -0.1971
 3487W        W 7687  10.211   2.759   2.838  0.2861 -0.4633  0.0125
 3488W        W 7688   8.789   7.320  10.439 -0.2536  0.1568  0.0527
 3489W        W 7689   3.903   9.185   4.772  0.1859  0.3105 -0.3271
 3490W        W 7690   0.652  10.260   8.954  0.0426 -0.0442 -0.0107
 3491W        W 7691   1.651   5.407   2.854 -0.0033 -0.1767 -0.0984
 3492W        W 7692   8.562   2.897   1.335  0.1550  0.3026  0.4192
 3493W        W 7693   1.582   3.890   9.759  0.1300  0.1219  0.0668
 3494W        W 7694   4.228   3.318  10.642  0.1219  0.1014 -0.1927
 3495W        W 7695   5.384   4.823   4.565  0.1119  0.2099 -0.3191
 3496W        W 7696   4.245   6.467   0.418 -0.0601 -0.1604  0.6619
 3497W        W 7697   3.615   8.797   9.887 -0.1351  0.0784  0.0418
 3498W        W 7698   5.623   1.876  11.959 -0.0401 -0.1467  0.2202
 3499W        W 7699   3.029   1.749   2.538  0.1345  0.1639  0.3254
 3500W        W 7700   5.978   9.581   9.470 -0.3919  0.1064  0.0102
 3501W        W 7701   5.597   3.161   4.046  0.1264 -0.1380  0.0564
 3502W        W 7702   2.079   4.027  12.683 -0.0876 -0.0142  0.0349
 3503W        W 7703   4.073   7.899  12.785  0.3046  0.1910 -0.0948
 3504W        W 7704   3.914   2.662   2.781 -0.1855 -0.0633  0.1982
 3505W        W 7705   6.916   7.015  10.273  0.0058 -0.0367 -0.3088
 3506W        W 7706   4.764   3.503   2.399  0.2428  0.1461  0.1542
 3507W        W 7707   9.333   7.627   9.861 -0.0289 -0.1385 -0.0725
 3508W        W 7708   5.711   6.053   2.202 -0.2251  0.1614 -0.0569
 3509W        W 7709   6.899   7.513  10.263  0.3270 -0.0733  0.1798
 3510W        W 7710   3.836   5.163   1.054  0.1104  0.3684 -0.0450
 3511W        W 7711   7.644   3.843   5.321 -0.0652 -0.4718  0.1220
 3512W        W 7712   7.538   1.427  12.523  0.1811  0.1395  0.1337
 3513W        W 7713   6.188   8.602   9.132  0.0404  0.1764 -0.0740
 3514W        W 7714   0.620   3.579   2.044  0.0286 -0.2271  0.2452
 3515W        W 7715   1.518   0.435   1.486 -0.0701  0.0665  0.0406
 3516W        W 7716   7.595   4.335  12.726 -0.3436 -0.1880 -0.1844
 3517W        W 7717   7.534   0.787  13.249  0.1013 -0.0498  0.0478
 3518W        W 7718   5.948   3.988  12.876  0.0518 -0.0321  0.1001
 3519W        W 7719   3.169   1.520   1.263 -0.2378 -0.0360 -0.1513
 3520W        W 7720   8.979   4.642   8.248 -0.1693  0.0215  0.0179
 3521W        W 7721   1.104   4.963   1.765 -0.0946 -0.0720 -0.3093
 3522W        W 7722   3.897   4.270   2.127  0.1714  0.2110  0.4691
 3523W        W 7723   8.801   4.218  11.078  0.1411  0.1987  0.0074
 3524W        W 7724   4.136   9.061   1.428 -0.2252 -0.0289  0.0361
 3525W        W 7725   2.116   0.240  12.375  0.1355 -0.1262  0.2340
 3526W        W 7726   4.223  10.326  12.184 -0.2683  0.2429 -0.1621
 3527W        W 7727   3.643   4.958   9.813 -0.0107 -0.0568 -0.1244
 3528W        W 7728   6.080  10.163   2.121 -0.1154 -0.1256  0.1328
 3529W        W 7729   4.744   3.462   4.557 -0.3032 -0.0622 -0.0181
 3530W        W 7730   8.770   7.810   1.736  0.2476  0.0583  0.0458
 3531W        W 7731   2.669   9.809  10.434 -0.1293 -0.0865 -0.3482
 3532W        W 7732   3.544   9.446  11.099  0.0392 -0.0644 -0.2258
 3533W        W 7733   0.335   4.520  10.221  0.0112  0.2669  0.2277
 3534W        W 7734   0.322   0.471  12.576  0.2473  0.0042  0.0228
 3535W        W 7735   0.958   1.591  12.021 -0.1132 -0.0406  0.0395
 3536W        W 7736   3.192   6.396   2.796  0.0064 -0.0933  0.1218
 3537W        W 7737   3.695   1.361  12.159 -0.1016 -0.2727  0.1574
 3538W        W 7738   2.854   5.884   2.098 -0.1067  0.0802 -0.0622
 3539W        W 7739   8.032   7.128  12.594  0.0977  0.0105  0.0718
 3540W        W 7740   0.216   8.959  10.391 -0.0912  0.1408 -0.0887
 3541W        W 7741   8.094   1.759  12.037 -0.0979  0.0942  0.2615
 3542W        W 7742   0.116   8.648   9.065  0.0900 -0.1906  0.0195
 3543W        W 7743   1.480   4.747   4.314  0.0749  0.0188 -0.2454
 3544W        W 7744   6.082   0.856   3.450 -0.0583  0.0127 -0.3605
 3545W        W 7745   2.732   0.263  10.166 -0.2630 -0.0172  0.0815
 3546W        W 7746   6.688   7.561   9.376  0.1726 -0.2134 -0.2155
 3547W        W 7747   3.553   4.715   8.885  0.1646  0.1385 -0.3065
 3548W        W 7748   4.259   0.311   1.448  0.1050 -0.1650 -0.1584
 3549W        W 7749   3.920   3.463  13.181  0.1700  0.1600  0.1990
 3550W        W 7750   1.468   6.581   1.596 -0.2785  0.0598 -0.0161
 3551W        W 7751   1.653   5.310  10.337  0.1402  0.1030 -0.0277
 3552W        W 7752   0.823   0.353   1.750 -0.0128 -0.0144  0.4033
 3553W        W 7753   3.861   5.166   1.538 -0.1436  0.0100  0.0301
 3554W        W 7754   3.671   6.937  12.256  0.1353 -0.1863 -0.3821
 3555W        W 7755   4.001   4.737  10.836  0.2359 -0.0717  0.0285
 3556W        W 7756   6.057   4.107  12.386 -0.1134 -0.1444 -0.0198
 3557W        W 7757   7.807   2.876   4.283  0.1249 -0.3254 -0.1794
 3558W        W 7758  10.004   3.211   3.274 -0.0457 -0.2380  0.1277
 3559W        W 7759   8.977   7.757  10.255 -0.0893  0.0371  0.4070
 3560W        W 7760   7.707  10.015  10.994 -0.1360 -0.2424 -0.2846
 3561W        W 7761   9.589   6.021  10.787  0.1232  0.3530 -0.2130
 3562W        W 7762   3.517   7.195  12.734  0.0643  0.0992  0.2415
 3563W        W 7763   1.778   8.741  12.754  0.2993 -0.0029 -0.1818
 3564W        W 7764   2.536   1.728  10.887  0.1326  0.1732 -0.1553
 3565W        W 7765   5.603   3.116   2.804  0.1169 -0.1366 -0.3314
 3566W        W 7766   9.604   7.810  11.116 -0.0645 -0.0435 -0.1218
 3567W        W 7767   1.921   4.043   1.307  0.0566 -0.0339 -0.1199
 3568W        W 7768   6.895   3.718  10.465  0.0156 -0.1413  0.0283
 3569W        W 7769   1.639   8.226  13.440  0.2351 -0.1908  0.1023
 3570W        W 7770   0.935   7.489   0.242  0.2456  0.0862 -0.1223
 3571W        W 7771   5.407   9.866  12.630 -0.2669 -0.1279 -0.0324
 3572W        W 7772   3.210   1.081   1.066 -0.1926  0.1077 -0.4064
 3573W        W 7773   0.740  10.364   9.526 -0.1153 -0.1244  0.0432
 3574W        W 7774   3.071   9.475   9.445  0.3404  0.0754 -0.2067
 3575W        W 7775   4.056   7.257   0.983 -0.0380  0.2156 -0.0970
 3576W        W 7776   5.090   1.020  10.307  0.0580 -0.3240  0.1780
 3577W        W 7777   6.648   2.186   3.519  0.3622 -0.2998 -0.0064
 3578W        W 7778   7.511  10.118   0.801 -0.2396 -0.0483  0.1936
 3579W        W 7779   1.347   7.511   8.437  0.0024 -0.2438  0.0309
 3580W        W 7780  10.136   5.203   0.948 -0.2110  0.1215  0.1388
 3581W        W 7781   1.879   3.129   0.347  0.1115 -0.1868 -0.2611
 3582W        W 7782   6.705   6.124   8.940 -0.2423  0.0085  0.1886
 3583W        W 7783   8.819   4.132   9.234 -0.2247 -0.1743 -0.1730
 3584W        W 7784   1.346  10.094   2.881  0.0677 -0.1507 -0.1199
 3585W        W 7785   8.330   6.128  13.114  0.0441  0.1593 -0.0098
 3586W        W 7786  10.363   6.577   0.727 -0.0188  0.0003 -0.0039
 3587W        W 7787   8.964   6.130  10.767 -0.2062  0.0203 -0.1323
 3588W        W 7788   6.606   7.734   1.686  0.0471  0.2412  0.1343
 3589W        W 7789   5.191   7.041   0.253  0.0640  0.0877 -0.2314
 3590W        W 7790   4.882   4.617  13.546 -0.2157 -0.3335  0.1777
 3591W        W 7791   2.299   7.241  11.179  0.0674  0.1737  0.2228
 3592W        W 7792   0.123   2.342  11.483 -0.0490 -0.1413  0.0886
 3593W        W 7793   1.759   1.499   4.803 -0.0690  0.2838 -0.0699
 3594W        W 7794   9.675   7.761   2.159  0.0622 -0.1466  0.1950
 3595W        W 7795   1.128   0.898  12.475 -0.0694 -0.0683  0.2411
 3596W        W 7796   7.699   9.357   2.199 -0.0993 -0.0381  0.0001
 3597W        W 7797   4.437   8.698  11.835  0.1398  0.0782  0.2326
 3598W        W 7798  10.246   4.375  11.365 -0.0002 -0.0844  0.3960
 3599W        W 7799   1.712   0.467  13.628  0.2048  0.1983  0.2744
 3600W        W 7800   3.877   5.122  10.389 -0.3931 -0.0197 -0.2349
 3601W        W 7801   2.028   5.024  11.250 -0.0703  0.1086  0.2097
 3602W        W 7802   9.383   2.825   4.865  0.0108 -0.3698  0.1349
 3603W        W 7803   3.770  10.360   3.777 -0.1643 -0.0734 -0.3217
 3604W        W 7804   9.689   0.177  11.644  0.1619 -0.0573 -0.1316
 3605W        W 7805   9.068   9.545  13.656 -0.0902  0.1768  0.1291
 3606W        W 7806   1.615   6.352  13.531  0.0981 -0.0425  0.2199
 3607W        W 7807   0.414   6.788  12.101  0.1399 -0.0018  0.2352
 3608W        W 7808   3.450   5.371   2.944 -0.1327 -0.1081  0.0867
 3609W        W 7809   2.358   6.514  12.760 -0.2246 -0.2382  0.0325
 3610W        W 7810   7.015   2.951   1.102  0.1524 -0.0629 -0.0183
 3611W        W 7811   9.292   6.769  11.983  0.1754  0.2941 -0.2344
 3612W        W 7812   3.452   7.691   2.110 -0.1208 -0.1150  0.1941
 3613W        W 7813   1.697   2.855  10.182 -0.3881  0.1088 -0.1073
 3614W        W 7814   6.310   4.763  11.313  0.1605 -0.1627 -0.1215
 3615W        W 7815   1.816   6.364  12.569 -0.0519  0.0182  0.1677
 3616W        W 7816   7.158   9.433   2.747 -0.0260  0.2914  0.2111
 3617W        W 7817   7.035   8.191  13.368 -0.1163  0.1649  0.0139
 3618W        W 7818   2.470   8.362  13.210  0.1895  0.0057 -0.0982
 3619W        W 7819   0.483   5.968   3.692 -0.1048  0.1442 -0.1290
 3620W        W 7820   6.166   9.014  10.232 -0.2976  0.1856  0.2296
 3621W        W 7821   1.378   3.080   4.985 -0.2033 -0.1064  0.1464
 3622W        W 7822   7.045   9.192  11.656 -0.0577 -0.2145  0.1769
 3623W        W 7823   5.201   8.276   3.638  0.0659  0.1815 -0.1341
 3624W        W 7824   8.426   3.709   2.687  0.4399  0.3459 -0.1107
 3625W        W 7825   7.192   3.735   4.143 -0.1707 -0.1653  0.2544
 3626W        W 7826   2.334   5.798  13.402  0.0981  0.0927 -0.3200
 3627W        W 7827   4.492   3.358  13.020 -0.0320 -0.1045  0.2277
 3628W        W 7828   2.121   9.750  12.765  0.0267 -0.2669 -0.0829
 3629W        W 7829   9.238   5.099   9.635 -0.0909 -0.1051 -0.5681
 3630W        W 7830   8.503   6.981  10.885  0.2427 -0.1471  0.1593
 3631W        W 7831   2.996   3.769   5.308  0.0706  0.2458 -0.1616
 3632W        W 7832   1.178   3.305  12.778  0.2033  0.0986  0.2233
 3633W        W 7833   2.731   8.574   8.323 -0.1773  0.1198 -0.3952
 3634W        W 7834   1.475   5.686   1.041 -0.0750  0.1784  0.2540
 3635W        W 7835   1.640   4.641   0.647  0.0326 -0.1445 -0.2156
 3636W        W 7836  10.278   1.624   1.785 -0.2915 -0.2909 -0.0522
 3637W        W 7837   0.133   2.878  10.719 -0.1767 -0.2245  0.1729
 3638W        W 7838   0.556   9.631  10.856  0.5061 -0.0242  0.0539
 3639W        W 7839   1.743   8.345   0.810 -0.2277  0.0562  0.0353
 3640W        W 7840   9.005   1.435   3.422  0.2094 -0.2428  0.2743
 3641W        W 7841   6.356   2.364   0.809 -0.0622 -0.2918 -0.1347
 3642W        W 7842   8.311   3.148  12.360 -0.0930 -0.1436  0.0482
 3643W        W 7843   8.426   5.267   9.146  0.0260  0.0381  0.0607
 3644W        W 7844   5.359   2.004  10.371  0.2016  0.1538  0.1333
 3645W        W 7845   9.992   9.578   9.878 -0.0856 -0.0253 -0.0369
 3646W        W 7846   8.403   1.716  11.616  0.2097  0.4056 -0.0903
 3647W        W 7847   6.924   2.851   4.069  0.0915 -0.0559 -0.2435
 3648W        W 7848   1.839   7.859   0.493  0.1333  0.0681  0.1225
 3649W        W 7849   2.916   6.621   1.409  0.0048 -0.2793  0.2436
 3650W        W 7850  10.249   0.199   1.701  0.0728  0.0062 -0.0430
 3651W        W 7851   2.179   7.148   4.142 -0.4396 -0.0312  0.3200
 3652W        W 7852   0.054   1.820   0.918  0.0681  0.0870 -0.1072
 3653W        W 7853   5.852   2.906   9.209  0.2507 -0.1435 -0.0956
 3654W        W 7854   1.818   0.729   1.142 -0.0105 -0.0985  0.1378
 3655W        W 7855   3.921   5.149  11.989  0.1097 -0.0124  0.0765
 3656W        W 7856   7.461   6.905   1.881 -0.1551 -0.1760  0.1218
 3657W        W 7857   6.639   2.047  13.370 -0.2816 -0.0598 -0.1268
 3658W        W 7858   8.502   9.560  12.024  0.3150  0.1042  0.1272
 3659W        W 7859   8.457  10.242  11.278  0.0314 -0.0658  0.1652
 3660W        W 7860   2.678   5.140  12.426  0.2706  0.2563 -0.1497
 3661W        W 7861  10.207   4.626  10.344 -0.1386  0.0690 -0.1116
 3662W        W 7862   6.997   3.003   4.588  0.0928  0.1178  0.0618
 3663W        W 7863   0.356   2.344   9.074 -0.3033 -0.5846  0.0702
 3664W        W 7864   7.807   8.153   2.527  0.0002 -0.2351  0.2071
 3665W        W 7865   2.039   0.753   1.583  0.1886 -0.3090 -0.1657
 3666W        W 7866   6.827   1.436  11.250  0.2709  0.1486 -0.0622
 3667W        W 7867   9.051   9.035  10.013 -0.2761  0.1459  0.0573
 3668W        W 7868   3.569   3.107   4.101 -0.1647 -0.0870 -0.1148
 3669W        W 7869   8.629   3.764  11.171 -0.3624  0.0670 -0.1183
 3670W        W 7870   1.108   2.369   5.606 -0.1373  0.2227  0.1171
 3671W        W 7871   9.464   4.666   3.480  0.2181 -0.2248  0.0530
 3672W        W 7872   3.687   9.591   8.472  0.1220  0.1181 -0.1450
 3673W        W 7873   9.692   6.236   0.810 -0.2225  0.1079  0.0032
 3674W        W 7874   0.404   1.193   0.047  0.0799 -0.3410 -0.2262
 3675W        W 7875   8.346   4.120   3.208  0.0721  0.0879  0.1073
 3676W        W 7876   3.342   3.026   4.613  0.3350  0.0735 -0.2243
 3677W        W 7877   2.840   5.456  11.050  0.1102 -0.0899 -0.3025
 3678W        W 7878   2.989   6.605  11.804 -0.0295 -0.2921  0.0950
 3679W        W 7879   9.990   9.816  12.037  0.0455 -0.1200  0.1702
 3680W        W 7880   3.176   6.782  10.117  0.0220 -0.0950  0.2258
 3681W        W 7881   5.262   7.538  12.952 -0.0705 -0.3066  0.1053
 3682W        W 7882   6.887   1.635   1.046 -0.3081  0.1412 -0.3294
 3683W        W 7883   9.873   9.165   0.282  0.1044  0.0657 -0.3038
 3684W        W 7884   6.457   3.113   4.102 -0.2238 -0.1370 -0.2879
 3685W        W 7885   2.438   6.243  10.354 -0.0908 -0.0643 -0.1678
 3686W        W 7886   1.886   6.896  11.051 -0.2302 -0.2170  0.1312
 3687W        W 7887   1.847   9.893   1.641  0.0675  0.3451 -0.2621
 3688W        W 7888   8.054   4.648  11.019 -0.3367  0.0924  0.0873
 3689W        W 7889   4.552   2.159   2.893  0.0562 -0.1932 -0.0912
 3690W        W 7890   8.586   2.427  10.536  0.0410 -0.0372  0.1903
 3691W        W 7891   8.679   6.535   9.860  0.1141 -0.1391 -0.0567
 3692W        W 7892   4.963   6.003   1.245 -0.0318  0.2740  0.2154
 3693W        W 7893   8.592   1.875  12.153 -0.1258 -0.1544 -0.1058
 3694W        W 7894   7.527   8.077  11.201  0.0120 -0.1011  0.1004
 3695W        W 7895   9.826   1.150  13.025  0.0589 -0.2831 -0.2459
 3696W        W 7896   9.728   5.407   9.997  0.0537  0.0728  0.3462
 3697W        W 7897   1.040   2.983   0.028  0.0267  0.0412 -0.0306
 3698W        W 7898   4.470   7.427   9.912  0.2436  0.1599 -0.0860
 3699W        W 7899   1.563   3.197  11.012 -0.0985  0.0033  0.2720
 3700W        W 7900   4.665   7.832  10.206 -0.0819  0.3688 -0.0140
 3701W        W 7901   3.863   7.277   0.324 -0.1384 -0.0830 -0.4058
 3702W        W 7902   0.945   9.403  11.089  0.1149  0.1722  0.1640
 3703W        W 7903   0.852   3.038   5.181 -0.4195 -0.0491  0.0243
 3704W        W 7904   5.711   5.677   3.864  0.2490  0.0150  0.2262
 3705W        W 7905   5.408   5.186  11.273  0.1618 -0.2111  0.0412
 3706W        W 7906   2.274   4.178   3.225  0.3184 -0.0055 -0.6662
 3707W        W 7907   1.461   3.988  12.358 -0.2261 -0.0366  0.0699
 3708W        W 7908   4.928   2.386   4.376  0.0868  0.1202  0.0216
 3709W        W 7909   4.110   9.584   3.459 -0.2104 -0.1107 -0.1323
 3710W        W 7910   3.722   4.065   2.540 -0.3393 -0.0618 -0.2509
 3711W        W 7911   7.369   8.611  13.266  0.0743  0.1961  0.0015
 3712W        W 7912  10.397   4.170  10.232  0.0122 -0.1818 -0.0338
 3713W        W 7913   0.810   6.289   1.620  0.2167  0.1384 -0.2618
 3714W        W 7914   3.428   9.016   2.304 -0.1196  0.0689  0.0946
 3715W        W 7915   1.167   1.976  12.292  0.1504 -0.0571  0.2314
 3716W        W 7916   2.962   5.188  11.644 -0.0890 -0.0596  0.0257
 3717W        W 7917   7.865   7.744  13.216 -0.0877 -0.4652  0.1522
 3718W        W 7918   3.821   2.335   1.284  0.0304 -0.2971 -0.1698
 3719W        W 7919   0.009   2.163   9.852 -0.0045 -0.0259  0.1304
 3720W        W 7920   1.512   7.257  11.303  0.2706  0.0432 -0.0405
 3721W        W 7921   1.079   1.881   1.204 -0.1630 -0.0626  0.1949
 3722W        W 7922   5.567   7.702   1.692 -0.0152 -0.1286  0.0382
 3723W        W 7923   5.116   9.861  10.864 -0.1109  0.0851 -0.0810
 3724W        W 7924  10.209   1.678  13.244  0.0188 -0.3429 -0.0464
 3725W        W 7925   3.924   9.823   9.895  0.0265 -0.1000 -0.3263
 3726W        W 7926   0.363   6.566   1.571  0.0844  0.1713  0.1254
 3727W        W 7927   3.512   5.947   2.701  0.0470 -0.0215  0.0445
 3728W        W 7928   9.589   1.650   9.046  0.2475 -0.1093  0.0653
 3729W        W 7929   1.716   0.434  13.139  0.1501  0.0622 -0.2607
 3730W        W 7930   0.106   4.947  10.606 -0.1092  0.0950  0.1444
 3731W        W 7931  10.201  10.153   2.169  0.2495 -0.1079  0.1825
 3732W        W 7932   6.716   0.882  11.252 -0.0561 -0.0369  0.2602
 3733W        W 7933   0.674   4.192  11.419  0.1241 -0.1605 -0.1492
 3734W        W 7934   0.800   0.876  13.581 -0.3175  0.1893  0.2217
 3735W        W 7935   3.038   0.026  13.118 -0.2510 -0.1600 -0.1696
 3736W        W 7936   8.373   9.864  10.222 -0.2010 -0.1751 -0.0189
 3737W        W 7937   2.341   1.202  10.844 -0.1699 -0.2575 -0.1146
 3738W        W 7938   5.041   0.343   8.815 -0.0049  0.0134 -0.2722
 3739W        W 7939   3.635   4.907  11.123  0.0025  0.0812  0.0577
 3740W        W 7940  10.102   7.262   0.605 -0.1572 -0.0946 -0.1127
 3741W        W 7941   4.030  10.128  12.985 -0.1689 -0.0486  0.0672
 3742W        W 7942   9.262   4.925   0.780  0.0483 -0.0140  0.0842
 3743W        W 7943   9.690   0.731  12.696 -0.2999 -0.2278 -0.1854
 3744W        W 7944   3.428   1.554   2.227  0.0589 -0.0805  0.2421
 3745W        W 7945   8.189   4.453   2.309 -0.1220  0.0971 -0.0124
 3746W        W 7946   7.141  10.134  13.275 -0.1658  0.0587  0.1937
 3747W        W 7947   2.168   5.476  12.460 -0.0850  0.1599  0.2576
 3748W        W 7948   3.887   4.230  11.894 -0.1271 -0.1151 -0.0076
 3749W        W 7949   9.505   0.525   2.564 -0.1082  0.2709  0.0848
 3750W        W 7950   3.014   8.006   3.725 -0.1345  0.0055 -0.1725
 3751W        W 7951   9.319   2.623   0.128 -0.1300 -0.2560 -0.0808
 3752W        W 7952   1.347   0.857   1.152  0.0404  0.0460 -0.3380
 3753W        W 7953   3.242   1.536   0.242 -0.0189  0.1733 -0.2340
 3754W        W 7954   4.062   2.062  12.968  0.1430 -0.3496 -0.2131
 3755W        W 7955   9.029   9.892  13.234 -0.0597  0.0598  0.3252
 3756W        W 7956   3.090   3.766   9.992  0.0611 -0.0915  0.1672
 3757W        W 7957   1.020   0.981   2.859 -0.0796 -0.0922  0.1804
 3758W        W 7958   6.468   8.612   0.953 -0.2858  0.0628 -0.1223
 3759W        W 7959   2.815   6.834   3.913  0.4356 -0.1873 -0.0316
 3760W        W 7960   1.498   0.188   3.483  0.3644  0.5550 -0.0627
 3761W        W 7961   9.947  10.152  12.792 -0.0315 -0.0108 -0.1531
 3762W        W 7962   9.246   6.474   0.611 -0.1123  0.0238 -0.1852
 3763W        W 7963   8.544   2.002   2.556 -0.0935 -0.1317 -0.0109
 3764W        W 7964   3.728   7.596  10.683  0.4184 -0.0643 -0.1151
 3765W        W 7965   8.957   2.909  10.997  0.0342 -0.1134  0.0486
 3766W        W 7966   1.266   9.064  13.475  0.2674  0.0566  0.0497
 3767W        W 7967   2.857   3.636   4.152  0.0160  0.0081 -0.0264
 3768W        W 7968   5.719   3.946  11.641 -0.3533  0.0805  0.0440
 3769W        W 7969   4.783   0.655   1.320 -0.2013 -0.1002 -0.0510
 3770W        W 7970   1.164   5.741   9.592 -0.1266  0.2585 -0.0617
 3771W        W 7971   9.058   2.218  13.117  0.0665 -0.2983 -0.1179
 3772W        W 7972   6.344   0.032   0.913  0.4092 -0.1145  0.1903
 3773W        W 7973   6.069  10.290  11.962 -0.1851 -0.0915 -0.0151
 3774W        W 7974   0.625   4.185  10.908 -0.0582 -0.0541  0.0455
 3775W        W 7975   6.183   3.577   3.340  0.0209 -0.2085 -0.2902
 3776W        W 7976   7.353   2.013  10.890  0.5257 -0.3419 -0.0752
 3777W        W 7977   5.891   9.464   0.130 -0.1129 -0.1347 -0.0899
 3778W        W 7978   2.587   3.340   3.298  0.0523 -0.0115 -0.1959
 3779W        W 7979   9.340   6.570  12.513  0.1208  0.1506 -0.1635
 3780W        W 7980   4.934   3.148  12.837  0.2015  0.1618  0.2655
 3781W        W 7981   3.540   7.128   1.895  0.0204  0.2219 -0.6754
 3782W        W 7982   4.494   9.845  13.656 -0.1818 -0.0496 -0.1639
 3783W        W 7983   3.777   4.564   2.792 -0.3651  0.0249  0.1205
 3784W        W 7984   3.824   6.751   1.704  0.0758  0.2022 -0.6069
 3785W        W 7985   2.836   7.468   3.789  0.0273 -0.2324 -0.2246
 3786W        W 7986   5.419   0.289   4.236  0.1203 -0.1849 -0.2840
 3787W        W 7987   0.584   9.637  12.056  0.1224  0.2019  0.1937
 3788W        W 7988   3.118   2.690  10.327  0.0195 -0.0833 -0.2672
 3789W        W 7989   7.517   5.131  11.485  0.0654 -0.0755 -0.2291
 3790W        W 7990   8.223   2.925   4.591 -0.2061  0.1171 -0.2693
 3791W        W 7991   8.795   8.243   2.698 -0.2177  0.0765  0.0254
 3792W        W 7992  10.093   2.051   2.464  0.1480  0.0257  0.0894
 3793W        W 7993   8.448   5.297   9.724 -0.3522 -0.1810 -0.0756
 3794W        W 7994   2.225   4.975  12.274  0.0600  0.2000 -0.1969
 3795W        W 7995   8.657   1.759   3.013  0.2171  0.4737 -0.0470
 3796W        W 7996   1.569  10.145   0.766  0.2863 -0.0193 -0.1408
 3797W        W 7997   4.999   5.527   2.635 -0.0980  0.0028 -0.2836
 3798W        W 7998   2.330   7.414   0.128  0.3925 -0.1296 -0.2481
 3799W        W 7999   0.759   5.780  11.421 -0.1807 -0.2073  0.4115
 3800W        W 8000   3.206   9.120   9.842  0.0389 -0.0347  0.0497
 3801W        W 8001   6.183   7.041   1.345  0.0564  0.1280 -0.3727
 3802W        W 8002   4.072   6.051  13.199  0.1233  0.1841  0.0569
 3803W        W 8003   5.752   6.876   2.280 -0.0508 -0.1518  0.2387
 3804W        W 8004   5.888   5.206   4.096 -0.3793 -0.0284  0.0853
 3805W        W 8005   9.373   1.240   1.421  0.2620 -0.1911 -0.0264
 3806W        W 8006   6.940   1.139   0.009  0.0703 -0.2226 -0.1520
 3807W        W 8007   0.664   7.098  12.437  0.4466  0.0332  0.1047
 3808W        W 8008   0.307   9.449   0.621  0.0274 -0.1133 -0.1315
 3809W        W 8009   4.692   0.496  10.469 -0.1445  0.0084  0.0486
 3810W        W 8010   5.009   1.922   1.641 -0.2217  0.0998  0.1026
 3811W        W 8011   7.084   2.852  10.005  0.2117  0.0655  0.0757
 3812W        W 8012   2.409   7.524  12.675 -0.0521 -0.1769 -0.2992
 3813W        W 8013   0.924   0.784   0.408  0.3521 -0.2602 -0.0375
 3814W        W 8014   3.841   5.056   3.079 -0.0276 -0.1337 -0.0847
 3815W        W 8015   9.995   5.186   0.225  0.0874 -0.0973  0.3345
 3816W        W 8016   4.016   9.669  12.646  0.1561  0.0287 -0.1863
 3817W        W 8017   4.784   8.793  12.252 -0.4397 -0.1354 -0.2894
 3818W        W 8018   7.499   4.723   1.005 -0.0510  0.2625  0.2030
 3819W        W 8019   0.969   5.794   2.154  0.0715 -0.0069 -0.2967
 3820W        W 8020   0.224   9.140  11.168 -0.2165  0.1816  0.0202
 3821W        W 8021   0.832   0.880   9.637  0.2651 -0.3024 -0.0032
 3822W        W 8022   8.495   6.915  10.110 -0.0020  0.1697 -0.2231
 3823W        W 8023   7.408   5.690   0.633  0.0961  0.1748  0.2059
 3824W        W 8024   5.336   6.490   9.412  0.3384  0.1515  0.1292
 3825W        W 8025   6.880   3.087   9.624  0.0342  0.1990  0.1478
 3826W        W 8026   0.020   8.132   3.530 -0.3434  0.0083 -0.1317
 3827W        W 8027   1.589   5.500  13.601 -0.0094  0.1290 -0.1069
 3828W        W 8028   2.440   8.851  13.077  0.3060  0.1868 -0.1139
 3829W        W 8029   5.909   7.711   0.178 -0.2151 -0.3023 -0.3300
 3830W        W 8030   0.154   5.282   2.182 -0.0118 -0.1008 -0.0352
 3831W        W 8031   2.138   1.169   2.005  0.0290 -0.0260 -0.1447
 3832W        W 8032   0.921   5.670   0.581 -0.0309 -0.0325 -0.2564
 3833W        W 8033   9.289   0.004   2.266  0.0224 -0.0144 -0.0222
 3834W        W 8034   5.057   1.827   9.560  0.1567 -0.0581  0.1911
 3835W        W 8035   5.735   1.236   4.635  0.0513 -0.0108 -0.2441
 3836W        W 8036   0.948   8.500  10.870 -0.1175 -0.1618 -0.0027
 3837W        W 8037   6.165   4.938  12.999 -0.3096  0.0880 -0.2324
 3838W        W 8038   2.465   4.353  12.661 -0.0133 -0.0150  0.0990
 3839W        W 8039   5.577   4.580   0.544  0.2595  0.0837  0.1373
 3840W        W 8040   8.667   5.873   0.882  0.0207 -0.3758  0.2092
 3841W        W 8041   4.054   9.701  13.482  0.1501 -0.0848 -0.1054
 3842W        W 8042   5.889   0.352  13.537 -0.0543 -0.2987  0.2045
 3843W        W 8043   0.635   3.452  12.740 -0.0219  0.1268 -0.0226
 3844W        W 8044   7.504   4.114   3.848  0.1289  0.1177  0.1322
 3845W        W 8045   1.281   7.730   3.980 -0.2380  0.3371  0.0880
 3846W        W 8046   7.934   0.374  12.942  0.4170  0.3380  0.0193
 3847W        W 8047   4.869   7.091  13.455  0.0227  0.1562  0.2879
 3848W        W 8048   1.280   5.910  13.401  0.0520  0.0162 -0.0138
 3849W        W 8049   5.866   4.448   4.677 -0.2348 -0.1568  0.0419
 3850W        W 8050   9.581   5.504  11.792 -0.2593 -0.3328 -0.1957
 3851W        W 8051   4.886   9.302  13.002  0.1393 -0.2286  0.3122
 3852W        W 8052   4.550   9.864   1.165  0.1418  0.0203  0.3349
 3853W        W 8053   6.102   6.284   0.753 -0.0409 -0.3543  0.2962
 3854W        W 8054   3.290   2.974   9.491  0.1509 -0.2723 -0.0375
 3855W        W 8055   3.975   0.256  13.027 -0.0015  0.3237  0.1849
 3856W        W 8056   5.473   3.993   1.780 -0.1845  0.2773 -0.1253
 3857W        W 8057   0.882   4.553   5.526 -0.3839 -0.0809 -0.1454
 3858W        W 8058   3.835   5.030  12.446 -0.0769  0.2430  0.0487
 3859W        W 8059  10.129   2.729  10.941  0.0471 -0.1083 -0.0690
 3860W        W 8060   3.451   0.616   1.329  0.1024  0.2518 -0.2490
 3861W        W 8061   7.479   1.947   3.462 -0.1361 -0.1518 -0.0926
 3862W        W 8062   1.948   3.322  11.377  0.0656  0.0654 -0.4129
 3863W        W 8063   5.462   0.294   0.432 -0.0008 -0.3882  0.2320
 3864W        W 8064   2.581   3.583   5.145  0.2189  0.1518  0.0364
 3865W        W 8065   9.493   9.644  11.987  0.0522 -0.1521 -0.1255
 3866W        W 8066   2.286   6.189   9.225  0.3332  0.1722 -0.0884
 3867W        W 8067  10.072   1.635   9.937  0.0002  0.0087  0.3208
 3868W        W 8068  10.355   4.884   4.151 -0.1776 -0.0604 -0.1924
 3869W        W 8069   1.645   7.272   1.349  0.3303 -0.0229  0.0315
 3870W        W 8070   7.266   1.721   3.046  0.0761 -0.0829  0.1695
 3871W        W 8071   0.489  10.144  10.569  0.0962  0.0235  0.2063
 3872W        W 8072   2.844   0.556  10.556  0.0637 -0.0319 -0.1469
 3873W        W 8073  10.006   2.207  13.364 -0.1459  0.2992 -0.0954
 3874W        W 8074   6.961   6.322   1.026  0.1875 -0.0992  0.0180
 3875W        W 8075   6.378   5.503   2.038 -0.1315 -0.2005 -0.3541
 3876W        W 8076   3.928   7.413  11.795 -0.2912 -0.0930 -0.2583
 3877W        W 8077   9.316   2.897   1.940  0.2171 -0.1557  0.1474
 3878W        W 8078   1.162   3.663   9.721  0.0049 -0.3352  0.2204
 3879W        W 8079   4.127   2.068   8.374  0.0118  0.0100  0.0550
 3880W        W 8080   5.373   6.699  10.775  0.0163  0.1921 -0.0902
 3881W        W 8081   3.700   1.163  13.219  0.3974  0.1214  0.0882
 3882W        W 8082   1.611   8.514   1.674  0.1535 -0.1115 -0.0918
 3883W        W 8083   3.721   8.828   9.160 -0.3141 -0.1286  0.3959
 3884W        W 8084   7.523   3.765  12.205 -0.0987 -0.0800 -0.0379
 3885W        W 8085   2.774   6.667   8.815  0.0646 -0.1626  0.0260
 3886W        W 8086   5.890   7.575   1.240  0.1409  0.1586 -0.1116
 3887W        W 8087   8.620   3.301   2.961 -0.0789  0.1425 -0.1280
 3888W        W 8088   0.362   3.969   9.191  0.0796 -0.1775 -0.1907
 3889W        W 8089   8.918   8.611   1.876 -0.0321 -0.0273  0.0417
 3890W        W 8090   6.526   7.821  10.458  0.0253 -0.2210  0.3733
 3891W        W 8091   8.651   4.965   4.111  0.0716 -0.0538 -0.1387
 3892W        W 8092   8.307   2.290   1.078  0.0612  0.1595 -0.2535
 3893W        W 8093   5.608   1.239   2.725 -0.3470  0.4570  0.3236
 3894W        W 8094   4.110   2.468  11.094  0.1200 -0.0125 -0.0402
 3895W        W 8095   5.919   4.800   1.618  0.0699 -0.0919 -0.0255
 3896W        W 8096   1.038  10.022   2.502 -0.3775  0.1825 -0.1597
 3897W        W 8097   7.032   5.442  11.697  0.2683  0.2001  0.1619
 3898W        W 8098   4.600   3.794   3.334 -0.3082 -0.3937  0.0221
 3899W        W 8099   4.020   4.048  12.358 -0.1125 -0.1624  0.0011
 3900W        W 8100   7.394   7.237   4.190  0.0112 -0.2310 -0.2147
 3901W        W 8101   5.473  10.339  11.670  0.2966 -0.1142  0.0381
 3902W        W 8102   8.684   2.558  12.828 -0.1886 -0.2601  0.2045
 3903W        W 8103   9.528   5.290   2.683 -0.1725  0.0839 -0.3454
 3904W        W 8104   5.606   7.179  12.498  0.1319 -0.1004 -0.1493
 3905W        W 8105   9.797   8.960   2.997  0.1086  0.1582  0.3394
 3906W        W 8106   2.254   2.904   3.548  0.1387 -0.0085  0.0962
 3907W        W 8107   7.940   5.828   0.345 -0.0265 -0.0799  0.0034
 3908W        W 8108   8.013   2.610   9.914  0.0966 -0.2589 -0.0327
 3909W        W 8109   6.285   2.304  11.405 -0.1046  0.2244  0.2454
 3910W        W 8110   1.355   7.228   3.851  0.1955  0.1077 -0.2817
 3911W        W 8111   0.816   4.819  13.563  0.0723 -0.3056 -0.1086
 3912W        W 8112   1.843   5.038   9.325 -0.1360  0.1092 -0.0175
 3913W        W 8113   4.876   8.572  10.815  0.0994 -0.1780  0.0578
 3914W        W 8114   4.371   4.350   0.503  0.0766 -0.4497 -0.2370
 3915W        W 8115   7.289   9.613  12.606 -0.1765  0.0417  0.0774
 3916W        W 8116   4.188   1.974   0.664 -0.0288 -0.0973  0.1388
 3917W        W 8117   7.913   8.030  11.612 -0.1155  0.1571  0.0724
 3918W        W 8118   6.933   0.670   3.498 -0.0044 -0.1584 -0.0357
 3919W        W 8119   3.293   0.524   2.256 -0.0030 -0.2378 -0.2887
 3920W        W 8120   3.036   2.781  12.039 -0.1120  0.0014  0.0627
 3921W        W 8121   9.142   3.338   4.670  0.6128  0.3332 -0.4572
 3922W        W 8122   0.281   0.195   1.512  0.1338 -0.1093 -0.1990
 3923W        W 8123   8.728   0.884  12.127  0.2328 -0.0555  0.1645
 3924W        W 8124   8.003   4.438   8.761 -0.1071  0.2644  0.1238
 3925W        W 8125   2.213   4.185   2.767 -0.1785 -0.0196  0.0700
 3926W        W 8126   0.150   1.021   4.717 -0.0080  0.1894  0.2825
 3927W        W 8127   4.836   4.361  12.837  0.2206 -0.1957  0.0630
 3928W        W 8128   6.614   7.219  12.888 -0.2251  0.0362 -0.0247
 3929W        W 8129   8.779   6.493   0.877 -0.0995  0.1612 -0.2316
 3930W        W 8130   2.822   3.981  11.133 -0.2794 -0.1093  0.2495
 3931W        W 8131  10.317   5.547   2.994 -0.0920  0.0136  0.1394
 3932W        W 8132   1.721   8.113  11.586  0.0895 -0.0080 -0.0863
 3933W        W 8133   8.655   0.387   9.707  0.0014 -0.2066 -0.2464
 3934W        W 8134   0.696   5.107   0.802 -0.2851  0.3120 -0.5421
 3935W        W 8135   2.967   0.511  12.957 -0.1312 -0.1342  0.0020
 3936W        W 8136   3.671   0.440  10.079 -0.0843  0.1169  0.3004
 3937W        W 8137   8.935   1.124  10.432  0.3238 -0.1692  0.2502
 3938W        W 8138  10.350   4.869   2.242 -0.5162 -0.0324 -0.0380
 3939W        W 8139   3.060   5.944   1.288  0.2620  0.4275 -0.0923
 3940W        W 8140   7.328   6.400   2.631  0.5136 -0.0380 -0.0708
 3941W        W 8141   1.399   8.070   2.207 -0.0020  0.1928  0.0928
 3942W        W 8142   0.404   4.193   0.521  0.1212 -0.2208 -0.1174
 3943W        W 8143   7.099   3.919   2.854 -0.0072 -0.0843  0.1283
 3944W        W 8144   8.302   3.438   1.192  0.0156 -0.2214 -0.0866
 3945W        W 8145   7.900   0.066  10.849  0.0512 -0.0221  0.2861
 3946W        W 8146   6.292   6.029  12.769  0.0187  0.0643 -0.0145
 3947W        W 8147   3.167   3.448   8.323 -0.2278 -0.1777  0.4097
 3948W        W 8148   8.953   5.073   2.897  0.0005  0.1951  0.2468
 3949W        W 8149   3.319   5.185  12.562 -0.0750  0.0820  0.1904
 3950W        W 8150   7.374   3.266   9.595 -0.1439 -0.2442  0.3593
 3951W        W 8151  10.166   7.623  12.100  0.2572  0.4145 -0.0278
 3952W        W 8152   9.802   4.141  11.063 -0.4616  0.1195 -0.1577
 3953W        W 8153   6.622   7.155   0.574 -0.0598 -0.2642 -0.4932
 3954W        W 8154   8.344   7.830   1.017 -0.1446  0.1377  0.3492
 3955W        W 8155   2.531   3.726  12.954 -0.0154 -0.0082 -0.0369
 3956W        W 8156   3.097   8.680   2.419  0.1044 -0.3484 -0.1048
 3957W        W 8157   7.232   9.949  10.920 -0.0249  0.0868 -0.1329
 3958W        W 8158   0.242   9.377   2.754  0.2030 -0.0800  0.0173
 3959W        W 8159   3.812   7.028  13.093 -0.0154  0.2597  0.0922
 3960W        W 8160   2.461   6.732   0.587  0.2039  0.2114 -0.1388
 3961W        W 8161   2.188   9.381   2.366 -0.0062 -0.0132 -0.1149
 3962W        W 8162   0.586   8.303   9.312 -0.3674 -0.0007 -0.2723
 3963W        W 8163   3.763   2.155   1.756 -0.0264 -0.2095  0.2357
 3964W        W 8164   4.553   2.061  10.969 -0.2575  0.0313 -0.2946
 3965W        W 8165   7.946   5.601   5.319 -0.0252 -0.2125  0.3068
 3966W        W 8166   2.269   0.995   4.113 -0.2547 -0.0967 -0.0920
 3967W        W 8167   1.350   5.216   4.382 -0.0279  0.0920  0.1638
 3968W        W 8168   8.316   7.203  10.475 -0.0570 -0.2468  0.0101
 3969W        W 8169   0.140   4.380  10.755 -0.0884 -0.1447  0.1163
 3970W        W 8170   6.406   8.072  11.689 -0.1388  0.2010 -0.3641
 3971W        W 8171   3.905   6.418   4.168 -0.1224  0.3622 -0.4415
 3972W        W 8172   3.672   1.655  12.993 -0.1785 -0.1879  0.0992
 3973W        W 8173   0.998   1.173  10.808  0.0564 -0.0421 -0.2343
 3974W        W 8174   5.041   1.786  13.280 -0.1323  0.1182 -0.2904
 3975W        W 8175   1.141   3.551   9.046 -0.3113 -0.1283 -0.0767
 3976W        W 8176   7.969   6.030   9.762  0.0604 -0.1367  0.2081
 3977W        W 8177   5.978   2.808   9.842 -0.1260 -0.1288  0.2336
 3978W        W 8178   3.724   4.721   9.355  0.1437 -0.0306 -0.0067
 3979W        W 8179   5.033   2.024   1.130 -0.0437  0.0869  0.0820
 3980W        W 8180  10.264   9.923   9.714  0.1581 -0.1787 -0.2272
 3981W        W 8181   1.033   8.747  11.627 -0.0555 -0.2670  0.1744
 3982W        W 8182   3.177   8.140  13.133 -0.0725  0.0908 -0.4459
 3983W        W 8183   9.067   2.463  10.787 -0.1593  0.0663  0.4212
 3984W        W 8184   9.545   4.693   9.709  0.0007  0.0980 -0.1244
 3985W        W 8185   5.912   1.553   1.219  0.0717  0.1307  0.1456
 3986W        W 8186   3.106   8.442   9.913  0.4265  0.0917  0.0978
 3987W        W 8187   7.220   4.630   0.291  0.1981 -0.1233  0.1075
 3988W        W 8188   9.061   4.731  12.871 -0.2708 -0.0639 -0.3305
 3989W        W 8189   7.488   2.241   0.756  0.4809 -0.3854  0.3780
 3990W        W 8190   4.087   8.207   0.090 -0.1929  0.5505 -0.1400
 3991W        W 8191   1.287   6.492   2.790 -0.1110 -0.1681 -0.3156
 3992W        W 8192   1.155   2.924   2.620  0.0935 -0.2573  0.1430
 3993W        W 8193   8.364   5.364   4.181  0.0421  0.0602 -0.0607
 3994W        W 8194   7.670   2.371  12.526  0.1182  0.0613 -0.0052
 3995W        W 8195   1.667   8.255  12.944 -0.2603 -0.1176  0.0401
 3996W        W 8196   0.751   0.733   3.232  0.1686  0.2893  0.3293
 3997W        W 8197   3.313   8.756  13.569  0.0315 -0.0454  0.0409
 3998W        W 8198   4.957   1.641   0.166  0.0692  0.0679 -0.0738
 3999W        W 8199   7.021   6.802   2.501  0.2295  0.1496  0.0799
 4000W        W 8200   2.547   9.172   1.846 -0.0476  0.0550 -0.1994
 4001W        W 8201   8.367   5.971  10.079 -0.1046  0.1859  0.3498
 4002W        W 8202   3.764   7.300   3.742 -0.1721 -0.0534 -0.0464
 4003W        W 8203   2.742   8.884   3.336  0.0270  0.2965  0.0804
 4004W        W 8204   5.070   5.457   4.338 -0.0170  0.2223  0.1716
 4005W        W 8205   9.041   1.781  13.330  0.0518  0.1876  0.2690
 4006W        W 8206   5.084   4.692   3.032 -0.5059 -0.1377 -0.0262
 4007W        W 8207   3.618   7.445  12.156 -0.0051  0.1593  0.2493
 4008W        W 8208   3.684   7.844   0.179 -0.1075 -0.2568  0.0499
 4009W        W 8209   0.080   5.298   8.919  0.1991 -0.1364  0.0574
 4010W        W 8210   8.768   0.186   0.624  0.0446  0.1497  0.2082
 4011W        W 8211   1.348   0.557  10.442  0.0154  0.0815 -0.2687
 4012W        W 8212   9.015   3.421   3.242  0.0447  0.1846 -0.5866
 4013W        W 8213  10.087   2.791   9.408 -0.2993  0.0593 -0.5509
 4014W        W 8214   7.123   4.988  13.167 -0.1390 -0.0780 -0.1224
 4015W        W 8215   4.424   8.691   3.160 -0.0634  0.1872 -0.0172
 4016W        W 8216   7.958   6.286   0.624 -0.1340 -0.0161 -0.0498
 4017W        W 8217  10.036   7.408  12.634 -0.3273  0.0619  0.1474
 4018W        W 8218   2.550   0.390   0.102  0.3508  0.0608  0.0628
 4019W        W 8219   6.061   7.085   2.640 -0.2607 -0.3791 -0.0734
 4020W        W 8220   9.471   2.365  13.364 -0.5785  0.1941 -0.0115
 4021W        W 8221   1.049   0.892   4.376  0.0789  0.0433  0.2278
 4022W        W 8222   7.803   9.723  10.635 -0.3537 -0.1611 -0.0503
 4023W        W 8223   6.551   5.651   0.914 -0.0837 -0.0174  0.1066
 4024W        W 8224   4.761   6.845   1.316 -0.2699 -0.2306 -0.1599
 4025W        W 8225  10.207   5.356  12.972 -0.0592 -0.0920 -0.0215
 4026W        W 8226   2.612   8.800  11.538 -0.2596  0.0118  0.0769
 4027W        W 8227   7.736   0.459  10.580  0.2930 -0.0283 -0.0798
 4028W        W 8228   8.539   2.229  12.475  0.2076  0.0749  0.1374
 4029W        W 8229  10.399   7.153  12.811  0.1832  0.0116 -0.1519
 4030W        W 8230   5.811   8.763  12.042 -0.3333 -0.2095  0.0379
 4031W        W 8231   1.440   9.609  11.646 -0.3870 -0.1021 -0.1108
 4032W        W 8232   4.797   9.451  10.831 -0.0321 -0.1262  0.0739
 4033W        W 8233   4.464   9.927   3.193  0.1249 -0.0664 -0.0989
 4034W        W 8234   1.372   1.114   2.435 -0.0186 -0.2184  0.0493
 4035W        W 8235   9.175   2.335  11.742 -0.2631 -0.2641  0.0416
 4036W        W 8236   0.722   1.972  12.905 -0.3770  0.0604 -0.3708
 4037W        W 8237  10.022   3.818   8.476  0.2795 -0.1011 -0.1688
 4038W        W 8238   7.008   3.595   9.589  0.0245 -0.2789 -0.0911
 4039W        W 8239   5.774   7.705  12.865 -0.2834 -0.1657  0.2285
 4040W        W 8240   7.196   7.248  10.681  0.0867  0.0507 -0.4352
 4041W        W 8241   0.304   6.953   3.498  0.1641 -0.2102 -0.0756
 4042W        W 8242   5.362  10.227   0.635 -0.3746 -0.0924  0.1007
 4043W        W 8243   4.751   8.314  11.702 -0.1402 -0.0295  0.0326
 4044W        W 8244   5.790   0.686   1.954 -0.1996 -0.0626  0.1021
 4045W        W 8245   5.560   7.274  12.043  0.1383 -0.1192  0.1697
 4046W        W 8246   2.960   2.367   1.601  0.1125 -0.1460 -0.1540
 4047W        W 8247   4.866   4.280   1.947  0.1746 -0.0623 -0.0868
 4048W        W 8248   0.480   4.030   3.529 -0.2059 -0.1153 -0.0271
 4049W        W 8249   4.890   9.510   2.892  0.1075  0.0558 -0.0614
 4050W        W 8250   5.711   4.929   0.915 -0.0787 -0.1535 -0.1082
 4051W        W 8251   7.020   6.606   2.017  0.0196  0.0663 -0.1504
 4052W        W 8252   4.316   8.611  13.497 -0.1557  0.0177  0.1011
 4053W        W 8253   7.060   9.928   3.409  0.0988 -0.1411 -0.2139
 4054W        W 8254   9.215   0.854  13.018  0.0209  0.3028  0.1166
 4055W        W 8255   7.474   1.388   0.593  0.6120 -0.0234  0.2050
 4056W        W 8256   3.715   2.741  10.954 -0.3550  0.2461  0.3741
 4057W        W 8257   1.393   7.412  13.636  0.1410  0.2432 -0.2469
 4058W        W 8258   1.561   2.074   9.191 -0.1677  0.0717  0.2770
 4059W        W 8259   0.716   1.709   9.519 -0.0816 -0.2809  0.1162
 4060W        W 8260   1.883   7.232   0.005 -0.1458 -0.0594 -0.0663
 4061W        W 8261   1.091   7.602   0.795 -0.1537 -0.1954  0.1651
 4062W        W 8262   1.269   6.457  11.790  0.0720  0.0982 -0.0926
 4063W        W 8263   6.354   1.589   2.935  0.1336 -0.2114  0.1587
 4064W        W 8264   7.778   5.100   3.407 -0.1239  0.1354  0.0416
 4065W        W 8265   1.661   9.375   7.883  0.1995 -0.0016 -0.2973
 4066W        W 8266   5.208   2.675  10.267 -0.0743  0.3310 -0.0823
 4067W        W 8267   4.216   0.554  11.417 -0.0030 -0.0930 -0.0843
 4068W        W 8268   4.722   2.560  12.696 -0.0082  0.2223 -0.0647
 4069W        W 8269   6.226   6.383   1.632 -0.1733  0.1910 -0.0587
 4070W        W 8270   1.153   4.163  11.957  0.4033 -0.1401 -0.0593
 4071W        W 8271   7.705   8.867  12.549  0.1100 -0.4572  0.0995
 4072W        W 8272   3.800   2.481   2.144 -0.0568 -0.1800  0.3514
 4073W        W 8273   8.409   4.928  11.988  0.0859 -0.3814  0.2414
 4074W        W 8274   5.399  10.086  11.214  0.1647 -0.0937 -0.0289
 4075W        W 8275   4.889   7.079   9.881 -0.0712  0.1361  0.2329
 4076W        W 8276   9.416   1.820   3.375  0.2569 -0.0310 -0.0474
 4077W        W 8277   7.495   6.541  12.935  0.3135 -0.0703  0.3217
 4078W        W 8278   8.760   3.372   2.476  0.0293  0.1809 -0.1949
 4079W        W 8279   1.591   7.613   0.958  0.3794  0.4651 -0.1172
 4080W        W 8280   5.901   7.929   9.862 -0.1211  0.1255  0.0229
 4081W        W 8281   9.910   5.051   5.625  0.0749 -0.4158  0.0743
 4082W        W 8282   1.010   8.192   9.559 -0.1804  0.1002  0.3262
 4083W        W 8283   4.794   6.302   9.550  0.1582 -0.2313  0.2937
 4084W        W 8284   3.868   4.268   0.674 -0.2850  0.4109  0.0197
 4085W        W 8285   2.881   9.281  11.684 -0.2843  0.1030  0.0715
 4086W        W 8286   2.730   8.781   9.819 -0.1547 -0.2005  0.2718
 4087W        W 8287   4.373   8.512   3.621  0.1928  0.0077 -0.1852
 4088W        W 8288   4.457   7.154  10.502  0.2310  0.5223  0.0314
 4089W        W 8289   5.218  10.360   1.546 -0.2985  0.0108  0.1078
 4090W        W 8290   8.202   4.616   0.084  0.0339  0.3031  0.1330
 4091W        W 8291   4.847   9.570   4.145  0.0367 -0.0102 -0.0030
 4092W        W 8292   4.845   8.229  11.160  0.0886  0.1129 -0.0322
 4093W        W 8293   0.806   8.622   9.863 -0.0253 -0.0263  0.0011
 4094W        W 8294   5.933  10.111  11.383  0.0641  0.2277 -0.1760
 4095W        W 8295   2.896   7.241   4.487  0.0107  0.2056 -0.0401
 4096W        W 8296  10.330   8.888  10.841 -0.1592 -0.1134 -0.0015
 4097W        W 8297   8.186   1.296  13.009  0.2273 -0.3470  0.1690
 4098W        W 8298   5.713   0.254   0.875  0.3940  0.1649 -0.0391
 4099W        W 8299   9.843   2.243  12.873 -0.3770 -0.0093 -0.1773
 4100W        W 8300   9.771   8.310   2.273  0.2260 -0.1364 -0.1175
 4101W        W 8301   4.766   7.366   9.423  0.2267 -0.2025  0.0941
 4102W        W 8302   9.928   2.518  10.573  0.0216  0.1327 -0.0867
 4103W        W 8303   1.181   4.464  13.650 -0.0163 -0.1543 -0.0763
 4104W        W 8304   1.360   5.256  12.006 -0.1415 -0.3192 -0.0670
 4105W        W 8305   0.771   4.634  11.742 -0.0145  0.0970  0.0335
 4106W        W 8306   0.131   7.400   1.982  0.0740 -0.0438 -0.0671
 4107W        W 8307   3.644   6.511  10.935  0.3551 -0.0931 -0.4035
 4108W        W 8308   3.337   9.472  11.518 -0.0588 -0.3681 -0.1606
 4109W        W 8309   4.230   5.218   3.402  0.1761 -0.1890 -0.0038
 4110W        W 8310   6.510   2.798   9.844 -0.1432  0.3415 -0.0240
 4111W        W 8311   5.653   5.925   4.835  0.1754 -0.4278  0.0581
 4112W        W 8312   4.158   9.148  11.920  0.0035  0.3481  0.1486
 4113W        W 8313   5.240   5.886  10.522 -0.1425 -0.0368 -0.1484
 4114W        W 8314  10.343   1.249   3.507 -0.0152 -0.2219  0.0500
 4115W        W 8315   5.922   7.134  11.177 -0.2320 -0.0735  0.1838
 4116W        W 8316   2.532   9.650  12.498 -0.1021 -0.1032  0.0765
 4117W        W 8317   2.498   9.276   0.195 -0.5657  0.0380  0.2257
 4118W        W 8318   7.047   8.494   3.110  0.2817  0.1253  0.1498
 4119W        W 8319   7.826   8.631   2.654  0.3041 -0.1193 -0.0724
 4120W        W 8320   5.524   1.661   4.541 -0.1644 -0.1333  0.0519
 4121W        W 8321   9.926   6.938   4.086  0.1098 -0.0077 -0.2318
 4122W        W 8322   0.129   2.611   9.561 -0.4181  0.0715  0.2288
 4123W        W 8323   2.443   4.101  10.246  0.0684  0.1773  0.1931
 4124W        W 8324   0.732   2.597   9.320 -0.1831  0.3652  0.3486
 4125W        W 8325   6.307   4.067  13.651  0.0828  0.2280  0.1232
 4126W        W 8326   8.225   6.132   2.629  0.0193  0.3119  0.0102
 4127W        W 8327   7.001   4.399   2.943 -0.1556  0.0067 -0.1436
 4128W        W 8328   9.912   8.322   1.158  0.0833  0.0514  0.2127
 4129W        W 8329   0.632   7.686   0.605 -0.2628 -0.0008  0.1299
 4130W        W 8330   8.208  10.371   2.336  0.0921  0.3293 -0.1342
 4131W        W 8331  10.046   1.463  10.510  0.1016  0.1493  0.2145
 4132W        W 8332   0.319   6.679  13.038  0.0714 -0.2262  0.2136
 4133W        W 8333   2.823   4.911   3.667  0.0061  0.0898  0.2192
 4134W        W 8334   5.678   6.164   0.388 -0.3662  0.0544 -0.1307
 4135W        W 8335   8.397   3.731  13.547  0.2703 -0.1426 -0.2623
 4136W        W 8336   7.264   6.575   0.181  0.0587 -0.0739  0.2980
 4137W        W 8337   3.898   7.798   9.090 -0.3049  0.0473 -0.0989
 4138W        W 8338   5.738   3.903   4.546  0.0340 -0.1214  0.4539
 4139W        W 8339   4.057   0.364   0.137  0.1759  0.0305  0.2362
 4140W        W 8340   4.488   7.232   1.273  0.1633  0.1722 -0.3589
 4141W        W 8341   3.662   5.609   1.345  0.2461  0.4419  0.0040
 4142W        W 8342   5.262   9.676   2.022  0.0015 -0.0657  0.0100
 4143W        W 8343   1.186   4.639   1.432 -0.1604 -0.0310 -0.0248
 4144W        W 8344   3.176   8.623   2.949 -0.2875 -0.1920 -0.1103
 4145W        W 8345   0.628   0.996   4.581 -0.1254 -0.0665  0.0512
 4146W        W 8346   3.509   9.685   3.467 -0.1057 -0.3574  0.2163
 4147W        W 8347   7.850   7.339   3.151 -0.1189  0.2011 -0.1821
 4148W        W 8348   4.037   2.003  10.269  0.1779 -0.0243 -0.0396
 4149W        W 8349   1.317   5.055  13.575 -0.1871 -0.1382  0.0128
 4150W        W 8350   4.639   7.823  12.106 -0.4111  0.1695  0.0714
 4151W        W 8351   4.046   6.376   1.991  0.0406 -0.2671 -0.3818
 4152W        W 8352  10.299   8.868  11.785 -0.2250  0.1282  0.1584
 4153W        W 8353   1.444   9.846  12.078 -0.2098 -0.1027  0.1679
 4154W        W 8354  10.078   2.756   4.513  0.0124 -0.5331 -0.2587
 4155W        W 8355   1.568   9.687   9.830  0.2093 -0.1437  0.1551
 4156W        W 8356   1.719   1.878  12.361 -0.1458 -0.2137  0.3881
 4157W        W 8357   2.834   1.149  13.610  0.0823  0.2626  0.0382
 4158W        W 8358   3.816   1.377   3.982  0.0872 -0.1953  0.0497
 4159W        W 8359   0.868   0.195  12.222  0.2022  0.1187 -0.0686
 4160W        W 8360   4.419   8.652   0.758  0.2123 -0.0069 -0.1351
 4161W        W 8361   9.392   2.839  11.428 -0.1268  0.1433 -0.0633
 4162W        W 8362   8.032  10.357  12.237  0.2279 -0.4529 -0.1505
 4163W        W 8363   4.196   8.856   0.311  0.0616  0.2416  0.1802
 4164W        W 8364   8.864   6.212  12.898  0.0116  0.0281 -0.1227
 4165W        W 8365   5.914   3.736  12.067 -0.1109 -0.2668  0.1376
 4166W        W 8366   0.066   8.468   0.609  0.2332  0.2592 -0.2415
 4167W        W 8367   7.013   4.799   4.200  0.0978 -0.3018 -0.1532
 4168W        W 8368   7.068   4.536  12.959 -0.0663  0.3214 -0.0159
 4169W        W 8369   8.942   2.338  13.658  0.0302 -0.2985  0.0749
 4170W        W 8370   1.686   9.423   1.741  0.0516  0.2182 -0.2008
 4171W        W 8371   6.122   2.265   3.541 -0.0360  0.0440  0.1020
 4172W        W 8372   7.026  10.015   0.088 -0.0982 -0.0024 -0.0341
 4173W        W 8373   5.266   6.206   0.155  0.1253 -0.2410  0.1239
 4174W        W 8374   1.975   8.296   0.189  0.1806 -0.1543 -0.0135
 4175W        W 8375   5.046   4.072   0.944  0.1259  0.2378  0.0990
 4176W        W 8376   8.546  10.373  13.433 -0.0398 -0.2636 -0.0784
 4177W        W 8377   4.844   5.896   2.964 -0.1229 -0.2471  0.2320
 4178W        W 8378   9.284   6.281   3.707  0.0296 -0.1958 -0.3768
 4179W        W 8379   0.031   2.548  10.248  0.0251  0.0159 -0.0901
 4180W        W 8380   5.808   7.190   4.725  0.1239  0.0534  0.1029
 4181W        W 8381   7.422   3.620   2.299 -0.0026  0.0087 -0.1693
 4182W        W 8382  10.287   6.245  12.414  0.1735  0.0995  0.0334
 4183W        W 8383   2.637   6.273  11.995 -0.0481  0.1333  0.1830
 4184W        W 8384   6.357   1.923  10.112  0.1187 -0.0578 -0.0591
 4185W        W 8385   5.216   9.137   0.855 -0.0126 -0.0220  0.0376
 4186W        W 8386   1.728   6.577   2.046 -0.3167 -0.2941  0.3264
 4187W        W 8387   9.021   7.144   1.091  0.1946 -0.5462 -0.1846
 4188W        W 8388   5.635   7.811   3.051 -0.3784 -0.3409  0.1334
 4189W        W 8389   4.736   3.473   0.924 -0.1686 -0.1561 -0.0585
 4190W        W 8390   4.493   9.909  12.235 -0.0769  0.1633  0.0626
 4191W        W 8391   2.996   7.032   8.332 -0.1240 -0.2471  0.2149
 4192W        W 8392   2.611  10.383   2.188  0.0737  0.0962 -0.3379
 4193W        W 8393   4.441   2.364  10.561  0.1481  0.2647 -0.0217
 4194W        W 8394   5.251   0.457  12.824  0.2777  0.2189  0.2686
 4195W        W 8395   4.944   7.815   2.019  0.0883  0.1056  0.4499
 4196W        W 8396   5.263   2.164  11.769  0.2514  0.2367  0.3339
 4197W        W 8397   5.602   6.517   4.132 -0.0004 -0.3237  0.0597
 4198W        W 8398   2.628   9.458   1.455 -0.2326 -0.0472  0.1773
 4199W        W 8399   4.013   3.271  12.223  0.0300  0.2455 -0.0562
 4200W        W 8400   8.641   8.388  12.532 -0.3266 -0.0201  0.2188
 4201W        W 8401   7.386   8.768   0.506 -0.0176  0.1642 -0.0836
 4202W        W 8402   1.017   0.613   2.474 -0.1678 -0.0238 -0.2974
 4203W        W 8403   5.520   6.625   0.300  0.0850 -0.1605  0.3113
 4204W        W 8404   9.195   9.427  12.849  0.1371  0.0490  0.0619
 4205W        W 8405  10.134   5.672  10.596  0.3086  0.1091  0.1189
 4206W        W 8406   6.595   0.673   2.611  0.1106  0.2234  0.0481
 4207W        W 8407   2.941   4.945   1.467  0.2237 -0.0885  0.1734
 4208W        W 8408   8.645   1.330   0.752  0.0462 -0.1477 -0.0977
 4209W        W 8409   1.336   1.537  12.459 -0.3269 -0.1000 -0.0933
 4210W        W 8410   7.545   4.815  12.942  0.1851 -0.1935  0.0049
 4211W        W 8411   4.419   4.616  12.658 -0.0942 -0.1365 -0.1357
 4212W        W 8412   4.560   5.484   0.388  0.0006  0.1481 -0.0597
 4213W        W 8413   8.277   4.054   1.312  0.1696 -0.0817 -0.1409
 4214W        W 8414   3.614   2.198  11.085 -0.0503  0.2596 -0.0195
 4215W        W 8415   3.549   6.265   3.847 -0.3084  0.4373  0.0196
 4216W        W 8416   8.076   2.180  13.372 -0.2958 -0.2357 -0.0318
 4217W        W 8417   2.122   9.404  12.176  0.1459  0.0814 -0.2316
 4218W        W 8418   0.128   2.176   4.010 -0.2954  0.2117  0.0724
 4219W        W 8419   5.123   7.408   2.903 -0.1171  0.3795 -0.0624
 4220W        W 8420   9.884   6.747   9.671 -0.2265 -0.0282 -0.0326
 4221W        W 8421   4.399   9.212  10.011 -0.4120 -0.1323 -0.0496
 4222W        W 8422   8.874   1.984  10.539 -0.0746  0.3822  0.3049
 4223W        W 8423   9.746   3.469   1.160  0.0193  0.0568 -0.2872
 4224W        W 8424   1.743   9.090   3.704 -0.0684 -0.3193 -0.2756
 4225W        W 8425   2.756   4.427  10.927  0.1678 -0.0408 -0.0267
 4226W        W 8426   9.424   9.486   2.138 -0.3099 -0.0289 -0.2382
 4227W        W 8427   6.317   0.963   0.660 -0.1369 -0.2998 -0.0121
 4228W        W 8428   0.633   7.991  13.171 -0.0675 -0.1518 -0.2672
 4229W        W 8429   5.430   0.022   2.619 -0.1308  0.0351 -0.1300
 4230W        W 8430   5.342   2.466   4.688  0.2828 -0.1718  0.0295
 4231W        W 8431   6.660   1.822   4.204 -0.2759  0.0581  0.1211
 4232W        W 8432   2.337   4.672  10.907 -0.0139 -0.2906 -0.1544
 4233W        W 8433   9.484   2.784   2.652 -0.0498 -0.0523 -0.1742
 4234W        W 8434   7.026   2.977   5.539  0.3338  0.2414  0.2338
 4235W        W 8435   9.134   7.562  10.848 -0.1211 -0.0114  0.0607
 4236W        W 8436  10.007   3.639   3.625  0.0019  0.0176 -0.3079
 4237W        W 8437   9.452   5.145  10.875 -0.2843  0.0372 -0.0502
 4238W        W 8438   6.751   7.065   9.196 -0.3043  0.1416 -0.0872
 4239W        W 8439   1.974   3.539   4.588  0.3637 -0.2585 -0.0769
 4240W        W 8440   1.193   9.105   3.373  0.1582  0.1537 -0.0384
 4241W        W 8441   7.275   7.094  13.055  0.0826  0.2196  0.4469
 4242W        W 8442   6.899   9.898  12.859 -0.1319  0.0071  0.1830
 4243W        W 8443   5.246   0.082   1.047  0.0907 -0.4655  0.2724
 4244W        W 8444   7.909   4.946  10.559 -0.2387  0.1079 -0.5492
 4245W        W 8445   7.466   3.096   0.908  0.0560  0.2285 -0.1721
 4246W        W 8446   1.241   9.893   1.155 -0.1029  0.0233  0.2003
 4247W        W 8447   3.696   8.845   8.673 -0.0470  0.0393  0.0404
 4248W        W 8448   5.050   9.266   3.391 -0.0006  0.3452 -0.0006
 4249W        W 8449   4.996   9.214   1.667  0.1198  0.2059  0.1375
 4250W        W 8450   8.319   0.920   2.539  0.0803  0.0726  0.0667
 4251W        W 8451  10.137   9.589  10.580  0.0645  0.1176  0.0634
 4252W        W 8452   5.143   3.367   4.187  0.0019 -0.2293 -0.0425
 4253W        W 8453   0.699   9.140  13.431 -0.0908  0.1965 -0.0443
 4254W        W 8454   7.164   5.759  12.543  0.1696  0.2323  0.1001
 4255W        W 8455   9.258   0.880  12.408  0.0540  0.1123 -0.1013
 4256W        W 8456   1.852   4.055   8.449  0.1126 -0.1221 -0.3116
 4257W        W 8457   7.113   0.935   1.390  0.0590  0.3516 -0.0565
 4258W        W 8458   7.059   0.329   0.581  0.1257 -0.0511 -0.0173
 4259W        W 8459   8.354   5.722   1.333  0.0347 -0.0658  0.1588
 4260W        W 8460  10.082   7.397   2.138  0.2441 -0.4457  0.1090
 4261W        W 8461   5.140   2.017   4.619  0.0549  0.1907 -0.1405
 4262W        W 8462   6.168   8.652   3.127  0.0280  0.1117  0.0861
 4263W        W 8463   4.640   6.474   5.108 -0.0771 -0.1332 -0.0626
 4264W        W 8464   2.667   8.838  10.733  0.0337 -0.2167  0.1654
 4265W        W 8465   2.876   4.320   1.896  0.0058  0.0660  0.1788
 4266W        W 8466   9.532  10.385  12.126 -0.0406  0.1331 -0.0975
 4267W        W 8467   9.761   2.206  11.661  0.4600 -0.1233  0.0990
 4268W        W 8468   9.964   7.207   1.091 -0.2107  0.3648 -0.2159
 4269W        W 8469   8.416   1.257   9.258 -0.1109  0.2773  0.0092
 4270W        W 8470   2.393   9.642  10.073  0.1531  0.1007 -0.0908
 4271W        W 8471   6.072   3.084   3.325 -0.0703 -0.1270  0.5489
 4272W        W 8472   9.041   4.578   9.105  0.0725  0.0951  0.0236
 4273W        W 8473  10.274   7.879  11.596  0.1204 -0.0286 -0.1008
 4274W        W 8474   6.800   1.399   3.141  0.0224  0.1629  0.1212
 4275W        W 8475   1.625   4.643   0.112  0.2104 -0.3068 -0.2473
 4276W        W 8476   7.701   6.845  11.712  0.1099  0.0018  0.0813
 4277W        W 8477   0.063   6.352   9.832 -0.1817  0.3407  0.1209
 4278W        W 8478   4.117   6.667   3.764  0.1007 -0.0003  0.0191
 4279W        W 8479  10.289   0.835  11.607  0.0557  0.1793  0.1254
 4280W        W 8480   8.555   5.864   3.577  0.1643  0.0535  0.1842
 4281W        W 8481   7.759   3.553  10.072  0.4403 -0.3700 -0.0651
 4282W        W 8482   6.495   3.073   2.515 -0.2203  0.1171  0.2914
 4283W        W 8483   8.119   7.335  11.024 -0.0147  0.0008 -0.0185
 4284W        W 8484   8.681   8.921   3.523 -0.0717 -0.0493 -0.0610
 4285W        W 8485   9.078   2.507  10.266 -0.1229  0.0240  0.3102
 4286W        W 8486   4.892   6.849   1.877 -0.1598  0.1402 -0.1046
 4287W        W 8487   8.936   3.976   9.752  0.4096 -0.1306  0.0760
 4288W        W 8488  10.056   7.629  13.118 -0.0535  0.0418  0.1053
 4289W        W 8489   9.366   5.717   2.031  0.1033  0.0200 -0.0913
 4290W        W 8490   2.531   6.382   4.069  0.1201 -0.5059 -0.2199
 4291W        W 8491   4.641   9.636  12.669  0.1471 -0.1426 -0.1176
 4292W        W 8492   0.539   3.089   9.204 -0.0215 -0.0702  0.3142
 4293W        W 8493   2.337   5.846   3.423 -0.1527  0.1238  0.1774
 4294W        W 8494   0.457  10.032  11.228 -0.0110 -0.2436  0.2238
 4295W        W 8495   0.780   5.663  12.818 -0.1550 -0.1960 -0.4547
 4296W        W 8496   1.258   4.981  12.475  0.1085  0.2613 -0.3344
 4297W        W 8497   1.828   7.072   2.798 -0.0097  0.0536  0.0014
 4298W        W 8498   2.532   3.798  11.590  0.3132 -0.1862 -0.0022
 4299W        W 8499   6.923   6.262  12.691  0.0328 -0.0113  0.0391
 4300W        W 8500   2.160   6.314   0.933 -0.0903 -0.0513  0.1378
 4301W        W 8501  10.385   4.379   2.345 -0.0889  0.0611 -0.3486
 4302W        W 8502   2.326   6.472   8.833  0.1010  0.2184 -0.1655
 4303W        W 8503   0.516   0.370  10.837 -0.1050 -0.1298  0.0121
 4304W        W 8504   2.964   1.948   3.198 -0.0766 -0.0056 -0.0972
 4305W        W 8505   6.540   4.947   4.290  0.2131 -0.0106  0.0356
 4306W        W 8506   7.020   7.844   0.580  0.0795  0.0123  0.0379
 4307W        W 8507   4.360   1.240  11.569 -0.1590  0.1679  0.1673
 4308W        W 8508   4.129   3.927   9.759  0.4138  0.0251  0.1144
 4309W        W 8509   2.881   5.051  12.905  0.1876 -0.4394  0.0894
 4310W        W 8510   4.154   3.235  11.756 -0.3237  0.1202  0.4157
 4311W        W 8511   7.688   2.167   8.742  0.1246 -0.3057  0.1183
 4312W        W 8512   6.225   4.676  10.053  0.1629  0.0002 -0.0711
 4313W        W 8513   8.548   2.674  11.737 -0.2204 -0.2413 -0.2050
 4314W        W 8514   0.127   0.634  12.156  0.0973 -0.3025 -0.3390
 4315W        W 8515   9.827   3.179  10.790 -0.1596  0.2963  0.0946
 4316W        W 8516   3.933   7.112   9.797 -0.0146  0.2337 -0.1716
 4317W        W 8517   4.407   0.449   0.992  0.6156 -0.0262  0.0705
 4318W        W 8518   7.033   3.461   0.968  0.0726  0.0264  0.2889
 4319W        W 8519   5.689   5.374   0.077 -0.0257  0.1096 -0.1837
 4320W        W 8520   4.046   2.621   9.033 -0.3688  0.1137 -0.1190
 4321W        W 8521   3.035   1.608   4.178 -0.2018  0.4806 -0.0590
 4322W        W 8522   0.791   4.385   0.256 -0.0825  0.2897 -0.2114
 4323W        W 8523   1.244   3.088   3.094 -0.1669 -0.1658 -0.0302
 4324W        W 8524   7.220   4.123   4.578  0.1486 -0.0354 -0.1055
 4325W        W 8525   7.704   9.272   0.792  0.0723 -0.0590  0.1181
 4326W        W 8526   6.223   6.614   1.090  0.0469 -0.0832  0.4015
 4327W        W 8527   7.527   3.176  11.199 -0.2867 -0.0076  0.2341
 4328W        W 8528   6.530   3.249   4.627 -0.1979  0.0948 -0.0174
 4329W        W 8529   2.834   5.559   1.636 -0.1454  0.0928 -0.1309
 4330W        W 8530   7.485   8.117  13.122  0.0862  0.1276 -0.1670
 4331W        W 8531   6.049   4.799   5.112  0.0200  0.0023  0.1632
 4332W        W 8532   2.817   9.922   1.450 -0.2504 -0.2476  0.1356
 4333W        W 8533   0.995   4.138  13.209 -0.0748  0.0116 -0.2730
 4334W        W 8534   3.960   9.734   3.887  0.0488 -0.1609  0.0015
 4335W        W 8535   9.004   2.878  11.843  0.0430  0.2506 -0.1374
 4336W        W 8536   4.641   9.204  11.894 -0.0550 -0.0724  0.2431
 4337W        W 8537   4.726   4.260   1.260 -0.3681 -0.2542  0.1425
 4338W        W 8538   1.842  10.162  12.642  0.2106 -0.1082  0.1324
 4339W        W 8539   3.086   2.072   4.408  0.0051 -0.2387  0.0467
 4340W        W 8540   6.126   4.512  12.756  0.2314  0.1115  0.0907
 4341W        W 8541   0.544   4.904  12.643  0.0854  0.0225 -0.0952
 4342W        W 8542   2.570   1.994   3.788  0.0641  0.1350  0.0200
 4343W        W 8543   8.878   7.238   3.958 -0.0991 -0.4527  0.3893
 4344W        W 8544   8.168   2.571  10.770  0.2897  0.2658 -0.0075
 4345W        W 8545   2.752   1.873  11.977  0.0287  0.0300 -0.1859
 4346W        W 8546   0.176   4.368   1.363  0.4033  0.1669  0.0013
 4347W        W 8547   0.413   8.990   3.348  0.0719  0.2610 -0.1780
 4348W        W 8548   4.956   9.949  13.446 -0.0228 -0.0425 -0.1716
 4349W        W 8549   2.462   1.610   2.236 -0.1605 -0.2441 -0.1610
 4350W        W 8550   2.740   0.134  12.658  0.1593 -0.2309 -0.2344
 4351W        W 8551   9.958   2.007  12.119  0.1151 -0.1024  0.2200
 4352W        W 8552   7.457  10.082  11.465 -0.3658  0.0718  0.1851
 4353W        W 8553   0.630   8.281   0.665 -0.0147 -0.0162 -0.1583
 4354W        W 8554   0.560   3.631   3.150 -0.0286  0.0722  0.2471
 4355W        W 8555   6.239   9.813  11.050 -0.0727 -0.2837 -0.0333
 4356W        W 8556   2.307   6.404   3.059 -0.1193 -0.1682 -0.0055
 4357W        W 8557   9.876   1.401   1.537  0.0186 -0.0414 -0.2942
 4358W        W 8558   8.255   8.402   2.738  0.0370 -0.0031  0.2187
 4359W        W 8559  10.286   6.922  13.256 -0.3375 -0.0118 -0.0065
 4360W        W 8560   5.330   8.869   4.295  0.2262 -0.0769  0.2609
 4361W        W 8561   2.970   8.463   0.225  0.0567  0.0500  0.0422
 4362W        W 8562   1.005   3.839   0.005 -0.1021  0.1802  0.0254
 4363W        W 8563   6.477   2.208  12.896 -0.1717  0.0460  0.1585
 4364W        W 8564  10.357   2.153   2.032 -0.1499 -0.1022  0.0368
 4365W        W 8565   1.016   4.651   9.893 -0.0226 -0.1122 -0.1564
 4366W        W 8566   3.038   8.416   1.269 -0.2240  0.0994 -0.3210
 4367W        W 8567   3.021   3.442   1.107 -0.2751 -0.0134 -0.0046
 4368W        W 8568   0.420   7.207   2.393  0.0695 -0.0457 -0.0951
 4369W        W 8569   1.598   9.600   1.291  0.0520 -0.3612  0.1335
 4370W        W 8570   4.186   7.670  11.374 -0.1397  0.0163 -0.0031
 4371W        W 8571   4.056   4.445   3.720 -0.0342  0.1067 -0.0491
 4372W        W 8572   5.946   6.685   0.523 -0.0398 -0.3348  0.0773
 4373W        W 8573   1.823   2.048   1.574 -0.0660 -0.2177 -0.2227
 4374W        W 8574   2.074   4.637   2.919  0.0711 -0.0078 -0.1673
 4375W        W 8575   8.919   3.300   8.612  0.0873 -0.0800 -0.2282
 4376W        W 8576   8.080   2.009   4.821 -0.1572  0.0618 -0.1807
 4377W        W 8577   6.534   9.326   3.785  0.0525 -0.0418 -0.1487
 4378W        W 8578   7.206   8.700   1.859 -0.0235  0.0912  0.2471
 4379W        W 8579   0.819   8.400  12.908  0.1257 -0.0147  0.0460
 4380W        W 8580   6.271   3.028  10.986  0.0252 -0.0778 -0.3782
 4381W        W 8581   9.281   0.467  11.345 -0.2853  0.1399  0.0222
 4382W        W 8582   1.105   4.878  10.793 -0.2050  0.0302  0.0480
 4383W        W 8583   9.079   4.304  13.475 -0.2134 -0.0924  0.0770
 4384W        W 8584   1.675  10.396  11.253 -0.6297  0.1377 -0.0507
 4385W        W 8585   1.338   1.611   8.945  0.0072 -0.1234 -0.0130
 4386W        W 8586   1.251   5.611   0.219 -0.0348  0.0266 -0.1094
 4387W        W 8587   3.651   3.665   3.371  0.3041  0.1866 -0.0970
 4388W        W 8588   4.849   7.302   4.142 -0.1195  0.0450  0.1555
 4389W        W 8589   3.232   3.313  12.697  0.1091  0.4104  0.0878
 4390W        W 8590   7.336   4.669   5.129 -0.1229 -0.4101 -0.1153
 4391W        W 8591   3.597   2.231  10.115 -0.0437  0.1439  0.0081
 4392W        W 8592   2.298   3.534  10.584  0.0982 -0.0449 -0.1387
 4393W        W 8593   9.507   9.788   0.043  0.1829 -0.1268  0.3221
 4394W        W 8594   9.644   3.915   1.447  0.1425  0.2612  0.1608
 4395W        W 8595  10.065   7.477   8.916 -0.2993  0.1170  0.1186
 4396W        W 8596   2.189   5.262   3.511 -0.0527 -0.0380  0.2970
 4397W        W 8597   0.657   6.384   0.126 -0.0427 -0.1845  0.1095
 4398W        W 8598   3.314   0.533  10.761 -0.1420 -0.0567  0.2337
 4399W        W 8599   2.243   5.342  10.308 -0.0053 -0.3051  0.0402
 4400W        W 8600   7.240   6.006   4.643  0.1056 -0.0699  0.0333
 4401W        W 8601   4.001   6.233   8.589  0.0576  0.1936 -0.1295
 4402W        W 8602   1.385   5.689   4.759  0.2531 -0.0154  0.4104
 4403W        W 8603   1.820   5.829  12.398  0.0653  0.0246  0.1352
 4404W        W 8604   6.014   5.035  10.317 -0.0592  0.2193  0.0865
 4405W        W 8605   4.191   3.654  12.657  0.0902 -0.3052 -0.2513
 4406W        W 8606   6.943  10.345  10.397 -0.1011  0.0838  0.2336
 4407W        W 8607  10.069   7.560  11.278 -0.2446  0.2941 -0.0580
 4408W        W 8608   8.154   4.946   3.758 -0.0711 -0.0296  0.1745
 4409W        W 8609   4.986   1.231   0.510  0.1781  0.1296 -0.2012
 4410W        W 8610   7.301   4.454  13.453 -0.2531 -0.5110  0.0728
 4411W        W 8611   1.833   1.300   2.982 -0.3235 -0.0068 -0.5014
 4412W        W 8612   8.397   4.333   0.834 -0.0008  0.1179  0.1283
 4413W        W 8613   1.657   8.358   8.298 -0.1763 -0.0867  0.0328
 4414W        W 8614   4.690   9.772  10.433  0.2488  0.0203  0.0789
 4415W        W 8615   5.471   4.813  12.776  0.0674  0.0953 -0.2420
 4416W        W 8616   1.138   0.485  13.643 -0.3500  0.1574  0.4125
 4417W        W 8617   1.544   8.184   1.282  0.2443  0.0164 -0.3578
 4418W        W 8618   7.729   1.329  10.743  0.2469 -0.1179  0.0025
 4419W        W 8619   1.746   3.253  10.506  0.2359  0.0785  0.1643
 4420W        W 8620   2.196   0.149   1.040 -0.1389  0.1007  0.3818
 4421W        W 8621   1.291   4.888   3.737  0.4092 -0.8000  0.1324
 4422W        W 8622   9.794   2.891   4.123  0.1449 -0.5433  0.0721
 4423W        W 8623   4.779   2.065   3.454 -0.0467 -0.1253  0.1667
 4424W        W 8624   3.053   5.290   5.686  0.0413 -0.0931 -0.0057
 4425W        W 8625   1.043   8.144   1.426  0.0457  0.0419  0.2266
 4426W        W 8626   0.245  10.323  13.370 -0.1444 -0.1447 -0.2742
 4427W        W 8627   0.150   4.356   3.336 -0.0807  0.0274 -0.0740
 4428W        W 8628   0.752   6.598  10.044 -0.0765  0.0797 -0.2796
 4429W        W 8629   2.161   9.222   9.145  0.3776 -0.0540 -0.0391
 4430W        W 8630   4.773   3.623  11.864 -0.2078 -0.0495  0.2354
 4431W        W 8631   5.397   1.233   0.173 -0.2560  0.0041  0.0054
 4432W        W 8632   7.681   5.966   2.935  0.0411  0.1146 -0.1315
 4433W        W 8633   8.056   2.103  12.331  0.4753 -0.2010  0.0164
 4434W        W 8634   0.911   8.301   8.854  0.2303  0.1744  0.0488
 4435W        W 8635   6.350   2.807  12.215 -0.1430  0.5961  0.1548
 4436W        W 8636   0.845   9.601  13.428  0.1177 -0.0534  0.0821
 4437W        W 8637   6.789   6.033   9.435  0.0858 -0.2997  0.1185
 4438W        W 8638   6.166   4.309  13.256  0.1789  0.1164  0.0149
 4439W        W 8639   0.914   6.066   9.262 -0.0630  0.0185  0.3284
 4440W        W 8640   2.803   8.949   0.037  0.2727 -0.1202 -0.0745
 4441W        W 8641   7.607   8.809   0.001  0.0375 -0.3750  0.2143
 4442W        W 8642   2.694   4.964  13.388  0.2897 -0.0324  0.0224
 4443W        W 8643   6.338   5.785   4.110  0.1193  0.1465 -0.0401
 4444W        W 8644   2.511   7.452   4.287  0.0242  0.5036 -0.2209
 4445W        W 8645   6.005   4.794   2.937  0.1183  0.0261  0.1833
 4446W        W 8646   0.178   3.368   2.936 -0.1305  0.2168  0.1166
 4447W        W 8647   3.137   5.293  10.671 -0.2142 -0.1562  0.1958
 4448W        W 8648   3.306   3.386  13.379  0.0828  0.2143 -0.0470
 4449W        W 8649   2.764   5.470  13.310 -0.0048  0.4321 -0.0100
 4450W        W 8650   5.127   6.937   0.991  0.1175  0.1335  0.0609
 4451W        W 8651   0.371   0.169   9.301  0.0351  0.0941  0.1878
 4452W        W 8652   0.379   6.066  10.044 -0.1634  0.1242  0.2355
 4453W        W 8653   5.730   3.349  12.884 -0.0350 -0.2635  0.0093
 4454W        W 8654   7.239   4.544   1.661 -0.2020  0.1387  0.1245
 4455W        W 8655   8.511   4.773   2.561  0.0299 -0.2205 -0.1137
 4456W        W 8656   7.672   4.357   2.464  0.3329  0.2113 -0.0553
 4457W        W 8657   6.566   3.194  12.932  0.0885  0.0791  0.3250
 4458W        W 8658   3.383   8.753   3.390 -0.1246  0.0018  0.1589
 4459W        W 8659   1.238   9.373   3.787 -0.0666  0.0163 -0.3327
 4460W        W 8660   2.565   3.256  13.163  0.4183  0.0953  0.1274
 4461W        W 8661   4.419   5.963   4.299 -0.2100  0.0224 -0.1022
 4462W        W 8662   2.938   5.470  10.255  0.0069  0.0668 -0.2055
 4463W        W 8663   3.161   2.714  12.579 -0.2085  0.0963  0.2336
 4464W        W 8664   2.070   6.673  10.249  0.1179 -0.4348  0.1941
 4465W        W 8665   6.718   6.587  10.115 -0.1632 -0.1244 -0.3414
 4466W        W 8666   3.101   5.173   4.576  0.0571 -0.0108  0.2648
 4467W        W 8667   1.997   2.212   0.614 -0.1730 -0.0864  0.3011
 4468W        W 8668   6.793   1.330  12.637  0.0673 -0.1033 -0.2175
 4469W        W 8669   0.372   2.556   3.518 -0.3234  0.0663 -0.0082
 4470W        W 8670   3.719   5.787   3.873  0.1171 -0.0286  0.0193
 4471W        W 8671   4.416   3.852   1.106 -0.1141 -0.3507  0.3348
 4472W        W 8672   2.911   2.890  11.511 -0.1128  0.0372 -0.0372
 4473W        W 8673   3.596   0.763   9.012 -0.2467  0.0121 -0.2054
 4474W        W 8674   5.777   3.544   1.258  0.0872 -0.0457 -0.1138
 4475W        W 8675   7.058   3.435   0.442 -0.0684  0.1505 -0.1858
 4476W        W 8676  10.122   0.603  12.469  0.0082 -0.0527 -0.0391
 4477W        W 8677   5.050   7.750   3.926  0.0451  0.0449 -0.3858
 4478W        W 8678  10.294   3.988   0.940  0.1882  0.0012  0.5614
 4479W        W 8679   9.598   9.532   8.697 -0.0602  0.0188 -0.1821
 4480W        W 8680   8.664   6.666   1.311  0.2139 -0.1281 -0.1439
 4481W        W 8681   0.458   7.068  11.565  0.1498 -0.2606 -0.0967
 4482W        W 8682   6.319   2.976  10.498 -0.0086 -0.2325 -0.1173
 4483W        W 8683   4.612   8.997  10.904  0.2010 -0.1020  0.0737
 4484W        W 8684   3.575   2.144  11.721 -0.3120 -0.0335 -0.0556
 4485W        W 8685   0.370   4.025  13.122  0.0024 -0.0270  0.0479
 4486W        W 8686   4.985   8.564   9.659  0.1452 -0.0368 -0.2043
 4487W        W 8687   3.344   1.876   0.912  0.1327  0.1119  0.0460
 4488W        W 8688   7.213   3.346  13.642  0.2436 -0.4416 -0.2460
 4489W        W 8689   5.064   1.451   1.884  0.0675  0.0520  0.0888
 4490W        W 8690   7.410   2.809   4.744 -0.1860 -0.0315 -0.1328
 4491W        W 8691   0.026   1.774   4.329 -0.0142 -0.2213  0.0508
 4492W        W 8692   4.378   0.869   3.142 -0.2375 -0.1296 -0.0494
 4493W        W 8693   2.316   2.861   2.192  0.1979  0.0756 -0.2945
 4494W        W 8694   5.500   0.942   9.886 -0.1704 -0.2656 -0.1068
 4495W        W 8695   9.082   3.174   1.478  0.0322 -0.0137  0.0612
 4496W        W 8696   3.288   2.486   3.525 -0.0636 -0.1196  0.1056
 4497W        W 8697   4.565   4.545   9.091 -0.0699 -0.3209  0.0636
 4498W        W 8698  10.196   3.730  12.769  0.1195  0.1833  0.0001
 4499W        W 8699   7.425   6.952  10.368  0.3063 -0.1431  0.2001
 4500W        W 8700   6.141   5.763   1.365  0.1528  0.3887 -0.2580
 4501W        W 8701   7.307   5.158   4.895 -0.0892  0.0560 -0.0137
 4502W        W 8702   5.221   8.883   0.420  0.1669 -0.2531  0.3704
 4503W        W 8703   7.674   9.376   9.761 -0.0761 -0.0220  0.1689
 4504W        W 8704   7.450   4.234   1.165 -0.0003  0.0068  0.1949
 4505W        W 8705   6.847   7.688  10.861 -0.0761  0.4309 -0.0840
 4506W        W 8706   6.796   4.538   2.261  0.2343 -0.1570 -0.2665
 4507W        W 8707   3.335   8.366   3.821 -0.1927 -0.1621 -0.2151
 4508W        W 8708   1.857   4.675   3.824  0.0256  0.3674  0.1294
 4509W        W 8709   6.556   9.174   3.273 -0.0083 -0.0057 -0.0026
 4510W        W 8710   8.780   9.111   3.079 -0.0810 -0.2188  0.0592
 4511W        W 8711   1.848   3.547   4.117  0.0262 -0.1111  0.0848
 4512W        W 8712   1.959   1.285   1.564 -0.3523  0.0331 -0.0648
 4513W        W 8713   5.633   8.265  12.946 -0.2801  0.1741  0.1871
 4514W        W 8714   1.053   3.975  10.470  0.1668  0.2408 -0.0850
 4515W        W 8715   9.807  10.181   1.446  0.0710  0.1285  0.0419
 4516W        W 8716   4.430   6.551   9.253  0.0772 -0.1398 -0.3588
 4517W        W 8717   6.275   0.367   3.007  0.1872 -0.3724  0.2213
 4518W        W 8718   9.966   4.208   2.602 -0.1781 -0.0121 -0.2426
 4519W        W 8719   9.439   2.294   2.940 -0.0759 -0.2061 -0.3876
 4520W        W 8720   6.135   0.601   2.390  0.2941 -0.0180  0.1033
 4521W        W 8721   3.311   5.830  10.414 -0.0182 -0.3262 -0.0636
 4522W        W 8722   6.404  10.339  10.334  0.0006 -0.1822 -0.2505
 4523W        W 8723   7.944   3.890   5.662 -0.1335  0.0898 -0.1263
 4524W        W 8724   0.938   0.901   9.118 -0.0806  0.1777  0.0225
 4525W        W 8725   2.390   4.128   1.552  0.2230  0.2251 -0.2530
 4526W        W 8726   5.210   4.103  10.711 -0.2069  0.1183 -0.0308
 4527W        W 8727   8.527   1.226  11.770  0.1445  0.2453 -0.1521
 4528W        W 8728   4.454   7.951  11.066 -0.1054  0.5309 -0.1093
 4529W        W 8729   6.832   4.254   1.747 -0.2930 -0.0822  0.0815
 4530W        W 8730   9.164   7.329   0.098 -0.2198  0.0644 -0.3481
 4531W        W 8731   4.668   2.305   1.336  0.0582  0.1141  0.2123
 4532W        W 8732  10.112   8.250   0.277 -0.0871 -0.0775 -0.3350
 4533W        W 8733  10.147   2.977  10.464 -0.1389 -0.1164  0.2965
 4534W        W 8734   7.289   1.229  13.266  0.0442 -0.1939  0.0014
 4535W        W 8735  10.239   7.513  10.345 -0.1274 -0.1289  0.2509
 4536W        W 8736   9.757   6.163  13.365 -0.0291 -0.4122 -0.0377
 4537W        W 8737   5.163   4.317   1.514  0.0986 -0.0952 -0.1347
 4538W        W 8738   4.894   0.172  10.763 -0.1849 -0.2219 -0.2513
 4539W        W 8739   3.115   9.921   0.177 -0.0018  0.1187 -0.1304
 4540W        W 8740   5.450   7.477   4.034 -0.3935 -0.1641 -0.2761
 4541W        W 8741   3.712   1.240  12.646  0.0514 -0.2385  0.0105
 4542W        W 8742   9.751   1.007  11.717  0.1531  0.0861 -0.3288
 4543W        W 8743   1.135   6.857   3.472 -0.0081  0.1615 -0.2340
 4544W        W 8744   4.913   7.764   9.722 -0.3655  0.0674  0.1713
 4545W        W 8745   6.996   8.102  11.117 -0.0942 -0.0323 -0.1378
 4546W        W 8746  10.095   5.964   4.667 -0.3572 -0.4364 -0.0049
 4547W        W 8747   3.069   0.957   9.627 -0.1649 -0.2840 -0.0307
 4548W        W 8748   8.028   4.116  13.518 -0.0041  0.2142  0.0702
 4549W        W 8749   9.627   2.593   9.520  0.0067 -0.0734 -0.1995
 4550W        W 8750   0.467   6.348   4.551  0.2905 -0.0534  0.0888
 4551W        W 8751   2.809   5.856  13.607  0.0255  0.0418  0.1289
 4552W        W 8752   7.732   0.881  12.024 -0.0667  0.0459  0.2035
 4553W        W 8753   9.429   2.932  13.090  0.1080  0.1872  0.0642
 4554W        W 8754   8.814   0.604  10.961  0.0426 -0.0849 -0.1760
 4555W        W 8755   1.747  10.004   3.879 -0.0346  0.0546  0.1878
 4556W        W 8756   3.930   5.216   4.412 -0.3728  0.0846  0.1959
 4557W        W 8757   7.272   3.882   9.194 -0.0262  0.2628 -0.2235
 4558W        W 8758   0.915  10.322   3.717 -0.3313  0.0044 -0.0696
 4559W        W 8759   2.363   6.843  13.223  0.0868  0.3395 -0.2041
 4560W        W 8760   2.499   9.109   2.744  0.3192  0.0991  0.1344
 4561W        W 8761   1.164   6.339   3.911 -0.1424 -0.0280  0.1128
 4562W        W 8762   2.287   2.118  10.781  0.2549 -0.2449  0.0426
 4563W        W 8763   6.491   9.885  10.160 -0.0314  0.0636 -0.1353
 4564W        W 8764   8.164   3.204  13.357 -0.4358  0.1518 -0.0055
 4565W        W 8765   9.613   5.863   1.269  0.4355  0.1940  0.2532
 4566W        W 8766   1.724   9.555  13.159 -0.3000  0.2106  0.0227
 4567W        W 8767   6.908   7.651  12.349  0.0940 -0.0464  0.0858
 4568W        W 8768   5.941   1.539   0.720 -0.0785  0.1405  0.0493
 4569W        W 8769   1.217   3.520   2.779  0.0840  0.0436 -0.2181
 4570W        W 8770   0.532   0.340   9.858  0.1657  0.0253 -0.2533
 4571W        W 8771   0.247   6.904   4.007  0.0132 -0.0234  0.4117
 4572W        W 8772   3.494   8.454   0.303 -0.0685 -0.3955 -0.1477
 4573W        W 8773   1.910   5.736   2.044  0.0530 -0.0443  0.0333
 4574W        W 8774   6.700   8.455  11.970  0.2762 -0.0166  0.2858
 4575W        W 8775  10.342   6.119   3.747 -0.1689 -0.1007  0.1184
 4576W        W 8776   4.105   4.646   3.217  0.1201 -0.0497  0.1334
 4577W        W 8777   7.472   6.055   0.272 -0.1585 -0.0849 -0.0856
 4578W        W 8778   9.961   9.631   0.174  0.5211 -0.0277 -0.0635
 4579W        W 8779   3.276   9.235   3.675  0.3612 -0.2376 -0.1952
 4580W        W 8780   9.560   2.673  10.995 -0.0287 -0.4442 -0.1453
 4581W        W 8781   8.890   6.447   0.260  0.0079  0.1507  0.0733
 4582W        W 8782   8.248   0.199   0.709 -0.4081 -0.0974 -0.4493
 4583W        W 8783   8.221   3.790   9.289  0.0020 -0.0625  0.1572
 4584W        W 8784   8.663   1.178   3.088  0.1295  0.0171 -0.3707
 4585W        W 8785   3.232   9.260  12.043  0.0528  0.2575  0.2080
 4586W        W 8786   2.548   2.230   9.988 -0.2144  0.0052 -0.0554
 4587W        W 8787   1.506   7.534   1.759  0.2458  0.3217  0.0865
 4588W        W 8788   2.862   6.968  11.483  0.0426 -0.0434  0.1804
 4589W        W 8789   2.369   9.065  10.023  0.0481  0.0476 -0.2885
 4590W        W 8790   4.540   6.493   1.742  0.3361  0.0675 -0.3785
 4591W        W 8791   3.001   9.428   0.112 -0.1084  0.0112  0.0306
 4592W        W 8792   4.731   9.034   0.621  0.1379  0.0143 -0.2006
 4593W        W 8793   6.037  10.165   1.595  0.3731  0.0588 -0.1002
 4594W        W 8794   7.792   2.844  12.954  0.0095 -0.0811  0.1305
 4595W        W 8795   1.337   0.824  13.357 -0.0341  0.3435  0.2755
 4596W        W 8796   1.132   7.908   3.466  0.0645  0.1890 -0.1819
 4597W        W 8797   9.600   8.697   9.195 -0.2955 -0.1536  0.0876
 4598W        W 8798   0.314   3.646   0.730  0.1157 -0.4271 -0.0622
 4599W        W 8799   4.875   1.149  11.040 -0.1339 -0.0931 -0.0041
 4600W        W 8800   5.622  10.388   0.045 -0.2150 -0.0548  0.4351
 4601W        W 8801   1.957   0.003   0.629  0.3037  0.0586 -0.2958
 4602W        W 8802   7.026   5.709   1.743 -0.3321 -0.0898 -0.1270
 4603W        W 8803  10.314   4.889  11.391 -0.0953  0.1854  0.2704
 4604W        W 8804   6.461   5.301   2.506 -0.2736  0.2998 -0.0218
 4605W        W 8805   9.082   2.854  12.751  0.2102 -0.4486 -0.0246
 4606W        W 8806   0.250   5.196   1.006  0.3392  0.2140  0.0136
 4607W        W 8807   7.908   7.691   0.757 -0.1104  0.0540  0.0419
 4608W        W 8808   6.203   9.035   0.235 -0.3659 -0.0116 -0.1067
 4609W        W 8809   3.505   4.879   1.304 -0.1516  0.0726 -0.0494
 4610W        W 8810   9.178   2.670   9.237 -0.0026  0.0276 -0.0419
 4611W        W 8811   2.964   7.099   1.407 -0.0449 -0.1985 -0.0633
 4612W        W 8812   6.311   3.919   0.575  0.3227 -0.1012  0.3251
 4613W        W 8813   5.519   5.154   9.798  0.0365 -0.2636  0.0441
 4614W        W 8814   7.898   1.491   1.777 -0.0179 -0.3839  0.1574
 4615W        W 8815   5.606   1.586  11.501  0.1444  0.1575 -0.0159
 4616W        W 8816  10.001   4.652   1.520  0.0941 -0.0379 -0.3589
 4617W        W 8817   5.392   6.224  10.984 -0.0784  0.1574 -0.0136
 4618W        W 8818   3.251   8.278   2.097 -0.0270  0.1514 -0.1385
 4619W        W 8819   0.074  10.185   3.756 -0.2272  0.2308  0.1730
 4620W        W 8820   8.911   4.315  11.962 -0.2634  0.3405 -0.0460
 4621W        W 8821   4.763   7.141   0.776  0.2306  0.0679  0.2183
 4622W        W 8822   4.260   7.957   1.609 -0.0187 -0.2259  0.1439
 4623W        W 8823   6.327   3.621  12.992  0.1991 -0.1112 -0.1014
 4624W        W 8824   0.085   5.656  10.236  0.1162  0.2989  0.2668
 4625W        W 8825   4.372   4.415   8.536 -0.2436 -0.1574 -0.1921
 4626W        W 8826   2.585   9.428   8.269 -0.1705 -0.0717 -0.2353
 4627W        W 8827   8.048   4.669  12.321 -0.1626 -0.2836 -0.3456
 4628W        W 8828   8.034   2.921   9.070  0.2523 -0.1315  0.0201
 4629W        W 8829   9.001   5.860   3.934 -0.3694 -0.0205 -0.0656
 4630W        W 8830   8.739   0.191   2.261  0.1004 -0.2478  0.0056
 4631W        W 8831   3.891  10.133   9.486 -0.1758  0.3623  0.2375
 4632W        W 8832   2.206   8.560  10.014  0.0328  0.1655 -0.1442
 4633W        W 8833   3.292   7.843   8.184  0.0859 -0.1858  0.1064
 4634W        W 8834   2.313   2.451   3.676 -0.1252 -0.1894  0.1763
 4635W        W 8835   6.200   2.573  10.271  0.0907 -0.0396  0.0071
 4636W        W 8836   8.355   9.947  13.247  0.2156  0.1484  0.2729
 4637W        W 8837   2.984  10.203   3.926 -0.4369  0.0424  0.0707
 4638W        W 8838   2.406   4.500  12.207  0.1654  0.1845 -0.0102
 4639W        W 8839   2.319   8.108  10.809 -0.2743  0.1045 -0.4322
 4640W        W 8840   2.472   7.631  10.864 -0.2165  0.1421  0.0357
 4641W        W 8841   2.194   1.413   2.599 -0.1994  0.3684  0.0588
 4642W        W 8842   1.035   8.398  12.333 -0.3122  0.4168 -0.2959
 4643W        W 8843   9.337   6.093  11.245 -0.4189 -0.1062  0.1847
 4644W        W 8844   9.566   1.778  11.888 -0.0841 -0.3240 -0.0358
 4645W        W 8845   6.155   8.828   9.766 -0.0891 -0.0004 -0.2847
 4646W        W 8846   6.417   1.422   9.652 -0.2512  0.0205  0.1548
 4647W        W 8847   7.855   4.631   5.130 -0.0415  0.2734 -0.0449
 4648W        W 8848   9.392   3.929   5.279  0.0167 -0.1658  0.2686
 4649W        W 8849   7.436   9.211  13.009  0.0598 -0.0181  0.0152
 4650W        W 8850   2.587   2.626   9.613  0.2631 -0.1654 -0.5223
 4651W        W 8851   1.360   6.510  12.748 -0.2761 -0.1233 -0.0890
 4652W        W 8852   4.495   0.087   2.155  0.0156  0.0920  0.2892
 4653W        W 8853   4.603   5.057  13.597 -0.0258 -0.2721 -0.1597
 4654W        W 8854   2.912   5.174   2.973  0.2760 -0.0602 -0.1694
 4655W        W 8855   0.978   2.716   9.740  0.1812  0.0737 -0.3926
 4656W        W 8856   3.757   0.138  13.452 -0.3476 -0.1153  0.3341
 4657W        W 8857   3.167   9.136  12.865  0.1987 -0.4330 -0.0825
 4658W        W 8858   1.783   2.579   1.358 -0.1860  0.1527  0.3063
 4659W        W 8859   6.209   9.801  11.625  0.1046  0.1438 -0.2366
 4660W        W 8860   1.230   8.226   3.954  0.3688  0.1437  0.0615
 4661W        W 8861   3.126  10.057   1.955 -0.1149 -0.1094  0.0341
 4662W        W 8862   2.463   9.780  12.017 -0.0366  0.5554  0.3347
 4663W        W 8863   8.651   1.591  13.101 -0.0137  0.1720 -0.0182
 4664W        W 8864   5.117   9.076  10.934  0.0863  0.4238  0.0207
 4665W        W 8865  10.031   6.438   0.126  0.0567  0.0505  0.0844
 4666W        W 8866   2.098   3.289   3.810 -0.2285 -0.0396  0.2296
 4667W        W 8867   0.012   7.613   0.828 -0.0182 -0.1966  0.0366
 4668W        W 8868   9.437   2.024   1.998  0.0778 -0.2982  0.2784
 4669W        W 8869   0.592   2.871  12.138 -0.0035  0.0315  0.0088
 4670W        W 8870   7.955   5.370   9.707  0.0211 -0.1415  0.0436
 4671W        W 8871   5.132   3.878   0.490  0.6242  0.1764  0.1693
 4672W        W 8872   2.627   0.476   4.345 -0.1904 -0.0609  0.2341
 4673W        W 8873   2.651   7.696   3.404  0.0127  0.0752 -0.3030
 4674W        W 8874   7.750   7.595  11.911  0.1630 -0.0675  0.0486
 4675W        W 8875   3.039   0.498  12.235 -0.1855  0.2327 -0.0660
 4676W        W 8876   2.606   7.581  11.351 -0.4909  0.3207  0.2061
 4677W        W 8877   5.220   4.275  12.363  0.0300 -0.0275  0.0411
 4678W        W 8878   3.579  10.368  11.554  0.1185 -0.2528  0.1291
 4679W        W 8879   2.396   1.170   2.989 -0.2740 -0.1034  0.2141
 4680W        W 8880   3.614   4.181   3.579 -0.0562  0.1724 -0.1979
 4681W        W 8881   0.000  10.359   0.648 -0.0788  0.2633  0.1572
 4682W        W 8882   2.441   2.675   4.399 -0.0065 -0.2708 -0.1940
 4683W        W 8883   6.559   7.315  12.394  0.1209 -0.0789 -0.1125
 4684W        W 8884   1.628   5.318   4.937  0.4019  0.2446 -0.0605
 4685W        W 8885   7.630   2.981  11.694 -0.0404  0.0174 -0.0817
 4686W        W 8886   9.381   3.114   1.090  0.0609  0.2602  0.2885
 4687W        W 8887   2.171   7.846   9.385 -0.0838  0.3913  0.0102
 4688W        W 8888   4.305   1.843   9.334  0.0206 -0.1664 -0.0184
 4689W        W 8889   7.162   7.798   9.106 -0.0893  0.3430 -0.0880
 4690W        W 8890   2.100   4.777   0.900  0.2109 -0.0334 -0.1427
 4691W        W 8891   6.676   3.783   0.205 -0.0006  0.0332  0.0914
 4692W        W 8892   7.419   9.746   1.583 -0.2094 -0.4024  0.0668
 4693W        W 8893   7.946   4.990   0.801 -0.1926  0.3059 -0.1581
 4694W        W 8894   0.168   9.088   9.371  0.2493 -0.3069  0.2721
 4695W        W 8895   8.111   0.525   1.653 -0.0688  0.0800 -0.0381
 4696W        W 8896  10.102   5.281   9.211 -0.0298  0.0312  0.4118
 4697W        W 8897   9.755   2.544   1.121  0.0687 -0.2236  0.0224
 4698W        W 8898   5.555   4.584   2.767 -0.1150  0.2251  0.2393
 4699W        W 8899   4.656   1.915   0.461 -0.1115  0.1877  0.2799
 4700W        W 8900   8.165   9.174  12.855  0.0644  0.0858 -0.0275
 4701W        W 8901   7.384   7.746  11.528  0.2140  0.3830 -0.2613
 4702W        W 8902   2.618   3.238  10.248  0.0089 -0.1153 -0.2045
 4703W        W 8903   9.836  10.054   2.712  0.0884  0.0639  0.4003
 4704W        W 8904   5.406  10.066   3.288  0.1545  0.1418  0.2994
 4705W        W 8905   5.117   8.661  11.324 -0.1322  0.1859 -0.1986
 4706W        W 8906   6.794   9.705   0.415  0.0560  0.0279 -0.2232
 4707W        W 8907   6.394   6.933   9.987  0.0963  0.0473 -0.1910
 4708W        W 8908   3.746   5.421  12.752 -0.1284  0.1485  0.0015
 4709W        W 8909   6.279   3.211  13.334 -0.0540  0.3460 -0.1584
 4710W        W 8910   8.135   5.371   4.928 -0.0367  0.0617  0.2059
 4711W        W 8911   5.662   2.461   0.123 -0.0737  0.1365 -0.1405
 4712W        W 8912   7.247   6.763   3.393  0.0533  0.4275 -0.1291
 4713W        W 8913   2.837   0.989  10.934  0.0920  0.3874 -0.2996
 4714W        W 8914   2.690   6.410   0.936  0.0281  0.2891  0.1273
 4715W        W 8915   1.524   7.421  10.438 -0.0688 -0.2153 -0.0242
 4716W        W 8916   4.934   6.826   9.442  0.0005 -0.2867 -0.2065
 4717W        W 8917   3.785   0.630   2.351 -0.0975  0.1973 -0.3793
 4718W        W 8918   3.672   8.591   2.054 -0.1540  0.0623 -0.3151
 4719W        W 8919   4.652   6.773   2.941  0.3097  0.0205  0.1247
 4720W        W 8920   5.716   4.521  12.440  0.3478 -0.2782  0.2973
 4721W        W 8921   2.831   9.408  10.724 -0.1903  0.1473  0.2418
 4722W        W 8922   4.073   4.725   1.318  0.3526 -0.2805 -0.0772
 4723W        W 8923   1.467   6.471   3.260  0.1319  0.0643  0.2399
 4724W        W 8924   8.191   2.904  11.344  0.1650 -0.0673  0.2787
 4725W        W 8925   6.360   4.173   1.974 -0.1278  0.0092  0.2187
 4726W        W 8926   3.192   0.451   9.718  0.2527  0.0929  0.1576
 4727W        W 8927   3.471  10.120  13.290 -0.2632 -0.1545  0.1623
 4728W        W 8928   4.683   7.622   1.524  0.1031  0.2799 -0.0244
 4729W        W 8929   0.350   0.518  11.692  0.2233 -0.2616  0.2994
 4730W        W 8930   4.010   9.460  10.238 -0.3701 -0.0236 -0.1850
 4731W        W 8931   3.022  10.095   1.004  0.0214  0.1722 -0.2416
 4732W        W 8932   3.414   8.180  13.571  0.0919 -0.3654  0.0118
 4733W        W 8933   8.705   5.035  11.594 -0.2672  0.1678 -0.1378
 4734W        W 8934   7.384   8.125  12.499  0.0163  0.0202  0.1257
 4735W        W 8935   2.938   1.432  12.676  0.2655  0.0463 -0.1367
 4736W        W 8936   3.032   2.770  10.855  0.1142 -0.1705 -0.1766
 4737W        W 8937   1.779   8.941  10.543 -0.0317 -0.3745 -0.1526
 4738W        W 8938   0.051   3.372  10.365 -0.3267 -0.0433  0.0018
 4739W        W 8939   4.955   0.009  13.295  0.1895 -0.2425  0.2786
 4740W        W 8940   8.606  10.279   0.964  0.0649  0.2180 -0.2386
 4741W        W 8941   0.875   4.778  12.268 -0.0063 -0.0782  0.2104
 4742W        W 8942   6.343   7.174  11.588  0.3900  0.0623  0.0274
 4743W        W 8943   2.429   0.716  10.958 -0.1972 -0.1583  0.5713
 4744W        W 8944   5.522   3.425  11.814 -0.0832  0.0362  0.1634
 4745W        W 8945   1.326   8.880   0.331  0.0132  0.0496  0.3216
 4746W        W 8946   1.741   1.004  11.384  0.2332 -0.1561  0.0960
 4747W        W 8947   7.552   3.999  13.600 -0.0274  0.0010 -0.1600
 4748W        W 8948   3.560   3.092  13.033  0.0668 -0.0889  0.3778
 4749W        W 8949   1.364   8.195   8.711  0.0968  0.0289 -0.1576
 4750W        W 8950   1.919   1.177   4.452 -0.1992 -0.4956 -0.0591
 4751W        W 8951   2.479   4.007  10.724 -0.0541  0.0246 -0.1445
 4752W        W 8952   7.972   7.551  10.251 -0.4020 -0.1339 -0.2570
 4753W        W 8953   9.047   7.064  12.450  0.0681 -0.3503 -0.0423
 4754W        W 8954   5.620   8.356  11.272  0.0078  0.0994 -0.0247
 4755W        W 8955   3.658   7.107   0.747  0.2345  0.3957  0.2289
 4756W        W 8956   4.164   7.056  12.111 -0.2213  0.0318 -0.2327
 4757W        W 8957   4.398  10.106  12.669 -0.2840  0.1518 -0.0143
 4758W        W 8958   4.701   4.033  10.748  0.0598 -0.0863  0.0774
 4759W        W 8959  10.022   4.879   9.931 -0.0471  0.2469 -0.1100
 4760W        W 8960   7.287   3.353   8.542 -0.0240 -0.1768 -0.3588
 4761W        W 8961   5.930   8.994  13.223 -0.2036  0.3009 -0.1003
 4762W        W 8962   8.838   2.848   3.360 -0.2337  0.2854 -0.4374
 4763W        W 8963   6.263   6.089  10.293  0.0595 -0.0246 -0.0844
 4764W        W 8964   9.823   8.293  10.266 -0.1089  0.0260 -0.0296
 4765W        W 8965   1.195   8.595  10.152  0.1911  0.0948  0.3592
 4766W        W 8966   8.622   8.159  12.038  0.1233 -0.1197  0.4470
 4767W        W 8967   7.220   9.639  11.526 -0.0614 -0.1327  0.2413
 4768W        W 8968   6.978   5.003   5.873 -0.2989 -0.3573  0.0952
 4769W        W 8969   7.502   1.247  11.745 -0.2228  0.0873 -0.2106
 4770W        W 8970   0.132   0.049  10.906 -0.0650 -0.2849 -0.2002
 4771W        W 8971   6.273   0.982   1.899  0.2535 -0.1839 -0.0414
 4772W        W 8972   5.580  10.017   9.957 -0.4383 -0.2768  0.1664
 4773W        W 8973   9.884   3.675   3.008  0.0079  0.0091 -0.1045
 4774W        W 8974   6.255   1.892   3.913  0.1157  0.1673  0.1493
 4775W        W 8975   6.605   8.294  10.562 -0.0910 -0.1887 -0.1137
 4776W        W 8976   6.229   5.819  11.444  0.0688  0.2460  0.2464
 4777W        W 8977   9.849   3.081  13.536 -0.0888 -0.1059 -0.2127
 4778W        W 8978   8.140   7.344  12.079  0.2197 -0.1010  0.2379
 4779W        W 8979   1.076   8.347   0.988 -0.0037 -0.2204 -0.0239
 4780W        W 8980   4.809   5.759  10.278 -0.1572 -0.1087  0.0627
 4781W        W 8981   9.965   4.930   4.492 -0.3295  0.1109  0.0394
 4782W        W 8982   8.379   8.359  13.434  0.0101 -0.0379  0.2198
 4783W        W 8983  10.111   3.228   0.282  0.0856 -0.1313 -0.1238
 4784W        W 8984   5.728   0.024  13.150  0.0620  0.0690 -0.1051
 4785W        W 8985   3.944   1.991  11.431  0.2276 -0.0042 -0.2453
 4786W        W 8986   5.134   4.113  13.150 -0.3169  0.4540 -0.0558
 4787W        W 8987  10.174   9.408   8.834 -0.2211  0.1402 -0.3599
 4788W        W 8988   3.110   2.159  10.245 -0.1347 -0.1929  0.1832
 4789W        W 8989   4.552   8.643  11.251 -0.2146  0.1110  0.0155
 4790W        W 8990   3.252   7.765  10.523 -0.0084 -0.0319  0.1570
 4791W        W 8991   9.885   3.436   4.075  0.0369  0.6427  0.0845
 4792W        W 8992   1.716   0.267   1.017  0.2855  0.2441 -0.1540
 4793W        W 8993   7.029   7.261  12.661 -0.0410 -0.1371  0.0576
 4794W        W 8994   2.036   0.687   3.607 -0.0415  0.0870  0.2664
 4795W        W 8995   5.391   1.404  12.488 -0.3481 -0.3621 -0.0231
 4796W        W 8996   9.316   4.577   2.107 -0.1054 -0.0328  0.2337
 4797W        W 8997   8.027   4.711   1.861 -0.0777  0.2240 -0.1280
 4798W        W 8998   6.727   9.604  13.300 -0.1770 -0.2845  0.1347
 4799W        W 8999   9.536   9.600   9.637  0.0097  0.2372  0.1516
 4800W        W 9000   8.379   3.072  10.722  0.2054 -0.1514  0.0064
 4801W        W 9001   0.119   5.750  12.693  0.1189 -0.1585  0.2056
 4802W        W 9002   7.711   4.161  10.900  0.1777  0.0168 -0.0421
 4803W        W 9003   3.368   2.393   4.203  0.1004  0.1191 -0.0054
 4804W        W 9004   3.780   0.696  12.793 -0.0992  0.1071 -0.3284
 4805W        W 9005   6.956   6.017  11.220 -0.0880 -0.0107 -0.2119
 4806W        W 9006   1.595   2.443   1.827  0.3076  0.2590  0.0836
 4807W        W 9007   2.361   4.006  11.991 -0.0983 -0.1309 -0.0589
 4808W        W 9008   0.178   6.001  10.694  0.1492  0.2250 -0.1973
 4809W        W 9009   4.540   4.904   4.944  0.1809  0.2281  0.2553
 4810W        W 9010   8.923   9.543  11.839 -0.0705 -0.0476 -0.0446
 4811W        W 9011   3.737   4.916   5.175 -0.2175  0.1922  0.2765
 4812W        W 9012   1.592   6.622   3.760  0.1255 -0.1155 -0.2025
 4813W        W 9013   7.256   9.571   0.993  0.1292 -0.0703 -0.0159
 4814W        W 9014   8.051   4.674  12.848  0.2004 -0.2152  0.0968
 4815W        W 9015   0.359   0.858   9.862 -0.0350 -0.1816  0.0012
 4816W        W 9016   5.813   5.840  11.845 -0.2374  0.1734 -0.1034
 4817W        W 9017   3.367   0.830  10.040 -0.0909 -0.4788 -0.0570
 4818W        W 9018   3.508   4.877   0.748 -0.3493 -0.0588 -0.0723
 4819W        W 9019   3.609   9.835  11.750 -0.1407  0.2523 -0.4398
 4820W        W 9020   9.359   5.281   1.098  0.3031  0.0529  0.1303
 4821W        W 9021  10.018   8.594   2.680 -0.3667 -0.1439 -0.1163
 4822W        W 9022   5.516   7.951   9.422  0.0550 -0.1736 -0.3103
 4823W        W 9023   4.916   4.933  10.486  0.1379  0.0222  0.0822
 4824W        W 9024   9.651   3.724  11.911 -0.3314 -0.0610 -0.1607
 4825W        W 9025   9.610   6.998   1.844 -0.1682 -0.2201  0.0806
 4826W        W 9026   8.249   0.178   3.972 -0.0829  0.2622  0.2135
 4827W        W 9027   2.890   7.360  11.746  0.0350 -0.0228  0.0006
 4828W        W 9028   1.836   1.044   2.522  0.0030 -0.0175  0.1084
 4829W        W 9029   7.902   7.145   3.948  0.0571 -0.1058  0.0954
 4830W        W 9030  10.205   5.362   9.726  0.0618  0.1841 -0.3165
 4831W        W 9031   5.614   4.659   9.857  0.2211  0.2887 -0.1022
 4832W        W 9032   5.855   1.066   0.894 -0.0580  0.0890 -0.1245
 4833W        W 9033   2.115   3.223  10.910 -0.1573  0.1364 -0.3185
 4834W        W 9034   8.216   7.663  12.863  0.5090  0.1391  0.2480
 4835W        W 9035   9.672   9.696   0.587  0.0696  0.2205  0.2454
 4836W        W 9036   2.286   2.552  11.454  0.1698  0.1041  0.1617
 4837W        W 9037   3.266   5.788   1.734 -0.1944  0.3627 -0.2645
 4838W        W 9038  10.031   9.267   2.111 -0.0865  0.1096 -0.1040
 4839W        W 9039   4.562   2.552   8.820  0.0839 -0.0540  0.2803
 4840W        W 9040   5.233   5.389  10.669 -0.2700  0.0527  0.0571
 4841W        W 9041   7.557   5.964  10.564  0.1058  0.0653  0.0060
 4842W        W 9042   5.728   1.970  13.637  0.1403 -0.3376 -0.2552
 4843W        W 9043   5.992   7.454   2.983 -0.2701  0.2016 -0.1103
 4844W        W 9044   6.068   8.623   1.759 -0.0172  0.2391 -0.2104
 4845W        W 9045   6.237   0.349  12.899 -0.2781  0.2966  0.1517
 4846W        W 9046   7.287   9.809   2.982 -0.3320  0.0070 -0.2292
 4847W        W 9047   0.066   9.558   9.226 -0.0314  0.0887 -0.1919
 4848W        W 9048   8.112   4.096   2.730 -0.1857 -0.3792 -0.1334
 4849W        W 9049   3.763   2.960   9.337 -0.1746  0.0475 -0.3148
 4850W        W 9050   4.915   6.009   4.210 -0.1491  0.1524 -0.0459
 4851W        W 9051   5.047   5.769  12.578 -0.1559  0.3535 -0.2265
 4852W        W 9052   1.744   1.960   0.957  0.0827  0.0172  0.0914
 4853W        W 9053   4.717   5.997   3.745 -0.0163 -0.0110 -0.0267
 4854W        W 9054   9.519   7.387   1.256  0.2179 -0.0120 -0.1766
 4855W        W 9055   5.878   5.837  13.167 -0.1046 -0.1962  0.0799
 4856W        W 9056   2.469   6.297  11.034  0.2203 -0.2902 -0.1445
 4857W        W 9057   7.706   2.243  11.849 -0.0399 -0.2454  0.1229
 4858W        W 9058   5.440   8.452   2.300  0.1974  0.3956 -0.0612
 4859W        W 9059   1.305   3.058   9.854 -0.3652  0.0368  0.1309
 4860W        W 9060   1.286   4.765   8.567  0.1356  0.3944 -0.3865
 4861W        W 9061   5.640   8.304   9.022  0.0856 -0.0291  0.0019
 4862W        W 9062   4.764   1.325   2.279  0.3423 -0.0984  0.0797
 4863W        W 9063   8.058   8.243   0.801  0.1049  0.1452 -0.0903
 4864W        W 9064   3.140   2.273  11.995 -0.1518 -0.0967  0.1634
 4865W        W 9065   2.307   2.201  11.794 -0.4396 -0.0237  0.0459
 4866W        W 9066   3.633   1.591   0.571  0.0055 -0.1037  0.1494
 4867W        W 9067   1.848   7.460  11.005  0.3037  0.1697  0.1428
 4868W        W 9068   2.467   5.290   0.059  0.0954 -0.1882 -0.4107
 4869W        W 9069   7.203   6.756   4.121  0.0607 -0.1421 -0.3569
 4870W        W 9070   6.790   4.734   1.678  0.0910  0.2174  0.4177
 4871W        W 9071   4.159   9.926  10.402 -0.0177 -0.2502 -0.0265
 4872W        W 9072   7.568   1.869  12.289  0.3354 -0.0503 -0.2293
 4873W        W 9073   8.366   3.866  10.631 -0.3383 -0.0282  0.1016
 4874W        W 9074   7.098   5.676   9.782 -0.0685  0.5078 -0.0357
 4875W        W 9075   7.433   0.885   2.775  0.1306  0.4126 -0.4016
 4876W        W 9076   7.557   4.603   2.061  0.0391 -0.1454 -0.0507
 4877W        W 9077   9.881   4.417   4.386 -0.2087 -0.0354  0.1069
 4878W        W 9078   5.710   4.407   1.342 -0.1418  0.0722 -0.1331
 4879W        W 9079   4.359   0.387   9.984  0.4463 -0.2906  0.0493
 4880W        W 9080   0.746   2.437  11.915  0.0669 -0.1743  0.1903
 4881W        W 9081   4.390   4.351   9.879 -0.2040  0.1013 -0.0934
 4882W        W 9082   3.711   0.992  11.309  0.0243  0.0705  0.0229
 4883W        W 9083   9.581   2.085   2.487 -0.1554 -0.0656 -0.0535
 4884W        W 9084   8.563   4.652   3.039  0.0063 -0.0993  0.0847
 4885W        W 9085   7.099   4.845   3.106 -0.0997  0.2536  0.1125
 4886W        W 9086   3.239   5.068  13.368  0.1069 -0.0511 -0.1790
 4887W        W 9087  10.279   4.366   0.530  0.4402  0.1556  0.0577
 4888W        W 9088   7.077  10.138  11.877 -0.1637  0.0385  0.1588
 4889W        W 9089   8.430   0.747   3.347 -0.3593 -0.0585  0.0230
 4890W        W 9090   5.396   7.032  11.174  0.4880  0.0221  0.0183
 4891W        W 9091   0.691  10.249  10.055  0.1100  0.0376  0.1647
 4892W        W 9092   8.588  10.395  12.468  0.0909  0.1500  0.2713
 4893W        W 9093   0.730   3.912   9.566  0.0416  0.2138  0.2281
 4894W        W 9094   9.241   8.104  11.640 -0.0506  0.4312  0.1235
 4895W        W 9095   9.490   8.366  13.413  0.1375  0.0477  0.2340
 4896W        W 9096   0.389   5.041   2.961 -0.2327 -0.1524  0.0746
 4897W        W 9097   3.500   7.647  12.895  0.2042  0.0049 -0.1807
 4898W        W 9098   1.963   8.075   9.879  0.0568  0.3287 -0.0086
 4899W        W 9099   0.937   6.206   3.523  0.0275  0.2309 -0.0446
 4900W        W 9100   6.779   4.245  13.550 -0.3010 -0.2437  0.1206
 4901W        W 9101   4.709   5.506   3.987 -0.0892  0.0236  0.0702
 4902W        W 9102   0.856   9.679   2.886 -0.0326 -0.0244  0.1498
 4903W        W 9103   9.704   1.756  10.291  0.1457  0.1828  0.0877
 4904W        W 9104   2.294   9.392  10.655 -0.0743  0.1627 -0.0312
 4905W        W 9105   0.704   7.083   9.131 -0.1358  0.2460  0.1393
 4906W        W 9106   8.017   1.688  13.556  0.1540 -0.0497  0.1349
 4907W        W 9107   3.735   2.742  10.268 -0.0265  0.0894  0.4279
 4908W        W 9108   4.868   0.353   1.709 -0.3067  0.1364 -0.1043
 4909W        W 9109   6.876   1.043  11.868  0.1158  0.0029  0.2985
 4910W        W 9110   4.973   9.989  12.377  0.1124  0.4055  0.1035
 4911W        W 9111   2.149   3.523  12.627  0.1718  0.0623 -0.1682
 4912W        W 9112   5.787   9.315   2.799 -0.0841  0.0210  0.0653
 4913W        W 9113   5.588   3.147   0.786 -0.1088 -0.1378 -0.4573
 4914W        W 9114   1.547   4.780   2.948  0.1934  0.0257 -0.3255
 4915W        W 9115   0.545   0.516   3.601  0.1551  0.0856 -0.2875
 4916W        W 9116   2.676   6.032   1.684  0.1347 -0.0032 -0.0084
 4917W        W 9117   9.400   4.882   3.001 -0.0370 -0.2701 -0.0231
 4918W        W 9118   3.205   8.010   1.073  0.1449  0.0906 -0.0472
 4919W        W 9119   4.480   4.482   5.507 -0.1812 -0.2193 -0.0526
 4920W        W 9120  10.298   9.287  10.206 -0.0018  0.1282 -0.1785
 4921W        W 9121   9.824   2.534  12.265 -0.0946  0.2214  0.3039
 4922W        W 9122   9.814   0.111   3.137  0.0463 -0.2749 -0.0447
 4923W        W 9123   3.182   1.362  11.188  0.1867 -0.2352  0.1081
 4924W        W 9124   8.884   1.594  10.894 -0.2687 -0.2043  0.0728
 4925W        W 9125   0.377   2.672  11.183  0.2684  0.1454 -0.1149
 4926W        W 9126   8.557  10.084   1.460 -0.1647 -0.2543 -0.2056
 4927W        W 9127   5.098   1.487   2.819  0.1935  0.1157  0.4063
 4928W        W 9128   3.861   4.894   3.573 -0.1659 -0.0789 -0.0509
 4929W        W 9129   4.051   9.500   1.665 -0.2137  0.0666  0.2711
 4930W        W 9130   0.727   3.019   1.189  0.1638  0.3386 -0.2325
 4931W        W 9131   0.843   6.627  11.049 -0.4845  0.0951  0.2030
 4932W        W 9132   0.145   2.309   0.651  0.1473  0.2233  0.2616
 4933W        W 9133   4.685   8.236   9.331 -0.3979  0.2014 -0.2045
 4934W        W 9134   7.160   8.474  11.990 -0.3082  0.2745 -0.0366
 4935W        W 9135   7.985   9.467   1.376  0.1876  0.0255  0.1842
 4936W        W 9136   4.655   1.156   1.648 -0.1038 -0.1893  0.0409
 4937W        W 9137   0.820   7.720   9.469  0.1239  0.0576 -0.2146
 4938W        W 9138   8.528   3.261   4.388  0.0036 -0.2076  0.0818
 4939W        W 9139   7.320   8.642   3.533  0.2146  0.0481  0.2793
 4940W        W 9140   5.669   2.831  12.535 -0.3483 -0.1736  0.1918
 4941W        W 9141   7.505   9.605  10.213  0.1658 -0.0993  0.0733
 4942W        W 9142   8.677   4.903   3.505  0.0898 -0.0853 -0.0181
 4943W        W 9143   8.367   3.639  12.526  0.2604 -0.0936  0.0435
 4944W        W 9144   8.146  10.051   0.009  0.1403 -0.1313  0.0923
 4945W        W 9145   3.413   1.297  11.725 -0.0765 -0.1474  0.2378
 4946W        W 9146   8.164   8.055   1.433 -0.1676  0.0482  0.0807
 4947W        W 9147  10.249   6.169  11.611  0.0542 -0.0858  0.3138
 4948W        W 9148   9.744   7.628   0.782  0.0185  0.1276  0.2642
 4949W        W 9149   3.016   4.679   2.379  0.0321 -0.1053 -0.0573
 4950W        W 9150   5.242   2.003   0.081 -0.2453  0.1302 -0.1972
 4951W        W 9151   0.613   7.909   9.048 -0.0624 -0.0491 -0.1301
 4952W        W 9152   9.968   8.834   0.676  0.1493  0.0512 -0.1972
 4953W        W 9153   8.995   2.187  12.631  0.0041  0.2498 -0.3746
 4954W        W 9154   3.194   3.887   3.731  0.1937 -0.1735 -0.3933
 4955W        W 9155   5.383   4.600  10.750 -0.2901  0.1173  0.0129
 4956W        W 9156   3.661   2.167   4.540  0.0532 -0.0139  0.1920
 4957W        W 9157   0.486   8.691  11.088  0.1726  0.0944  0.0742
 4958W        W 9158   0.375   2.766   0.818  0.1302  0.0593  0.0497
 4959W        W 9159   5.832   1.605   4.108 -0.0642 -0.0309 -0.1936
 4960W        W 9160   2.924   9.762  11.902 -0.1159  0.0417 -0.0047
 4961W        W 9161   5.216   9.093  12.136  0.4408  0.1969 -0.0527
 4962W        W 9162   6.488   1.325  11.716 -0.0089 -0.3853  0.1711
 4963W        W 9163   7.755   2.909   9.558 -0.1682 -0.1335 -0.0754
 4964W        W 9164   4.146   2.944   0.273  0.3927 -0.1818  0.1175
 4965W        W 9165   7.970   3.957   4.005 -0.1367  0.1649 -0.1436
 4966W        W 9166   5.044   1.501   0.942 -0.2997  0.1027  0.2368
 4967W        W 9167   3.076   4.681  13.630 -0.3230 -0.0632  0.2633
 4968W        W 9168   8.919   5.442   1.955 -0.1874 -0.1204 -0.0500
 4969W        W 9169   0.013   6.197   4.338  0.0908  0.0165 -0.0532
 4970W        W 9170   7.174   1.454   1.421 -0.1761  0.2138  0.0489
 4971W        W 9171  10.222   3.495   9.820 -0.3629 -0.0713  0.1053
 4972W        W 9172   3.667   0.166   0.421 -0.1334  0.0166 -0.2051
 4973W        W 9173   9.743   9.757   3.305 -0.0975 -0.1067  0.1338
 4974W        W 9174   0.747   5.422   2.495  0.3401  0.2510  0.3031
 4975W        W 9175   1.023   4.595  12.797  0.0868 -0.0273 -0.0660
 4976W        W 9176   0.456   2.146   1.856  0.1398 -0.0248 -0.1205
 4977W        W 9177   0.058   5.854  13.238  0.0916 -0.0548 -0.0331
 4978W        W 9178   3.864   3.982   1.061  0.1878 -0.0792  0.1393
 4979W        W 9179   2.892   7.223  12.631 -0.2131  0.1790 -0.0913
 4980W        W 9180   5.687   5.186   3.073 -0.1552  0.1108  0.0994
 4981W        W 9181   9.122   3.186   5.266 -0.0706 -0.0093 -0.1213
 4982W        W 9182  10.110   4.534   1.007 -0.0419  0.0691  0.0518
 4983W        W 9183   2.362   9.920   2.375 -0.1808  0.0579  0.4733
 4984W        W 9184   8.615   3.433  10.521  0.0025 -0.0185  0.1035
 4985W        W 9185   6.130   1.457  10.100  0.2035  0.3283 -0.2757
 4986W        W 9186   8.087   3.971   4.762  0.1207 -0.2160  0.0966
 4987W        W 9187   9.850   2.447   2.666 -0.2797 -0.1154 -0.2093
 4988W        W 9188   1.176   4.382   1.846  0.4303  0.1710  0.0406
 4989W        W 9189   3.207   1.971   8.501  0.2249 -0.0171  0.0444
 4990W        W 9190   5.604   4.227   9.589 -0.1586 -0.3076 -0.1663
 4991W        W 9191   9.844   5.124  11.301 -0.1028 -0.1146 -0.0237
 4992W        W 9192   9.532   5.296   2.198  0.2707 -0.2066 -0.1748
 4993W        W 9193   6.321   5.048   0.234 -0.4642  0.2071  0.1108
 4994W        W 9194   6.229   3.097   8.986  0.1451 -0.1223  0.2025
 4995W        W 9195   5.269   1.474  10.482 -0.0364  0.3193  0.1472
 4996W        W 9196   1.407   4.835   9.632 -0.1695  0.0698  0.1238
 4997W        W 9197   8.082  10.196  12.797 -0.1901 -0.2941 -0.1638
 4998W        W 9198   2.838   7.885  12.468  0.3312 -0.2083  0.1808
 4999W        W 9199   6.828   7.019   1.022 -0.2860 -0.1481  0.0897
 5000W        W 9200   3.929   6.182   0.021 -0.1013  0.0495  0.2470
 5001W        W 9201   8.751   0.713   2.390  0.0516  0.0293  0.2351
 5002W        W 9202   6.194   3.998  11.699  0.3223  0.0537  0.0110
 5003W        W 9203   0.126   9.497   9.747  0.1421  0.0077  0.0600
 5004W        W 9204   7.933   7.758   2.266 -0.0718  0.1810 -0.0456
 5005W        W 9205   6.158   0.655  11.216  0.2047 -0.1430  0.0574
 5006W        W 9206   0.666   5.556   4.761 -0.3238 -0.0939 -0.1338
 5007W        W 9207   0.200   5.632   2.612  0.2147  0.2249  0.0887
 5008W        W 9208   0.314   0.779  10.384  0.0956 -0.1949  0.1690
 5009W        W 9209   0.903   7.125   2.201 -0.1643  0.5311  0.0467
 5010W        W 9210   1.380   4.821  10.336 -0.0891 -0.1294 -0.0487
 5011W        W 9211   2.408   9.303  11.708  0.2455 -0.1154  0.0498
 5012W        W 9212   9.318   9.704   3.529  0.1774 -0.0405  0.1455
 5013W        W 9213   4.891   2.459   3.704  0.1917  0.0531  0.2127
 5014W        W 9214   9.567   5.284  13.433 -0.1397  0.0523  0.2019
 5015W        W 9215   8.479   1.883  13.484 -0.3688 -0.0090  0.2082
 5016W        W 9216   0.414   6.120  12.409 -0.1584  0.0917 -0.0732
 5017W        W 9217   1.018   3.440   3.330 -0.0394  0.0713  0.1109
 5018W        W 9218   4.811   6.750  10.348  0.0197 -0.0425 -0.2058
 5019W        W 9219   0.198   2.952   2.500  0.0353  0.0760 -0.2778
 5020W        W 9220   2.564   1.557   1.153  0.1054  0.1968  0.1833
 5021W        W 9221   3.671   3.053  11.380 -0.1160 -0.4109  0.2370
 5022W        W 9222   9.613  10.099   3.906 -0.1000 -0.3050  0.2154
 5023W        W 9223   6.833   2.077   9.246  0.0273  0.0126  0.0627
 5024W        W 9224   3.846   6.779   0.185  0.0128 -0.2881 -0.1308
 5025W        W 9225   9.593   1.899   1.529 -0.0028 -0.0167  0.1488
 5026W        W 9226   7.786   2.777  10.420  0.3818 -0.1414 -0.0088
 5027W        W 9227   0.516   5.834   5.463 -0.1948 -0.1135 -0.0671
 5028W        W 9228   9.336   3.417  10.588 -0.1565 -0.0578  0.0686
 5029W        W 9229   3.845   5.144   2.586 -0.0195  0.1602 -0.1034
 5030W        W 9230   3.171   3.131  11.161  0.5284 -0.1965  0.1368
 5031W        W 9231   0.390   1.710   5.187 -0.2272 -0.1077 -0.0892
 5032W        W 9232   2.251   1.771   0.796  0.0340  0.2548 -0.3708
 5033W        W 9233   3.121   6.502   0.720  0.0484  0.2987  0.1211
 5034W        W 9234   1.208   1.321   4.189 -0.2130  0.3295 -0.3708
 5035W        W 9235   0.894   9.282   2.086  0.0530  0.0583  0.2081
 5036W        W 9236  10.070   7.148   1.660 -0.1180 -0.1579 -0.5803
 5037W        W 9237   0.183   5.428  10.723  0.0435  0.3238  0.0802
 5038W        W 9238   2.452   5.525  11.462 -0.1689 -0.2602  0.1749
 5039W        W 9239   5.346   8.487  12.588  0.1429 -0.3528  0.1129
 5040W        W 9240   1.901   8.676   3.071  0.0052  0.0754  0.1507
 5041W        W 9241   4.054   7.475  13.121  0.1318  0.0440  0.0731
 5042W        W 9242   4.330   5.836   2.908  0.0050  0.4804  0.1257
 5043W        W 9243   5.556   8.978  12.471 -0.2939  0.2335 -0.0064
 5044W        W 9244   5.158   1.363  13.063  0.2538 -0.2448  0.1443
 5045W        W 9245   7.669   7.171  12.129 -0.0090 -0.0691  0.0123
 5046W        W 9246   7.005   8.275   2.649 -0.1046  0.1126  0.1532
 5047W        W 9247   1.156   3.895  11.027 -0.3629  0.2999  0.1264
 5048W        W 9248   9.444   1.161   2.601  0.1615 -0.2087  0.0028
 5049W        W 9249   2.552   6.443   2.548 -0.2051 -0.1528  0.0918
 5050W        W 9250   4.120   3.709  10.176  0.1124 -0.0945  0.1418
 5051W        W 9251   1.621   1.532   2.540 -0.1686 -0.1040 -0.3254
 5052W        W 9252   1.089   4.827   3.223  0.1261  0.2339  0.2879
 5053W        W 9253   0.932   5.372  12.371  0.0555  0.0597  0.2415
 5054W        W 9254   9.797   2.551   9.017  0.3171  0.0986 -0.1323
 5055W        W 9255   8.180   3.904  12.163  0.1385 -0.3124 -0.1407
 5056W        W 9256   0.817  10.289  11.556  0.1329 -0.0881  0.3039
 5057W        W 9257   0.480   9.123   9.881 -0.5580  0.0670 -0.3074
 5058W        W 9258   9.541   4.173   2.262 -0.0902  0.1601 -0.3053
 5059W        W 9259   9.303   4.331   9.422 -0.0306  0.1984 -0.1482
 5060W        W 9260   5.481   5.553   1.947 -0.2282  0.3230 -0.0960
 5061W        W 9261   3.820   8.199   3.908  0.0256  0.4078  0.0238
 5062W        W 9262   6.871   4.793  13.562 -0.1556 -0.1924  0.0868
 5063W        W 9263   4.014   4.705   2.351 -0.0174 -0.0369  0.0309
 5064W        W 9264   0.894   1.734   1.592  0.3318 -0.0192 -0.2142
 5065W        W 9265   6.967   8.812   0.033 -0.1533 -0.0314 -0.4311
 5066W        W 9266   7.576   1.595   2.180  0.2718 -0.0753 -0.2354
 5067W        W 9267   0.009   9.238   3.148 -0.1234  0.0316 -0.0178
 5068W        W 9268   4.960   3.429   0.459 -0.3206 -0.0694  0.2675
 5069W        W 9269   1.766  10.077  10.863  0.3012 -0.0273  0.1622
 5070W        W 9270   1.670   2.264   2.549 -0.0391  0.0366 -0.0063
 5071W        W 9271  10.375   1.673   2.312 -0.6084  0.0365 -0.0812
 5072W        W 9272   9.988  10.257  12.275 -0.2963  0.0011  0.0363
 5073W        W 9273   1.029   8.514   0.557  0.4445  0.1780  0.0235
 5074W        W 9274   9.761   8.704  13.117  0.1662  0.3061 -0.2492
 5075W        W 9275   7.396   2.922   1.513 -0.1210  0.2393  0.1204
 5076W        W 9276   6.242   1.198  10.494 -0.0391  0.0509 -0.0329
 5077W        W 9277   2.782   0.287   0.947  0.1729 -0.5229  0.0963
 5078W        W 9278   8.839   3.286  12.303 -0.1297  0.2753  0.0615
 5079W        W 9279   5.482   6.559   3.350 -0.2144 -0.1000  0.0046
 5080W        W 9280   2.711   8.771   1.515 -0.1626  0.0617  0.3338
 5081W        W 9281   0.599   0.134  12.949  0.1838 -0.0864 -0.1535
 5082W        W 9282   0.425   6.542   0.582  0.1319  0.1323  0.1053
 5083W        W 9283   9.227   7.636   0.951 -0.0534 -0.3491 -0.3651
 5084W        W 9284   1.997   7.680   1.877  0.0676 -0.0749  0.0438
 5085W        W 9285   9.447   6.717   2.716 -0.1419  0.2616 -0.0351
 5086W        W 9286   0.987   5.162  12.814 -0.4968  0.1243  0.0285
 5087W        W 9287   6.298   0.277  10.679 -0.3426 -0.0930  0.1135
 5088W        W 9288   2.187   4.750   0.167  0.3073 -0.0453  0.1626
 5089W        W 9289   6.856   4.999   3.711 -0.4483 -0.1245  0.0137
 5090W        W 9290   0.200   7.338  10.015  0.1307  0.0202 -0.0844
 5091W        W 9291   6.756   1.927   3.021 -0.0507  0.0743  0.1467
 5092W        W 9292   2.679   7.229  13.088  0.1361 -0.1237  0.2975
 5093W        W 9293   2.283   4.905  10.097  0.1425  0.1123  0.3826
 5094W        W 9294   0.432   1.442  11.046  0.1340  0.2967  0.0531
 5095W        W 9295   3.984   0.770   9.905 -0.2194  0.1888 -0.5050
 5096W        W 9296   5.821  10.154   0.912  0.1638  0.0526  0.1674
 5097W        W 9297   4.860   6.065   9.118 -0.1245  0.1485  0.1954
 5098W        W 9298   2.660   9.641  11.454  0.3278 -0.1108  0.2128
 5099W        W 9299   4.778   6.770  13.116  0.0189  0.2737 -0.0185
 5100W        W 9300   6.051   0.697  12.240 -0.1905 -0.2884  0.0843
 5101W        W 9301   5.582   7.463  10.244 -0.2983  0.2219 -0.0606
 5102W        W 9302   8.895   8.276  13.389 -0.0392  0.0906  0.3232
 5103W        W 9303   9.668   9.203   0.827  0.1370  0.0268 -0.1844
 5104W        W 9304   7.424   5.151   0.844 -0.0343 -0.0090  0.2001
 5105W        W 9305   9.551   5.793   2.500 -0.2426  0.4006 -0.1400
 5106W        W 9306   3.559   4.821  12.141 -0.0877  0.0562  0.2323
 5107W        W 9307   4.222   9.829   9.412  0.1639  0.2416  0.2308
 5108W        W 9308   2.960   3.655   2.127 -0.0633 -0.2283 -0.1308
 5109W        W 9309   2.105   6.396   0.344  0.1859 -0.1343 -0.1658
 5110W        W 9310   3.011   0.291   0.359  0.2339  0.1253 -0.0227
 5111W        W 9311   5.501   4.935  13.319  0.2296 -0.1956  0.1898
 5112W        W 9312   1.915   7.073  10.544 -0.1376  0.1009  0.0736
 5113W        W 9313   0.364   9.552  13.113 -0.2084 -0.0560  0.0296
 5114W        W 9314   2.841   7.953   1.492  0.1568  0.0258  0.1354
 5115W        W 9315   3.767   7.900  11.856  0.2291  0.1383 -0.1449
 5116W        W 9316  10.362   7.613   9.317 -0.1695  0.1619 -0.1260
 5117W        W 9317   2.249   8.132   2.309  0.2549 -0.0142  0.1119
 5118W        W 9318   3.296   2.010   0.429  0.0961  0.0444 -0.0312
 5119W        W 9319   2.593   5.722  12.330  0.1563  0.2195 -0.2685
 5120W        W 9320   3.634   3.682   3.879  0.1895  0.0374 -0.0985
 5121W        W 9321   1.058   6.128   3.060  0.0949 -0.3033 -0.2652
 5122W        W 9322   0.886   5.479   1.171 -0.1479  0.3182 -0.1276
 5123W        W 9323   1.202   3.781   0.457 -0.0717 -0.3467 -0.0014
 5124W        W 9324   3.292   1.482  10.426 -0.2117 -0.3001 -0.1145
 5125W        W 9325   2.152   1.614   3.601 -0.1188  0.0018  0.0857
 5126W        W 9326   5.109   7.506  12.166 -0.2104 -0.1091  0.2764
 5127W        W 9327   5.351   2.345  12.760  0.4404  0.2944 -0.0600
 5128W        W 9328   2.107   8.819   3.981 -0.4835  0.0895  0.2017
 5129W        W 9329   5.939   3.486   5.387 -0.0581  0.2367 -0.3146
 5130W        W 9330   4.341   1.431   2.022 -0.0060 -0.0708  0.0572
 5131W        W 9331   9.828   2.625   0.026  0.1218  0.1047 -0.0224
 5132W        W 9332   9.259   1.765   9.626 -0.3133 -0.1063 -0.0164
 5133W        W 9333   1.267   2.789  10.848 -0.2277 -0.2548 -0.0102
 5134W        W 9334   5.002   3.450  11.434 -0.2197 -0.0466 -0.0055
 5135W        W 9335   3.475   1.461   3.101 -0.0007  0.0151  0.2336
 5136W        W 9336   7.075   2.116   3.314  0.1384 -0.2940 -0.1513
 5137W        W 9337   0.808   0.402   0.728 -0.0390  0.0674 -0.1630
 5138W        W 9338   4.539   3.162  11.423  0.0150 -0.0818 -0.1519
 5139W        W 9339   6.062   5.679  11.032 -0.0340 -0.2101 -0.2235
 5140W        W 9340   1.427   6.028  12.545 -0.0895  0.0083 -0.1801
 5141W        W 9341   5.546   8.239   3.243  0.0729  0.0317  0.0380
 5142W        W 9342   0.886   6.629   3.146  0.1331  0.1650  0.1047
 5143W        W 9343   1.127   0.889   2.049 -0.0854  0.0783  0.1382
 5144W        W 9344   0.605   3.257   0.698  0.2465  0.2410 -0.0133
 5145W        W 9345   7.536   3.723   0.370 -0.1380 -0.1681 -0.0340
 5146W        W 9346   3.505   3.777   0.713 -0.0536 -0.0871 -0.1326
 5147W        W 9347   7.165   9.295   1.440  0.0366 -0.1299  0.0612
 5148W        W 9348   9.845   0.597  11.476  0.1117 -0.4121 -0.0136
 5149W        W 9349   4.448   9.855   4.181 -0.2162 -0.0832  0.0175
 5150W        W 9350   4.232  10.175   8.980 -0.1428  0.0304 -0.3041
 5151W        W 9351   7.842   9.702  13.059  0.3892  0.1403 -0.1475
 5152W        W 9352   6.447   7.971   0.134 -0.1554 -0.0584  0.0396
 5153W        W 9353   0.092   2.033  13.534 -0.2336 -0.0264  0.0898
 5154W        W 9354   3.135   2.053   3.893 -0.0215  0.2919  0.3343
 5155W        W 9355   1.490   9.597   0.794 -0.0770  0.2621 -0.1141
 5156W        W 9356   9.242   3.567   1.183  0.0208  0.0045 -0.2373
 5157W        W 9357   4.623   1.986   4.784 -0.0364  0.0615 -0.0363
 5158W        W 9358   2.987   3.776   0.689  0.0546 -0.1165  0.1765
 5159W        W 9359   8.431   6.369  12.158 -0.1302 -0.2229  0.0722
 5160W        W 9360   5.164   9.268   3.927 -0.0854  0.0997  0.0767
 5161W        W 9361   3.251  10.295   0.567  0.2330 -0.3778  0.0296
 5162W        W 9362   0.178   0.177   3.446 -0.3002  0.2996  0.0061
 5163W        W 9363   1.898   7.168   3.741 -0.5809  0.1032  0.2024
 5164W        W 9364   1.239   6.004   1.564 -0.2378 -0.0551  0.0378
 5165W        W 9365   6.276   1.198  13.148 -0.1309  0.0543  0.1922
 5166W        W 9366   1.228   7.056   9.102 -0.2142  0.2039 -0.3655
 5167W        W 9367   7.137   7.060  12.141 -0.2712 -0.2770  0.1756
 5168W        W 9368   0.684   1.237   4.040 -0.0735  0.0016 -0.1353
 5169W        W 9369   0.404   1.843   9.897 -0.2284  0.2020  0.0231
 5170W        W 9370   5.346   3.051  12.112  0.0284 -0.0125  0.2286
 5171W        W 9371   0.994   9.804  12.405  0.0265 -0.2901 -0.2188
 5172W        W 9372   5.343   5.985  11.829  0.1064 -0.1204 -0.5090
 5173W        W 9373   5.191   6.018   9.521  0.1972 -0.2786  0.0734
 5174W        W 9374   2.237   8.290   0.592 -0.2944 -0.1297  0.0281
 5175W        W 9375   2.488   1.459  12.954 -0.0718 -0.1092  0.2723
 5176W        W 9376   2.449   3.439   9.463  0.0384  0.0651  0.1602
 5177W        W 9377   2.429   6.071  11.445 -0.2614  0.0675  0.1225
 5178W        W 9378   7.030   9.003  10.732 -0.1522 -0.0412 -0.0103
 5179W        W 9379   8.819   6.691  11.944  0.4619  0.2129 -0.1878
 5180W        W 9380   0.318   8.430  10.476  0.0318  0.2505 -0.0940
 5181W        W 9381   4.913   3.289   1.466 -0.0954 -0.2974 -0.2882
 5182W        W 9382   8.184   6.458  10.027  0.2146 -0.0346 -0.2541
 5183W        W 9383   4.425   9.058   2.778 -0.0660 -0.3366 -0.1976
 5184W        W 9384   2.194   6.640  10.773 -0.0354  0.3956 -0.1629
 5185W        W 9385   2.218   1.854  13.556  0.0861 -0.1087  0.0194
 5186W        W 9386   9.703   8.235   2.841 -0.5002  0.3223  0.1440
 5187W        W 9387   2.851   1.160   1.474  0.3084 -0.0481  0.1415
 5188W        W 9388   0.383   2.466   0.084  0.2144  0.1526 -0.0447
 5189W        W 9389   9.489   8.356  12.877 -0.1239  0.1636 -0.1609
 5190W        W 9390   6.000   5.618   2.374  0.0304 -0.1196  0.0373
 5191W        W 9391   9.381   7.447  11.402  0.0114 -0.1528  0.0737
 5192W        W 9392   4.407   8.300  10.293  0.0692  0.0553 -0.4013
 5193W        W 9393   2.821   3.736   1.521 -0.0225  0.1941 -0.2435
 5194W        W 9394   7.947   8.987   0.450  0.0294 -0.2307 -0.1215
 5195W        W 9395   3.793   2.536  11.467 -0.2634  0.0583  0.1611
 5196W        W 9396   2.812   0.135   3.622 -0.0102 -0.4474 -0.3556
 5197W        W 9397   1.129   9.975   0.641  0.0677  0.1555  0.3362
 5198W        W 9398  10.005   2.221   9.512  0.0710  0.2288 -0.1939
 5199W        W 9399   1.335  10.103  11.425  0.2257  0.0637 -0.1410
 5200W        W 9400   6.187   2.710  11.732  0.2646  0.1496 -0.0676
 5201W        W 9401   0.843  10.333   0.438  0.0226 -0.0824  0.4786
 5202W        W 9402   1.312   5.802  11.296 -0.0491  0.0186  0.0575
 5203W        W 9403   7.102   1.299  10.362 -0.0642 -0.0529 -0.1875
 5204W        W 9404   0.144   9.282  11.666  0.0569  0.1503 -0.1896
 5205W        W 9405   9.186   1.046   1.804  0.0893  0.2553  0.0888
 5206W        W 9406   8.342   5.006  11.219 -0.0132  0.1469 -0.2628
 5207W        W 9407   8.187   8.730   0.050  0.1981  0.3137  0.1616
 5208W        W 9408   9.328   7.591   4.160  0.3330 -0.2532 -0.0780
 5209W        W 9409   5.180   7.294   1.604  0.0814  0.2325 -0.1669
 5210W        W 9410   5.984   1.797   9.708  0.0450 -0.2017  0.0932
 5211W        W 9411   3.327   6.803   1.617 -0.0816 -0.0571 -0.3180
 5212W        W 9412   4.478   4.996  12.328 -0.0571 -0.2109  0.1328
 5213W        W 9413   2.558   3.684   9.888  0.0981  0.2264 -0.4093
 5214W        W 9414   5.569   8.136   0.225 -0.2352  0.0818  0.0015
 5215W        W 9415   0.070   8.069  13.147 -0.0790 -0.2607 -0.1682
 5216W        W 9416   2.367   3.532   2.272  0.2246  0.3201 -0.0636
 5217W        W 9417   3.424   4.751   4.837  0.2147 -0.0581  0.0971
 5218W        W 9418   2.033   4.893  10.591  0.0086 -0.0965  0.0748
 5219W        W 9419   0.904   5.953  10.011 -0.0374  0.0071  0.0638
 5220W        W 9420   0.633   7.090  10.088 -0.0141  0.0503 -0.0534
 5221W        W 9421   9.551   0.006   9.037  0.1240 -0.0057 -0.1338
 5222W        W 9422   0.602   4.067  11.904  0.0657 -0.0726  0.0100
 5223W        W 9423  10.305   6.840   1.326 -0.0190 -0.0577  0.0446
 5224W        W 9424   3.806   1.248   2.830  0.0558  0.1130 -0.2845
 5225W        W 9425   8.037   1.065   9.487  0.1669 -0.1615  0.1380
 5226W        W 9426   6.479   3.196   3.443 -0.3232 -0.2505 -0.0559
 5227W        W 9427   2.490   6.460  13.644 -0.1017 -0.3455 -0.2978
 5228W        W 9428   7.739   7.553   3.599 -0.0823 -0.2343 -0.0896
 5229W        W 9429   3.338   7.152   4.789  0.0399 -0.2890  0.1577
 5230W        W 9430   8.437   7.167  12.924 -0.0326  0.1525 -0.1738
 5231W        W 9431   4.424  10.354   9.385  0.0413  0.1590  0.0053
 5232W        W 9432   9.356   2.965   0.563  0.1287 -0.0527  0.0891
 5233W        W 9433   7.600   2.080   1.963 -0.0828  0.3482  0.0800
 5234W        W 9434   2.163   9.075  13.511  0.0862  0.0764 -0.1635
 5235W        W 9435   0.547   6.097   3.169 -0.0204  0.1489  0.2752
 5236W        W 9436   5.214   2.674   2.023  0.2264  0.0243 -0.1319
 5237W        W 9437   1.249   7.002   1.437 -0.0252 -0.0759 -0.1425
 5238W        W 9438   8.027   8.974   1.554  0.1587 -0.3205  0.1398
 5239W        W 9439   4.301   0.963   3.614 -0.0403 -0.0405 -0.0918
 5240W        W 9440   3.890   6.016   9.012  0.1629  0.1110 -0.1478
 5241W        W 9441   3.335   9.657   8.979 -0.2688 -0.0221  0.0931
 5242W        W 9442   8.502   6.254   0.542  0.0822  0.1317  0.1570
 5243W        W 9443   9.129   7.242   0.593 -0.1390 -0.1886  0.2489
 5244W        W 9444   5.144   6.598   0.612  0.1095 -0.0106 -0.0502
 5245W        W 9445   4.536   2.742   9.281  0.2758  0.0634 -0.0690
 5246W        W 9446   1.572   5.732  11.710 -0.3052  0.0820  0.0262
 5247W        W 9447   7.816   2.371   2.947 -0.1463  0.0613  0.2352
 5248W        W 9448   0.726   3.916   4.456  0.0879 -0.1160  0.2251
 5249W        W 9449   6.508   0.435  13.372  0.0209 -0.0662  0.0685
 5250W        W 9450   3.462   4.614   0.340  0.2879  0.2994  0.1182
 5251W        W 9451   9.352   5.313   4.395  0.1683  0.1162 -0.3281
 5252W        W 9452  10.076   2.153  10.200 -0.0246 -0.0805  0.1535
 5253W        W 9453   1.552   9.566   4.109 -0.0470 -0.1378 -0.1087
 5254W        W 9454   8.796  10.052   2.042 -0.0590 -0.1416 -0.0888
 5255W        W 9455   9.552   4.816  12.675 -0.0291 -0.1332  0.2000
 5256W        W 9456   1.074  10.382  10.365 -0.0999 -0.1224 -0.0168
 5257W        W 9457   9.893   6.512   2.127 -0.0725  0.0174 -0.0401
 5258W        W 9458   6.004   2.176  11.819 -0.1524 -0.1694 -0.1431
 5259W        W 9459   2.816   3.804   3.416 -0.2086 -0.2014  0.0805
 5260W        W 9460   5.894   2.562   3.158  0.1110  0.0584 -0.1451
 5261W        W 9461   7.794   1.549   3.479 -0.2882  0.0618 -0.1096
 5262W        W 9462   3.572   8.583   2.522  0.1266  0.4658 -0.0895
 5263W        W 9463   3.009   5.664   9.313 -0.1477  0.0366  0.0755
 5264W        W 9464   8.819   5.210   0.995 -0.0561  0.0313  0.1323
 5265W        W 9465   2.353   7.992   0.013  0.1294  0.0377 -0.0124
 5266W        W 9466   2.570   3.879   2.581  0.0053 -0.1384  0.1008
 5267W        W 9467   8.633   3.088  12.761 -0.2060 -0.0849 -0.0410
 5268W        W 9468   0.242   8.958  12.129 -0.1094  0.0616 -0.1442
 5269W        W 9469   1.696   4.363   9.346  0.1720  0.2572 -0.0388
 5270W        W 9470   1.540   0.009   2.360 -0.2100 -0.3044 -0.1960
 5271W        W 9471   0.474   5.665   0.869  0.1619  0.1049  0.0963
 5272W        W 9472   0.589   4.084   8.700 -0.1717 -0.0037 -0.1882
 5273W        W 9473   6.308   3.278  11.996  0.1959 -0.0884 -0.4464
 5274W        W 9474   9.040   7.271   2.556  0.0101  0.2123  0.1585
 5275W        W 9475   8.965   4.532  11.414  0.1914 -0.0772 -0.0365
 5276W        W 9476   4.720   3.638   0.023 -0.2371 -0.2047  0.0021
 5277W        W 9477   1.749   6.362  10.557 -0.1567 -0.0289 -0.2436
 5278W        W 9478  10.355   3.839   2.672 -0.2362 -0.0913 -0.0338
 5279W        W 9479   5.198   3.230   2.484 -0.1616 -0.4426 -0.3594
 5280W        W 9480   4.192   8.876  13.108 -0.0577 -0.2435 -0.2148
 5281W        W 9481   2.719   1.315   2.534  0.1141  0.1678  0.0779
 5282W        W 9482   5.151   9.366   4.502 -0.3338  0.5182 -0.0174
 5283W        W 9483   6.434   7.769   2.191 -0.1413  0.1853  0.0180
 5284W        W 9484   1.120   4.126  10.024  0.0089  0.0424  0.3404
 5285W        W 9485   0.152   7.906  10.734 -0.0987 -0.0429 -0.2578
 5286W        W 9486   0.858   6.004   4.725 -0.1510 -0.0865 -0.1285
 5287W        W 9487   6.877   9.025  11.213  0.0366 -0.0445  0.0540
 5288W        W 9488   5.526   0.616  10.270  0.1892 -0.0950  0.0143
 5289W        W 9489   2.343  10.293   4.612 -0.2097  0.0741 -0.1667
 5290W        W 9490   2.082   6.880   9.376 -0.2515  0.1426  0.0488
 5291W        W 9491   6.290   8.132  10.167 -0.3714 -0.2010  0.1615
 5292W        W 9492   3.144   0.069  10.915  0.2077 -0.1051  0.0216
 5293W        W 9493   9.652   6.062   9.887  0.0014 -0.1169  0.0003
 5294W        W 9494   2.227   6.532  12.225 -0.0834  0.1142 -0.3121
 5295W        W 9495   0.804   6.857   4.451  0.1233  0.0342 -0.0218
 5296W        W 9496   7.911   4.496   9.844  0.0567 -0.2114  0.1928
 5297W        W 9497   9.149   6.244   1.135  0.0024  0.0954  0.0332
 5298W        W 9498   3.305   8.606  11.017  0.1035  0.0433  0.1254
 5299W        W 9499   5.442   2.710   0.688 -0.1264  0.2272 -0.2471
 5300W        W 9500   3.931   4.730  11.717  0.1149  0.1487 -0.0414
 5301W        W 9501   2.762   1.060   1.973  0.2353 -0.4376  0.1541
 5302W        W 9502   3.184   1.869   9.852  0.0890  0.2271  0.0492
 5303W        W 9503   8.237   3.566  11.814  0.0370  0.2039 -0.1200
 5304W        W 9504   3.440   6.582  13.009  0.1476  0.0203 -0.0141
 5305W        W 9505   4.984   8.803  11.779  0.0767 -0.1951 -0.1811
 5306W        W 9506   4.789   2.066  11.912  0.2628  0.0336  0.0351
 5307W        W 9507   4.154   0.327   3.358 -0.1235  0.0627 -0.1138
 5308W        W 9508   3.114   9.956  11.478  0.0257 -0.1643 -0.1899
 5309W        W 9509   5.511   7.252   3.144 -0.1529 -0.2320 -0.1230
 5310W        W 9510   6.537   6.307   2.705  0.3398  0.2586 -0.3574
 5311W        W 9511   7.537   3.143  10.721  0.0798  0.0620 -0.0057
 5312W        W 9512   0.822   6.721   0.821 -0.1514  0.2242  0.0186
 5313W        W 9513   4.542   3.112  10.340  0.2784  0.1455  0.1326
 5314W        W 9514   9.860   3.247  12.775  0.0271 -0.0571 -0.1739
 5315W        W 9515   7.796   9.165  13.363  0.0775  0.0965 -0.2292
 5316W        W 9516   5.837   8.141  13.413 -0.1388 -0.1671 -0.0429
 5317W        W 9517  10.160   2.423  11.895 -0.2767 -0.1632 -0.0016
 5318W        W 9518   1.758   0.202   7.781 -0.0584 -0.1369 -0.2965
 5319W        W 9519   4.367   0.421  12.141 -0.0568 -0.1452 -0.1478
 5320W        W 9520   3.916   8.504   0.560  0.0021  0.1146  0.1222
 5321W        W 9521   4.671   6.645   9.860 -0.0386 -0.2574 -0.2011
 5322W        W 9522   1.933   0.513   4.115 -0.2023  0.0270 -0.2195
 5323W        W 9523  10.305   9.946  12.532  0.0817  0.0999  0.0376
 5324W        W 9524   5.561   3.431   4.534  0.2082 -0.3152 -0.2904
 5325W        W 9525   6.961   2.852  12.887 -0.0285 -0.2970 -0.0624
 5326W        W 9526   7.653   0.657   1.403  0.3677 -0.2608  0.2305
 5327W        W 9527   7.377   3.859  12.732  0.0684 -0.1868 -0.0377
 5328W        W 9528   2.662   7.349   9.564  0.2753  0.2120  0.2482
 5329W        W 9529   0.071   3.650  11.411 -0.1533  0.0834  0.0654
 5330W        W 9530   4.596   7.852   0.036 -0.0940  0.0233  0.3243
 5331W        W 9531   6.971   6.794   0.589 -0.0585 -0.5303  0.1508
 5332W        W 9532   2.649   1.081   0.924 -0.0042  0.1527  0.0346
 5333W        W 9533   7.256   9.463  10.663  0.0173 -0.0186 -0.0107
 5334W        W 9534   8.352   4.785  10.236 -0.1147 -0.0927  0.0659
 5335W        W 9535   0.252   0.040  11.476  0.0677  0.0140 -0.0170
 5336W        W 9536   3.627   5.237   4.794  0.0980 -0.0694 -0.0276
 5337W        W 9537  10.106   5.804   1.416  0.2733  0.5057  0.2828
 5338W        W 9538   8.234   5.392   0.137 -0.1478  0.0443 -0.0664
 5339W        W 9539   7.879   1.026   1.065  0.0947  0.0932  0.2371
 5340W        W 9540   2.089   7.658   0.961  0.0380  0.0899  0.2532
 5341W        W 9541   0.190   8.613   3.715 -0.3745  0.1131  0.0099
 5342W        W 9542   9.944   9.978  13.361  0.3172  0.0952 -0.4221
 5343W        W 9543   9.232   1.992  10.059 -0.3552  0.0642 -0.0213
 5344W        W 9544  10.076   4.080   4.768 -0.3208 -0.1762 -0.0140
 5345W        W 9545   7.859   6.532   0.165 -0.0990 -0.0384 -0.2174
 5346W        W 9546   6.292   2.043   1.376  0.1506 -0.2511 -0.0586
 5347W        W 9547   6.555   4.202   5.663  0.1478 -0.0942  0.1948
 5348W        W 9548   7.855   4.105   3.433 -0.0046 -0.1392  0.1548
 5349W        W 9549   8.142   1.519   3.058 -0.0420 -0.0594 -0.0466
 5350W        W 9550   2.075   0.085  13.483 -0.0986  0.0463  0.1675
 5351W        W 9551   0.886   5.040   4.243 -0.3077 -0.1669 -0.1024
 5352W        W 9552   2.840   4.692  12.541 -0.0980 -0.1306  0.1163
 5353W        W 9553   0.452   0.509   8.657  0.5740 -0.1967  0.0853
 5354W        W 9554   5.918   0.979  10.916 -0.0107  0.1044  0.0744
 5355W        W 9555   4.409   8.663   9.919 -0.1268 -0.1835  0.1610
 5356W        W 9556   3.679   3.812   9.404  0.1267 -0.1044  0.2053
 5357W        W 9557   6.987   2.938   3.463 -0.0243  0.2442 -0.1996
 5358W        W 9558   4.537   4.742  13.160 -0.1325 -0.1327  0.1716
 5359W        W 9559   4.869  10.327   2.471 -0.0284  0.2863 -0.0034
 5360W        W 9560   6.873   8.892   1.400  0.4278 -0.2921  0.0616
 5361W        W 9561   3.815   3.432   0.532  0.2565 -0.0450  0.1091
 5362W        W 9562  10.031   3.427  11.645 -0.0394 -0.0554 -0.1968
 5363W        W 9563   3.618   2.677   3.860 -0.2551  0.0494 -0.0879
 5364W        W 9564   1.623   0.836   3.009 -0.0163 -0.0351  0.1130
 5365W        W 9565   2.620   3.477   3.762  0.0439  0.1072 -0.0094
 5366W        W 9566   9.268   0.747  10.576 -0.3130  0.0762 -0.1849
 5367W        W 9567   6.890   5.443   2.113 -0.1166  0.2588 -0.2749
 5368W        W 9568   9.112   0.004  12.487 -0.2133  0.0252 -0.1483
 5369W        W 9569   4.205   1.181   9.706  0.1476  0.2427 -0.1027
 5370W        W 9570   9.039   0.196   1.315  0.2527 -0.0137 -0.0645
 5371W        W 9571   3.243   0.702   3.777 -0.2426 -0.3403  0.2661
 5372W        W 9572   6.000   5.489   3.279 -0.1712  0.0027 -0.0420
 5373W        W 9573   0.887   2.332   3.392  0.1786  0.2034  0.0243
 5374W        W 9574   7.248   8.705   2.647 -0.0126 -0.1191  0.1442
 5375W        W 9575   8.343   7.735   0.421  0.0340 -0.2913 -0.1575
 5376W        W 9576   9.919   4.188  10.554 -0.1372  0.3378 -0.1134
 5377W        W 9577   6.149   3.672  12.533 -0.0925  0.2043 -0.0262
 5378W        W 9578   2.078   3.543   2.693 -0.0422 -0.0497 -0.1781
 5379W        W 9579   3.551   7.283   1.371  0.2656  0.0589  0.1068
 5380W        W 9580   2.266   1.107   3.454 -0.0502 -0.0563 -0.0469
 5381W        W 9581   4.479   7.008   4.276  0.3616  0.2673 -0.3941
 5382W        W 9582   3.688   8.960   1.688 -0.2186  0.1494  0.0782
 5383W        W 9583   8.875   4.264  13.010  0.2348  0.0397 -0.0653
 5384W        W 9584   9.068   0.690  13.527 -0.0152  0.0558 -0.1997
 5385W        W 9585   6.256   6.376   9.845  0.2204 -0.2106 -0.0445
 5386W        W 9586   7.165   1.061  11.386  0.1236  0.1543  0.2378
 5387W        W 9587   8.353   9.660   0.313  0.0691  0.2117 -0.0638
 5388W        W 9588   0.854   5.156  11.907  0.1343  0.5220  0.0985
 5389W        W 9589   7.092   7.660   9.827 -0.2325 -0.2238 -0.0784
 5390W        W 9590   2.333   0.946   2.402 -0.4059 -0.4055 -0.1730
 5391W        W 9591   9.061   7.998  13.021  0.5396  0.0664 -0.2278
 5392W        W 9592   4.251   7.171   3.850  0.0411 -0.0207  0.2767
 5393W        W 9593   8.875   1.650   2.545 -0.0211  0.0477 -0.0927
 5394W        W 9594   9.185   2.964  10.109  0.3100 -0.3628 -0.0507
 5395W        W 9595   9.059   6.685   3.969  0.1390 -0.0363 -0.0549
 5396W        W 9596   3.007   2.328   2.551 -0.0568 -0.1567  0.0198
 5397W        W 9597   8.723   6.951   0.699 -0.1270  0.0656 -0.2247
 5398W        W 9598   0.552   8.194   1.439  0.0411  0.2512 -0.2504
 5399W        W 9599   7.970   1.431  11.483  0.1046 -0.0161  0.0362
 5400W        W 9600   7.947   3.297  11.426 -0.1231 -0.2885  0.1838
 5401W        W 9601   2.035   3.363  13.152 -0.1369  0.0929  0.1460
 5402W        W 9602   6.661   0.028  12.099 -0.2879  0.0267 -0.0422
 5403W        W 9603   8.975   8.527   9.986 -0.0450 -0.0667  0.1396
 5404W        W 9604   9.626   1.333   0.872  0.0757 -0.0335  0.2957
 5405W        W 9605   0.013   2.878  12.181 -0.0999  0.0434  0.3127
 5406W        W 9606   8.628   3.756   3.368  0.0347 -0.0100 -0.0802
 5407W        W 9607   2.332   7.295   3.562 -0.0999 -0.0438  0.0847
 5408W        W 9608   5.523   1.644   5.080  0.1540 -0.0519 -0.2068
 5409W        W 9609   9.775   1.656  12.989 -0.1369  0.0375 -0.1177
 5410W        W 9610   3.281  10.371   4.729 -0.2427  0.0450  0.0191
 5411W        W 9611   4.170   0.691   0.576 -0.0044  0.1562  0.1697
 5412W        W 9612   1.747   2.354  10.172 -0.2250 -0.2657  0.1200
 5413W        W 9613   1.609   8.997   1.571  0.2240 -0.0675 -0.2723
 5414W        W 9614   7.756   6.591  10.391  0.4312  0.1546  0.1824
 5415W        W 9615   3.172   7.279   0.752  0.0686  0.1049  0.0890
 5416W        W 9616   6.695  10.340   9.887 -0.0059 -0.1784 -0.1715
 5417W        W 9617   4.719   5.782   4.678  0.4407  0.1866 -0.0176
 5418W        W 9618   2.269   7.502  11.954  0.2719  0.0704  0.0396
 5419W        W 9619   7.321   3.086   2.067 -0.0533 -0.1114 -0.0730
 5420W        W 9620   5.625   4.556   5.099  0.2160 -0.0858  0.1393
 5421W        W 9621   0.436   8.721   9.492 -0.2746 -0.1531  0.2410
 5422W        W 9622   3.864   5.061   2.057 -0.0862 -0.1358  0.2049
 5423W        W 9623   2.473   0.620   3.256  0.0065  0.3287 -0.0225
 5424W        W 9624   2.375   0.932  11.829  0.1011 -0.1276 -0.1785
 5425W        W 9625   5.410   3.249   1.211 -0.1065 -0.1119  0.2008
 5426W        W 9626   7.389   7.636  13.170  0.2063  0.2535 -0.3210
 5427W        W 9627   0.278   0.071   2.984 -0.1277  0.0802 -0.2399
 5428W        W 9628   8.093   8.516   2.277 -0.1010  0.1139  0.1906
 5429W        W 9629   3.154  10.005  10.212 -0.0936  0.1381 -0.0476
 5430W        W 9630   7.901  10.321  11.342 -0.1684 -0.2393  0.2650
 5431W        W 9631   4.775   9.273  10.369  0.0700 -0.1043  0.2566
 5432W        W 9632   9.161   4.414   9.960 -0.0843  0.0901 -0.0695
 5433W        W 9633   8.368   8.647  10.342 -0.2273 -0.0300 -0.0299
 5434W        W 9634   4.091   8.793  12.255 -0.2729 -0.4968  0.2024
 5435W        W 9635   2.668   7.864   9.482  0.2267 -0.1182 -0.5095
 5436W        W 9636   2.770   1.144   4.334  0.0287  0.1673 -0.0902
 5437W        W 9637   1.910   6.474   9.100  0.1555 -0.2667 -0.0891
 5438W        W 9638   9.799   4.810  13.610  0.4250 -0.2403  0.3246
 5439W        W 9639   1.985   7.483   9.055  0.0524  0.2751  0.2182
 5440W        W 9640   2.802   4.268   2.858 -0.1981  0.2076  0.0768
 5441W        W 9641   4.063   4.750   8.981 -0.0660 -0.2124  0.1024
 5442W        W 9642   2.015   9.215   2.820  0.2228 -0.0028  0.1627
 5443W        W 9643   4.172   5.971   1.151  0.1874  0.1780 -0.0422
 5444W        W 9644   8.953   3.817   2.715  0.0329 -0.0795  0.2097
 5445W        W 9645   3.785   3.301   4.511 -0.0091 -0.0937  0.2811
 5446W        W 9646   3.525   6.655   4.459  0.0251 -0.2576  0.1660
 5447W        W 9647   5.449   5.770  12.300 -0.1940  0.2637 -0.1033
 5448W        W 9648   4.533   0.591   0.191 -0.1014  0.0633 -0.0628
 5449W        W 9649   1.644   0.043   0.263  0.1734  0.0953 -0.0591
 5450W        W 9650   2.029   8.539   9.145 -0.2454  0.2253  0.0467
 5451W        W 9651   6.273   4.053   4.524  0.1957 -0.2095  0.1333
 5452W        W 9652   1.961   7.726  12.796  0.1736  0.1007  0.2260
 5453W        W 9653   8.054   9.365   0.096  0.1114  0.5467 -0.0163
 5454W        W 9654   0.318   7.708   9.733 -0.1074  0.0695 -0.0034
 5455W        W 9655   5.212   0.447   1.372 -0.3020  0.2058 -0.0475
 5456W        W 9656   4.799   2.791  12.210 -0.1122 -0.0597  0.1369
 5457W        W 9657   6.737   5.645   3.457 -0.1626  0.3118 -0.1688
 5458W        W 9658   2.232   9.577   3.304  0.2834  0.1292 -0.1126
 5459W        W 9659   4.074   9.241   9.303 -0.0364 -0.0018  0.2373
 5460W        W 9660   9.173   6.411   9.966 -0.3963  0.3491  0.1289
 5461W        W 9661   6.857   6.762  13.472 -0.1236 -0.2202 -0.1578
 5462W        W 9662   3.536   2.737  13.383  0.0084  0.1328  0.1175
 5463W        W 9663   8.957   4.619   2.658  0.1702 -0.1031  0.0426
 5464W        W 9664   7.710   2.112  13.068  0.0333  0.2656  0.0581
 5465W        W 9665   1.743   8.651  11.743  0.0348 -0.1399  0.4344
 5466W        W 9666   3.344   9.700   2.287 -0.1573  0.2223 -0.0755
 5467W        W 9667   4.191   1.397   3.219  0.0999 -0.3197 -0.0555
 5468W        W 9668   3.818   3.778   4.459 -0.1191  0.2652  0.1002
 5469W        W 9669   3.397   2.846   2.256  0.1243 -0.0554 -0.1744
 5470W        W 9670   0.679   0.149   1.238 -0.3895  0.0710  0.0696
 5471W        W 9671   5.321   7.253  13.450  0.1607  0.2025 -0.2001
 5472W        W 9672   9.220   9.287   1.712  0.3309  0.3296  0.2076
 5473W        W 9673   8.268   3.222   2.596  0.2262 -0.0215 -0.1086
 5474W        W 9674   6.312   4.035   4.032  0.3202  0.3772 -0.0681
 5475W        W 9675   3.844   6.891  11.766  0.2655  0.1877  0.0299
 5476W        W 9676   6.265   8.607  11.702 -0.0637  0.1923 -0.0427
 5477W        W 9677   2.963   7.831   2.005  0.2825 -0.2617 -0.2733
 5478W        W 9678   7.570   4.735  11.214  0.0204  0.0757 -0.2019
 5479W        W 9679   5.270   3.284   3.347 -0.1690  0.4795 -0.0633
 5480W        W 9680   5.670   8.692   3.045  0.1589  0.1314  0.1636
 5481W        W 9681   3.437   7.807  11.031 -0.1363  0.0071 -0.1148
 5482W        W 9682   3.923   4.485   0.160 -0.2561  0.0438  0.0176
 5483W        W 9683   1.211   4.399   2.982  0.3736  0.1094 -0.2213
 5484W        W 9684   1.247   6.434  12.302  0.0772  0.3352 -0.1038
 5485W        W 9685   9.636   0.316   9.864 -0.2210  0.0216  0.1639
 5486W        W 9686   7.372  10.383   1.722 -0.0866 -0.1538  0.1809
 5487W        W 9687   4.978   5.041  11.065  0.4112  0.2251 -0.1777
 5488W        W 9688   7.264   1.010  12.776  0.1007  0.1614 -0.0129
 5489W        W 9689   4.597   8.460   2.224 -0.0601 -0.2760  0.0358
 5490W        W 9690   9.293   3.748   2.321 -0.0047 -0.0349 -0.0511
 5491W        W 9691   3.793   1.416   3.480  0.0468 -0.0494  0.1314
 5492W        W 9692   4.080   8.310   2.208  0.0793 -0.3121  0.0606
 5493W        W 9693   3.474   8.899  12.488 -0.1345 -0.2248 -0.0056
 5494W        W 9694   8.164   8.193  10.142  0.2561 -0.1697 -0.2970
 5495W        W 9695   5.072   6.363   1.587 -0.0448 -0.0617 -0.2011
 5496W        W 9696   0.680   2.701   2.574  0.0575  0.0188 -0.1311
 5497W        W 9697   2.834   3.610  10.826 -0.1710 -0.3613  0.1076
 5498W        W 9698   8.416   0.907  11.304  0.1508 -0.0106  0.0698
 5499W        W 9699   3.132   4.295  12.509  0.1339  0.1437 -0.3432
 5500W        W 9700   1.107   9.104   8.474 -0.3905 -0.0885  0.3726
 5501W        W 9701   0.239   7.372   5.219 -0.0581 -0.1307 -0.1168
 5502W        W 9702   6.163   7.803   2.616  0.0130  0.1976 -0.1700
 5503W        W 9703   6.260   3.571   0.018 -0.2137 -0.1661  0.1075
 5504W        W 9704   9.259   5.405   3.935  0.2104 -0.1013  0.0764
 5505W        W 9705   2.158  10.049   3.591 -0.2126  0.0360  0.0138
 5506W        W 9706   2.678   7.465  12.239 -0.0870 -0.1715 -0.0992
 5507W        W 9707   0.656  10.120   2.866 -0.3699 -0.0985 -0.0081
 5508W        W 9708   2.931   5.598   4.327 -0.0362  0.2555 -0.2345
 5509W        W 9709   6.583   2.766   2.111  0.1144 -0.1958  0.0365
 5510W        W 9710   8.260   9.990   1.957 -0.1918 -0.0853 -0.0099
 5511W        W 9711   4.335   9.912  11.302 -0.1672  0.1965  0.0249
 5512W        W 9712   5.070   6.098  11.411 -0.1400  0.3805 -0.1404
 5513W        W 9713   9.312   9.887   2.919 -0.0678 -0.2976  0.0755
 5514W        W 9714  10.044   9.025   1.680 -0.2955 -0.1038 -0.2099
 5515W        W 9715   1.604   7.753   3.176  0.0614 -0.0265  0.0294
 5516W        W 9716   9.770   6.689   0.505  0.4718  0.1114 -0.0242
 5517W        W 9717   7.515   7.727   9.493 -0.0371  0.1539  0.2899
 5518W        W 9718   4.798   5.415   3.049  0.2398  0.0867 -0.2694
 5519W        W 9719   3.830   1.921   0.962  0.0982 -0.0825  0.3058
 5520W        W 9720   8.761   4.443   5.426  0.0045 -0.0276  0.0145
 5521W        W 9721   1.155   9.929  10.113 -0.2795  0.1197 -0.1466
 5522W        W 9722   9.715   9.871   1.927 -0.4094 -0.0062  0.1083
 5523W        W 9723   4.977   3.981   3.732 -0.0481  0.1845 -0.2822
 5524W        W 9724   7.492   6.068   3.406  0.1467  0.1700 -0.0344
 5525W        W 9725   8.020   8.391  11.246 -0.0692  0.1652 -0.3193
 5526W        W 9726   3.610   7.592   1.032  0.2864  0.0341 -0.1791
 5527W        W 9727   0.688   2.956   8.421  0.2321  0.0511 -0.0725
 5528W        W 9728   7.367   2.835   0.009  0.2279 -0.0801  0.0343
 5529W        W 9729   8.683   5.283  10.284 -0.0909  0.0480  0.0532
 5530W        W 9730   0.549   6.839  10.577  0.0427  0.1321  0.1507
 5531W        W 9731   7.303   2.953  13.196 -0.0772 -0.1517 -0.0217
 5532W        W 9732   9.967   5.202  12.587  0.1769  0.0449 -0.2162
 5533W        W 9733   1.550   5.339   9.585 -0.0153 -0.1300 -0.2356
 5534W        W 9734   0.081   6.027   0.814  0.0393  0.0008 -0.1590
 5535W        W 9735   9.956   2.924   2.478  0.2543  0.0402  0.1999
 5536W        W 9736   6.154   4.417   3.732 -0.1970 -0.2810 -0.0912
 5537W        W 9737   1.873   5.296   8.836  0.0040  0.1212 -0.1232
 5538W        W 9738   6.487   0.554   1.077  0.0079 -0.1207  0.3187
 5539W        W 9739   7.754   7.101  11.186  0.3235 -0.0491 -0.1475
 5540W        W 9740   3.362   1.565   8.785  0.1927  0.3067 -0.0127
 5541W        W 9741  10.062   1.451   9.143 -0.2553  0.3010 -0.0456
 5542W        W 9742   6.533   5.689   9.172  0.1518  0.0155  0.0203
 5543W        W 9743   0.205   9.107  13.359  0.1470  0.1314  0.0713
 5544W        W 9744   6.936   4.337   5.006  0.2337  0.1098  0.0132
 5545W        W 9745   0.009   4.849   0.712  0.0456 -0.2518  0.3443
 5546W        W 9746   7.044   9.507  13.648  0.0615 -0.3087 -0.0112
 5547W        W 9747   8.324   2.787   0.932 -0.0848  0.0248 -0.1121
 5548W        W 9748   9.605  10.056  11.766  0.1191 -0.1637  0.2464
 5549W        W 9749   5.942   4.475  10.408  0.0148  0.1070 -0.0660
 5550W        W 9750  10.029  10.331  10.828  0.0368 -0.1392  0.2306
 5551W        W 9751   7.470   7.886   2.067  0.0028  0.0752  0.2333
 5552W        W 9752   1.004   9.436  10.601 -0.1214 -0.2370 -0.2251
 5553W        W 9753   2.579   3.101   4.674 -0.1950 -0.0010  0.1585
 5554W        W 9754   4.056   3.017  12.887 -0.0200  0.3752 -0.0178
 5555W        W 9755   2.301   3.262  13.610 -0.0301 -0.0907 -0.0521
 5556W        W 9756   2.909   3.451   9.530 -0.2489  0.3087  0.2130
 5557W        W 9757   0.303   5.017   3.824 -0.0857  0.0180  0.2396
 5558W        W 9758   9.115   1.563   0.570  0.2547 -0.0992 -0.0294
 5559W        W 9759  10.234   7.275   3.277  0.0787  0.2762 -0.0947
 5560W        W 9760   1.975   3.570   1.291  0.0260  0.2520  0.0669
 5561W        W 9761   3.985   7.313   3.321 -0.1867 -0.2204  0.1892
 5562W        W 9762   9.846   6.159   1.623  0.1151  0.0999 -0.2638
 5563W        W 9763   0.553   0.432  13.391 -0.0820 -0.2061 -0.0523
 5564W        W 9764   0.430   2.143  10.971 -0.0072 -0.1342  0.3041
 5565W        W 9765   2.575   1.927  12.613  0.0764 -0.0366  0.1987
 5566W        W 9766   8.481   9.937   2.416 -0.0164  0.0220  0.0591
 5567W        W 9767   6.756   0.789   0.535 -0.0238  0.2030 -0.3387
 5568W        W 9768   4.711   7.664   2.449 -0.2088 -0.1158  0.0488
 5569W        W 9769   9.667   5.296   0.692 -0.0191 -0.2416 -0.1087
 5570W        W 9770   0.897   5.949  12.447 -0.0706 -0.1326  0.0744
 5571W        W 9771   9.013   7.955   9.233  0.1660  0.3000 -0.2289
 5572W        W 9772   8.840   1.648   0.091  0.0131 -0.2253 -0.0810
 5573W        W 9773   0.335   4.626  12.141  0.2651  0.3479  0.1583
 5574W        W 9774   2.088   0.344   4.570  0.1477  0.0154  0.0689
 5575W        W 9775   2.954   1.559   2.091 -0.3762  0.0148 -0.0147
 5576W        W 9776   8.907   4.567   0.727 -0.1140 -0.0144  0.1289
 5577W        W 9777   5.044   7.889  11.832 -0.2008  0.0756  0.1675
 5578W        W 9778   5.997   4.364  11.452 -0.1492 -0.1001  0.3423
 5579W        W 9779   5.310   5.054   2.769  0.2224  0.1209  0.1319
 5580W        W 9780   3.029   9.547  13.158  0.2300  0.3392  0.3393
 5581W        W 9781   5.384   3.884   4.114 -0.0864  0.0682 -0.2107
 5582W        W 9782   2.023   8.560   3.586  0.1720 -0.3284  0.2843
 5583W        W 9783   0.137   8.036  13.642  0.3805  0.4989  0.0774
 5584W        W 9784   7.081   6.237  13.502 -0.0229 -0.0506  0.2569
 5585W        W 9785   4.674   8.304  13.415 -0.3276 -0.0719  0.4710
 5586W        W 9786   1.791   2.927  13.044 -0.0803 -0.0939 -0.2643
 5587W        W 9787  10.350   9.977  13.130 -0.1770 -0.0591 -0.1564
 5588W        W 9788   3.641   6.332   2.432  0.1683 -0.1249  0.1206
 5589W        W 9789   1.184   1.495   2.201 -0.2703 -0.0472 -0.0194
 5590W        W 9790   6.774   0.531  11.946  0.0418 -0.1836 -0.1031
 5591W        W 9791   8.099   2.639   0.528  0.1439  0.1418  0.2612
 5592W        W 9792   2.931   9.054  12.419  0.0473  0.2401 -0.0276
 5593W        W 9793   2.904   8.402   1.785  0.3600 -0.0744  0.0061
 5594W        W 9794   8.610   6.917   2.887  0.1244 -0.0399  0.1463
 5595W        W 9795   3.870   9.331   1.137  0.2256 -0.3514 -0.1656
 5596W        W 9796   6.057   6.205  12.232  0.3086  0.0502  0.0161
 5597W        W 9797   6.383   0.131   2.297  0.2366 -0.2976 -0.2764
 5598W        W 9798   4.476   5.478   9.380  0.2956  0.1219 -0.0532
 5599W        W 9799   5.302   2.208  10.819 -0.1683  0.1803 -0.0181
 5600W        W 9800   7.430   7.257   1.231 -0.1032  0.1657 -0.1172
 5601W        W 9801   8.790   3.761   2.144 -0.3073 -0.1767 -0.5319
 5602W        W 9802   2.990   0.175   8.784 -0.2417 -0.0902 -0.0790
 5603W        W 9803   9.194   3.489  11.945 -0.2241  0.0814 -0.0676
 5604W        W 9804   7.668   3.567   3.795 -0.1729  0.1348  0.1106
 5605W        W 9805   1.823   0.536  10.567  0.4173 -0.0013 -0.5203
 5606W        W 9806   0.327   2.733  11.727  0.0692  0.1709 -0.0518
 5607W        W 9807   8.360   3.777   4.371 -0.1835  0.3598 -0.0292
 5608W        W 9808   2.177   0.159   2.886 -0.0636 -0.1866  0.0306
 5609W        W 9809   6.916   5.695   4.280  0.1103  0.0386  0.0355
 5610W        W 9810   5.851   1.575  12.347  0.1398 -0.1462 -0.2354
 5611W        W 9811   8.222   5.143  12.469  0.2896  0.0526 -0.1438
 5612W        W 9812  10.390   0.012  12.836 -0.0593  0.2128  0.0263
 5613W        W 9813   1.505   4.025   0.008  0.0620 -0.0839 -0.0242
 5614W        W 9814   2.737   2.449  11.674 -0.0204 -0.3598 -0.1688
 5615W        W 9815   7.554   1.850  13.436  0.3445 -0.1289  0.1706
 5616W        W 9816   7.811   4.944   2.388  0.2826  0.2174 -0.0152
 5617W        W 9817   1.213   7.529  10.883  0.0654  0.1349  0.1143
 5618W        W 9818   4.798   6.788  12.237 -0.1395 -0.1021  0.2501
 5619W        W 9819   2.112   3.016   2.714 -0.2713 -0.0329 -0.0520
 5620W        W 9820   3.475   0.642   3.324 -0.0416  0.4840  0.1081
 5621W        W 9821   1.187   8.396   0.003 -0.1019  0.0080  0.0260
 5622W        W 9822   7.313   3.169   4.048  0.2204 -0.0035 -0.1297
 5623W        W 9823   0.389   5.606  11.153 -0.0722 -0.2122  0.1537
 5624W        W 9824   9.245   3.986  11.851 -0.1320  0.3285 -0.1643
 5625W        W 9825   7.747   4.967   4.776 -0.2366 -0.0998  0.2463
 5626W        W 9826   8.720   2.542   9.538 -0.0006  0.0378  0.1971
 5627W        W 9827   6.166   2.901   2.853  0.0005 -0.1728 -0.1851
 5628W        W 9828   9.516   6.444   9.583  0.2931  0.0593 -0.0781
 5629W        W 9829   0.090   9.349   1.705  0.2389  0.1057  0.2833
 5630W        W 9830   0.411   7.419  10.517 -0.0188  0.2551 -0.0910
 5631W        W 9831   0.230   7.951   0.520  0.0745  0.3750 -0.3300
 5632W        W 9832   8.110   9.021  10.537 -0.1299 -0.1981  0.0557
 5633W        W 9833   2.582   1.042  10.382 -0.2765 -0.0932 -0.2292
 5634W        W 9834   6.678   5.951  12.271  0.1241  0.2843  0.2558
 5635W        W 9835   2.345   3.360  11.686  0.1239  0.1066 -0.1427
 5636W        W 9836   4.451   7.549  12.757  0.0034 -0.0295 -0.2690
 5637W        W 9837   3.753   9.298  10.650  0.3390 -0.1384  0.1977
 5638W        W 9838   4.872  10.333   3.033  0.2174 -0.0509 -0.0883
 5639W        W 9839   3.214   6.848   3.212  0.4318  0.0256 -0.0591
 5640W        W 9840   5.798   3.239   1.698 -0.0446  0.0593  0.0683
 5641W        W 9841   9.750   5.997   2.915 -0.0367  0.2428  0.0676
 5642W        W 9842   3.658   8.113   9.704  0.2167 -0.1372  0.1933
 5643W        W 9843   5.466   0.896  12.755 -0.0886  0.0663 -0.4208
 5644W        W 9844   0.870   2.446  12.921 -0.1119 -0.2816 -0.3097
 5645W        W 9845   2.621   2.830  13.611 -0.0155  0.0197 -0.3348
 5646W        W 9846   1.772   8.353   2.112  0.0065 -0.0752 -0.2531
 5647W        W 9847   0.083   5.657  12.145  0.1260  0.1636 -0.3500
 5648W        W 9848   0.644   3.245   1.600 -0.2352  0.0847 -0.1391
 5649W        W 9849   0.650   5.872   1.442 -0.1141  0.1908  0.0165
 5650W        W 9850   5.325   7.751   1.177 -0.1682 -0.0224 -0.4360
 5651W        W 9851   7.788   0.233   3.769 -0.0640  0.0749  0.1896
 5652W        W 9852   5.283   9.603  13.116  0.0982  0.1619 -0.1675
 5653W        W 9853   3.613   2.181  13.223 -0.0201 -0.1120  0.0864
 5654W        W 9854   8.788   2.876   1.799  0.0429  0.0727  0.0872
 5655W        W 9855   5.722   7.405  11.559 -0.2851 -0.0812 -0.1969
 5656W        W 9856   9.645   9.250   3.824 -0.0994 -0.0049  0.1042
 5657W        W 9857  10.322   0.841   2.328 -0.3153 -0.2148  0.0401
 5658W        W 9858   0.970   2.518  11.127 -0.2224  0.2211 -0.2728
 5659W        W 9859   6.768   5.940   3.858  0.2877  0.1225 -0.0609
 5660W        W 9860   9.418   6.942  12.868  0.0428  0.3357 -0.0776
 5661W        W 9861   3.096   1.469   0.770 -0.1614 -0.2546 -0.1158
 5662W        W 9862   6.494   2.585   2.632 -0.3464  0.1760 -0.0355
 5663W        W 9863   9.581   5.931  12.163  0.1326 -0.0581 -0.4673
 5664W        W 9864   5.215   6.382   4.450  0.2071  0.0491  0.0346
 5665W        W 9865   1.808  10.153  10.034 -0.1764 -0.0192  0.0858
 5666W        W 9866   3.362   5.186   2.388  0.1884  0.1990 -0.2666
 5667W        W 9867   4.492   8.721   1.331 -0.0821 -0.0540 -0.0461
 5668W        W 9868   4.681   5.223  13.047  0.3411  0.2137 -0.1074
 5669W        W 9869   9.671   2.206   3.360  0.1318  0.0198  0.1138
 5670W        W 9870   6.042  10.191  10.066 -0.1952 -0.3629  0.1065
 5671W        W 9871   2.002   5.873  11.273 -0.2487 -0.2821  0.0164
 5672W        W 9872   8.353   0.040   1.730 -0.1772  0.0685 -0.1991
 5673W        W 9873   9.031   4.667   3.781 -0.0721 -0.0637  0.1146
 5674W        W 9874   8.768   9.773  11.134  0.1897 -0.1190  0.1896
 5675W        W 9875   5.502   0.326   9.843 -0.1878 -0.0639 -0.4679
 5676W        W 9876   2.892   2.762   0.375  0.4892 -0.2029  0.0512
 5677W        W 9877  10.109  10.266  11.781 -0.2531 -0.2755 -0.0277
 5678W        W 9878   1.901   5.518   4.349 -0.1070 -0.1562  0.0365
 5679W        W 9879   6.068   1.553  11.843 -0.1436 -0.3652  0.3344
 5680W        W 9880  10.218   3.782   2.177  0.3954  0.1362  0.0596
 5681W        W 9881   7.899   0.545   0.869 -0.1574  0.0589 -0.0937
 5682W        W 9882   8.634   2.407   1.510 -0.1504 -0.1623 -0.1000
 5683W        W 9883   7.463   0.989  10.136  0.1446  0.0316  0.0126
 5684W        W 9884   7.571   4.649  10.740 -0.0627 -0.1460  0.0733
 5685W        W 9885   8.014   1.878   2.146  0.0702  0.3059 -0.0134
 5686W        W 9886   7.457   3.712  11.341  0.0057  0.1151  0.0239
 5687W        W 9887   6.952   4.631   9.580  0.0201 -0.0448  0.2531
 5688W        W 9888   4.095   6.659  10.788 -0.2908 -0.3394  0.4007
 5689W        W 9889   0.484   9.407   0.122  0.3251 -0.1412  0.0825
 5690W        W 9890   6.902   6.511   3.007  0.2197  0.1868 -0.1477
 5691W        W 9891   4.727   0.809   3.992  0.0314  0.0826  0.1163
 5692W        W 9892   5.448   1.841   9.859 -0.3073 -0.2120  0.1529
 5693W        W 9893   5.725   8.960   9.413  0.4394 -0.3726  0.2674
 5694W        W 9894   9.286   2.579  12.368  0.0242  0.2840  0.0792
 5695W        W 9895   5.642   3.052   4.817 -0.0245 -0.0620 -0.3556
 5696W        W 9896   5.271   1.895  11.272  0.3325  0.1905 -0.1510
 5697W        W 9897   9.076   6.940   1.520 -0.0713  0.3766 -0.3709
 5698W        W 9898   4.642   7.321  12.276 -0.2434 -0.1439 -0.0389
 5699W        W 9899   9.561   7.800   2.627  0.3771  0.1268 -0.0373
 5700W        W 9900   4.723   4.985   4.018 -0.1505 -0.0073 -0.1344
 5701W        W 9901   4.241   0.468   2.352 -0.0745 -0.2346 -0.1759
 5702W        W 9902  10.235   3.957  13.216  0.0283 -0.2462 -0.0273
 5703W        W 9903   1.433   9.053  10.156  0.1579 -0.0987 -0.3054
 5704W        W 9904   4.414   8.357  10.830  0.2205  0.0974  0.0143
 5705W        W 9905   0.892   4.578  11.216 -0.3799 -0.0731 -0.0924
 5706W        W 9906   7.477   1.639   1.041 -0.0191  0.2781  0.0214
 5707W        W 9907   3.321   7.979   4.139  0.2638 -0.0194  0.0204
 5708W        W 9908   5.840   8.852   2.163 -0.2443  0.0948  0.0062
 5709W        W 9909   4.650   0.730   9.560  0.1895 -0.2222  0.1820
 5710W        W 9910   3.704   6.093  11.880  0.1765 -0.0887 -0.1649
 5711W        W 9911   6.553   3.416   9.751  0.1645  0.1553  0.1835
 5712W        W 9912   7.054   5.821  10.800  0.3351 -0.0332 -0.0326
 5713W        W 9913   2.463   2.282   8.543  0.1174 -0.4346  0.1317
 5714W        W 9914   2.591   6.628   9.286  0.0198  0.1239 -0.0531
 5715W        W 9915   4.669   9.007   9.584 -0.1281 -0.0494  0.0940
 5716W        W 9916   2.509   8.141   3.506 -0.0889  0.0395 -0.0819
 5717W        W 9917   7.014   5.420   0.724  0.0101  0.0061  0.1283
 5718W        W 9918   3.340   7.405   8.475  0.2509  0.1133 -0.1329
 5719W        W 9919   7.162   1.626  12.940 -0.0429  0.0659 -0.1340
 5720W        W 9920   2.354   2.779  13.189  0.3579  0.0548 -0.1688
 5721W        W 9921   6.838   0.101   0.993 -0.3173  0.2925  0.0813
 5722W        W 9922   4.316   9.211  10.533  0.1446 -0.0137  0.2462
 5723W        W 9923   1.605   6.208  11.467  0.1555 -0.0472 -0.1594
 5724W        W 9924   8.429   0.729  11.781 -0.0529 -0.1980  0.0728
 5725W        W 9925   9.293   4.151   3.642 -0.1380  0.0368 -0.0381
 5726W        W 9926   6.798   1.788  12.649 -0.0546 -0.1712 -0.1932
 5727W        W 9927   2.679   5.109   9.932 -0.1199  0.0171 -0.1057
 5728W        W 9928   1.945   3.787   3.138 -0.0915  0.0590  0.4546
 5729W        W 9929   9.682   8.344   0.579 -0.4081 -0.0109  0.1900
 5730W        W 9930   8.604   1.114   2.111 -0.1640 -0.1237  0.3343
 5731W        W 9931   4.417   2.368  12.277 -0.2000 -0.0140 -0.1392
 5732W        W 9932   8.026   6.159  10.401 -0.0922  0.0232  0.1569
 5733W        W 9933   3.695  10.289  12.081 -0.0674 -0.2860 -0.1302
 5734W        W 9934   3.242   6.563   5.063  0.1241 -0.1570 -0.1384
 5735W        W 9935   9.924   1.260   9.612 -0.0719  0.0804  0.0334
 5736W        W 9936   6.669   6.780  11.482 -0.0212  0.0988  0.3732
 5737W        W 9937   6.521   1.173   2.799  0.1899  0.0393  0.2859
 5738W        W 9938  10.101   8.057  11.056 -0.2092 -0.5059 -0.0752
 5739W        W 9939   1.962   5.048  12.973 -0.0828 -0.0639  0.0173
 5740W        W 9940   8.569   9.964  12.744 -0.1092 -0.3391  0.1465
 5741W        W 9941   8.753   2.789  12.388  0.1002 -0.0923  0.1674
 5742W        W 9942   9.549   3.502   3.332 -0.1242 -0.0262  0.0019
 5743W        W 9943   2.768   9.043  10.277  0.3414  0.0122  0.1651
 5744W        W 9944  10.075   2.563   9.875  0.0360 -0.2759 -0.0619
 5745W        W 9945   6.198   4.366   2.471  0.0965  0.0830  0.0114
 5746W        W 9946   1.382   6.011   3.425 -0.1156 -0.2463  0.0411
 5747W        W 9947   6.586   7.353  11.163  0.1396  0.2005  0.0388
 5748W        W 9948   7.780   1.031  12.766 -0.0609  0.2595 -0.0690
 5749W        W 9949   0.398   7.152   4.474 -0.0678 -0.3979  0.2449
 5750W        W 9950   1.217   8.848   3.901 -0.2119  0.1931  0.2559
 5751W        W 9951   1.388   3.794   0.905  0.2355  0.0002  0.0404
 5752W        W 9952   9.986   0.956  13.463 -0.0899  0.1039  0.2087
 5753W        W 9953   7.814   5.410   0.579 -0.0538  0.2174  0.0011
 5754W        W 9954   4.671   9.175   1.101  0.0114 -0.2782 -0.1738
 5755W        W 9955   3.298   6.805  12.603  0.1229  0.0459  0.1818
 5756W        W 9956   5.758   4.606  13.093  0.0259  0.0315 -0.0223
 5757W        W 9957   1.249   3.044  10.361 -0.0715 -0.1036  0.1024
 5758W        W 9958   0.656   6.057  11.003  0.1226 -0.0144 -0.1085
 5759W        W 9959   2.302   7.699   9.935 -0.2877  0.1041  0.0991
 5760W        W 9960   2.972   2.339   9.810  0.1387  0.1042  0.0384
 5761W        W 9961   2.522   5.904   2.878 -0.1608  0.1631  0.0075
 5762W        W 9962   9.318   3.045  12.217  0.1230  0.4462 -0.3744
 5763W        W 9963   4.756   6.053  11.835 -0.1605  0.0560 -0.1621
 5764W        W 9964   1.929   6.212  10.122 -0.4011 -0.1018 -0.1436
 5765W        W 9965   3.069   1.921  12.894 -0.1605 -0.0068  0.1237
 5766W        W 9966   5.939   1.800   1.649 -0.1769 -0.1553 -0.0767
 5767W        W 9967   1.568   1.271   0.148 -0.0375  0.2152 -0.1955
 5768W        W 9968   8.946   0.484  12.306 -0.0692 -0.3103 -0.2161
 5769W        W 9969   9.418   3.436  10.024  0.1226 -0.4046 -0.1673
 5770W        W 9970   8.742   5.781  10.416 -0.1695  0.2865 -0.0034
 5771W        W 9971   6.906   0.175  11.680 -0.1120  0.0217 -0.0029
 5772W        W 9972   3.345   5.737  12.535  0.0381  0.2384 -0.0288
 5773W        W 9973   4.181   2.486   3.137 -0.1598  0.0663 -0.2436
 5774W        W 9974   6.182   9.490  12.577 -0.0173 -0.2168 -0.0968
 5775W        W 9975   2.897   0.767  10.108  0.1253 -0.0304  0.3039
 5776W        W 9976   4.027   9.152   2.017 -0.1453 -0.2318 -0.0912
 5777W        W 9977   9.708   9.100  12.063  0.1954  0.0596 -0.1381
 5778W        W 9978   2.256   1.029  11.339 -0.1384 -0.1517 -0.0772
 5779W        W 9979   1.388   7.098   4.365 -0.1545 -0.3293 -0.0066
 5780W        W 9980   9.152   1.885   2.848  0.0282  0.2800  0.0363
 5781W        W 9981   1.724   3.243  12.708  0.2166 -0.0230 -0.1102
 5782W        W 9982   2.539   0.542  12.428  0.3124 -0.0623 -0.0145
 5783W        W 9983   6.621   2.379   1.707 -0.3100  0.0117 -0.0396
 5784W        W 9984   4.166   3.834  11.659 -0.3923  0.0734 -0.1455
 5785W        W 9985   8.600   2.040  12.986 -0.0439 -0.1099  0.1326
 5786W        W 9986   3.011   4.080   2.375 -0.0913  0.1606  0.0066
 5787W        W 9987   9.936   9.120  10.581 -0.0389 -0.0995  0.0520
 5788W        W 9988   6.997   0.804  13.274 -0.0085 -0.0560 -0.0662
 5789W        W 9989   8.545   3.687   0.345 -0.3349  0.4830 -0.1774
 5790W        W 9990   8.008   3.120  10.088 -0.0819  0.1098  0.2369
 5791W        W 9991   3.258   3.288   2.938 -0.0198  0.0851  0.0593
 5792W        W 9992   2.470   0.212   0.610  0.0735 -0.4682 -0.3827
 5793W        W 9993   7.372   3.828   0.918  0.0753  0.1555  0.2823
 5794W        W 9994   9.496   9.381  11.292  0.1254 -0.0316  0.3750
 5795W        W 9995   1.401   7.057   2.486 -0.0134 -0.0126 -0.0990
 5796W        W 9996   6.052   5.480   9.636  0.2016 -0.0294 -0.1336
 5797W        W 9997   1.753   1.051   3.449 -0.0053  0.1203  0.0743
 5798W        W 9998   5.111   5.177   2.333 -0.2345  0.0868  0.3245
 5799W        W 9999   1.588   5.071  10.847 -0.1164  0.0295  0.1223
 5800W        W10000   2.577   3.878  12.477 -0.0350  0.1186 -0.0918
 5801W        W10001   1.864  10.116   2.695  0.0306 -0.0449 -0.0059
 5802W        W10002   5.190   5.165   3.187 -0.2244  0.0563 -0.1852
 5803W        W10003   5.367   4.895   0.158 -0.1086  0.0041  0.2256
 5804W        W10004   3.367   1.036  13.639  0.6097 -0.1515  0.3833
 5805W        W10005   4.511   5.645   3.408  0.1059  0.0336  0.3301
 5806W        W10006   2.073   3.808   5.722 -0.1082  0.2485 -0.2050
 5807W        W10007   7.515   3.264   4.480  0.5334  0.1303  0.0635
 5808W        W10008   9.538   3.119   2.323  0.1202 -0.0486  0.1159
 5809W        W10009  10.077   0.277   3.527 -0.1306 -0.0566  0.0485
 5810W        W10010   8.437   8.395   1.097  0.0474  0.3631  0.0403
 5811W        W10011   3.020   6.994   1.971 -0.0795  0.0609  0.2134
 5812W        W10012   5.545   3.622   2.152  0.0464 -0.2019  0.1263
 5813W        W10013   4.634   9.014   3.674 -0.0822  0.1398 -0.0589
 5814W        W10014   2.722   8.268   2.331  0.0714 -0.0577 -0.1028
 5815W        W10015   8.768   5.053   9.450  0.0486 -0.2343 -0.2865
 5816W        W10016   1.383   3.055   0.396 -0.0082  0.3665 -0.0184
 5817W        W10017   3.951   2.656   1.734  0.2684 -0.0802 -0.1515
 5818W        W10018   2.177   1.599  11.224 -0.3064  0.0482 -0.0146
 5819W        W10019  10.112   6.161   0.521  0.3417  0.0482 -0.1029
 5820W        W10020  10.220   4.719   0.141 -0.1838  0.1862 -0.0349
 5821W        W10021  10.220   8.669   3.297 -0.2530 -0.0586  0.3359
 5822W        W10022   2.933   1.509  13.167 -0.0883  0.0234  0.0998
 5823W        W10023   6.257   9.590   2.918  0.0795 -0.1192 -0.3267
 5824W        W10024   6.321   6.608  13.410  0.1293 -0.1525  0.1660
 5825W        W10025   5.215   8.453   0.547 -0.2986  0.4422 -0.4146
 5826W        W10026   9.781   4.285  12.728  0.2444 -0.0286  0.0670
 5827W        W10027   6.508   9.274   1.331 -0.2803  0.2173 -0.0160
 5828W        W10028   2.221   8.842   9.552  0.0815  0.3299 -0.2762
 5829W        W10029   6.340   6.867   3.616  0.0397  0.2182  0.3293
 5830W        W10030   5.000   0.833  13.029 -0.0836 -0.0157 -0.0924
 5831W        W10031   0.021   8.856   2.016  0.3756  0.0311  0.1408
 5832W        W10032   7.514   5.317   3.013 -0.1023  0.1058 -0.1092
 5833W        W10033   1.355   3.273   3.648 -0.0510 -0.2121  0.3436
 5834W        W10034   7.024   8.568   9.866  0.1898  0.2037  0.0682
 5835W        W10035   3.502   4.120   9.763  0.0980 -0.0744 -0.3928
 5836W        W10036   5.668   4.080  13.288 -0.2316  0.1034 -0.2141
 5837W        W10037   7.833   2.599   0.986 -0.0449  0.0115 -0.0915
 5838W        W10038   8.025   3.403  10.580 -0.0458 -0.3570  0.2306
 5839W        W10039   2.558   5.607   0.481  0.0176 -0.0179  0.1209
 5840W        W10040   9.510   3.811  10.387 -0.1947  0.0462  0.1437
 5841W        W10041   0.934   9.059   9.671 -0.3281  0.0640 -0.0257
 5842W        W10042   0.044   8.961   9.905 -0.0324  0.2686 -0.2661
 5843W        W10043   7.205   8.607  12.443 -0.2905 -0.4902 -0.3584
 5844W        W10044   9.581   4.320   1.726  0.0592 -0.0588  0.0849
 5845W        W10045   7.980   4.538   4.635 -0.0899  0.0353 -0.2122
 5846W        W10046   9.738   8.017  11.601  0.2616 -0.0484  0.2195
 5847W        W10047   6.650   3.301   9.223 -0.3336  0.1211 -0.1120
 5848W        W10048   4.970   9.915   1.479  0.1559 -0.5527  0.1577
 5849W        W10049   7.067   3.219  10.512  0.0119  0.0610 -0.0284
 5850W        W10050   5.379   3.235  13.231  0.1460 -0.1046  0.3166
 5851W        W10051   9.860   8.590  12.003  0.0894  0.0999 -0.1979
 5852W        W10052   9.446  10.282  13.547  0.0983 -0.3414 -0.4189
 5853W        W10053   9.469   0.357   0.027 -0.3083 -0.1957 -0.1256
 5854W        W10054   2.253   0.089  10.077  0.1091 -0.1920  0.1816
 5855W        W10055   0.997   2.022   0.412  0.0001  0.1385 -0.1408
 5856W        W10056   9.178   8.707  13.269  0.2601 -0.2717 -0.3196
 5857W        W10057   1.856   8.262  11.022  0.0480 -0.0955 -0.0642
 5858W        W10058   8.434   9.097   0.304 -0.2882  0.1262  0.0972
 5859W        W10059   1.811   4.961   4.634  0.3217 -0.1655 -0.1666
 5860W        W10060   8.990   4.599   3.251  0.2181 -0.0796  0.3154
 5861W        W10061   1.125  10.396   1.443 -0.0801 -0.1450  0.1537
 5862W        W10062   8.374   6.922  13.359  0.0682  0.1008  0.2735
 5863W        W10063   8.688   5.378   1.457  0.0004  0.1520  0.2749
 5864W        W10064   1.563   6.030   3.927 -0.2115  0.1652 -0.0484
 5865W        W10065   0.673   5.042   4.697  0.0215 -0.1633 -0.2369
 5866W        W10066   1.198   6.084  10.836 -0.0403  0.0458  0.3004
 5867W        W10067   7.890   7.610  12.417 -0.0412  0.1603 -0.1526
 5868W        W10068   7.661   9.733   1.158  0.0440 -0.2871 -0.1489
 5869W        W10069   9.804  10.148  11.348 -0.2385  0.2136  0.1330
 5870W        W10070   9.791   6.661  13.139  0.0274  0.2480 -0.1341
 5871W        W10071   6.311   6.628  11.773  0.0110  0.0119 -0.1171
 5872W        W10072   2.033   8.080   3.733  0.0944 -0.0730 -0.1626
 5873W        W10073   1.115   0.736   3.849 -0.0956 -0.2648 -0.1753
 5874W        W10074   5.313   8.273   1.031 -0.1899 -0.0045 -0.2612
 5875W        W10075   4.667   6.449  11.420 -0.1922  0.1714  0.0886
 5876W        W10076   6.263   2.706   9.425 -0.1999 -0.0169 -0.1015
 5877W        W10077   4.980   0.782   0.198  0.1290 -0.3288 -0.0529
 5878W        W10078   0.450   5.553   3.043  0.2073 -0.0245 -0.1173
 5879W        W10079   4.883   6.201  10.947 -0.2602 -0.0551  0.0946
 5880W        W10080   7.460   7.919  13.592 -0.1904  0.0253  0.1278
 5881W        W10081   6.397   6.230   4.316 -0.0348 -0.1326  0.1467
 5882W        W10082   4.129   5.229  13.417 -0.4842 -0.3693 -0.1090
 5883W        W10083   8.407   1.039  10.157 -0.1317 -0.0917 -0.1308
 5884W        W10084   6.418   9.941   2.448  0.0641 -0.3022  0.1150
 5885W        W10085   1.712   5.505  11.251 -0.1620 -0.0371  0.0170
 5886W        W10086   8.573  10.324   2.698 -0.1124  0.3785  0.0063
 5887W        W10087   5.841   4.205   2.786  0.3490 -0.1551  0.2908
 5888W        W10088   8.028   8.931   2.958  0.4597 -0.0016 -0.2380
 5889W        W10089   5.717   0.392   2.734  0.0531 -0.1951 -0.3026
 5890W        W10090   4.577   1.700   4.143  0.0611  0.1906 -0.2369
 5891W        W10091   3.932   4.798   4.090  0.1217  0.1803  0.2284
 5892W        W10092   5.429   6.203  12.651  0.3540  0.0499 -0.0628
 5893W        W10093   9.992   7.155  10.781  0.1474  0.1596 -0.1447
 5894W        W10094   4.463   6.249   9.907  0.1954 -0.0597  0.0520
 5895W        W10095   1.820   3.092   9.714 -0.1312 -0.1932 -0.1236
 5896W        W10096   9.088   4.433   4.782 -0.2836  0.1000  0.0666
 5897W        W10097   2.172   2.190  12.457 -0.1513  0.5942  0.0743
 5898W        W10098   3.795   3.504   2.267 -0.0386  0.0880 -0.1777
 5899W        W10099   6.388   3.662   2.377 -0.1391 -0.1595  0.0114
 5900W        W10100   4.184   6.511   2.603 -0.1411  0.2386  0.1649
 5901W        W10101   2.181   2.523   2.571  0.0459  0.0193 -0.2371
 5902W        W10102   7.179   7.936   1.618 -0.1441 -0.0644  0.1299
 5903W        W10103   3.372   3.524   4.332 -0.1842  0.0419  0.1184
 5904W        W10104   3.739   1.181   2.338  0.1712  0.0585  0.1414
 5905W        W10105   4.900   2.786   1.662  0.0985 -0.0244  0.1761
 5906W        W10106   9.258   8.829   1.505  0.0107  0.0473 -0.1851
 5907W        W10107   1.433   5.756   2.045  0.1478  0.0914  0.1029
 5908W        W10108   5.640   1.918   9.410  0.0253 -0.0070  0.0298
 5909W        W10109   9.474   8.582  11.689  0.3620  0.1932 -0.0516
 5910W        W10110   8.403   7.554   2.039 -0.1734 -0.2513  0.0547
 5911W        W10111   9.834   3.403  10.280  0.2367  0.3551  0.1278
 5912W        W10112   4.912   7.689  12.568  0.0977  0.5453  0.2969
 5913W        W10113   0.577   1.133   0.507  0.0905 -0.1490  0.2702
 5914W        W10114   1.053  10.229   1.921 -0.0601  0.0398 -0.1919
 5915W        W10115   2.495   3.856   1.112  0.0203  0.1964  0.5421
 5916W        W10116   6.322   7.651  11.397  0.0879  0.2876 -0.0180
 5917W        W10117   8.921   7.846   3.320  0.1933 -0.0926  0.0005
 5918W        W10118   3.679   7.585   9.865 -0.0149  0.1832  0.1650
 5919W        W10119   2.655   0.406   9.152  0.2675 -0.0987  0.0684
 5920W        W10120   1.402  10.207  12.915 -0.2888  0.1033  0.0662
 5921W        W10121   2.414   9.121   0.699 -0.1498 -0.2416  0.0834
 5922W        W10122   9.295   1.464   4.817 -0.1686 -0.3496 -0.0178
 5923W        W10123   1.376  10.268   9.789 -0.0299  0.1387  0.3004
 5924W        W10124   8.652   3.382   1.857 -0.0635 -0.0005  0.2244
 5925W        W10125   6.480   0.925   3.762 -0.1353  0.2457  0.0048
 5926W        W10126   0.954   3.176   8.838  0.1137 -0.0971  0.1242
 5927W        W10127   8.399   6.974  11.831  0.0701  0.1898  0.0556
 5928W        W10128   6.439   7.337  10.281 -0.2365  0.2180  0.1251
 5929W        W10129   6.421   8.684  12.899 -0.1014  0.1663  0.1225
 5930W        W10130   0.839   6.270   5.421 -0.0311  0.3482 -0.3848
 5931W        W10131   5.059   5.757   1.650  0.1835  0.1907 -0.0078
 5932W        W10132   0.012   9.906   1.400 -0.0010  0.1161 -0.5102
 5933W        W10133   1.942   4.422  13.015  0.1725  0.1589  0.0827
 5934W        W10134   3.064   7.368   2.318  0.0426 -0.1075  0.3745
 5935W        W10135   7.096   0.040  12.789  0.2806  0.2827 -0.3041
 5936W        W10136   8.496   8.802   1.434 -0.3160 -0.0377 -0.0974
 5937W        W10137   7.612   5.544   1.096 -0.0096  0.3618  0.0898
 5938W        W10138   5.477   6.777  13.499  0.1672  0.0243 -0.0110
 5939W        W10139   8.545   5.295  13.368 -0.0839 -0.0279  0.0115
 5940W        W10140   4.648   0.983  10.578 -0.0996  0.0335 -0.1323
 5941W        W10141   1.690   8.870   2.673 -0.0967 -0.1758  0.1751
 5942W        W10142   8.658   9.808  13.649  0.3078  0.0389  0.1166
 5943W        W10143  10.014   9.607  12.951 -0.0091 -0.1955 -0.1007
 5944W        W10144   4.726   7.540  10.607 -0.0325  0.0386  0.3667
 5945W        W10145   7.586  10.021   0.261  0.1914 -0.3102  0.2175
 5946W        W10146   0.184   0.419  13.051 -0.0633  0.1129 -0.2429
 5947W        W10147   2.366   8.439  11.908  0.1382 -0.2218 -0.3541
 5948W        W10148   9.650   6.417   1.225  0.0814  0.2131  0.1094
 5949W        W10149   0.799   5.159  11.226  0.0555  0.2730 -0.0015
 5950W        W10150   1.896   1.298   3.926  0.0593  0.0021  0.1079
 5951W        W10151   8.449   8.802   2.523  0.1609 -0.2459 -0.4165
 5952W        W10152   1.973   7.352  10.096  0.0826  0.0569  0.0228
 5953W        W10153   1.262   9.784   8.683  0.1365 -0.0649  0.0037
 5954W        W10154   3.544   6.866   9.186  0.1507  0.2346  0.3289
 5955W        W10155   1.358   6.556  10.793  0.0678  0.2053 -0.1506
 5956W        W10156   6.023   6.494   2.064 -0.0787  0.2623 -0.1847
 5957W        W10157   2.628   4.495   3.485  0.1514 -0.0314  0.2359
 5958W        W10158   6.344   7.233   9.504  0.1586  0.0319 -0.1932
 5959W        W10159   5.954   8.068   1.685 -0.0014  0.0347 -0.0341
 5960W        W10160   7.005   5.103   8.820  0.1742 -0.1207 -0.1480
 5961W        W10161   8.370   0.243  12.785  0.3976 -0.1023 -0.1512
 5962W        W10162   4.711   9.117   4.219  0.1551 -0.1147  0.1911
 5963W        W10163   4.298   1.894  12.173  0.3055 -0.0978  0.0459
 5964W        W10164   1.148   4.907  11.488  0.2431 -0.1899  0.1354
 5965W        W10165   2.673   9.899   8.673 -0.1554 -0.1189 -0.0189
 5966W        W10166   8.061   4.415   9.301 -0.0025  0.1455 -0.1414
 5967W        W10167   9.269   3.782  13.023  0.3219  0.2610 -0.1495
 5968W        W10168   3.239   3.660  10.488 -0.1663 -0.0029 -0.1408
 5969W        W10169   9.612   5.465  12.387  0.0903  0.2316  0.0656
 5970W        W10170   5.045   8.919  12.680 -0.4141  0.2789  0.0260
 5971W        W10171   0.766  10.035   0.980  0.2614  0.0884  0.1432
 5972W        W10172   3.567   2.520   9.179  0.1356  0.0801 -0.2618
 5973W        W10173   2.721   8.065   8.985  0.0572  0.3219 -0.0703
 5974W        W10174   3.206   7.445   1.745  0.0888  0.0388 -0.2301
 5975W        W10175   1.018   0.395   3.526 -0.3888 -0.1854 -0.1386
 5976W        W10176   3.358   1.700  13.402 -0.1268  0.0240 -0.1987
 5977W        W10177   9.130   9.071   2.140 -0.0739 -0.3996  0.2390
 5978W        W10178   3.866   6.484  12.138 -0.1734  0.1961  0.2147
 5979W        W10179   1.194   4.790  13.170 -0.2958 -0.0374  0.1298
 5980W        W10180   6.908   8.154  12.399  0.0149  0.0246  0.0894
 5981W        W10181   4.885   0.733  12.583 -0.0126  0.0897 -0.0222
 5982W        W10182   1.430   2.186   1.353  0.0036 -0.3683  0.2753
 5983W        W10183   6.227   0.653  10.363  0.0221 -0.1745 -0.0132
 5984W        W10184   7.800   0.198   1.437 -0.1971 -0.1073 -0.1718
 5985W        W10185   2.996   7.808  11.552  0.1359 -0.2613 -0.0933
 5986W        W10186  10.324   4.752   3.670 -0.0579  0.1680 -0.0188
 5987W        W10187   9.770   0.886   2.291 -0.3442 -0.0656 -0.0942
 5988W        W10188   6.374   1.426   1.028 -0.0732 -0.0242  0.0354
 5989W        W10189   6.981   9.573  11.094 -0.1912 -0.2393  0.0505
 5990W        W10190   9.611   9.199   2.468  0.2851  0.3393 -0.2064
 5991W        W10191   5.717   5.502   0.947  0.1788 -0.0482  0.1207
 5992W        W10192   8.324   8.006   1.904  0.1369 -0.0724 -0.0257
 5993W        W10193   6.355   9.285   9.799 -0.0561 -0.1243 -0.0560
 5994W        W10194   0.115   3.826   1.405  0.0543  0.0806 -0.0074
 5995W        W10195   2.048   3.751   0.825  0.1752 -0.0653 -0.0288
 5996W        W10196   9.531   7.260  12.394 -0.2269 -0.1194 -0.0561
 5997W        W10197   6.675   5.386   3.983 -0.0006 -0.0843 -0.1131
 5998W        W10198   0.975   5.581   4.282  0.3080  0.2834  0.2724
 5999W        W10199   3.518   1.755   4.313 -0.0569  0.1849  0.0767
 6000W        W10200   3.115   0.645   9.189 -0.4102  0.1657  0.1663
 6001W        W10201   6.481   6.980   0.082  0.0395  0.0911 -0.0076
 6002W        W10202   8.820   4.145   3.110  0.0056 -0.1168 -0.0368
 6003W        W10203   2.603   6.935  12.012  0.0304 -0.1263 -0.0990
 6004W        W10204   1.784   5.152   0.793  0.1949 -0.1226 -0.2003
 6005W        W10205   9.608   2.927   1.447 -0.1850 -0.2611  0.0777
 6006W        W10206   0.783   4.722   3.836  0.1141 -0.0392  0.3686
 6007W        W10207   8.269   0.764   1.257 -0.2599  0.1137  0.3500
 6008W        W10208   7.318   0.029   0.038  0.2427 -0.0220  0.2894
 6009W        W10209   5.685   5.913  13.628  0.0320 -0.2666 -0.0074
 6010W        W10210   7.792   1.183  13.432  0.0973  0.2370  0.0658
 6011W        W10211   2.904   9.189   0.571  0.2005 -0.2438 -0.2154
 6012W        W10212   1.888   8.202  10.513 -0.0762  0.0612 -0.0922
 6013W        W10213   1.272   9.620   3.206 -0.0284 -0.3027 -0.1197
 6014W        W10214   1.387   1.162  12.147 -0.1176  0.0281  0.0066
 6015W        W10215   9.118   6.453  11.533 -0.0883  0.0130 -0.3954
 6016W        W10216   8.790   7.497  13.529 -0.1431 -0.0349  0.3300
 6017W        W10217   9.713   6.671   9.181  0.2863  0.2531  0.1213
 6018W        W10218   9.878   9.669  11.463  0.0177 -0.3174 -0.0884
 6019W        W10219   7.256   2.462  11.791 -0.0885 -0.0376  0.0495
 6020W        W10220   8.214   9.654  12.723 -0.0924  0.1190  0.2117
 6021W        W10221   5.307   5.662   3.009  0.0097 -0.0380  0.0249
 6022W        W10222   2.322   5.112   2.693 -0.0298  0.3293  0.1243
 6023W        W10223   1.980   7.406   0.500 -0.2439  0.0734  0.0832
 6024W        W10224   8.440   2.249   3.987 -0.0425  0.2925  0.0517
 6025W        W10225   9.040   5.460  12.606 -0.2775 -0.0281  0.1226
 6026W        W10226   9.855   1.717   2.041  0.0669  0.3742 -0.2467
 6027W        W10227   2.477   3.779   3.095 -0.2515  0.1083 -0.0644
 6028W        W10228   9.363   6.741   1.041 -0.0096  0.2440  0.1595
 6029W        W10229   1.286   2.905  13.241 -0.2619 -0.0730  0.0650
 6030W        W10230   1.900   5.404   1.213  0.0839  0.0262 -0.0140
 6031W        W10231   3.733   7.711   8.427  0.0291 -0.0307 -0.1921
 6032W        W10232   8.383   8.966  11.206 -0.1986 -0.0391 -0.1696
 6033W        W10233   7.572   0.381   2.797  0.0499  0.1766 -0.4746
 6034W        W10234   1.067   1.343   1.235 -0.0039 -0.2207  0.2604
 6035W        W10235   3.200   5.249   0.495 -0.1507  0.1913 -0.2850
 6036W        W10236   6.969   0.914   2.976 -0.1200 -0.1698  0.3605
 6037W        W10237   1.951   6.503   3.495 -0.4489  0.0782  0.0246
 6038W        W10238   1.227   5.580   2.585 -0.2523 -0.1499  0.0048
 6039W        W10239   6.636   8.909  11.736 -0.3641  0.0319  0.0971
 6040W        W10240   1.445   5.622  10.832 -0.0180  0.0622  0.0651
 6041W        W10241   9.189   2.498   9.792  0.2262 -0.1408  0.2777
 6042W        W10242   5.249   6.937   4.188 -0.0592 -0.1330  0.2194
 6043W        W10243   1.177   6.832   9.817 -0.0699 -0.1811 -0.2144
 6044W        W10244   1.068  10.222   8.708 -0.2979  0.0392 -0.0797
 6045W        W10245   4.289   7.984  11.794 -0.1053  0.1871  0.0770
 6046W        W10246   4.374   4.220  12.077  0.0908  0.0910 -0.0731
 6047W        W10247   0.311   8.602  12.945 -0.1189 -0.1277 -0.1555
 6048W        W10248   9.937   0.484  13.513  0.0805 -0.3378  0.3312
 6049W        W10249   6.366   8.795  13.423  0.1044 -0.0477  0.3984
 6050W        W10250   6.336   8.800   1.367 -0.0264  0.0026 -0.0428
 6051W        W10251   7.548   2.735   0.504 -0.0959  0.1094 -0.0065
 6052W        W10252   5.274   8.580   2.806  0.0896  0.0299  0.0936
 6053W        W10253   7.076   5.290  13.557  0.1113  0.0302 -0.1323
 6054W        W10254   1.888   7.367   3.213 -0.2544  0.2022  0.2516
 6055W        W10255   9.943   5.026   2.890  0.0013 -0.1319 -0.2883
 6056W        W10256   5.665   1.858  10.750 -0.0860 -0.1146  0.1512
 6057W        W10257   8.324   1.886  10.059 -0.1167 -0.0399 -0.1750
 6058W        W10258   8.193   4.196  10.110 -0.2179  0.2027  0.0595
 6059W        W10259   4.483   3.110   4.085 -0.2259  0.0889 -0.1243
 6060W        W10260   8.765   6.273   3.795  0.1042 -0.2688 -0.0530
 6061W        W10261   8.831   6.033  13.366 -0.0256 -0.0206 -0.1389
 6062W        W10262   9.260   1.665   1.206  0.0086  0.2113 -0.0969
 6063W        W10263   3.020   9.100   2.668  0.3105  0.0719 -0.2837
 6064W        W10264   0.449   0.114  11.971 -0.1537  0.0116  0.0601
 6065W        W10265   6.817   4.955   2.684 -0.3629 -0.0432  0.0778
 6066W        W10266   5.669   9.488  12.371 -0.1332  0.2983  0.2171
 6067W        W10267   6.106   9.881  10.508 -0.0444  0.0183 -0.0292
 6068W        W10268   8.368   9.221   2.800 -0.2124 -0.0714 -0.0178
 6069W        W10269   6.013   6.586   2.629  0.1394 -0.0777  0.2170
 6070W        W10270   5.035   7.505  10.179  0.0923  0.0790  0.2078
 6071W        W10271   2.764   6.290   3.125  0.1396 -0.0572  0.1699
 6072W        W10272   6.151   7.647  11.909 -0.2260  0.1687 -0.1954
 6073W        W10273   1.729   2.682   2.775 -0.2541  0.1187  0.3954
 6074W        W10274   0.250   3.728  12.518  0.3740  0.1358 -0.1673
 6075W        W10275   2.972   0.649   1.225  0.3117  0.1177  0.0996
 6076W        W10276   3.173   9.619   1.682  0.2256  0.0653 -0.3529
 6077W        W10277   1.528   6.062   2.846  0.0874  0.1746 -0.0811
 6078W        W10278   3.801   6.864   3.347  0.0329  0.1636  0.0923
 6079W        W10279   1.665   5.092  11.543  0.1161  0.1519 -0.0354
 6080W        W10280   8.260   6.108   4.416  0.0386 -0.1427  0.0967
 6081W        W10281   1.183   1.049  10.390  0.0449 -0.0525  0.4360
 6082W        W10282   5.516   0.686   1.059  0.3146  0.0364  0.2077
 6083W        W10283   8.801   6.039   3.172 -0.0057  0.0753  0.0114
 6084W        W10284   2.563   1.131   9.867  0.1370 -0.0862 -0.1371
 6085W        W10285   8.863   4.545   9.585 -0.2170  0.3215  0.1464
 6086W        W10286   2.744   9.294   9.771 -0.0276  0.1226 -0.0879
 6087W        W10287   8.590   0.931   1.641  0.3793 -0.0508  0.0885
 6088W        W10288   0.844   8.651   3.032 -0.1772 -0.2732 -0.1291
 6089W        W10289   0.423  10.059  12.991 -0.1146 -0.3775  0.2250
 6090W        W10290   0.749   7.738   1.510 -0.2157 -0.0703 -0.1237
 6091W        W10291   1.870   8.068  12.458  0.1183  0.1287  0.1697
 6092W        W10292   6.760   6.548   0.246  0.1492 -0.3659 -0.0780
 6093W        W10293   4.383   6.535  12.106 -0.0037 -0.2017  0.0566
 6094W        W10294   9.695   6.030  11.680  0.1545  0.1819 -0.1925
 6095W        W10295   0.148   2.976   1.395  0.0228 -0.1329  0.0482
 6096W        W10296   6.979   5.871   0.860  0.1217  0.2577 -0.1122
 6097W        W10297   1.624   2.633  13.441  0.2024  0.1223  0.1833
 6098W        W10298   5.047   2.012   2.776  0.0374 -0.0130  0.2598
 6099W        W10299   7.282   8.361   2.235 -0.1018 -0.3758 -0.2409
 6100W        W10300   5.859  10.036  12.320 -0.1228  0.1890 -0.2940
 6101W        W10301   3.726   5.864  10.157  0.3308 -0.1275 -0.0922
 6102W        W10302   0.789   8.912   3.675 -0.1405 -0.2229  0.0914
 6103W        W10303   5.793   3.922  10.338  0.3552  0.2119 -0.1754
 6104W        W10304   3.514   5.248   0.088  0.0815  0.2012  0.0153
 6105W        W10305   1.192   6.958  12.724 -0.1683 -0.0810  0.0754
 6106W        W10306   5.458   3.173  10.549  0.0293 -0.0826  0.3506
 6107W        W10307   9.422   7.749   0.413  0.1073  0.3224  0.3470
 6108W        W10308   1.002   5.973   1.020 -0.2797  0.3881  0.1668
 6109W        W10309   9.908   3.667   0.023 -0.0810  0.0445  0.3495
 6110W        W10310   2.970   6.857   9.638 -0.2974 -0.0679  0.2083
 6111W        W10311   4.208   4.848   2.792 -0.1550  0.2298  0.1201
 6112W        W10312  10.198   7.669   9.781  0.2976 -0.1787  0.0205
 6113W        W10313   7.526   9.250   0.290 -0.2470  0.0055  0.0488
 6114W        W10314   9.586   1.903  13.375 -0.0582 -0.2782 -0.0985
 6115W        W10315   1.973   6.349   3.969 -0.1677  0.0976  0.2414
 6116W        W10316   9.709   4.938   1.094 -0.3368 -0.2388  0.0683
 6117W        W10317   5.017   0.548   9.881 -0.1305 -0.0362 -0.3337
 6118W        W10318   6.843   4.211  10.443  0.0517  0.1664 -0.1366
 6119W        W10319   3.959   1.685  13.383  0.0884  0.0053 -0.3101
 6120W        W10320   2.150   5.941   9.625 -0.0436  0.3714 -0.1333
 6121W        W10321  10.285   0.887  13.050  0.0969  0.0668 -0.0269
 6122W        W10322   6.679   7.774  13.257  0.1122 -0.3321  0.2150
 6123W        W10323   0.201   7.085   9.185 -0.2149 -0.0097 -0.0021
 6124W        W10324  10.363   1.956   2.890  0.2475 -0.1894 -0.1892
 6125W        W10325   0.088   9.853   4.333  0.3190  0.0542  0.1071
 6126W        W10326   4.922   4.579  10.889 -0.0783 -0.1523  0.3790
 6127W        W10327   2.542   5.011  11.381 -0.3311 -0.1513 -0.0207
 6128W        W10328   9.655   9.029  10.988  0.1241 -0.1526 -0.1366
 6129W        W10329   5.070   3.869   2.387  0.0238  0.0812  0.0808
 6130W        W10330   2.981   4.698   0.515  0.4378 -0.1793  0.0552
 6131W        W10331   3.830   6.844   1.163  0.2650  0.2060 -0.2007
 6132W        W10332   8.908   1.951   1.610 -0.0293 -0.0046 -0.2503
 6133W        W10333   2.466   3.070   0.411  0.0036 -0.0632 -0.0916
 6134W        W10334   1.076   0.767  11.168  0.2982  0.1952  0.2561
 6135W        W10335   4.110   0.998   1.833 -0.2153 -0.1539  0.5126
 6136W        W10336   8.347   3.209   0.142  0.1520  0.3251 -0.3659
 6137W        W10337   4.996   3.507   2.906 -0.2144 -0.1074  0.0385
 6138W        W10338   9.794   1.443  13.459 -0.0965 -0.2576  0.0399
 6139W        W10339   0.625   1.040  12.497  0.0948  0.0945  0.1010
 6140W        W10340   9.837   4.291  11.953  0.2272  0.0002  0.0268
 6141W        W10341   2.890   9.162   1.078 -0.0256  0.0972  0.2765
 6142W        W10342   9.857   1.599   3.450  0.4078 -0.1260  0.0840
 6143W        W10343   3.555  10.325  10.483 -0.2537  0.0185  0.2860
 6144W        W10344   8.672   7.382  12.552  0.0158  0.3166  0.0242
 6145W        W10345   0.562   8.160   9.989 -0.1613 -0.2894 -0.0343
 6146W        W10346   8.875   1.483  11.389 -0.0520 -0.1863 -0.3637
 6147W        W10347   9.512   3.450   0.747  0.1277  0.0196  0.0675
 6148W        W10348   4.216   2.368   0.331 -0.2650 -0.0180  0.1793
 6149W        W10349   4.979   0.470   0.821 -0.0046  0.0815  0.0181
 6150W        W10350   1.947   6.872  11.602 -0.0647  0.0993 -0.0574
 6151W        W10351   3.165   7.012   8.846 -0.0392 -0.0438 -0.0957
 6152W        W10352   0.211   6.720  13.627 -0.0727  0.0685  0.2006
 6153W        W10353   5.352   0.687   2.872 -0.0724 -0.4725  0.1985
 6154W        W10354   8.283   8.095  10.676  0.2904  0.0581  0.0029
 6155W        W10355   9.867   6.948  12.662  0.0567  0.2085  0.2990
 6156W        W10356   0.666   2.730   1.624 -0.0429  0.0232  0.0726
 6157W        W10357   1.195   3.984   2.642  0.1170 -0.1554 -0.1772
 6158W        W10358   0.936   4.099   0.816  0.0117  0.0936 -0.1497
 6159W        W10359   4.956   3.130   2.052  0.0653 -0.3106  0.0172
 6160W        W10360   5.415   3.710  13.005  0.1132 -0.0453  0.0718
 6161W        W10361   3.245   3.250  10.141 -0.0409  0.3048 -0.1491
 6162W        W10362   6.083   7.700   3.968 -0.1348  0.0317 -0.1290
 6163W        W10363   2.514   4.690   1.648  0.2383  0.0020  0.1864
 6164W        W10364   7.354   2.330   0.286  0.0571  0.0871  0.0368
 6165W        W10365   4.805   4.032  12.180 -0.3042  0.3556  0.0223
 6166W        W10366   9.381   2.361  11.291  0.0506  0.0212 -0.0239
 6167W        W10367   1.769   6.102   0.677  0.0922 -0.1389 -0.2866
 6168W        W10368   7.354   4.207  11.409 -0.2380  0.0132 -0.1441
 6169W        W10369   0.090   6.210  12.854  0.1022 -0.1610 -0.1762
 6170W        W10370   2.932   9.901  10.861 -0.0421 -0.4035  0.1141
 6171W        W10371   3.207   4.547   1.541 -0.0567  0.3301  0.0561
 6172W        W10372   8.060   3.062  11.952  0.0748  0.0247  0.0030
 6173W        W10373   9.587   7.480  12.888  0.0726 -0.1224  0.0856
 6174W        W10374   3.674   8.056   2.407 -0.2377  0.2457  0.0147
 6175W        W10375   9.211   5.537  10.220 -0.0015 -0.0457 -0.1894
 6176W        W10376   8.822   2.891   0.072  0.1127 -0.0788 -0.3516
 6177W        W10377   6.544   6.794   2.768  0.0206  0.0270 -0.1050
 6178W        W10378  10.155   3.768  10.387 -0.1362 -0.0630 -0.3384
 6179W        W10379   9.459   2.519   2.214  0.0355  0.1100 -0.1316
 6180W        W10380   0.030   3.193   0.726  0.1763  0.0431  0.4062
 6181W        W10381   9.495   0.149   1.184 -0.1488 -0.0623 -0.1345
 6182W        W10382   3.846   2.780   3.396  0.0544  0.0150  0.0869
 6183W        W10383   6.903   8.203   0.206 -0.2687 -0.2268  0.0806
 6184W        W10384   3.443   5.545   0.825 -0.3391  0.1491  0.0680
 6185W        W10385   2.886   3.059   3.606  0.0616 -0.2333  0.2164
 6186W        W10386   6.283   1.988   0.047 -0.0146 -0.0358  0.1728
 6187W        W10387   0.100   4.935  10.078  0.0377 -0.0865  0.0563
 6188W        W10388   9.289   8.120  10.911  0.1493 -0.1430 -0.0325
 6189W        W10389   2.400   0.635  10.070  0.1226 -0.1197  0.0018
 6190W        W10390   8.226   5.622  13.112 -0.2396 -0.2604  0.2940
 6191W        W10391   2.968   8.934   9.385 -0.0368 -0.0960  0.0984
 6192W        W10392   0.395   1.554   0.675 -0.1391 -0.2381 -0.2135
 6193W        W10393   6.551   4.318   9.901 -0.0294  0.0355 -0.1478
 6194W        W10394   9.335   2.948  10.589 -0.1854 -0.2277 -0.1045
 6195W        W10395   9.612   8.357  11.261 -0.3191 -0.1285  0.2736
 6196W        W10396   6.740   1.500   1.884  0.0466 -0.1946  0.2040
 6197W        W10397   7.342   2.597   2.667 -0.1234 -0.1852  0.1376
 6198W        W10398   5.299   8.883   9.082  0.1305 -0.1498 -0.0082
 6199W        W10399   8.949   2.578  11.371 -0.0256  0.0890 -0.1513
 6200W        W10400   0.327   2.865   2.997  0.0827 -0.0785 -0.2325
 6201W        W10401   6.989   1.510  11.775 -0.2586 -0.0433 -0.1290
 6202W        W10402   4.256   8.275  11.411 -0.1537  0.0713  0.0918
 6203W        W10403   0.868   1.988  10.016 -0.1223 -0.2133  0.1228
 6204W        W10404   4.188   1.546   0.947 -0.0939 -0.0774 -0.2484
 6205W        W10405   6.119   8.249  12.051  0.2487  0.0468 -0.0837
 6206W        W10406   1.373   7.629  11.779 -0.1639 -0.1014 -0.1071
 6207W        W10407   0.711   9.419   4.109 -0.1913 -0.0349 -0.3520
 6208W        W10408   8.961   1.914   2.117 -0.0237  0.4172  0.1898
 6209W        W10409   5.581   1.281  11.913  0.2749  0.0183  0.0682
 6210W        W10410   2.257  10.242  11.965  0.0849 -0.5063 -0.0957
 6211W        W10411   4.104   3.047   0.890 -0.0853  0.1058  0.1261
 6212W        W10412   5.026   1.044   2.592  0.0425  0.1325  0.3616
 6213W        W10413   1.007   4.591   2.343 -0.0103  0.3871  0.2474
 6214W        W10414   0.666  10.107  12.128  0.1720  0.2200 -0.4066
 6215W        W10415   2.637   1.946   4.253  0.1876  0.1713 -0.0824
 6216W        W10416   0.009   5.028   5.809 -0.1361  0.3351 -0.2042
 6217W        W10417   3.107   7.051  12.158  0.3974 -0.2001  0.2243
 6218W        W10418   3.489   9.973  12.727  0.2570 -0.2754 -0.0424
 6219W        W10419   6.902   9.935  12.336  0.0535 -0.1107 -0.1523
 6220W        W10420   8.698  10.001  12.137  0.1083  0.0402 -0.0009
 6221W        W10421   6.005   9.286   3.715 -0.1506  0.3287  0.1552
 6222W        W10422   7.931   5.380   9.171  0.0057  0.0455  0.0560
 6223W        W10423   5.562   0.498   3.802 -0.1049  0.1739 -0.1134
 6224W        W10424   0.300   4.864  11.702  0.2216  0.1035 -0.1073
 6225W        W10425   3.465   2.586  12.221 -0.0808 -0.1290  0.0563
 6226W        W10426   9.120   5.848  11.645 -0.2205 -0.0304 -0.2692
 6227W        W10427  10.055   4.156  13.621  0.0567  0.0053 -0.4128
 6228W        W10428   6.576   3.471   2.979 -0.4334  0.0533 -0.0271
 6229W        W10429   1.284   5.975   0.576 -0.3238 -0.1484 -0.1909
 6230W        W10430  10.176   1.033   1.611 -0.2734 -0.1111 -0.0500
 6231W        W10431   6.748   4.015  11.640  0.1990 -0.2018 -0.4494
 6232W        W10432   3.780   0.370  10.564  0.0674  0.3399 -0.1105
 6233W        W10433   1.393   0.795   9.365  0.1079 -0.1462  0.1466
 6234W        W10434   4.893   0.039  12.697 -0.1868  0.1278  0.0754
 6235W        W10435   1.303   5.254  11.175  0.1711  0.1188  0.1144
 6236W        W10436   5.907   3.312   2.420 -0.0400 -0.1982  0.0810
 6237W        W10437   6.539   5.201   0.744  0.7042  0.2043  0.0257
 6238W        W10438   6.392   9.689   3.400  0.0940 -0.1569 -0.0937
 6239W        W10439   8.167   9.844   1.091  0.1837  0.0681  0.3969
 6240W        W10440   4.155   2.658   1.291  0.0580  0.1709 -0.1726
 6241W        W10441   4.696   3.912  13.001 -0.0137 -0.0916  0.0811
 6242W        W10442   5.776   2.406  13.320 -0.1868 -0.0036 -0.1092
 6243W        W10443   7.599   5.863   1.796  0.1918  0.2272 -0.1190
 6244W        W10444   3.145   4.595  13.118  0.1156  0.5183 -0.2668
 6245W        W10445   5.502   4.409  11.612  0.0926 -0.3459 -0.1399
 6246W        W10446   0.027   9.359   1.142  0.1269 -0.2875 -0.0629
 6247W        W10447   7.128   5.638  13.112 -0.2185  0.0780 -0.4210
 6248W        W10448   7.743   9.369  12.670  0.0489 -0.2082 -0.3193
 6249W        W10449   9.575   2.033   3.826  0.0123 -0.2776 -0.0712
 6250W        W10450   2.060   6.072  12.977 -0.3029 -0.0117 -0.0973
 6251W        W10451   2.147   4.836   8.784 -0.0815 -0.1002  0.0243
 6252W        W10452   3.079   4.204  13.469 -0.0498 -0.4312  0.0735
 6253W        W10453   6.828   2.052   2.163  0.0653  0.2345  0.1071
 6254W        W10454   0.119   2.199   8.181 -0.1390  0.2667 -0.0392
 6255W        W10455   1.167   5.332   2.162 -0.0431  0.0632  0.0743
 6256W        W10456   2.885   4.817   1.933 -0.2935 -0.0430 -0.2515
 6257W        W10457   2.399   7.121  11.644 -0.2831 -0.2869  0.1973
 6258W        W10458   3.444   7.060   9.706 -0.1617  0.1050  0.1849
 6259W        W10459   3.902   9.207   4.232 -0.0988  0.0512  0.0483
 6260W        W10460   9.925   1.074   3.213 -0.0795 -0.0236 -0.1890
 6261W        W10461   3.968   7.476  12.626 -0.1386  0.1700  0.0454
 6262W        W10462   3.405   2.627   9.865  0.0932  0.0568 -0.1173
 6263W        W10463   4.374   5.946   9.158 -0.1562 -0.1182 -0.0049
 6264W        W10464   6.498   6.121   5.204 -0.0292  0.0475 -0.2827
 6265W        W10465  10.165   1.517   3.051 -0.0094 -0.0186  0.0570
 6266W        W10466   6.164   1.027   4.547  0.1677  0.0730  0.0047
 6267W        W10467   1.391   6.974   1.953 -0.1349  0.0461  0.0050
 6268W        W10468   2.109   2.491   9.347  0.3670  0.1576  0.0281
 6269W        W10469   6.580   1.019  12.284 -0.0819 -0.1929 -0.0147
 6270W        W10470   7.451   4.595   4.587 -0.0754  0.0174 -0.0410
 6271W        W10471   1.189   9.220   0.718 -0.1726  0.0797 -0.1010
 6272W        W10472   0.214   4.346  11.740 -0.3277 -0.1299  0.0699
 6273W        W10473   9.729   8.112  10.740 -0.0821 -0.3337  0.0379
 6274W        W10474   1.365   3.985   4.947 -0.3245 -0.1378  0.1276
 6275W        W10475   8.956   1.466   3.887 -0.1410 -0.3036  0.0722
 6276W        W10476   8.388   5.798  13.553  0.2666 -0.0529 -0.2651
 6277W        W10477  10.133   4.192   1.428  0.0132 -0.1872  0.2388
 6278W        W10478   1.941   0.093   3.712  0.1210 -0.0466  0.2115
 6279W        W10479   0.192   8.272   2.700 -0.3633 -0.0185 -0.0243
 6280W        W10480   4.358   2.515   2.160  0.3247 -0.0171  0.2067
 6281W        W10481   5.383   9.532   2.599  0.2101  0.0135  0.2757
 6282W        W10482   4.224   2.732  11.569  0.0555 -0.3105 -0.2228
 6283W        W10483  10.092   0.142   1.220 -0.1368 -0.2701  0.1656
 6284W        W10484   8.921   8.629   2.389  0.1072  0.0562 -0.1233
 6285W        W10485   2.637   6.189   0.502  0.2448 -0.0668 -0.0945
 6286W        W10486   3.146   7.389  11.309 -0.2367  0.3279  0.0773
 6287W        W10487   9.071   5.488   0.649 -0.3384  0.2122 -0.2169
 6288W        W10488   4.358   7.985   0.512 -0.1075 -0.1205  0.1428
 6289W        W10489   0.095   1.609  10.187 -0.1842  0.4186  0.0961
 6290W        W10490   1.068   3.517   1.455  0.1093 -0.5812  0.3402
 6291W        W10491   9.179   1.996   0.247 -0.1687 -0.1842 -0.1528
 6292W        W10492   1.062   7.364   2.628 -0.1047  0.1038  0.2788
 6293W        W10493   0.257   7.781   1.620  0.0477  0.2837 -0.0573
 6294W        W10494   1.108   0.013   0.944 -0.1598  0.1124  0.2626
 6295W        W10495   9.018   9.201  13.283 -0.1632  0.1767  0.1055
 6296W        W10496   5.936  10.359  10.514  0.0001 -0.0893  0.1691
 6297W        W10497   1.847   3.978   4.896  0.1148 -0.0956  0.2339
 6298W        W10498   1.225   4.668  11.890 -0.0745 -0.1492 -0.1857
 6299W        W10499   3.510   5.458   1.964  0.0154 -0.4035  0.0121
 6300W        W10500   9.285   8.908  11.316  0.0284 -0.1788  0.1115
 6301W        W10501   8.552   8.127   0.635 -0.0389 -0.1291 -0.0618
 6302W        W10502   3.046   5.868  13.124 -0.1289  0.1369  0.0766
 6303W        W10503  10.012   0.346  12.938 -0.2081  0.2134 -0.0041
 6304W        W10504   7.974   8.490   1.289  0.1396  0.0736 -0.0355
 6305W        W10505   9.141   5.361  11.577  0.3524 -0.0631  0.0394
 6306W        W10506   2.673  10.258  11.692  0.0519 -0.1684 -0.1654
 6307W        W10507   0.420   4.210   9.820  0.2764  0.0218 -0.1032
 6308W        W10508   8.329   1.280  13.529  0.3949 -0.0923 -0.1725
 6309W        W10509   9.276   4.947   2.414  0.0811  0.0947 -0.3618
 6310W        W10510   5.735   1.969   3.410  0.2921  0.0010  0.0449
 6311W        W10511   3.790   3.251  10.295  0.1870  0.3198  0.0433
 6312W        W10512   3.439   3.817   2.074  0.1427  0.0282  0.2784
 6313W        W10513   4.417   3.501   9.757  0.1813  0.1274 -0.0254
 6314W        W10514   3.309   9.209  13.393  0.0219  0.0433 -0.1063
 6315W        W10515   7.866   4.605  13.257  0.1926  0.2809 -0.0534
 6316W        W10516   3.666   3.052   9.874 -0.0309 -0.0146  0.1728
 6317W        W10517   2.825   2.320  12.647  0.0231  0.0334 -0.0089
 6318W        W10518   0.782   3.382   9.515 -0.2559  0.0619 -0.4778
 6319W        W10519  10.194   4.056   3.051  0.0305 -0.2746  0.0033
 6320W        W10520   9.088   3.298   2.102  0.1612 -0.2775 -0.2967
 6321W        W10521   7.454   2.225   3.989  0.1354  0.1176 -0.1918
 6322W        W10522  10.038   8.410   3.761  0.0988  0.0199 -0.3079
 6323W        W10523   9.422   6.619   3.304  0.0179 -0.1138  0.1878
 6324W        W10524  10.184   2.126  11.128 -0.0550  0.0304  0.1241
 6325W        W10525   3.818   9.311   8.872  0.2646 -0.1459  0.0381
 6326W        W10526   3.348   3.022   0.260  0.0058 -0.1981 -0.2562
 6327W        W10527   0.860   5.271   2.989 -0.1732 -0.0431  0.0675
 6328W        W10528  10.028   3.552   0.698  0.2392  0.2533 -0.1016
 6329W        W10529   6.193   9.076   0.904  0.0580 -0.0097  0.0924
 6330W        W10530   2.480   0.217  13.230 -0.3318  0.0588 -0.0301
 6331W        W10531   7.940   4.425   3.779 -0.4694 -0.1644 -0.0983
 6332W        W10532   5.235   5.747  13.569  0.0924  0.1686 -0.0063
 6333W        W10533   2.339   1.067  13.216 -0.2179 -0.0671 -0.1528
 6334W        W10534   7.479   8.054  11.860  0.2305 -0.3608 -0.0796
 6335W        W10535   6.258   5.729  12.228  0.1249 -0.1775 -0.0669
 6336W        W10536   2.390   9.316   8.735  0.0640 -0.1478  0.1570
 6337W        W10537   9.111   7.028   2.078  0.1658 -0.2042 -0.4280
 6338W        W10538   8.131   2.363   4.425  0.2597 -0.1329  0.2533
 6339W        W10539   1.355   1.601   0.880 -0.0733 -0.0264  0.0100
 6340W        W10540   0.432  10.367  12.496  0.0910 -0.1122  0.0984
 6341W        W10541   4.564   4.939   3.140 -0.1978  0.0279  0.3045
 6342W        W10542   0.059   1.408  11.680  0.0626  0.3060  0.0594
 6343W        W10543   1.861   2.805  11.235 -0.0230 -0.4796  0.2262
 6344W        W10544   4.601  10.168  10.763  0.0172  0.0265 -0.1113
 6345W        W10545   3.296   4.081   0.300 -0.0468  0.2562  0.1105
 6346W        W10546   7.096   0.007  11.271  0.1785  0.0859 -0.0308
 6347W        W10547   1.469   1.103   4.569  0.2865  0.0247  0.2947
 6348W        W10548   5.285   5.206   1.003 -0.2631  0.2321 -0.1128
 6349W        W10549   0.263   6.461  10.335 -0.2353  0.0897 -0.0330
 6350W        W10550   4.032   5.968   2.439  0.0074 -0.5176 -0.2057
 6351W        W10551   6.705   2.162   5.875  0.1222 -0.3072  0.0076
 6352W        W10552   2.181   9.557   1.869 -0.4753  0.1054  0.0303
 6353W        W10553   9.558   8.940   1.877  0.2706 -0.2614 -0.2118
 6354W        W10554   8.305   1.823   0.941 -0.1500  0.0280  0.2473
 6355W        W10555   3.804   8.652   3.635 -0.2651  0.2266  0.0286
 6356W        W10556   4.392   6.497   4.299 -0.0562  0.3412  0.0223
 6357W        W10557   0.455   0.322   4.267 -0.1517  0.0193 -0.1206
 6358W        W10558   4.151   0.671  10.410 -0.0057  0.1329 -0.0193
 6359W        W10559   5.508   5.513   3.458  0.0537  0.3429 -0.0349
 6360W        W10560   3.290   3.576  12.198  0.0753 -0.2617 -0.0600
 6361W        W10561   9.517   9.219   1.311  0.0468 -0.2369  0.3021
 6362W        W10562  10.382   5.147   2.644  0.1208  0.2269  0.2079
 6363W        W10563   2.340   1.463  10.205 -0.0321  0.1780  0.0872
 6364W        W10564   4.207   1.053   0.999  0.0340  0.2949  0.0705
 6365W        W10565   1.410   8.933  12.484  0.2930 -0.0690 -0.0420
 6366W        W10566   8.091   4.593   2.746  0.0502 -0.2861  0.0855
 6367W        W10567   0.472   1.184   0.985  0.0077 -0.1604 -0.0329
 6368W        W10568   7.750   5.437   2.579  0.0190 -0.1209 -0.1827
 6369W        W10569   4.833   6.636   2.501 -0.2793  0.0451 -0.2945
 6370W        W10570   1.890   7.751  13.653  0.0624  0.0298 -0.3987
 6371W        W10571   7.282   2.778  10.510  0.0754  0.3281  0.1483
 6372W        W10572  10.353   8.586   1.086 -0.1962  0.3610 -0.3671
 6373W        W10573   7.973   2.090   9.753 -0.0381 -0.0336 -0.2760
 6374W        W10574   9.431   4.861   0.266 -0.3492  0.0510 -0.1531
 6375W        W10575   3.490   1.147  10.853  0.3499  0.0428 -0.3201
 6376W        W10576   8.271   1.649   0.378  0.1425 -0.2507 -0.0317
 6377W        W10577   7.180   4.979  11.000  0.0218  0.0142 -0.0900
 6378W        W10578  10.334   7.196   9.611 -0.0396 -0.1376 -0.2860
 6379W        W10579   5.778   4.678  11.106  0.1651 -0.2038 -0.0115
 6380W        W10580   6.322   9.988   0.580  0.0675  0.0785  0.0180
 6381W        W10581   2.990   4.065   9.014 -0.0966  0.1049  0.4164
 6382W        W10582   6.662   9.136   2.190 -0.0292 -0.1502 -0.1854
 6383W        W10583   3.082   4.251   4.155  0.0421 -0.1932 -0.1070
 6384W        W10584   7.626   0.140  12.556  0.1904 -0.1250  0.3239
 6385W        W10585   5.361   0.326  13.361  0.0980 -0.2059  0.0210
 6386W        W10586   6.238   4.300  10.827 -0.1570  0.0355 -0.0508
 6387W        W10587   2.632   4.049   4.352  0.1475  0.4090  0.3952
 6388W        W10588   8.757   2.471   5.138  0.0046  0.0895  0.2305
 6389W        W10589   1.835   0.403   1.902 -0.0072  0.0835  0.0414
 6390W        W10590   4.458   7.546   3.430  0.1827 -0.0276 -0.2442
 6391W        W10591   9.936   0.212   9.362 -0.0925 -0.0406 -0.0022
 6392W        W10592   9.055   9.925  12.696 -0.0231  0.0010 -0.4283
 6393W        W10593   7.919   1.114   9.969  0.1588 -0.0352  0.0472
 6394W        W10594   4.819   7.129   2.583 -0.0545  0.0541  0.0189
 6395W        W10595   2.313   1.509   5.095  0.0838  0.1051 -0.1892
 6396W        W10596   4.914   1.620   3.773 -0.0277 -0.2238  0.4493
 6397W        W10597   2.015   9.089  10.999  0.1729 -0.3472 -0.1092
 6398W        W10598   1.234   5.096   2.623 -0.3313  0.1427 -0.1662
 6399W        W10599   3.352   3.065   1.323  0.2827 -0.0042  0.2834
 6400W        W10600   0.859   7.713  11.911  0.0572 -0.0247 -0.1414
 6401W        W10601   5.295   4.622  11.256  0.3317 -0.1303 -0.1425
 6402W        W10602   4.426   1.647   3.680  0.1246  0.2480  0.1921
 6403W        W10603   8.361   0.870   0.819  0.0773  0.1927  0.2042
 6404W        W10604   0.928   7.939  12.790 -0.1405  0.0905 -0.0326
 6405W        W10605   2.685   0.838  11.403 -0.4696 -0.0472 -0.0838
 6406W        W10606   2.830   5.518   5.210  0.1628  0.4819 -0.0106
 6407W        W10607   9.135   5.974   9.098  0.1488 -0.2546 -0.0444
 6408W        W10608   5.320   6.939  11.703  0.2897 -0.3400  0.2000
 6409W        W10609   1.727   1.618   4.239 -0.1291 -0.3488 -0.0560
 6410W        W10610   0.555   2.909   9.670 -0.2171 -0.0410 -0.2351
 6411W        W10611   5.202   3.804   3.314  0.0635  0.1449  0.1570
 6412W        W10612   4.547   2.187  10.096  0.1048 -0.1109  0.0528
 6413W        W10613   4.782   8.737   1.803  0.2163  0.0971 -0.1831
 6414W        W10614   1.998   0.776  12.897 -0.1521 -0.0591 -0.0665
 6415W        W10615   0.409  10.110   3.339  0.0645 -0.0564  0.2444
 6416W        W10616   4.306   5.880   2.053 -0.0236  0.0563  0.2860
 6417W        W10617   4.613   9.865   3.697 -0.2007 -0.2587  0.1657
 6418W        W10618   8.147   3.706   3.615 -0.0169  0.5441 -0.2182
 6419W        W10619   3.623   8.766  10.577  0.2295  0.1863 -0.1650
 6420W        W10620   1.068   1.216   0.208 -0.2180  0.3755  0.1370
 6421W        W10621   1.082   2.822  12.062 -0.0952  0.1550  0.0016
 6422W        W10622   3.034   0.141  11.436 -0.0168  0.1685  0.3783
 6423W        W10623   6.699   7.202  10.700 -0.1108 -0.3036  0.0344
 6424W        W10624   8.961   5.190  13.081 -0.0011 -0.0035  0.0810
 6425W        W10625   5.550   6.715  12.709 -0.1716  0.0054  0.0623
 6426W        W10626   2.621   3.951   2.057  0.3689  0.2741  0.0110
 6427W        W10627   4.174   3.186  10.026 -0.0088 -0.3048 -0.0769
 6428W        W10628   3.646   6.414  10.483 -0.1702  0.1155  0.2432
 6429W        W10629   6.981   6.303   5.154  0.0866  0.0630  0.0397
 6430W        W10630  10.158   3.905  12.205 -0.2226 -0.3159 -0.2840
 6431W        W10631   2.499   6.898   1.488 -0.0391  0.3941 -0.0247
 6432W        W10632   0.565   4.126  10.338 -0.2272  0.3742  0.1853
 6433W        W10633   8.415   6.235  10.700  0.2976  0.1911 -0.1381
 6434W        W10634   0.695   4.890  10.200  0.0388 -0.2898  0.2325
 6435W        W10635   6.878   2.560   3.194 -0.4043  0.1735 -0.4204
 6436W        W10636   1.085   7.471  12.744  0.2717  0.1385 -0.2181
 6437W        W10637   0.982   3.808   3.779 -0.1426  0.0981  0.1849
 6438W        W10638   7.521   2.771   3.827 -0.1998 -0.1123  0.1989
 6439W        W10639   6.516   2.385   0.193 -0.1257  0.0836 -0.0869
 6440W        W10640   6.681   2.255   1.220  0.0498  0.0222  0.1315
 6441W        W10641   1.677  10.339   9.386 -0.2099  0.1382 -0.2249
 6442W        W10642   4.951   6.645  13.650  0.2017 -0.0952  0.2231
 6443W        W10643   4.592   8.424   0.224  0.0021 -0.2418  0.0735
 6444W        W10644   3.898   9.348   0.103 -0.1891 -0.1315 -0.1650
 6445W        W10645   2.690   9.362   3.132 -0.2646 -0.2716 -0.3607
 6446W        W10646   5.644   2.891  10.182  0.0895  0.0676  0.4019
 6447W        W10647   2.932   7.693   0.717 -0.2215  0.0196 -0.2335
 6448W        W10648   2.194   2.372   4.728  0.0949 -0.1780  0.3117
 6449W        W10649   4.818   7.334  13.029 -0.3031  0.2432  0.0567
 6450W        W10650   6.422   0.828  11.744 -0.1195  0.0213 -0.2043
 6451W        W10651   3.007   8.834   3.796  0.2415  0.2705  0.0747
 6452W        W10652   2.247   1.544   8.626  0.1141  0.3000 -0.0468
 6453W        W10653   7.867   2.353   0.185 -0.2357  0.2145  0.1436
 6454W        W10654   8.704   4.042   1.709  0.3129  0.1016  0.1150
 6455W        W10655   7.342   9.303   3.227  0.0223  0.2147  0.3214
 6456W        W10656   2.225   7.642   3.930  0.0426  0.1038  0.0292
 6457W        W10657   1.775  10.195   3.256  0.0979  0.2697 -0.0490
 6458W        W10658   7.033   2.781   5.060  0.0685  0.4488 -0.0715
 6459W        W10659   3.818   4.206   4.744 -0.1365  0.2332  0.3068
 6460W        W10660   4.158   5.866   9.781 -0.0891 -0.2450  0.1901
 6461W        W10661   4.459   0.743   8.508  0.0682 -0.0354  0.1081
 6462W        W10662   3.174   5.614   4.807 -0.1200  0.2087  0.0689
 6463W        W10663   7.613   2.659   9.137  0.4211  0.1905  0.1630
 6464W        W10664   6.962   2.815   2.440 -0.0619 -0.0067 -0.1934
 6465W        W10665  10.301   2.300   9.103  0.0670 -0.1071 -0.0667
 6466W        W10666   8.077   4.187  12.579 -0.1314 -0.1159  0.3004
 6467W        W10667   2.178   5.023   1.423  0.0154 -0.2405 -0.2234
 6468W        W10668   9.829   6.499   3.011  0.3445 -0.0074  0.0658
 6469W        W10669   9.840   9.578   1.042 -0.3700 -0.0149  0.1753
 6470W        W10670  10.345   4.505   9.834  0.2576  0.3705  0.1349
 6471W        W10671   4.306   7.362   2.403  0.2580  0.2709  0.1718
 6472W        W10672   5.795   8.061   1.256  0.1032  0.0357  0.1515
 6473W        W10673   8.431   0.396  12.142  0.0481  0.2242  0.1066
 6474W        W10674   5.861   5.442  12.243 -0.0950 -0.3407 -0.1701
 6475W        W10675   3.493   8.835   4.010  0.2993 -0.3751  0.0977
 6476W        W10676   4.781  10.273   4.002  0.2253 -0.0228 -0.0147
 6477W        W10677   9.669  10.313  10.288  0.4964 -0.1830  0.0581
 6478W        W10678   3.252   5.690  10.965  0.2971 -0.2824 -0.0397
 6479W        W10679   9.860   3.057  12.182  0.2014  0.2074  0.0910
 6480W        W10680   3.195   4.111  10.766 -0.1373  0.1257  0.0071
 6481W        W10681   8.420   0.395   2.590 -0.1787  0.0414  0.1111
 6482W        W10682   4.573   2.578  11.221 -0.0253  0.0536 -0.1010
 6483W        W10683   7.648   4.252   4.916  0.1045  0.3563  0.0715
 6484W        W10684   7.960   5.180  13.392  0.1069  0.3571 -0.2967
 6485W        W10685   0.883   6.862  12.075 -0.0725  0.0749 -0.4556
 6486W        W10686   8.574   3.802   4.843  0.0732 -0.0439  0.2788
 6487W        W10687   1.800   2.164  10.656  0.1567  0.2048  0.0506
 6488W        W10688   1.963   3.337   9.189  0.0910 -0.2100  0.0531
 6489W        W10689   2.024   3.838  11.623 -0.0644  0.0712  0.5244
 6490W        W10690   6.243   6.893   3.148 -0.1150  0.4438  0.2579
 6491W        W10691   9.112   2.094   3.839 -0.0237 -0.1125  0.0686
 6492W        W10692   3.705   8.247   9.173  0.2029 -0.2496  0.0930
 6493W        W10693   7.337   0.355   3.312 -0.0540  0.1741  0.2191
 6494W        W10694   8.692   9.089  12.911  0.0568 -0.2506  0.1953
 6495W        W10695   3.010   9.513  10.223 -0.2829  0.0960 -0.2041
 6496W        W10696   3.309   3.677  11.002 -0.2147  0.1237 -0.2469
 6497W        W10697   2.113   4.632   9.210 -0.0866 -0.1581 -0.2734
 6498W        W10698   5.669   7.153  10.653  0.1209  0.0286 -0.0833
 6499W        W10699   5.296   5.747   1.046  0.2756 -0.0130 -0.0727
 6500W        W10700   5.732   6.620  11.137  0.1999  0.1104  0.0422
 6501W        W10701   2.841   7.678   2.990 -0.1793  0.0915 -0.1042
 6502W        W10702   2.593   9.686  13.619  0.1272 -0.2967 -0.1212
 6503W        W10703   7.717   4.901   9.602  0.2422  0.0468  0.0457
 6504W        W10704  10.054   0.527   2.587  0.2366 -0.1087 -0.2105
 6505W        W10705   5.468   9.333   0.440  0.1710 -0.2846 -0.0757
 6506W        W10706   5.415   9.559   3.141  0.2397  0.2496 -0.0048
 6507W        W10707   4.078   5.530   9.079 -0.0518  0.0401  0.3504
 6508W        W10708   3.454   8.231   3.387  0.1119  0.6981  0.3341
 6509W        W10709   4.131   7.373   4.315  0.0191 -0.0145  0.0560
 6510W        W10710   5.188   6.613  11.276 -0.2471 -0.1639 -0.1992
 6511W        W10711   7.811   1.875  10.262 -0.2394  0.0249  0.0061
 6512W        W10712   9.207   1.009  11.899  0.2265  0.1848 -0.0121
 6513W        W10713   6.030   1.568   0.214  0.0386  0.2610  0.0122
 6514W        W10714   4.907   0.523  13.430 -0.1381  0.1394 -0.1097
 6515W        W10715   5.536   6.163   3.739 -0.0472 -0.0609  0.0094
 6516W        W10716   3.443   4.330   2.013 -0.0622  0.0995 -0.0582
 6517W        W10717   0.961   9.904   9.124  0.0435 -0.0973  0.1556
 6518W        W10718   5.832   1.246   1.656  0.3328  0.0686 -0.0706
 6519W        W10719   0.719   5.869   2.751  0.2806 -0.3715  0.1601
 6520W        W10720   5.911   6.056   1.725  0.0872  0.1852  0.0014
 6521W        W10721   0.504   0.762  12.971 -0.1353  0.0836  0.0568
 6522W        W10722   3.931   3.980  12.973  0.3230  0.2681 -0.1842
 6523W        W10723   7.932   1.074   3.537 -0.2186 -0.1710  0.1850
 6524W        W10724   2.632   2.358  12.215 -0.1027  0.5003 -0.0493
 6525W        W10725   1.846   0.986   0.640 -0.0194  0.1853 -0.1829
 6526W        W10726   1.067   8.419   3.537 -0.1468 -0.2976  0.1555
 6527W        W10727   2.695   0.732  13.343 -0.0844 -0.0396 -0.1330
 6528W        W10728   6.653   4.545   3.902  0.0556  0.1917 -0.2212
 6529W        W10729   1.054   5.472   1.707  0.0074 -0.2075 -0.0074
 6530W        W10730   5.947   5.179  11.148 -0.1372 -0.1402 -0.1807
 6531W        W10731   8.963   9.862   1.088 -0.2738 -0.0107 -0.0563
 6532W        W10732   8.027   4.552   0.521  0.1477  0.2049 -0.5383
 6533W        W10733   8.812   1.361   8.906  0.0319 -0.3102 -0.1103
 6534W        W10734   3.291   9.624  10.642 -0.2615 -0.3244 -0.0900
 6535W        W10735   3.366   6.783  10.628 -0.0203  0.1605 -0.2356
 6536W        W10736   0.571   6.962   0.329 -0.0992  0.0755 -0.1026
 6537W        W10737   5.256   9.654  12.122  0.0580 -0.0881  0.1684
 6538W        W10738   9.412   8.633  10.851  0.0551  0.5798  0.3565
 6539W        W10739   2.135   7.014  12.056 -0.2785 -0.0310  0.0670
 6540W        W10740   6.402   8.206   2.465 -0.0578  0.5695  0.0306
 6541W        W10741   3.045   5.677   2.864  0.0947 -0.0810  0.1553
 6542W        W10742   8.123   6.701   3.714 -0.1646  0.1054  0.0641
 6543W        W10743   2.382   6.253   3.646 -0.2549 -0.4933 -0.0884
 6544W        W10744   7.345   4.637  12.373 -0.1959 -0.0681 -0.0951
 6545W        W10745   9.007   6.730   2.485 -0.0770 -0.3107 -0.2681
 6546W        W10746   7.825   2.017   9.237  0.0311  0.1721 -0.0582
 6547W        W10747   0.464   9.615   1.044 -0.2382 -0.0061 -0.1984
 6548W        W10748   7.568   6.849   1.417  0.0480 -0.0097 -0.1231
 6549W        W10749   4.151   9.793   0.373 -0.0413  0.0620  0.2509
 6550W        W10750   7.097   2.895  10.951  0.0332 -0.4420  0.1007
 6551W        W10751   2.775   7.226   3.267  0.0920  0.1777  0.1728
 6552W        W10752   5.884   1.105   0.397  0.0211 -0.2699 -0.3445
 6553W        W10753   1.091   7.367   3.466 -0.3562  0.3416  0.1214
 6554W        W10754   9.431   4.663   5.691 -0.0201  0.1285  0.1081
 6555W        W10755   6.908   5.273  10.703  0.1286 -0.2133 -0.1047
 6556W        W10756   8.098   8.486  12.533 -0.0004  0.0471 -0.0486
 6557W        W10757   6.749   2.620   9.399 -0.1574 -0.3382  0.3141
 6558W        W10758   4.380   8.659   9.405  0.1261  0.1368 -0.2799
 6559W        W10759   0.595   5.768  10.467 -0.1015  0.0592 -0.0792
 6560W        W10760   4.257  10.388  11.244  0.1135  0.1709 -0.0604
 6561W        W10761   2.411   4.460   9.852 -0.1703 -0.0908  0.2558
 6562W        W10762   5.493   5.185   0.550  0.1257  0.0482  0.1212
 6563W        W10763   6.896   2.364  12.608  0.1954  0.1371 -0.2107
 6564W        W10764   9.022   3.999   4.017  0.1680  0.1335  0.1874
 6565W        W10765   6.015   8.969  10.829 -0.1284  0.0125  0.0259
 6566W        W10766   0.964   6.741   8.802  0.0259 -0.0456  0.2428
 6567W        W10767   3.081   9.002  11.204 -0.2298  0.0267  0.5630
 6568W        W10768   3.743   3.309   0.008  0.1240  0.1077  0.0784
 6569W        W10769   9.696   5.903   3.381 -0.0298  0.2214 -0.2598
 6570W        W10770   1.101   7.659   3.014  0.1862  0.4523 -0.0579
 6571W        W10771   2.712   0.785   3.892  0.1138 -0.0034 -0.0114
 6572W        W10772   7.485   0.697  12.443 -0.4277 -0.0657 -0.2232
 6573W        W10773   4.513   6.296  13.172 -0.0910  0.0250  0.2143
 6574W        W10774   8.122   9.270   1.925  0.3549  0.1731 -0.1884
 6575W        W10775   8.722   5.380  10.786  0.0851  0.0464  0.2677
 6576W        W10776  10.346   2.279  13.046  0.0419  0.0972 -0.1530
 6577W        W10777   9.040   6.439   2.038  0.0666  0.0822  0.0853
 6578W        W10778   8.437   5.206   0.574 -0.0054 -0.2439 -0.0727
 6579W        W10779   3.431   7.644   0.508 -0.0089  0.2117 -0.2634
 6580W        W10780   8.667   4.699  11.067  0.3323  0.1551  0.2322
 6581W        W10781   7.906   7.218   0.970  0.1749  0.0056 -0.2455
 6582W        W10782   0.357   9.914   9.876 -0.0010  0.1736 -0.0636
 6583W        W10783   5.588   2.958   3.553 -0.1219  0.0793 -0.0613
 6584W        W10784   9.040   1.335   2.173 -0.1134 -0.1625  0.0616
 6585W        W10785   1.260   2.207   2.149 -0.1018  0.1692  0.0160
 6586W        W10786   5.431   3.668   2.741 -0.1582 -0.0329 -0.1812
 6587W        W10787   6.213   4.503   4.229 -0.1145 -0.0539 -0.2166
 6588W        W10788   1.952   6.086   3.199 -0.1566  0.2911 -0.0494
 6589W        W10789   2.185   5.914   1.633 -0.0416  0.0048  0.0395
 6590W        W10790  10.365   1.358  12.897 -0.1851  0.2771  0.0495
 6591W        W10791   3.314   3.301   2.113  0.0350  0.0437 -0.0193
 6592W        W10792   3.715   2.614  12.767 -0.0391  0.1169  0.2239
 6593W        W10793   5.451   4.850  10.290  0.1309 -0.0540 -0.2529
 6594W        W10794   3.629   7.857  12.394 -0.0611 -0.0716  0.0650
 6595W        W10795   1.947   4.485  11.214  0.0487 -0.1220  0.0502
 6596W        W10796   3.381   9.677   9.854 -0.2414  0.4430  0.1428
 6597W        W10797  10.272   6.894  12.380 -0.2642  0.1334  0.0626
 6598W        W10798   4.551   8.752  10.477  0.0827 -0.0466 -0.0199
 6599W        W10799   1.165   4.074   4.252  0.0167  0.2117 -0.0891
 6600W        W10800   5.049   6.648  12.670 -0.1026 -0.1865 -0.1478
 6601W        W10801   0.341   3.459   0.262  0.1152 -0.0602  0.1663
 6602W        W10802   5.332   8.795   1.858 -0.2237  0.1299  0.1804
 6603W        W10803   7.884   7.408   0.380 -0.2167  0.0327  0.1957
 6604W        W10804   0.798   4.177   2.163  0.1015 -0.1206 -0.3386
 6605W        W10805   7.409   5.462   2.114  0.3565 -0.3161  0.4662
 6606W        W10806   0.227   3.261  13.112 -0.1723  0.1615 -0.3099
 6607W        W10807   2.438   8.081   4.978 -0.0132 -0.0929 -0.0771
 6608W        W10808   4.748   1.274   8.715 -0.1465 -0.3715 -0.1845
 6609W        W10809   2.774   4.224   0.788 -0.3763  0.0176 -0.2381
 6610W        W10810   2.336   7.786   1.495 -0.0731  0.1991 -0.0868
 6611W        W10811   8.819   6.819   4.932  0.1418  0.0980 -0.2548
 6612W        W10812   4.838   0.541  11.995  0.0478 -0.1378  0.1165
 6613W        W10813  10.214   6.597  10.598 -0.2217  0.0344  0.0429
 6614W        W10814   7.911   5.590   1.452 -0.0375  0.0400 -0.0617
 6615W        W10815   3.784   8.969   0.530 -0.0885  0.3760 -0.3044
 6616W        W10816   5.101   5.712   8.623 -0.0089 -0.0650  0.3432
 6617W        W10817   4.199   3.867   0.629  0.0525 -0.0071 -0.2667
 6618W        W10818   7.142   6.297   9.210 -0.3493 -0.0861  0.0064
 6619W        W10819   5.835   5.883  12.605 -0.1748 -0.0543  0.1149
 6620W        W10820   2.119   3.983   2.272  0.2788 -0.0388 -0.0339
 6621W        W10821   0.168   7.321  12.234  0.0603 -0.1166 -0.1208
 6622W        W10822   5.684   9.885   0.341 -0.0368 -0.0223  0.0655
 6623W        W10823   3.673   8.969  11.017 -0.0019 -0.2934  0.1351
 6624W        W10824   8.349   5.447  12.076 -0.1711  0.1112 -0.1735
 6625W        W10825  10.292   0.750   3.424 -0.3691  0.0430 -0.3406
 6626W        W10826   2.483   3.622   4.649 -0.1204 -0.1492  0.0816
 6627W        W10827   0.688   2.170   1.416 -0.1874 -0.0184 -0.1648
 6628W        W10828   2.841   7.792  10.075 -0.2667 -0.1438  0.4507
 6629W        W10829   1.939   2.443  13.131 -0.2646  0.1638 -0.3040
 6630W        W10830   4.105  10.325   0.322  0.0899 -0.1176 -0.4428
 6631W        W10831   3.156   2.885   1.793  0.0507  0.2538  0.1435
 6632W        W10832   6.958   4.137   9.659 -0.0194  0.0779  0.5101
 6633W        W10833   3.033   2.010   9.404 -0.0499 -0.0587  0.0806
 6634W        W10834   1.453   0.265   8.897  0.1793 -0.2453 -0.0092
 6635W        W10835   2.218   4.168   9.540 -0.0187 -0.1540  0.5051
 6636W        W10836   3.746   7.617   1.651  0.0950  0.0423  0.0388
 6637W        W10837   9.765   8.611   8.702  0.2625  0.1721  0.0756
 6638W        W10838   3.510   8.146   0.690  0.1328  0.3271 -0.1512
 6639W        W10839   3.310   1.281  12.936 -0.0446  0.0436  0.0545
 6640W        W10840   7.489   4.962  13.532 -0.1965 -0.1959  0.1411
 6641W        W10841   8.972   0.544   1.969 -0.0540  0.0978 -0.2474
 6642W        W10842   5.286   2.324   9.499  0.0952 -0.1426  0.2662
 6643W        W10843   9.887   2.735   3.588 -0.0983  0.0324 -0.2163
 6644W        W10844   9.613   3.238   4.556 -0.3826  0.1945 -0.0157
 6645W        W10845   0.421   7.652   4.266  0.4498 -0.2935 -0.0739
 6646W        W10846   4.902   2.058   4.026 -0.2102  0.2689  0.1125
 6647W        W10847   3.348   1.732  11.988 -0.1608 -0.0037  0.4517
 6648W        W10848   0.916   2.043   4.720 -0.1225 -0.0361  0.1052
 6649W        W10849   6.542   0.929  13.464 -0.0527  0.2208  0.1534
 6650W        W10850   2.663   1.352  11.297 -0.0742  0.0774  0.1756
 6651W        W10851   6.801   9.459  12.466 -0.2570  0.2189  0.1483
 6652W        W10852   2.956   2.915   9.866 -0.0188 -0.3298  0.0357
 6653W        W10853   3.840   2.497   8.535  0.2113 -0.0336  0.0727
 6654W        W10854   0.888   3.260   3.778  0.0386  0.0965  0.0045
 6655W        W10855   0.327   7.265   3.081 -0.0688 -0.2508 -0.0868
 6656W        W10856   3.173   0.106   1.389 -0.2698  0.0552  0.0254
 6657W        W10857   2.221  10.158   9.633  0.1876 -0.1627 -0.0604
 6658W        W10858   0.297   6.046  11.327  0.0205 -0.5630  0.0281
 6659W        W10859   6.463   0.536   2.005  0.0144 -0.0663 -0.0989
 6660W        W10860   5.052   0.141   0.071 -0.1868  0.1201 -0.3693
 6661W        W10861   3.308   7.645  11.856 -0.3697  0.1689 -0.3358
 6662W        W10862   5.462   8.798  11.634  0.0471 -0.0635 -0.2475
 6663W        W10863   8.796   9.653  10.627 -0.2766  0.1654  0.0499
 6664W        W10864   5.845   9.718   1.168 -0.0145  0.1580  0.6821
 6665W        W10865   5.773   7.287  13.640  0.1410 -0.0559 -0.4811
 6666W        W10866   3.100   5.956   0.821  0.1355  0.2838  0.0559
 6667W        W10867   3.348  10.399   0.022  0.1273  0.1105 -0.0335
 6668W        W10868   7.556  10.126  10.500  0.1946 -0.1050  0.0689
 6669W        W10869   6.502   4.205   0.959  0.1950  0.3428  0.1502
 6670W        W10870   9.610   2.597   4.493  0.0815  0.4784 -0.0063
 6671W        W10871   5.179   2.444   0.338 -0.1662  0.3751 -0.0528
 6672W        W10872   9.321   5.876   4.817  0.3539 -0.0317 -0.3875
 6673W        W10873   6.299   5.105   1.621  0.5457  0.1330 -0.2118
 6674W        W10874   3.902   2.376  10.589 -0.0107 -0.2137  0.0782
 6675W        W10875   7.229   4.054   3.285 -0.1727  0.0586 -0.1439
 6676W        W10876   4.992   4.486  11.847 -0.1513 -0.1063 -0.2267
 6677W        W10877   8.427   8.869   2.000  0.1554  0.0588 -0.1507
 6678W        W10878   6.987   6.150   3.426 -0.0972 -0.2086  0.4812
 6679W        W10879   5.229   5.243  12.961  0.2641  0.5487  0.2301
 6680W        W10880   7.567   2.381   9.560  0.1012 -0.2283  0.0415
 6681W        W10881   9.628   9.446  10.774 -0.1879  0.0270  0.3947
 6682W        W10882   8.490   4.729   0.548 -0.3244 -0.0431  0.4569
 6683W        W10883   3.360   3.874   2.945  0.0883  0.3120  0.3976
 6684W        W10884   6.760   0.372   3.138  0.2793 -0.1496 -0.3260
 6685W        W10885   3.354   2.384   1.017 -0.1531 -0.3348  0.0142
 6686W        W10886   7.925   5.346   4.490  0.0757 -0.1298 -0.0499
 6687W        W10887   7.124   4.509  10.978  0.1628  0.0422  0.1942
 6688W        W10888   4.226   2.123   2.488 -0.0614 -0.3872  0.0863
 6689W        W10889   4.976   8.108   0.287  0.3499 -0.2596  0.1591
 6690W        W10890   7.478  10.102  12.888 -0.1887  0.0181  0.2179
 6691W        W10891   8.566   4.287  13.409  0.3437  0.4179 -0.0494
 6692W        W10892   2.828   5.957  11.149  0.2728  0.0740  0.1787
 6693W        W10893   4.285   8.502   2.624 -0.0787 -0.0298  0.2479
 6694W        W10894   5.907   0.774  11.749 -0.2382  0.2966  0.3594
 6695W        W10895   9.530   7.916  13.194 -0.1727 -0.1556  0.1986
 6696W        W10896  10.294  10.088  11.267  0.0708  0.1687 -0.2830
 6697W        W10897   3.752  10.103   0.035 -0.0912 -0.4882  0.0362
 6698W        W10898   6.257   6.284   9.207  0.1743 -0.4746 -0.0363
 6699W        W10899   0.774   2.080   2.493  0.4272  0.3425 -0.3486
 6700W        W10900   1.851   4.568  10.275 -0.2387 -0.1097  0.3333
 6701W        W10901   1.153   2.270   0.888  0.0618  0.4735 -0.0495
 6702W        W10902   3.771   9.338   2.422  0.0316 -0.1749 -0.1221
 6703W        W10903   0.128   8.588  13.464  0.2187  0.1829  0.1593
 6704W        W10904   1.258   2.744   3.588 -0.1061  0.2095 -0.0962
 6705W        W10905   1.212   5.701  12.108 -0.1968  0.0444  0.0256
 6706W        W10906   8.299   4.827  13.258 -0.1685  0.3490  0.0232
 6707W        W10907   5.943   4.404   3.214  0.1733  0.0930 -0.0066
 6708W        W10908   3.131   7.290   2.874 -0.0156 -0.2425  0.1822
 6709W        W10909   0.118   7.908   2.069  0.3729 -0.1375 -0.1844
 6710W        W10910   9.005   7.555   2.149 -0.1053 -0.0916 -0.0942
 6711W        W10911   6.542   8.211   0.532 -0.2386 -0.0070 -0.1289
 6712W        W10912   7.723   0.863   1.948 -0.0600 -0.1012 -0.3021
 6713W        W10913   6.152   8.325  11.268  0.0279 -0.1577  0.1701
 6714W        W10914   9.230   6.574  10.471  0.2511  0.0035 -0.2857
 6715W        W10915   5.118   2.264  10.024  0.0896  0.2359  0.0703
 6716W        W10916   7.236   9.040  10.157  0.2689  0.5410  0.0980
 6717W        W10917   9.104   9.321  10.911 -0.5759 -0.1296  0.0826
 6718W        W10918   5.277   8.726   3.348  0.2756  0.1826  0.3168
 6719W        W10919   7.134   3.702   3.663  0.0338  0.1435  0.1095
 6720W        W10920   8.722   2.282   4.437 -0.0182 -0.2468  0.1523
 6721W        W10921   9.166   0.299  10.844 -0.1196  0.0546  0.0100
 6722W        W10922   6.653   3.152   0.153  0.0542 -0.0991 -0.0580
 6723W        W10923   8.774   3.556   0.883  0.1244  0.0161  0.0159
 6724W        W10924   2.073   4.493   1.532 -0.0717 -0.1314 -0.1399
 6725W        W10925   3.935   1.812   3.735  0.1072  0.1717 -0.0930
 6726W        W10926   7.423   7.667   0.874 -0.0438 -0.0539  0.4545
 6727W        W10927   3.891   3.460   9.733  0.3118 -0.2477  0.2156
 6728W        W10928   1.672   7.454  13.228 -0.0267 -0.1815 -0.0089
 6729W        W10929   5.662   4.985  12.143 -0.0652 -0.1797 -0.4296
 6730W        W10930   3.495   3.365   9.207 -0.0144 -0.0868 -0.3203
 6731W        W10931   7.676   4.161  10.063 -0.0414 -0.1672  0.2009
 6732W        W10932   3.912   5.568   2.812  0.1674  0.0599 -0.1517
 6733W        W10933   4.980  10.358  11.776  0.0327  0.0037  0.0016
 6734W        W10934   7.785   6.456   2.601 -0.1656  0.0845 -0.1204
 6735W        W10935   2.427   5.745  10.963  0.0939  0.1403 -0.0240
 6736W        W10936   8.750   5.472   0.266  0.2657  0.2050 -0.0967
 6737W        W10937   0.919   3.485   4.213 -0.5645 -0.2262 -0.2630
 6738W        W10938   7.089   2.526   1.355 -0.1908 -0.2391 -0.0555
 6739W        W10939   8.530   3.277   3.454  0.0262 -0.0045 -0.0685
 6740W        W10940   0.917   7.310   1.220  0.1343 -0.0380 -0.1598
 6741W        W10941   2.637   4.550   4.060  0.1674  0.0096 -0.0866
 6742W        W10942   7.606   7.719   1.330  0.0396 -0.1251  0.0379
 6743W        W10943   7.418   0.024  10.913 -0.3941 -0.3320  0.0486
 6744W        W10944   5.864   1.108  13.559  0.2914 -0.1308 -0.1034
 6745W        W10945   3.705  10.267   1.621  0.2246 -0.2336 -0.2052
 6746W        W10946   2.528   6.411   4.573  0.0618  0.1388 -0.1009
 6747W        W10947   1.746   9.743   3.025 -0.3691  0.0268 -0.0558
 6748W        W10948   0.133   6.093   1.349  0.2672 -0.0644  0.0315
 6749W        W10949   0.373   9.859  13.569  0.0811  0.0562  0.1021
 6750W        W10950   8.378   4.497  11.477  0.1513 -0.1146 -0.1867
 6751W        W10951   0.001   1.136  10.057  0.0632 -0.1086 -0.0461
 6752W        W10952   6.389   8.305   3.474 -0.0610 -0.2014  0.1133
 6753W        W10953   6.471   4.112  11.258  0.2532 -0.2562 -0.0896
 6754W        W10954   9.556   2.141  12.445 -0.0990  0.1164 -0.1693
 6755W        W10955   2.777   7.320  13.586  0.1603 -0.0738 -0.1734
 6756W        W10956   2.667   6.448   1.889  0.2612 -0.2050 -0.1025
 6757W        W10957   2.436   7.266   0.685  0.2149  0.0048  0.2055
 6758W        W10958   6.514   5.128  10.431  0.1879 -0.3811 -0.0852
 6759W        W10959   5.459   1.280   0.709  0.2773  0.2488 -0.0448
 6760W        W10960   0.441   4.428   8.362 -0.0317 -0.1118 -0.3657
 6761W        W10961   7.545   6.906   2.407 -0.1112  0.0602 -0.1825
 6762W        W10962   3.956  10.283  10.751  0.1691  0.2129  0.2870
 6763W        W10963  10.253   6.855   0.303  0.0701  0.1939 -0.0586
 6764W        W10964   5.684   7.756  12.012  0.0838 -0.1168  0.3223
 6765W        W10965   9.928   9.801  11.007 -0.1493 -0.2195  0.0735
 6766W        W10966   8.164   1.820  13.078 -0.0105  0.0720  0.0795
 6767W        W10967   1.944   6.872  12.482  0.0930  0.0545 -0.2061
 6768W        W10968   8.285   5.050   3.258  0.0116 -0.1397 -0.0262
 6769W        W10969   3.066   0.759   4.251  0.1412 -0.3750  0.1799
 6770W        W10970   4.475   0.724  13.270  0.1458 -0.1236 -0.2529
 6771W        W10971   1.627   3.181   2.743 -0.0939  0.1151  0.2800
 6772W        W10972   9.232   6.215  13.573  0.2955 -0.2054  0.2507
 6773W        W10973  10.078  10.075   1.018 -0.0578 -0.0645 -0.0093
 6774W        W10974   4.888   4.944  11.989 -0.2603 -0.2906 -0.4157
 6775W        W10975   4.656   0.860   0.672  0.1149 -0.2568  0.2285
 6776W        W10976   1.944   4.324  13.487 -0.2529 -0.2431 -0.3449
 6777W        W10977   2.483   1.620   9.355 -0.0758  0.3507 -0.1261
 6778W        W10978   1.616   1.636  12.896  0.0805 -0.1783 -0.1122
 6779W        W10979   1.547   0.541   2.472 -0.0881  0.3043 -0.1149
 6780W        W10980   4.528   7.767   9.444 -0.1346 -0.0650  0.0970
 6781W        W10981   2.087   0.668   2.838  0.0804 -0.1893  0.2827
 6782W        W10982   9.134   6.296   2.637 -0.1281  0.2737  0.0589
 6783W        W10983   4.774   3.167   9.538 -0.1744  0.2698 -0.0425
 6784W        W10984   2.261   1.627   4.089 -0.0441  0.1673 -0.2826
 6785W        W10985   2.870   7.299  10.580 -0.2893  0.2301  0.3319
 6786W        W10986   7.254   7.286  13.491 -0.2481  0.3842 -0.0419
 6787W        W10987   8.455   6.251  12.676 -0.0277  0.2359  0.0505
 6788W        W10988   0.606   5.392  13.597  0.2751  0.2431 -0.1886
 6789W        W10989   5.403   0.997  10.647  0.0390  0.0628  0.1150
 6790W        W10990  10.116   7.852  13.564  0.0753 -0.0527  0.3521
 6791W        W10991   5.304   5.688   9.890  0.1244 -0.2491  0.0505
 6792W        W10992   8.831   2.109   1.071  0.0260  0.0683  0.0119
 6793W        W10993   7.070   2.211   1.773  0.0278 -0.2210  0.2841
 6794W        W10994   0.060   3.588  13.549  0.0883  0.0985  0.0676
 6795W        W10995   8.566   4.666   4.544  0.2681  0.5461 -0.0983
 6796W        W10996   8.989   7.774   2.713 -0.1218 -0.1634  0.0235
 6797W        W10997   1.281   7.736   1.337 -0.0116 -0.0071 -0.3093
 6798W        W10998   1.118   1.613   8.154  0.0719 -0.0275 -0.0113
 6799W        W10999   3.369   8.174   4.823  0.0315 -0.1268 -0.5197
 6800W        W11000   3.640   5.643   2.365 -0.0876 -0.2673  0.1845
 6801W        W11001   7.198   1.200   0.978 -0.1498  0.0390  0.0765
 6802W        W11002   4.028   5.781  12.720 -0.0181 -0.0008 -0.0149
 6803W        W11003   2.859   8.196   2.856 -0.2047 -0.0171 -0.0420
 6804W        W11004   6.747   7.518   0.268 -0.1941  0.1590  0.0081
 6805W        W11005   4.230   4.967   9.937 -0.1038  0.0429 -0.0304
 6806W        W11006   4.747   7.299   2.023 -0.1403 -0.2438  0.1318
 6807W        W11007   3.861   2.600   0.081 -0.0928  0.1919  0.1378
 6808W        W11008   3.192   7.183   9.317 -0.0741 -0.0594 -0.0738
 6809W        W11009   4.694   2.687   3.146  0.1892 -0.0108  0.4253
 6810W        W11010   8.134   9.754   3.397 -0.1736  0.1810  0.3176
 6811W        W11011   4.242  10.249   3.860 -0.1702 -0.0879 -0.1802
 6812W        W11012   8.097   6.368   2.069 -0.1289  0.1690 -0.2169
 6813W        W11013   4.025   0.860   0.108 -0.0288 -0.0679  0.1667
 6814W        W11014   2.445   7.020  12.600 -0.0658 -0.0747  0.0217
 6815W        W11015   2.854   7.277  10.075  0.1021  0.1227  0.2541
 6816W        W11016   4.297   3.717  12.142 -0.3917  0.2308 -0.0882
 6817W        W11017   5.892   8.100  11.629  0.0233 -0.2302 -0.0778
 6818W        W11018   0.464   7.158   9.623 -0.0572 -0.2304 -0.2478
 6819W        W11019  10.240   1.028  12.122 -0.2549  0.2173 -0.1657
 6820W        W11020   0.162   0.898   8.936  0.0447 -0.0120  0.2176
 6821W        W11021   8.856   3.593  12.733  0.0518  0.0983  0.0046
 6822W        W11022   8.468   1.520   3.998 -0.2734  0.0143 -0.1460
 6823W        W11023   9.939   7.720   1.260 -0.1130  0.1174  0.1177
 6824W        W11024   8.710   5.964   0.208  0.0397 -0.1055 -0.3130
 6825W        W11025   3.792   0.881  11.914  0.2977  0.0117 -0.1550
 6826W        W11026  10.228   2.156   8.609 -0.0056  0.1177 -0.0129
 6827W        W11027   9.371   1.630   2.405  0.0635  0.0457  0.2491
 6828W        W11028   8.826   1.648  12.570 -0.0195 -0.1766 -0.2787
 6829W        W11029   9.495   0.019   2.776  0.1066 -0.1353 -0.0733
 6830W        W11030   9.004   1.304  12.275  0.0046  0.1247 -0.0641
 6831W        W11031   0.447   3.667   4.841  0.1061  0.0751 -0.1903
 6832W        W11032   8.585   8.999   0.921 -0.2034 -0.2788  0.1274
 6833W        W11033   1.632   9.372  11.273 -0.3587 -0.1578 -0.0876
 6834W        W11034   5.874   2.808  10.665 -0.0237 -0.0084 -0.0389
 6835W        W11035   7.594   4.748  11.911  0.7723 -0.0033 -0.0988
 6836W        W11036   0.466   1.525   8.670  0.0092 -0.2831 -0.0865
 6837W        W11037   7.634   7.390  12.809 -0.3997 -0.2673  0.2029
 6838W        W11038   8.906  10.122  11.537  0.0258  0.1565  0.2126
 6839W        W11039   6.797   9.104  13.343  0.0984 -0.4517  0.0346
 6840W        W11040   8.499   9.062  11.760 -0.3647  0.0628  0.4361
 6841W        W11041   7.885   5.863  13.425 -0.0483  0.0171  0.3242
 6842W        W11042   1.154   0.021   3.172 -0.2755  0.0620 -0.1681
 6843W        W11043   9.927   8.926  12.499  0.0064 -0.0488  0.0956
 6844W        W11044   9.374   7.660   3.113  0.1557  0.1264 -0.1360
 6845W        W11045   1.741   3.631   3.609  0.1172  0.1190 -0.1124
 6846W        W11046   7.392   0.926   0.042  0.1227  0.0175 -0.0555
 6847W        W11047   5.077   3.133   0.825  0.0692  0.3115 -0.0312
 6848W        W11048   3.531   5.312   9.065 -0.0757 -0.0095  0.0031
 6849W        W11049   8.551   5.420   2.338 -0.3199  0.1626  0.0858
 6850W        W11050   8.514   5.551  12.547 -0.0202  0.1866 -0.2821
 6851W        W11051   8.685   6.213  11.757 -0.0133  0.1890 -0.1577
 6852W        W11052   1.596  10.192   8.946 -0.0876  0.1983  0.0981
 6853W        W11053   6.256   2.519  10.772 -0.2163  0.1114 -0.2638
 6854W        W11054   9.058   1.278   9.930 -0.0029 -0.5580  0.0620
 6855W        W11055   6.649   6.950  12.005  0.1088 -0.1054 -0.1331
 6856W        W11056   7.684   8.681   1.780 -0.0357  0.0656  0.2220
 6857W        W11057   0.040   1.779   0.337  0.0640  0.2735  0.0194
 6858W        W11058   1.706   4.799  13.278 -0.2171 -0.0606  0.2619
 6859W        W11059   0.040   6.435   2.190 -0.0326 -0.1356 -0.1894
 6860W        W11060   4.490   0.239  13.526 -0.1715  0.0517  0.3158
 6861W        W11061   2.833   1.037   3.402  0.0813  0.0050 -0.0773
 6862W        W11062   7.357   8.636   1.362 -0.0676 -0.0873 -0.0779
 6863W        W11063   4.821   3.132  11.821 -0.1874  0.0590 -0.1287
 6864W        W11064   0.113   2.426   1.638  0.2476 -0.1326 -0.2795
 6865W        W11065   4.969   1.222  12.581 -0.2024 -0.0149  0.3189
 6866W        W11066   8.074   7.695   2.843 -0.1689 -0.0425  0.0695
 6867W        W11067   9.029   1.317  12.865  0.0063 -0.1166 -0.1234
 6868W        W11068   2.824   1.681   4.660  0.2487  0.1485  0.1137
 6869W        W11069   7.856   0.714   2.560  0.0021 -0.0527  0.0382
 6870W        W11070   0.642   7.278  11.974  0.0530 -0.0654 -0.0782
 6871W        W11071   3.772   1.492  10.608 -0.0304  0.2154 -0.1359
 6872W        W11072   7.015   7.729  13.562  0.0167  0.0248 -0.3019
 6873W        W11073   5.006   8.686   3.864 -0.2223 -0.2675  0.0067
 6874W        W11074   8.447   6.615   4.712 -0.4185 -0.1383 -0.0446
 6875W        W11075   7.923   0.931  11.520 -0.1317  0.1315  0.0864
 6876W        W11076   1.482   2.078   0.549 -0.1233 -0.0236  0.1915
 6877W        W11077   1.939   1.303  13.028  0.2681  0.3329  0.2314
 6878W        W11078   9.484   8.674  12.332 -0.1875  0.0514 -0.3380
 6879W        W11079   1.697   7.639   3.680 -0.1264  0.2912  0.1793
 6880W        W11080   3.026   1.936  12.415 -0.2109  0.0671 -0.0384
 6881W        W11081   2.806   7.657   0.243 -0.0851 -0.0214  0.0365
 6882W        W11082   5.393   5.339  11.845  0.0157 -0.1139 -0.1467
 6883W        W11083   2.887   3.245   0.107 -0.1896  0.1704  0.3598
 6884W        W11084   6.481   5.954  10.885  0.0539  0.0301  0.3184
 6885W        W11085   7.661   1.417  10.302  0.0055 -0.2804  0.0852
 6886W        W11086   5.899   8.444   9.963  0.3800  0.0290  0.0820
 6887W        W11087   3.536   0.813  12.320 -0.1459  0.1396 -0.1160
 6888W        W11088   6.585   9.279  10.865 -0.0013 -0.2330  0.2663
 6889W        W11089   7.333   6.766   5.085 -0.1524  0.2169  0.0638
 6890W        W11090   5.237   7.053  13.020 -0.3479  0.2754 -0.0810
 6891W        W11091   2.315   6.057   2.189 -0.4512 -0.1362  0.3355
 6892W        W11092   2.166   6.405   1.830 -0.1165  0.4694 -0.2676
 6893W        W11093   8.556   0.591   0.367 -0.1897 -0.1342 -0.0712
 6894W        W11094   9.557   7.330  10.724  0.0878 -0.0035 -0.3798
 6895W        W11095  10.082   9.308  11.238 -0.1634 -0.0607  0.1703
 6896W        W11096   7.809   5.113   1.238 -0.1001 -0.1505 -0.1577
 6897W        W11097   3.556   7.765   3.657  0.1448  0.0270 -0.1100
 6898W        W11098   3.787   1.426   1.815 -0.2486  0.3046 -0.1712
 6899W        W11099   4.462   2.697   2.705  0.0147 -0.0199  0.1008
 6900W        W11100   1.408   7.887   0.113  0.1146 -0.1108  0.1348
 6901W        W11101   2.017   6.170   5.029  0.1467  0.1580  0.1776
 6902W        W11102   4.349   1.307  12.567 -0.1952  0.1324 -0.1264
 6903W        W11103   6.594   5.411  11.909  0.4181  0.2536  0.1444
 6904W        W11104   4.768   0.705   3.516  0.1037 -0.3652  0.0165
 6905W        W11105   6.734   4.967  11.735  0.0897 -0.1197 -0.0384
 6906W        W11106   3.577   8.932   8.118  0.2718 -0.0381 -0.3845
 6907W        W11107   3.109   6.647   9.208 -0.1859  0.0268 -0.1654
 6908W        W11108   7.386   8.391  10.240  0.1652 -0.2636  0.0395
 6909W        W11109   3.313   7.348  10.812  0.1356 -0.1907 -0.0078
 6910W        W11110  10.387   1.752   8.897 -0.0562  0.1936 -0.1259
 6911W        W11111   9.622   7.946   9.631  0.0432  0.0205 -0.0716
 6912W        W11112   7.278   2.826  12.425  0.0270 -0.0261 -0.1421
 6913W        W11113   3.015   8.297   8.665  0.1003 -0.1079 -0.0604
 6914W        W11114   0.602   4.251   1.677 -0.0669  0.1451 -0.0408
 6915W        W11115   6.218   0.034  13.356  0.0159  0.0330 -0.0438
 6916W        W11116   4.579   2.853  13.031  0.1239 -0.0041  0.0516
 6917W        W11117   5.883   2.969  12.025  0.0627 -0.0165 -0.2099
 6918W        W11118   6.226   1.923  12.192  0.4361 -0.0478 -0.0407
 6919W        W11119   5.730   3.333  12.316 -0.1096 -0.2595 -0.2769
 6920W        W11120   3.991   8.439  11.854 -0.0300 -0.0462 -0.3626
 6921W        W11121   9.684   4.660  11.003  0.1752 -0.0639  0.0700
 6922W        W11122   0.405   4.784   3.412 -0.1503  0.1585 -0.0295
 6923W        W11123   1.200   2.451   2.628 -0.0131  0.1152  0.2303
 6924W        W11124   7.393   0.249   0.970 -0.3710 -0.0802 -0.0374
 6925W        W11125   2.644   3.717  13.466 -0.3034  0.0989  0.0005
 6926W        W11126   5.451   1.817   0.974 -0.0510 -0.0558 -0.0614
 6927W        W11127   0.910   9.005  10.212 -0.0960 -0.3162 -0.5716
 6928W        W11128   7.680   8.101   1.028  0.0310  0.0929 -0.0291
 6929W        W11129   3.975   2.903   2.330  0.2393 -0.1478  0.0437
 6930W        W11130   6.429   4.455   2.927 -0.2938  0.0898  0.0793
 6931W        W11131   0.064   8.978   0.748 -0.2136 -0.0053 -0.0778
 6932W        W11132   5.718   0.125  11.111  0.2565  0.0872  0.0394
 6933W        W11133   1.817   4.801  11.990  0.0972 -0.4418 -0.2295
 6934W        W11134   5.373  10.186  12.130 -0.0357 -0.3533 -0.1674
 6935W        W11135  10.298   4.390  12.202 -0.0287 -0.0296 -0.0313
 6936W        W11136   9.183   9.801   0.540  0.2304  0.1377 -0.4520
 6937W        W11137   4.014   2.787  12.397  0.3244 -0.0663 -0.0277
 6938W        W11138   5.687   4.754   9.360 -0.1236 -0.4088  0.2397
 6939W        W11139   7.814   1.788  12.687  0.0381  0.1308  0.2610
 6940W        W11140   3.671   6.577   0.684 -0.2860  0.0956 -0.0050
 6941W        W11141   6.581   7.265   1.463  0.1428 -0.2332  0.2356
 6942W        W11142   2.307   4.142  13.225  0.0411 -0.1032 -0.2152
 6943W        W11143   9.082   7.389  12.836 -0.0974 -0.2031  0.0815
 6944W        W11144   9.991   5.764   0.868 -0.2916  0.0963  0.2663
 6945W        W11145   4.236   4.784  11.310 -0.1609  0.2361 -0.3103
 6946W        W11146   6.710   9.632   9.775 -0.0065  0.0639  0.2071
 6947W        W11147   5.912   1.441   3.534 -0.1647  0.1451  0.1492
 6948W        W11148   4.247   2.159   1.704  0.1016 -0.7443 -0.1102
 6949W        W11149   9.143   8.788   3.434 -0.2360  0.1788 -0.1813
 6950W        W11150  10.160   5.267  10.230  0.1134  0.3100  0.3937
 6951W        W11151   4.521  10.345   3.466 -0.0833 -0.0521 -0.1179
 6952W        W11152   6.691   4.648  10.796  0.3486  0.2687 -0.0888
 6953W        W11153   8.674   0.468   1.016  0.0288  0.0272  0.4130
 6954W        W11154   7.348   4.186  10.468  0.0002 -0.1629 -0.3266
 6955W        W11155   2.533   4.470   4.616  0.0103 -0.0319  0.1695
 6956W        W11156   4.402   1.745  11.669 -0.3473  0.1935 -0.1446
 6957W        W11157   2.845   6.135   3.695 -0.3214 -0.0706 -0.1764
 6958W        W11158   8.321   1.281   1.183 -0.0053  0.1320 -0.1955
 6959W        W11159   0.308   7.960   3.081 -0.2455  0.1659  0.0953
 6960W        W11160   1.778   9.337  12.663  0.2869 -0.1198  0.0038
 6961W        W11161   7.369   5.126  10.585  0.2977 -0.1062 -0.0611
 6962W        W11162   5.838   5.989   3.426  0.2906  0.3970 -0.1512
 6963W        W11163   3.720   3.290  10.885  0.0956 -0.0584  0.0194
 6964W        W11164   8.458  10.371   0.295  0.0026 -0.0863 -0.1251
 6965W        W11165   2.816   8.202  12.865  0.3129 -0.1842  0.0304
 6966W        W11166   5.609   3.096   2.099 -0.2667  0.0676 -0.2021
 6967W        W11167   6.531   1.685  13.034 -0.4935 -0.1217  0.2728
 6968W        W11168   8.336   2.113  10.979  0.0718  0.2984 -0.1872
 6969W        W11169   8.260   9.496  10.593 -0.0553 -0.0443  0.1826
 6970W        W11170   6.622   8.194  12.978 -0.5064 -0.0783  0.0896
 6971W        W11171   0.372   2.888  13.468  0.1756 -0.1057  0.2344
 6972W        W11172   0.178   7.587  13.265 -0.3071  0.1164 -0.1442
 6973W        W11173   0.965   8.612   9.300  0.0659  0.2255  0.0363
 6974W        W11174   7.658   3.252  13.454  0.1935 -0.2095 -0.1562
 6975W        W11175   5.301   0.898  13.406  0.3038 -0.2022  0.1285
 6976W        W11176   8.501   3.709   9.719  0.0731  0.1730 -0.3080
 6977W        W11177   9.875   1.976   2.915  0.2995  0.1107  0.3242
 6978W        W11178   0.489   1.459  12.174 -0.1501  0.0933 -0.1151
 6979W        W11179   5.840   6.761  13.097 -0.2159  0.0204 -0.0858
 6980W        W11180   7.248   4.122  13.134 -0.0830  0.0867 -0.0898
 6981W        W11181   4.801   5.942   0.296  0.1110  0.2127 -0.1294
 6982W        W11182   6.468   1.192   0.236  0.1186  0.2611  0.2246
 6983W        W11183   0.764   3.224  11.855 -0.0836 -0.1701  0.0881
 6984W        W11184   0.632   8.500   2.643 -0.3708 -0.1651 -0.0457
 6985W        W11185   8.516   6.389   5.176 -0.0177 -0.0411  0.1494
 6986W        W11186   0.404   2.162   9.530 -0.1669 -0.1575 -0.1957
 6987W        W11187   8.343   8.513   3.549 -0.1442  0.0423 -0.2415
 6988W        W11188   0.407   4.280   4.354 -0.2059  0.0522 -0.3140
 6989W        W11189   3.579   9.488   4.047 -0.0863 -0.2916  0.2934
 6990W        W11190   9.088   3.125   2.779 -0.2115 -0.3202  0.4848
 6991W        W11191   8.470   4.386   4.967  0.2488  0.2162 -0.5883
 6992W        W11192   5.409   2.726   9.250 -0.2571 -0.1579 -0.1477
 6993W        W11193   9.195   1.601  10.385  0.2060 -0.2226  0.0429
 6994W        W11194   2.024   1.912   2.552  0.0289 -0.0160  0.0847
 6995W        W11195   8.836   3.771   8.434  0.0632  0.1406  0.3117
 6996W        W11196   2.200   0.783   9.051  0.0685 -0.1075 -0.2492
 6997W        W11197   1.825   1.483   0.610 -0.0491 -0.1746  0.5225
 6998W        W11198   1.977   9.921   0.491  0.0660 -0.0208  0.2634
 6999W        W11199   7.369   2.163   2.917  0.0483 -0.0239 -0.1816
 7000W        W11200   6.600   3.201   1.145  0.0981 -0.0491  0.0768
 7001W        W11201   2.421   0.587   1.233  0.1536  0.0180  0.1156
 7002W        W11202   6.165   9.072  11.772 -0.0353 -0.0508 -0.1350
 7003W        W11203   7.860   7.000   2.812 -0.0197  0.0600  0.0057
 7004W        W11204   0.621   1.200   1.468  0.2968 -0.1841 -0.0866
 7005W        W11205   1.790   8.001   4.139 -0.0247  0.0098 -0.1291
 7006W        W11206  10.304  10.093   0.009  0.1109  0.3048  0.0935
 7007W        W11207   1.228  10.043   4.139 -0.0233 -0.0922 -0.0140
 7008W        W11208   8.718   3.078   3.883 -0.2008  0.0784  0.0671
 7009W        W11209   1.528   6.467   4.281  0.0825 -0.0231  0.0745
 7010W        W11210   0.084   5.673   3.928 -0.0385  0.1019  0.0662
 7011W        W11211   5.733   1.054  12.358  0.2643  0.3152 -0.3599
 7012W        W11212   1.179   1.745  13.533 -0.1533 -0.2624  0.0098
 7013W        W11213   0.664   3.939  12.762  0.1188 -0.1830  0.0530
 7014W        W11214   4.659  10.243   0.231  0.3054  0.1078  0.0503
 7015W        W11215   3.804   4.574   1.695  0.2667  0.3840  0.2147
 7016W        W11216   4.744   4.931   5.408 -0.0180  0.2076  0.0428
 7017W        W11217   2.832   6.122  12.733 -0.3112 -0.2537 -0.0104
 7018W        W11218   7.691   0.758  10.986 -0.0150  0.0182 -0.2377
 7019W        W11219   3.183   2.337   4.863 -0.2327 -0.0218  0.1052
 7020W        W11220   2.056   9.436   0.469 -0.1111  0.1596 -0.0043
 7021W        W11221  10.155   8.090   9.486  0.1294 -0.2942 -0.1249
 7022W        W11222  10.186   2.994  13.059 -0.0451  0.2811  0.2568
 7023W        W11223   2.177   0.622  13.396 -0.0670  0.2236 -0.0504
 7024W        W11224   2.010   6.570   1.348 -0.0655  0.1327 -0.3702
 7025W        W11225   5.493   3.981   1.248 -0.2077 -0.0039  0.1196
 7026W        W11226   0.186  10.008   8.954 -0.0036  0.1681 -0.1044
 7027W        W11227   6.500   6.279  11.332 -0.0382  0.2433 -0.2548
 7028W        W11228   2.086   3.223   0.826  0.1111 -0.1139  0.4282
 7029W        W11229   2.890   9.809   9.819  0.0291  0.0621  0.0601
 7030W        W11230   4.112   7.529   9.604 -0.3036 -0.0428  0.2545
 7031W        W11231   7.892   0.055   0.089  0.1302 -0.2666 -0.2987
 7032W        W11232   1.724   7.397   4.191  0.1003  0.2233  0.1629
 7033W        W11233   5.954   3.910  11.211  0.0222  0.0154 -0.1974
 7034W        W11234   0.135   0.358   0.465 -0.0750 -0.1300  0.2373
 7035W        W11235   5.300   0.553   1.874 -0.2497  0.0922 -0.0413
 7036W        W11236   5.225   9.428  12.591 -0.1003 -0.2165 -0.1804
 7037W        W11237   9.253   0.848   2.282  0.1135 -0.1222 -0.1387
 7038W        W11238   7.888   3.049   1.242 -0.0143 -0.1864  0.2123
 7039W        W11239   1.923   3.251   2.239  0.0659  0.2100 -0.1319
 7040W        W11240   1.106   3.485  10.279 -0.0592 -0.3126 -0.0339
 7041W        W11241   4.701   8.930  13.293 -0.3035 -0.1161 -0.1092
 7042W        W11242   6.021   2.007   0.472 -0.1659  0.2304 -0.0256
 7043W        W11243   3.480   5.331  10.190  0.2990 -0.2158  0.0877
 7044W        W11244   6.868   8.579  10.959  0.1209  0.3832  0.4211
 7045W        W11245   9.965   4.451  13.143 -0.3787  0.0288 -0.1429
 7046W        W11246   3.755   2.960  11.948  0.1185  0.1432 -0.0415
 7047W        W11247   6.956   1.951  11.254 -0.1848  0.1801  0.1721
 7048W        W11248   0.920   9.974   4.635  0.0303  0.2779 -0.3147
 7049W        W11249   6.112   5.936   0.358 -0.1011  0.3242  0.1294
 7050W        W11250   4.685   3.959   0.605  0.1401  0.1099 -0.2069
 7051W        W11251   7.115   8.955   0.959  0.3596  0.1357 -0.0789
 7052W        W11252   3.721   5.578  11.706  0.1856  0.1655  0.1453
 7053W        W11253   3.968   6.390   1.418  0.4221 -0.3546  0.1280
 7054W        W11254   0.527   3.882  13.620 -0.1735 -0.4173 -0.1634
 7055W        W11255   7.711   7.253  10.611  0.0665  0.0571  0.1297
 7056W        W11256   9.657   6.906   1.368  0.2530 -0.3107  0.1279
 7057W        W11257   5.823   7.545   3.509  0.0381  0.4093  0.1347
 7058W        W11258   1.936   8.274  12.001  0.2693  0.1375  0.0598
 7059W        W11259   0.196   9.868   2.913  0.0384  0.2751  0.2269
 7060W        W11260   2.915   3.132   4.340 -0.2345  0.0223 -0.1228
 7061W        W11261   8.261  10.300  11.769 -0.2797  0.0926 -0.0969
 7062W        W11262   7.647   1.752  11.784 -0.0241 -0.1749 -0.5160
 7063W        W11263   1.866   5.588  12.901 -0.1512  0.1465 -0.0928
 7064W        W11264   9.705   4.410   1.224  0.0031  0.2646 -0.1510
 7065W        W11265   0.986   7.064   0.024  0.1663  0.2237 -0.1845
 7066W        W11266   5.153   6.550   3.836  0.0624 -0.1422  0.1563
 7067W        W11267   3.654   3.565  11.558  0.1234  0.2282  0.2021
 7068W        W11268   9.914   6.699  10.997 -0.1030 -0.0673  0.1565
 7069W        W11269   6.718   1.053   1.080  0.1062 -0.2338  0.0267
 7070W        W11270   5.394   7.635   9.798 -0.1010  0.0654  0.0558
 7071W        W11271   2.549   7.475   1.175  0.1871 -0.1812  0.2222
 7072W        W11272   3.028   1.929  10.735  0.0876 -0.2101 -0.0707
 7073W        W11273   6.355   1.506   1.515 -0.0413  0.0336 -0.1262
 7074W        W11274   5.694   4.993  10.698 -0.3016  0.0280 -0.0191
 7075W        W11275   9.529   4.452   0.754 -0.2698  0.2272 -0.2223
 7076W        W11276   3.309   4.284  10.170  0.1567  0.0442 -0.2308
 7077W        W11277   4.840   6.694  10.830 -0.3697 -0.0257  0.4336
 7078W        W11278   9.556   8.177  12.242 -0.0048  0.1980 -0.0848
 7079W        W11279   4.255   2.057   1.154  0.0281 -0.0740 -0.0605
 7080W        W11280   8.890   7.370   3.030 -0.1125 -0.0552  0.0903
 7081W        W11281   1.356   8.575   2.213  0.0352 -0.0748  0.0370
 7082W        W11282   1.028   0.839   1.547 -0.2944 -0.1098 -0.0434
 7083W        W11283   0.581   4.960   5.542  0.0596  0.2799  0.1575
 7084W        W11284   6.695   4.156   2.544  0.1979  0.0796 -0.2975
 7085W        W11285   6.544   9.331  12.003 -0.2877 -0.2469  0.0855
 7086W        W11286   3.349   2.506   8.681  0.1791 -0.2006  0.0906
 7087W        W11287   5.927   2.353  12.860  0.3780  0.2589  0.2230
 7088W        W11288   3.574   2.653   4.856 -0.0594 -0.2416  0.0096
 7089W        W11289   4.568  10.114  11.728 -0.1248 -0.0271 -0.1731
 7090W        W11290   1.540   1.189   9.704  0.2377  0.0916 -0.0672
 7091W        W11291   1.778   2.122  12.784 -0.0140 -0.1166 -0.0078
 7092W        W11292   6.568   5.528   1.429 -0.2752  0.0880  0.3348
 7093W        W11293   2.783   1.214   4.850 -0.0766  0.0719 -0.0885
 7094W        W11294   7.016   4.494   3.569  0.2363 -0.0098  0.3427
 7095W        W11295   2.202   5.765  12.029 -0.2574 -0.1974 -0.0109
 7096W        W11296   4.555   0.704   2.651 -0.1883 -0.0138 -0.0871
 7097W        W11297   4.427   9.802  13.108  0.2370  0.2119  0.1161
 7098W        W11298   2.602   4.558  13.080  0.2088  0.1601  0.0005
 7099W        W11299   6.834   9.696   1.330 -0.0597 -0.0287  0.1687
 7100W        W11300   6.813   8.658   3.528 -0.2902 -0.1923 -0.0284
 7101W        W11301   5.883   4.321   1.834 -0.0247 -0.0376  0.1180
 7102W        W11302   2.685   8.227   9.912 -0.0554  0.0782  0.1380
 7103W        W11303   0.228   4.115  11.244  0.2683 -0.4747 -0.0493
 7104W        W11304   6.985   0.293  13.297 -0.0515 -0.1434  0.1485
 7105W        W11305   3.158   9.659   0.626  0.6023 -0.0038  0.2192
 7106W        W11306   1.211   5.307   0.802  0.1983 -0.3526  0.2693
 7107W        W11307   9.269   4.669  10.368  0.1016 -0.1554 -0.1299
 7108W        W11308   6.920   1.869  10.709  0.1053  0.2129  0.1275
 7109W        W11309   0.722   2.994   3.356  0.6548 -0.0043 -0.0976
 7110W        W11310   4.081   6.165  10.623  0.3028  0.0028 -0.0153
 7111W        W11311   6.647   9.510   1.777  0.0059 -0.0637 -0.1920
 7112W        W11312   4.640   6.182  10.446 -0.2049 -0.1891 -0.1301
 7113W        W11313   2.089   9.347   1.458  0.0262 -0.2281  0.0552
 7114W        W11314   6.998   4.392   0.658 -0.2400  0.0653 -0.2300
 7115W        W11315   1.191   7.034  13.197  0.1069 -0.1118 -0.1528
 7116W        W11316   2.669   9.666   0.526 -0.0747  0.1328 -0.0820
 7117W        W11317   1.370   9.954   1.629 -0.0997  0.3212  0.2735
 7118W        W11318   1.304   9.048  12.937 -0.3122 -0.0370  0.0953
 7119W        W11319  10.294   3.462   1.156  0.1803 -0.0430 -0.2421
 7120W        W11320   1.421   5.248   1.351 -0.0570  0.0013 -0.5096
 7121W        W11321   9.583   2.468  10.079 -0.1146 -0.2396 -0.1043
 7122W        W11322   9.378   4.497  11.726 -0.0121 -0.0649 -0.1095
 7123W        W11323   8.204   4.300   4.275 -0.1220  0.0266 -0.2392
 7124W        W11324  10.399   7.461   1.345  0.1587  0.1548  0.1061
 7125W        W11325   7.951   1.475   4.092  0.0832  0.0681 -0.1501
 7126W        W11326   3.288  10.061   1.437  0.0407  0.1290 -0.0867
 7127W        W11327   8.416   4.057  12.946  0.4409  0.1394  0.1690
 7128W        W11328   1.985   3.759  10.271  0.1905  0.1676  0.0660
 7129W        W11329   3.964   6.176   2.901  0.1109 -0.2798  0.1569
 7130W        W11330   8.541   3.224   9.938 -0.0631 -0.1467 -0.0494
 7131W        W11331   5.051   7.812   9.264  0.0501  0.1155 -0.3052
 7132W        W11332   0.285   0.953   3.735 -0.2228 -0.0034 -0.1880
 7133W        W11333   1.342   7.499   2.253 -0.1677 -0.0400  0.0921
 7134W        W11334   2.653   2.667  11.138  0.1215  0.0288 -0.0279
 7135W        W11335   4.241   9.361  12.962 -0.0564  0.4102 -0.3814
 7136W        W11336   1.996   7.753   2.869 -0.2345  0.1315 -0.2013
 7137W        W11337   7.861   5.988   2.291  0.2105  0.2894  0.0912
 7138W        W11338   3.593   1.104   1.466 -0.3420  0.1652  0.0158
 7139W        W11339   4.648   3.719   9.296 -0.2001  0.2054 -0.0941
 7140W        W11340   9.541   3.459   9.504 -0.0186  0.1032 -0.1365
 7141W        W11341   8.982   3.924  11.459 -0.1400  0.1446 -0.1712
 7142W        W11342   9.380   3.328  12.720  0.0467 -0.1706  0.0013
 7143W        W11343   4.962   7.206  10.960  0.0654 -0.1029  0.1416
 7144W        W11344   2.846   0.676   2.314  0.0866 -0.1450  0.0333
 7145W        W11345   2.587  10.307   9.042 -0.2826 -0.1323  0.1218
 7146W        W11346   7.107   9.168   0.488  0.0443 -0.0437  0.0800
 7147W        W11347   9.157   3.064   3.665 -0.1978  0.0107  0.0695
 7148W        W11348   4.781   5.595   8.949 -0.0605  0.0102 -0.0822
 7149W        W11349   7.883   1.226   2.680 -0.0868  0.0143 -0.0109
 7150W        W11350   5.665   2.647  11.654  0.1629  0.4730 -0.1270
 7151W        W11351   8.210   9.291   0.698  0.1618  0.1525 -0.1770
 7152W        W11352   3.870   3.173   1.347 -0.1102 -0.0333 -0.0128
 7153W        W11353   0.540   3.366  10.337 -0.1120  0.1798 -0.2212
 7154W        W11354   5.718   5.080   2.557 -0.4193 -0.2516  0.2141
 7155W        W11355   9.896   7.019   3.040  0.1315  0.0143  0.2356
 7156W        W11356   0.090   5.822   5.194  0.0685 -0.2085 -0.0973
 7157W        W11357   1.200   2.361  11.573 -0.0241 -0.0287  0.0233
 7158W        W11358   7.844   2.846   2.699 -0.0045  0.0927  0.0391
 7159W        W11359   1.916   9.746   2.239  0.3294 -0.2331 -0.2111
 7160W        W11360   2.104   2.754   5.132  0.0412 -0.5867 -0.0137
 7161W        W11361   8.675   6.134   4.801 -0.0460 -0.1348 -0.2176
 7162W        W11362   3.396   4.937   1.818 -0.1729 -0.1868 -0.0039
 7163W        W11363   2.915   6.624  12.994 -0.1227 -0.3292  0.0170
 7164W        W11364   4.021   3.547   0.958 -0.1382 -0.1498 -0.2164
 7165W        W11365   6.099   7.057  12.814 -0.1527 -0.0329  0.0380
 7166W        W11366   7.452   0.764   0.973  0.3167 -0.1770 -0.0862
 7167W        W11367   7.987   6.011   3.502  0.0292  0.0965  0.0602
 7168W        W11368  10.268   0.779   0.292  0.0772 -0.1362  0.0710
 7169W        W11369   1.718  10.389  12.178  0.0523  0.0023  0.1652
 7170W        W11370   7.324   1.794  10.442 -0.2386 -0.1532  0.3451
 7171W        W11371   2.208   1.342  12.159  0.2879  0.1387 -0.3169
 7172W        W11372   8.385   1.419   1.776  0.2880 -0.0323  0.0558
 7173W        W11373   8.194   8.619  10.794  0.5082  0.2170  0.1194
 7174W        W11374   6.088   9.314  11.196 -0.0510  0.0914 -0.0774
 7175W        W11375   0.273   9.182   8.889  0.0085  0.1341  0.1477
 7176W        W11376   0.582   2.734   8.835 -0.1520 -0.2902 -0.0059
 7177W        W11377   5.201  10.354   9.869  0.0865 -0.2159  0.0358
 7178W        W11378   0.045   8.709  11.319 -0.2433  0.1123  0.3122
 7179W        W11379   2.809   8.094  13.553 -0.3170 -0.1812  0.0301
 7180W        W11380   3.713   3.237   3.122 -0.0535  0.1138  0.1608
 7181W        W11381  10.177   9.635   2.860  0.0210 -0.5084 -0.1518
 7182W        W11382   3.282   4.497  11.098 -0.3234 -0.0656 -0.1478
 7183W        W11383   7.835   9.760   1.844 -0.0126  0.0999 -0.2471
 7184W        W11384   0.193   5.397   4.991 -0.2283  0.1960  0.4315
 7185W        W11385   4.970   9.760   2.384 -0.1887 -0.1165  0.2433
 7186W        W11386   2.451   5.630   1.942 -0.1543 -0.3566  0.0730
 7187W        W11387   5.184   8.035  12.819 -0.1641 -0.1154  0.0037
 7188W        W11388   5.946   7.811   2.089 -0.1982 -0.2822  0.1493
 7189W        W11389   5.751   2.377  10.957  0.0706  0.1350 -0.1115
 7190W        W11390   3.127   2.808   4.038  0.0670  0.1184  0.0979
 7191W        W11391   2.099   2.765  13.652  0.0644  0.1093  0.0109
 7192W        W11392   2.481   4.557   0.582 -0.1562  0.1446 -0.2974
 7193W        W11393   7.455   1.070   9.629 -0.0898  0.1979  0.0364
 7194W        W11394   7.702   0.358  11.250  0.3704 -0.0296 -0.1049
 7195W        W11395   3.177   2.415   3.033  0.3071  0.2338 -0.0346
 7196W        W11396   3.609   1.929  10.528  0.0847 -0.0135  0.0274
 7197W        W11397   0.702   9.771  10.217  0.0416  0.2411 -0.1159
 7198W        W11398   7.257   4.875   9.894 -0.0473  0.2252  0.3148
 7199W        W11399   5.449   1.587  13.494 -0.0432 -0.2354  0.0066
 7200W        W11400   9.203   4.544   1.131 -0.1682 -0.0245 -0.1210
 7201W        W11401   6.193   1.004   1.303  0.1078 -0.1243  0.0597
 7202W        W11402   8.162   6.889   1.364  0.3863  0.3131 -0.0101
 7203W        W11403   9.721   3.940  13.256 -0.2710  0.1935 -0.0102
 7204W        W11404   8.454   8.535   9.879 -0.1928 -0.2366  0.0303
 7205W        W11405   2.110   1.612  12.582 -0.1263  0.0938  0.0227
 7206W        W11406   8.289   4.211  11.054  0.4040 -0.3880  0.0307
 7207W        W11407  10.120   8.498   1.804 -0.1189  0.0115  0.0536
 7208W        W11408   2.162   5.496   3.920  0.2031 -0.2389 -0.1770
 7209W        W11409   4.698   0.116   9.744 -0.1755  0.1295  0.2034
 7210W        W11410   9.413   3.905   9.783 -0.2578  0.3844  0.0153
 7211W        W11411   4.431   9.533   0.802 -0.5033  0.2117 -0.0723
 7212W        W11412   5.199   0.119  11.238  0.0650  0.2488 -0.1116
 7213W        W11413   5.547   4.035   0.739  0.1989 -0.2067  0.0316
 7214W        W11414   9.110   0.229  13.279 -0.4338  0.0499 -0.0515
 7215W        W11415   2.003   6.238  11.788  0.0575 -0.1600 -0.1068
 7216W        W11416   2.652   5.201   1.206  0.1127  0.1617 -0.0683
 7217W        W11417   0.420   3.222  10.974 -0.1380 -0.2559 -0.1442
 7218W        W11418   2.852   4.129  12.942 -0.0830  0.0360  0.0744
 7219W        W11419   5.974   3.955   1.003  0.1641 -0.1215 -0.0581
 7220W        W11420   8.736   8.448  10.684  0.1482 -0.1481 -0.1105
 7221W        W11421   8.904   8.026   1.048 -0.0634 -0.2086 -0.4925
 7222W        W11422   8.643   6.392   4.276 -0.0158 -0.2363 -0.0733
 7223W        W11423   2.663   1.954  13.225 -0.1186  0.1046 -0.0374
 7224W        W11424   2.665  10.036   3.307  0.1060  0.3682  0.4274
 7225W        W11425   0.615   9.519   9.593 -0.0436 -0.0396  0.2347
 7226W        W11426   1.029   1.957   9.154 -0.0753  0.0279 -0.1465
 7227W        W11427   4.105   9.298  11.023 -0.1107  0.0037 -0.3254
 7228W        W11428   9.338   8.120   3.436 -0.1329  0.3416  0.1717
 7229W        W11429   6.480   2.352  11.936  0.2054 -0.2816  0.0550
 7230W        W11430   9.914   4.238   9.633 -0.1333 -0.3489 -0.0528
 7231W        W11431   7.218   6.671  10.032  0.1011 -0.0687 -0.0890
 7232W        W11432   5.085   2.910   0.420 -0.0067 -0.0618 -0.0609
 7233W        W11433   6.000   0.584   1.103 -0.1002  0.2047 -0.1581
 7234W        W11434   3.325   7.878  10.024  0.2130  0.1267 -0.1930
 7235W        W11435   8.035   5.131   2.756 -0.0853 -0.1416 -0.1729
 7236W        W11436   6.216   6.387   0.231  0.0207  0.0721 -0.0317
 7237W        W11437   5.881   3.664   4.054  0.2912  0.3584 -0.0480
 7238W        W11438   0.904   9.968   3.315  0.2381 -0.1154 -0.2145
 7239W        W11439   8.806   1.710   9.844  0.0232 -0.2431 -0.0335
 7240W        W11440   8.840   6.893   0.015  0.0191 -0.1107 -0.2031
 7241W        W11441   2.726  10.127   9.476 -0.1399 -0.0397 -0.3110
 7242W        W11442   5.760  10.096  10.902 -0.3180 -0.1168  0.0100
 7243W        W11443   2.482   6.377   1.354  0.2728 -0.0213 -0.1688
 7244W        W11444   2.114   7.851  11.198 -0.0760 -0.0066 -0.4064
 7245W        W11445   0.525   5.000   2.386  0.1334 -0.2048 -0.0513
 7246W        W11446   7.134   6.651   1.526  0.4428 -0.2390  0.2276
 7247W        W11447   5.480   9.375   9.241  0.0334 -0.1914 -0.2562
 7248W        W11448   8.949   2.607   3.872 -0.0148  0.0772 -0.0982
 7249W        W11449   9.341  10.104   9.434 -0.2865  0.1509 -0.0159
 7250W        W11450   7.988   4.063   0.348  0.2508  0.0440  0.0248
 7251W        W11451   1.682   4.829   1.675  0.1248  0.1276  0.0962
 7252W        W11452   8.607   2.432  13.356  0.1131 -0.3398  0.0120
 7253W        W11453   1.973   9.878  12.216  0.0150 -0.1739  0.2994
 7254W        W11454   1.587  10.304   1.306 -0.0630 -0.2282  0.1122
 7255W        W11455   7.424   0.176  11.676  0.1227  0.2144 -0.0989
 7256W        W11456   9.481   1.292  12.167  0.1196  0.2062 -0.3813
 7257W        W11457   6.699   9.980  11.328 -0.1308  0.0778  0.3147
 7258W        W11458   9.038   5.716   1.140 -0.1072 -0.0488  0.0147
 7259W        W11459   1.297   8.498  12.791 -0.0294 -0.2441  0.0358
 7260W        W11460   0.598   8.110  12.265 -0.1984  0.0173  0.0046
 7261W        W11461   8.739   7.293   1.792  0.0268  0.3021 -0.2628
 7262W        W11462   4.394   2.842   1.681 -0.0959 -0.1503  0.0701
 7263W        W11463   1.126   5.434  11.597 -0.3348  0.4702 -0.0892
 7264W        W11464  10.349   0.227   2.248  0.0759  0.1571 -0.1768
 7265W        W11465   9.486   0.441  12.344 -0.0822 -0.1242 -0.1417
 7266W        W11466   6.373   1.261  10.982 -0.1224  0.0980  0.3740
 7267W        W11467   3.713   6.070  12.377 -0.3085 -0.0115  0.1245
 7268W        W11468   6.956   2.384   4.699 -0.0296 -0.1031  0.1405
 7269W        W11469   7.011   6.637  13.006 -0.0372 -0.0379 -0.2264
 7270W        W11470   5.926   3.544   4.882  0.1746  0.1372  0.0939
 7271W        W11471   7.114   2.415  11.167  0.0656 -0.3483  0.1254
 7272W        W11472   8.272   6.213   3.890  0.2834 -0.0455 -0.1307
 7273W        W11473   2.391   9.077  12.487  0.4330 -0.1913  0.0188
 7274W        W11474   3.923   9.845  12.141  0.1179  0.0837 -0.1428
 7275W        W11475   8.875   1.551  11.898  0.0504  0.0285 -0.0793
 7276W        W11476   1.389   3.182   2.299 -0.0947 -0.1347 -0.0734
 7277W        W11477   7.278   6.365   3.830 -0.0095  0.1123 -0.2472
 7278W        W11478   7.928   2.324   3.418 -0.0322 -0.0652 -0.0539
 7279W        W11479   9.247   7.494  13.283  0.1548  0.1563  0.0611
 7280W        W11480   3.635   8.165  12.854  0.4198  0.0871  0.2219
 7281W        W11481   4.398   2.566   3.553 -0.1567  0.4466 -0.2000
 7282W        W11482   3.716   4.427   1.179  0.1968  0.1536 -0.0941
 7283W        W11483   8.848   0.234   0.075  0.0951  0.0253 -0.0093
 7284W        W11484   8.630   9.120  10.512 -0.2934  0.1597  0.3556
 7285W        W11485   2.344  10.144  12.415 -0.1788 -0.1945  0.0331
 7286W        W11486   6.445  10.298  11.653 -0.2660 -0.1857 -0.0847
 7287W        W11487   9.828  10.353   1.873  0.1735 -0.0326 -0.0276
 7288W        W11488   6.015   3.961   1.493  0.1225  0.0323 -0.1970
 7289W        W11489   5.074   6.898   3.365 -0.1041  0.0185  0.0717
 7290W        W11490   4.377   6.134   3.363 -0.2719  0.1682  0.0647
 7291W        W11491   6.835   0.523   3.955  0.1376  0.2870  0.2943
 7292W        W11492   9.200   8.449   0.175 -0.0428  0.3710 -0.1788
 7293W        W11493   3.610   5.463  10.674 -0.1378 -0.2784 -0.0351
 7294W        W11494   4.291   6.794   2.216  0.0216 -0.0283  0.1721
 7295W        W11495   7.472   0.141  13.142 -0.1512 -0.1463 -0.1158
 7296W        W11496   1.478   2.362  12.393  0.2635  0.3316  0.1211
 7297W        W11497   6.824   3.592   1.441 -0.4549  0.1876 -0.0483
 7298W        W11498   1.198   8.856  10.578  0.2710 -0.1034  0.0671
 7299W        W11499   6.867   2.607  12.131  0.1725  0.1607  0.0026
 7300W        W11500   9.964   4.892   8.816 -0.2307 -0.1001  0.0614
 7301W        W11501   1.608   3.650   8.945 -0.0456  0.1297 -0.2783
 7302W        W11502   4.099   4.205   1.445 -0.0327  0.0273 -0.0425
 7303W        W11503   0.763  10.358  10.992  0.0374 -0.1603  0.0254
 7304W        W11504   8.615   7.014   2.306 -0.2748  0.2136 -0.0410
 7305W        W11505   2.716   1.059  12.224  0.2485  0.0684 -0.1570
 7306W        W11506   0.458   2.884  10.234  0.3642  0.1415 -0.2265
 7307W        W11507   4.504   4.345   3.358 -0.0101  0.2699 -0.3453
 7308W        W11508   9.859   5.683   0.339 -0.2371 -0.1175  0.1327
 7309W        W11509   1.187   1.774   9.728  0.0322  0.3293  0.0585
 7310W        W11510   9.108   3.253  11.446 -0.2625  0.0164 -0.1153
 7311W        W11511   1.516   3.353  13.138  0.1210  0.0448  0.0776
 7312W        W11512  10.320  10.246   9.379 -0.1782  0.2758 -0.0151
 7313W        W11513   4.738   9.491   2.017  0.1835 -0.0966 -0.0681
 7314W        W11514   9.573   3.290   1.772  0.1955  0.1231 -0.0826
 7315W        W11515   8.359   3.305   0.725  0.1785  0.2484 -0.0207
 7316W        W11516   5.719   4.175  10.786 -0.0968  0.0698  0.3307
 7317W        W11517   8.562   8.125  12.999  0.0794  0.2274  0.0536
 7318W        W11518   2.914   0.529  11.086  0.2675 -0.2646  0.3875
 7319W        W11519   8.274   7.318   0.669  0.0886  0.2734  0.1341
 7320W        W11520   1.790   2.477   3.840  0.0631 -0.1139  0.0386
 7321W        W11521   6.494   1.539  13.550 -0.1149  0.0315 -0.0470
 7322W        W11522   9.266   5.090  12.393  0.0174  0.0660  0.1922
 7323W        W11523   2.314   3.648   1.706 -0.3095  0.3372  0.0082
 7324W        W11524   1.544   3.271   1.301  0.0114  0.1950  0.1573
 7325W        W11525   5.731   7.525   0.593 -0.2159  0.0923 -0.2628
 7326W        W11526   4.048   5.232  11.042 -0.0362  0.0601 -0.2270
 7327W        W11527   7.536   1.391   4.310 -0.1321 -0.0466 -0.1062
 7328W        W11528   4.290   7.973  13.313  0.2229  0.1592  0.1741
 7329W        W11529   5.318   8.034  10.985 -0.0567 -0.4057  0.0129
 7330W        W11530   3.230   2.468  12.991 -0.4428  0.0842 -0.1958
 7331W        W11531   1.291   2.701   2.164  0.1085  0.3680  0.0132
 7332W        W11532   5.206   7.927  10.320  0.2617 -0.0760  0.1232
 7333W        W11533   3.796   5.601  12.246  0.0157  0.2555  0.1842
 7334W        W11534   0.011   1.461  12.409  0.0776  0.0278  0.2913
 7335W        W11535   1.525   9.862   0.308 -0.0788 -0.0285  0.0400
 7336W        W11536   7.775   8.241   2.039  0.1482 -0.1704  0.1890
 7337W        W11537   8.096   2.800   2.280 -0.3461 -0.0705 -0.2088
 7338W        W11538   0.504   5.354  11.577  0.0591 -0.0667  0.2184
 7339W        W11539   0.157   9.343  10.690  0.1388  0.2996 -0.2150
 7340W        W11540   5.112   8.024  12.308  0.1273 -0.1350  0.0868
 7341W        W11541   0.419  10.021   0.587 -0.0857 -0.2576  0.2024
 7342W        W11542   3.781   9.094  11.581 -0.1767 -0.1379  0.1084
 7343W        W11543   8.006   1.997  11.600 -0.2514  0.1641 -0.2916
 7344W        W11544   3.192   2.838   8.970  0.1047 -0.0091 -0.1514
 7345W        W11545   2.570   7.867   2.577 -0.1547 -0.3014  0.0047
 7346W        W11546   9.064   0.177   9.601 -0.1416 -0.2207  0.2403
 7347W        W11547   9.047   2.372   1.919  0.2219 -0.1403  0.0856
 7348W        W11548   8.265   6.317  11.543 -0.2371 -0.0143  0.0691
 7349W        W11549   1.614   3.517   4.981 -0.1515 -0.0084  0.0252
 7350W        W11550   5.129   8.499   1.508 -0.0251  0.3617  0.1132
 7351W        W11551   3.149   6.197   9.489 -0.2183  0.0090 -0.2165
 7352W        W11552   3.510   9.025   2.818 -0.0555  0.2758 -0.0836
 7353W        W11553   6.833   1.314   0.630 -0.0897  0.1029  0.1856
 7354W        W11554   6.868   5.811   5.425 -0.2397  0.1697 -0.1224
 7355W        W11555   1.377   0.348   9.572  0.1059 -0.0294  0.4098
 7356W        W11556   1.351   8.423  11.294 -0.2779 -0.0435 -0.1141
 7357W        W11557   2.096   6.231  13.530 -0.1010 -0.0413  0.0832
 7358W        W11558   2.416   4.954   3.208 -0.0148 -0.0492 -0.0524
 7359W        W11559   0.701   0.147   3.311  0.2349  0.1577  0.3905
 7360W        W11560   3.365   8.244  11.342  0.4063 -0.0436  0.1625
 7361W        W11561  10.173   3.953  11.701 -0.0375  0.5394 -0.2896
 7362W        W11562   5.612   7.294   2.050 -0.2611 -0.1696 -0.1617
 7363W        W11563   7.988   2.603  11.678 -0.1410  0.1115 -0.2974
 7364W        W11564   0.731   9.405   3.584  0.0989 -0.0426  0.0189
 7365W        W11565   6.077   9.603  12.062  0.1431 -0.2554 -0.0209
 7366W        W11566   1.372   9.721  10.948 -0.2629 -0.3837  0.1843
 7367W        W11567   5.629   8.008   4.054 -0.0013 -0.2967 -0.1891
 7368W        W11568   2.950   1.046  11.761  0.0475  0.1301  0.0985
 7369W        W11569   1.424   1.732   3.890  0.2137  0.1658 -0.1219
 7370W        W11570   3.723   0.174   3.180 -0.2659 -0.1622  0.2179
 7371W        W11571   9.843   1.007  10.619  0.1423 -0.0891  0.0874
 7372W        W11572   5.711   2.656   1.562 -0.0696 -0.2457 -0.0482
 7373W        W11573   9.342   4.323  11.200  0.0971  0.0439  0.0408
 7374W        W11574   1.393   1.133   0.682  0.1164 -0.1887  0.2343
 7375W        W11575   2.815   7.171   0.415 -0.0392 -0.0634  0.0311
 7376W        W11576   1.363   2.208   0.067 -0.2050  0.1579  0.2085
 7377W        W11577   9.218   9.511   2.574  0.0133  0.3188 -0.1024
 7378W        W11578   3.704   1.111   9.460 -0.1488 -0.0473  0.2942
 7379W        W11579   0.444  10.003  11.725  0.0289 -0.0555  0.2772
 7380W        W11580   4.274   4.670   9.487 -0.0940 -0.2384  0.2165
 7381W        W11581   4.859   9.429   9.878  0.2124 -0.1497  0.0115
 7382W        W11582   6.539   2.698   4.888 -0.0060  0.2228 -0.0720
 7383W        W11583   2.713   2.801  12.797 -0.4063  0.0873 -0.0767
 7384W        W11584   0.075   0.442  10.645 -0.1409 -0.3466  0.0515
 7385W        W11585   9.288   3.305   4.157 -0.1833  0.0346 -0.0628
 7386W        W11586   7.083   2.092  13.120 -0.2667  0.2053 -0.1843
 7387W        W11587   9.762   7.385   9.868  0.2208 -0.1226 -0.0390
 7388W        W11588   6.936   2.612   0.042 -0.3834 -0.0018  0.0204
 7389W        W11589   4.070   7.773   3.735 -0.0978 -0.1587  0.2123
 7390W        W11590   4.296   6.743   1.371 -0.1483 -0.2513 -0.0494
 7391W        W11591   0.646   6.272   9.646  0.1313  0.1690 -0.2175
 7392W        W11592   3.482   8.453   1.039  0.0871  0.0228  0.2037
 7393W        W11593   3.576   3.259   0.923  0.1204  0.2266 -0.1302
 7394W        W11594   7.656  10.101  13.391  0.0264 -0.1643 -0.0124
 7395W        W11595   4.733   3.705   4.095  0.1007 -0.0548 -0.3273
 7396W        W11596   0.807   3.638   1.014 -0.0112 -0.0028 -0.3994
 7397W        W11597   4.527   5.704   1.509 -0.1680  0.2626 -0.1621
 7398W        W11598   4.799   8.675   2.741  0.1653 -0.1290 -0.4339
 7399W        W11599   8.710   8.272   1.554  0.3581 -0.0062  0.2124
 7400W        W11600   8.603   9.332  13.536  0.0808 -0.2098  0.4519
 7401W        W11601   2.195   5.174   0.477  0.0929 -0.0971  0.1404
 7402W        W11602   1.595   4.091  10.738  0.0858  0.0735 -0.3191
 7403W        W11603   4.408   5.311   1.852 -0.0453  0.2393  0.1012
 7404W        W11604   6.799   3.295   3.785 -0.1066  0.0237  0.1284
 7405W        W11605   4.568   3.468   1.844  0.2178  0.2633 -0.4081
 7406W        W11606   5.988   1.602   2.588 -0.0638  0.2373  0.2297
 7407W        W11607   2.843   9.778   2.825  0.0862 -0.4017 -0.1585
 7408W        W11608   1.346   1.786  11.808  0.0717  0.2253  0.2934
 7409W        W11609   9.092   0.593   0.362 -0.0861  0.1216 -0.0034
 7410W        W11610   3.759   1.339   0.068 -0.1040 -0.0387  0.0208
 7411W        W11611   5.167   9.280  11.624 -0.2754  0.1940  0.2145
 7412W        W11612   6.636   7.560   0.882 -0.2222  0.3021 -0.3214
 7413W        W11613   5.024   8.568  13.642  0.2300 -0.0769  0.2691
 7414W        W11614   9.156   8.109   0.622 -0.1977  0.1986  0.4055
 7415W        W11615   3.310   6.896   0.441 -0.1675 -0.5918  0.0726
 7416W        W11616   4.606   1.288   2.834  0.0742 -0.0385  0.3911
 7417W        W11617   0.164   0.599   1.874  0.1462  0.0779 -0.2067
 7418W        W11618   3.527   7.763   9.397  0.0140 -0.1844 -0.2817
 7419W        W11619   3.259   1.178   9.200 -0.1620 -0.0026  0.3647
 7420W        W11620   4.617   8.232   2.866  0.0460  0.0282 -0.0163
 7421W        W11621   7.927   5.548   3.174 -0.2900  0.1525  0.0477
 7422W        W11622   3.128   5.391   3.481  0.0110  0.0155  0.1471
 7423W        W11623   0.563   7.905  10.434  0.0762  0.0535 -0.0315
 7424W        W11624   8.519   6.622   9.357 -0.0982 -0.2651 -0.0416
 7425W        W11625   8.858   0.046  10.029 -0.0204  0.0463 -0.1916
 7426W        W11626   2.833   1.404  10.610  0.3838  0.0125 -0.2713
 7427W        W11627   1.680   5.085   5.431 -0.0796 -0.0375  0.0298
 7428W        W11628   7.628   6.000  11.160  0.3164 -0.3466 -0.0891
 7429W        W11629   5.735   5.361  12.813  0.2996  0.1132  0.1376
 7430W        W11630   6.424   6.694   0.649  0.0247  0.3434  0.3598
 7431W        W11631   3.663   4.466  13.167 -0.0043  0.4392  0.1590
 7432W        W11632   7.575   7.711   3.132 -0.2193  0.0866  0.0094
 7433W        W11633   1.397   2.294   3.180 -0.2167 -0.1907  0.0589
 7434W        W11634   9.615   0.425   0.552  0.0453  0.2278  0.0384
 7435W        W11635   0.838  10.014   8.107  0.0078 -0.1386 -0.2182
 7436W        W11636   2.699   0.663   9.562 -0.0550  0.2705  0.0333
 7437W        W11637   3.486   2.625   1.526  0.3742 -0.0162  0.2305
 7438W        W11638   0.145   5.652   1.702  0.2934  0.0925  0.4302
 7439W        W11639   9.892   8.852   9.904 -0.6561  0.0865 -0.1331
 7440W        W11640   2.836   6.514  11.300 -0.0210  0.0549 -0.1018
 7441W        W11641   1.755   9.055  13.254  0.3062 -0.0853  0.0217
 7442W        W11642   0.192   0.163   8.340  0.4616  0.0954 -0.1025
 7443W        W11643   6.829   9.697   2.249 -0.1948  0.0711 -0.1497
 7444W        W11644   3.616  10.051   2.466 -0.0460 -0.2371  0.3713
 7445W        W11645   3.335   7.439   3.977 -0.2147 -0.1828  0.1948
 7446W        W11646   4.722   6.518   3.337  0.0444  0.2122 -0.0141
 7447W        W11647   9.208  10.365   3.871 -0.0755 -0.4166  0.0322
 7448W        W11648   9.347   6.201   3.104 -0.0153  0.0263 -0.0973
 7449W        W11649   5.016   5.197  11.554  0.0742 -0.2451 -0.1753
 7450W        W11650   5.436   2.867   4.384  0.0801  0.0143 -0.2986
 7451W        W11651   2.453   6.930   0.053  0.1248 -0.0312  0.0104
 7452W        W11652   4.898   0.654  10.896 -0.1810  0.1360 -0.1920
 7453W        W11653   1.859   3.934  13.113  0.1077  0.1778  0.1838
 7454W        W11654   7.913   3.662   2.573 -0.0473 -0.1673 -0.0270
 7455W        W11655   4.613   8.551  12.982  0.3920  0.1092 -0.0405
 7456W        W11656   2.181   8.936  11.414  0.4119 -0.1364  0.2716
 7457W        W11657   4.371   5.457   4.404 -0.1891 -0.0334  0.0806
 7458W        W11658   5.931   6.177   1.222 -0.1035  0.0779  0.0034
 7459W        W11659   0.927   7.904   4.246  0.0509  0.1796  0.1086
 7460W        W11660   7.194   2.931  11.944  0.0152 -0.0333 -0.0996
 7461W        W11661   7.378   7.452   1.764 -0.1790  0.2805 -0.0874
 7462W        W11662   8.468   2.388  10.049 -0.2371 -0.5035  0.2483
 7463W        W11663   1.731   0.701   8.832  0.0300 -0.0917 -0.0157
 7464W        W11664  10.064  10.088   0.433  0.3036  0.1769 -0.1183
 7465W        W11665   2.380   2.284  12.937 -0.1887  0.0482 -0.2806
 7466W        W11666   4.694   6.954   3.776 -0.1263 -0.2286  0.0744
 7467W        W11667   7.426  10.215   1.296  0.0115 -0.0240  0.0648
 7468W        W11668   6.002   2.860   4.102 -0.1733 -0.0378  0.0567
 7469W        W11669   8.947   3.908  10.693 -0.0549 -0.1291 -0.5459
 7470W        W11670   0.562   4.318   5.120  0.1080 -0.2027 -0.2736
 7471W        W11671   4.621   2.985   3.596 -0.2251  0.1302 -0.0201
 7472W        W11672   9.592   0.076  12.686  0.3494  0.0035  0.1766
 7473W        W11673   8.763   7.550   0.833  0.4774 -0.1794  0.0350
 7474W        W11674   2.917   7.697   4.231  0.3499  0.0872  0.0511
 7475W        W11675   8.660   0.442   1.512 -0.1444 -0.0948 -0.1822
 7476W        W11676   7.950   3.373   4.352 -0.0653  0.1770 -0.1092
 7477W        W11677   6.468   6.173   1.179 -0.0399  0.2785 -0.2545
 7478W        W11678   3.602   0.900   1.937 -0.1442 -0.0068 -0.1677
 7479W        W11679  10.099   6.549  12.034 -0.0641  0.2345 -0.2628
 7480W        W11680   4.220   2.387   9.411  0.1526  0.1956 -0.0675
 7481W        W11681   4.995   7.635  13.395  0.3547  0.0004 -0.1554
 7482W        W11682   1.175   6.590   8.396  0.1662 -0.3469 -0.0835
 7483W        W11683   1.969   4.162  10.020 -0.0795 -0.2008  0.1125
 7484W        W11684   7.544   6.473   2.125  0.1470  0.2344  0.0203
 7485W        W11685   1.928   4.077   1.827  0.2633  0.3068 -0.1284
 7486W        W11686   7.845   3.953   0.812  0.3619 -0.1499  0.3787
 7487W        W11687   6.448   4.434  11.762 -0.2798 -0.1354  0.2660
 7488W        W11688   3.436   9.166   0.940 -0.1010 -0.0956  0.2141
 7489W        W11689   9.945   3.615  11.234  0.1609  0.2818 -0.1129
 7490W        W11690  10.160   4.394   4.012 -0.3491 -0.1840 -0.0588
 7491W        W11691   4.910   8.357  10.281  0.2765  0.0951 -0.0644
 7492W        W11692   2.126   3.607   0.313  0.0504  0.0001  0.2014
 7493W        W11693   4.714   2.617  10.156 -0.0653  0.0422  0.1351
 7494W        W11694   6.660   3.158   5.104 -0.1783 -0.1938 -0.1158
 7495W        W11695   2.266   0.423  11.891 -0.1728 -0.1446 -0.2579
 7496W        W11696   2.172   1.836  12.090 -0.1909  0.0230 -0.0489
 7497W        W11697   0.362   7.152  13.130  0.0328  0.3251  0.0639
 7498W        W11698   0.104   7.632   3.364 -0.3583 -0.0716  0.1160
 7499W        W11699   2.371   4.973   9.556 -0.1159  0.1845  0.2917
 7500W        W11700   9.441   6.696   2.216  0.1079 -0.2314 -0.0224
 7501W        W11701   3.092   4.338   9.423 -0.0215 -0.0162 -0.1894
 7502W        W11702   4.972   5.579  12.031 -0.2562  0.2669  0.3548
 7503W        W11703   5.040   6.529  11.852  0.3126  0.0769  0.1933
 7504W        W11704   8.548   0.131  10.858 -0.0191  0.2710 -0.0034
 7505W        W11705   8.230   5.317  11.599  0.0333  0.0429 -0.1896
 7506W        W11706   8.406   4.024   2.262  0.1166  0.0309 -0.1634
 7507W        W11707   0.678   4.411   9.264 -0.0147  0.2003  0.1317
 7508W        W11708   1.082   6.845   4.017 -0.2714  0.1062  0.0609
 7509W        W11709  10.124   1.279   2.097 -0.0188  0.1200  0.1009
 7510W        W11710   2.203   5.329   2.255  0.0491  0.0995  0.4797
 7511W        W11711   5.111   9.890   0.377  0.3288  0.1227  0.1152
 7512W        W11712   9.179   6.628  13.303 -0.0128  0.1427 -0.0534
 7513W        W11713   8.941   5.951   4.437 -0.2207 -0.1592  0.2571
 7514W        W11714   3.025   6.262   4.669  0.0170 -0.0800  0.1732
 7515W        W11715   6.990   0.604   1.026 -0.1874 -0.1861  0.0314
 7516W        W11716   5.589  10.227   1.894  0.0794 -0.3301 -0.2325
 7517W        W11717  10.282   7.053  11.810 -0.3447  0.1761 -0.1670
 7518W        W11718   3.148   0.773   1.821  0.1750 -0.0343 -0.0165
 7519W        W11719   0.874   8.080   3.031 -0.0908  0.1200  0.1658
 7520W        W11720   3.134   4.960  10.214  0.1039  0.0020  0.0655
 7521W        W11721   3.072   8.384   0.763  0.1735 -0.2564  0.0876
 7522W        W11722   7.881   2.092  10.758 -0.0003  0.0981 -0.0909
 7523W        W11723   1.119   0.733  11.979 -0.0531 -0.1588 -0.0783
 7524W        W11724   9.584   1.735  10.780 -0.0018 -0.1596 -0.0817
 7525W        W11725   0.379   4.642   2.090  0.2610  0.0846 -0.0211
 7526W        W11726   9.380   1.308   9.438 -0.0912  0.2279  0.0216
 7527W        W11727   1.852   6.598   2.961  0.1335  0.1537  0.6549
 7528W        W11728   1.993   0.786   0.205  0.0174 -0.4711  0.2595
 7529W        W11729   1.466   1.441  10.109 -0.0817 -0.1308  0.2318
 7530W        W11730   8.716   9.904   3.050  0.0293  0.0699  0.0240
 7531W        W11731   7.444   2.115  11.402  0.0276  0.0866  0.0193
 7532W        W11732   3.667   5.955  10.823  0.5238 -0.0960  0.0313
 7533W        W11733   9.872   6.219  11.221  0.0943  0.2198 -0.0465
 7534W        W11734   3.333   6.305  12.579  0.1240 -0.3237 -0.0868
 7535W        W11735   8.825   6.491  12.385 -0.0289 -0.1421  0.0885
 7536W        W11736   8.105   8.392  11.937  0.0030  0.4250 -0.0378
 7537W        W11737   9.473   7.248   2.287  0.1015 -0.0553  0.1510
 7538W        W11738   5.045   5.342  10.131  0.0383 -0.1562 -0.1553
 7539W        W11739  10.346   9.773  11.692 -0.0851  0.3710  0.2305
 7540W        W11740   0.487   5.716   2.131  0.3840 -0.1757  0.2070
 7541W        W11741   9.406   9.670   1.486  0.0784  0.2464 -0.0114
 7542W        W11742   7.517   6.770  10.885  0.0154 -0.0681 -0.1852
 7543W        W11743   9.279   1.597   1.744  0.1272 -0.1460 -0.0940
 7544W        W11744   9.860   2.805   1.973  0.1762 -0.0003 -0.0219
 7545W        W11745   2.588   5.767   3.853 -0.0123 -0.2664  0.1196
 7546W        W11746   9.599   2.991   5.324 -0.3350  0.1067  0.2481
 7547W        W11747   1.665   3.439   0.723 -0.0734  0.1928  0.0809
 7548W        W11748   0.072   5.111   0.237  0.1036 -0.2142  0.2641
 7549W        W11749   4.735   6.476   0.420  0.2168  0.4300 -0.1881
 7550W        W11750   0.691   6.546  12.478  0.0463 -0.0082  0.0513
 7551W        W11751   4.690   8.183   3.825 -0.0002 -0.0474 -0.0327
 7552W        W11752   4.907   6.950  11.433 -0.0797  0.0772  0.1290
 7553W        W11753  10.186   6.068   3.203 -0.0407 -0.2894 -0.1596
 7554W        W11754   6.445   6.877  10.976  0.1343  0.3730  0.1623
 7555W        W11755   4.093   3.893   1.903  0.2034 -0.0905  0.0595
 7556W        W11756   1.461   2.511  12.917 -0.1813  0.0347 -0.1872
 7557W        W11757   1.334   3.462   1.924  0.2047  0.2241 -0.1353
 7558W        W11758   9.622   3.329   0.298 -0.1743  0.2792 -0.0260
 7559W        W11759   0.730   2.513   1.086  0.1150  0.1897 -0.1372
 7560W        W11760   0.992   8.132   4.844 -0.2643 -0.2705  0.1793
 7561W        W11761   8.286   6.404   0.994 -0.0687 -0.2281 -0.1641
 7562W        W11762   7.058   5.435   1.210 -0.4689 -0.1941 -0.1082
 7563W        W11763   0.732   6.307   2.281  0.0337  0.0090  0.0112
 7564W        W11764   5.818   2.186   3.897 -0.0768 -0.1403  0.1691
 7565W        W11765   8.835   1.109  10.999  0.1587 -0.0680  0.0664
 7566W        W11766   5.726  10.030   3.924  0.0281 -0.1566  0.0555
 7567W        W11767   6.348   8.318  12.567  0.1864 -0.1970 -0.0240
 7568W        W11768   6.509   1.912   9.631 -0.1703  0.2643  0.1129
 7569W        W11769   1.794   4.974   2.558 -0.1681 -0.1508  0.0182
 7570W        W11770   6.944   1.002  10.827  0.1183  0.0476  0.0560
 7571W        W11771   0.139   5.339  13.351 -0.0157 -0.0636  0.0549
 7572W        W11772   1.442   6.845   0.046 -0.1062  0.1134  0.2214
 7573W        W11773   4.422   2.663  13.564 -0.1600 -0.0061 -0.2860
 7574W        W11774   3.947   6.617  13.354  0.0508  0.1281 -0.1884
 7575W        W11775   0.503   1.427  12.769  0.0633 -0.3067  0.1456
 7576W        W11776   6.714   4.682   0.325 -0.0612  0.0342 -0.3533
 7577W        W11777   5.610   1.946  13.144  0.0928  0.2522  0.2241
 7578W        W11778  10.401   8.685  12.549  0.2610 -0.2072  0.0325
 7579W        W11779   8.826   2.586   1.004 -0.1240  0.0976  0.0258
 7580W        W11780   1.298   1.741   4.485 -0.1582 -0.0277  0.2432
 7581W        W11781   9.988   4.447   3.529 -0.1420 -0.0385 -0.1146
 7582W        W11782   8.674   8.222  10.238 -0.0341  0.2701  0.1818
 7583W        W11783   4.096   2.866  10.596 -0.0303  0.1300 -0.6405
 7584W        W11784   4.664   6.466   3.823  0.0915  0.2528 -0.1034
 7585W        W11785   7.194   4.759  11.506 -0.1419 -0.3498  0.1373
 7586W        W11786   6.677   2.917  13.377  0.1899 -0.0237  0.1689
 7587W        W11787   0.257   8.886   2.438 -0.2725 -0.3364 -0.0992
 7588W        W11788   5.596   6.166   2.996 -0.3468 -0.0122 -0.2985
 7589W        W11789   3.685   5.537  11.180  0.0389  0.3120  0.2654
 7590W        W11790   3.181   9.602   1.128  0.0899 -0.0284  0.0852
 7591W        W11791   3.565   2.053   2.274  0.2830  0.1508  0.0968
 7592W        W11792   7.485   0.567   0.485  0.1497 -0.3970  0.1873
 7593W        W11793   2.336   1.786   9.807 -0.4007 -0.0652  0.1965
 7594W        W11794   8.221   4.873   4.939 -0.4386  0.0738  0.1943
 7595W        W11795   8.892   5.858   1.613  0.2064  0.0879  0.0180
 7596W        W11796   3.669  10.155   2.968  0.2053 -0.3108 -0.0507
 7597W        W11797   8.044   4.409  11.828  0.0166 -0.0336 -0.2753
 7598W        W11798   3.498   4.502   4.430  0.0237  0.4199  0.1580
 7599W        W11799   0.933   2.668  10.292 -0.1583  0.1805  0.2468
 7600W        W11800   8.547   7.582   3.449  0.0693  0.1877  0.1036
 7601W        W11801   9.142   5.155   3.480 -0.0748  0.1110  0.0670
 7602W        W11802   9.643   6.164   0.224 -0.0320  0.0263 -0.0870
 7603W        W11803   4.062   8.859  10.253 -0.0770 -0.0969 -0.3640
 7604W        W11804  10.320   2.750   3.298 -0.1760 -0.3903  0.1706
 7605W        W11805   6.138   8.578  10.448 -0.2570 -0.2223  0.0647
 7606W        W11806   7.505   3.159  10.192  0.2124 -0.1967  0.0572
 7607W        W11807   0.595   1.448  11.645  0.1834  0.1114  0.0819
 7608W        W11808   8.850   2.397  12.090 -0.0327 -0.2423  0.1575
 7609W        W11809   9.373   3.102   8.864  0.1541 -0.2436  0.0762
 7610W        W11810   9.113   1.357   2.942  0.0461  0.0694 -0.0296
 7611W        W11811   8.022   0.442  11.744  0.0453  0.3072 -0.0472
 7612W        W11812   7.593   1.624   2.660  0.0457  0.0844  0.0852
 7613W        W11813   1.396   3.998   3.604  0.0397  0.0887 -0.2500
 7614W        W11814   4.645   9.763   0.455  0.0207 -0.0942  0.0091
 7615W        W11815   2.695   8.659   2.687  0.1406 -0.0222  0.0308
 7616W        W11816   6.017   8.589   0.028  0.1090  0.0845 -0.1902
 7617W        W11817   7.058   9.960   1.852 -0.2038 -0.1553 -0.3794
 7618W        W11818   4.169   1.321   1.451  0.1868  0.2027  0.2176
 7619W        W11819   8.674   9.998   0.546 -0.0078  0.0557 -0.0322
 7620W        W11820   9.850   9.530  12.449  0.0585 -0.2238 -0.2127
 7621W        W11821   0.153   0.990  12.616 -0.0206 -0.0450 -0.1131
 7622W        W11822   5.337   3.300  12.618  0.0635 -0.0130 -0.1300
 7623W        W11823   8.904   4.906   1.409  0.3829  0.1416 -0.0881
 7624W        W11824   5.073   1.017   1.023 -0.1493  0.3102  0.0240
 7625W        W11825   3.168   0.644   2.731 -0.0822 -0.2474  0.1092
 7626W        W11826   3.195   0.867  11.307 -0.1062  0.0698 -0.0657
 7627W        W11827  10.325   1.023   9.432 -0.1383  0.0305  0.4583
 7628W        W11828   7.973   0.825   0.065 -0.0211 -0.2390  0.2115
 7629W        W11829   1.674   8.036   9.155 -0.0780 -0.2647  0.0906
 7630W        W11830   0.464   0.640   9.175  0.1748  0.0842  0.2238
 7631W        W11831   0.681   9.129   2.546 -0.0003 -0.0191 -0.2102
 7632W        W11832   2.379   5.942   0.175 -0.1322  0.1255  0.3266
 7633W        W11833   4.396   0.841  11.876 -0.1904  0.0536 -0.1015
 7634W        W11834   8.780   8.324   3.321 -0.4264 -0.2898  0.1350
 7635W        W11835   2.379   4.817  12.730 -0.2423 -0.0127 -0.0060
 7636W        W11836   0.013   3.019  11.286  0.0229  0.1126  0.0362
 7637W        W11837   1.109   0.088  13.248  0.2826  0.1652 -0.0900
 7638W        W11838   8.544   1.262  12.675  0.0478 -0.0052 -0.2716
 7639W        W11839   6.545  10.035  13.595 -0.0007 -0.0367  0.0679
 7640W        W11840   4.804   3.492  10.092 -0.0544 -0.2525 -0.0079
 7641W        W11841   7.198   2.058   1.150 -0.1082  0.3301 -0.0186
 7642W        W11842   0.760   3.120  13.164  0.0526  0.3246 -0.1404
 7643W        W11843   3.759   7.682   4.107 -0.1546 -0.2180  0.0213
 7644W        W11844   2.205   0.551   9.536  0.1451 -0.0956 -0.1349
 7645W        W11845   9.636   1.858  11.285  0.2152 -0.0015  0.1358
 7646W        W11846   5.846   1.883  10.174 -0.0340 -0.4175 -0.0314
 7647W        W11847   4.262   5.599  11.553  0.2324 -0.0617 -0.1666
 7648W        W11848   1.701   3.912   0.471 -0.1425  0.2305  0.0558
 7649W        W11849   1.373   8.002   0.826  0.2244  0.0783 -0.0647
 7650W        W11850  10.172   0.036  13.319  0.2203 -0.1482 -0.2165
 7651W        W11851   3.533   4.733   2.276  0.1836  0.1543  0.4839
 7652W        W11852   7.776   5.218   1.929  0.0182  0.1367  0.0825
 7653W        W11853   2.089   0.316   0.272 -0.1019 -0.0611  0.1906
 7654W        W11854   4.091  10.123   1.956 -0.1243 -0.1875 -0.2145
 7655W        W11855  10.316   0.880  10.804 -0.0914  0.0086 -0.2464
 7656W        W11856   4.315   9.517   2.954  0.3763 -0.0450  0.0148
 7657W        W11857   1.936   1.833   0.284  0.3579 -0.2577 -0.0371
 7658W        W11858   8.440   9.801  11.507  0.1093  0.2710 -0.2182
 7659W        W11859   8.048   6.589  13.248  0.2203  0.0082 -0.1807
 7660W        W11860   1.478   1.190   9.061  0.2658  0.1819 -0.2632
 7661W        W11861   7.765   5.426  10.625  0.0690 -0.1420  0.0170
 7662W        W11862   5.133   8.873  10.486  0.1688 -0.0278 -0.2053
 7663W        W11863   4.627   4.731  10.134 -0.5905 -0.1165  0.0920
 7664W        W11864  10.244   5.392   4.366 -0.0154  0.0091 -0.0554
 7665W        W11865   2.190   6.632   4.929 -0.2683  0.1919 -0.1431
 7666W        W11866   7.533   5.387  13.272  0.2745 -0.2009 -0.1970
 7667W        W11867   8.684   4.412  10.058  0.0898 -0.1289  0.3759
 7668W        W11868   2.208   8.882  11.885  0.0878 -0.4651  0.0050
 7669W        W11869   6.895   1.898  10.159 -0.1791  0.1860 -0.0853
 7670W        W11870   4.904   1.833  10.151  0.0466 -0.1311  0.1404
 7671W        W11871   3.946   6.710  11.318  0.1022 -0.3628  0.0791
 7672W        W11872   6.125   5.466  11.796 -0.1165 -0.0164  0.1204
 7673W        W11873   4.221   6.143   3.867  0.0877 -0.0957  0.1787
 7674W        W11874   0.760   9.015  11.321  0.3937  0.2607 -0.2805
 7675W        W11875   6.708   5.066  11.101 -0.2766 -0.0111  0.1070
 7676W        W11876   2.130   4.551   4.341  0.0877 -0.0811 -0.3038
 7677W        W11877   5.048   4.470   8.752  0.1982  0.3302 -0.0767
 7678W        W11878   9.452   4.796   4.835  0.0545 -0.2777 -0.0909
 7679W        W11879   0.933   9.927  11.209  0.1449  0.0684  0.4679
 7680W        W11880  10.138   8.879  13.386 -0.0206 -0.0864  0.2580
 7681W        W11881   0.857   6.703  11.607  0.0697 -0.1994  0.1789
 7682W        W11882   5.316   9.180  10.071 -0.0996 -0.1238  0.0132
 7683W        W11883   8.330   7.789  13.342  0.2513 -0.0718 -0.1662
 7684W        W11884   1.073   7.239  10.241 -0.3807 -0.1931 -0.0790
 7685W        W11885   7.216   1.506   3.509  0.0977  0.0095 -0.1668
 7686W        W11886   9.253   1.972   0.827 -0.0911 -0.0932 -0.1337
 7687W        W11887   2.094   8.173   1.724  0.3704  0.3156  0.1437
 7688W        W11888   9.884   0.317  12.089  0.0226  0.1802 -0.1039
 7689W        W11889   2.614   9.181  11.224  0.0694 -0.2927  0.0440
 7690W        W11890   3.996   2.338   4.110  0.0484 -0.0734 -0.0771
 7691W        W11891   4.730   4.938   2.010 -0.0194 -0.2781  0.2801
 7692W        W11892   7.121   2.365   9.727  0.3085  0.2441 -0.0452
 7693W        W11893   7.234   3.908  10.022  0.1004  0.2501 -0.1404
 7694W        W11894   0.132   4.717  12.549 -0.1311 -0.3152  0.0628
 7695W        W11895   6.418   6.843  10.505  0.2768 -0.1494 -0.1166
 7696W        W11896   4.819   9.260  12.363  0.1364 -0.1385 -0.0649
 7697W        W11897   5.728   0.436   3.266  0.3473 -0.0491 -0.1907
 7698W        W11898   9.832   3.689  10.781  0.0240  0.2660  0.4836
 7699W        W11899   0.591   7.424  12.806 -0.1221  0.1401 -0.2548
 7700W        W11900   7.222   9.495   1.936  0.0612 -0.1920 -0.1707
 7701W        W11901   6.072   6.169  11.127 -0.0361  0.2004 -0.1238
 7702W        W11902   8.207   6.625   2.713  0.3217 -0.3348  0.0086
 7703W        W11903   9.216   0.141   0.419 -0.0089 -0.1332 -0.1900
 7704W        W11904   1.159  10.266  11.931  0.2449  0.2515  0.1880
 7705W        W11905   5.001   3.743   1.857  0.1453 -0.0600  0.3451
 7706W        W11906   9.275   2.216   1.295  0.0358  0.2261 -0.0244
 7707W        W11907   1.228   2.390  10.019 -0.1961  0.1383  0.3192
 7708W        W11908   7.223   5.579  10.372 -0.0334 -0.4008  0.3092
 7709W        W11909   8.929   8.465  12.932 -0.1038  0.2169  0.0911
 7710W        W11910   6.504   6.366   3.321  0.2054  0.0897 -0.0021
 7711W        W11911   9.212   7.985  13.658  0.0968 -0.1221  0.0369
 7712W        W11912   0.700  10.242  13.562 -0.1907  0.0502 -0.1409
 7713W        W11913   9.425   7.017  11.142  0.2794 -0.1738 -0.0886
 7714W        W11914   5.167   1.632  11.803 -0.0162 -0.1616 -0.2384
 7715W        W11915   7.997   0.450   0.365  0.0078 -0.2235  0.1757
 7716W        W11916  10.189   8.152   3.059 -0.2696  0.0049 -0.0452
 7717W        W11917   0.555   9.585   9.127  0.2237 -0.1240  0.0744
 7718W        W11918   4.230   5.350  12.546 -0.1066  0.2386 -0.1200
 7719W        W11919   8.195   6.398   1.509  0.0165  0.1453 -0.3938
 7720W        W11920   5.264   3.222   0.073 -0.0718 -0.0257 -0.2312
 7721W        W11921   7.757  10.236  11.838  0.1967  0.0798 -0.0404
 7722W        W11922   3.975   4.361   4.290  0.2185 -0.2962  0.0460
 7723W        W11923   4.090   8.965   9.724  0.0909  0.1167 -0.1788
 7724W        W11924   6.538   2.699  11.292 -0.1937  0.1017  0.2700
 7725W        W11925   0.905   7.936  13.632 -0.2237  0.0905  0.0269
 7726W        W11926   3.384   1.580  12.521 -0.0151  0.0163  0.4341
 7727W        W11927   4.147   6.567  12.935 -0.0115 -0.1714  0.0879
 7728W        W11928   6.133  10.241  12.763  0.2574 -0.0022 -0.1786
 7729W        W11929   0.504   1.987   0.372  0.2276 -0.2361  0.0612
 7730W        W11930   4.206   6.593   3.094 -0.2380  0.0555  0.0498
 7731W        W11931   3.035   5.253   1.964 -0.1160  0.0549  0.1777
 7732W        W11932  10.260   3.872   0.386  0.1409 -0.1382  0.0656
 7733W        W11933   7.717   1.734  11.134  0.1507 -0.0624 -0.0633
 7734W        W11934   0.803   2.463   2.156 -0.2049  0.2079  0.0789
 7735W        W11935   3.168   0.888  13.202  0.2391 -0.1498 -0.3107
 7736W        W11936   8.992  10.138   0.126 -0.0009  0.1036 -0.0450
 7737W        W11937   6.154   7.304   0.930 -0.1667 -0.0795 -0.0302
 7738W        W11938   8.180   1.030   3.035  0.1790  0.4201  0.2021
 7739W        W11939   6.639   6.640   1.352  0.1336 -0.2093  0.1410
 7740W        W11940   1.146   8.144  13.238  0.0632 -0.0999 -0.1049
 7741W        W11941   2.816   4.151   9.843  0.1398  0.2534  0.0625
 7742W        W11942   6.419   0.321   4.067 -0.0826  0.2686  0.0263
 7743W        W11943   2.141   9.236  13.020 -0.1078  0.1839  0.2783
 7744W        W11944   4.515   8.022  12.600  0.2467  0.4795  0.0850
 7745W        W11945   9.289   9.816  11.490  0.0471 -0.1243  0.2129
 7746W        W11946   8.276   0.805  12.777  0.2319 -0.0990  0.1495
 7747W        W11947   1.221   0.879   3.394 -0.0456  0.2216  0.0112
 7748W        W11948   0.534   0.897   2.761  0.3047  0.2871 -0.0849
 7749W        W11949   8.323   2.645   1.806 -0.1412 -0.0314 -0.1347
 7750W        W11950   2.436   5.582   4.393  0.0900  0.0385 -0.0396
 7751W        W11951   0.959   7.541   9.049  0.0152  0.0392 -0.0662
 7752W        W11952   4.034   8.144  12.263  0.3390 -0.0709  0.0048
 7753W        W11953   0.666   8.049   3.459 -0.1236  0.1464 -0.0569
 7754W        W11954   7.871   7.289   1.497 -0.1035  0.2288 -0.1727
 7755W        W11955   7.732   9.819  12.427 -0.0524  0.2160 -0.0438
 7756W        W11956   5.096   2.509   2.716  0.0354  0.0362  0.0519
 7757W        W11957   1.926   3.451  11.904 -0.0036 -0.0359 -0.0574
 7758W        W11958   6.275   7.749   0.531 -0.2348 -0.1975  0.0711
 7759W        W11959   8.211   9.508  13.326  0.0056  0.0249  0.0111
 7760W        W11960   2.898   6.423  10.401  0.5804  0.4241 -0.3892
 7761W        W11961   6.443   5.255   9.379  0.0949  0.2573 -0.2832
 7762W        W11962   4.644   4.263  13.349  0.3600  0.0843 -0.0172
 7763W        W11963   4.199  10.314   3.000  0.0376 -0.0019  0.0061
 7764W        W11964   7.687   9.404  12.133  0.3244 -0.3169 -0.0899
 7765W        W11965   2.417   5.790  12.879 -0.0815  0.0937  0.3201
 7766W        W11966   5.723   2.156  11.420 -0.0644  0.0790  0.1337
 7767W        W11967   1.650   2.954   0.856 -0.1471 -0.1317  0.0789
 7768W        W11968   4.026   8.389   1.440  0.1337  0.1530 -0.3228
 7769W        W11969   2.823  10.388  13.648 -0.1609 -0.1618  0.3432
 7770W        W11970   2.776   3.440  11.420  0.1505  0.1028 -0.3631
 7771W        W11971   7.971   4.900  11.535 -0.0252  0.0877 -0.0586
 7772W        W11972   7.581   4.645  10.270  0.1159  0.0321 -0.0395
 7773W        W11973   2.526   4.724   1.143  0.0767 -0.2413 -0.4267
 7774W        W11974   4.974   2.497   0.809  0.1000  0.0285 -0.1395
 7775W        W11975   1.031   3.988   1.329 -0.0624  0.0686 -0.1398
 7776W        W11976   1.108   1.280   9.426 -0.0945  0.1751  0.1382
 7777W        W11977   8.025   1.290  11.970  0.0088  0.1204  0.0019
 7778W        W11978   3.572   0.585   0.024 -0.2292 -0.3148 -0.0225
 7779W        W11979   2.405   3.220   4.222 -0.2569  0.0282  0.2989
 7780W        W11980   1.991   4.937   2.032  0.0776 -0.3585  0.2472
 7781W        W11981   7.003   4.889   0.737 -0.1024 -0.3285  0.0930
 7782W        W11982   5.165   5.813   2.183  0.1084  0.1101 -0.1925
 7783W        W11983   4.215   1.776   2.869 -0.1073  0.4783 -0.3841
 7784W        W11984   7.089  10.147   0.592 -0.1127 -0.0099  0.1177
 7785W        W11985   2.142   5.389   4.757 -0.1667 -0.3061  0.2631
 7786W        W11986   8.970   8.571   0.629  0.0113  0.1436  0.1106
 7787W        W11987   5.634   7.061   0.572 -0.1420  0.3258 -0.3184
 7788W        W11988   4.505   0.930   2.160  0.0740 -0.0366  0.2233
 7789W        W11989   0.070   6.893  10.862 -0.0778 -0.2834  0.1101
 7790W        W11990   4.592   6.274   2.813 -0.2073 -0.0573 -0.2373
 7791W        W11991   6.348   7.535  13.600 -0.0434  0.0657 -0.3364
 7792W        W11992   1.099   7.051   8.153 -0.0446  0.0405  0.0856
 7793W        W11993   2.264   3.195   5.461 -0.2890 -0.0436 -0.2728
 7794W        W11994   6.572   5.237   5.559 -0.0033 -0.2683 -0.0633
 7795W        W11995   6.051   0.668   3.917 -0.2907 -0.0022  0.0492
 7796W        W11996   4.756   5.075   2.681  0.0355  0.1149 -0.1486
 7797W        W11997  10.002   3.062   8.853 -0.0061 -0.0899 -0.1389
 7798W        W11998   1.644   1.958  13.285 -0.2622 -0.2346  0.2331
 7799W        W11999   9.352   1.617   4.345  0.1102 -0.1686  0.0762
 7800W        W12000   0.674   9.278  12.403 -0.1850 -0.3223 -0.2152
 7801W        W12001   6.711   5.279  13.068 -0.2828  0.0175 -0.0804
 7802W        W12002   9.757   1.008   3.708 -0.0858  0.0220  0.0606
 7803W        W12003   6.262   9.618   2.090 -0.0674  0.0723 -0.0906
 7804W        W12004   1.923   0.506  11.424 -0.0450  0.1373  0.0845
 7805W        W12005   3.759   5.256   0.513  0.0632 -0.3632 -0.0741
 7806W        W12006   8.338   1.105   0.391  0.3184  0.2995  0.2658
 7807W        W12007   8.302   5.847  11.367  0.2895 -0.0334  0.0022
 7808W        W12008   1.710   6.061  10.952 -0.1356  0.4775 -0.0186
 7809W        W12009   0.456   0.106   0.765  0.1876  0.1515  0.2062
 7810W        W12010   8.955   5.957   9.977  0.0253 -0.3382  0.0974
 7811W        W12011   4.065   0.961  12.312 -0.1512 -0.1848  0.3168
 7812W        W12012   8.689   8.958   9.738 -0.1497  0.2869  0.0099
 7813W        W12013   8.281   0.242   1.245  0.0632 -0.3135  0.0932
 7814W        W12014   4.795   0.202   4.670  0.3877  0.0148 -0.1332
 7815W        W12015   4.691   4.823   0.350 -0.3299 -0.4032 -0.0791
 7816W        W12016   9.536   4.779   1.544  0.2221 -0.2020 -0.0827
 7817W        W12017   0.649   4.986  13.115  0.3601  0.1073  0.0332
 7818W        W12018   5.529   9.167  11.202  0.4816  0.2649 -0.2424
 7819W        W12019   8.385   1.869  10.534  0.2023 -0.3444 -0.1850
 7820W        W12020  10.382   4.922   9.598  0.1617 -0.2860 -0.1111
 7821W        W12021   4.729   1.200   4.998 -0.0367  0.1169  0.0131
 7822W        W12022   0.432   5.290  10.338  0.1038  0.2241  0.2026
 7823W        W12023   8.203   1.868   3.461  0.2602 -0.0734  0.1603
 7824W        W12024   8.496   1.398  12.243 -0.2287  0.1929 -0.0197
 7825W        W12025   8.156   5.674   2.676  0.0304 -0.1114 -0.0675
 7826W        W12026   5.488   1.356   9.544  0.0233  0.0783  0.0995
 7827W        W12027   2.680   6.728   3.347 -0.0482  0.0530  0.1084
 7828W        W12028   1.907   5.868   3.660  0.4208  0.0462  0.0071
 7829W        W12029   1.532   1.563  10.572 -0.3666 -0.0342 -0.3872
 7830W        W12030   6.253   5.583  10.132 -0.0005 -0.0144 -0.0301
 7831W        W12031   6.551   1.686   9.154  0.1013 -0.2227 -0.3868
 7832W        W12032   7.670   5.121   5.290  0.0991  0.0009 -0.0228
 7833W        W12033   3.821   5.888   1.939 -0.1406  0.0050 -0.3047
 7834W        W12034   7.117   1.087   4.657  0.0157  0.1567 -0.0134
 7835W        W12035   0.923   8.835   1.016  0.1078  0.1033 -0.1213
 7836W        W12036   5.758   0.794   9.448  0.0275 -0.0567 -0.2309
 7837W        W12037   4.940   0.253   3.494 -0.1669 -0.1811  0.0719
 7838W        W12038   7.727   8.667   0.836 -0.0410 -0.1801 -0.2584
 7839W        W12039   2.510   1.497   1.768  0.1255  0.0450  0.2427
 7840W        W12040   9.476   6.541  10.911 -0.2742  0.3109 -0.2050
 7841W        W12041   9.230   8.960  12.841 -0.0823  0.0115  0.2590
 7842W        W12042   1.807   7.784   1.354  0.1947 -0.1629 -0.0403
 7843W        W12043   1.599   6.989   3.429  0.1646  0.1574  0.1142
 7844W        W12044   5.862   4.909   0.311  0.1487 -0.0166  0.2272
 7845W        W12045   1.305   8.667   9.674  0.1180  0.1748 -0.2352
 7846W        W12046   2.493   3.313   1.267  0.3342 -0.1148 -0.2962
 7847W        W12047   3.946   1.793   1.480 -0.0020 -0.0398  0.0687
 7848W        W12048   6.870   5.919   1.327 -0.0911 -0.3925  0.3670
 7849W        W12049   0.702   1.190  10.399 -0.2279  0.0326  0.0554
 7850W        W12050   6.999   2.760   1.833  0.4367 -0.1995 -0.3888
 7851W        W12051   6.981   2.478   3.762  0.1229  0.0921  0.0325
 7852W        W12052   2.044   1.719   1.251 -0.1813 -0.0467  0.1371
 7853W        W12053   0.592   7.571   2.036  0.1184 -0.0105 -0.3825
 7854W        W12054   3.021   2.287  11.066 -0.2372 -0.1045  0.1476
 7855W        W12055   8.315   6.656  10.492  0.2214  0.0925 -0.1592
 7856W        W12056   9.848   0.980   1.201  0.0621 -0.0881 -0.0241
 7857W        W12057   3.903   0.525  11.007  0.1074 -0.1368 -0.1204
 7858W        W12058   8.768   4.058   1.079  0.0354  0.0044 -0.1501
 7859W        W12059   0.188   0.859  13.427 -0.1731  0.4302 -0.0544
 7860W        W12060   1.203   7.631  13.210 -0.1698 -0.1593 -0.0139
 7861W        W12061   9.760   5.172   9.538  0.1176 -0.1370  0.1209
 7862W        W12062   7.663   9.002   1.194 -0.0237 -0.4883  0.0123
 7863W        W12063   1.921   8.960  12.318  0.2757 -0.2996  0.0151
 7864W        W12064   7.879  10.024   1.463  0.0338  0.0666 -0.0362
 7865W        W12065   6.002   7.126  10.266 -0.0029 -0.2355 -0.1891
 7866W        W12066   7.933   2.473   3.946 -0.2030 -0.1639  0.1174
 7867W        W12067   0.739   3.205   2.879 -0.0579 -0.0327  0.2865
 7868W        W12068   7.596   3.325  12.914  0.3782  0.0326 -0.0046
 7869W        W12069   3.105   9.123   3.155 -0.0313  0.0629 -0.1387
 7870W        W12070   5.237   7.545  10.711 -0.0156  0.3681  0.2521
 7871W        W12071   7.281   7.137   9.883 -0.1340  0.0931  0.0036
 7872W        W12072   8.147   9.762  11.042 -0.2932 -0.2156 -0.1979
 7873W        W12073   0.616   2.459   0.538 -0.0174  0.2418  0.0288
 7874W        W12074   5.014   0.933   2.081 -0.1869  0.2206 -0.1297
 7875W        W12075   2.599   7.996   4.068 -0.0328 -0.0773  0.3550
 7876W        W12076   7.910   5.664  12.054  0.1113  0.3920 -0.0024
 7877W        W12077   5.543   8.354   1.811 -0.1110 -0.2198  0.0777
 7878W        W12078   7.312   6.099  13.017  0.2078 -0.0492  0.1547
 7879W        W12079   5.116   1.168   3.799  0.0572 -0.2102  0.0081
 7880W        W12080   3.326   7.957   1.676  0.0182 -0.0172  0.0147
 7881W        W12081   1.632   3.078  13.578 -0.4820  0.0918 -0.0093
 7882W        W12082   1.001   6.741   1.843 -0.1191 -0.0387 -0.3249
 7883W        W12083   7.551   9.585  11.126  0.1833  0.2860 -0.2387
 7884W        W12084   4.255   5.024   5.391  0.1693  0.2305 -0.2442
 7885W        W12085   3.386   8.199   2.836 -0.3540  0.2787 -0.0385
 7886W        W12086   8.873   7.217  11.959  0.1279  0.1587  0.0690
 7887W        W12087   7.501   0.458  10.122 -0.1808 -0.2602 -0.1394
 7888W        W12088   0.023   2.734   3.885  0.1194 -0.2461 -0.4460
 7889W        W12089   9.863   6.357   4.146 -0.2034 -0.0330 -0.1175
 7890W        W12090  10.104   0.362   0.720  0.1110  0.1486 -0.2431
 7891W        W12091   7.807   4.940   0.284  0.0222 -0.0665  0.0919
 7892W        W12092   0.223   6.373   3.447  0.1599  0.0133  0.0704
 7893W        W12093   6.777   1.599   2.658 -0.0596  0.2481  0.3213
 7894W        W12094   4.165  10.236   1.245  0.1056 -0.2377 -0.3202
 7895W        W12095   1.082   7.758  10.420  0.2837  0.0667 -0.0477
 7896W        W12096   9.848   2.769   0.592  0.0930 -0.1599 -0.1699
 7897W        W12097   1.849  10.024  13.155  0.0103  0.1065  0.2152
 7898W        W12098   0.633   0.647  12.168  0.0302 -0.1732  0.1146
 7899W        W12099   3.509   5.050  11.640 -0.0467  0.0767  0.1468
 7900W        W12100   4.494   3.644   2.804  0.0629  0.2302 -0.0904
 7901W        W12101   0.840   2.964  11.091  0.2235 -0.2403  0.2266
 7902W        W12102   1.196  10.182   0.113  0.0407  0.4368  0.0790
 7903W        W12103   1.098   1.535   2.728 -0.4571 -0.3126 -0.5092
 7904W        W12104   1.406   6.928  11.773 -0.1248 -0.2764  0.2160
 7905W        W12105   0.893   8.315   2.257  0.2726 -0.2449 -0.0741
 7906W        W12106   1.057   7.073  11.186 -0.0291 -0.3338 -0.1799
 7907W        W12107   5.933   3.829   2.475 -0.3038 -0.2565  0.2556
 7908W        W12108   3.679   0.759   0.485  0.0485 -0.1680  0.2610
 7909W        W12109   3.913   4.732   4.674  0.2057 -0.0734 -0.1620
 7910W        W12110   8.670   1.922   3.670 -0.2674 -0.1141 -0.0955
 7911W        W12111   9.772   4.054   3.884  0.0074  0.0660  0.0986
 7912W        W12112   5.749   9.442  13.350 -0.1108  0.0418  0.1676
 7913W        W12113   2.099   2.263   2.177 -0.0352 -0.1308  0.0152
 7914W        W12114   0.846   2.915  12.608 -0.1045 -0.3045  0.0107
 7915W        W12115   1.772   3.964   2.720 -0.0272  0.0018  0.2894
 7916W        W12116   1.337   8.777   3.016 -0.1965  0.0966 -0.1341
 7917W        W12117   3.980   9.129   2.985 -0.1542  0.2877 -0.0076
 7918W        W12118   8.309   9.080  10.103 -0.5390  0.1210 -0.0492
 7919W        W12119   9.255  10.037   1.907  0.1500 -0.1444 -0.2126
 7920W        W12120   8.449   6.921  12.407  0.3906  0.2846 -0.1848
 7921W        W12121   8.713   1.866   0.668 -0.0996  0.2265 -0.2846
 7922W        W12122   4.136   3.258   2.676  0.0625 -0.0009 -0.0440
 7923W        W12123   4.871   0.819   3.017  0.0855 -0.0338  0.0290
 7924W        W12124   9.235   3.100  13.552  0.0151 -0.2153 -0.0390
 7925W        W12125   4.258   6.100   1.647 -0.0646 -0.0859  0.1710
 7926W        W12126   3.644   7.193   2.968 -0.2043 -0.3208  0.3738
 7927W        W12127   1.152   3.231   0.793 -0.3547  0.2623  0.0711
 7928W        W12128   4.608   0.057  10.257 -0.0753 -0.0788 -0.1908
 7929W        W12129   2.314   8.341   9.518  0.0578 -0.2926 -0.0486
 7930W        W12130   9.962   7.469   2.628  0.1253  0.0533  0.1812
 7931W        W12131   0.735   5.142   3.475  0.3374 -0.0483 -0.0411
 7932W        W12132   8.416   5.242  12.901 -0.2367  0.1753  0.1321
 7933W        W12133   0.872   9.902   1.462  0.1098 -0.0056  0.1930
 7934W        W12134   0.207   4.989   1.715 -0.0457  0.0487 -0.4706
 7935W        W12135   6.458   2.098   2.564  0.0439  0.3092  0.0465
 7936W        W12136   4.340   7.804   4.731  0.0077  0.1958  0.0247
 7937W        W12137   2.373   7.085  10.706 -0.1586 -0.0428  0.0411
 7938W        W12138   6.388   2.697   3.287 -0.1736  0.3315  0.1322
 7939W        W12139   3.858   6.938   4.126 -0.3512  0.0966 -0.2490
 7940W        W12140   7.448   6.404   4.432 -0.1125 -0.3390 -0.3319
 7941W        W12141   5.487   2.193   2.988 -0.0964 -0.0422  0.1833
 7942W        W12142   4.446   7.488  11.801 -0.0606  0.0514  0.0143
 7943W        W12143   6.927   5.448   2.687 -0.3198 -0.2893 -0.0583
 7944W        W12144   1.867   5.572   3.259 -0.1922  0.0027  0.0615
 7945W        W12145   1.946   4.624   9.728 -0.1671  0.1337  0.1507
 7946W        W12146   2.552  10.304   1.294  0.0136  0.0952 -0.0017
 7947W        W12147   6.679   8.732   2.698 -0.3177  0.0693 -0.0129
 7948W        W12148   0.932   2.416   0.116  0.0167  0.0834  0.2974
 7949W        W12149   9.871   7.015  12.083  0.0144  0.2921  0.1584
 7950W        W12150   9.911   5.924   2.164  0.0997 -0.1866 -0.0387
 7951W        W12151   7.923   5.232  12.913 -0.3815 -0.0874 -0.0974
 7952W        W12152   0.039   0.428  10.082 -0.1870 -0.1588  0.3382
 7953W        W12153   8.535   1.601   2.217 -0.2038  0.0271  0.0500
 7954W        W12154  10.094   5.172  10.853 -0.2640  0.1751  0.1605
 7955W        W12155   1.827   4.188   0.860  0.1557 -0.0598 -0.0225
 7956W        W12156   1.288   1.293   3.641  0.2037 -0.0570 -0.0937
 7957W        W12157   4.283   2.598   8.368 -0.1459 -0.2089  0.2403
 7958W        W12158   1.666   5.729   1.511 -0.2382 -0.2907  0.0462
 7959W        W12159   7.298   9.149  13.460 -0.3076  0.1443 -0.0339
 7960W        W12160   5.057   3.462   9.123 -0.1890 -0.1052 -0.0705
 7961W        W12161   2.846   5.149   2.428  0.1225 -0.2142 -0.4937
 7962W        W12162   2.271   7.248   1.937  0.0073  0.0435  0.1984
 7963W        W12163   0.300  10.305   0.212  0.1145 -0.1602 -0.0019
 7964W        W12164   0.966   8.771  13.160 -0.1032 -0.2561 -0.1161
 7965W        W12165   2.652   5.346   3.461 -0.0856 -0.0553  0.0298
 7966W        W12166   3.685   7.130   8.817 -0.1044 -0.1464  0.1187
 7967W        W12167   7.340   5.944   4.145  0.0803 -0.1533 -0.1659
 7968W        W12168   5.883   8.546   3.503 -0.1359  0.1576 -0.2005
 7969W        W12169   0.926   0.539  13.162  0.2207 -0.2061  0.2103
 7970W        W12170   6.831   5.159   0.309 -0.2753  0.0221 -0.0134
 7971W        W12171   8.632   7.317  11.504 -0.0762 -0.2387 -0.0951
 7972W        W12172   9.398   3.056   3.189  0.0289  0.1698  0.0827
 7973W        W12173   4.215   3.472  11.221  0.1818  0.3573  0.1406
 7974W        W12174   1.593   2.108   4.272 -0.1831  0.0470  0.1210
 7975W        W12175   0.606   6.200  11.655 -0.0677  0.0644 -0.1005
 7976W        W12176   2.130   0.786  12.308 -0.3875 -0.0297  0.2279
 7977W        W12177   3.951   8.218   3.419  0.2040  0.2015  0.2649
 7978W        W12178   0.140   6.333   0.251  0.0629  0.1924  0.2072
 7979W        W12179   3.301   8.838   1.327  0.1946  0.0940 -0.0888
 7980W        W12180   9.222   2.250   4.329 -0.0413  0.1193  0.1262
 7981W        W12181   0.345   4.452   3.832  0.1328 -0.0052 -0.1727
 7982W        W12182   7.861   8.501   0.423 -0.0529  0.0597 -0.0442
 7983W        W12183   8.480   9.264   2.304  0.1531 -0.1972 -0.1605
 7984W        W12184   0.593   1.838  11.307  0.2963 -0.4071 -0.2809
 7985W        W12185   3.213   7.592  12.483 -0.2232 -0.2288 -0.0118
 7986W        W12186   5.278   1.440   2.349 -0.1660  0.0004  0.3256
 7987W        W12187   5.567   2.406  12.223  0.1333  0.1768  0.3745
 7988W        W12188   2.614   2.810   3.921  0.0498 -0.1118 -0.0530
 7989W        W12189  10.305   2.323   3.576  0.1557  0.0760  0.0914
 7990W        W12190   2.447   0.222  11.322 -0.0906 -0.1324  0.2853
 7991W        W12191   6.314  10.245  10.861  0.1152  0.1107 -0.0237
 7992W        W12192   0.248   1.831  12.635 -0.0142 -0.1322  0.2500
 7993W        W12193   3.555   4.974  13.035  0.0194 -0.4934 -0.2269
 7994W        W12194   3.955   0.756  13.281 -0.0583  0.4086 -0.4281
 7995W        W12195   1.043   6.673   0.338 -0.0818  0.2344  0.0225
 7996W        W12196   5.211   9.520  11.239 -0.1244 -0.1197 -0.1386
 7997W        W12197   5.396   3.526   1.634 -0.0090  0.0209 -0.0542
 7998W        W12198   8.042   0.509  12.464 -0.1581 -0.2699  0.3342
 7999W        W12199   1.601   2.186  11.907  0.0655  0.1574  0.2459
 8000W        W12200   4.972   7.427   1.165  0.2365  0.0687  0.2383
 8001W        W12201   0.823   3.201   2.400 -0.0541  0.2046 -0.1521
 8002W        W12202   8.041   1.365  12.454 -0.1435  0.0033  0.0922
 8003W        W12203   7.757   0.662   9.742 -0.0506  0.1732  0.1802
 8004W        W12204   0.079   9.599  12.198 -0.0350 -0.1526  0.4170
 8005W        W12205   5.219   7.116  10.387  0.0558 -0.0265 -0.2411
 8006W        W12206   4.308   3.595   4.339 -0.1673  0.1901  0.0528
 8007W        W12207   9.908   8.592  10.787  0.1110  0.2034 -0.1938
 8008W        W12208   0.246   6.294  12.010 -0.0264 -0.1518  0.2352
 8009W        W12209   6.396   5.153   9.927 -0.2373  0.1123  0.1096
 8010W        W12210   8.176   8.486   1.766 -0.1441  0.0375 -0.2219
 8011W        W12211   2.861   3.891   4.856 -0.1901 -0.0831  0.0706
 8012W        W12212   7.011   4.956  12.664 -0.1637  0.0360  0.2363
 8013W        W12213   1.036   1.590  11.459 -0.1845 -0.0291 -0.1233
 8014W        W12214   8.792   3.634   1.394  0.0047 -0.2593 -0.2588
 8015W        W12215   4.832   8.554   3.428 -0.0963  0.0991 -0.0327
 8016W        W12216   7.879   5.982  11.628  0.1787  0.2141 -0.2503
 8017W        W12217   3.999   5.102   9.406 -0.0726 -0.2526  0.0029
 8018W        W12218   4.551   1.090   0.222 -0.1626 -0.0620 -0.0629
 8019W        W12219   6.708   3.917   4.730  0.2205  0.3761 -0.2172
 8020W        W12220   1.185   2.860   1.508  0.2711 -0.2329 -0.4947
 8021W        W12221   3.157   1.164   3.954 -0.1605 -0.1261  0.0895
 8022W        W12222  10.351   0.189  12.313 -0.2296 -0.5249 -0.0102
 8023W        W12223   9.524   8.043   0.973 -0.0577 -0.3870  0.0137
 8024W        W12224   2.070   1.468   9.578  0.0733  0.2476 -0.2447
 8025W        W12225   0.020   4.996   4.709 -0.2875 -0.1244  0.2949
 8026W        W12226   0.076   0.008  10.408  0.1242  0.1486  0.0274
 8027W        W12227   8.693   7.605  13.026  0.5151 -0.0908  0.0913
 8028W        W12228   4.579   6.503  12.710  0.1427 -0.0539 -0.1246
 8029W        W12229   4.538   2.844  10.785  0.0466 -0.1013  0.3686
 8030W        W12230   7.786   2.797   3.373  0.0050  0.0912 -0.2874
 8031W        W12231   0.920   0.936   0.956 -0.0936  0.0368 -0.0223
 8032W        W12232   4.649   4.629   1.594  0.0983 -0.0840 -0.1445
 8033W        W12233   4.383   3.316   1.385  0.1437 -0.2764 -0.2675
 8034W        W12234   3.647   8.817  11.974  0.1791  0.2163  0.1087
 8035W        W12235   8.041   4.593   3.273 -0.3286  0.2041  0.0305
 8036W        W12236   7.299   0.468  12.854 -0.5091 -0.2484  0.0082
 8037W        W12237   5.990   0.745   2.896 -0.0145  0.1043 -0.0438
 8038W        W12238  10.250   7.114  11.298  0.0282 -0.5046 -0.2142
 8039W        W12239   5.577   9.642  10.841  0.0518  0.2416  0.1187
 8040W        W12240   0.773   2.977  10.613 -0.0384  0.1308  0.0676
 8041W        W12241   8.086   3.284  12.833 -0.0574  0.2460 -0.0034
 8042W        W12242   3.841   9.790  10.810 -0.2277  0.0486  0.0066
 8043W        W12243   0.409   8.431   3.241  0.0253 -0.0346 -0.1717
 8044W        W12244   6.899   5.266  10.138  0.0485  0.3131  0.2333
 8045W        W12245   7.611   9.629  13.587 -0.0171 -0.0251  0.0322
 8046W        W12246   9.082   6.884   3.043  0.0665  0.1887 -0.2533
 8047W        W12247   1.164   1.869   3.380  0.1055 -0.0013  0.1352
 8048W        W12248   9.866   6.982   2.474 -0.3299  0.2960  0.2568
 8049W        W12249   1.902   9.260   8.707 -0.0672 -0.0715 -0.2427
 8050W        W12250   6.373   9.710  12.970 -0.2789  0.1725 -0.1653
 8051W        W12251   5.101   8.570  13.119 -0.1737  0.3214  0.1496
 8052W        W12252   3.283   7.329   0.058 -0.4957 -0.0014 -0.0852
 8053W        W12253   4.637   1.156   9.300  0.0629 -0.2051 -0.0042
 8054W        W12254   0.875   9.804   3.823 -0.2283 -0.2488  0.1553
 8055W        W12255   7.843   3.241   2.218  0.0373 -0.1433 -0.3588
 8056W        W12256   6.156   9.271   2.381 -0.1869  0.0344  0.0563
 8057W        W12257   2.432   0.554  12.898 -0.1330  0.0889 -0.1995
 8058W        W12258   4.184   7.835   3.082 -0.3268  0.1283  0.2140
 8059W        W12259   0.935   9.764   1.962  0.1221 -0.0643 -0.3609
 8060W        W12260   9.292   4.326   4.353 -0.3186 -0.1805  0.0251
 8061W        W12261   3.977   7.417  10.205  0.1098 -0.0047  0.0792
 8062W        W12262   4.048   6.901   9.222 -0.1748 -0.0020  0.0418
 8063W        W12263   7.612   8.641  11.679  0.1665 -0.2051 -0.1099
 8064W        W12264   4.038   0.086   0.813  0.3007 -0.0187 -0.1420
 8065W        W12265   6.326   8.842   3.599 -0.3347  0.0278  0.3225
 8066W        W12266   7.073   5.707   0.251  0.5246  0.1625  0.1694
 8067W        W12267   6.759   4.382   4.397  0.3597  0.1325  0.0684
 8068W        W12268   1.176   0.186  11.291  0.0430  0.0757  0.0807
 8069W        W12269   2.251   9.028   3.216 -0.1640 -0.3279 -0.3235
 8070W        W12270   2.902   1.820   1.632 -0.0101  0.0426  0.2121
 8071W        W12271   1.693   1.556   3.449 -0.0319  0.3397  0.1009
 8072W        W12272   5.316   3.016   1.677  0.0873 -0.0952 -0.0562
 8073W        W12273   0.356   3.254  12.325 -0.2845 -0.1739 -0.1582
 8074W        W12274  10.160   2.207   1.195  0.0082 -0.0541 -0.4248
 8075W        W12275   4.138   4.998   0.216  0.0161  0.0815 -0.2448
 8076W        W12276   1.362   1.295   3.096  0.1531 -0.0847  0.3037
 8077W        W12277   7.355   5.146   2.545  0.3845 -0.0600 -0.2618
 8078W        W12278   1.321   6.252  10.335  0.1938 -0.0262 -0.2089
 8079W        W12279   9.681   0.881   1.734  0.2133  0.1399  0.1858
 8080W        W12280   0.787   8.305  11.833  0.0894  0.2435  0.5207
 8081W        W12281   3.515   9.433  12.447  0.2305  0.2269 -0.3945
 8082W        W12282   5.110   1.031   9.580  0.0558 -0.0201  0.0650
 8083W        W12283   1.710  10.341   1.834 -0.1001  0.2641  0.0424
 8084W        W12284   0.251   5.310   5.470  0.0388  0.0234  0.0700
 8085W        W12285   5.194   5.018   1.868 -0.5319  0.0617 -0.5342
 8086W        W12286   6.126   1.158  12.088  0.0611 -0.1741 -0.2623
 8087W        W12287   8.942   9.043   0.179 -0.0634 -0.0961 -0.0769
 8088W        W12288   4.920   2.272  12.393  0.1016 -0.1784 -0.1835
 8089W        W12289   4.985   2.937  11.208 -0.1291  0.1299  0.4039
 8090W        W12290   6.747   3.911   4.245 -0.0746  0.0438 -0.3059
 8091W        W12291   5.709   0.456  12.582 -0.4183  0.0792 -0.1593
 8092W        W12292   6.651   9.879  11.852 -0.0221  0.2498  0.2320
 8093W        W12293   7.005   2.504   0.820  0.2130 -0.3672  0.1665
 8094W        W12294   3.544   6.758   3.841  0.0086 -0.0104  0.2481
 8095W        W12295   2.198   0.138   9.233 -0.0609 -0.2363 -0.2895
 8096W        W12296   4.114   8.769  11.413  0.1777 -0.1224 -0.0929
 8097W        W12297   5.583   5.063   4.988 -0.1049 -0.1070 -0.3003
 8098W        W12298   4.131   3.234   1.852 -0.1230  0.0073  0.0895
 8099W        W12299   5.095   2.986   2.880  0.2000 -0.0076 -0.1391
 8100W        W12300   3.954   3.273   9.002 -0.1899  0.2126 -0.4752
 8101W        W12301   6.086   9.900  13.318 -0.3783  0.1349 -0.1545
 8102W        W12302   1.324   7.137   3.005  0.1454 -0.0212 -0.0413
 8103W        W12303   2.633   9.292   9.256 -0.1357  0.0663  0.0611
 8104W        W12304   8.495   3.435  13.076 -0.0152  0.1716 -0.4868
 8105W        W12305   3.085   8.718  10.525 -0.0339 -0.0504  0.1270
 8106W        W12306   1.946   3.820   9.283  0.0560 -0.1248  0.0768
 8107W        W12307   4.878   7.196  11.864 -0.4091  0.2877  0.0419
 8108W        W12308   3.728   1.073   0.887  0.2072 -0.1867  0.2483
 8109W        W12309   4.196   1.528  10.299  0.0132  0.1738 -0.1082
 8110W        W12310   1.501   9.179   9.629  0.1843  0.0215 -0.0354
 8111W        W12311   0.073   7.433  11.612 -0.2696 -0.0221 -0.1900
 8112W        W12312   7.205   0.622   1.854 -0.1581 -0.0744 -0.1045
 8113W        W12313   1.381   7.683   9.362  0.1009  0.0475  0.1410
 8114W        W12314   6.782  10.286  10.895  0.0421 -0.3953  0.1476
 8115W        W12315   8.329   6.291   0.071  0.1347 -0.1018 -0.0480
 8116W        W12316   9.677   4.066  11.535 -0.2666  0.1612  0.1675
 8117W        W12317   8.584   5.796  10.876 -0.0818 -0.0048 -0.3359
 8118W        W12318   3.809   5.700  13.570 -0.1525  0.0642  0.2015
 8119W        W12319   1.763   2.724  10.678 -0.0439  0.3015 -0.2162
 8120W        W12320   6.855   5.361  12.339 -0.0483 -0.1452 -0.1095
 8121W        W12321   7.655   5.603   3.589  0.1537  0.1116  0.1697
 8122W        W12322   5.292   9.072   2.962 -0.0037 -0.1314  0.0132
 8123W        W12323   5.860   3.353  11.072  0.3062 -0.3396 -0.2383
 8124W        W12324   7.877   9.649   0.531 -0.1028 -0.0371  0.0223
 8125W        W12325   8.120   8.316   9.486 -0.1691  0.1324  0.3761
 8126W        W12326   1.789   8.471   9.656  0.3787 -0.2148 -0.1567
 8127W        W12327   2.335  10.249   0.159  0.5142 -0.3566 -0.2009
 8128W        W12328   0.612   6.283   1.090 -0.4353  0.0486 -0.1013
 8129W        W12329   5.730   1.393  10.632 -0.0843 -0.1602  0.0693
 8130W        W12330   7.560   9.663   2.569  0.0491 -0.0662 -0.2969
 8131W        W12331   3.000   9.161   1.617  0.0965  0.0029  0.1844
 8132W        W12332   1.473   0.229  10.116  0.2381 -0.0756 -0.0094
 8133W        W12333   5.752   5.500  11.473  0.0075 -0.3332  0.0949
 8134W        W12334   7.416   7.501  10.199  0.1891  0.0954 -0.0365
 8135W        W12335   5.597   8.207   2.708  0.3282  0.4282 -0.2354
 8136W        W12336   6.120   8.077  12.967 -0.0857 -0.0712 -0.0653
 8137W        W12337   4.084   1.122  10.630  0.0486  0.2328 -0.4090
 8138W        W12338   0.852   1.185   2.423 -0.2600  0.0078  0.1462
 8139W        W12339   7.064   7.998  10.312  0.0485  0.1354 -0.0551
 8140W        W12340   6.267   9.070   1.903  0.1564  0.1248  0.1060
 8141W        W12341   6.613   3.949  10.797 -0.0887 -0.1499 -0.3857
 8142W        W12342   3.926   5.308   8.295 -0.2683 -0.0075 -0.1042
 8143W        W12343   6.738   4.258  12.219 -0.1090 -0.2120  0.1541
 8144W        W12344   0.743   9.179  11.807  0.3316 -0.1155  0.0272
 8145W        W12345   0.724   1.928   0.838  0.2077  0.0432 -0.0153
 8146W        W12346  10.397   9.576  13.508  0.0581  0.0602  0.0226
 8147W        W12347   0.374   5.318   4.324 -0.4335 -0.0893 -0.0250
 8148W        W12348   9.366   7.223  11.922  0.1081  0.0766  0.0609
 8149W        W12349   3.575   9.370   1.961  0.0478  0.1030 -0.0477
 8150W        W12350   9.345   0.094   1.734  0.1227 -0.4638 -0.0466
 8151W        W12351   6.595   8.682   1.810 -0.2913  0.0132 -0.4565
 8152W        W12352   6.563   2.740   3.750  0.2196 -0.0929 -0.0804
 8153W        W12353   7.795   3.311   1.660 -0.1673 -0.2075 -0.3363
 8154W        W12354   0.697   3.679  10.709  0.0422 -0.2778  0.3982
 8155W        W12355   7.144   1.168  12.252  0.0022  0.0101  0.0699
 8156W        W12356   7.859   5.555  11.284 -0.1198  0.4223 -0.1763
 8157W        W12357   7.156   3.535   1.822 -0.1548  0.0498 -0.2661
 8158W        W12358   3.016   3.231  10.626 -0.5325  0.2248 -0.1713
 8159W        W12359   1.199   2.170   3.801 -0.1175  0.3714 -0.2338
 8160W        W12360   9.364   1.897  12.904 -0.4311 -0.0217  0.1782
 8161W        W12361   7.628   8.510  12.171  0.2135  0.4830 -0.3343
 8162W        W12362   9.297   0.400  10.233  0.1252  0.1942  0.0598
 8163W        W12363   6.228   7.582  13.115 -0.2225  0.4736  0.2679
 8164W        W12364   2.957   9.993  13.368  0.1107  0.0860  0.0749
 8165W        W12365   6.963   5.650   4.959  0.3407 -0.1094  0.0040
 8166W        W12366   5.649   8.687  10.373 -0.0015 -0.0756  0.0870
 8167W        W12367   3.954   9.589  11.460  0.2728  0.1298  0.1069
 8168W        W12368   3.632   3.816  13.412 -0.0172  0.0012 -0.0257
 8169W        W12369   6.006  10.357   0.480  0.0958  0.1477 -0.1727
 8170W        W12370   4.256   2.032   3.301 -0.0296 -0.2210 -0.3431
 8171W        W12371   2.443   7.644   2.124 -0.0997  0.0343  0.2196
 8172W        W12372   1.312   6.546   0.760 -0.0418  0.1914  0.0241
 8173W        W12373   4.221   3.153   9.407  0.1377  0.0525 -0.4384
 8174W        W12374   0.862   9.824   0.243 -0.1833 -0.0450 -0.1744
 8175W        W12375   9.032   6.884  10.003  0.0683  0.2976  0.3235
 8176W        W12376   0.950   5.197   0.302  0.0946 -0.1374  0.1242
 8177W        W12377   1.619   1.575   9.394  0.1805  0.4546 -0.0184
 8178W        W12378   1.943   0.495  10.098  0.1019  0.1660  0.0120
 8179W        W12379   1.229   2.771   1.002 -0.0229  0.0437 -0.0998
 8180W        W12380   6.999   4.185  12.632  0.3179  0.4460  0.0658
 8181W        W12381   3.997   3.285   4.040  0.0063  0.1715  0.1662
 8182W        W12382   3.553   6.351   9.189 -0.2179 -0.0017 -0.3513
 8183W        W12383   4.401   9.843   1.724 -0.1298  0.1761 -0.2418
 8184W        W12384   3.769  10.122   0.584 -0.1813 -0.0785  0.0843
 8185W        W12385   5.148   3.890  11.631  0.1713 -0.1600  0.1149
 8186W        W12386   3.540   0.045  12.869  0.0143  0.1136  0.0771
 8187W        W12387   1.411   3.420  12.330  0.1158 -0.2972  0.2518
 8188W        W12388   6.329   5.938   9.681  0.0146  0.0997  0.1401
 8189W        W12389   0.057   1.735  11.247 -0.0386 -0.1247 -0.0574
 8190W        W12390   4.684   5.389   5.023 -0.1709  0.1514 -0.0003
 8191W        W12391   0.546   8.212  10.947 -0.3229 -0.2443  0.1257
 8192W        W12392   5.472   3.898   9.874  0.2282 -0.0589  0.3875
 8193W        W12393   1.779   3.046   3.535  0.3902  0.0068 -0.0092
 8194W        W12394   5.097   2.709  13.084 -0.0229  0.1769  0.1474
 8195W        W12395  10.055   5.877   4.137 -0.2284  0.1144  0.0190
 8196W        W12396   4.154   1.128   4.900  0.1308  0.0522  0.1671
 8197W        W12397   4.139   4.627  12.201 -0.0831 -0.2909 -0.2271
 8198W        W12398   0.976   2.438  12.423  0.2433  0.1752 -0.3919
 8199W        W12399   1.574   2.756  11.865  0.0798  0.2033  0.1167
 8200W        W12400   9.187   5.782   2.894  0.2411 -0.0493  0.2206
 8201W        W12401   9.037   8.424   3.743  0.0385  0.0258 -0.0057
 8202W        W12402   7.067   8.859  12.899  0.3466 -0.0815  0.2787
 8203W        W12403   8.745   5.886   9.500 -0.2629  0.1913 -0.5054
 8204W        W12404   8.112   7.304   2.474 -0.0449 -0.0646  0.0898
 8205W        W12405  10.095   6.666  11.542  0.1223 -0.2607  0.1165
 8206W        W12406   0.159   1.434   2.727  0.0240  0.0811 -0.0220
 8207W        W12407   5.680   9.314  11.829 -0.1646  0.0273  0.1556
 8208W        W12408   4.120   1.951   5.309  0.1286 -0.3666  0.1242
 8209W        W12409   7.854   3.772  12.666  0.0130 -0.1051  0.2300
 8210W        W12410   4.278   1.722   9.845  0.0765 -0.0216 -0.1659
 8211W        W12411   0.842   6.765  13.002 -0.0305  0.5200 -0.1702
 8212W        W12412   4.413   3.510   3.745 -0.0686  0.0718  0.0264
 8213W        W12413   4.873   5.494   1.154 -0.0314 -0.1333 -0.2834
 8214W        W12414   5.900   0.186  11.600 -0.1148  0.2612  0.0223
 8215W        W12415   9.789   0.414   1.557  0.0844  0.0726 -0.0557
 8216W        W12416   6.161   7.224  10.732  0.0271 -0.0315 -0.1344
 8217W        W12417   1.858   7.108   2.235 -0.3471 -0.4177  0.0098
 8218W        W12418   2.826   4.223   0.273 -0.1419 -0.1135 -0.2615
 8219W        W12419   1.528   9.776   2.551  0.1248  0.0788 -0.1259
 8220W        W12420   5.838   6.391  13.506 -0.1592  0.0725 -0.2620
 8221W        W12421   2.443   3.622  11.119 -0.1193 -0.2830 -0.1708
 8222W        W12422  10.282   5.856  11.105  0.0452  0.0310  0.3102
 8223W        W12423   1.948   2.255   2.919 -0.0586  0.0707 -0.2587
 8224W        W12424   2.700   3.376  12.650 -0.1925 -0.2389 -0.1191
 8225W        W12425   1.634   6.310   4.737  0.3303  0.0796 -0.1099
 8226W        W12426   0.905   9.065   1.454  0.0664 -0.0374 -0.0700
 8227W        W12427   8.533   9.582   1.905 -0.1409  0.0603  0.2697
 8228W        W12428   5.846   9.674   3.314 -0.0026  0.0638  0.1944
 8229W        W12429   6.303   0.467   0.628 -0.1438 -0.2212  0.1825
 8230W        W12430   6.001   3.795   1.959  0.0257  0.0201 -0.0065
 8231W        W12431   2.990   0.140   2.459  0.1349 -0.0112  0.1926
 8232W        W12432   7.993   9.512  10.172 -0.0771  0.0711 -0.3953
 8233W        W12433   4.868  10.033   1.965  0.2976 -0.1568  0.2692
 8234W        W12434   7.074   2.872  11.449  0.0907 -0.4258 -0.0063
 8235W        W12435   0.168   8.085   9.199 -0.0767  0.2168 -0.1510
 8236W        W12436   6.946   8.542   0.549 -0.3258 -0.3964  0.0954
 8237W        W12437   5.375   3.654  13.585 -0.3711  0.1089 -0.1152
 8238W        W12438   2.942   6.820  13.473 -0.0027 -0.1165  0.0066
 8239W        W12439   2.305   0.472  10.525  0.0172  0.3528 -0.0550
 8240W        W12440   3.047   0.735   0.188  0.0770  0.0707 -0.1007
 8241W        W12441   4.128   4.274  10.791 -0.1230 -0.0081  0.0559
 8242W        W12442   7.075   1.335   2.241  0.3011  0.2689  0.1175
 8243W        W12443   1.245   7.619   9.942 -0.1027 -0.2499 -0.0979
 8244W        W12444   3.112   3.951   1.120  0.0211 -0.2967  0.0687
 8245W        W12445   6.665   3.550  13.376  0.1149  0.0541 -0.6466
 8246W        W12446   3.025   3.019  13.138  0.0845 -0.2730  0.2041
 8247W        W12447   0.240  10.245   1.150 -0.3052 -0.0802  0.1048
 8248W        W12448   3.020  10.341   9.888 -0.1026 -0.1587  0.5602
 8249W        W12449  10.385   2.978   9.964 -0.3328  0.2055  0.1330
 8250W        W12450   3.402   3.091  12.259  0.0936  0.0489 -0.1380
 8251W        W12451   9.236   7.376   1.721 -0.2156  0.0382 -0.1121
 8252W        W12452   5.787   5.718   2.882 -0.1156 -0.2671  0.0806
 8253W        W12453   0.970   0.323  11.730  0.1487  0.2219 -0.0998
 8254W        W12454   3.596   3.821  12.521 -0.1296 -0.1137  0.2012
 8255W        W12455   9.386   0.957  11.410 -0.2263  0.0894 -0.1127
 8256W        W12456   5.657   9.266   1.070  0.1587 -0.0394  0.2897
 8257W        W12457   6.303   6.871   2.258 -0.0147  0.2500  0.1386
 8258W        W12458   4.808   7.713   0.562  0.2253  0.0513  0.0508
 8259W        W12459   7.888   3.135   4.953  0.0199 -0.0253  0.1617
 8260W        W12460  10.318   7.040  10.348  0.3210 -0.2060 -0.3350
 8261W        W12461   4.088   5.770  11.069 -0.1737 -0.0711  0.0366
 8262W        W12462   4.281   4.356   0.996  0.0599 -0.0371 -0.1751
 8263W        W12463   6.535   3.076   1.686  0.0354 -0.0394  0.1119
 8264W        W12464   6.973   1.900   4.842 -0.0228 -0.2412 -0.1327
 8265W        W12465   5.071   8.229   3.097 -0.3673 -0.1901 -0.1104
 8266W        W12466   6.143   4.842   1.187  0.2479  0.0913  0.0344
 8267W        W12467   5.412   4.213   3.086  0.0886  0.0247 -0.0196
 8268W        W12468   4.234   5.516  10.671  0.0069 -0.1182 -0.0757
 8269W        W12469   7.054   2.945   0.543 -0.0160  0.2376 -0.0451
 8270W        W12470  10.099   2.359   3.110 -0.1226 -0.2640 -0.0091
 8271W        W12471   2.189   8.766   1.536  0.0340 -0.2385 -0.0962
 8272W        W12472   5.300   8.355  10.558 -0.0947 -0.1025 -0.1686
 8273W        W12473   1.571   0.977   1.575 -0.1243  0.0636 -0.3199
 8274W        W12474   9.149   3.712  12.343  0.0958 -0.0691  0.2928
 8275W        W12475   7.535   6.537  12.203 -0.2717  0.3819  0.2500
 8276W        W12476   2.781   5.750  11.779 -0.1524 -0.1435 -0.2344
 8277W        W12477   6.984   3.447   2.660  0.2256 -0.0783 -0.1937
 8278W        W12478   5.370   3.735   9.378  0.1000  0.0032 -0.2552
 8279W        W12479   5.970   8.774   4.049 -0.0437 -0.1089  0.0514
 8280W        W12480   9.059   5.442   2.465 -0.1683 -0.0212  0.1229
 8281W        W12481   1.215   1.143  11.651 -0.0834  0.1663 -0.3813
 8282W        W12482   8.349   7.350   3.078 -0.2194 -0.1356  0.2507
 8283W        W12483   3.533   8.838  13.028  0.0655  0.1453  0.1552
 8284W        W12484   3.866   6.154  11.356 -0.0886 -0.2577  0.0154
 8285W        W12485   4.417   3.376   0.576 -0.1033  0.3645  0.1678
 8286W        W12486  10.094   3.470  13.187 -0.1211 -0.0800  0.1066
 8287W        W12487   8.239   8.207   0.269 -0.2128 -0.1473  0.2658
 8288W        W12488   9.255   3.999   0.847 -0.2258  0.0107  0.0210
 8289W        W12489   9.853   3.099   9.762 -0.7439  0.1379  0.2384
 8290W        W12490   4.793   8.057  10.669 -0.0263  0.1535  0.0555
 8291W        W12491   8.799   5.277  12.114  0.1239  0.0235 -0.0053
 8292W        W12492   1.424   7.046  10.862 -0.0917 -0.1185  0.2280
 8293W        W12493   2.802   9.776   9.196  0.0753  0.1782  0.0098
 8294W        W12494   1.383   2.867  12.592  0.2085  0.1034  0.1173
 8295W        W12495   0.338   7.455   3.769  0.4153  0.1092  0.3433
 8296W        W12496   8.897   6.571   3.416  0.2272 -0.0550  0.3346
 8297W        W12497   6.965   7.068   0.233  0.0353  0.0871  0.3655
 8298W        W12498   9.116   8.457  11.298  0.1088 -0.0430  0.1643
 8299W        W12499   1.416   3.918   3.111 -0.0988 -0.0642 -0.3333
 8300W        W12500   9.699   3.926   9.367 -0.0501  0.2545  0.0643
 8301W        W12501   8.589   2.416   2.195 -0.1616  0.4226 -0.1259
 8302W        W12502   9.249   9.798  10.993 -0.2058 -0.3126 -0.1676
 8303W        W12503   6.232   5.358   4.382 -0.1396  0.0111 -0.0694
 8304W        W12504   5.129   1.296  11.467  0.3058  0.0335 -0.2712
 8305W        W12505   3.246   2.968   3.347 -0.3284 -0.0624  0.3018
 8306W        W12506   5.691   7.291  13.047  0.0968  0.4484  0.0128
 8307W        W12507   8.773   0.038  11.906  0.1961  0.0478 -0.3104
 8308W        W12508   1.587   0.011  13.432  0.3136 -0.2381  0.3274
 8309W        W12509   2.021   4.311   0.418  0.0594  0.0226  0.0335
 8310W        W12510   1.329   4.254   0.439 -0.1307 -0.1569 -0.5892
 8311W        W12511   2.155   9.502   1.000  0.2175  0.0830  0.0534
 8312W        W12512   7.594   2.599  10.847  0.1184 -0.0890  0.1528
 8313W        W12513   8.997   5.095  11.099  0.1668  0.2214  0.0476
 8314W        W12514   2.504   1.815  11.528 -0.1481 -0.0246 -0.0580
 8315W        W12515   1.164   4.762   0.428  0.0847 -0.0040 -0.0867
 8316W        W12516   6.710   6.069   0.167  0.1225  0.0621 -0.0483
 8317W        W12517   7.035   0.435   2.755 -0.1397  0.1003 -0.0899
 8318W        W12518   4.448   0.197  11.646  0.0574 -0.3567  0.0589
 8319W        W12519   0.601   1.010   8.650  0.1035 -0.2611  0.0452
 8320W        W12520   1.748   8.686   1.208  0.2275  0.1995 -0.2611
 8321W        W12521   4.108   2.990  11.160 -0.1937  0.0567 -0.1969
 8322W        W12522   2.877   8.504  11.181 -0.2204 -0.0566 -0.3229
 8323W        W12523   7.024   1.192   9.845 -0.3352  0.1372  0.0659
 8324W        W12524   1.495   8.354   0.396  0.1286 -0.0425 -0.0194
 8325W        W12525   6.063   8.163   0.368 -0.1056 -0.2329 -0.1889
 8326W        W12526   4.573   1.156  12.953 -0.1871  0.0644 -0.2774
 8327W        W12527   9.673   4.390  10.135 -0.0478 -0.1378 -0.0781
 8328W        W12528   0.213   3.682   9.559 -0.4623  0.0002  0.2881
 8329W        W12529   6.072  10.145   0.078  0.0659  0.1560  0.3063
 8330W        W12530   9.845   6.639   5.526  0.1026  0.1239  0.1377
 8331W        W12531   1.355   2.406  10.476 -0.0088  0.0565 -0.2498
 8332W        W12532   1.702   4.612  10.753 -0.0051  0.0543  0.2791
 8333W        W12533   4.201   1.112  11.143 -0.0564  0.0192  0.1473
 8334W        W12534   9.614   0.745  10.980  0.2580  0.0357 -0.0383
 8335W        W12535   0.934   3.342   0.344 -0.2416  0.0156 -0.2909
 8336W        W12536   7.566   9.700   3.438  0.1717 -0.0075  0.0376
 8337W        W12537   1.445   6.271   9.310 -0.1816 -0.0072  0.0089
 8338W        W12538   7.831   4.363  11.382  0.1413  0.0790 -0.1708
 8339W        W12539   7.458   7.249  11.563  0.3265 -0.2779  0.1395
 8340W        W12540   2.096   4.222   5.333  0.1655  0.1206  0.0894
 8341W        W12541   1.303   1.630   0.327  0.4261 -0.1713  0.2897
 8342W        W12542   4.691   1.230   3.409 -0.0992  0.3385  0.1571
 8343W        W12543   0.892   4.005   9.104 -0.0732  0.1351 -0.2301
 8344W        W12544   3.299   5.709   9.856 -0.3956  0.0674 -0.0034
 8345W        W12545   0.182   5.838   4.700  0.1311 -0.0609  0.1504
 8346W        W12546   0.066   5.598   1.202  0.1187  0.1651  0.0898
 8347W        W12547   2.371   7.363   3.041  0.1511 -0.3021  0.0401
 8348W        W12548   1.831   5.102   0.018 -0.1840  0.1828  0.1836
 8349W        W12549   3.509   5.663   0.315 -0.1107  0.2863 -0.3168
 8350W        W12550   2.955   5.238   0.072  0.1319 -0.1865 -0.1321
 8351W        W12551   4.933   0.344   4.003  0.0267 -0.0807 -0.1968
 8352W        W12552   8.071   1.318   2.244  0.1691 -0.3559  0.0532
 8353W        W12553   1.318   8.469  11.879  0.3281 -0.2245 -0.2908
 8354W        W12554   5.075   4.378   3.413  0.0360  0.1941  0.0900
 8355W        W12555   5.529   6.724  10.323 -0.5339 -0.1595  0.0568
 8356W        W12556   6.642   2.952  11.772  0.0620  0.0421  0.2347
 8357W        W12557   9.474   9.916   2.392  0.1760  0.0292 -0.1129
 8358W        W12558   2.574   1.598   3.230 -0.1619  0.2900 -0.0497
 8359W        W12559   9.923   9.584   9.333 -0.2827  0.0195  0.2432
 8360W        W12560   2.680   5.348   4.794  0.2453 -0.1478  0.0937
 8361W        W12561  10.248   0.340   3.053 -0.4504  0.0426  0.5067
 8362W        W12562   0.156   0.487  11.208 -0.1751 -0.1969 -0.0765
 8363W        W12563   3.447   2.194   9.614  0.5924  0.0790  0.0401
 8364W        W12564   1.066   6.130  12.938  0.0231  0.1139 -0.0240
 8365W        W12565   3.567   9.700   0.859  0.0939  0.0262 -0.1604
 8366W        W12566   2.365   2.601   0.366  0.0724  0.0531 -0.1600
 8367W        W12567   1.526   6.675  11.357  0.0316 -0.0642 -0.0557
 8368W        W12568   5.063   3.515  10.558 -0.0545 -0.1207 -0.0601
 8369W        W12569   6.467   7.761  12.717 -0.1255  0.0266  0.0032
 8370W        W12570   5.259   2.314  13.292 -0.0433  0.1073  0.1791
 8371W        W12571   5.134   6.346   2.943 -0.2265  0.0360 -0.1111
 8372W        W12572   7.708   9.094  10.242 -0.1031  0.1363 -0.1541
 8373W        W12573  10.007   1.447   3.946 -0.3474  0.6452 -0.1786
 8374W        W12574   7.971   7.885   9.800 -0.0016 -0.2866  0.2901
 8375W        W12575   4.355   9.681  10.837 -0.1828 -0.0838  0.3209
 8376W        W12576   3.939   2.368   3.620 -0.0226 -0.3308  0.1921
 8377W        W12577   6.112   2.040  13.205  0.0200  0.0627 -0.0506
 8378W        W12578   1.887   0.331   3.238 -0.0837 -0.2551 -0.1029
 8379W        W12579   1.476   4.009   2.056  0.1516  0.2591  0.1865
 8380W        W12580   9.538   9.250  10.022 -0.1241  0.1146 -0.1904
 8381W        W12581   0.030   9.746   0.288 -0.2203  0.0461  0.2421
 8382W        W12582   4.747   7.199   3.117  0.2578  0.2751  0.0353
 8383W        W12583   7.242   6.718   1.066 -0.0620  0.0985 -0.2949
 8384W        W12584   4.057   3.695   1.428  0.0180 -0.2250  0.0034
 8385W        W12585   2.227  10.056   3.023  0.1858 -0.2981 -0.0043
 8386W        W12586   2.321   8.097  10.237 -0.0727  0.0849 -0.2638
 8387W        W12587   2.271   5.442   0.902  0.2859  0.0947  0.0459
 8388W        W12588   2.680   9.262  12.835  0.0214 -0.0650  0.2503
 8389W        W12589   3.172   9.003   4.822  0.3511  0.2617 -0.2104
 8390W        W12590   3.409   2.000   1.365  0.2417 -0.0989 -0.0620
 8391W        W12591   7.832   2.816   1.763 -0.0009 -0.0446  0.1551
 8392W        W12592   2.524   3.078   9.762  0.1085  0.1923 -0.2895
 8393W        W12593   1.899   2.086   3.444  0.1853 -0.2300 -0.1607
 8394W        W12594   0.799   7.173   3.067 -0.1311 -0.2484  0.1670
 8395W        W12595   3.216   7.226  13.127 -0.1079  0.3236 -0.2866
 8396W        W12596   3.836   3.878  10.516  0.3793 -0.0427  0.1143
 8397W        W12597   4.706   6.286   4.596 -0.1933 -0.0045  0.0326
 8398W        W12598   7.395   5.450  11.074 -0.3875 -0.3978  0.0722
 8399W        W12599   8.257   5.273   1.075  0.0406 -0.1414 -0.1039
 8400W        W12600   6.537   3.664   1.879 -0.0460 -0.1411  0.0493
 8401W        W12601   9.154   5.620  12.131 -0.2288  0.0674 -0.3719
 8402W        W12602   3.620   9.861   1.857 -0.0179  0.4869 -0.2453
 8403W        W12603   5.835   3.070  11.548  0.1502  0.2030 -0.1453
 8404W        W12604   2.036   2.696   1.798 -0.2865  0.0176  0.0833
 8405W        W12605   0.808   2.687  13.349 -0.0180  0.1169 -0.1697
 8406W        W12606   1.581   5.471   3.727 -0.0406  0.1640 -0.2621
 8407W        W12607   6.484   6.501  12.273  0.0632 -0.1568 -0.1137
 8408W        W12608   6.023   2.164  10.498  0.0389  0.2248  0.1490
 8409W        W12609   3.276   3.194  11.795 -0.2513  0.0053 -0.0371
 8410W        W12610   5.596   1.378  10.122 -0.1532 -0.1268 -0.4152
 8411W        W12611   8.128   7.864  11.999 -0.0498 -0.0141  0.0196
 8412W        W12612   5.290  10.279  12.952 -0.1742 -0.3061 -0.1530
 8413W        W12613   3.687   0.864   4.720 -0.1581 -0.0552  0.0981
 8414W        W12614   2.822   5.972  10.106  0.2931  0.0484  0.0100
 8415W        W12615   3.430   1.350   9.790  0.2314  0.0907  0.2742
 8416W        W12616   6.090   7.522  12.438  0.0992  0.1634  0.0095
 8417W        W12617   8.673   5.903  12.258  0.2925  0.1514 -0.0296
 8418W        W12618   4.108   4.581  10.330 -0.1634  0.3282  0.0340
 8419W        W12619   4.499   2.615   4.554  0.1624 -0.0803 -0.2932
 8420W        W12620   3.333   6.891   2.624  0.1662  0.0892 -0.1803
 8421W        W12621   6.570   4.243  12.959 -0.1468 -0.0167 -0.1178
 8422W        W12622   7.369   8.291   0.741  0.1613  0.1302  0.1614
 8423W        W12623   5.482   4.857   1.458 -0.0331 -0.0216 -0.1799
 8424W        W12624   5.110   1.407   9.948 -0.2037  0.1709 -0.2310
 8425W        W12625   8.207   6.132   9.134 -0.0773  0.1374  0.1726
 8426W        W12626   2.790   1.085  12.977  0.0385 -0.1228  0.0788
 8427W        W12627   9.958   8.757  11.245 -0.2393  0.1954 -0.4367
 8428W        W12628   4.062   5.530   0.287 -0.1555 -0.2878  0.1315
 8429W        W12629   8.845   3.763  13.256 -0.1108  0.2724 -0.0946
 8430W        W12630   5.236   2.790   1.165 -0.3551 -0.1909 -0.1415
 8431W        W12631   3.354   1.161   0.488 -0.2194  0.1252  0.0944
 8432W        W12632   0.614   2.018   8.140 -0.1704  0.0802  0.1915
 8433W        W12633   6.881   8.139   2.120 -0.0909  0.0126 -0.0971
 8434W        W12634   8.996   3.554  10.190  0.0686 -0.0962  0.0177
 8435W        W12635   4.345   5.343   2.814 -0.0763  0.3132 -0.0324
 8436W        W12636   8.274   4.264   1.879  0.0085 -0.0172  0.2074
 8437W        W12637   9.393   2.201  10.463 -0.0680  0.0123  0.1416
 8438W        W12638   2.118   1.262   0.077  0.1274  0.2269  0.0938
 8439W        W12639  10.319   4.946  12.175 -0.0488 -0.1246 -0.0314
 8440W        W12640   3.431   2.001   3.429  0.0306 -0.0707 -0.4063
 8441W        W12641   2.105   1.422  11.693  0.1794  0.0650  0.1980
 8442W        W12642   2.717   8.154   0.466  0.2153 -0.3850 -0.1474
 8443W        W12643   0.441   4.765   0.427 -0.1750 -0.2630 -0.0997
 8444W        W12644   2.105   7.171  12.906  0.0924  0.0712  0.1128
 8445W        W12645   1.531   3.479   0.198  0.2127  0.1544 -0.0830
 8446W        W12646  10.150   7.970   2.507  0.2215 -0.2766 -0.0168
 8447W        W12647   0.824   7.686   3.839  0.2181  0.1702  0.1206
 8448W        W12648   7.114   5.739  12.082 -0.1128 -0.0244 -0.2287
 8449W        W12649   5.689   3.476   3.136  0.1022  0.1007  0.1849
 8450W        W12650   0.331   6.733   1.042 -0.1989 -0.0748 -0.1983
 8451W        W12651   0.076   7.672  12.830  0.0130 -0.1356  0.1490
 8452W        W12652   0.219   3.474   2.361 -0.1273 -0.2881  0.0309
 8453W        W12653   7.581   8.202   1.548 -0.0717  0.1367  0.2520
 8454W        W12654   8.387   2.271  11.963 -0.0411  0.1185 -0.1141
 8455W        W12655   1.495   3.927  11.700  0.1563 -0.0633  0.2623
 8456W        W12656   7.191   1.968   2.496 -0.0743 -0.2966 -0.3211
 8457W        W12657   1.519   3.748   1.425  0.2169 -0.1043 -0.0559
 8458W        W12658   9.750   0.664  10.193 -0.0368 -0.3735  0.0355
 8459W        W12659   4.181   5.630   3.785 -0.1559 -0.0245  0.0931
 8460W        W12660   8.274   2.875   9.632 -0.1934  0.1137  0.2910
 8461W        W12661   8.421   6.356   3.449  0.0785 -0.3887  0.0372
 8462W        W12662   2.578  10.104  10.019  0.0768  0.0160  0.0516
 8463W        W12663   2.380   2.357  13.559 -0.0963  0.2374  0.0488
 8464W        W12664   8.743   6.162  11.192  0.4460  0.4577  0.0776
 8465W        W12665   9.999   4.586   4.958 -0.0739  0.1417  0.2204
 8466W        W12666   5.974   4.846  13.478 -0.1194 -0.2101 -0.0821
 8467W        W12667  10.234   2.661   0.915  0.0328  0.0201  0.0913
 8468W        W12668   8.896   9.269   1.198 -0.1480 -0.3012 -0.1697
 8469W        W12669   2.453   7.432  10.344  0.2818 -0.1088 -0.0586
 8470W        W12670   9.368   4.340   3.119 -0.1163 -0.2807 -0.1640
 8471W        W12671   6.097   2.816  12.996  0.1662  0.1446  0.0898
 8472W        W12672   0.053   5.273  12.561  0.0835 -0.0073 -0.2095
 8473W        W12673   7.890   4.374   1.115 -0.0029 -0.0905  0.0194
 8474W        W12674   0.351   2.088   8.619 -0.1255 -0.4095 -0.0720
 8475W        W12675   8.765   7.791   3.818  0.3583  0.1787 -0.4333
 8476W        W12676   7.506   3.241   0.379  0.0027 -0.0705  0.0293
 8477W        W12677   6.274   8.713  12.204 -0.2657 -0.0857 -0.1502
 8478W        W12678   1.632   3.731  12.767 -0.2445 -0.1805 -0.0563
 8479W        W12679   0.423   7.649   1.165 -0.2547  0.0466  0.0243
 8480W        W12680   2.304   9.847   1.337 -0.0978  0.1816 -0.1829
 8481W        W12681   8.045   9.025   2.374 -0.1938 -0.5334 -0.0745
 8482W        W12682   6.443   2.680  12.699  0.1872 -0.1949 -0.1788
 8483W        W12683   6.039   1.181   2.987 -0.1701 -0.1207  0.1263
 8484W        W12684   9.453   8.622   3.059 -0.0123  0.1226 -0.0351
 8485W        W12685   6.333   4.142   3.325 -0.2811  0.5260 -0.3539
 8486W        W12686   5.008   1.724  10.845 -0.1169 -0.0394 -0.1487
 8487W        W12687   0.039   5.322  11.789  0.1930 -0.3377  0.1746
 8488W        W12688   9.178   9.390  10.403  0.1042  0.1684 -0.1081
 8489W        W12689   8.036   4.418  10.552 -0.3397  0.2842  0.0381
 8490W        W12690   7.708   7.452  13.575 -0.3558 -0.0216  0.2335
 8491W        W12691   5.348   2.717  10.789 -0.0568  0.0151 -0.0072
 8492W        W12692   7.778   1.866   3.084 -0.2453  0.2588  0.2525
 8493W        W12693   3.336   1.152   3.502 -0.0788  0.0877  0.2584
 8494W        W12694   3.541   5.736  13.122  0.1356  0.2139 -0.2490
 8495W        W12695   5.326   3.046  11.572  0.1143  0.0432 -0.0864
 8496W        W12696   8.897   9.080   2.611  0.1099 -0.2688 -0.2227
 8497W        W12697   3.132   8.780  11.688  0.2473  0.1262 -0.2458
 8498W        W12698   2.447   9.659  13.067 -0.1506  0.2821 -0.1439
 8499W        W12699  10.192   4.677  11.799 -0.0693  0.0566  0.0272
 8500W        W12700   1.569   3.425   3.215  0.0489  0.1901  0.0896
 8501W        W12701   5.599   0.744   0.118  0.0322 -0.0026  0.0028
 8502W        W12702   1.885   8.939   9.972  0.1168  0.2725 -0.1219
 8503W        W12703   1.851   0.975  13.386 -0.1390  0.3109  0.1030
 8504W        W12704  10.148   0.159  11.378  0.0703 -0.1135  0.2531
 8505W        W12705   3.265   5.687  13.523 -0.2148  0.0960 -0.1732
 8506W        W12706   0.414   6.464  10.885  0.0339  0.0089 -0.1260
 8507W        W12707   3.617   3.179   2.602 -0.0929 -0.3480 -0.1787
 8508W        W12708   5.182   4.373   9.939  0.1796  0.0413 -0.1896
 8509W        W12709   5.735   7.731   4.505  0.0401  0.0253  0.2547
 8510W        W12710   8.111   2.618  12.192  0.0893 -0.0326 -0.1505
 8511W        W12711   5.300   9.598  13.633  0.0088  0.2800 -0.1809
 8512W        W12712   3.660   4.443   5.132 -0.1784 -0.4131  0.0058
 8513W        W12713   4.023   4.754  13.285  0.1290 -0.0977 -0.2565
 8514W        W12714   4.692   2.120  13.641  0.0430 -0.0072  0.0198
 8515W        W12715   7.497   6.509   0.606  0.3570 -0.3284 -0.0708
 8516W        W12716   1.893   0.223   8.731 -0.2026  0.2402  0.1840
 8517W        W12717   2.523   3.388   2.797 -0.0702 -0.1067  0.1931
 8518W        W12718   3.091   3.723  13.642 -0.1858  0.0190  0.0533
 8519W        W12719   5.333   3.605   0.908 -0.0554 -0.1334  0.1221
 8520W        W12720   1.183   8.975   2.501  0.1110 -0.0554 -0.0921
 8521W        W12721   4.592   2.928   0.671 -0.1302 -0.4200  0.1786
 8522W        W12722   0.129   5.268   3.360  0.2134  0.0401 -0.3292
 8523W        W12723  10.046   7.740   0.388  0.2219  0.1428  0.1323
 8524W        W12724   9.017   8.740  12.436  0.1474 -0.0730 -0.0470
 8525W        W12725   5.279   8.287  11.590 -0.1265  0.0769  0.1092
 8526W        W12726   3.710   6.118  12.874 -0.1758 -0.2834  0.1129
 8527W        W12727   7.626   6.331   1.642  0.0184 -0.1216  0.1837
 8528W        W12728   5.383   2.213   1.888  0.0120 -0.1137  0.0126
 8529W        W12729   4.586   4.591   2.381  0.0103  0.0016 -0.0535
 8530W        W12730   5.489   1.736   2.720  0.0503  0.0324  0.0787
 8531W        W12731   7.390   3.647  10.448  0.2791  0.0656 -0.0628
 8532W        W12732   1.775   8.850   0.558 -0.1652  0.0137 -0.1247
 8533W        W12733   7.521   6.122  12.583  0.0441 -0.0216  0.2169
 8534W        W12734   0.834   0.336   8.885 -0.1377  0.3054  0.0739
 8535ION    NA+12735   0.107   9.653  11.222  0.2117 -0.0446  0.2948
 8536ION    NA+12736   6.556   3.557  11.623 -0.3662  0.0370 -0.1383
 8537ION    NA+12737   1.758   6.182   1.763 -0.0687 -0.0630  0.1766
 8538ION    NA+12738   9.125   1.651   9.175 -0.2799 -0.2340 -0.0536
 8539ION    NA+12739  10.206   2.512   2.351  0.0960 -0.2565  0.0867
 8540ION    NA+12740   0.002   2.910   1.889 -0.3000 -0.1024 -0.1698
 8541ION    NA+12741   0.416   3.448   4.406  0.0998 -0.2839 -0.1177
 8542ION    NA+12742   5.058   4.931   5.016  0.1997  0.0134  0.1552
 8543ION    NA+12743   1.554   6.936  10.263 -0.1260 -0.1199  0.0914
 8544ION    NA+12744  10.258   6.312  13.291 -0.2154 -0.1156 -0.0506
 8545ION    NA+12745   5.844   4.179   4.151 -0.2069  0.2227  0.1149
 8546ION    NA+12746   0.380   1.645   1.909  0.1356  0.3176  0.2504
 8547ION    NA+12747   8.052   5.928  10.894  0.0453  0.0060  0.0218
 8548ION    NA+12748   7.935   6.993  13.581  0.0028  0.2245  0.1637
 8549ION    NA+12749   2.549   4.353   2.442 -0.2638  0.0719 -0.1736
 8550ION    NA+12750   7.673   3.173   3.053  0.1492 -0.2497 -0.0781
 8551ION    NA+12751   0.060   7.106   0.888  0.0559 -0.0639  0.0991
 8552ION    NA+12752   2.179   1.835  13.043 -0.1012  0.0116 -0.0933
 8553ION    NA+12753   4.561   8.120   9.834 -0.2439 -0.2152  0.2269
 8554ION    NA+12754   1.773   5.977   0.159  0.0216  0.1328 -0.1617
 8555ION    NA+12755   4.646   9.863   9.146 -0.1202  0.0148  0.1619
 8556ION    NA+12756   5.986   5.856   5.212  0.4168 -0.0495  0.0277
 8557ION    NA+12757   0.222   2.093   4.794 -0.0699 -0.1454  0.0842
 8558ION    NA+12758   1.505   7.423   8.921  0.1858 -0.1888 -0.1648
 8559ION    NA+12759   9.401   7.839  12.607 -0.1789  0.1831 -0.1643
 8560ION    NA+12760   0.530   8.117   4.477  0.1416 -0.2204  0.1661
 8561ION    NA+12761   6.919   9.366  12.918 -0.1682 -0.2140 -0.2413
 8562ION    NA+12762   5.159   6.906   8.745 -0.0903 -0.3248  0.1832
 8563ION    NA+12763   5.585   1.507   9.008  0.0928  0.2200  0.3224
 8564ION    NA+12764   0.833   1.373  13.484 -0.3402 -0.2380  0.1315
 8565ION    NA+12765   0.847   6.884   2.630  0.1506  0.1482  0.2408
 8566ION    NA+12766   3.193   4.533  12.006  0.0401 -0.0566  0.0680
 8567ION    NA+12767   4.526   0.439   4.320 -0.2852 -0.2352  0.2879
 8568ION    NA+12768   6.534   4.631   3.373 -0.1324  0.0985 -0.4878
 8569ION    NA+12769   7.123   0.552  11.030 -0.3499 -0.1403  0.3407
 8570ION    NA+12770   5.878   3.833   9.549  0.1861  0.0882 -0.0046
 8571ION    NA+12771   9.752   7.087  11.513 -0.1866 -0.1137  0.3257
 8572ION    NA+12772   4.347   4.275  12.972 -0.2091  0.0093  0.1427
 8573ION    NA+12773   2.465   0.402   2.561  0.1447  0.3395  0.1094
 8574ION    NA+12774   8.824   5.725  12.944  0.1061  0.0982  0.0314
 8575ION    NA+12775   0.027   8.757   1.539  0.0251  0.0593  0.1975
 8576ION    NA+12776   5.561   9.119  10.646 -0.1427  0.0086  0.1600
 8577ION    NA+12777   1.749   8.915   9.267 -0.1410  0.2188  0.0161
 8578ION    NA+12778   9.050   3.678   8.887 -0.4857  0.0074 -0.1864
 8579ION    NA+12779   2.050   2.973   4.570 -0.3046 -0.0907  0.3232
 8580ION    NA+12780   5.061   6.558   4.870  0.0477 -0.0248 -0.1699
 8581ION    NA+12781   8.509   0.530   1.963 -0.1259 -0.1020  0.3458
 8582ION    NA+12782   2.270   6.080  12.486 -0.0802 -0.1256  0.0166
 8583ION    NA+12783   4.820   9.436  13.565 -0.2476 -0.0392 -0.1970
 8584ION    NA+12784   2.494   2.762  11.918  0.1484 -0.1592 -0.3956
 8585ION    NA+12785   0.070   0.475   9.562 -0.1623  0.2592 -0.0735
 8586ION    NA+12786   0.609   2.337   2.919 -0.3664 -0.2089  0.1640
 8587ION    NA+12787   0.506   5.902   4.336 -0.2042 -0.0816 -0.0472
 8588ION    NA+12788   0.688   3.771   0.490 -0.1560  0.1420  0.1861
 8589ION    NA+12789   3.416   4.002  11.891  0.1105  0.1233  0.1022
 8590ION    NA+12790   6.815   9.402  10.203  0.0946  0.1598  0.0447
 8591ION    NA+12791   0.507   9.629   8.185  0.3511  0.0966  0.2538
 8592ION    NA+12792   3.467  10.021   8.680 -0.1459  0.1459  0.0714
 8593ION    NA+12793   5.022   3.043   5.359  0.4221 -0.0964  0.0798
 8594ION    NA+12794   2.216   8.611  10.513  0.3628  0.3064 -0.0170
 8595ION    NA+12795   0.305   1.747  13.114 -0.2947 -0.1042  0.1141
 8596ION    NA+12796   1.167   1.333   1.738 -0.3576 -0.0038  0.1426
 8597ION    NA+12797  10.179   6.643   2.708  0.1070  0.1437  0.0671
 8598ION    NA+12798   3.121   4.207   3.268 -0.2393  0.1791 -0.0594
 8599ION    NA+12799   8.297   5.012   2.163  0.2137 -0.0496  0.0196
 8600ION    NA+12800   2.355   2.113   3.273 -0.1007 -0.1984  0.4008
 8601ION    NA+12801   3.543   6.394   1.938  0.1878 -0.1576 -0.0484
 8602ION    NA+12802   5.433   6.177  10.091 -0.0611  0.1965  0.0119
 8603ION    NA+12803   5.986   5.374   0.532  0.1878  0.0098  0.1103
 8604ION    NA+12804   1.056   3.794   8.664 -0.2437  0.4091  0.0501
 8605ION    NA+12805   9.539   6.594  13.639  0.0144 -0.1101 -0.4731
 8606ION    NA+12806   3.685   1.217   8.901 -0.1701 -0.3250 -0.2076
 8607ION    NA+12807   6.931   3.992   1.132  0.3337  0.2607 -0.0390
 8608ION    NA+12808   8.996   6.426   1.546 -0.0791  0.1569  0.1583
 8609ION    NA+12809   4.322   6.951  10.043  0.3763  0.0021  0.0212
 8610ION    NA+12810   2.029   1.683   1.852  0.0039  0.1073 -0.3669
 8611ION    NA+12811   4.484   9.002   2.198  0.2704 -0.1507  0.0091
 8612ION    NA+12812  10.291   4.113   5.263  0.2805 -0.1950  0.1391
 8613ION    NA+12813   5.739   2.543   4.966  0.3064 -0.0837  0.0419
 8614ION    NA+12814   3.823   7.937  10.311 -0.0909 -0.1226 -0.1815
 8615ION    NA+12815   5.037   0.479  11.505 -0.3106  0.7044 -0.1648
 8616ION    NA+12816   8.237   0.147   3.515 -0.0734 -0.2141  0.0079
 8617ION    NA+12817   1.339   9.280   2.881  0.1270  0.0027 -0.0995
 8618ION    NA+12818   6.964   8.960   3.047  0.2390 -0.1803  0.0738
 8619ION    NA+12819   9.642   5.481   5.399 -0.1435  0.2635 -0.0393
 8620ION    NA+12820   4.415   4.812  11.836 -0.1383 -0.0003 -0.1413
 8621ION    NA+12821   4.704   6.118   0.793  0.3245  0.0670  0.0030
 8622ION    NA+12822   7.150   7.540  11.907 -0.2904 -0.2146 -0.2804
 8623ION    NA+12823   5.653   0.266   1.664 -0.1906  0.1094 -0.2638
 8624ION    NA+12824   1.513   0.529  11.027  0.0188 -0.0676 -0.0005
 8625ION    CL-12825   4.173   7.860   9.967  0.0991 -0.1066 -0.3094
 8626ION    CL-12826   0.458   1.662  13.575  0.0757  0.0988  0.2412
 8627ION    CL-12827   6.409   5.243  11.451  0.3320  0.0398 -0.1499
 8628ION    CL-12828   2.319   2.635   3.094 -0.0838  0.0372 -0.1805
 8629ION    CL-12829   3.106   4.487   3.636  0.1085  0.0701  0.0925
 8630ION    CL-12830   2.673   8.469  10.335 -0.1365  0.3057 -0.0476
 8631ION    CL-12831   0.051   3.962   4.378 -0.1835  0.1875 -0.5347
 8632ION    CL-12832   8.270   7.406   0.026 -0.2398 -0.0092 -0.1256
 8633ION    CL-12833   8.410   6.177   9.580  0.4859 -0.0368  0.1352
 8634ION    CL-12834   1.531   0.143  10.719  0.0073 -0.1698  0.1578
 8635ION    CL-12835   7.361   8.630  11.130  0.0834 -0.1155  0.0282
 8636ION    CL-12836  10.215   0.975   3.973  0.1696  0.1130  0.0711
 8637ION    CL-12837   9.400   7.035  13.389 -0.3230  0.2190 -0.0995
 8638ION    CL-12838   1.663   9.425   9.200 -0.1813 -0.0025 -0.2136
 8639ION    CL-12839  10.390   9.961  10.758  0.0221  0.2140 -0.2257
 8640ION    CL-12840   1.556   5.285   1.847 -0.0569 -0.1223  0.0731
 8641ION    CL-12841   1.440   0.773   0.270  0.1981 -0.3683 -0.3542
 8642ION    CL-12842   0.529   7.188   0.883 -0.0013  0.5717 -0.0105
 8643ION    CL-12843   2.527   6.858   4.367 -0.2200 -0.0211  0.0716
 8644ION    CL-12844   8.052   1.008   1.620 -0.1231  0.1142 -0.0859
 8645ION    CL-12845   6.177   0.623   1.576  0.1620  0.1956  0.0195
 8646ION    CL-12846   5.211   0.862  11.247  0.0898  0.2283 -0.0688
 8647ION    CL-12847   6.783   3.217  11.260  0.2329  0.0983 -0.0043
 8648ION    CL-12848   3.299  10.015   9.505 -0.1754  0.2814 -0.0509
 8649ION    CL-12849   0.560   6.191  12.958  0.0471  0.1846  0.1282
 8650ION    CL-12850   1.604   1.346   2.039  0.1873  0.0360  0.1040
 8651ION    CL-12851   0.694   2.986   4.317 -0.1558  0.0463  0.0696
 8652ION    CL-12852   7.651   3.676   3.315  0.2989  0.1715  0.3420
 8653ION    CL-12853   3.837   0.629   1.593  0.2449 -0.0427  0.1043
 8654ION    CL-12854   1.655   2.997   4.008  0.1263  0.1818  0.3552
 8655ION    CL-12855   5.538   3.602   3.713 -0.0051  0.0247 -0.0434
 8656ION    CL-12856   8.786   3.356  13.553  0.2194 -0.0061 -0.0260
 8657ION    CL-12857   5.810   3.403   9.214  0.1664  0.1540  0.1256
 8658ION    CL-12858   5.210   9.480  10.521 -0.2208 -0.2969  0.1915
 8659ION    CL-12859   9.952   7.700  10.724 -0.2634  0.2257 -0.4216
 8660ION    CL-12860   6.512   3.797  12.097  0.1443  0.1723 -0.1368
 8661ION    CL-12861   9.114   7.442   3.514  0.2458  0.0299 -0.1205
 8662ION    CL-12862   0.800   4.220   3.958 -0.1389 -0.0775 -0.0075
 8663ION    CL-12863   4.050   4.239  13.373 -0.2394  0.0967 -0.0498
 8664ION    CL-12864   0.712   7.510  13.342  0.3836  0.0886  0.1576
 8665ION    CL-12865   0.080   9.493  12.697  0.0570 -0.0196 -0.1465
 8666ION    CL-12866   0.627   8.672   1.681  0.0173  0.0824 -0.0020
 8667ION    CL-12867   4.844   0.024   0.660 -0.0552  0.0544 -0.1382
 8668ION    CL-12868  10.006   6.157  12.856 -0.1435  0.3189  0.1289
 8669ION    CL-12869   0.431   1.221  13.223  0.0748  0.0691  0.1655
 8670ION    CL-12870   9.382   5.431   0.254  0.0504 -0.2834  0.0787
 8671ION    CL-12871  10.150   9.137   2.651  0.1303 -0.3834  0.0670
 8672ION    CL-12872   1.336   1.975  10.788  0.3142  0.2101  0.1766
 8673ION    CL-12873   8.729   4.418   2.171  0.6305  0.1104  0.1975
 8674ION    CL-12874   5.792   8.092  10.314  0.3038  0.3155  0.2893
 8675ION    CL-12875   1.944   5.096   3.059 -0.1199 -0.0755  0.0148
 8676ION    CL-12876   2.479   1.486  13.465 -0.3556  0.0823  0.5252
 8677ION    CL-12877   4.102   7.156  13.561 -0.0499  0.0356 -0.0423
 8678ION    CL-12878   4.230  10.238  13.527  0.2694  0.3400  0.2888
 8679ION    CL-12879   1.409   1.311  13.337  0.1539  0.0602  0.0767
 8680ION    CL-12880   3.600   4.322  12.304  0.0824 -0.0037  0.1197
 8681ION    CL-12881   1.846   5.393  12.085  0.0707 -0.0763 -0.0307
 8682ION    CL-12882   5.624   6.041   0.882  0.2388 -0.1024 -0.0231
 8683ION    CL-12883   3.495   8.212  10.758 -0.0130  0.1683 -0.0033
 8684ION    CL-12884   2.090   4.566   2.452  0.0205  0.0099 -0.1902
 8685ION    CL-12885   1.207   6.053   4.338 -0.2993 -0.2520 -0.0455
 8686ION    CL-12886   8.487   9.984  10.805  0.0843 -0.1580 -0.1963
 8687ION    CL-12887   6.484   9.046  12.546  0.2778  0.0358  0.0888
 8688ION    CL-12888   5.200   6.630   9.913  0.0251  0.1619 -0.2423
 8689ION    CL-12889   0.162   3.475   1.772 -0.0820 -0.0694 -0.2313
 8690ION    CL-12890   0.311   6.763   2.616 -0.0158 -0.1363  0.2870
 8691ION    CL-12891   8.119   9.581   2.473 -0.2467 -0.0394  0.2869
 8692ION    CL-12892   0.989   2.679   3.012 -0.0055  0.2038 -0.0930
 8693ION    CL-12893   5.034   8.384   1.998  0.0771 -0.0163  0.2610
 8694ION    CL-12894   8.235   3.738   1.776  0.0028 -0.0576  0.0228
 8695ION    CL-12895   3.351   6.022   2.170 -0.0826  0.0367  0.1349
 8696ION    CL-12896   6.549   3.688   1.041 -0.1462 -0.1666  0.4106
 8697ION    CL-12897   8.062   5.546   2.179  0.2053  0.0397 -0.1740
 8698ION    CL-12898   0.281   2.542   2.144 -0.0799  0.0182  0.4614
 8699ION    CL-12899   5.432   4.287   4.471 -0.3671  0.2839  0.3927
 8700ION    CL-12900   0.361   1.151   2.350  0.0150  0.1294  0.2997
 8701ION    CL-12901   1.054   7.240   9.507  0.1592  0.0825  0.3295
 8702ION    CL-12902   7.854   6.376  10.841 -0.1636  0.3081 -0.1123
 8703ION    CL-12903   4.506   9.136   1.726 -0.2103  0.0635 -0.0838
 8704ION    CL-12904   6.426   7.335   2.969  0.0105  0.0666 -0.1309
 8705ION    CL-12905   1.953   9.336  10.248 -0.2041 -0.0988  0.0714
 8706ION    CL-12906   5.899   4.220   9.975  0.1593  0.0463 -0.1995
 8707ION    CL-12907   5.269   6.746  12.208 -0.0694  0.0071 -0.0665
 8708ION    CL-12908   9.298   1.440  11.663 -0.0665 -0.1854 -0.2176
 8709ION    CL-12909   6.680   0.070   2.734  0.0691 -0.0122  0.1144
 8710ION    CL-12910   4.340   4.906   4.461  0.1227 -0.1358 -0.2428
 8711ION    CL-12911   2.987   4.716  11.472 -0.0787  0.3710 -0.1522
 8712ION    CL-12912   9.804   7.526  11.735  0.0029 -0.1398  0.3852
 8713ION    CL-12913   6.171   5.535   0.078  0.2581 -0.3316 -0.0296
 8714ION    CL-12914   5.535   7.505  11.115 -0.0661 -0.0807 -0.1317
  10.40114  10.40114  13.65923
