Protein in INSANE! Membrane UpperLeaflet>POPC=1.0 LowerLeaflet>POPC=1.0
12676
    1AU     AUC    1   5.747   5.859   6.004
    1AU     AUC    2   6.012   5.858   5.850
    1AU     AUC    3   5.994   5.843   6.164
    1AU     AUC    4   5.499   5.865   5.834
    1AU     AUC    5   5.484   5.882   6.154
    1AU     AUC    6   5.601   6.118   6.000
    1AU     AUC    7   5.914   6.109   5.996
    1AU     AUC    8   5.583   5.615   6.011
    1AU     AUC    9   5.881   5.592   6.021
    1AU     AUC   10   5.740   5.705   6.262
    1AU     AUC   11   5.759   6.016   6.263
    1AU     AUC   12   5.746   5.700   5.744
    1AU     AUC   13   5.747   6.000   5.744
    1AU     AUC   14   6.267   5.852   5.696
    1AU     AUC   15   6.265   5.861   5.995
    1AU     AUC   16   6.248   5.846   6.315
    1AU     AUC   17   5.243   5.857   5.675
    1AU     AUC   18   5.229   5.886   5.982
    1AU     AUC   19   5.232   5.910   6.309
    1AU     AUC   20   5.459   6.383   6.000
    1AU     AUC   21   5.771   6.379   6.004
    1AU     AUC   22   6.065   6.368   6.005
    1AU     AUC   23   5.401   5.367   6.015
    1AU     AUC   24   5.709   5.339   6.003
    1AU     AUC   25   6.028   5.330   6.024
    1AU     AUC   26   5.737   5.553   6.512
    1AU     AUC   27   5.757   5.860   6.533
    1AU     AUC   28   5.764   6.167   6.523
    1AU     AUC   29   5.753   5.524   5.505
    1AU     AUC   30   5.767   5.840   5.481
    1AU     AUC   31   5.754   6.149   5.481
    1AU     AUC   32   6.002   5.694   6.427
    1AU     AUC   33   6.018   5.996   6.430
    1AU     AUC   34   6.027   5.689   5.591
    1AU     AUC   35   6.031   5.994   5.582
    1AU     AUC   36   5.476   5.739   6.427
    1AU     AUC   37   5.493   6.041   6.429
    1AU     AUC   38   5.505   5.701   5.567
    1AU     AUC   39   5.498   6.008   5.574
    1AU     AUC   40   6.170   6.118   5.835
    1AU     AUC   41   6.182   6.091   6.162
    1AU     AUC   42   5.337   6.124   5.843
    1AU     AUC   43   5.343   6.148   6.164
    1AU     AUC   44   6.163   5.584   5.865
    1AU     AUC   45   6.136   5.565   6.167
    1AU     AUC   46   5.324   5.611   5.840
    1AU     AUC   47   5.319   5.637   6.184
    1AU     AUC   48   5.604   6.280   6.274
    1AU     AUC   49   5.921   6.279   6.250
    1AU     AUC   50   5.547   5.451   6.257
    1AU     AUC   51   5.866   5.432   6.272
    1AU     AUC   52   5.600   6.272   5.739
    1AU     AUC   53   5.916   6.259   5.732
    1AU     AUC   54   5.573   5.454   5.741
    1AU     AUC   55   5.902   5.436   5.763
    1AU    AUSL   56   6.259   5.727   6.701
    1AU    AUSL   57   6.013   5.367   6.620
    1AU     AUL   58   6.162   5.290   6.975
    1AU       S   59   6.370   5.087   6.600
    1AU     LIG   60   6.182   4.762   6.849
    1AU     LIG   61   6.362   4.511   7.195
    1AU     LIG   62   6.592   4.200   7.470
    1AU     LIG   63   6.676   3.938   7.861
    1AU     LIG   64   6.719   3.790   8.316
    1AU     LIG   65   6.931   3.603   8.691
    1AU       S   66   6.322   5.662   6.789
    1AU     LIG   67   6.420   5.589   7.269
    1AU     LIG   68   6.634   5.439   7.680
    1AU     LIG   69   6.939   5.411   8.061
    1AU     LIG   70   7.299   5.436   8.389
    1AU     LIG   71   7.628   5.592   8.703
    1AU     LIG   72   7.893   5.594   9.092
    1AU    AUSL   73   5.857   5.692   6.821
    1AU    AUSL   74   5.663   6.057   6.785
    1AU     AUL   75   5.810   6.014   7.200
    1AU       S   76   5.901   5.656   6.966
    1AU     LIG   77   5.894   5.507   7.373
    1AU     LIG   78   6.131   5.284   7.738
    1AU     LIG   79   6.229   5.054   8.169
    1AU     LIG   80   6.238   4.824   8.611
    1AU     LIG   81   6.394   4.711   9.057
    1AU     LIG   82   6.519   4.809   9.508
    1AU       S   83   5.400   5.822   7.152
    1AU     LIG   84   5.254   5.730   7.599
    1AU     LIG   85   5.065   5.639   8.030
    1AU     LIG   86   5.007   5.738   8.488
    1AU     LIG   87   5.082   6.029   8.871
    1AU     LIG   88   4.968   6.281   9.258
    1AU     LIG   89   4.701   6.463   9.609
    1AU    AUSL   90   6.064   6.087   6.786
    1AU    AUSL   91   6.383   6.057   6.493
    1AU     AUL   92   6.481   6.002   6.992
    1AU       S   93   6.090   6.175   6.886
    1AU     LIG   94   6.238   6.350   7.276
    1AU     LIG   95   6.380   6.453   7.737
    1AU     LIG   96   6.457   6.644   8.187
    1AU     LIG   97   6.531   6.802   8.663
    1AU     LIG   98   6.653   6.869   9.140
    1AU     LIG   99   6.611   6.821   9.619
    1AU       S  100   6.626   6.080   6.546
    1AU     LIG  101   6.966   6.100   6.856
    1AU     LIG  102   7.210   6.330   7.206
    1AU     LIG  103   7.476   6.626   7.489
    1AU     LIG  104   7.760   6.747   7.873
    1AU     LIG  105   8.185   6.822   8.128
    1AU     LIG  106   8.592   6.969   8.364
    1AU    AUSL  107   6.300   5.885   5.378
    1AU    AUSL  108   6.070   6.277   5.337
    1AU     AUL  109   6.430   6.226   4.961
    1AU       S  110   6.347   5.912   5.237
    1AU     LIG  111   6.620   5.797   4.820
    1AU     LIG  112   6.638   5.578   4.418
    1AU     LIG  113   6.796   5.485   3.978
    1AU     LIG  114   7.195   5.528   3.695
    1AU     LIG  115   7.587   5.653   3.427
    1AU     LIG  116   7.715   5.719   2.968
    1AU       S  117   6.073   6.335   5.179
    1AU     LIG  118   6.317   6.701   5.071
    1AU     LIG  119   6.678   6.732   4.763
    1AU     LIG  120   6.993   6.887   4.410
    1AU     LIG  121   7.207   7.056   4.007
    1AU     LIG  122   7.361   7.410   3.708
    1AU     LIG  123   7.488   7.879   3.629
    1AU    AUSL  124   6.040   5.577   5.211
    1AU    AUSL  125   6.380   5.516   5.528
    1AU     AUL  126   6.451   5.500   5.174
    1AU       S  127   6.471   5.086   5.379
    1AU     LIG  128   6.589   4.876   4.988
    1AU     LIG  129   6.813   4.520   4.782
    1AU     LIG  130   7.061   4.309   4.433
    1AU     LIG  131   7.460   4.387   4.157
    1AU     LIG  132   7.836   4.486   3.870
    1AU     LIG  133   8.200   4.310   3.617
    1AU       S  134   6.143   5.800   4.951
    1AU     LIG  135   6.229   5.402   4.730
    1AU     LIG  136   6.301   5.208   4.299
    1AU     LIG  137   6.386   5.174   3.826
    1AU     LIG  138   6.393   5.135   3.333
    1AU     LIG  139   6.389   5.049   2.838
    1AU     LIG  140   6.612   5.011   2.395
    1AU    AUSL  141   5.892   5.921   5.396
    1AU    AUSL  142   5.636   5.673   5.183
    1AU     AUL  143   5.834   5.470   5.059
    1AU       S  144   5.360   5.795   4.869
    1AU     LIG  145   5.403   5.407   4.605
    1AU     LIG  146   5.265   5.186   4.182
    1AU     LIG  147   5.089   4.934   3.789
    1AU     LIG  148   4.998   4.786   3.326
    1AU     LIG  149   4.822   4.903   2.888
    1AU     LIG  150   4.681   5.127   2.474
    1AU       S  151   6.030   5.904   5.003
    1AU     LIG  152   6.175   5.853   4.478
    1AU     LIG  153   6.293   5.663   4.043
    1AU     LIG  154   6.452   5.625   3.591
    1AU     LIG  155   6.520   5.806   3.161
    1AU     LIG  156   6.722   6.166   2.920
    1AU     LIG  157   6.846   6.374   2.518
    1AU    AUSL  158   5.282   5.940   6.716
    1AU    AUSL  159   5.426   6.346   6.634
    1AU     AUL  160   5.507   6.266   6.953
    1AU       S  161   5.189   5.959   7.119
    1AU     LIG  162   4.950   5.572   7.217
    1AU     LIG  163   4.792   5.416   7.648
    1AU     LIG  164   4.595   5.383   8.103
    1AU     LIG  165   4.272   5.323   8.481
    1AU     LIG  166   4.034   5.445   8.897
    1AU     LIG  167   3.703   5.686   9.181
    1AU       S  168   5.063   6.360   6.839
    1AU     LIG  169   5.086   6.618   7.234
    1AU     LIG  170   4.984   6.931   7.575
    1AU     LIG  171   4.837   6.984   8.021
    1AU     LIG  172   4.755   7.216   8.429
    1AU     LIG  173   4.574   7.587   8.673
    1AU     LIG  174   4.342   8.013   8.714
    1AU    AUSL  175   5.573   5.725   6.536
    1AU    AUSL  176   5.031   5.716   6.484
    1AU     AUL  177   5.148   5.705   6.739
    1AU       S  178   4.865   5.343   6.764
    1AU     LIG  179   4.513   5.135   6.573
    1AU     LIG  180   4.125   4.877   6.617
    1AU     LIG  181   3.911   4.609   6.954
    1AU     LIG  182   3.728   4.336   7.307
    1AU     LIG  183   3.492   4.148   7.670
    1AU     LIG  184   3.186   4.248   8.032
    1AU       S  185   5.450   5.675   7.080
    1AU     LIG  186   5.395   5.316   7.331
    1AU     LIG  187   5.254   5.219   7.775
    1AU     LIG  188   5.043   5.138   8.201
    1AU     LIG  189   4.889   4.897   8.592
    1AU     LIG  190   4.843   4.741   9.044
    1AU     LIG  191   4.737   4.889   9.471
    1AU    AUSL  192   5.338   5.834   5.403
    1AU    AUSL  193   5.495   5.387   5.431
    1AU     AUL  194   5.369   5.434   5.147
    1AU       S  195   5.078   5.772   5.102
    1AU     LIG  196   4.929   5.573   4.693
    1AU     LIG  197   4.845   5.481   4.220
    1AU     LIG  198   4.653   5.251   3.830
    1AU     LIG  199   4.300   5.121   3.502
    1AU     LIG  200   3.995   5.183   3.124
    1AU     LIG  201   3.828   5.522   2.822
    1AU       S  202   5.054   5.108   5.319
    1AU     LIG  203   4.785   4.741   5.296
    1AU     LIG  204   4.431   4.540   5.069
    1AU     LIG  205   4.177   4.307   4.732
    1AU     LIG  206   4.230   4.090   4.287
    1AU     LIG  207   4.307   3.800   3.890
    1AU     LIG  208   4.145   3.456   3.586
    1AU    AUSL  209   5.610   6.108   5.176
    1AU    AUSL  210   5.114   6.168   5.455
    1AU     AUL  211   5.280   6.167   5.155
    1AU       S  212   4.940   6.473   5.257
    1AU     LIG  213   4.613   6.651   4.973
    1AU     LIG  214   4.514   6.703   4.507
    1AU     LIG  215   4.442   6.862   4.061
    1AU     LIG  216   4.131   7.019   3.744
    1AU     LIG  217   3.682   7.150   3.731
    1AU     LIG  218   3.440   7.515   3.580
    1AU       S  219   5.555   5.858   4.958
    1AU     LIG  220   5.646   5.835   4.475
    1AU     LIG  221   5.321   5.719   4.123
    1AU     LIG  222   5.109   5.857   3.691
    1AU     LIG  223   5.102   6.095   3.249
    1AU     LIG  224   5.127   6.226   2.769
    1AU     LIG  225   4.959   6.272   2.308
    1AU    AUSL  226   6.374   6.455   5.944
    1AU    AUSL  227   6.402   6.211   5.601
    1AU     AUL  228   6.532   6.669   5.757
    1AU       S  229   6.544   6.339   5.395
    1AU     LIG  230   6.900   6.353   5.079
    1AU     LIG  231   7.147   6.483   4.691
    1AU     LIG  232   7.464   6.630   4.359
    1AU     LIG  233   7.911   6.576   4.167
    1AU     LIG  234   8.287   6.808   3.995
    1AU     LIG  235   8.463   7.035   3.602
    1AU       S  236   6.825   6.324   5.889
    1AU     LIG  237   7.272   6.435   6.078
    1AU     LIG  238   7.780   6.498   6.046
    1AU     LIG  239   8.278   6.591   6.012
    1AU     LIG  240   8.693   6.897   6.012
    1AU     LIG  241   8.997   7.307   6.006
    1AU     LIG  242   9.216   7.712   6.182
    1AU    AUSL  243   6.596   5.898   5.772
    1AU    AUSL  244   6.567   5.731   6.207
    1AU     AUL  245   6.858   5.667   5.984
    1AU       S  246   6.810   6.099   5.815
    1AU     LIG  247   7.278   5.983   5.848
    1AU     LIG  248   7.779   6.048   5.790
    1AU     LIG  249   8.271   6.136   5.720
    1AU     LIG  250   8.762   6.081   5.666
    1AU     LIG  251   9.205   6.287   5.654
    1AU     LIG  252   9.564   6.605   5.493
    1AU       S  253   6.860   5.252   6.235
    1AU     LIG  254   7.271   5.037   6.228
    1AU     LIG  255   7.691   4.811   6.227
    1AU     LIG  256   8.091   4.576   6.244
    1AU     LIG  257   8.511   4.415   6.210
    1AU     LIG  258   8.874   4.334   6.467
    1AU     LIG  259   9.193   4.413   6.812
    1AU    AUSL  260   6.379   6.071   6.086
    1AU    AUSL  261   6.268   6.420   6.336
    1AU     AUL  262   6.517   6.448   6.218
    1AU       S  263   6.486   6.217   6.589
    1AU     LIG  264   6.934   6.486   6.528
    1AU     LIG  265   7.149   6.741   6.898
    1AU     LIG  266   7.356   7.079   7.201
    1AU     LIG  267   7.574   7.539   7.257
    1AU     LIG  268   7.832   7.963   7.343
    1AU     LIG  269   8.071   8.349   7.528
    1AU       S  270   6.821   6.132   6.107
    1AU     LIG  271   7.138   6.011   6.354
    1AU     LIG  272   7.617   6.063   6.284
    1AU     LIG  273   8.113   6.114   6.206
    1AU     LIG  274   8.605   6.189   6.143
    1AU     LIG  275   9.086   6.323   6.161
    1AU     LIG  276   9.441   6.570   6.397
    1AU    AUSL  277   5.104   6.414   6.068
    1AU    AUSL  278   5.136   6.161   6.410
    1AU     AUL  279   5.098   6.604   6.338
    1AU       S  280   4.918   6.229   6.621
    1AU     LIG  281   4.673   6.292   7.100
    1AU     LIG  282   4.627   6.550   7.531
    1AU     LIG  283   4.393   6.721   7.942
    1AU     LIG  284   4.030   6.803   8.282
    1AU     LIG  285   3.598   7.015   8.419
    1AU     LIG  286   3.207   7.280   8.551
    1AU       S  287   4.725   6.462   6.116
    1AU     LIG  288   4.583   6.887   6.228
    1AU     LIG  289   4.325   7.315   6.121
    1AU     LIG  290   3.968   7.662   6.125
    1AU     LIG  291   3.530   7.891   6.055
    1AU     LIG  292   3.104   8.135   6.121
    1AU     LIG  293   2.696   8.156   6.416
    1AU    AUSL  294   5.169   6.080   5.840
    1AU    AUSL  295   5.273   6.498   5.703
    1AU     AUL  296   4.991   6.408   5.722
    1AU       S  297   4.597   6.369   5.958
    1AU     LIG  298   4.524   6.639   5.530
    1AU     LIG  299   4.126   6.914   5.337
    1AU     LIG  300   3.603   6.944   5.292
    1AU     LIG  301   3.078   6.930   5.248
    1AU     LIG  302   2.589   6.762   5.213
    1AU     LIG  303   2.119   6.909   5.103
    1AU       S  304   5.067   6.742   5.404
    1AU     LIG  305   4.941   7.031   5.066
    1AU     LIG  306   4.868   7.409   4.807
    1AU     LIG  307   4.525   7.704   4.806
    1AU     LIG  308   4.440   8.100   4.578
    1AU     LIG  309   4.190   8.438   4.377
    1AU     LIG  310   3.826   8.737   4.320
    1AU    AUSL  311   4.889   6.015   6.136
    1AU    AUSL  312   4.933   5.748   5.807
    1AU     AUL  313   4.775   6.009   5.739
    1AU       S  314   4.597   5.575   5.959
    1AU     LIG  315   4.238   5.476   6.286
    1AU     LIG  316   3.750   5.378   6.364
    1AU     LIG  317   3.319   5.168   6.248
    1AU     LIG  318   2.913   5.042   5.942
    1AU     LIG  319   2.413   5.044   5.876
    1AU     LIG  320   1.998   4.934   5.641
    1AU       S  321   4.692   6.090   6.212
    1AU     LIG  322   4.450   6.400   6.520
    1AU     LIG  323   4.019   6.609   6.632
    1AU     LIG  324   3.532   6.702   6.707
    1AU     LIG  325   3.046   6.802   6.716
    1AU     LIG  326   2.621   7.035   6.767
    1AU     LIG  327   2.179   6.875   6.826
    1AU    AUSL  328   6.434   5.363   6.068
    1AU    AUSL  329   6.199   5.608   6.329
    1AU     AUL  330   6.619   5.591   6.428
    1AU       S  331   6.603   5.098   6.064
    1AU     LIG  332   6.857   4.742   6.120
    1AU     LIG  333   7.276   4.529   6.078
    1AU     LIG  334   7.706   4.340   5.980
    1AU     LIG  335   8.148   4.143   5.953
    1AU     LIG  336   8.487   3.893   6.181
    1AU     LIG  337   8.862   3.815   6.502
    1AU       S  338   6.409   5.224   6.583
    1AU     LIG  339   6.689   4.861   6.883
    1AU     LIG  340   6.888   4.538   7.194
    1AU     LIG  341   7.118   4.243   7.504
    1AU     LIG  342   7.473   4.197   7.829
    1AU     LIG  343   7.823   4.264   8.163
    1AU     LIG  344   8.249   4.243   8.400
    1AU    AUSL  345   6.278   5.686   5.882
    1AU    AUSL  346   6.210   5.211   5.763
    1AU     AUL  347   6.567   5.429   5.707
    1AU       S  348   6.588   5.250   6.117
    1AU     LIG  349   7.002   5.117   5.779
    1AU     LIG  350   7.475   4.894   5.763
    1AU     LIG  351   7.967   4.734   5.770
    1AU     LIG  352   8.415   4.515   5.700
    1AU     LIG  353   8.834   4.437   5.482
    1AU     LIG  354   9.216   4.697   5.539
    1AU       S  355   6.476   4.979   5.573
    1AU     LIG  356   6.354   4.575   5.337
    1AU     LIG  357   6.566   4.186   5.101
    1AU     LIG  358   6.821   3.805   4.893
    1AU     LIG  359   7.063   3.348   4.859
    1AU     LIG  360   7.488   3.117   4.760
    1AU     LIG  361   7.974   3.118   4.648
    1AU    AUSL  362   5.045   5.380   5.996
    1AU    AUSL  363   5.126   5.519   5.542
    1AU     AUL  364   4.832   5.571   5.545
    1AU       S  365   5.042   5.168   5.556
    1AU     LIG  366   4.560   5.139   5.525
    1AU     LIG  367   4.232   5.009   5.240
    1AU     LIG  368   3.983   4.764   4.942
    1AU     LIG  369   3.698   4.516   4.682
    1AU     LIG  370   3.421   4.437   4.310
    1AU     LIG  371   3.164   4.444   3.908
    1AU       S  372   4.746   5.343   5.933
    1AU     LIG  373   4.449   5.063   6.062
    1AU     LIG  374   4.009   5.017   6.121
    1AU     LIG  375   3.638   4.777   6.278
    1AU     LIG  376   3.162   4.660   6.196
    1AU     LIG  377   2.740   4.409   6.097
    1AU     LIG  378   2.503   4.023   5.937
    1AU    AUSL  379   5.197   5.751   6.124
    1AU    AUSL  380   5.271   5.407   6.364
    1AU     AUL  381   4.915   5.500   6.321
    1AU       S  382   5.030   5.239   6.678
    1AU     LIG  383   4.924   4.978   6.311
    1AU     LIG  384   4.549   4.653   6.384
    1AU     LIG  385   4.194   4.354   6.604
    1AU     LIG  386   3.892   4.073   6.896
    1AU     LIG  387   3.669   3.766   7.225
    1AU     LIG  388   3.535   3.292   7.350
    1AU       S  389   4.642   5.636   5.986
    1AU     LIG  390   4.177   5.406   5.785
    1AU     LIG  391   3.687   5.364   5.849
    1AU     LIG  392   3.197   5.475   5.880
    1AU     LIG  393   2.873   5.414   6.270
    1AU     LIG  394   2.385   5.358   6.314
    1AU     LIG  395   1.953   5.240   6.504
    1AU    AUSL  396   5.783   6.519   6.541
    1AU    AUSL  397   5.467   6.327   6.233
    1AU     AUL  398   5.490   6.642   6.601
    1AU       S  399   5.113   6.445   6.764
    1AU     LIG  400   5.001   6.873   6.784
    1AU     LIG  401   4.896   7.194   7.125
    1AU     LIG  402   4.711   7.566   7.379
    1AU     LIG  403   4.603   8.050   7.404
    1AU     LIG  404   4.314   8.427   7.490
    1AU     LIG  405   3.881   8.557   7.637
    1AU       S  406   5.863   6.930   6.530
    1AU     LIG  407   5.974   7.266   6.813
    1AU     LIG  408   6.068   7.667   7.023
    1AU     LIG  409   6.137   7.905   7.433
    1AU     LIG  410   6.093   8.174   7.832
    1AU     LIG  411   5.922   8.518   8.120
    1AU     LIG  412   5.862   8.979   8.230
    1AU    AUSL  413   5.542   6.711   6.163
    1AU    AUSL  414   5.989   6.691   5.789
    1AU     AUL  415   5.616   6.942   5.932
    1AU       S  416   5.764   6.975   6.362
    1AU     LIG  417   5.750   7.432   6.377
    1AU     LIG  418   5.678   7.807   6.664
    1AU     LIG  419   5.502   8.239   6.802
    1AU     LIG  420   5.387   8.710   6.898
    1AU     LIG  421   5.343   9.192   7.039
    1AU     LIG  422   5.174   9.639   7.109
    1AU       S  423   6.046   6.990   5.742
    1AU     LIG  424   6.375   7.124   5.491
    1AU     LIG  425   6.442   7.593   5.330
    1AU     LIG  426   6.686   8.052   5.313
    1AU     LIG  427   6.815   8.542   5.252
    1AU     LIG  428   6.877   9.031   5.205
    1AU     LIG  429   6.814   9.503   5.136
    1AU    AUSL  430   5.931   6.546   6.162
    1AU    AUSL  431   5.953   6.176   6.417
    1AU     AUL  432   6.097   6.538   6.577
    1AU       S  433   6.503   6.363   6.716
    1AU     LIG  434   6.720   6.489   7.094
    1AU     LIG  435   6.974   6.748   7.417
    1AU     LIG  436   7.186   6.883   7.841
    1AU     LIG  437   7.245   7.100   8.280
    1AU     LIG  438   7.291   7.500   8.558
    1AU     LIG  439   7.438   7.850   8.861
    1AU       S  440   6.018   6.854   6.234
    1AU     LIG  441   6.246   7.264   6.375
    1AU     LIG  442   6.393   7.705   6.594
    1AU     LIG  443   6.684   8.138   6.670
    1AU     LIG  444   6.853   8.624   6.711
    1AU     LIG  445   6.696   9.084   6.692
    1AU     LIG  446   6.769   9.549   6.808
    1AU    AUSL  447   5.700   5.299   6.367
    1AU    AUSL  448   6.106   5.207   6.248
    1AU     AUL  449   5.884   5.096   6.619
    1AU       S  450   5.693   4.702   6.495
    1AU     LIG  451   5.724   4.324   6.713
    1AU     LIG  452   5.439   3.999   6.859
    1AU     LIG  453   5.301   3.565   6.914
    1AU     LIG  454   5.321   3.225   7.245
    1AU     LIG  455   5.383   3.049   7.693
    1AU     LIG  456   5.509   2.753   8.049
    1AU       S  457   6.248   4.993   6.357
    1AU     LIG  458   6.483   4.613   6.460
    1AU     LIG  459   6.637   4.317   6.801
    1AU     LIG  460   6.900   4.014   7.087
    1AU     LIG  461   7.223   3.690   7.289
    1AU     LIG  462   7.523   3.283   7.360
    1AU     LIG  463   7.922   3.002   7.384
    1AU    AUSL  464   5.409   5.107   6.141
    1AU    AUSL  465   5.499   5.379   6.715
    1AU     AUL  466   5.420   5.084   6.489
    1AU       S  467   5.507   4.649   6.366
    1AU     LIG  468   5.264   4.294   6.451
    1AU     LIG  469   5.132   3.842   6.477
    1AU     LIG  470   4.987   3.403   6.522
    1AU     LIG  471   4.733   3.007   6.546
    1AU     LIG  472   4.611   2.630   6.787
    1AU     LIG  473   4.671   2.200   6.918
    1AU       S  474   5.199   5.257   6.854
    1AU     LIG  475   4.900   4.805   6.819
    1AU     LIG  476   4.475   4.629   6.931
    1AU     LIG  477   4.247   4.293   7.194
    1AU     LIG  478   4.047   3.981   7.510
    1AU     LIG  479   4.018   3.694   7.897
    1AU     LIG  480   4.029   3.620   8.370
    1AU    AUSL  481   5.803   4.968   6.131
    1AU    AUSL  482   5.526   5.053   5.755
    1AU     AUL  483   5.349   4.860   5.994
    1AU       S  484   5.594   4.696   5.619
    1AU     LIG  485   5.204   4.523   5.576
    1AU     LIG  486   5.118   4.043   5.512
    1AU     LIG  487   5.069   3.548   5.493
    1AU     LIG  488   4.839   3.106   5.446
    1AU     LIG  489   4.638   2.693   5.266
    1AU     LIG  490   4.575   2.242   5.138
    1AU       S  491   5.764   4.815   6.229
    1AU     LIG  492   5.813   4.326   6.168
    1AU     LIG  493   5.641   3.922   6.379
    1AU     LIG  494   5.665   3.458   6.538
    1AU     LIG  495   5.932   3.021   6.543
    1AU     LIG  496   6.094   2.586   6.706
    1AU     LIG  497   6.246   2.224   6.964
    1AU    AUSL  498   5.762   6.511   5.464
    1AU    AUSL  499   6.049   6.291   5.768
    1AU     AUL  500   6.143   6.596   5.526
    1AU       S  501   5.838   6.880   5.326
    1AU     LIG  502   6.087   7.165   5.077
    1AU     LIG  503   6.155   7.573   4.877
    1AU     LIG  504   6.082   7.798   4.461
    1AU     LIG  505   6.011   8.111   4.107
    1AU     LIG  506   5.989   8.554   3.932
    1AU     LIG  507   6.054   8.898   3.604
    1AU       S  508   6.500   6.301   5.484
    1AU     LIG  509   6.750   6.769   5.322
    1AU     LIG  510   7.092   6.889   5.014
    1AU     LIG  511   7.359   7.139   4.709
    1AU     LIG  512   7.605   7.565   4.673
    1AU     LIG  513   7.819   7.993   4.571
    1AU     LIG  514   7.850   8.424   4.347
    1AU    AUSL  515   5.646   6.470   5.856
    1AU    AUSL  516   5.515   6.205   5.554
    1AU     AUL  517   5.501   6.669   5.579
    1AU       S  518   5.873   6.971   5.562
    1AU     LIG  519   5.945   7.440   5.482
    1AU     LIG  520   5.945   7.879   5.256
    1AU     LIG  521   5.789   8.344   5.123
    1AU     LIG  522   5.477   8.737   5.006
    1AU     LIG  523   5.411   9.221   4.854
    1AU     LIG  524   4.968   9.397   4.759
    1AU       S  525   5.252   6.612   5.207
    1AU     LIG  526   5.090   6.643   4.761
    1AU     LIG  527   4.958   6.901   4.362
    1AU     LIG  528   4.910   7.010   3.888
    1AU     LIG  529   4.894   7.382   3.583
    1AU     LIG  530   4.577   7.700   3.440
    1AU     LIG  531   4.257   7.928   3.157
    1AU    AUSL  532   5.831   5.163   5.487
    1AU    AUSL  533   5.407   5.432   5.829
    1AU     AUL  534   5.493   5.112   5.460
    1AU       S  535   5.065   5.056   5.663
    1AU     LIG  536   4.767   4.763   5.808
    1AU     LIG  537   4.337   4.640   5.584
    1AU     LIG  538   3.999   4.386   5.295
    1AU     LIG  539   3.737   4.086   4.999
    1AU     LIG  540   3.450   3.673   4.913
    1AU     LIG  541   3.260   3.338   4.628
    1AU       S  542   5.774   4.754   5.430
    1AU     LIG  543   5.853   4.394   5.242
    1AU     LIG  544   5.527   4.087   5.188
    1AU     LIG  545   5.381   3.661   5.094
    1AU     LIG  546   5.358   3.322   4.764
    1AU     LIG  547   5.345   3.150   4.309
    1AU     LIG  548   5.458   2.845   3.966
    1AU    AUSL  549   5.834   5.284   5.900
    1AU    AUSL  550   5.969   5.520   5.594
    1AU     AUL  551   6.035   5.022   5.693
    1AU       S  552   5.713   4.715   5.741
    1AU     LIG  553   5.621   4.215   5.695
    1AU     LIG  554   5.549   3.758   5.589
    1AU     LIG  555   5.663   3.332   5.415
    1AU     LIG  556   6.014   2.983   5.431
    1AU     LIG  557   6.284   2.607   5.321
    1AU     LIG  558   6.500   2.225   5.124
    1AU       S  559   6.234   5.115   5.283
    1AU     LIG  560   6.065   4.849   5.005
    1AU     LIG  561   6.275   4.481   4.798
    1AU     LIG  562   6.542   4.146   4.562
    1AU     LIG  563   6.741   3.958   4.170
    1AU     LIG  564   6.923   3.725   3.801
    1AU     LIG  565   7.217   3.577   3.469
    2POPC   NC3  566   1.436   2.498   7.915
    2POPC   PO4  567   1.129   3.067   8.150
    2POPC   GL1  568   1.224   2.963   7.727
    2POPC   GL2  569   0.893   2.819   7.680
    2POPC   C1A  570   1.271   2.702   7.322
    2POPC   D2A  571   1.485   2.709   6.945
    2POPC   C3A  572   1.359   2.750   6.542
    2POPC   C4A  573   1.658   2.976   6.301
    2POPC   C1B  574   0.915   3.058   7.285
    2POPC   C2B  575   1.022   3.034   6.852
    2POPC   C3B  576   0.866   2.867   6.459
    2POPC   C4B  577   1.127   2.765   6.071
    3POPC   NC3  578   2.745   1.949   8.106
    3POPC   PO4  579   3.218   2.297   7.725
    3POPC   GL1  580   3.006   1.903   7.616
    3POPC   GL2  581   2.668   1.747   7.642
    3POPC   C1A  582   3.004   1.897   7.201
    3POPC   D2A  583   3.070   2.027   6.814
    3POPC   C3A  584   3.014   1.865   6.470
    3POPC   C4A  585   3.066   1.954   6.096
    3POPC   C1B  586   2.526   2.022   7.322
    3POPC   C2B  587   2.554   2.122   6.891
    3POPC   C3B  588   2.514   2.028   6.462
    3POPC   C4B  589   2.605   2.141   6.019
    4POPC   NC3  590   8.542   5.213   8.184
    4POPC   PO4  591   9.034   5.453   8.259
    4POPC   GL1  592   8.925   5.278   7.819
    4POPC   GL2  593   8.943   4.919   7.694
    4POPC   C1A  594   8.955   5.288   7.326
    4POPC   D2A  595   9.193   5.176   6.914
    4POPC   C3A  596   9.061   5.245   6.456
    4POPC   C4A  597   8.812   5.290   6.062
    4POPC   C1B  598   8.981   4.783   7.209
    4POPC   C2B  599   8.867   4.814   6.740
    4POPC   C3B  600   8.847   4.811   6.289
    4POPC   C4B  601   8.936   4.536   5.961
    5POPC   NC3  602   1.391   0.503   8.103
    5POPC   PO4  603   0.829   0.805   7.978
    5POPC   GL1  604   0.976   0.411   7.741
    5POPC   GL2  605   1.238   0.141   7.779
    5POPC   C1A  606   0.896   0.293   7.305
    5POPC   D2A  607   0.827   0.498   6.907
    5POPC   C3A  608   0.849   0.179   6.598
    5POPC   C4A  609   0.861  11.483   6.227
    5POPC   C1B  610   1.408   0.379   7.415
    5POPC   C2B  611   1.341   0.534   6.974
    5POPC   C3B  612   1.220   0.521   6.533
    5POPC   C4B  613   1.284   0.260   6.181
    6POPC   NC3  614   7.985   2.512   7.965
    6POPC   PO4  615   7.612   3.075   8.010
    6POPC   GL1  616   7.527   2.782   7.657
    6POPC   GL2  617   7.178   2.673   7.709
    6POPC   C1A  618   7.506   2.753   7.181
    6POPC   D2A  619   7.363   2.864   6.737
    6POPC   C3A  620   7.587   2.784   6.329
    6POPC   C4A  621   7.636   2.910   5.871
    6POPC   C1B  622   7.181   2.403   7.366
    6POPC   C2B  623   7.179   2.403   6.910
    6POPC   C3B  624   7.096   2.503   6.463
    6POPC   C4B  625   7.269   2.483   6.048
    7POPC   NC3  626   2.122   5.674   8.161
    7POPC   PO4  627   1.643   6.096   8.062
    7POPC   GL1  628   1.648   5.934   7.666
    7POPC   GL2  629   2.005   5.917   7.654
    7POPC   C1A  630   1.639   6.113   7.243
    7POPC   D2A  631   1.818   6.017   6.860
    7POPC   C3A  632   1.682   6.061   6.446
    7POPC   C4A  633   1.741   5.689   6.229
    7POPC   C1B  634   1.884   5.668   7.288
    7POPC   C2B  635   2.054   5.573   6.881
    7POPC   C3B  636   2.141   5.805   6.502
    7POPC   C4B  637   2.205   5.767   6.042
    8POPC   NC3  638   0.411   5.406   8.207
    8POPC   PO4  639   0.084   4.816   8.142
    8POPC   GL1  640   0.181   4.989   7.803
    8POPC   GL2  641   0.534   5.029   7.884
    8POPC   C1A  642   0.097   4.833   7.370
    8POPC   D2A  643   0.208   4.637   6.969
    8POPC   C3A  644   0.036   4.787   6.588
    8POPC   C4A  645   0.217   4.854   6.227
    8POPC   C1B  646   0.519   5.149   7.469
    8POPC   C2B  647   0.485   5.053   7.041
    8POPC   C3B  648   0.438   5.147   6.573
    8POPC   C4B  649   0.628   5.148   6.148
    9POPC   NC3  650  11.247   5.268   8.116
    9POPC   PO4  651  10.974   4.741   8.286
    9POPC   GL1  652  11.015   4.795   7.809
    9POPC   GL2  653  11.203   5.088   7.665
    9POPC   C1A  654  10.962   4.831   7.339
    9POPC   D2A  655  10.998   5.118   6.996
    9POPC   C3A  656  11.019   4.968   6.590
    9POPC   C4A  657  11.077   4.839   6.177
    9POPC   C1B  658  11.378   5.292   7.312
    9POPC   C2B  659   0.019   5.207   6.874
    9POPC   C3B  660  11.420   5.266   6.385
    9POPC   C4B  661  11.185   5.298   5.952
   10POPC   NC3  662  11.397   8.197   7.891
   10POPC   PO4  663  10.695   8.350   8.065
   10POPC   GL1  664  10.964   8.344   7.651
   10POPC   GL2  665  11.319   8.442   7.480
   10POPC   C1A  666  10.861   8.389   7.220
   10POPC   D2A  667  10.883   8.501   6.806
   10POPC   C3A  668  11.043   8.182   6.602
   10POPC   C4A  669  10.993   8.039   6.208
   10POPC   C1B  670  11.325   8.084   7.222
   10POPC   C2B  671  11.492   8.088   6.820
   10POPC   C3B  672  11.472   7.994   6.422
   10POPC   C4B  673  11.399   8.327   6.151
   11POPC   NC3  674   3.523   2.428   8.045
   11POPC   PO4  675   4.179   2.538   8.304
   11POPC   GL1  676   3.952   2.526   7.812
   11POPC   GL2  677   3.613   2.753   7.661
   11POPC   C1A  678   3.831   2.421   7.367
   11POPC   D2A  679   3.646   2.673   7.086
   11POPC   C3A  680   3.769   2.541   6.696
   11POPC   C4A  681   3.746   2.802   6.367
   11POPC   C1B  682   3.221   2.839   7.349
   11POPC   C2B  683   3.083   2.941   6.906
   11POPC   C3B  684   3.202   2.841   6.456
   11POPC   C4B  685   3.414   3.159   6.190
   12POPC   NC3  686   4.803   7.987   8.031
   12POPC   PO4  687   5.169   7.583   7.945
   12POPC   GL1  688   5.072   7.880   7.582
   12POPC   GL2  689   5.120   8.221   7.688
   12POPC   C1A  690   5.001   7.887   7.100
   12POPC   D2A  691   5.141   7.883   6.654
   12POPC   C3A  692   4.801   7.962   6.347
   12POPC   C4A  693   4.426   8.096   6.091
   12POPC   C1B  694   5.206   8.320   7.242
   12POPC   C2B  695   5.004   8.367   6.817
   12POPC   C3B  696   5.186   8.315   6.376
   12POPC   C4B  697   5.258   7.948   6.098
   13POPC   NC3  698   8.462   0.935   8.001
   13POPC   PO4  699   7.758   1.073   8.133
   13POPC   GL1  700   8.006   1.102   7.756
   13POPC   GL2  701   7.828   1.347   7.535
   13POPC   C1A  702   8.072   0.909   7.348
   13POPC   D2A  703   7.935   1.035   6.908
   13POPC   C3A  704   8.244   0.965   6.580
   13POPC   C4A  705   8.289   1.097   6.164
   13POPC   C1B  706   8.170   1.402   7.206
   13POPC   C2B  707   8.219   1.460   6.765
   13POPC   C3B  708   7.927   1.355   6.429
   13POPC   C4B  709   7.790   1.662   6.108
   14POPC   NC3  710   1.118   9.567   8.101
   14POPC   PO4  711   0.857  10.183   8.134
   14POPC   GL1  712   1.032   9.939   7.759
   14POPC   GL2  713   1.406   9.869   7.769
   14POPC   C1A  714   0.864   9.952   7.342
   14POPC   D2A  715   1.123   9.943   6.971
   14POPC   C3A  716   1.077   9.663   6.613
   14POPC   C4A  717   1.148   9.874   6.232
   14POPC   C1B  718   1.315   9.677   7.378
   14POPC   C2B  719   1.486   9.556   6.976
   14POPC   C3B  720   1.593   9.645   6.573
   14POPC   C4B  721   1.475   9.491   6.179
   15POPC   NC3  722   1.270  10.551   8.194
   15POPC   PO4  723   0.732  10.689   7.833
   15POPC   GL1  724   0.984  10.433   7.657
   15POPC   GL2  725   1.348  10.402   7.699
   15POPC   C1A  726   1.069  10.404   7.244
   15POPC   D2A  727   1.322  10.477   6.917
   15POPC   C3A  728   1.139  10.282   6.564
   15POPC   C4A  729   0.911  10.326   6.191
   15POPC   C1B  730   1.537  10.199   7.316
   15POPC   C2B  731   1.614  10.053   6.873
   15POPC   C3B  732   1.616  10.132   6.407
   15POPC   C4B  733   1.401  10.365   6.093
   16POPC   NC3  734   3.604   9.371   8.264
   16POPC   PO4  735   3.067   9.213   7.989
   16POPC   GL1  736   3.434   9.462   7.771
   16POPC   GL2  737   3.657   9.772   7.816
   16POPC   C1A  738   3.446   9.562   7.324
   16POPC   D2A  739   3.335   9.738   6.909
   16POPC   C3A  740   3.307   9.553   6.466
   16POPC   C4A  741   3.200   9.528   6.023
   16POPC   C1B  742   3.720   9.990   7.378
   16POPC   C2B  743   3.824   9.951   6.904
   16POPC   C3B  744   3.792   9.731   6.470
   16POPC   C4B  745   3.668   9.736   6.010
   17POPC   NC3  746  10.461   1.262   8.329
   17POPC   PO4  747  10.354   1.784   7.965
   17POPC   GL1  748  10.284   1.487   7.650
   17POPC   GL2  749  10.410   1.145   7.713
   17POPC   C1A  750  10.539   1.392   7.263
   17POPC   D2A  751  10.684   1.235   6.874
   17POPC   C3A  752  10.630   1.573   6.623
   17POPC   C4A  753  10.531   1.577   6.215
   17POPC   C1B  754  10.104   1.126   7.344
   17POPC   C2B  755  10.209   1.058   6.933
   17POPC   C3B  756  10.244   1.226   6.530
   17POPC   C4B  757  10.245   1.066   6.094
   18POPC   NC3  758   3.821  11.330   8.161
   18POPC   PO4  759   3.282   0.049   7.844
   18POPC   GL1  760   3.636  11.395   7.679
   18POPC   GL2  761   3.560  11.052   7.686
   18POPC   C1A  762   3.769  11.341   7.272
   18POPC   D2A  763   3.723  11.036   6.952
   18POPC   C3A  764   3.686  11.182   6.573
   18POPC   C4A  765   3.732   0.008   6.289
   18POPC   C1B  766   3.298  11.075   7.289
   18POPC   C2B  767   3.232  10.925   6.848
   18POPC   C3B  768   3.273  10.978   6.392
   18POPC   C4B  769   3.594  11.002   6.068
   19POPC   NC3  770  11.310   6.266   8.101
   19POPC   PO4  771  11.214   6.912   7.949
   19POPC   GL1  772  11.269   6.701   7.599
   19POPC   GL2  773  11.287   6.333   7.601
   19POPC   C1A  774  11.224   6.818   7.183
   19POPC   D2A  775  11.108   6.992   6.778
   19POPC   C3A  776  11.200   6.806   6.321
   19POPC   C4A  777  10.873   6.963   5.953
   19POPC   C1B  778  11.267   6.319   7.181
   19POPC   C2B  779  11.036   6.493   6.839
   19POPC   C3B  780  11.050   6.307   6.457
   19POPC   C4B  781  11.466   6.214   6.278
   20POPC   NC3  782  10.383   0.271   8.437
   20POPC   PO4  783  10.907   0.133   8.076
   20POPC   GL1  784  10.688   0.256   7.697
   20POPC   GL2  785  10.318   0.330   7.733
   20POPC   C1A  786  10.524   0.218   7.255
   20POPC   D2A  787  10.490  11.483   6.886
   20POPC   C3A  788  10.552   0.251   6.545
   20POPC   C4A  789  10.702   0.193   6.123
   20POPC   C1B  790  10.337   0.664   7.380
   20POPC   C2B  791  10.468   0.623   6.925
   20POPC   C3B  792  10.265   0.698   6.518
   20POPC   C4B  793  10.227   0.421   6.190
   21POPC   NC3  794   6.944   1.130   7.975
   21POPC   PO4  795   6.253   1.169   8.053
   21POPC   GL1  796   6.504   0.974   7.694
   21POPC   GL2  797   6.285   0.744   7.500
   21POPC   C1A  798   6.857   1.059   7.358
   21POPC   D2A  799   6.805   1.225   6.959
   21POPC   C3A  800   6.562   0.964   6.704
   21POPC   C4A  801   6.539   1.186   6.337
   21POPC   C1B  802   6.351   1.079   7.188
   21POPC   C2B  803   6.300   1.441   6.899
   21POPC   C3B  804   6.355   1.658   6.488
   21POPC   C4B  805   6.208   1.489   6.099
   22POPC   NC3  806   8.921  11.012   7.961
   22POPC   PO4  807   9.311  10.486   7.902
   22POPC   GL1  808   9.171  10.808   7.571
   22POPC   GL2  809   9.088  11.216   7.552
   22POPC   C1A  810   8.951  10.874   7.190
   22POPC   D2A  811   8.664  10.780   6.846
   22POPC   C3A  812   8.667  11.001   6.479
   22POPC   C4A  813   8.997  10.972   6.237
   22POPC   C1B  814   8.685  11.270   7.339
   22POPC   C2B  815   8.790  11.299   6.901
   22POPC   C3B  816   8.693   0.018   6.519
   22POPC   C4B  817   8.749  11.433   6.075
   23POPC   NC3  818   0.469   1.061   7.835
   23POPC   PO4  819   0.796   1.613   7.975
   23POPC   GL1  820   0.679   1.472   7.604
   23POPC   GL2  821   0.293   1.496   7.644
   23POPC   C1A  822   0.594   1.558   7.181
   23POPC   D2A  823   0.493   1.318   6.830
   23POPC   C3A  824   0.478   1.598   6.495
   23POPC   C4A  825   0.291   1.543   6.094
   23POPC   C1B  826   0.144   1.268   7.275
   23POPC   C2B  827  11.470   1.094   6.923
   23POPC   C3B  828   0.081   1.240   6.512
   23POPC   C4B  829   0.464   1.072   6.313
   24POPC   NC3  830   4.233   8.596   8.194
   24POPC   PO4  831   4.049   9.220   8.174
   24POPC   GL1  832   4.069   9.017   7.790
   24POPC   GL2  833   4.377   8.867   7.745
   24POPC   C1A  834   4.052   8.930   7.329
   24POPC   D2A  835   4.170   8.605   7.016
   24POPC   C3A  836   4.121   8.707   6.554
   24POPC   C4A  837   4.085   8.505   6.148
   24POPC   C1B  838   4.549   8.866   7.295
   24POPC   C2B  839   4.433   9.006   6.850
   24POPC   C3B  840   4.540   8.951   6.399
   24POPC   C4B  841   4.694   9.144   6.036
   25POPC   NC3  842   3.541   1.348   8.176
   25POPC   PO4  843   3.214   0.696   8.060
   25POPC   GL1  844   3.246   0.887   7.652
   25POPC   GL2  845   3.510   1.134   7.566
   25POPC   C1A  846   3.142   1.026   7.237
   25POPC   D2A  847   3.338   1.074   6.830
   25POPC   C3A  848   3.136   1.104   6.429
   25POPC   C4A  849   3.163   1.465   6.143
   25POPC   C1B  850   3.809   1.396   7.275
   25POPC   C2B  851   3.986   1.523   6.858
   25POPC   C3B  852   3.908   1.457   6.418
   25POPC   C4B  853   3.607   1.183   6.327
   26POPC   NC3  854   5.641   9.711   8.254
   26POPC   PO4  855   6.084  10.160   8.231
   26POPC   GL1  856   6.134   9.867   7.824
   26POPC   GL2  857   5.822   9.669   7.756
   26POPC   C1A  858   6.026   9.889   7.330
   26POPC   D2A  859   6.191   9.780   6.897
   26POPC   C3A  860   5.958   9.840   6.503
   26POPC   C4A  861   6.003   9.883   6.054
   26POPC   C1B  862   5.645   9.535   7.339
   26POPC   C2B  863   5.644   9.626   6.881
   26POPC   C3B  864   5.517   9.505   6.449
   26POPC   C4B  865   5.719   9.461   6.024
   27POPC   NC3  866  11.086  10.447   8.040
   27POPC   PO4  867  10.750   9.915   7.789
   27POPC   GL1  868  11.107  10.108   7.617
   27POPC   GL2  869  11.118  10.480   7.540
   27POPC   C1A  870  11.181  10.066   7.189
   27POPC   D2A  871  10.919  10.115   6.826
   27POPC   C3A  872  11.168  10.319   6.552
   27POPC   C4A  873  11.242  10.159   6.158
   27POPC   C1B  874  10.821  10.759   7.316
   27POPC   C2B  875  11.006  10.666   6.931
   27POPC   C3B  876  11.099  10.850   6.553
   27POPC   C4B  877  11.299  10.681   6.217
   28POPC   NC3  878   5.449   0.129   7.927
   28POPC   PO4  879   5.010   0.582   8.243
   28POPC   GL1  880   5.207   0.544   7.785
   28POPC   GL2  881   5.128   0.274   7.552
   28POPC   C1A  882   5.366   0.616   7.296
   28POPC   D2A  883   5.093   0.364   7.000
   28POPC   C3A  884   5.159   0.355   6.560
   28POPC   C4A  885   5.263   0.665   6.285
   28POPC   C1B  886   4.876   0.648   7.402
   28POPC   C2B  887   4.642   0.685   7.033
   28POPC   C3B  888   4.758   0.692   6.593
   28POPC   C4B  889   4.799   0.977   6.254
   29POPC   NC3  890   8.708   2.597   8.032
   29POPC   PO4  891   8.234   2.909   7.991
   29POPC   GL1  892   8.550   2.892   7.624
   29POPC   GL2  893   8.787   2.588   7.525
   29POPC   C1A  894   8.843   3.049   7.295
   29POPC   D2A  895   8.955   3.350   6.954
   29POPC   C3A  896   8.984   3.183   6.528
   29POPC   C4A  897   8.685   3.027   6.177
   29POPC   C1B  898   9.107   2.621   7.179
   29POPC   C2B  899   9.004   2.668   6.743
   29POPC   C3B  900   9.059   2.708   6.312
   29POPC   C4B  901   9.041   2.572   5.879
   30POPC   NC3  902   7.361  10.619   8.234
   30POPC   PO4  903   7.700  10.788   7.691
   30POPC   GL1  904   7.354  10.549   7.578
   30POPC   GL2  905   7.410  10.243   7.775
   30POPC   C1A  906   7.281  10.396   7.165
   30POPC   D2A  907   7.000  10.442   6.829
   30POPC   C3A  908   7.159  10.644   6.482
   30POPC   C4A  909   7.499  10.653   6.212
   30POPC   C1B  910   7.696  10.151   7.434
   30POPC   C2B  911   7.624  10.067   7.000
   30POPC   C3B  912   7.507  10.257   6.607
   30POPC   C4B  913   7.470  10.130   6.176
   31POPC   NC3  914  10.099   4.536   7.619
   31POPC   PO4  915  10.130   4.037   7.943
   31POPC   GL1  916  10.038   4.053   7.502
   31POPC   GL2  917   9.723   4.149   7.533
   31POPC   C1A  918  10.058   4.226   7.054
   31POPC   D2A  919  10.237   4.588   6.794
   31POPC   C3A  920  10.097   4.582   6.351
   31POPC   C4A  921   9.788   4.264   6.216
   31POPC   C1B  922   9.536   4.082   7.126
   31POPC   C2B  923   9.324   3.900   6.764
   31POPC   C3B  924   9.324   4.124   6.392
   31POPC   C4B  925   9.325   4.585   6.332
   32POPC   NC3  926   0.401   2.048   7.980
   32POPC   PO4  927   1.015   2.344   7.863
   32POPC   GL1  928   0.847   2.024   7.597
   32POPC   GL2  929   0.509   1.936   7.516
   32POPC   C1A  930   0.765   2.163   7.172
   32POPC   D2A  931   0.476   1.993   6.883
   32POPC   C3A  932   0.713   2.073   6.539
   32POPC   C4A  933   0.846   1.920   6.155
   32POPC   C1B  934   0.153   1.822   7.279
   32POPC   C2B  935   0.087   1.623   6.887
   32POPC   C3B  936  11.484   1.771   6.469
   32POPC   C4B  937   0.294   2.036   6.264
   33POPC   NC3  938   9.426   5.662   8.262
   33POPC   PO4  939   9.895   6.050   8.126
   33POPC   GL1  940  10.018   5.832   7.722
   33POPC   GL2  941  10.092   6.141   7.600
   33POPC   C1A  942   9.961   5.696   7.273
   33POPC   D2A  943   9.814   5.821   6.857
   33POPC   C3A  944   9.797   5.600   6.474
   33POPC   C4A  945   9.864   5.693   6.060
   33POPC   C1B  946   9.858   6.204   7.208
   33POPC   C2B  947   9.769   6.318   6.752
   33POPC   C3B  948   9.713   6.103   6.355
   33POPC   C4B  949   9.435   5.952   6.037
   34POPC   NC3  950   5.063   1.070   8.181
   34POPC   PO4  951   5.653   0.719   8.121
   34POPC   GL1  952   5.421   0.987   7.761
   34POPC   GL2  953   5.155   1.255   7.717
   34POPC   C1A  954   5.392   1.111   7.301
   34POPC   D2A  955   5.089   0.944   6.987
   34POPC   C3A  956   5.191   1.066   6.582
   34POPC   C4A  957   5.253   1.180   6.134
   34POPC   C1B  958   4.902   1.295   7.323
   34POPC   C2B  959   4.774   1.378   6.886
   34POPC   C3B  960   4.896   1.452   6.442
   34POPC   C4B  961   5.019   1.640   6.036
   35POPC   NC3  962   7.729   9.212   8.074
   35POPC   PO4  963   8.453   9.243   8.044
   35POPC   GL1  964   8.332   9.125   7.635
   35POPC   GL2  965   8.016   9.064   7.682
   35POPC   C1A  966   8.211   8.809   7.286
   35POPC   D2A  967   8.106   8.706   6.819
   35POPC   C3A  968   8.374   8.676   6.405
   35POPC   C4A  969   8.345   8.757   5.939
   35POPC   C1B  970   7.844   9.160   7.280
   35POPC   C2B  971   7.994   9.206   6.854
   35POPC   C3B  972   8.015   9.045   6.404
   35POPC   C4B  973   7.862   8.987   5.952
   36POPC   NC3  974   8.907  10.383   8.105
   36POPC   PO4  975   8.459  10.999   8.012
   36POPC   GL1  976   8.614  10.671   7.653
   36POPC   GL2  977   8.875  10.378   7.606
   36POPC   C1A  978   8.573  10.467   7.219
   36POPC   D2A  979   8.608  10.265   6.813
   36POPC   C3A  980   8.383  10.540   6.477
   36POPC   C4A  981   8.559  10.695   6.071
   36POPC   C1B  982   9.107  10.383   7.205
   36POPC   C2B  983   9.144  10.623   6.803
   36POPC   C3B  984   8.896  10.508   6.440
   36POPC   C4B  985   8.972  10.124   6.252
   37POPC   NC3  986   7.094   8.831   7.951
   37POPC   PO4  987   7.760   8.645   8.176
   37POPC   GL1  988   7.726   8.648   7.754
   37POPC   GL2  989   7.542   8.889   7.697
   37POPC   C1A  990   7.715   8.639   7.285
   37POPC   D2A  991   7.611   8.876   6.909
   37POPC   C3A  992   7.375   8.699   6.588
   37POPC   C4A  993   7.672   8.653   6.288
   37POPC   C1B  994   7.333   8.993   7.321
   37POPC   C2B  995   7.152   9.089   6.920
   37POPC   C3B  996   7.155   9.153   6.479
   37POPC   C4B  997   7.380   9.049   6.124
   38POPC   NC3  998   0.581  11.033   8.084
   38POPC   PO4  999   1.137  10.967   8.469
   38POPC   GL1 1000   1.178  10.965   7.921
   38POPC   GL2 1001   0.946  11.197   7.744
   38POPC   C1A 1002   1.254  10.859   7.424
   38POPC   D2A 1003   1.243  11.046   6.970
   38POPC   C3A 1004   1.210  10.823   6.559
   38POPC   C4A 1005   0.951  10.864   6.201
   38POPC   C1B 1006   1.183  11.365   7.370
   38POPC   C2B 1007   1.448   0.026   7.044
   38POPC   C3B 1008   1.354   0.030   6.633
   38POPC   C4B 1009   1.300  11.260   6.299
   39POPC   NC3 1010   9.389   8.505   8.069
   39POPC   PO4 1011   9.327   7.837   8.113
   39POPC   GL1 1012   9.574   8.043   7.742
   39POPC   GL2 1013   9.765   8.355   7.729
   39POPC   C1A 1014   9.696   8.026   7.277
   39POPC   D2A 1015   9.854   7.763   6.907
   39POPC   C3A 1016   9.671   7.793   6.453
   39POPC   C4A 1017   9.692   7.810   6.000
   39POPC   C1B 1018   9.673   8.537   7.345
   39POPC   C2B 1019   9.530   8.449   6.926
   39POPC   C3B 1020   9.704   8.465   6.508
   39POPC   C4B 1021   9.555   8.264   6.135
   40POPC   NC3 1022   1.144   1.282   7.998
   40POPC   PO4 1023   1.713   0.845   8.108
   40POPC   GL1 1024   1.507   0.920   7.749
   40POPC   GL2 1025   1.590   1.245   7.671
   40POPC   C1A 1026   1.599   0.853   7.302
   40POPC   D2A 1027   1.747   0.844   6.859
   40POPC   C3A 1028   1.408   0.991   6.576
   40POPC   C4A 1029   1.039   0.960   6.289
   40POPC   C1B 1030   1.361   1.324   7.304
   40POPC   C2B 1031   1.308   1.407   6.859
   40POPC   C3B 1032   0.948   1.368   6.575
   40POPC   C4B 1033   0.813   1.409   6.148
   41POPC   NC3 1034   8.000   3.303   8.034
   41POPC   PO4 1035   8.292   3.805   7.947
   41POPC   GL1 1036   8.335   3.415   7.679
   41POPC   GL2 1037   8.000   3.475   7.538
   41POPC   C1A 1038   8.384   3.265   7.259
   41POPC   D2A 1039   8.448   3.551   6.910
   41POPC   C3A 1040   8.528   3.419   6.502
   41POPC   C4A 1041   8.314   3.376   6.126
   41POPC   C1B 1042   7.939   3.430   7.070
   41POPC   C2B 1043   8.041   3.291   6.631
   41POPC   C3B 1044   7.818   3.250   6.228
   41POPC   C4B 1045   7.474   3.392   5.953
   42POPC   NC3 1046  11.142   9.771   8.013
   42POPC   PO4 1047  10.824   9.212   7.855
   42POPC   GL1 1048  10.996   9.520   7.562
   42POPC   GL2 1049  11.351   9.638   7.561
   42POPC   C1A 1050  10.814   9.662   7.169
   42POPC   D2A 1051  10.636   9.463   6.783
   42POPC   C3A 1052  10.652   9.744   6.444
   42POPC   C4A 1053  10.904   9.782   6.056
   42POPC   C1B 1054  11.370   9.605   7.115
   42POPC   C2B 1055  11.114   9.636   6.750
   42POPC   C3B 1056  11.037   9.407   6.394
   42POPC   C4B 1057  11.332   9.489   6.074
   43POPC   NC3 1058  11.036   7.292   8.119
   43POPC   PO4 1059  11.154   7.808   7.850
   43POPC   GL1 1060  11.271   7.361   7.652
   43POPC   GL2 1061  10.982   7.133   7.553
   43POPC   C1A 1062  11.483   7.235   7.253
   43POPC   D2A 1063   0.116   6.953   6.895
   43POPC   C3A 1064  11.496   7.177   6.511
   43POPC   C4A 1065  11.349   7.539   6.265
   43POPC   C1B 1066  10.998   7.479   7.247
   43POPC   C2B 1067  11.038   7.765   6.905
   43POPC   C3B 1068  10.878   7.662   6.507
   43POPC   C4B 1069  10.951   7.245   6.366
   44POPC   NC3 1070   1.521   8.035   8.174
   44POPC   PO4 1071   0.868   8.053   8.272
   44POPC   GL1 1072   1.125   8.164   7.838
   44POPC   GL2 1073   1.123   8.537   7.699
   44POPC   C1A 1074   1.393   8.155   7.420
   44POPC   D2A 1075   1.526   8.332   6.988
   44POPC   C3A 1076   1.610   8.210   6.575
   44POPC   C4A 1077   1.380   8.100   6.202
   44POPC   C1B 1078   0.956   8.400   7.296
   44POPC   C2B 1079   1.067   8.135   7.008
   44POPC   C3B 1080   1.098   8.207   6.619
   44POPC   C4B 1081   0.891   8.288   6.249
   45POPC   NC3 1082   3.310   3.405   8.041
   45POPC   PO4 1083   2.667   3.222   8.069
   45POPC   GL1 1084   2.660   3.186   7.643
   45POPC   GL2 1085   2.468   3.493   7.607
   45POPC   C1A 1086   2.884   3.296   7.238
   45POPC   D2A 1087   2.754   3.377   6.791
   45POPC   C3A 1088   2.938   3.369   6.362
   45POPC   C4A 1089   2.968   3.817   6.157
   45POPC   C1B 1090   2.343   3.301   7.238
   45POPC   C2B 1091   2.134   3.506   6.930
   45POPC   C3B 1092   2.346   3.631   6.594
   45POPC   C4B 1093   2.416   3.273   6.375
   46POPC   NC3 1094  10.772   8.848   8.123
   46POPC   PO4 1095  11.326   9.359   8.177
   46POPC   GL1 1096  11.336   9.143   7.757
   46POPC   GL2 1097  11.179   8.817   7.803
   46POPC   C1A 1098  11.457   9.139   7.316
   46POPC   D2A 1099  11.232   9.142   6.895
   46POPC   C3A 1100  11.470   9.138   6.491
   46POPC   C4A 1101  11.232   8.976   6.149
   46POPC   C1B 1102  11.057   8.836   7.353
   46POPC   C2B 1103  11.334   8.642   7.011
   46POPC   C3B 1104  11.327   8.629   6.554
   46POPC   C4B 1105  10.949   8.562   6.273
   47POPC   NC3 1106   0.615   3.008   8.104
   47POPC   PO4 1107   0.189   2.442   8.101
   47POPC   GL1 1108   0.380   2.683   7.782
   47POPC   GL2 1109   0.545   2.430   7.657
   47POPC   C1A 1110   0.468   2.818   7.344
   47POPC   D2A 1111   0.520   2.991   6.941
   47POPC   C3A 1112   0.218   2.983   6.626
   47POPC   C4A 1113   0.403   2.944   6.219
   47POPC   C1B 1114   0.298   2.335   7.297
   47POPC   C2B 1115   0.322   2.507   6.901
   47POPC   C3B 1116   0.357   2.496   6.483
   47POPC   C4B 1117   0.683   2.456   6.209
   48POPC   NC3 1118   5.417   0.400   8.359
   48POPC   PO4 1119   5.961   0.220   7.935
   48POPC   GL1 1120   5.696   0.364   7.599
   48POPC   GL2 1121   5.766   0.625   7.613
   48POPC   C1A 1122   5.540   0.154   7.227
   48POPC   D2A 1123   5.627   0.380   6.856
   48POPC   C3A 1124   5.632   0.157   6.503
   48POPC   C4A 1125   5.399  11.422   6.230
   48POPC   C1B 1126   6.006   0.406   7.236
   48POPC   C2B 1127   6.200   0.625   6.966
   48POPC   C3B 1128   6.094   0.724   6.597
   48POPC   C4B 1129   5.891   0.499   6.222
   49POPC   NC3 1130  10.578   4.908   8.127
   49POPC   PO4 1131  10.819   5.483   8.099
   49POPC   GL1 1132  10.677   5.178   7.677
   49POPC   GL2 1133  10.336   5.051   7.672
   49POPC   C1A 1134  10.499   4.891   7.234
   49POPC   D2A 1135  10.506   5.060   6.844
   49POPC   C3A 1136  10.515   4.894   6.460
   49POPC   C4A 1137  10.645   5.095   6.120
   49POPC   C1B 1138  10.351   5.361   7.292
   49POPC   C2B 1139  10.194   5.452   6.833
   49POPC   C3B 1140  10.184   5.273   6.405
   49POPC   C4B 1141   9.831   5.187   6.103
   50POPC   NC3 1142   8.082  10.699   7.935
   50POPC   PO4 1143   8.503  10.238   7.958
   50POPC   GL1 1144   8.375  10.192   7.574
   50POPC   GL2 1145   8.121  10.471   7.481
   50POPC   C1A 1146   8.199  10.068   7.190
   50POPC   D2A 1147   8.065  10.245   6.814
   50POPC   C3A 1148   8.256  10.014   6.555
   50POPC   C4A 1149   8.460  10.109   6.212
   50POPC   C1B 1150   7.803  10.544   7.131
   50POPC   C2B 1151   7.557  10.724   6.840
   50POPC   C3B 1152   7.864  10.679   6.553
   50POPC   C4B 1153   7.945  10.327   6.290
   51POPC   NC3 1154   9.906   1.690   8.007
   51POPC   PO4 1155   9.285   1.574   8.288
   51POPC   GL1 1156   9.429   1.886   7.852
   51POPC   GL2 1157   9.728   2.136   7.753
   51POPC   C1A 1158   9.436   1.941   7.359
   51POPC   D2A 1159   9.702   1.885   6.954
   51POPC   C3A 1160   9.516   1.948   6.535
   51POPC   C4A 1161   9.323   1.790   6.151
   51POPC   C1B 1162   9.834   2.260   7.306
   51POPC   C2B 1163   9.527   2.382   6.970
   51POPC   C3B 1164   9.505   2.467   6.516
   51POPC   C4B 1165   9.843   2.259   6.250
   52POPC   NC3 1166  10.482   2.219   8.167
   52POPC   PO4 1167  10.774   1.649   8.334
   52POPC   GL1 1168  10.807   2.005   7.848
   52POPC   GL2 1169  10.438   2.099   7.614
   52POPC   C1A 1170  10.835   2.138   7.353
   52POPC   D2A 1171  10.595   1.913   7.005
   52POPC   C3A 1172  10.553   2.084   6.552
   52POPC   C4A 1173  10.560   2.089   6.086
   52POPC   C1B 1174  10.147   1.845   7.325
   52POPC   C2B 1175  10.130   1.565   6.971
   52POPC   C3B 1176  10.128   1.738   6.569
   52POPC   C4B 1177  10.119   1.844   6.146
   53POPC   NC3 1178   2.858   5.781   8.260
   53POPC   PO4 1179   3.264   6.161   8.097
   53POPC   GL1 1180   2.900   5.997   7.795
   53POPC   GL2 1181   2.600   5.708   7.729
   53POPC   C1A 1182   2.899   5.881   7.363
   53POPC   D2A 1183   2.958   6.057   6.974
   53POPC   C3A 1184   3.035   5.771   6.626
   53POPC   C4A 1185   3.098   5.883   6.182
   53POPC   C1B 1186   2.433   5.683   7.241
   53POPC   C2B 1187   2.562   5.581   6.760
   53POPC   C3B 1188   2.613   5.824   6.340
   53POPC   C4B 1189   2.474   6.196   6.201
   54POPC   NC3 1190   8.961   9.268   8.100
   54POPC   PO4 1191   8.951   9.934   8.202
   54POPC   GL1 1192   8.815   9.874   7.737
   54POPC   GL2 1193   8.780   9.514   7.691
   54POPC   C1A 1194   8.751   9.965   7.274
   54POPC   D2A 1195   8.963   9.854   6.846
   54POPC   C3A 1196   8.701   9.726   6.464
   54POPC   C4A 1197   8.678   9.616   5.987
   54POPC   C1B 1198   9.087   9.560   7.335
   54POPC   C2B 1199   9.178   9.321   6.964
   54POPC   C3B 1200   9.153   9.336   6.526
   54POPC   C4B 1201   9.130   9.635   6.196
   55POPC   NC3 1202   9.718   0.215   7.965
   55POPC   PO4 1203   9.193  11.378   8.053
   55POPC   GL1 1204   9.271   0.167   7.711
   55POPC   GL2 1205   9.430   0.504   7.633
   55POPC   C1A 1206   9.501   0.099   7.314
   55POPC   D2A 1207   9.479   0.343   6.942
   55POPC   C3A 1208   9.339   0.126   6.579
   55POPC   C4A 1209   9.313   0.322   6.184
   55POPC   C1B 1210   9.820   0.517   7.335
   55POPC   C2B 1211   9.891   0.653   6.873
   55POPC   C3B 1212   9.745   0.462   6.470
   55POPC   C4B 1213   9.769   0.481   6.011
   56POPC   NC3 1214   0.159   8.187   8.413
   56POPC   PO4 1215   0.324   7.945   7.847
   56POPC   GL1 1216   0.308   8.215   7.566
   56POPC   GL2 1217   0.638   8.315   7.662
   56POPC   C1A 1218   0.356   8.155   7.154
   56POPC   D2A 1219   0.608   8.212   6.825
   56POPC   C3A 1220   0.400   8.286   6.479
   56POPC   C4A 1221   0.362   8.087   6.127
   56POPC   C1B 1222   0.756   7.928   7.360
   56POPC   C2B 1223   0.759   7.730   6.909
   56POPC   C3B 1224   0.736   7.860   6.448
   56POPC   C4B 1225   0.755   7.869   5.928
   57POPC   NC3 1226   0.576   4.086   7.935
   57POPC   PO4 1227   0.362   3.408   8.077
   57POPC   GL1 1228   0.465   3.585   7.712
   57POPC   GL2 1229   0.619   3.268   7.631
   57POPC   C1A 1230   0.424   3.799   7.321
   57POPC   D2A 1231   0.650   3.889   6.926
   57POPC   C3A 1232   0.485   3.838   6.539
   57POPC   C4A 1233   0.646   3.710   6.123
   57POPC   C1B 1234   0.284   3.298   7.309
   57POPC   C2B 1235   0.355   3.468   6.902
   57POPC   C3B 1236   0.573   3.342   6.521
   57POPC   C4B 1237   0.215   3.448   6.237
   58POPC   NC3 1238   5.184  10.954   8.132
   58POPC   PO4 1239   4.976   0.053   7.986
   58POPC   GL1 1240   4.838  11.352   7.623
   58POPC   GL2 1241   4.956  11.059   7.683
   58POPC   C1A 1242   5.092  11.369   7.245
   58POPC   D2A 1243   5.279  11.385   6.833
   58POPC   C3A 1244   4.919  11.410   6.545
   58POPC   C4A 1245   4.906  11.486   6.115
   58POPC   C1B 1246   5.107  10.864   7.308
   58POPC   C2B 1247   5.207  10.800   6.880
   58POPC   C3B 1248   5.210  11.004   6.475
   58POPC   C4B 1249   5.202  10.986   6.019
   59POPC   NC3 1250   2.932   0.279   8.081
   59POPC   PO4 1251   2.463   0.808   7.954
   59POPC   GL1 1252   2.778   0.631   7.702
   59POPC   GL2 1253   2.579   0.338   7.680
   59POPC   C1A 1254   2.997   0.536   7.323
   59POPC   D2A 1255   2.911   0.301   6.953
   59POPC   C3A 1256   2.926   0.449   6.539
   59POPC   C4A 1257   2.876   0.240   6.158
   59POPC   C1B 1258   2.471   0.435   7.237
   59POPC   C2B 1259   2.275   0.721   6.912
   59POPC   C3B 1260   2.191   0.768   6.468
   59POPC   C4B 1261   2.491   0.727   6.062
   60POPC   NC3 1262   8.980   1.246   8.143
   60POPC   PO4 1263   8.330   1.358   8.086
   60POPC   GL1 1264   8.669   1.336   7.730
   60POPC   GL2 1265   8.893   1.070   7.659
   60POPC   C1A 1266   8.678   1.332   7.256
   60POPC   D2A 1267   8.879   1.275   6.828
   60POPC   C3A 1268   8.623   1.381   6.466
   60POPC   C4A 1269   8.677   1.339   5.974
   60POPC   C1B 1270   9.134   1.105   7.254
   60POPC   C2B 1271   9.208   0.822   6.932
   60POPC   C3B 1272   9.233   1.008   6.565
   60POPC   C4B 1273   9.085   1.313   6.272
   61POPC   NC3 1274   2.330  10.405   7.942
   61POPC   PO4 1275   1.723  10.683   8.119
   61POPC   GL1 1276   1.860  10.514   7.727
   61POPC   GL2 1277   1.869  10.134   7.739
   61POPC   C1A 1278   1.795  10.660   7.316
   61POPC   D2A 1279   1.695  10.832   6.928
   61POPC   C3A 1280   1.924  10.714   6.576
   61POPC   C4A 1281   1.811  10.659   6.181
   61POPC   C1B 1282   2.068  10.222   7.340
   61POPC   C2B 1283   1.998  10.370   6.933
   61POPC   C3B 1284   2.117  10.206   6.510
   61POPC   C4B 1285   2.021  10.233   6.055
   62POPC   NC3 1286   0.358   4.511   8.350
   62POPC   PO4 1287   0.092   4.080   7.995
   62POPC   GL1 1288   0.112   4.371   7.707
   62POPC   GL2 1289   0.377   4.532   7.773
   62POPC   C1A 1290   0.242   4.270   7.304
   62POPC   D2A 1291   0.171   4.042   6.940
   62POPC   C3A 1292   0.170   4.268   6.576
   62POPC   C4A 1293   0.230   4.067   6.183
   62POPC   C1B 1294   0.578   4.635   7.390
   62POPC   C2B 1295   0.695   4.490   6.966
   62POPC   C3B 1296   0.534   4.627   6.577
   62POPC   C4B 1297   0.555   4.456   6.178
   63POPC   NC3 1298   1.178   8.859   8.101
   63POPC   PO4 1299   1.563   9.475   8.106
   63POPC   GL1 1300   1.400   9.286   7.721
   63POPC   GL2 1301   1.066   9.116   7.679
   63POPC   C1A 1302   1.352   9.171   7.277
   63POPC   D2A 1303   1.095   9.223   6.928
   63POPC   C3A 1304   1.332   9.182   6.591
   63POPC   C4A 1305   1.232   9.068   6.205
   63POPC   C1B 1306   0.927   8.901   7.309
   63POPC   C2B 1307   1.172   8.712   6.945
   63POPC   C3B 1308   1.090   8.701   6.516
   63POPC   C4B 1309   0.799   8.773   6.163
   64POPC   NC3 1310   9.807  10.850   8.087
   64POPC   PO4 1311  10.129   0.033   8.131
   64POPC   GL1 1312   9.974  11.238   7.812
   64POPC   GL2 1313   9.603  11.240   7.716
   64POPC   C1A 1314   9.965  11.003   7.411
   64POPC   D2A 1315   9.888  11.209   6.990
   64POPC   C3A 1316   9.914  11.073   6.563
   64POPC   C4A 1317   9.839  10.812   6.222
   64POPC   C1B 1318   9.478  11.083   7.278
   64POPC   C2B 1319   9.324  11.131   6.846
   64POPC   C3B 1320   9.433  11.151   6.393
   64POPC   C4B 1321   9.250  11.345   5.995
   65POPC   NC3 1322   0.761   7.702   7.980
   65POPC   PO4 1323   1.423   7.667   7.908
   65POPC   GL1 1324   1.128   7.559   7.661
   65POPC   GL2 1325   1.146   7.226   7.823
   65POPC   C1A 1326   1.178   7.671   7.240
   65POPC   D2A 1327   1.445   7.813   6.933
   65POPC   C3A 1328   1.240   7.723   6.583
   65POPC   C4A 1329   1.122   7.645   6.202
   65POPC   C1B 1330   1.216   7.165   7.358
   65POPC   C2B 1331   0.968   7.118   6.944
   65POPC   C3B 1332   1.014   7.202   6.486
   65POPC   C4B 1333   1.456   7.274   6.336
   66POPC   NC3 1334   8.900   0.249   8.132
   66POPC   PO4 1335   9.174   0.823   8.090
   66POPC   GL1 1336   8.915   0.573   7.732
   66POPC   GL2 1337   8.709   0.247   7.666
   66POPC   C1A 1338   8.845   0.688   7.288
   66POPC   D2A 1339   8.660   0.824   6.869
   66POPC   C3A 1340   8.732   0.903   6.377
   66POPC   C4A 1341   8.619   0.802   5.903
   66POPC   C1B 1342   8.969   0.189   7.305
   66POPC   C2B 1343   8.872   0.327   6.914
   66POPC   C3B 1344   8.994   0.511   6.568
   66POPC   C4B 1345   8.783   0.429   6.212
   67POPC   NC3 1346   4.284   2.999   8.249
   67POPC   PO4 1347   3.663   3.127   8.061
   67POPC   GL1 1348   4.026   3.052   7.772
   67POPC   GL2 1349   4.343   2.825   7.718
   67POPC   C1A 1350   4.008   2.932   7.339
   67POPC   D2A 1351   4.149   2.765   6.944
   67POPC   C3A 1352   4.222   2.918   6.511
   67POPC   C4A 1353   4.412   3.079   6.126
   67POPC   C1B 1354   4.329   2.473   7.351
   67POPC   C2B 1355   4.163   2.267   6.941
   67POPC   C3B 1356   4.233   2.405   6.520
   67POPC   C4B 1357   4.573   2.574   6.270
   68POPC   NC3 1358   9.958   9.325   8.135
   68POPC   PO4 1359   9.815   8.710   8.078
   68POPC   GL1 1360   9.730   8.930   7.707
   68POPC   GL2 1361   9.353   8.922   7.685
   68POPC   C1A 1362   9.973   8.999   7.324
   68POPC   D2A 1363   9.922   8.767   6.916
   68POPC   C3A 1364   9.901   8.942   6.457
   68POPC   C4A 1365  10.002   9.166   6.020
   68POPC   C1B 1366   9.389   8.921   7.208
   68POPC   C2B 1367   9.449   8.936   6.739
   68POPC   C3B 1368   9.395   8.866   6.356
   68POPC   C4B 1369   9.182   8.468   6.408
   69POPC   NC3 1370  11.431   3.647   8.083
   69POPC   PO4 1371  10.767   3.512   7.950
   69POPC   GL1 1372  10.794   3.606   7.552
   69POPC   GL2 1373  11.128   3.499   7.566
   69POPC   C1A 1374  10.887   3.759   7.159
   69POPC   D2A 1375  10.932   3.630   6.748
   69POPC   C3A 1376  10.743   3.865   6.432
   69POPC   C4A 1377  10.978   3.730   6.056
   69POPC   C1B 1378  11.249   3.162   7.299
   69POPC   C2B 1379  11.336   3.250   6.861
   69POPC   C3B 1380  11.256   3.252   6.403
   69POPC   C4B 1381  11.005   2.965   6.147
   70POPC   NC3 1382   1.199   5.961   7.940
   70POPC   PO4 1383   0.879   5.422   8.113
   70POPC   GL1 1384   0.983   5.570   7.692
   70POPC   GL2 1385   1.334   5.521   7.701
   70POPC   C1A 1386   0.854   5.461   7.254
   70POPC   D2A 1387   0.663   5.497   6.855
   70POPC   C3A 1388   0.917   5.382   6.485
   70POPC   C4A 1389   1.057   5.458   6.049
   70POPC   C1B 1390   1.285   5.743   7.292
   70POPC   C2B 1391   1.209   5.588   6.869
   70POPC   C3B 1392   1.262   5.750   6.443
   70POPC   C4B 1393   1.335   5.912   6.039
   71POPC   NC3 1394   9.835   6.546   8.034
   71POPC   PO4 1395  10.487   6.387   7.945
   71POPC   GL1 1396  10.563   6.313   7.584
   71POPC   GL2 1397  10.818   6.492   7.568
   71POPC   C1A 1398  10.464   6.335   7.177
   71POPC   D2A 1399  10.565   6.328   6.756
   71POPC   C3A 1400  10.261   6.545   6.556
   71POPC   C4A 1401   9.965   6.550   6.263
   71POPC   C1B 1402  10.742   6.745   7.259
   71POPC   C2B 1403  10.627   6.817   6.853
   71POPC   C3B 1404  10.718   6.723   6.422
   71POPC   C4B 1405  10.415   6.763   6.096
   72POPC   NC3 1406   2.869   1.017   8.033
   72POPC   PO4 1407   3.068   1.594   8.082
   72POPC   GL1 1408   3.000   1.358   7.672
   72POPC   GL2 1409   2.705   1.154   7.595
   72POPC   C1A 1410   2.851   1.427   7.216
   72POPC   D2A 1411   2.704   1.647   6.879
   72POPC   C3A 1412   2.768   1.436   6.532
   72POPC   C4A 1413   2.641   1.634   6.178
   72POPC   C1B 1414   2.621   0.937   7.250
   72POPC   C2B 1415   2.830   0.822   6.883
   72POPC   C3B 1416   2.680   0.916   6.493
   72POPC   C4B 1417   2.394   1.197   6.304
   73POPC   NC3 1418   9.723   7.599   8.062
   73POPC   PO4 1419   9.680   6.976   7.989
   73POPC   GL1 1420   9.616   7.321   7.636
   73POPC   GL2 1421   9.830   7.630   7.563
   73POPC   C1A 1422   9.491   7.476   7.195
   73POPC   D2A 1423   9.499   7.402   6.720
   73POPC   C3A 1424   9.329   7.092   6.382
   73POPC   C4A 1425   9.341   6.858   5.956
   73POPC   C1B 1426   9.982   7.339   7.231
   73POPC   C2B 1427  10.030   7.302   6.772
   73POPC   C3B 1428   9.839   7.225   6.370
   73POPC   C4B 1429   9.855   6.985   5.993
   74POPC   NC3 1430  10.579   3.917   8.063
   74POPC   PO4 1431  10.504   4.575   7.823
   74POPC   GL1 1432  10.558   4.374   7.480
   74POPC   GL2 1433  10.563   4.072   7.593
   74POPC   C1A 1434  10.794   4.325   7.163
   74POPC   D2A 1435  10.738   4.598   6.847
   74POPC   C3A 1436  10.635   4.410   6.484
   74POPC   C4A 1437  10.622   4.594   6.055
   74POPC   C1B 1438  10.432   3.924   7.237
   74POPC   C2B 1439  10.505   4.024   6.849
   74POPC   C3B 1440  10.209   4.111   6.562
   74POPC   C4B 1441  10.330   4.148   6.182
   75POPC   NC3 1442   4.913  10.351   8.149
   75POPC   PO4 1443   5.489  10.010   7.953
   75POPC   GL1 1444   5.290  10.279   7.653
   75POPC   GL2 1445   5.071  10.562   7.718
   75POPC   C1A 1446   5.185  10.235   7.199
   75POPC   D2A 1447   5.056  10.242   6.752
   75POPC   C3A 1448   4.980   9.922   6.384
   75POPC   C4A 1449   4.951   9.913   5.877
   75POPC   C1B 1450   4.757  10.492   7.360
   75POPC   C2B 1451   4.680  10.636   6.902
   75POPC   C3B 1452   4.881  10.606   6.456
   75POPC   C4B 1453   5.078  10.353   6.109
   76POPC   NC3 1454   7.584   8.224   8.041
   76POPC   PO4 1455   7.012   8.384   7.889
   76POPC   GL1 1456   7.236   8.517   7.538
   76POPC   GL2 1457   7.463   8.273   7.543
   76POPC   C1A 1458   7.243   8.535   7.081
   76POPC   D2A 1459   7.201   8.225   6.755
   76POPC   C3A 1460   7.076   8.324   6.359
   76POPC   C4A 1461   7.072   8.629   6.045
   76POPC   C1B 1462   7.343   8.023   7.209
   76POPC   C2B 1463   7.547   7.863   6.832
   76POPC   C3B 1464   7.416   7.899   6.377
   76POPC   C4B 1465   7.507   7.784   5.919
   77POPC   NC3 1466   2.440  11.233   8.491
   77POPC   PO4 1467   3.056  11.387   8.309
   77POPC   GL1 1468   2.780  11.387   7.822
   77POPC   GL2 1469   2.549  11.117   7.798
   77POPC   C1A 1470   2.786  11.499   7.359
   77POPC   D2A 1471   2.903  11.304   6.945
   77POPC   C3A 1472   2.706  11.469   6.556
   77POPC   C4A 1473   2.444  11.429   6.186
   77POPC   C1B 1474   2.739  10.994   7.377
   77POPC   C2B 1475   2.695  10.854   6.957
   77POPC   C3B 1476   2.789  10.969   6.536
   77POPC   C4B 1477   2.620  10.926   6.117
   78POPC   NC3 1478   7.807   0.627   8.015
   78POPC   PO4 1479   8.493   0.489   8.100
   78POPC   GL1 1480   8.279   0.553   7.730
   78POPC   GL2 1481   8.118   0.273   7.763
   78POPC   C1A 1482   8.382   0.484   7.321
   78POPC   D2A 1483   8.204   0.585   6.946
   78POPC   C3A 1484   8.427   0.471   6.584
   78POPC   C4A 1485   8.241   0.568   6.208
   78POPC   C1B 1486   7.871   0.387   7.394
   78POPC   C2B 1487   7.861   0.204   7.001
   78POPC   C3B 1488   7.853   0.423   6.591
   78POPC   C4B 1489   7.726   0.153   6.277
   79POPC   NC3 1490   2.033   0.505   8.003
   79POPC   PO4 1491   2.453   0.058   8.174
   79POPC   GL1 1492   2.164   0.034   7.790
   79POPC   GL2 1493   1.895   0.253   7.585
   79POPC   C1A 1494   2.229  11.468   7.354
   79POPC   D2A 1495   2.417  11.465   6.970
   79POPC   C3A 1496   2.174   0.085   6.594
   79POPC   C4A 1497   2.153   0.346   6.214
   79POPC   C1B 1498   1.896   0.412   7.160
   79POPC   C2B 1499   1.759   0.342   6.735
   79POPC   C3B 1500   1.703   0.585   6.362
   79POPC   C4B 1501   1.696   0.426   5.952
   80POPC   NC3 1502  10.828   3.380   8.380
   80POPC   PO4 1503  10.168   3.333   8.264
   80POPC   GL1 1504  10.322   3.344   7.777
   80POPC   GL2 1505  10.299   3.640   7.658
   80POPC   C1A 1506  10.638   3.091   7.474
   80POPC   D2A 1507  10.796   3.262   7.088
   80POPC   C3A 1508  10.810   3.112   6.661
   80POPC   C4A 1509  10.738   3.374   6.328
   80POPC   C1B 1510  10.326   3.433   7.262
   80POPC   C2B 1511  10.334   3.514   6.821
   80POPC   C3B 1512  10.284   3.631   6.381
   80POPC   C4B 1513  10.488   3.711   5.996
   81POPC   NC3 1514  10.825   6.685   8.061
   81POPC   PO4 1515  10.591   7.363   8.136
   81POPC   GL1 1516  10.488   7.177   7.735
   81POPC   GL2 1517  10.129   7.265   7.763
   81POPC   C1A 1518  10.537   7.205   7.260
   81POPC   D2A 1519  10.706   7.318   6.847
   81POPC   C3A 1520  10.454   7.161   6.507
   81POPC   C4A 1521  10.516   7.305   6.125
   81POPC   C1B 1522  10.331   7.605   7.491
   81POPC   C2B 1523  10.354   7.633   7.023
   81POPC   C3B 1524  10.362   7.665   6.574
   81POPC   C4B 1525  10.112   7.605   6.190
   82POPC   NC3 1526   0.549   9.915   7.919
   82POPC   PO4 1527   0.794   9.228   8.092
   82POPC   GL1 1528   0.689   9.455   7.731
   82POPC   GL2 1529   0.314   9.477   7.740
   82POPC   C1A 1530   0.843   9.454   7.300
   82POPC   D2A 1531   0.662   9.706   6.920
   82POPC   C3A 1532   0.543   9.568   6.494
   82POPC   C4A 1533   0.846   9.457   6.178
   82POPC   C1B 1534   0.355   9.647   7.336
   82POPC   C2B 1535   0.240   9.982   7.063
   82POPC   C3B 1536   0.014   9.951   6.690
   82POPC   C4B 1537   0.154   9.871   6.268
   83POPC   NC3 1538   3.328   1.962   8.004
   83POPC   PO4 1539   3.918   1.636   8.237
   83POPC   GL1 1540   3.635   1.610   7.750
   83POPC   GL2 1541   3.525   1.945   7.520
   83POPC   C1A 1542   3.332   1.536   7.363
   83POPC   D2A 1543   3.441   1.694   6.997
   83POPC   C3A 1544   3.401   1.559   6.606
   83POPC   C4A 1545   3.533   1.810   6.263
   83POPC   C1B 1546   3.430   2.201   7.134
   83POPC   C2B 1547   3.282   2.466   6.806
   83POPC   C3B 1548   3.402   2.309   6.411
   83POPC   C4B 1549   3.813   2.312   6.230
   84POPC   NC3 1550   6.658  10.707   7.968
   84POPC   PO4 1551   7.079  10.239   8.175
   84POPC   GL1 1552   6.880  10.288   7.746
   84POPC   GL2 1553   6.486  10.280   7.710
   84POPC   C1A 1554   6.808  10.506   7.341
   84POPC   D2A 1555   6.524  10.573   6.986
   84POPC   C3A 1556   6.572  10.467   6.542
   84POPC   C4A 1557   6.691  10.804   6.325
   84POPC   C1B 1558   6.468  10.135   7.270
   84POPC   C2B 1559   6.620  10.063   6.838
   84POPC   C3B 1560   6.473   9.961   6.395
   84POPC   C4B 1561   6.499   9.960   5.916
   85POPC   NC3 1562   9.701   2.659   7.977
   85POPC   PO4 1563   9.106   2.427   7.906
   85POPC   GL1 1564   9.263   2.786   7.654
   85POPC   GL2 1565   9.483   2.556   7.519
   85POPC   C1A 1566   9.351   3.072   7.262
   85POPC   D2A 1567   9.446   2.888   6.844
   85POPC   C3A 1568   9.490   3.006   6.422
   85POPC   C4A 1569   9.488   2.768   6.061
   85POPC   C1B 1570   9.738   2.765   7.233
   85POPC   C2B 1571   9.974   2.649   6.884
   85POPC   C3B 1572   9.954   2.718   6.453
   85POPC   C4B 1573   9.954   2.984   6.122
   86POPC   NC3 1574   0.217   9.134   8.098
   86POPC   PO4 1575   0.011   8.553   8.163
   86POPC   GL1 1576   0.220   8.707   7.734
   86POPC   GL2 1577   0.581   8.860   7.762
   86POPC   C1A 1578   0.455   8.632   7.303
   86POPC   D2A 1579   0.667   8.706   6.894
   86POPC   C3A 1580   0.364   8.784   6.558
   86POPC   C4A 1581   0.267   8.662   6.120
   86POPC   C1B 1582   0.463   9.124   7.403
   86POPC   C2B 1583   0.559   9.199   6.958
   86POPC   C3B 1584   0.762   9.112   6.553
   86POPC   C4B 1585   0.452   9.141   6.198
   87POPC   NC3 1586   6.248   2.416   8.132
   87POPC   PO4 1587   6.839   2.402   8.005
   87POPC   GL1 1588   6.757   2.257   7.611
   87POPC   GL2 1589   6.469   2.460   7.572
   87POPC   C1A 1590   6.726   2.268   7.150
   87POPC   D2A 1591   6.654   2.477   6.752
   87POPC   C3A 1592   6.582   2.347   6.338
   87POPC   C4A 1593   6.785   2.624   6.029
   87POPC   C1B 1594   6.435   2.707   7.162
   87POPC   C2B 1595   6.447   2.945   6.750
   87POPC   C3B 1596   6.368   2.810   6.319
   87POPC   C4B 1597   6.131   2.926   5.945
   88POPC   NC3 1598   5.863  10.279   7.846
   88POPC   PO4 1599   5.366  10.538   8.264
   88POPC   GL1 1600   5.556  10.704   7.817
   88POPC   GL2 1601   5.857  10.858   7.619
   88POPC   C1A 1602   5.544  10.602   7.322
   88POPC   D2A 1603   5.586  10.410   6.886
   88POPC   C3A 1604   5.395  10.532   6.464
   88POPC   C4A 1605   5.510  10.589   5.992
   88POPC   C1B 1606   6.102  10.553   7.304
   88POPC   C2B 1607   6.106  10.300   6.929
   88POPC   C3B 1608   6.006  10.460   6.553
   88POPC   C4B 1609   5.761  10.259   6.274
   89POPC   NC3 1610   1.144   1.911   7.993
   89POPC   PO4 1611   1.593   2.319   8.319
   89POPC   GL1 1612   1.609   2.053   7.829
   89POPC   GL2 1613   1.410   1.754   7.603
   89POPC   C1A 1614   1.519   2.161   7.363
   89POPC   D2A 1615   1.273   2.224   7.006
   89POPC   C3A 1616   1.467   2.212   6.611
   89POPC   C4A 1617   1.154   2.318   6.319
   89POPC   C1B 1618   1.123   1.777   7.270
   89POPC   C2B 1619   0.962   1.790   6.883
   89POPC   C3B 1620   1.177   1.820   6.526
   89POPC   C4B 1621   1.293   1.559   6.222
   90POPC   NC3 1622   6.108   0.729   7.998
   90POPC   PO4 1623   6.862   0.653   7.972
   90POPC   GL1 1624   6.763   0.538   7.571
   90POPC   GL2 1625   6.906   0.243   7.455
   90POPC   C1A 1626   6.688   0.641   7.143
   90POPC   D2A 1627   6.624   0.432   6.780
   90POPC   C3A 1628   6.855   0.592   6.466
   90POPC   C4A 1629   6.727   0.799   6.069
   90POPC   C1B 1630   6.489   0.182   7.265
   90POPC   C2B 1631   6.372  11.483   6.886
   90POPC   C3B 1632   6.194   0.217   6.566
   90POPC   C4B 1633   6.404   0.469   6.285
   91POPC   NC3 1634   4.216   2.073   8.310
   91POPC   PO4 1635   3.775   2.051   7.933
   91POPC   GL1 1636   4.027   2.018   7.589
   91POPC   GL2 1637   4.121   1.692   7.553
   91POPC   C1A 1638   3.870   1.923   7.159
   91POPC   D2A 1639   3.739   2.012   6.719
   91POPC   C3A 1640   4.073   1.932   6.420
   91POPC   C4A 1641   4.293   2.172   6.061
   91POPC   C1B 1642   4.374   1.865   7.214
   91POPC   C2B 1643   4.420   1.782   6.775
   91POPC   C3B 1644   4.569   1.830   6.342
   91POPC   C4B 1645   4.543   1.751   5.892
   92POPC   NC3 1646   7.542  11.171   7.893
   92POPC   PO4 1647   6.819  11.174   7.964
   92POPC   GL1 1648   6.979  10.946   7.584
   92POPC   GL2 1649   7.271  11.163   7.473
   92POPC   C1A 1650   7.083  10.871   7.113
   92POPC   D2A 1651   7.244  11.122   6.788
   92POPC   C3A 1652   7.050  11.150   6.411
   92POPC   C4A 1653   7.073  10.874   6.001
   92POPC   C1B 1654   7.605  11.165   7.156
   92POPC   C2B 1655   7.797  11.194   6.767
   92POPC   C3B 1656   7.619  11.128   6.376
   92POPC   C4B 1657   7.367  11.309   6.054
   93POPC   NC3 1658   0.480  10.476   8.149
   93POPC   PO4 1659   0.095   9.923   7.925
   93POPC   GL1 1660   0.137  10.120   7.550
   93POPC   GL2 1661   0.449  10.312   7.597
   93POPC   C1A 1662   0.040  10.430   7.225
   93POPC   D2A 1663   0.205  10.611   6.827
   93POPC   C3A 1664   0.224  10.360   6.477
   93POPC   C4A 1665   0.591  10.075   6.506
   93POPC   C1B 1666   0.554  10.573   7.235
   93POPC   C2B 1667   0.822  10.731   6.920
   93POPC   C3B 1668   0.693  10.600   6.555
   93POPC   C4B 1669   0.516  10.626   6.159
   94POPC   NC3 1670   4.560   0.554   8.097
   94POPC   PO4 1671   4.038   0.155   7.889
   94POPC   GL1 1672   4.281   0.366   7.567
   94POPC   GL2 1673   4.613   0.308   7.662
   94POPC   C1A 1674   4.165   0.449   7.109
   94POPC   D2A 1675   3.854   0.314   6.741
   94POPC   C3A 1676   4.011   0.447   6.305
   94POPC   C4A 1677   4.372   0.713   6.164
   94POPC   C1B 1678   4.655   0.184   7.239
   94POPC   C2B 1679   4.587   0.230   6.797
   94POPC   C3B 1680   4.498   0.204   6.368
   94POPC   C4B 1681   4.418  11.356   6.079
   95POPC   NC3 1682   7.108   2.033   7.945
   95POPC   PO4 1683   7.765   2.091   8.103
   95POPC   GL1 1684   7.559   2.144   7.663
   95POPC   GL2 1685   7.414   1.817   7.539
   95POPC   C1A 1686   7.581   2.147   7.178
   95POPC   D2A 1687   7.416   1.957   6.779
   95POPC   C3A 1688   7.502   2.150   6.382
   95POPC   C4A 1689   7.458   2.017   5.962
   95POPC   C1B 1690   7.102   1.923   7.185
   95POPC   C2B 1691   6.909   2.006   6.726
   95POPC   C3B 1692   6.996   2.040   6.256
   95POPC   C4B 1693   6.734   2.130   5.893
   96POPC   NC3 1694  11.289   4.450   8.101
   96POPC   PO4 1695  11.028   3.801   8.312
   96POPC   GL1 1696  11.087   3.949   7.835
   96POPC   GL2 1697  11.018   4.276   7.708
   96POPC   C1A 1698  11.307   3.945   7.377
   96POPC   D2A 1699  11.176   4.097   6.911
   96POPC   C3A 1700  11.247   3.983   6.444
   96POPC   C4A 1701  10.949   4.213   6.144
   96POPC   C1B 1702  11.259   4.441   7.359
   96POPC   C2B 1703  11.217   4.617   6.957
   96POPC   C3B 1704  11.147   4.469   6.545
   96POPC   C4B 1705  11.401   4.451   6.178
   97POPC   NC3 1706   8.014   1.694   8.068
   97POPC   PO4 1707   8.526   2.177   8.043
   97POPC   GL1 1708   8.527   1.839   7.744
   97POPC   GL2 1709   8.258   1.612   7.651
   97POPC   C1A 1710   8.513   1.827   7.294
   97POPC   D2A 1711   8.259   1.949   6.943
   97POPC   C3A 1712   8.424   1.905   6.515
   97POPC   C4A 1713   8.287   1.642   6.210
   97POPC   C1B 1714   7.953   1.834   7.402
   97POPC   C2B 1715   7.797   1.697   7.006
   97POPC   C3B 1716   7.882   1.835   6.584
   97POPC   C4B 1717   8.034   2.095   6.242
   98POPC   NC3 1718  11.059   5.825   8.287
   98POPC   PO4 1719   0.097   5.992   7.864
   98POPC   GL1 1720  11.330   5.827   7.573
   98POPC   GL2 1721  11.143   5.597   7.722
   98POPC   C1A 1722  11.335   5.774   7.139
   98POPC   D2A 1723  11.175   5.557   6.773
   98POPC   C3A 1724  11.211   5.762   6.383
   98POPC   C4A 1725  11.012   5.990   6.044
   98POPC   C1B 1726  10.901   5.510   7.343
   98POPC   C2B 1727  10.692   5.548   6.953
   98POPC   C3B 1728  10.730   5.395   6.536
   98POPC   C4B 1729  10.787   5.566   6.147
   99POPC   NC3 1730   1.496   6.495   8.256
   99POPC   PO4 1731   0.891   6.333   8.000
   99POPC   GL1 1732   1.180   6.399   7.682
   99POPC   GL2 1733   1.269   6.735   7.736
   99POPC   C1A 1734   1.158   6.254   7.258
   99POPC   D2A 1735   1.299   6.103   6.836
   99POPC   C3A 1736   1.176   6.270   6.423
   99POPC   C4A 1737   1.481   6.397   6.109
   99POPC   C1B 1738   0.989   6.725   7.332
   99POPC   C2B 1739   1.155   6.628   6.896
   99POPC   C3B 1740   1.299   6.771   6.472
   99POPC   C4B 1741   1.077   6.710   6.093
  100POPC   NC3 1742   1.374   4.369   8.040
  100POPC   PO4 1743   0.737   4.594   8.114
  100POPC   GL1 1744   0.929   4.411   7.685
  100POPC   GL2 1745   1.272   4.165   7.589
  100POPC   C1A 1746   0.855   4.146   7.315
  100POPC   D2A 1747   1.111   4.065   6.930
  100POPC   C3A 1748   0.864   4.206   6.555
  100POPC   C4A 1749   1.005   4.151   6.131
  100POPC   C1B 1750   1.304   4.437   7.256
  100POPC   C2B 1751   1.234   4.542   6.831
  100POPC   C3B 1752   1.345   4.341   6.458
  100POPC   C4B 1753   1.404   4.537   6.085
  101POPC   NC3 1754   7.312   9.841   8.112
  101POPC   PO4 1755   7.285   9.253   7.926
  101POPC   GL1 1756   7.550   9.401   7.615
  101POPC   GL2 1757   7.525   9.729   7.670
  101POPC   C1A 1758   7.453   9.475   7.153
  101POPC   D2A 1759   7.543   9.418   6.717
  101POPC   C3A 1760   7.297   9.663   6.412
  101POPC   C4A 1761   7.082   9.475   6.076
  101POPC   C1B 1762   7.243   9.912   7.333
  101POPC   C2B 1763   7.141   9.945   6.854
  101POPC   C3B 1764   6.998  10.111   6.418
  101POPC   C4B 1765   7.021   9.968   5.961
  102POPC   NC3 1766   2.127   8.563   7.990
  102POPC   PO4 1767   1.485   8.506   8.109
  102POPC   GL1 1768   1.655   8.531   7.728
  102POPC   GL2 1769   1.739   8.883   7.765
  102POPC   C1A 1770   1.521   8.694   7.328
  102POPC   D2A 1771   1.657   8.914   6.918
  102POPC   C3A 1772   1.632   8.722   6.483
  102POPC   C4A 1773   1.775   8.442   6.119
  102POPC   C1B 1774   2.015   8.797   7.406
  102POPC   C2B 1775   2.166   8.885   7.032
  102POPC   C3B 1776   2.129   8.863   6.636
  102POPC   C4B 1777   2.132   8.804   6.229
  103POPC   NC3 1778   2.983   6.502   8.068
  103POPC   PO4 1779   2.452   5.999   8.123
  103POPC   GL1 1780   2.442   6.188   7.674
  103POPC   GL2 1781   2.647   6.462   7.665
  103POPC   C1A 1782   2.511   6.184   7.218
  103POPC   D2A 1783   2.488   6.072   6.768
  103POPC   C3A 1784   2.867   6.236   6.512
  103POPC   C4A 1785   2.956   6.399   6.098
  103POPC   C1B 1786   2.644   6.675   7.251
  103POPC   C2B 1787   2.605   6.544   6.834
  103POPC   C3B 1788   2.630   6.661   6.404
  103POPC   C4B 1789   2.844   6.914   6.092
  104POPC   NC3 1790   7.701   1.405   8.449
  104POPC   PO4 1791   7.169   1.559   7.960
  104POPC   GL1 1792   7.299   1.305   7.592
  104POPC   GL2 1793   7.473   0.987   7.712
  104POPC   C1A 1794   7.344   1.456   7.137
  104POPC   D2A 1795   7.479   1.446   6.677
  104POPC   C3A 1796   7.298   1.609   6.251
  104POPC   C4A 1797   7.439   1.492   5.788
  104POPC   C1B 1798   7.557   0.990   7.267
  104POPC   C2B 1799   7.249   0.987   6.933
  104POPC   C3B 1800   7.102   1.073   6.523
  104POPC   C4B 1801   7.479   1.131   6.266
  105POPC   NC3 1802   3.721  10.273   8.023
  105POPC   PO4 1803   3.264   9.837   8.156
  105POPC   GL1 1804   3.263  10.101   7.784
  105POPC   GL2 1805   3.253  10.487   7.806
  105POPC   C1A 1806   3.206  10.036   7.342
  105POPC   D2A 1807   3.356  10.241   6.962
  105POPC   C3A 1808   3.225  10.092   6.552
  105POPC   C4A 1809   3.514  10.155   6.248
  105POPC   C1B 1810   3.505  10.492   7.408
  105POPC   C2B 1811   3.765  10.532   7.027
  105POPC   C3B 1812   3.600  10.605   6.590
  105POPC   C4B 1813   3.844  10.564   6.203
  106POPC   NC3 1814   0.601   6.762   7.931
  106POPC   PO4 1815   0.196   6.422   8.298
  106POPC   GL1 1816   0.196   6.503   7.825
  106POPC   GL2 1817   0.465   6.324   7.653
  106POPC   C1A 1818   0.183   6.616   7.338
  106POPC   D2A 1819   0.188   6.415   6.909
  106POPC   C3A 1820   0.255   6.636   6.508
  106POPC   C4A 1821   0.249   6.608   6.060
  106POPC   C1B 1822   0.621   6.383   7.223
  106POPC   C2B 1823   0.621   6.722   6.912
  106POPC   C3B 1824   0.794   6.684   6.524
  106POPC   C4B 1825   0.684   6.379   6.234
  107POPC   NC3 1826   5.847  10.556   8.300
  107POPC   PO4 1827   5.609  11.220   8.095
  107POPC   GL1 1828   5.445  11.192   7.663
  107POPC   GL2 1829   5.725  11.363   7.593
  107POPC   C1A 1830   5.554  11.109   7.212
  107POPC   D2A 1831   5.901  10.920   7.017
  107POPC   C3A 1832   5.705  10.866   6.670
  107POPC   C4A 1833   5.673  10.974   6.264
  107POPC   C1B 1834   6.018  11.381   7.286
  107POPC   C2B 1835   5.865  11.420   6.902
  107POPC   C3B 1836   5.985  11.263   6.557
  107POPC   C4B 1837   5.959  11.423   6.199
  108POPC   NC3 1838   9.934   3.631   8.010
  108POPC   PO4 1839   9.892   3.042   7.839
  108POPC   GL1 1840   9.884   3.282   7.506
  108POPC   GL2 1841   9.786   3.613   7.511
  108POPC   C1A 1842   9.859   3.276   7.090
  108POPC   D2A 1843   9.884   3.135   6.728
  108POPC   C3A 1844   9.820   3.414   6.387
  108POPC   C4A 1845   9.633   3.373   5.990
  108POPC   C1B 1846   9.457   3.570   7.178
  108POPC   C2B 1847   9.424   3.398   6.751
  108POPC   C3B 1848   9.300   3.577   6.335
  108POPC   C4B 1849   9.466   3.848   5.993
  109POPC   NC3 1850   2.050   4.588   8.059
  109POPC   PO4 1851   2.029   3.988   8.144
  109POPC   GL1 1852   1.802   4.155   7.783
  109POPC   GL2 1853   2.130   4.173   7.646
  109POPC   C1A 1854   1.735   4.149   7.310
  109POPC   D2A 1855   1.626   4.187   6.854
  109POPC   C3A 1856   1.843   4.423   6.490
  109POPC   C4A 1857   1.901   4.761   6.152
  109POPC   C1B 1858   2.197   3.900   7.273
  109POPC   C2B 1859   2.131   4.025   6.844
  109POPC   C3B 1860   2.284   4.131   6.411
  109POPC   C4B 1861   2.007   4.174   6.060
  110POPC   NC3 1862  10.195   8.426   8.049
  110POPC   PO4 1863  10.362   9.097   8.215
  110POPC   GL1 1864  10.256   8.873   7.791
  110POPC   GL2 1865  10.555   8.671   7.703
  110POPC   C1A 1866  10.175   8.543   7.403
  110POPC   D2A 1867  10.411   8.529   6.995
  110POPC   C3A 1868  10.248   8.576   6.568
  110POPC   C4A 1869  10.293   8.764   6.153
  110POPC   C1B 1870  10.538   8.891   7.343
  110POPC   C2B 1871  10.724   8.982   6.974
  110POPC   C3B 1872  10.658   8.891   6.568
  110POPC   C4B 1873  10.727   9.055   6.192
  111POPC   NC3 1874   0.467   0.560   8.137
  111POPC   PO4 1875   0.312  11.407   8.113
  111POPC   GL1 1876   0.513   0.076   7.716
  111POPC   GL2 1877   0.481   0.449   7.600
  111POPC   C1A 1878   0.443   0.011   7.261
  111POPC   D2A 1879   0.377   0.257   6.868
  111POPC   C3A 1880   0.368   0.048   6.434
  111POPC   C4A 1881   0.462   0.137   5.966
  111POPC   C1B 1882   0.339   0.761   7.245
  111POPC   C2B 1883   0.366   0.805   6.790
  111POPC   C3B 1884   0.545   0.571   6.478
  111POPC   C4B 1885   0.832   0.505   6.173
  112POPC   NC3 1886  10.622   9.561   8.065
  112POPC   PO4 1887   9.944   9.780   8.218
  112POPC   GL1 1888  10.221   9.776   7.825
  112POPC   GL2 1889  10.382   9.434   7.658
  112POPC   C1A 1890  10.234   9.823   7.364
  112POPC   D2A 1891  10.016   9.651   7.016
  112POPC   C3A 1892  10.177   9.654   6.626
  112POPC   C4A 1893   9.992   9.669   6.192
  112POPC   C1B 1894  10.370   9.346   7.219
  112POPC   C2B 1895  10.227   9.158   6.835
  112POPC   C3B 1896  10.314   9.236   6.405
  112POPC   C4B 1897  10.451   9.488   6.044
  113POPC   NC3 1898   9.572  10.009   8.377
  113POPC   PO4 1899   9.304   9.567   7.975
  113POPC   GL1 1900   9.680   9.677   7.773
  113POPC   GL2 1901   9.879   9.432   7.643
  113POPC   C1A 1902   9.678   9.848   7.346
  113POPC   D2A 1903   9.504   9.727   6.943
  113POPC   C3A 1904   9.732   9.901   6.590
  113POPC   C4A 1905   9.532   9.925   6.195
  113POPC   C1B 1906   9.583   9.355   7.359
  113POPC   C2B 1907   9.721   9.258   6.978
  113POPC   C3B 1908   9.740   9.394   6.597
  113POPC   C4B 1909   9.568   9.354   6.228
  114POPC   NC3 1910  10.210  10.295   8.112
  114POPC   PO4 1911  10.860  10.119   8.273
  114POPC   GL1 1912  10.655  10.392   7.796
  114POPC   GL2 1913  10.362  10.253   7.638
  114POPC   C1A 1914  10.709  10.277   7.280
  114POPC   D2A 1915  10.514  10.440   6.911
  114POPC   C3A 1916  10.687  10.546   6.523
  114POPC   C4A 1917  10.740  10.212   6.276
  114POPC   C1B 1918  10.312  10.606   7.356
  114POPC   C2B 1919  10.084  10.715   6.968
  114POPC   C3B 1920  10.182  10.615   6.535
  114POPC   C4B 1921  10.347  10.472   6.101
  115POPC   NC3 1922  10.689   7.856   8.028
  115POPC   PO4 1923  10.009   7.980   8.022
  115POPC   GL1 1924  10.157   8.052   7.640
  115POPC   GL2 1925  10.482   8.151   7.644
  115POPC   C1A 1926  10.204   8.070   7.215
  115POPC   D2A 1927   9.997   8.253   6.904
  115POPC   C3A 1928  10.070   8.082   6.523
  115POPC   C4A 1929  10.079   8.291   6.160
  115POPC   C1B 1930  10.695   7.919   7.303
  115POPC   C2B 1931  10.607   8.054   6.871
  115POPC   C3B 1932  10.560   8.178   6.456
  115POPC   C4B 1933  10.523   7.888   6.128
  116POPC   NC3 1934   0.067   7.606   7.987
  116POPC   PO4 1935   0.640   7.226   7.904
  116POPC   GL1 1936   0.335   7.370   7.632
  116POPC   GL2 1937   0.183   7.022   7.669
  116POPC   C1A 1938   0.300   7.634   7.241
  116POPC   D2A 1939   0.054   7.582   6.837
  116POPC   C3A 1940   0.317   7.585   6.452
  116POPC   C4A 1941   0.657   7.438   6.165
  116POPC   C1B 1942   0.475   7.049   7.278
  116POPC   C2B 1943   0.489   7.285   6.885
  116POPC   C3B 1944   0.496   7.093   6.498
  116POPC   C4B 1945   0.654   6.949   6.097
  117POPC   NC3 1946   8.458   9.785   8.086
  117POPC   PO4 1947   7.739   9.655   8.188
  117POPC   GL1 1948   8.045   9.557   7.823
  117POPC   GL2 1949   8.024   9.870   7.724
  117POPC   C1A 1950   8.361   9.601   7.420
  117POPC   D2A 1951   8.464   9.662   6.939
  117POPC   C3A 1952   8.242   9.508   6.531
  117POPC   C4A 1953   8.185   9.693   6.169
  117POPC   C1B 1954   7.881   9.683   7.320
  117POPC   C2B 1955   7.951   9.720   6.886
  117POPC   C3B 1956   7.789   9.814   6.474
  117POPC   C4B 1957   7.739   9.430   6.219
  118POPC   NC3 1958   3.596   0.381   7.928
  118POPC   PO4 1959   3.801   1.033   7.959
  118POPC   GL1 1960   3.780   0.707   7.600
  118POPC   GL2 1961   3.785   0.350   7.461
  118POPC   C1A 1962   3.545   0.719   7.205
  118POPC   D2A 1963   3.353   0.545   6.834
  118POPC   C3A 1964   3.583   0.716   6.507
  118POPC   C4A 1965   3.636   0.750   6.050
  118POPC   C1B 1966   3.414   0.216   7.236
  118POPC   C2B 1967   3.384  11.446   6.905
  118POPC   C3B 1968   3.234   0.009   6.508
  118POPC   C4B 1969   3.360   0.360   6.245
  119POPC   NC3 1970  11.260   2.312   8.190
  119POPC   PO4 1971  10.715   2.640   8.217
  119POPC   GL1 1972  10.912   2.517   7.826
  119POPC   GL2 1973  11.260   2.680   7.846
  119POPC   C1A 1974  10.994   2.686   7.412
  119POPC   D2A 1975  10.840   2.753   7.028
  119POPC   C3A 1976  10.915   2.411   6.777
  119POPC   C4A 1977  10.918   2.406   6.323
  119POPC   C1B 1978  11.489   2.715   7.468
  119POPC   C2B 1979  11.389   2.737   7.034
  119POPC   C3B 1980  11.219   2.791   6.641
  119POPC   C4B 1981  11.426   2.722   6.293
  120POPC   NC3 1982   8.075  11.409   8.142
  120POPC   PO4 1983   7.745  10.886   8.210
  120POPC   GL1 1984   8.025  11.146   7.729
  120POPC   GL2 1985   7.834  11.389   7.545
  120POPC   C1A 1986   8.108  11.010   7.249
  120POPC   D2A 1987   8.301  11.116   6.843
  120POPC   C3A 1988   8.160  11.062   6.391
  120POPC   C4A 1989   8.000  10.802   6.056
  120POPC   C1B 1990   8.225  11.495   7.361
  120POPC   C2B 1991   8.387   0.104   6.972
  120POPC   C3B 1992   8.167   0.035   6.600
  120POPC   C4B 1993   8.251   0.050   6.200
  121POPC   NC3 1994   6.002   1.551   8.098
  121POPC   PO4 1995   5.337   1.571   8.090
  121POPC   GL1 1996   5.674   1.417   7.737
  121POPC   GL2 1997   5.909   1.106   7.689
  121POPC   C1A 1998   5.910   1.442   7.330
  121POPC   D2A 1999   5.769   1.352   6.925
  121POPC   C3A 2000   5.958   1.334   6.518
  121POPC   C4A 2001   5.740   1.310   6.100
  121POPC   C1B 2002   5.860   0.930   7.238
  121POPC   C2B 2003   5.596   0.881   6.865
  121POPC   C3B 2004   5.671   0.932   6.427
  121POPC   C4B 2005   6.098   0.971   6.162
  122POPC   NC3 2006  10.730   1.512   7.900
  122POPC   PO4 2007  11.336   1.867   8.085
  122POPC   GL1 2008  11.326   2.157   7.711
  122POPC   GL2 2009  11.219   1.849   7.558
  122POPC   C1A 2010  11.302   2.277   7.265
  122POPC   D2A 2011  11.479   2.125   6.904
  122POPC   C3A 2012  11.381   2.292   6.557
  122POPC   C4A 2013  11.364   2.241   6.146
  122POPC   C1B 2014  11.138   1.793   7.119
  122POPC   C2B 2015  11.032   1.928   6.702
  122POPC   C3B 2016  10.994   1.856   6.269
  122POPC   C4B 2017  10.910   1.658   5.859
  123POPC   NC3 2018   1.287   3.481   8.023
  123POPC   PO4 2019   1.039   4.054   8.019
  123POPC   GL1 2020   0.961   3.743   7.678
  123POPC   GL2 2021   1.296   3.614   7.529
  123POPC   C1A 2022   0.869   3.566   7.264
  123POPC   D2A 2023   1.130   3.540   6.907
  123POPC   C3A 2024   0.988   3.698   6.529
  123POPC   C4A 2025   1.145   3.659   6.124
  123POPC   C1B 2026   1.388   3.242   7.246
  123POPC   C2B 2027   1.505   3.194   6.787
  123POPC   C3B 2028   1.245   3.242   6.409
  123POPC   C4B 2029   1.332   3.209   5.925
  124POPC   NC3 2030   9.291  10.021   7.870
  124POPC   PO4 2031   9.774  10.408   8.246
  124POPC   GL1 2032   9.829  10.475   7.758
  124POPC   GL2 2033   9.860  10.147   7.725
  124POPC   C1A 2034   9.611  10.577   7.319
  124POPC   D2A 2035   9.569  10.238   6.973
  124POPC   C3A 2036   9.389  10.268   6.549
  124POPC   C4A 2037   9.371  10.637   6.322
  124POPC   C1B 2038   9.981  10.247   7.287
  124POPC   C2B 2039  10.116  10.130   6.883
  124POPC   C3B 2040  10.232  10.117   6.454
  124POPC   C4B 2041   9.892  10.288   6.235
  125POPC   NC3 2042  11.027   0.599   7.969
  125POPC   PO4 2043   0.127   0.871   8.062
  125POPC   GL1 2044  11.499   0.532   7.735
  125POPC   GL2 2045  11.285   0.208   7.718
  125POPC   C1A 2046   0.054   0.352   7.303
  125POPC   D2A 2047  11.423   0.558   6.927
  125POPC   C3A 2048   0.047   0.479   6.522
  125POPC   C4A 2049  11.494   0.255   6.163
  125POPC   C1B 2050  11.047   0.324   7.335
  125POPC   C2B 2051  10.936   0.257   6.917
  125POPC   C3B 2052  11.068   0.283   6.502
  125POPC   C4B 2053  11.073   0.545   6.190
  126POPC   NC3 2054   0.473   6.102   8.110
  126POPC   PO4 2055  11.494   5.607   8.292
  126POPC   GL1 2056   0.145   5.492   7.795
  126POPC   GL2 2057   0.489   5.662   7.777
  126POPC   C1A 2058   0.295   5.586   7.329
  126POPC   D2A 2059   0.330   5.889   7.006
  126POPC   C3A 2060   0.192   5.665   6.642
  126POPC   C4A 2061   0.375   5.605   6.251
  126POPC   C1B 2062   0.700   5.916   7.440
  126POPC   C2B 2063   0.845   5.944   7.011
  126POPC   C3B 2064   0.771   5.914   6.564
  126POPC   C4B 2065   0.818   5.891   6.129
  127POPC   NC3 2066  10.355   5.972   8.069
  127POPC   PO4 2067  10.891   6.261   8.298
  127POPC   GL1 2068  10.904   6.048   7.849
  127POPC   GL2 2069  10.664   5.786   7.726
  127POPC   C1A 2070  10.910   6.026   7.364
  127POPC   D2A 2071  10.945   5.998   6.908
  127POPC   C3A 2072  10.722   5.905   6.542
  127POPC   C4A 2073  10.563   6.219   6.245
  127POPC   C1B 2074  10.441   5.850   7.360
  127POPC   C2B 2075  10.320   5.921   6.946
  127POPC   C3B 2076  10.183   6.024   6.551
  127POPC   C4B 2077  10.318   5.754   6.272
  128POPC   NC3 2078   2.062   6.316   7.979
  128POPC   PO4 2079   1.745   6.846   8.086
  128POPC   GL1 2080   1.785   6.742   7.641
  128POPC   GL2 2081   1.692   6.429   7.652
  128POPC   C1A 2082   1.627   6.632   7.184
  128POPC   D2A 2083   1.645   6.486   6.735
  128POPC   C3A 2084   1.816   6.763   6.405
  128POPC   C4A 2085   2.232   6.946   6.321
  128POPC   C1B 2086   2.053   6.375   7.359
  128POPC   C2B 2087   2.125   6.394   6.956
  128POPC   C3B 2088   2.172   6.420   6.535
  128POPC   C4B 2089   1.996   6.358   6.131
  129POPC   NC3 2090  10.331   2.949   8.060
  129POPC   PO4 2091  10.034   2.354   8.111
  129POPC   GL1 2092  10.285   2.535   7.800
  129POPC   GL2 2093  10.046   2.620   7.596
  129POPC   C1A 2094  10.511   2.554   7.398
  129POPC   D2A 2095  10.436   2.414   6.969
  129POPC   C3A 2096  10.482   2.626   6.548
  129POPC   C4A 2097  10.292   2.528   6.125
  129POPC   C1B 2098  10.201   2.930   7.284
  129POPC   C2B 2099  10.370   2.999   6.910
  129POPC   C3B 2100  10.316   3.116   6.480
  129POPC   C4B 2101  10.481   3.004   6.107
  130POPC   NC3 2102   4.350  10.514   7.927
  130POPC   PO4 2103   3.720  10.721   8.051
  130POPC   GL1 2104   3.915  10.673   7.695
  130POPC   GL2 2105   3.982  10.363   7.593
  130POPC   C1A 2106   3.998  10.891   7.361
  130POPC   D2A 2107   4.221  10.940   6.998
  130POPC   C3A 2108   4.101  10.734   6.654
  130POPC   C4A 2109   4.362  10.633   6.306
  130POPC   C1B 2110   4.236  10.451   7.247
  130POPC   C2B 2111   4.235  10.286   6.849
  130POPC   C3B 2112   4.562  10.245   6.567
  130POPC   C4B 2113   4.595  10.179   6.147
  131POPC   NC3 2114   1.003   4.976   8.097
  131POPC   PO4 2115   1.629   4.758   8.013
  131POPC   GL1 2116   1.261   4.802   7.645
  131POPC   GL2 2117   1.006   5.081   7.618
  131POPC   C1A 2118   0.998   4.832   7.199
  131POPC   D2A 2119   0.899   4.949   6.774
  131POPC   C3A 2120   0.994   4.712   6.410
  131POPC   C4A 2121   1.113   4.973   6.138
  131POPC   C1B 2122   1.306   5.220   7.295
  131POPC   C2B 2123   1.402   5.025   6.902
  131POPC   C3B 2124   1.491   4.883   6.488
  131POPC   C4B 2125   1.482   5.272   6.283
  132POPC   NC3 2126   5.334   2.022   8.042
  132POPC   PO4 2127   5.981   2.038   8.120
  132POPC   GL1 2128   5.938   1.875   7.679
  132POPC   GL2 2129   5.592   1.904   7.620
  132POPC   C1A 2130   5.872   1.924   7.194
  132POPC   D2A 2131   5.933   1.808   6.750
  132POPC   C3A 2132   6.122   2.124   6.476
  132POPC   C4A 2133   6.010   2.463   6.201
  132POPC   C1B 2134   5.404   1.612   7.328
  132POPC   C2B 2135   5.276   1.456   6.908
  132POPC   C3B 2136   5.469   1.518   6.484
  132POPC   C4B 2137   5.806   1.788   6.237
  133POPC   NC3 2138   0.005  11.236   7.807
  133POPC   PO4 2139   0.198  10.845   8.293
  133POPC   GL1 2140   0.238  10.787   7.757
  133POPC   GL2 2141   0.448  11.065   7.610
  133POPC   C1A 2142   0.148  10.922   7.252
  133POPC   D2A 2143  11.482  11.058   6.826
  133POPC   C3A 2144   0.185  10.936   6.397
  133POPC   C4A 2145   0.152  10.808   5.885
  133POPC   C1B 2146   0.749  11.079   7.292
  133POPC   C2B 2147   0.790  11.286   6.917
  133POPC   C3B 2148   0.658  11.121   6.526
  133POPC   C4B 2149   0.532  11.135   6.074
  134POPC   NC3 2150   2.278   3.603   8.083
  134POPC   PO4 2151   1.673   3.250   7.964
  134POPC   GL1 2152   1.927   3.310   7.593
  134POPC   GL2 2153   1.962   3.665   7.654
  134POPC   C1A 2154   1.870   3.108   7.169
  134POPC   D2A 2155   1.996   3.008   6.756
  134POPC   C3A 2156   1.923   3.356   6.486
  134POPC   C4A 2157   1.633   3.508   6.191
  134POPC   C1B 2158   1.735   3.632   7.241
  134POPC   C2B 2159   1.649   3.683   6.800
  134POPC   C3B 2160   1.845   3.876   6.449
  134POPC   C4B 2161   2.154   3.693   6.138
  135POPC   NC3 2162   1.600   2.882   8.223
  135POPC   PO4 2163   2.200   2.445   8.042
  135POPC   GL1 2164   1.919   2.476   7.751
  135POPC   GL2 2165   1.891   2.825   7.789
  135POPC   C1A 2166   1.794   2.585   7.332
  135POPC   D2A 2167   1.826   2.339   6.961
  135POPC   C3A 2168   1.826   2.555   6.569
  135POPC   C4A 2169   1.624   2.474   6.173
  135POPC   C1B 2170   2.200   2.849   7.459
  135POPC   C2B 2171   2.296   2.526   7.099
  135POPC   C3B 2172   2.323   2.513   6.629
  135POPC   C4B 2173   2.171   2.817   6.304
  136POPC   NC3 2174   2.764   8.877   8.041
  136POPC   PO4 2175   2.498   8.417   7.778
  136POPC   GL1 2176   2.455   8.893   7.625
  136POPC   GL2 2177   2.764   9.105   7.571
  136POPC   C1A 2178   2.384   9.239   7.281
  136POPC   D2A 2179   2.567   9.165   6.856
  136POPC   C3A 2180   2.538   9.095   6.414
  136POPC   C4A 2181   2.576   8.879   5.984
  136POPC   C1B 2182   2.667   8.790   7.196
  136POPC   C2B 2183   2.552   8.612   6.771
  136POPC   C3B 2184   2.808   8.667   6.394
  136POPC   C4B 2185   3.050   9.066   6.262
  137POPC   NC3 2186   2.008   2.039   8.184
  137POPC   PO4 2187   1.510   1.576   8.052
  137POPC   GL1 2188   1.883   1.650   7.765
  137POPC   GL2 2189   2.138   1.913   7.716
  137POPC   C1A 2190   1.834   1.618   7.329
  137POPC   D2A 2191   1.591   1.814   6.978
  137POPC   C3A 2192   1.683   1.689   6.548
  137POPC   C4A 2193   1.747   1.958   6.177
  137POPC   C1B 2194   2.028   2.102   7.366
  137POPC   C2B 2195   2.105   1.894   6.971
  137POPC   C3B 2196   2.025   2.074   6.578
  137POPC   C4B 2197   2.132   2.300   6.195
  138POPC   NC3 2198   1.761  11.106   8.347
  138POPC   PO4 2199   1.690   0.179   8.036
  138POPC   GL1 2200   1.664  11.297   7.780
  138POPC   GL2 2201   1.951  11.055   7.815
  138POPC   C1A 2202   1.700  11.174   7.342
  138POPC   D2A 2203   1.922  11.301   6.968
  138POPC   C3A 2204   1.764  11.214   6.570
  138POPC   C4A 2205   1.750   0.019   6.260
  138POPC   C1B 2206   2.201  10.960   7.442
  138POPC   C2B 2207   2.199  10.862   7.005
  138POPC   C3B 2208   2.296  11.085   6.634
  138POPC   C4B 2209   2.137  11.045   6.236
  139POPC   NC3 2210   4.502  11.476   8.054
  139POPC   PO4 2211   4.718  10.773   8.056
  139POPC   GL1 2212   4.451  10.978   7.727
  139POPC   GL2 2213   4.128  11.151   7.784
  139POPC   C1A 2214   4.605  10.978   7.319
  139POPC   D2A 2215   4.660  11.233   6.972
  139POPC   C3A 2216   4.534  11.043   6.598
  139POPC   C4A 2217   4.736  11.021   6.245
  139POPC   C1B 2218   4.279  11.350   7.384
  139POPC   C2B 2219   4.176  11.454   6.971
  139POPC   C3B 2220   4.156  11.381   6.550
  139POPC   C4B 2221   4.064  11.047   6.261
  140POPC   NC3 2222   9.474   1.178   8.079
  140POPC   PO4 2223  10.071   1.266   8.092
  140POPC   GL1 2224   9.772   1.304   7.685
  140POPC   GL2 2225   9.494   1.031   7.606
  140POPC   C1A 2226   9.666   1.466   7.258
  140POPC   D2A 2227   9.354   1.474   6.894
  140POPC   C3A 2228   9.520   1.443   6.479
  140POPC   C4A 2229   9.878   1.423   6.239
  140POPC   C1B 2230   9.629   0.965   7.197
  140POPC   C2B 2231   9.731   1.135   6.812
  140POPC   C3B 2232   9.783   0.960   6.405
  140POPC   C4B 2233   9.434   0.830   6.152
  141POPC   NC3 2234   2.865  10.045   8.285
  141POPC   PO4 2235   2.721  10.671   8.053
  141POPC   GL1 2236   2.736  10.578   7.659
  141POPC   GL2 2237   2.791  10.236   7.617
  141POPC   C1A 2238   2.467  10.535   7.304
  141POPC   D2A 2239   2.494  10.370   6.909
  141POPC   C3A 2240   2.446  10.597   6.556
  141POPC   C4A 2241   2.492  10.418   6.173
  141POPC   C1B 2242   2.966  10.477   7.215
  141POPC   C2B 2243   2.970  10.501   6.740
  141POPC   C3B 2244   2.988  10.549   6.314
  141POPC   C4B 2245   2.955  10.200   6.103
  142POPC   NC3 2246   6.935   0.168   7.958
  142POPC   PO4 2247   7.685   0.131   7.992
  142POPC   GL1 2248   7.398   0.160   7.646
  142POPC   GL2 2249   7.297   0.491   7.730
  142POPC   C1A 2250   7.331   0.107   7.183
  142POPC   D2A 2251   7.447   0.085   6.722
  142POPC   C3A 2252   7.209   0.192   6.352
  142POPC   C4A 2253   7.395   0.290   5.907
  142POPC   C1B 2254   7.196   0.631   7.319
  142POPC   C2B 2255   7.143   0.492   6.893
  142POPC   C3B 2256   7.382   0.632   6.542
  142POPC   C4B 2257   7.222   0.707   6.151
  143POPC   NC3 2258   2.960   9.632   7.862
  143POPC   PO4 2259   2.429   9.974   8.104
  143POPC   GL1 2260   2.352   9.920   7.669
  143POPC   GL2 2261   2.507   9.599   7.603
  143POPC   C1A 2262   2.532   9.991   7.252
  143POPC   D2A 2263   2.872  10.031   6.943
  143POPC   C3A 2264   2.683  10.075   6.520
  143POPC   C4A 2265   2.414   9.900   6.160
  143POPC   C1B 2266   2.815   9.556   7.223
  143POPC   C2B 2267   2.873   9.559   6.765
  143POPC   C3B 2268   2.790   9.592   6.343
  143POPC   C4B 2269   2.716   9.350   6.005
  144POPC   NC3 2270   1.674   7.293   7.981
  144POPC   PO4 2271   1.932   7.816   8.342
  144POPC   GL1 2272   1.888   7.853   7.852
  144POPC   GL2 2273   2.060   8.123   7.742
  144POPC   C1A 2274   1.782   7.813   7.359
  144POPC   D2A 2275   1.928   7.936   6.902
  144POPC   C3A 2276   1.755   7.739   6.483
  144POPC   C4A 2277   1.794   7.865   6.031
  144POPC   C1B 2278   1.909   8.305   7.339
  144POPC   C2B 2279   2.007   8.438   6.905
  144POPC   C3B 2280   2.133   8.351   6.485
  144POPC   C4B 2281   2.228   8.133   6.090
  145POPC   NC3 2282   2.578   2.753   8.061
  145POPC   PO4 2283   3.089   2.324   8.225
  145POPC   GL1 2284   2.837   2.563   7.699
  145POPC   GL2 2285   2.515   2.483   7.588
  145POPC   C1A 2286   2.884   2.402   7.209
  145POPC   D2A 2287   2.786   2.553   6.821
  145POPC   C3A 2288   2.886   2.369   6.459
  145POPC   C4A 2289   3.049   2.456   6.082
  145POPC   C1B 2290   2.660   2.842   7.262
  145POPC   C2B 2291   2.501   2.956   6.830
  145POPC   C3B 2292   2.680   2.849   6.383
  145POPC   C4B 2293   2.516   3.006   5.941
  146POPC   NC3 2294  11.206   1.490   8.319
  146POPC   PO4 2295  10.799   1.024   8.083
  146POPC   GL1 2296  11.001   1.127   7.666
  146POPC   GL2 2297  11.378   1.121   7.687
  146POPC   C1A 2298  11.081   1.285   7.211
  146POPC   D2A 2299  11.145   1.439   6.746
  146POPC   C3A 2300  10.975   1.306   6.378
  146POPC   C4A 2301  10.681   0.985   6.410
  146POPC   C1B 2302  11.283   0.819   7.351
  146POPC   C2B 2303  10.991   0.810   6.984
  146POPC   C3B 2304  11.168   0.868   6.569
  146POPC   C4B 2305  11.459   0.866   6.204
  147POPC   NC3 2306   1.905   1.272   8.103
  147POPC   PO4 2307   2.341   1.708   8.142
  147POPC   GL1 2308   2.307   1.403   7.756
  147POPC   GL2 2309   2.102   1.089   7.677
  147POPC   C1A 2310   2.353   1.482   7.289
  147POPC   D2A 2311   2.384   1.259   6.858
  147POPC   C3A 2312   2.223   1.589   6.554
  147POPC   C4A 2313   1.991   1.524   6.145
  147POPC   C1B 2314   2.043   1.091   7.234
  147POPC   C2B 2315   1.879   1.345   6.896
  147POPC   C3B 2316   1.884   1.182   6.491
  147POPC   C4B 2317   1.610   1.164   6.140
  148POPC   NC3 2318  11.485  11.235   8.412
  148POPC   PO4 2319  11.248  10.861   7.890
  148POPC   GL1 2320  11.183  11.044   7.490
  148POPC   GL2 2321  10.958  11.289   7.673
  148POPC   C1A 2322  11.350  11.389   7.209
  148POPC   D2A 2323  11.411   0.062   6.801
  148POPC   C3A 2324  11.343  11.331   6.408
  148POPC   C4A 2325   0.059  11.280   6.009
  148POPC   C1B 2326  10.837  11.329   7.268
  148POPC   C2B 2327  10.988  11.239   6.889
  148POPC   C3B 2328  10.842  11.328   6.522
  148POPC   C4B 2329  10.912  11.136   6.179
  149POPC   NC3 2330   5.194   8.831   8.094
  149POPC   PO4 2331   4.650   8.425   8.090
  149POPC   GL1 2332   4.846   8.654   7.712
  149POPC   GL2 2333   4.866   9.028   7.730
  149POPC   C1A 2334   5.059   8.794   7.311
  149POPC   D2A 2335   4.927   8.945   6.905
  149POPC   C3A 2336   5.002   8.781   6.514
  149POPC   C4A 2337   4.698   8.464   6.367
  149POPC   C1B 2338   4.862   9.274   7.333
  149POPC   C2B 2339   4.739   9.411   6.920
  149POPC   C3B 2340   4.867   9.346   6.492
  149POPC   C4B 2341   5.099   9.477   6.108
  150POPC   NC3 2342   4.380   9.523   8.079
  150POPC   PO4 2343   4.498  10.105   8.051
  150POPC   GL1 2344   4.175   9.904   7.740
  150POPC   GL2 2345   4.086   9.529   7.668
  150POPC   C1A 2346   4.221   9.894   7.270
  150POPC   D2A 2347   4.528   9.872   6.917
  150POPC   C3A 2348   4.304   9.828   6.511
  150POPC   C4A 2349   4.076  10.092   6.230
  150POPC   C1B 2350   4.336   9.370   7.308
  150POPC   C2B 2351   4.211   9.467   6.882
  150POPC   C3B 2352   4.211   9.336   6.449
  150POPC   C4B 2353   4.122   9.534   6.058
  151POPC   NC3 2354   8.954   1.995   8.024
  151POPC   PO4 2355   9.214   1.436   7.793
  151POPC   GL1 2356   8.995   1.713   7.568
  151POPC   GL2 2357   8.961   2.087   7.536
  151POPC   C1A 2358   9.007   1.719   7.163
  151POPC   D2A 2359   8.756   1.757   6.859
  151POPC   C3A 2360   9.002   1.725   6.547
  151POPC   C4A 2361   8.807   1.775   6.176
  151POPC   C1B 2362   8.839   2.199   7.129
  151POPC   C2B 2363   9.112   2.161   6.780
  151POPC   C3B 2364   9.083   2.202   6.335
  151POPC   C4B 2365   8.684   2.308   6.154
  152POPC   NC3 2366  10.566  11.301   8.023
  152POPC   PO4 2367  10.260  10.755   8.006
  152POPC   GL1 2368  10.453  10.995   7.634
  152POPC   GL2 2369  10.404  11.346   7.568
  152POPC   C1A 2370  10.408  11.067   7.175
  152POPC   D2A 2371  10.587  10.936   6.868
  152POPC   C3A 2372  10.415  11.072   6.579
  152POPC   C4A 2373  10.447  10.942   6.212
  152POPC   C1B 2374  10.050   0.025   7.383
  152POPC   C2B 2375  10.030   0.194   6.989
  152POPC   C3B 2376  10.057   0.071   6.571
  152POPC   C4B 2377  10.275  11.419   6.233
  153POPC   NC3 2378   2.016   9.527   8.176
  153POPC   PO4 2379   2.324   8.980   8.094
  153POPC   GL1 2380   2.097   9.256   7.725
  153POPC   GL2 2381   1.887   9.590   7.697
  153POPC   C1A 2382   1.851   9.258   7.311
  153POPC   D2A 2383   1.955   9.348   6.885
  153POPC   C3A 2384   1.840   9.224   6.456
  153POPC   C4A 2385   2.161   9.309   6.166
  153POPC   C1B 2386   1.830   9.774   7.300
  153POPC   C2B 2387   2.098   9.858   6.951
  153POPC   C3B 2388   2.163   9.680   6.552
  153POPC   C4B 2389   1.923   9.750   6.197
  154POPC   NC3 2390   6.064  11.266   7.936
  154POPC   PO4 2391   6.196  10.643   7.937
  154POPC   GL1 2392   6.377  10.920   7.591
  154POPC   GL2 2393   6.502  11.280   7.588
  154POPC   C1A 2394   6.410  11.040   7.162
  154POPC   D2A 2395   6.665  11.049   6.796
  154POPC   C3A 2396   6.297  10.885   6.626
  154POPC   C4A 2397   6.155  10.850   6.210
  154POPC   C1B 2398   6.838  11.305   7.232
  154POPC   C2B 2399   6.926   0.022   6.839
  154POPC   C3B 2400   6.711   0.058   6.443
  154POPC   C4B 2401   6.443  11.261   6.281
  155POPC   NC3 2402   8.405   8.786   8.108
  155POPC   PO4 2403   9.020   8.789   8.133
  155POPC   GL1 2404   8.800   8.932   7.764
  155POPC   GL2 2405   8.592   8.671   7.632
  155POPC   C1A 2406   8.770   9.091   7.345
  155POPC   D2A 2407   8.611   8.853   6.993
  155POPC   C3A 2408   8.475   9.095   6.679
  155POPC   C4A 2409   8.675   9.228   6.306
  155POPC   C1B 2410   8.994   8.625   7.388
  155POPC   C2B 2411   9.066   8.648   6.929
  155POPC   C3B 2412   8.926   8.871   6.568
  155POPC   C4B 2413   8.818   8.753   6.132
  156POPC   NC3 2414   4.120   1.356   7.930
  156POPC   PO4 2415   4.641   0.995   7.976
  156POPC   GL1 2416   4.492   1.185   7.619
  156POPC   GL2 2417   4.417   0.868   7.469
  156POPC   C1A 2418   4.356   1.341   7.226
  156POPC   D2A 2419   4.353   1.084   6.876
  156POPC   C3A 2420   4.390   1.326   6.548
  156POPC   C4A 2421   4.436   1.344   6.163
  156POPC   C1B 2422   4.034   0.940   7.254
  156POPC   C2B 2423   3.844   1.015   6.860
  156POPC   C3B 2424   4.041   0.951   6.469
  156POPC   C4B 2425   4.025   1.073   6.041
  157POPC   NC3 2426   0.883   8.148   3.987
  157POPC   PO4 2427   1.433   7.767   3.936
  157POPC   GL1 2428   1.407   7.967   4.306
  157POPC   GL2 2429   1.291   8.287   4.257
  157POPC   C1A 2430   1.280   7.849   4.709
  157POPC   D2A 2431   1.206   7.566   5.042
  157POPC   C3A 2432   1.283   7.846   5.377
  157POPC   C4A 2433   1.357   7.759   5.786
  157POPC   C1B 2434   0.997   8.282   4.614
  157POPC   C2B 2435   0.977   8.141   5.025
  157POPC   C3B 2436   0.875   8.150   5.443
  157POPC   C4B 2437   1.101   8.194   5.792
  158POPC   NC3 2438   3.558   1.778   4.108
  158POPC   PO4 2439   4.066   2.244   3.871
  158POPC   GL1 2440   3.815   2.184   4.352
  158POPC   GL2 2441   3.487   2.030   4.540
  158POPC   C1A 2442   3.846   2.247   4.789
  158POPC   D2A 2443   3.533   2.036   5.069
  158POPC   C3A 2444   3.547   2.191   5.478
  158POPC   C4A 2445   3.471   2.191   5.902
  158POPC   C1B 2446   3.447   1.615   4.748
  158POPC   C2B 2447   3.583   1.423   5.131
  158POPC   C3B 2448   3.718   1.667   5.461
  158POPC   C4B 2449   3.343   1.748   5.712
  159POPC   NC3 2450   0.713   5.687   3.944
  159POPC   PO4 2451   0.898   6.288   3.929
  159POPC   GL1 2452   0.600   6.150   4.244
  159POPC   GL2 2453   0.374   5.882   4.247
  159POPC   C1A 2454   0.636   5.968   4.675
  159POPC   D2A 2455   0.783   5.857   5.103
  159POPC   C3A 2456   0.511   5.792   5.454
  159POPC   C4A 2457   0.609   5.556   5.807
  159POPC   C1B 2458   0.320   5.581   4.633
  159POPC   C2B 2459   0.172   5.722   5.056
  159POPC   C3B 2460   0.032   5.572   5.485
  159POPC   C4B 2461  11.471   5.739   5.923
  160POPC   NC3 2462   2.055   4.553   4.121
  160POPC   PO4 2463   1.729   4.083   3.814
  160POPC   GL1 2464   1.592   4.051   4.248
  160POPC   GL2 2465   1.912   4.059   4.457
  160POPC   C1A 2466   1.475   4.273   4.635
  160POPC   D2A 2467   1.766   4.437   4.911
  160POPC   C3A 2468   1.672   4.334   5.331
  160POPC   C4A 2469   1.756   4.469   5.737
  160POPC   C1B 2470   2.199   3.769   4.747
  160POPC   C2B 2471   2.264   3.800   5.219
  160POPC   C3B 2472   2.141   4.116   5.566
  160POPC   C4B 2473   2.280   4.521   5.816
  161POPC   NC3 2474   0.482   1.501   4.204
  161POPC   PO4 2475   0.525   1.039   3.736
  161POPC   GL1 2476   0.476   0.975   4.267
  161POPC   GL2 2477   0.551   1.171   4.574
  161POPC   C1A 2478   0.148   0.908   4.679
  161POPC   D2A 2479   0.239   1.195   5.033
  161POPC   C3A 2480   0.407   1.065   5.422
  161POPC   C4A 2481   0.236   1.086   5.841
  161POPC   C1B 2482   0.623   1.538   4.851
  161POPC   C2B 2483   0.583   1.537   5.291
  161POPC   C3B 2484   0.590   1.434   5.702
  161POPC   C4B 2485   0.733   0.984   5.855
  162POPC   NC3 2486   2.259   1.516   4.051
  162POPC   PO4 2487   2.539   0.889   3.904
  162POPC   GL1 2488   2.398   1.058   4.315
  162POPC   GL2 2489   2.041   1.125   4.338
  162POPC   C1A 2490   2.331   0.902   4.758
  162POPC   D2A 2491   2.051   0.913   5.146
  162POPC   C3A 2492   2.226   1.009   5.540
  162POPC   C4A 2493   2.069   1.008   5.992
  162POPC   C1B 2494   1.936   1.262   4.764
  162POPC   C2B 2495   1.846   1.368   5.211
  162POPC   C3B 2496   1.855   1.349   5.648
  162POPC   C4B 2497   1.577   1.608   5.822
  163POPC   NC3 2498   1.251   3.294   4.042
  163POPC   PO4 2499   0.813   3.694   3.715
  163POPC   GL1 2500   0.861   3.504   4.303
  163POPC   GL2 2501   1.174   3.491   4.488
  163POPC   C1A 2502   0.846   3.401   4.818
  163POPC   D2A 2503   0.998   3.564   5.240
  163POPC   C3A 2504   0.909   3.446   5.691
  163POPC   C4A 2505   0.849   3.219   6.093
  163POPC   C1B 2506   1.461   3.274   4.705
  163POPC   C2B 2507   1.512   3.448   5.070
  163POPC   C3B 2508   1.499   3.362   5.459
  163POPC   C4B 2509   1.351   3.699   5.678
  164POPC   NC3 2510   9.626   7.527   3.838
  164POPC   PO4 2511   9.815   6.997   4.006
  164POPC   GL1 2512   9.742   7.279   4.343
  164POPC   GL2 2513   9.973   7.528   4.366
  164POPC   C1A 2514   9.606   7.285   4.790
  164POPC   D2A 2515   9.338   7.504   5.128
  164POPC   C3A 2516   9.399   7.332   5.556
  164POPC   C4A 2517   9.510   7.349   5.980
  164POPC   C1B 2518  10.147   7.397   4.766
  164POPC   C2B 2519  10.089   7.065   5.081
  164POPC   C3B 2520   9.865   7.090   5.465
  164POPC   C4B 2521   9.933   7.470   5.708
  165POPC   NC3 2522  11.211   3.073   3.978
  165POPC   PO4 2523  10.878   2.430   3.985
  165POPC   GL1 2524  11.028   2.515   4.363
  165POPC   GL2 2525  11.325   2.729   4.360
  165POPC   C1A 2526  11.153   2.438   4.772
  165POPC   D2A 2527  10.907   2.567   5.098
  165POPC   C3A 2528  11.114   2.456   5.438
  165POPC   C4A 2529  11.234   2.625   5.829
  165POPC   C1B 2530  11.499   2.843   4.780
  165POPC   C2B 2531  11.298   2.914   5.176
  165POPC   C3B 2532  11.266   3.077   5.565
  165POPC   C4B 2533  11.498   3.058   5.938
  166POPC   NC3 2534  11.138   8.773   3.717
  166POPC   PO4 2535  10.937   9.089   4.324
  166POPC   GL1 2536  11.022   8.700   4.478
  166POPC   GL2 2537  11.228   8.636   4.215
  166POPC   C1A 2538  11.170   8.672   4.901
  166POPC   D2A 2539  11.253   9.028   5.156
  166POPC   C3A 2540  10.946   9.006   5.447
  166POPC   C4A 2541  10.881   8.774   5.814
  166POPC   C1B 2542  11.410   8.372   4.558
  166POPC   C2B 2543  11.488   8.287   5.014
  166POPC   C3B 2544   0.011   8.598   5.345
  166POPC   C4B 2545  11.369   8.686   5.755
  167POPC   NC3 2546   8.815   5.435   3.928
  167POPC   PO4 2547   8.523   5.986   3.944
  167POPC   GL1 2548   8.683   5.734   4.321
  167POPC   GL2 2549   9.047   5.647   4.338
  167POPC   C1A 2550   8.763   5.651   4.772
  167POPC   D2A 2551   8.682   5.410   5.154
  167POPC   C3A 2552   8.732   5.542   5.596
  167POPC   C4A 2553   8.470   5.714   5.953
  167POPC   C1B 2554   9.266   5.811   4.722
  167POPC   C2B 2555   9.114   5.740   5.171
  167POPC   C3B 2556   9.194   5.764   5.625
  167POPC   C4B 2557   8.967   5.781   6.035
  168POPC   NC3 2558   8.350   3.549   4.031
  168POPC   PO4 2559   7.989   3.928   4.195
  168POPC   GL1 2560   8.146   3.593   4.514
  168POPC   GL2 2561   8.445   3.358   4.495
  168POPC   C1A 2562   8.266   3.467   4.954
  168POPC   D2A 2563   8.554   3.567   5.295
  168POPC   C3A 2564   8.349   3.663   5.707
  168POPC   C4A 2565   7.939   3.669   5.938
  168POPC   C1B 2566   8.495   3.018   4.819
  168POPC   C2B 2567   8.458   3.047   5.290
  168POPC   C3B 2568   8.217   3.118   5.694
  168POPC   C4B 2569   8.140   2.874   6.085
  169POPC   NC3 2570   9.011   9.035   4.052
  169POPC   PO4 2571   8.449   9.163   3.711
  169POPC   GL1 2572   8.561   8.893   4.187
  169POPC   GL2 2573   8.800   8.647   4.300
  169POPC   C1A 2574   8.604   8.953   4.661
  169POPC   D2A 2575   8.658   8.689   4.992
  169POPC   C3A 2576   8.628   8.725   5.458
  169POPC   C4A 2577   8.685   9.083   5.732
  169POPC   C1B 2578   9.061   8.692   4.689
  169POPC   C2B 2579   9.109   8.556   5.145
  169POPC   C3B 2580   9.127   8.803   5.539
  169POPC   C4B 2581   9.269   8.662   5.925
  170POPC   NC3 2582  10.532   1.310   3.876
  170POPC   PO4 2583  10.036   0.871   3.962
  170POPC   GL1 2584   9.994   1.258   4.161
  170POPC   GL2 2585  10.304   1.178   4.328
  170POPC   C1A 2586  10.005   1.512   4.554
  170POPC   D2A 2587  10.164   1.366   4.926
  170POPC   C3A 2588  10.146   1.509   5.334
  170POPC   C4A 2589  10.013   1.420   5.754
  170POPC   C1B 2590  10.569   1.163   4.702
  170POPC   C2B 2591  10.509   1.093   5.170
  170POPC   C3B 2592  10.468   1.221   5.604
  170POPC   C4B 2593  10.713   1.204   5.939
  171POPC   NC3 2594   8.216   8.789   3.856
  171POPC   PO4 2595   8.488   9.383   4.180
  171POPC   GL1 2596   8.196   9.165   4.429
  171POPC   GL2 2597   8.069   8.889   4.315
  171POPC   C1A 2598   8.140   9.104   4.842
  171POPC   D2A 2599   8.369   9.061   5.189
  171POPC   C3A 2600   8.184   9.079   5.568
  171POPC   C4A 2601   8.286   9.250   5.994
  171POPC   C1B 2602   8.191   8.623   4.690
  171POPC   C2B 2603   8.211   8.574   5.157
  171POPC   C3B 2604   8.222   8.412   5.567
  171POPC   C4B 2605   7.950   8.445   5.923
  172POPC   NC3 2606   6.573   0.422   3.686
  172POPC   PO4 2607   7.117   0.618   3.892
  172POPC   GL1 2608   6.917   0.318   4.181
  172POPC   GL2 2609   6.561   0.361   4.196
  172POPC   C1A 2610   6.839   0.248   4.640
  172POPC   D2A 2611   6.864   0.419   5.088
  172POPC   C3A 2612   6.742   0.336   5.541
  172POPC   C4A 2613   6.867   0.327   6.001
  172POPC   C1B 2614   6.325   0.403   4.571
  172POPC   C2B 2615   6.338   0.494   5.014
  172POPC   C3B 2616   6.249   0.401   5.458
  172POPC   C4B 2617   6.259   0.631   5.828
  173POPC   NC3 2618   3.435   8.304   3.556
  173POPC   PO4 2619   2.964   8.085   3.907
  173POPC   GL1 2620   3.016   8.289   4.337
  173POPC   GL2 2621   3.375   8.205   4.371
  173POPC   C1A 2622   3.153   8.349   4.802
  173POPC   D2A 2623   3.350   8.159   5.213
  173POPC   C3A 2624   3.376   8.301   5.666
  173POPC   C4A 2625   3.565   8.410   6.074
  173POPC   C1B 2626   3.445   7.922   4.743
  173POPC   C2B 2627   3.673   7.757   5.120
  173POPC   C3B 2628   3.704   7.866   5.562
  173POPC   C4B 2629   3.962   8.104   5.847
  174POPC   NC3 2630   9.500   9.877   3.888
  174POPC   PO4 2631  10.052   9.420   3.995
  174POPC   GL1 2632   9.746   9.581   4.261
  174POPC   GL2 2633   9.581   9.314   4.425
  174POPC   C1A 2634   9.832   9.775   4.666
  174POPC   D2A 2635   9.831  10.020   5.057
  174POPC   C3A 2636   9.619   9.968   5.443
  174POPC   C4A 2637   9.835  10.008   5.809
  174POPC   C1B 2638   9.575   9.392   4.873
  174POPC   C2B 2639   9.901   9.506   5.192
  174POPC   C3B 2640   9.883   9.514   5.644
  174POPC   C4B 2641   9.473   9.595   5.797
  175POPC   NC3 2642   9.145   0.205   3.980
  175POPC   PO4 2643   8.622   0.625   3.725
  175POPC   GL1 2644   8.784   0.445   4.198
  175POPC   GL2 2645   8.713   0.093   4.263
  175POPC   C1A 2646   8.829   0.554   4.680
  175POPC   D2A 2647   8.661   0.738   5.100
  175POPC   C3A 2648   8.924   0.668   5.475
  175POPC   C4A 2649   9.376   0.686   5.668
  175POPC   C1B 2650   8.748   0.029   4.707
  175POPC   C2B 2651   8.856   0.225   5.085
  175POPC   C3B 2652   8.636   0.242   5.450
  175POPC   C4B 2653   8.476   0.305   5.832
  176POPC   NC3 2654   8.115   9.445   3.877
  176POPC   PO4 2655   7.740   8.900   3.856
  176POPC   GL1 2656   7.743   9.280   4.192
  176POPC   GL2 2657   7.986   9.602   4.317
  176POPC   C1A 2658   7.735   9.347   4.653
  176POPC   D2A 2659   7.726   9.295   5.072
  176POPC   C3A 2660   7.741   9.629   5.366
  176POPC   C4A 2661   7.956   9.531   5.734
  176POPC   C1B 2662   8.153   9.647   4.728
  176POPC   C2B 2663   8.193   9.526   5.153
  176POPC   C3B 2664   8.442   9.523   5.512
  176POPC   C4B 2665   8.355   9.892   5.733
  177POPC   NC3 2666   2.941   0.298   4.060
  177POPC   PO4 2667   2.392   0.094   3.841
  177POPC   GL1 2668   2.481   0.254   4.263
  177POPC   GL2 2669   2.631   0.601   4.324
  177POPC   C1A 2670   2.398   0.345   4.696
  177POPC   D2A 2671   2.216   0.450   5.062
  177POPC   C3A 2672   2.494   0.494   5.403
  177POPC   C4A 2673   2.519   0.274   5.804
  177POPC   C1B 2674   2.822   0.668   4.760
  177POPC   C2B 2675   2.972   0.630   5.212
  177POPC   C3B 2676   2.893   0.754   5.658
  177POPC   C4B 2677   3.015   0.722   6.108
  178POPC   NC3 2678   2.090  11.252   3.950
  178POPC   PO4 2679   1.515  10.952   3.664
  178POPC   GL1 2680   1.598  11.150   4.154
  178POPC   GL2 2681   1.879  11.010   4.370
  178POPC   C1A 2682   1.587  11.318   4.620
  178POPC   D2A 2683   1.883  11.165   4.979
  178POPC   C3A 2684   1.763  11.250   5.433
  178POPC   C4A 2685   1.832  11.076   5.846
  178POPC   C1B 2686   2.197  11.319   4.565
  178POPC   C2B 2687   2.356  11.400   4.959
  178POPC   C3B 2688   2.392  11.111   5.276
  178POPC   C4B 2689   2.351  11.156   5.725
  179POPC   NC3 2690  10.685   8.772   4.098
  179POPC   PO4 2691  10.077   8.515   3.963
  179POPC   GL1 2692  10.147   8.892   4.234
  179POPC   GL2 2693  10.366   8.795   4.482
  179POPC   C1A 2694   9.987   9.067   4.651
  179POPC   D2A 2695  10.174   8.861   5.026
  179POPC   C3A 2696  10.042   8.909   5.466
  179POPC   C4A 2697  10.118   8.496   5.693
  179POPC   C1B 2698  10.648   8.813   4.804
  179POPC   C2B 2699  10.703   8.675   5.140
  179POPC   C3B 2700  10.513   8.725   5.490
  179POPC   C4B 2701  10.447   9.060   5.761
  180POPC   NC3 2702   2.358  10.290   4.009
  180POPC   PO4 2703   3.009   9.970   3.885
  180POPC   GL1 2704   2.796  10.102   4.249
  180POPC   GL2 2705   2.709  10.435   4.337
  180POPC   C1A 2706   2.728  10.025   4.689
  180POPC   D2A 2707   3.007  10.128   5.048
  180POPC   C3A 2708   2.834  10.156   5.461
  180POPC   C4A 2709   2.444  10.170   5.719
  180POPC   C1B 2710   2.882  10.496   4.706
  180POPC   C2B 2711   2.574  10.429   5.037
  180POPC   C3B 2712   2.497  10.596   5.432
  180POPC   C4B 2713   2.794  10.566   5.786
  181POPC   NC3 2714  11.361   4.276   4.005
  181POPC   PO4 2715  11.280   4.922   3.782
  181POPC   GL1 2716  11.278   4.724   4.241
  181POPC   GL2 2717  11.041   4.438   4.350
  181POPC   C1A 2718  11.424   4.607   4.666
  181POPC   D2A 2719  11.173   4.439   5.023
  181POPC   C3A 2720  11.347   4.487   5.441
  181POPC   C4A 2721  11.070   4.507   5.774
  181POPC   C1B 2722  11.220   4.132   4.627
  181POPC   C2B 2723  11.356   3.931   5.027
  181POPC   C3B 2724  11.222   3.991   5.445
  181POPC   C4B 2725  11.335   4.045   5.856
  182POPC   NC3 2726   2.724  11.087   3.527
  182POPC   PO4 2727   2.938  10.524   3.894
  182POPC   GL1 2728   2.835  10.915   4.229
  182POPC   GL2 2729   2.656  11.254   4.182
  182POPC   C1A 2730   2.779  10.994   4.681
  182POPC   D2A 2731   2.877  10.824   5.107
  182POPC   C3A 2732   2.840  10.995   5.512
  182POPC   C4A 2733   3.092  10.960   5.920
  182POPC   C1B 2734   2.740  11.481   4.591
  182POPC   C2B 2735   2.805   0.169   5.001
  182POPC   C3B 2736   2.706  11.500   5.416
  182POPC   C4B 2737   2.803  11.360   5.849
  183POPC   NC3 2738   9.033   8.223   3.975
  183POPC   PO4 2739   8.460   8.403   3.983
  183POPC   GL1 2740   8.691   8.163   4.362
  183POPC   GL2 2741   9.016   7.955   4.399
  183POPC   C1A 2742   8.832   8.245   4.803
  183POPC   D2A 2743   8.599   8.232   5.203
  183POPC   C3A 2744   8.728   8.235   5.621
  183POPC   C4A 2745   8.553   8.303   6.041
  183POPC   C1B 2746   9.203   7.899   4.814
  183POPC   C2B 2747   9.042   7.933   5.244
  183POPC   C3B 2748   9.091   7.782   5.672
  183POPC   C4B 2749   8.743   7.792   5.983
  184POPC   NC3 2750   1.218  10.293   3.894
  184POPC   PO4 2751   1.693  10.642   4.062
  184POPC   GL1 2752   1.499  10.343   4.319
  184POPC   GL2 2753   1.220  10.570   4.300
  184POPC   C1A 2754   1.582  10.124   4.717
  184POPC   D2A 2755   1.636  10.322   5.137
  184POPC   C3A 2756   1.542  10.079   5.501
  184POPC   C4A 2757   1.546   9.911   5.905
  184POPC   C1B 2758   1.130  10.370   4.663
  184POPC   C2B 2759   1.132  10.554   5.042
  184POPC   C3B 2760   1.215  10.466   5.427
  184POPC   C4B 2761   1.063  10.610   5.780
  185POPC   NC3 2762   4.589   8.938   3.866
  185POPC   PO4 2763   4.060   9.156   3.826
  185POPC   GL1 2764   4.125   9.164   4.283
  185POPC   GL2 2765   4.343   8.936   4.385
  185POPC   C1A 2766   4.072   9.223   4.769
  185POPC   D2A 2767   4.191   9.391   5.222
  185POPC   C3A 2768   4.047   9.235   5.639
  185POPC   C4A 2769   4.165   9.016   6.040
  185POPC   C1B 2770   4.557   9.069   4.768
  185POPC   C2B 2771   4.558   8.954   5.185
  185POPC   C3B 2772   4.481   8.965   5.610
  185POPC   C4B 2773   4.523   8.647   5.931
  186POPC   NC3 2774  11.165   9.388   4.063
  186POPC   PO4 2775  10.718  10.001   3.977
  186POPC   GL1 2776  10.897   9.994   4.402
  186POPC   GL2 2777  11.153   9.752   4.429
  186POPC   C1A 2778  10.799   9.724   4.806
  186POPC   D2A 2779  10.890   9.540   5.228
  186POPC   C3A 2780  11.086   9.841   5.501
  186POPC   C4A 2781  11.432   9.896   5.759
  186POPC   C1B 2782  11.269   9.489   4.799
  186POPC   C2B 2783  11.445   9.540   5.216
  186POPC   C3B 2784  11.272   9.382   5.574
  186POPC   C4B 2785  10.898   9.341   5.815
  187POPC   NC3 2786   2.354   5.978   3.723
  187POPC   PO4 2787   3.024   6.161   3.833
  187POPC   GL1 2788   2.730   6.062   4.167
  187POPC   GL2 2789   2.509   5.751   4.169
  187POPC   C1A 2790   2.908   5.943   4.585
  187POPC   D2A 2791   3.157   6.014   4.980
  187POPC   C3A 2792   2.940   5.929   5.397
  187POPC   C4A 2793   2.758   6.018   5.818
  187POPC   C1B 2794   2.422   5.790   4.624
  187POPC   C2B 2795   2.300   5.868   5.078
  187POPC   C3B 2796   2.435   5.758   5.495
  187POPC   C4B 2797   2.617   5.525   5.852
  188POPC   NC3 2798  11.401   8.023   3.986
  188POPC   PO4 2799  10.713   8.253   3.850
  188POPC   GL1 2800  10.947   8.217   4.235
  188POPC   GL2 2801  11.052   7.902   4.351
  188POPC   C1A 2802  10.922   8.245   4.695
  188POPC   D2A 2803  10.790   8.170   5.095
  188POPC   C3A 2804  11.035   8.404   5.388
  188POPC   C4A 2805  11.046   8.292   5.786
  188POPC   C1B 2806  11.348   7.896   4.690
  188POPC   C2B 2807  11.197   7.857   5.080
  188POPC   C3B 2808  11.336   7.992   5.454
  188POPC   C4B 2809  11.341   7.882   5.878
  189POPC   NC3 2810   1.739   9.770   4.043
  189POPC   PO4 2811   1.145   9.870   3.741
  189POPC   GL1 2812   1.224   9.864   4.196
  189POPC   GL2 2813   1.300   9.538   4.235
  189POPC   C1A 2814   1.117   9.853   4.649
  189POPC   D2A 2815   1.205  10.020   5.067
  189POPC   C3A 2816   0.926   9.953   5.404
  189POPC   C4A 2817   1.089  10.097   5.774
  189POPC   C1B 2818   1.533   9.545   4.639
  189POPC   C2B 2819   1.427   9.453   5.065
  189POPC   C3B 2820   1.435   9.586   5.475
  189POPC   C4B 2821   1.133   9.596   5.788
  190POPC   NC3 2822   1.268   7.320   3.886
  190POPC   PO4 2823   1.549   6.803   3.701
  190POPC   GL1 2824   1.486   6.940   4.150
  190POPC   GL2 2825   1.161   6.852   4.289
  190POPC   C1A 2826   1.492   7.043   4.628
  190POPC   D2A 2827   1.645   7.168   5.059
  190POPC   C3A 2828   1.441   7.331   5.461
  190POPC   C4A 2829   1.666   7.365   5.869
  190POPC   C1B 2830   0.968   6.972   4.710
  190POPC   C2B 2831   0.840   7.063   5.154
  190POPC   C3B 2832   0.915   6.993   5.605
  190POPC   C4B 2833   1.122   7.208   5.942
  191POPC   NC3 2834   9.807   5.554   3.880
  191POPC   PO4 2835   9.254   5.295   3.985
  191POPC   GL1 2836   9.522   5.448   4.384
  191POPC   GL2 2837   9.789   5.713   4.398
  191POPC   C1A 2838   9.658   5.483   4.855
  191POPC   D2A 2839   9.613   5.701   5.278
  191POPC   C3A 2840   9.620   5.476   5.681
  191POPC   C4A 2841   9.385   5.453   6.097
  191POPC   C1B 2842   9.872   5.951   4.809
  191POPC   C2B 2843   9.892   6.130   5.230
  191POPC   C3B 2844   9.697   6.110   5.630
  191POPC   C4B 2845   9.606   6.410   5.951
  192POPC   NC3 2846   2.803   2.220   3.870
  192POPC   PO4 2847   3.412   2.213   4.074
  192POPC   GL1 2848   3.079   1.900   4.257
  192POPC   GL2 2849   2.777   2.069   4.348
  192POPC   C1A 2850   2.973   1.741   4.661
  192POPC   D2A 2851   2.919   2.076   4.926
  192POPC   C3A 2852   3.063   1.969   5.310
  192POPC   C4A 2853   3.026   2.183   5.655
  192POPC   C1B 2854   2.500   1.928   4.674
  192POPC   C2B 2855   2.504   1.843   5.096
  192POPC   C3B 2856   2.572   1.971   5.511
  192POPC   C4B 2857   2.833   1.677   5.723
  193POPC   NC3 2858   1.929   2.336   3.747
  193POPC   PO4 2859   1.810   1.628   4.008
  193POPC   GL1 2860   1.894   2.067   4.199
  193POPC   GL2 2861   2.255   2.061   4.252
  193POPC   C1A 2862   1.989   2.279   4.646
  193POPC   D2A 2863   2.255   2.291   5.022
  193POPC   C3A 2864   2.154   2.288   5.446
  193POPC   C4A 2865   1.821   2.267   5.754
  193POPC   C1B 2866   2.034   1.773   4.611
  193POPC   C2B 2867   1.996   1.836   5.054
  193POPC   C3B 2868   1.902   1.840   5.488
  193POPC   C4B 2869   2.178   1.898   5.853
  194POPC   NC3 2870   8.211   1.916   3.885
  194POPC   PO4 2871   7.694   2.356   3.844
  194POPC   GL1 2872   7.946   2.229   4.229
  194POPC   GL2 2873   8.060   1.891   4.357
  194POPC   C1A 2874   8.112   2.289   4.670
  194POPC   D2A 2875   7.978   2.185   5.107
  194POPC   C3A 2876   8.117   2.422   5.473
  194POPC   C4A 2877   8.263   2.410   5.890
  194POPC   C1B 2878   8.136   1.780   4.808
  194POPC   C2B 2879   8.111   1.518   5.175
  194POPC   C3B 2880   7.848   1.635   5.515
  194POPC   C4B 2881   7.924   2.011   5.742
  195POPC   NC3 2882   0.999   1.157   3.699
  195POPC   PO4 2883   0.885   1.695   4.075
  195POPC   GL1 2884   0.954   1.310   4.273
  195POPC   GL2 2885   1.302   1.258   4.254
  195POPC   C1A 2886   1.029   1.235   4.714
  195POPC   D2A 2887   1.080   1.494   5.096
  195POPC   C3A 2888   1.001   1.249   5.460
  195POPC   C4A 2889   1.206   1.193   5.847
  195POPC   C1B 2890   1.488   1.046   4.573
  195POPC   C2B 2891   1.448   1.108   4.995
  195POPC   C3B 2892   1.466   1.033   5.410
  195POPC   C4B 2893   1.669   0.877   5.728
  196POPC   NC3 2894  10.999  10.366   4.015
  196POPC   PO4 2895  10.935  10.939   3.778
  196POPC   GL1 2896  10.944  10.822   4.230
  196POPC   GL2 2897  11.322  10.710   4.240
  196POPC   C1A 2898  10.872  10.654   4.666
  196POPC   D2A 2899  10.771  10.808   5.079
  196POPC   C3A 2900  10.878  10.664   5.504
  196POPC   C4A 2901  10.840  10.654   6.009
  196POPC   C1B 2902  11.331  10.447   4.607
  196POPC   C2B 2903  11.090  10.286   4.959
  196POPC   C3B 2904  11.226  10.309   5.372
  196POPC   C4B 2905  11.273  10.472   5.764
  197POPC   NC3 2906   7.297   0.995   4.071
  197POPC   PO4 2907   7.816   1.500   3.920
  197POPC   GL1 2908   7.702   1.233   4.262
  197POPC   GL2 2909   7.422   1.387   4.400
  197POPC   C1A 2910   7.572   0.980   4.660
  197POPC   D2A 2911   7.198   1.041   4.924
  197POPC   C3A 2912   7.287   1.000   5.361
  197POPC   C4A 2913   7.411   0.998   5.786
  197POPC   C1B 2914   7.323   1.520   4.824
  197POPC   C2B 2915   7.225   1.515   5.283
  197POPC   C3B 2916   6.956   1.305   5.606
  197POPC   C4B 2917   7.005   1.224   6.036
  198POPC   NC3 2918   9.737   9.068   3.981
  198POPC   PO4 2919   9.232   8.635   4.041
  198POPC   GL1 2920   9.424   8.830   4.324
  198POPC   GL2 2921   9.719   8.648   4.317
  198POPC   C1A 2922   9.525   8.885   4.738
  198POPC   D2A 2923   9.347   8.990   5.098
  198POPC   C3A 2924   9.574   9.158   5.395
  198POPC   C4A 2925   9.550   9.089   5.801
  198POPC   C1B 2926   9.922   8.539   4.706
  198POPC   C2B 2927   9.743   8.613   5.131
  198POPC   C3B 2928   9.617   8.651   5.555
  198POPC   C4B 2929   9.780   8.696   6.015
  199POPC   NC3 2930   8.767  10.677   4.089
  199POPC   PO4 2931   9.063  10.041   3.961
  199POPC   GL1 2932   9.191  10.371   4.245
  199POPC   GL2 2933   8.878  10.249   4.399
  199POPC   C1A 2934   9.145  10.539   4.698
  199POPC   D2A 2935   8.917  10.226   5.007
  199POPC   C3A 2936   9.034  10.339   5.450
  199POPC   C4A 2937   9.061  10.585   5.874
  199POPC   C1B 2938   8.540  10.018   4.595
  199POPC   C2B 2939   8.458   9.957   5.043
  199POPC   C3B 2940   8.519  10.241   5.401
  199POPC   C4B 2941   8.710  10.248   5.814
  200POPC   NC3 2942   1.501   8.894   3.849
  200POPC   PO4 2943   0.911   8.619   3.975
  200POPC   GL1 2944   1.175   8.767   4.350
  200POPC   GL2 2945   1.103   9.090   4.410
  200POPC   C1A 2946   1.325   8.631   4.801
  200POPC   D2A 2947   1.335   8.450   5.251
  200POPC   C3A 2948   1.103   8.654   5.596
  200POPC   C4A 2949   1.288   8.605   6.025
  200POPC   C1B 2950   1.100   9.107   4.865
  200POPC   C2B 2951   1.332   8.975   5.241
  200POPC   C3B 2952   1.339   9.113   5.669
  200POPC   C4B 2953   0.945   9.124   5.814
  201POPC   NC3 2954   9.734   4.108   3.878
  201POPC   PO4 2955   9.793   3.451   3.925
  201POPC   GL1 2956   9.784   3.675   4.313
  201POPC   GL2 2957   9.444   3.790   4.382
  201POPC   C1A 2958   9.748   3.765   4.784
  201POPC   D2A 2959   9.541   3.862   5.179
  201POPC   C3A 2960   9.765   3.978   5.582
  201POPC   C4A 2961   9.972   3.834   5.994
  201POPC   C1B 2962   9.383   3.394   4.670
  201POPC   C2B 2963   9.466   3.278   5.095
  201POPC   C3B 2964   9.489   3.462   5.499
  201POPC   C4B 2965   9.160   3.561   5.728
  202POPC   NC3 2966   5.863   1.087   3.919
  202POPC   PO4 2967   5.382   1.564   3.869
  202POPC   GL1 2968   5.476   1.541   4.289
  202POPC   GL2 2969   5.547   1.201   4.300
  202POPC   C1A 2970   5.652   1.426   4.717
  202POPC   D2A 2971   5.462   1.386   5.093
  202POPC   C3A 2972   5.772   1.477   5.366
  202POPC   C4A 2973   5.954   1.666   5.717
  202POPC   C1B 2974   5.432   0.965   4.697
  202POPC   C2B 2975   5.485   0.831   5.117
  202POPC   C3B 2976   5.495   1.054   5.503
  202POPC   C4B 2977   5.953   1.119   5.686
  203POPC   NC3 2978   9.555   2.668   3.869
  203POPC   PO4 2979  10.160   2.530   3.795
  203POPC   GL1 2980   9.961   2.493   4.229
  203POPC   GL2 2981   9.653   2.692   4.364
  203POPC   C1A 2982  10.012   2.531   4.688
  203POPC   D2A 2983   9.887   2.288   5.040
  203POPC   C3A 2984   9.919   2.537   5.400
  203POPC   C4A 2985   9.874   2.562   5.837
  203POPC   C1B 2986   9.531   2.814   4.789
  203POPC   C2B 2987   9.408   2.559   5.144
  203POPC   C3B 2988   9.444   2.640   5.558
  203POPC   C4B 2989   9.704   3.006   5.653
  204POPC   NC3 2990  11.354   5.212   4.131
  204POPC   PO4 2991  10.782   4.836   4.191
  204POPC   GL1 2992  10.841   4.893   4.535
  204POPC   GL2 2993  10.960   5.244   4.472
  204POPC   C1A 2994  10.746   4.723   4.946
  204POPC   D2A 2995  10.985   4.806   5.314
  204POPC   C3A 2996  10.877   4.968   5.677
  204POPC   C4A 2997  10.719   5.350   5.695
  204POPC   C1B 2998  11.189   5.046   4.839
  204POPC   C2B 2999  11.476   4.892   5.114
  204POPC   C3B 3000  11.421   5.048   5.497
  204POPC   C4B 3001  11.442   4.831   5.822
  205POPC   NC3 3002  10.277   3.666   3.866
  205POPC   PO4 3003  10.921   4.001   3.933
  205POPC   GL1 3004  10.649   3.674   4.259
  205POPC   GL2 3005  10.303   3.512   4.333
  205POPC   C1A 3006  10.614   3.413   4.709
  205POPC   D2A 3007  10.539   3.595   5.132
  205POPC   C3A 3008  10.518   3.319   5.494
  205POPC   C4A 3009  10.798   3.299   5.826
  205POPC   C1B 3010  10.266   3.798   4.700
  205POPC   C2B 3011  10.111   3.888   5.128
  205POPC   C3B 3012  10.231   3.748   5.554
  205POPC   C4B 3013  10.150   3.370   5.862
  206POPC   NC3 3014   3.658   1.033   3.799
  206POPC   PO4 3015   3.602   1.606   3.690
  206POPC   GL1 3016   3.396   1.368   4.301
  206POPC   GL2 3017   3.423   1.011   4.253
  206POPC   C1A 3018   3.669   1.160   4.698
  206POPC   D2A 3019   3.826   0.929   5.109
  206POPC   C3A 3020   3.718   1.108   5.550
  206POPC   C4A 3021   3.667   1.417   5.902
  206POPC   C1B 3022   3.318   0.803   4.631
  206POPC   C2B 3023   3.312   0.982   5.044
  206POPC   C3B 3024   3.216   1.156   5.438
  206POPC   C4B 3025   3.291   1.065   5.863
  207POPC   NC3 3026   5.780   9.746   3.906
  207POPC   PO4 3027   5.664   9.169   4.076
  207POPC   GL1 3028   5.667   9.470   4.436
  207POPC   GL2 3029   5.606   9.809   4.403
  207POPC   C1A 3030   5.783   9.587   4.887
  207POPC   D2A 3031   5.736   9.484   5.355
  207POPC   C3A 3032   6.109   9.550   5.680
  207POPC   C4A 3033   6.319   9.496   6.123
  207POPC   C1B 3034   5.319   9.762   4.765
  207POPC   C2B 3035   5.227   9.575   5.218
  207POPC   C3B 3036   5.363   9.656   5.681
  207POPC   C4B 3037   5.439   9.885   6.112
  208POPC   NC3 3038   0.453  11.457   4.019
  208POPC   PO4 3039   0.730  10.838   3.882
  208POPC   GL1 3040   0.612  11.038   4.258
  208POPC   GL2 3041   0.235  11.076   4.307
  208POPC   C1A 3042   0.647  11.135   4.683
  208POPC   D2A 3043   0.759  11.254   5.102
  208POPC   C3A 3044   0.896  10.918   5.360
  208POPC   C4A 3045   0.618  10.826   5.683
  208POPC   C1B 3046   0.225  10.822   4.716
  208POPC   C2B 3047   0.375  10.859   5.185
  208POPC   C3B 3048   0.295  11.193   5.534
  208POPC   C4B 3049   0.108   0.120   5.606
  209POPC   NC3 3050   3.289  10.289   3.644
  209POPC   PO4 3051   3.689   9.876   4.011
  209POPC   GL1 3052   3.669   9.817   4.410
  209POPC   GL2 3053   3.729   9.476   4.375
  209POPC   C1A 3054   3.307   9.829   4.707
  209POPC   D2A 3055   3.264   9.675   5.111
  209POPC   C3A 3056   3.474   9.791   5.497
  209POPC   C4A 3057   3.285  10.003   5.799
  209POPC   C1B 3058   3.568   9.392   4.798
  209POPC   C2B 3059   3.672   9.383   5.253
  209POPC   C3B 3060   3.545   9.330   5.701
  209POPC   C4B 3061   3.676   9.251   6.154
  210POPC   NC3 3062   0.207   8.018   3.393
  210POPC   PO4 3063   0.313   7.822   4.056
  210POPC   GL1 3064   0.245   8.017   4.384
  210POPC   GL2 3065   0.558   8.161   4.372
  210POPC   C1A 3066   0.388   7.879   4.777
  210POPC   D2A 3067   0.215   7.780   5.138
  210POPC   C3A 3068   0.367   7.977   5.515
  210POPC   C4A 3069   0.157   8.284   5.722
  210POPC   C1B 3070   0.415   8.378   4.714
  210POPC   C2B 3071   0.489   8.294   5.103
  210POPC   C3B 3072   0.520   8.508   5.436
  210POPC   C4B 3073   0.640   8.408   5.835
  211POPC   NC3 3074   7.791  10.390   3.895
  211POPC   PO4 3075   8.382  10.760   3.825
  211POPC   GL1 3076   8.186  10.581   4.225
  211POPC   GL2 3077   8.118  10.208   4.242
  211POPC   C1A 3078   8.103  10.690   4.697
  211POPC   D2A 3079   7.883  10.769   5.118
  211POPC   C3A 3080   8.139  10.628   5.489
  211POPC   C4A 3081   8.229  10.384   5.848
  211POPC   C1B 3082   8.052  10.164   4.669
  211POPC   C2B 3083   8.113  10.314   5.079
  211POPC   C3B 3084   7.973  10.122   5.470
  211POPC   C4B 3085   7.890   9.996   5.913
  212POPC   NC3 3086   1.633   5.355   4.010
  212POPC   PO4 3087   1.846   6.001   3.792
  212POPC   GL1 3088   1.779   5.972   4.226
  212POPC   GL2 3089   1.985   5.741   4.349
  212POPC   C1A 3090   1.613   6.000   4.625
  212POPC   D2A 3091   1.651   5.977   5.047
  212POPC   C3A 3092   1.914   6.054   5.374
  212POPC   C4A 3093   1.787   5.959   5.805
  212POPC   C1B 3094   1.935   5.631   4.768
  212POPC   C2B 3095   1.937   5.535   5.195
  212POPC   C3B 3096   2.004   5.517   5.636
  212POPC   C4B 3097   1.956   5.282   6.008
  213POPC   NC3 3098   5.609  11.284   3.569
  213POPC   PO4 3099   6.158   0.201   3.807
  213POPC   GL1 3100   6.091   0.057   4.232
  213POPC   GL2 3101   5.811  11.331   4.225
  213POPC   C1A 3102   5.987   0.027   4.692
  213POPC   D2A 3103   6.070  11.210   5.026
  213POPC   C3A 3104   6.078  11.403   5.412
  213POPC   C4A 3105   6.144  11.219   5.798
  213POPC   C1B 3106   5.755  11.078   4.604
  213POPC   C2B 3107   5.599  10.951   5.028
  213POPC   C3B 3108   5.695  11.081   5.429
  213POPC   C4B 3109   5.645  11.217   5.830
  214POPC   NC3 3110   0.246   4.946   3.802
  214POPC   PO4 3111   0.912   4.581   3.887
  214POPC   GL1 3112   0.708   4.750   4.300
  214POPC   GL2 3113   0.418   4.969   4.293
  214POPC   C1A 3114   0.752   4.979   4.694
  214POPC   D2A 3115   0.771   4.830   5.111
  214POPC   C3A 3116   0.402   4.701   5.363
  214POPC   C4A 3117   0.470   4.808   5.794
  214POPC   C1B 3118   0.229   5.050   4.683
  214POPC   C2B 3119   0.406   5.236   5.049
  214POPC   C3B 3120   0.414   5.215   5.488
  214POPC   C4B 3121   0.195   5.266   5.898
  215POPC   NC3 3122   5.650   0.212   3.910
  215POPC   PO4 3123   5.437   0.871   3.924
  215POPC   GL1 3124   5.648   0.680   4.300
  215POPC   GL2 3125   5.688   0.323   4.388
  215POPC   C1A 3126   5.825   0.623   4.755
  215POPC   D2A 3127   5.839   0.401   5.148
  215POPC   C3A 3128   5.790   0.633   5.553
  215POPC   C4A 3129   5.609   0.821   5.935
  215POPC   C1B 3130   5.472   0.019   4.641
  215POPC   C2B 3131   5.616  11.445   5.067
  215POPC   C3B 3132   5.611   0.102   5.487
  215POPC   C4B 3133   5.906   0.207   5.799
  216POPC   NC3 3134   2.918   7.606   4.009
  216POPC   PO4 3135   2.319   7.937   4.015
  216POPC   GL1 3136   2.641   7.940   4.304
  216POPC   GL2 3137   2.425   7.959   4.553
  216POPC   C1A 3138   2.917   7.910   4.692
  216POPC   D2A 3139   2.855   8.077   5.140
  216POPC   C3A 3140   2.961   8.012   5.597
  216POPC   C4A 3141   2.686   7.871   5.959
  216POPC   C1B 3142   2.605   8.322   4.755
  216POPC   C2B 3143   2.462   8.392   5.188
  216POPC   C3B 3144   2.499   8.223   5.590
  216POPC   C4B 3145   2.655   8.380   5.972
  217POPC   NC3 3146   1.821   6.487   3.901
  217POPC   PO4 3147   2.426   6.393   3.870
  217POPC   GL1 3148   2.225   6.195   4.227
  217POPC   GL2 3149   2.032   6.472   4.356
  217POPC   C1A 3150   2.077   6.141   4.711
  217POPC   D2A 3151   2.227   6.408   5.044
  217POPC   C3A 3152   2.131   6.554   5.465
  217POPC   C4A 3153   1.765   6.444   5.691
  217POPC   C1B 3154   1.808   6.579   4.758
  217POPC   C2B 3155   1.707   6.575   5.193
  217POPC   C3B 3156   1.754   6.915   5.508
  217POPC   C4B 3157   2.017   6.864   5.875
  218POPC   NC3 3158   0.540   3.382   3.949
  218POPC   PO4 3159   0.161   3.933   3.961
  218POPC   GL1 3160   0.411   3.769   4.297
  218POPC   GL2 3161   0.388   3.447   4.419
  218POPC   C1A 3162   0.618   3.829   4.684
  218POPC   D2A 3163   0.375   3.790   5.060
  218POPC   C3A 3164   0.507   3.675   5.468
  218POPC   C4A 3165   0.270   3.765   5.797
  218POPC   C1B 3166   0.381   3.221   4.753
  218POPC   C2B 3167   0.486   3.287   5.146
  218POPC   C3B 3168   0.277   3.183   5.479
  218POPC   C4B 3169   0.439   3.280   5.824
  219POPC   NC3 3170  10.271   7.078   4.031
  219POPC   PO4 3171  10.931   7.358   3.970
  219POPC   GL1 3172  10.814   7.143   4.303
  219POPC   GL2 3173  10.510   7.299   4.408
  219POPC   C1A 3174  10.825   7.052   4.724
  219POPC   D2A 3175  10.687   6.915   5.128
  219POPC   C3A 3176  10.654   7.135   5.508
  219POPC   C4A 3177  10.286   7.101   5.740
  219POPC   C1B 3178  10.625   7.663   4.652
  219POPC   C2B 3179  10.459   7.757   5.055
  219POPC   C3B 3180  10.304   7.469   5.335
  219POPC   C4B 3181  10.469   7.583   5.710
  220POPC   NC3 3182  10.612   4.488   3.950
  220POPC   PO4 3183  10.128   4.038   4.091
  220POPC   GL1 3184  10.251   4.363   4.343
  220POPC   GL2 3185  10.548   4.476   4.459
  220POPC   C1A 3186  10.200   4.299   4.771
  220POPC   D2A 3187  10.433   4.301   5.090
  220POPC   C3A 3188  10.187   4.270   5.448
  220POPC   C4A 3189  10.091   4.404   5.833
  220POPC   C1B 3190  10.688   4.103   4.635
  220POPC   C2B 3191  10.856   4.015   5.043
  220POPC   C3B 3192  10.820   4.292   5.400
  220POPC   C4B 3193  10.584   4.205   5.757
  221POPC   NC3 3194   5.024   8.150   3.856
  221POPC   PO4 3195   4.770   7.645   4.147
  221POPC   GL1 3196   4.936   7.911   4.473
  221POPC   GL2 3197   4.916   8.234   4.352
  221POPC   C1A 3198   4.851   8.091   4.890
  221POPC   D2A 3199   4.564   8.236   5.209
  221POPC   C3A 3200   4.560   8.007   5.600
  221POPC   C4A 3201   4.779   7.730   5.887
  221POPC   C1B 3202   5.196   8.399   4.665
  221POPC   C2B 3203   5.300   8.224   5.089
  221POPC   C3B 3204   5.039   8.175   5.476
  221POPC   C4B 3205   4.887   8.264   5.915
  222POPC   NC3 3206   1.327   4.317   3.890
  222POPC   PO4 3207   1.203   3.755   4.075
  222POPC   GL1 3208   1.054   4.004   4.405
  222POPC   GL2 3209   1.081   4.361   4.329
  222POPC   C1A 3210   1.072   3.994   4.865
  222POPC   D2A 3211   1.327   3.961   5.230
  222POPC   C3A 3212   1.280   4.204   5.654
  222POPC   C4A 3213   1.514   4.034   6.046
  222POPC   C1B 3214   1.013   4.505   4.744
  222POPC   C2B 3215   1.122   4.425   5.170
  222POPC   C3B 3216   0.867   4.527   5.510
  222POPC   C4B 3217   0.940   4.589   5.886
  223POPC   NC3 3218   2.534   8.346   3.988
  223POPC   PO4 3219   2.708   9.049   3.972
  223POPC   GL1 3220   2.743   8.748   4.318
  223POPC   GL2 3221   2.434   8.672   4.427
  223POPC   C1A 3222   2.842   8.773   4.789
  223POPC   D2A 3223   2.937   8.586   5.187
  223POPC   C3A 3224   2.799   8.665   5.577
  223POPC   C4A 3225   3.087   8.637   5.958
  223POPC   C1B 3226   2.509   9.100   4.627
  223POPC   C2B 3227   2.545   9.199   5.076
  223POPC   C3B 3228   2.647   9.171   5.525
  223POPC   C4B 3229   3.064   9.095   5.735
  224POPC   NC3 3230  10.076   0.405   3.995
  224POPC   PO4 3231  10.603   0.105   4.242
  224POPC   GL1 3232  10.243   0.275   4.462
  224POPC   GL2 3233  10.212   0.654   4.441
  224POPC   C1A 3234  10.212   0.281   4.898
  224POPC   D2A 3235  10.374   0.495   5.244
  224POPC   C3A 3236  10.462   0.241   5.604
  224POPC   C4A 3237  10.079   0.125   5.791
  224POPC   C1B 3238  10.546   0.665   4.761
  224POPC   C2B 3239  10.834   0.700   5.120
  224POPC   C3B 3240  10.668   0.770   5.548
  224POPC   C4B 3241  10.622   0.697   6.003
  225POPC   NC3 3242   2.209   3.009   4.026
  225POPC   PO4 3243   1.792   2.767   3.652
  225POPC   GL1 3244   1.785   2.620   4.150
  225POPC   GL2 3245   2.101   2.568   4.262
  225POPC   C1A 3246   1.692   2.725   4.632
  225POPC   D2A 3247   1.628   2.929   5.058
  225POPC   C3A 3248   1.782   2.696   5.423
  225POPC   C4A 3249   1.711   2.848   5.828
  225POPC   C1B 3250   2.192   2.815   4.642
  225POPC   C2B 3251   2.132   2.864   5.078
  225POPC   C3B 3252   2.343   2.784   5.444
  225POPC   C4B 3253   2.177   2.643   5.823
  226POPC   NC3 3254   6.884   7.920   3.948
  226POPC   PO4 3255   7.003   8.455   3.842
  226POPC   GL1 3256   7.053   8.362   4.302
  226POPC   GL2 3257   7.375   8.236   4.395
  226POPC   C1A 3258   7.070   8.404   4.792
  226POPC   D2A 3259   7.304   8.399   5.214
  226POPC   C3A 3260   7.116   8.319   5.625
  226POPC   C4A 3261   7.031   8.006   5.959
  226POPC   C1B 3262   7.584   8.390   4.786
  226POPC   C2B 3263   7.796   8.286   5.182
  226POPC   C3B 3264   7.627   8.216   5.601
  226POPC   C4B 3265   7.465   8.273   6.033
  227POPC   NC3 3266   1.316   0.281   4.062
  227POPC   PO4 3267   1.081   0.875   4.033
  227POPC   GL1 3268   1.137   0.686   4.417
  227POPC   GL2 3269   0.980   0.365   4.469
  227POPC   C1A 3270   1.090   0.734   4.849
  227POPC   D2A 3271   0.827   0.878   5.152
  227POPC   C3A 3272   1.011   0.698   5.521
  227POPC   C4A 3273   1.238   0.680   5.907
  227POPC   C1B 3274   1.384   0.335   4.734
  227POPC   C2B 3275   1.259   0.315   5.166
  227POPC   C3B 3276   1.410   0.297   5.561
  227POPC   C4B 3277   1.469  11.435   5.832
  228POPC   NC3 3278  10.867   7.810   3.894
  228POPC   PO4 3279  11.465   7.698   3.656
  228POPC   GL1 3280  11.370   7.547   4.173
  228POPC   GL2 3281  11.334   7.212   4.258
  228POPC   C1A 3282  11.097   7.474   4.627
  228POPC   D2A 3283  10.864   7.420   5.074
  228POPC   C3A 3284  10.996   7.579   5.502
  228POPC   C4A 3285  10.911   7.598   5.969
  228POPC   C1B 3286  11.335   7.028   4.664
  228POPC   C2B 3287  11.193   6.886   5.050
  228POPC   C3B 3288  11.158   7.079   5.453
  228POPC   C4B 3289  11.258   7.264   5.856
  229POPC   NC3 3290   4.387   2.583   3.921
  229POPC   PO4 3291   3.983   2.949   4.042
  229POPC   GL1 3292   4.021   2.669   4.414
  229POPC   GL2 3293   4.268   2.385   4.367
  229POPC   C1A 3294   3.863   2.751   4.840
  229POPC   D2A 3295   3.652   2.650   5.240
  229POPC   C3A 3296   3.876   2.689   5.637
  229POPC   C4A 3297   4.124   2.660   6.033
  229POPC   C1B 3298   4.308   2.492   4.792
  229POPC   C2B 3299   4.143   2.511   5.206
  229POPC   C3B 3300   4.323   2.428   5.596
  229POPC   C4B 3301   4.598   2.732   5.786
  230POPC   NC3 3302   4.825   9.865   4.090
  230POPC   PO4 3303   5.452  10.064   3.975
  230POPC   GL1 3304   5.376  10.284   4.344
  230POPC   GL2 3305   5.273  10.643   4.311
  230POPC   C1A 3306   5.229  10.291   4.747
  230POPC   D2A 3307   5.064  10.488   5.105
  230POPC   C3A 3308   5.116  10.165   5.397
  230POPC   C4A 3309   5.381  10.178   5.717
  230POPC   C1B 3310   4.899  10.703   4.596
  230POPC   C2B 3311   4.789  10.923   5.001
  230POPC   C3B 3312   4.739  10.762   5.408
  230POPC   C4B 3313   5.115  10.629   5.641
  231POPC   NC3 3314  10.514   2.708   4.025
  231POPC   PO4 3315  10.782   3.304   3.913
  231POPC   GL1 3316  10.820   3.046   4.301
  231POPC   GL2 3317  10.498   2.996   4.449
  231POPC   C1A 3318  10.971   2.950   4.724
  231POPC   D2A 3319  10.810   3.093   5.132
  231POPC   C3A 3320  10.803   2.864   5.529
  231POPC   C4A 3321  10.729   2.607   5.888
  231POPC   C1B 3322  10.561   2.603   4.692
  231POPC   C2B 3323  10.417   2.377   5.074
  231POPC   C3B 3324  10.411   2.512   5.503
  231POPC   C4B 3325  10.245   2.885   5.684
  232POPC   NC3 3326   7.237  10.827   4.021
  232POPC   PO4 3327   6.931  11.449   3.806
  232POPC   GL1 3328   7.005  11.264   4.259
  232POPC   GL2 3329   7.329  11.105   4.428
  232POPC   C1A 3330   6.930  11.239   4.737
  232POPC   D2A 3331   6.998  11.428   5.163
  232POPC   C3A 3332   7.037  11.186   5.565
  232POPC   C4A 3333   6.858  11.328   5.977
  232POPC   C1B 3334   7.371  10.924   4.851
  232POPC   C2B 3335   7.469  11.236   5.164
  232POPC   C3B 3336   7.535  11.364   5.570
  232POPC   C4B 3337   7.543  10.930   5.779
  233POPC   NC3 3338   1.526   3.681   3.762
  233POPC   PO4 3339   1.683   3.118   4.072
  233POPC   GL1 3340   1.644   3.527   4.274
  233POPC   GL2 3341   1.972   3.567   4.320
  233POPC   C1A 3342   1.558   3.765   4.667
  233POPC   D2A 3343   1.786   3.936   4.989
  233POPC   C3A 3344   1.775   3.796   5.389
  233POPC   C4A 3345   1.853   3.622   5.751
  233POPC   C1B 3346   1.958   3.311   4.716
  233POPC   C2B 3347   1.997   3.365   5.153
  233POPC   C3B 3348   1.994   3.160   5.539
  233POPC   C4B 3349   2.044   3.207   5.996
  234POPC   NC3 3350   8.998   1.875   3.865
  234POPC   PO4 3351   8.447   2.326   4.005
  234POPC   GL1 3352   8.828   2.177   4.237
  234POPC   GL2 3353   8.765   1.826   4.301
  234POPC   C1A 3354   9.039   2.098   4.673
  234POPC   D2A 3355   8.977   2.286   5.080
  234POPC   C3A 3356   9.041   2.011   5.414
  234POPC   C4A 3357   8.993   2.070   5.824
  234POPC   C1B 3358   8.547   1.997   4.633
  234POPC   C2B 3359   8.574   1.858   5.058
  234POPC   C3B 3360   8.322   1.934   5.416
  234POPC   C4B 3361   8.466   1.949   5.838
  235POPC   NC3 3362   9.668   0.261   3.539
  235POPC   PO4 3363   9.268   0.655   3.929
  235POPC   GL1 3364   9.379   0.520   4.322
  235POPC   GL2 3365   9.715   0.623   4.300
  235POPC   C1A 3366   9.282   0.338   4.702
  235POPC   D2A 3367   9.227   0.588   5.051
  235POPC   C3A 3368   9.281   0.311   5.356
  235POPC   C4A 3369   9.503   0.187   5.706
  235POPC   C1B 3370   9.783   0.468   4.692
  235POPC   C2B 3371   9.730   0.339   5.114
  235POPC   C3B 3372   9.852   0.516   5.497
  235POPC   C4B 3373  10.200   0.652   5.742
  236POPC   NC3 3374   8.870   0.926   3.967
  236POPC   PO4 3375   8.545   1.597   3.839
  236POPC   GL1 3376   8.631   1.339   4.210
  236POPC   GL2 3377   8.982   1.340   4.281
  236POPC   C1A 3378   8.595   1.463   4.667
  236POPC   D2A 3379   8.605   1.329   5.114
  236POPC   C3A 3380   8.705   1.605   5.497
  236POPC   C4A 3381   9.083   1.575   5.756
  236POPC   C1B 3382   8.954   1.076   4.658
  236POPC   C2B 3383   9.097   1.092   5.083
  236POPC   C3B 3384   8.942   1.162   5.485
  236POPC   C4B 3385   9.066   1.028   5.867
  237POPC   NC3 3386   0.264   7.368   3.893
  237POPC   PO4 3387   0.889   7.031   3.903
  237POPC   GL1 3388   0.664   7.133   4.331
  237POPC   GL2 3389   0.330   7.252   4.366
  237POPC   C1A 3390   0.603   7.334   4.785
  237POPC   D2A 3391   0.356   7.254   5.188
  237POPC   C3A 3392   0.470   7.251   5.662
  237POPC   C4A 3393   0.205   7.149   6.049
  237POPC   C1B 3394   0.107   7.452   4.693
  237POPC   C2B 3395  11.378   7.384   5.086
  237POPC   C3B 3396   0.026   7.511   5.521
  237POPC   C4B 3397   0.266   7.640   5.912
  238POPC   NC3 3398   5.520   1.987   3.972
  238POPC   PO4 3399   5.928   2.371   4.096
  238POPC   GL1 3400   5.839   2.022   4.365
  238POPC   GL2 3401   5.963   1.705   4.256
  238POPC   C1A 3402   5.524   1.906   4.690
  238POPC   D2A 3403   5.325   1.885   5.117
  238POPC   C3A 3404   5.571   1.936   5.495
  238POPC   C4A 3405   5.811   2.146   5.839
  238POPC   C1B 3406   6.047   1.750   4.742
  238POPC   C2B 3407   6.017   1.908   5.190
  238POPC   C3B 3408   6.251   2.066   5.556
  238POPC   C4B 3409   6.271   1.985   6.014
  239POPC   NC3 3410   0.701   6.666   4.122
  239POPC   PO4 3411   0.108   6.914   3.961
  239POPC   GL1 3412   0.227   6.746   4.321
  239POPC   GL2 3413   0.147   6.392   4.261
  239POPC   C1A 3414   0.316   6.898   4.734
  239POPC   D2A 3415   0.447   6.748   5.093
  239POPC   C3A 3416   0.336   6.786   5.516
  239POPC   C4A 3417   0.652   6.583   5.761
  239POPC   C1B 3418   0.369   6.387   4.668
  239POPC   C2B 3419   0.452   6.229   5.092
  239POPC   C3B 3420   0.315   6.276   5.507
  239POPC   C4B 3421   0.378   6.087   5.919
  240POPC   NC3 3422  10.454   9.611   3.865
  240POPC   PO4 3423  10.857   9.121   3.805
  240POPC   GL1 3424  10.502   9.251   4.200
  240POPC   GL2 3425  10.681   9.542   4.315
  240POPC   C1A 3426  10.444   9.292   4.702
  240POPC   D2A 3427  10.535   9.175   5.156
  240POPC   C3A 3428  10.374   9.446   5.439
  240POPC   C4A 3429  10.618   9.750   5.628
  240POPC   C1B 3430  10.352   9.784   4.538
  240POPC   C2B 3431  10.285   9.790   4.995
  240POPC   C3B 3432  10.176   9.916   5.447
  240POPC   C4B 3433  10.321   9.994   5.941
  241POPC   NC3 3434   4.835  11.163   3.836
  241POPC   PO4 3435   5.498  10.951   3.855
  241POPC   GL1 3436   5.328  11.160   4.231
  241POPC   GL2 3437   5.001  11.268   4.304
  241POPC   C1A 3438   5.244  11.059   4.679
  241POPC   D2A 3439   5.124  11.321   5.009
  241POPC   C3A 3440   5.172  11.116   5.396
  241POPC   C4A 3441   5.199  11.415   5.717
  241POPC   C1B 3442   4.722  11.307   4.675
  241POPC   C2B 3443   4.615  11.453   5.096
  241POPC   C3B 3444   4.543  11.295   5.496
  241POPC   C4B 3445   4.788  11.117   5.763
  242POPC   NC3 3446  11.287   5.988   3.592
  242POPC   PO4 3447  10.960   5.624   4.046
  242POPC   GL1 3448  11.120   5.730   4.420
  242POPC   GL2 3449  11.431   5.668   4.310
  242POPC   C1A 3450  11.209   5.562   4.842
  242POPC   D2A 3451  11.062   5.370   5.270
  242POPC   C3A 3452  11.046   5.714   5.596
  242POPC   C4A 3453  10.893   6.134   5.553
  242POPC   C1B 3454   0.010   6.003   4.607
  242POPC   C2B 3455  11.252   6.083   4.947
  242POPC   C3B 3456  11.370   6.054   5.368
  242POPC   C4B 3457  11.377   6.229   5.785
  243POPC   NC3 3458   8.046  11.113   3.831
  243POPC   PO4 3459   7.667  10.764   4.181
  243POPC   GL1 3460   7.959  11.057   4.348
  243POPC   GL2 3461   8.351  11.083   4.254
  243POPC   C1A 3462   7.825  11.139   4.759
  243POPC   D2A 3463   7.969  11.278   5.140
  243POPC   C3A 3464   7.972  11.096   5.547
  243POPC   C4A 3465   7.878  11.289   5.955
  243POPC   C1B 3466   8.338  11.171   4.704
  243POPC   C2B 3467   8.400  11.000   5.119
  243POPC   C3B 3468   8.482  11.224   5.481
  243POPC   C4B 3469   8.360  11.145   5.906
  244POPC   NC3 3470   2.268   8.974   4.051
  244POPC   PO4 3471   1.720   9.309   3.851
  244POPC   GL1 3472   1.628   9.152   4.300
  244POPC   GL2 3473   1.793   8.863   4.280
  244POPC   C1A 3474   1.609   9.053   4.789
  244POPC   D2A 3475   1.788   8.747   5.132
  244POPC   C3A 3476   1.680   8.732   5.604
  244POPC   C4A 3477   1.698   8.959   6.014
  244POPC   C1B 3478   1.977   8.746   4.639
  244POPC   C2B 3479   2.275   8.774   4.930
  244POPC   C3B 3480   2.270   8.839   5.369
  244POPC   C4B 3481   2.150   9.050   5.735
  245POPC   NC3 3482   4.319   0.519   3.818
  245POPC   PO4 3483   4.133  11.377   3.913
  245POPC   GL1 3484   4.227   0.210   4.254
  245POPC   GL2 3485   4.229   0.548   4.352
  245POPC   C1A 3486   4.363   0.221   4.707
  245POPC   D2A 3487   4.145   0.276   5.094
  245POPC   C3A 3488   4.373   0.279   5.454
  245POPC   C4A 3489   4.321   0.292   5.885
  245POPC   C1B 3490   4.261   0.734   4.795
  245POPC   C2B 3491   4.502   0.724   5.197
  245POPC   C3B 3492   4.514   0.729   5.658
  245POPC   C4B 3493   4.041   0.677   5.730
  246POPC   NC3 3494   8.747   9.686   3.955
  246POPC   PO4 3495   9.355   9.338   3.948
  246POPC   GL1 3496   9.115   9.484   4.308
  246POPC   GL2 3497   9.288   9.818   4.376
  246POPC   C1A 3498   9.044   9.246   4.737
  246POPC   D2A 3499   8.873   9.126   5.185
  246POPC   C3A 3500   9.091   9.325   5.561
  246POPC   C4A 3501   9.106   9.167   6.017
  246POPC   C1B 3502   8.981   9.777   4.716
  246POPC   C2B 3503   8.839   9.636   5.136
  246POPC   C3B 3504   8.857   9.834   5.539
  246POPC   C4B 3505   9.179  10.005   5.808
  247POPC   NC3 3506   2.249   0.528   3.899
  247POPC   PO4 3507   1.757   0.139   4.041
  247POPC   GL1 3508   1.986   0.262   4.356
  247POPC   GL2 3509   2.106   0.607   4.377
  247POPC   C1A 3510   1.901   0.200   4.753
  247POPC   D2A 3511   1.769   0.142   5.124
  247POPC   C3A 3512   2.144   0.082   5.414
  247POPC   C4A 3513   2.036   0.044   5.831
  247POPC   C1B 3514   1.837   0.709   4.710
  247POPC   C2B 3515   1.634   0.639   5.088
  247POPC   C3B 3516   1.856   0.516   5.442
  247POPC   C4B 3517   2.123   0.564   5.748
  248POPC   NC3 3518  10.461   6.155   3.735
  248POPC   PO4 3519  10.619   6.765   3.968
  248POPC   GL1 3520  10.546   6.710   4.347
  248POPC   GL2 3521  10.417   6.382   4.252
  248POPC   C1A 3522  10.386   6.795   4.734
  248POPC   D2A 3523  10.233   6.543   5.056
  248POPC   C3A 3524  10.315   6.705   5.427
  248POPC   C4A 3525  10.039   6.592   5.743
  248POPC   C1B 3526  10.459   6.274   4.683
  248POPC   C2B 3527  10.359   6.022   5.021
  248POPC   C3B 3528  10.350   6.180   5.442
  248POPC   C4B 3529  10.503   6.381   5.778
  249POPC   NC3 3530   0.454   1.991   3.784
  249POPC   PO4 3531   0.102   2.307   4.184
  249POPC   GL1 3532   0.221   1.953   4.340
  249POPC   GL2 3533   0.548   2.005   4.290
  249POPC   C1A 3534   0.197   1.805   4.748
  249POPC   D2A 3535   0.368   1.947   5.108
  249POPC   C3A 3536   0.179   1.853   5.449
  249POPC   C4A 3537   0.009   2.215   5.643
  249POPC   C1B 3538   0.646   2.087   4.696
  249POPC   C2B 3539   0.668   2.343   5.053
  249POPC   C3B 3540   0.496   2.313   5.484
  249POPC   C4B 3541   0.491   1.987   5.808
  250POPC   NC3 3542   0.502   8.866   3.897
  250POPC   PO4 3543  11.446   8.436   3.789
  250POPC   GL1 3544   0.228   8.534   4.195
  250POPC   GL2 3545   0.568   8.663   4.336
  250POPC   C1A 3546   0.172   8.816   4.601
  250POPC   D2A 3547   0.363   8.805   5.033
  250POPC   C3A 3548   0.221   9.104   5.379
  250POPC   C4A 3549   0.094   9.118   5.835
  250POPC   C1B 3550   0.786   8.738   4.688
  250POPC   C2B 3551   0.887   8.675   5.093
  250POPC   C3B 3552   0.751   8.978   5.364
  250POPC   C4B 3553   0.519   8.897   5.743
  251POPC   NC3 3554  11.235  11.278   3.685
  251POPC   PO4 3555  10.794   0.190   3.699
  251POPC   GL1 3556  11.085   0.051   4.121
  251POPC   GL2 3557  11.251  11.233   4.191
  251POPC   C1A 3558  11.158   0.019   4.606
  251POPC   D2A 3559  11.036  11.261   5.010
  251POPC   C3A 3560  11.196  11.358   5.442
  251POPC   C4A 3561  11.127  11.492   5.891
  251POPC   C1B 3562  11.238  11.015   4.614
  251POPC   C2B 3563  11.287  10.777   5.006
  251POPC   C3B 3564  11.388  10.843   5.423
  251POPC   C4B 3565  11.179  10.983   5.789
  252POPC   NC3 3566   4.151   1.018   4.189
  252POPC   PO4 3567   4.603   1.404   3.801
  252POPC   GL1 3568   4.630   1.237   4.213
  252POPC   GL2 3569   4.384   1.433   4.368
  252POPC   C1A 3570   4.684   1.188   4.682
  252POPC   D2A 3571   4.553   1.207   5.096
  252POPC   C3A 3572   4.614   1.412   5.465
  252POPC   C4A 3573   4.787   1.239   5.821
  252POPC   C1B 3574   4.172   1.319   4.766
  252POPC   C2B 3575   4.086   1.359   5.199
  252POPC   C3B 3576   4.216   1.119   5.518
  252POPC   C4B 3577   4.156   1.459   5.755
  253POPC   NC3 3578   5.579  10.499   3.913
  253POPC   PO4 3579   6.073  10.086   3.899
  253POPC   GL1 3580   5.882  10.229   4.294
  253POPC   GL2 3581   5.916  10.589   4.304
  253POPC   C1A 3582   5.762  10.111   4.759
  253POPC   D2A 3583   5.556   9.961   5.172
  253POPC   C3A 3584   5.806   9.961   5.534
  253POPC   C4A 3585   5.885  10.281   5.786
  253POPC   C1B 3586   5.640  10.591   4.662
  253POPC   C2B 3587   5.583  10.455   5.092
  253POPC   C3B 3588   5.607  10.587   5.488
  253POPC   C4B 3589   5.940  10.771   5.757
  254POPC   NC3 3590   1.852  10.607   3.628
  254POPC   PO4 3591   2.428  10.924   3.844
  254POPC   GL1 3592   2.349  10.832   4.309
  254POPC   GL2 3593   2.149  10.542   4.414
  254POPC   C1A 3594   2.299  10.854   4.787
  254POPC   D2A 3595   2.058  10.627   5.079
  254POPC   C3A 3596   2.025  10.821   5.459
  254POPC   C4A 3597   2.205  10.684   5.855
  254POPC   C1B 3598   2.211  10.206   4.750
  254POPC   C2B 3599   2.197  10.108   5.203
  254POPC   C3B 3600   1.999  10.331   5.521
  254POPC   C4B 3601   1.658  10.548   5.693
  255POPC   NC3 3602   9.769  11.035   3.709
  255POPC   PO4 3603   9.627   0.231   3.985
  255POPC   GL1 3604   9.714   0.073   4.361
  255POPC   GL2 3605   9.664  11.210   4.296
  255POPC   C1A 3606   9.608  11.454   4.781
  255POPC   D2A 3607   9.450  11.351   5.222
  255POPC   C3A 3608   9.695  11.248   5.612
  255POPC   C4A 3609   9.746  11.422   6.102
  255POPC   C1B 3610   9.610  10.935   4.679
  255POPC   C2B 3611   9.406  10.838   5.080
  255POPC   C3B 3612   9.246  10.942   5.493
  255POPC   C4B 3613   9.461  10.898   5.894
  256POPC   NC3 3614   9.154   4.817   4.038
  256POPC   PO4 3615   8.606   5.030   3.923
  256POPC   GL1 3616   8.755   5.177   4.363
  256POPC   GL2 3617   9.095   5.142   4.440
  256POPC   C1A 3618   8.770   5.026   4.820
  256POPC   D2A 3619   8.680   4.884   5.255
  256POPC   C3A 3620   8.750   4.935   5.694
  256POPC   C4A 3621   8.426   4.916   6.026
  256POPC   C1B 3622   9.166   5.332   4.830
  256POPC   C2B 3623   9.135   5.219   5.261
  256POPC   C3B 3624   9.157   5.246   5.681
  256POPC   C4B 3625   9.241   4.965   6.002
  257POPC   NC3 3626   2.875   3.754   3.990
  257POPC   PO4 3627   2.662   3.154   3.957
  257POPC   GL1 3628   2.677   3.364   4.310
  257POPC   GL2 3629   2.383   3.273   4.443
  257POPC   C1A 3630   2.781   3.546   4.699
  257POPC   D2A 3631   2.971   3.391   5.072
  257POPC   C3A 3632   2.871   3.528   5.497
  257POPC   C4A 3633   3.112   3.419   5.859
  257POPC   C1B 3634   2.449   3.204   4.877
  257POPC   C2B 3635   2.475   3.257   5.300
  257POPC   C3B 3636   2.354   3.507   5.649
  257POPC   C4B 3637   2.612   3.511   5.980
  258POPC   NC3 3638   4.162  10.610   4.010
  258POPC   PO4 3639   4.392   9.989   4.131
  258POPC   GL1 3640   4.105  10.135   4.459
  258POPC   GL2 3641   3.836  10.300   4.307
  258POPC   C1A 3642   4.211  10.168   4.921
  258POPC   D2A 3643   4.615  10.210   5.184
  258POPC   C3A 3644   4.673  10.296   5.632
  258POPC   C4A 3645   4.701  10.636   5.926
  258POPC   C1B 3646   3.924  10.585   4.698
  258POPC   C2B 3647   3.881  10.504   5.143
  258POPC   C3B 3648   4.132  10.305   5.446
  258POPC   C4B 3649   4.234  10.432   5.862
  259POPC   NC3 3650   5.048   0.639   3.959
  259POPC   PO4 3651   5.244   0.017   3.764
  259POPC   GL1 3652   5.208   0.226   4.206
  259POPC   GL2 3653   4.833   0.267   4.315
  259POPC   C1A 3654   5.270   0.492   4.591
  259POPC   D2A 3655   5.324   0.351   5.032
  259POPC   C3A 3656   5.299   0.509   5.476
  259POPC   C4A 3657   5.395   0.348   5.910
  259POPC   C1B 3658   4.859   0.289   4.789
  259POPC   C2B 3659   4.860   0.381   5.246
  259POPC   C3B 3660   4.842   0.301   5.693
  259POPC   C4B 3661   4.824   0.481   6.104
  260POPC   NC3 3662   1.864   7.954   4.013
  260POPC   PO4 3663   2.087   8.558   3.992
  260POPC   GL1 3664   2.106   8.299   4.336
  260POPC   GL2 3665   1.775   8.319   4.418
  260POPC   C1A 3666   2.102   8.284   4.802
  260POPC   D2A 3667   1.788   8.226   5.110
  260POPC   C3A 3668   2.009   8.365   5.455
  260POPC   C4A 3669   2.184   8.556   5.802
  260POPC   C1B 3670   1.789   7.911   4.666
  260POPC   C2B 3671   1.709   7.703   5.080
  260POPC   C3B 3672   1.780   7.865   5.503
  260POPC   C4B 3673   1.584   8.229   5.695
  261POPC   NC3 3674   8.757   2.713   4.098
  261POPC   PO4 3675   9.320   2.980   4.098
  261POPC   GL1 3676   9.136   2.846   4.468
  261POPC   GL2 3677   9.128   2.533   4.440
  261POPC   C1A 3678   9.015   2.856   4.914
  261POPC   D2A 3679   8.954   2.742   5.359
  261POPC   C3A 3680   9.160   3.027   5.673
  261POPC   C4A 3681   9.168   3.162   6.059
  261POPC   C1B 3682   8.703   2.495   4.697
  261POPC   C2B 3683   8.475   2.354   5.083
  261POPC   C3B 3684   8.637   2.358   5.524
  261POPC   C4B 3685   8.599   2.773   5.743
  262POPC   NC3 3686   3.245  10.846   3.968
  262POPC   PO4 3687   3.278   0.004   3.980
  262POPC   GL1 3688   3.169  11.307   4.340
  262POPC   GL2 3689   3.475  11.148   4.349
  262POPC   C1A 3690   3.194  11.325   4.796
  262POPC   D2A 3691   3.271  11.136   5.190
  262POPC   C3A 3692   3.220  11.351   5.566
  262POPC   C4A 3693   3.309  11.419   6.003
  262POPC   C1B 3694   3.718  11.068   4.714
  262POPC   C2B 3695   3.753  11.001   5.141
  262POPC   C3B 3696   3.654  11.051   5.548
  262POPC   C4B 3697   3.818  10.695   5.714
  263POPC   NC3 3698  11.240   2.134   3.988
  263POPC   PO4 3699   0.135   1.640   3.929
  263POPC   GL1 3700  11.267   1.709   4.283
  263POPC   GL2 3701  10.924   1.943   4.311
  263POPC   C1A 3702  11.195   1.890   4.727
  263POPC   D2A 3703  11.341   2.073   5.109
  263POPC   C3A 3704  11.172   1.868   5.477
  263POPC   C4A 3705  11.396   1.805   5.903
  263POPC   C1B 3706  10.737   2.129   4.689
  263POPC   C2B 3707  10.824   2.061   5.111
  263POPC   C3B 3708  10.707   2.105   5.522
  263POPC   C4B 3709  10.986   2.168   5.844
  264POPC   NC3 3710   4.280   1.738   3.737
  264POPC   PO4 3711   3.833   1.349   4.107
  264POPC   GL1 3712   3.923   1.662   4.438
  264POPC   GL2 3713   4.180   1.873   4.241
  264POPC   C1A 3714   3.914   1.737   4.895
  264POPC   D2A 3715   4.034   2.026   5.203
  264POPC   C3A 3716   4.178   1.934   5.578
  264POPC   C4A 3717   3.902   1.874   5.928
  264POPC   C1B 3718   4.308   1.961   4.690
  264POPC   C2B 3719   4.445   1.743   5.099
  264POPC   C3B 3720   4.745   1.896   5.455
  264POPC   C4B 3721   4.748   2.218   5.812
  265POPC   NC3 3722   1.131   6.644   3.750
  265POPC   PO4 3723   1.485   6.440   4.204
  265POPC   GL1 3724   1.313   6.414   4.548
  265POPC   GL2 3725   0.997   6.391   4.444
  265POPC   C1A 3726   1.308   6.650   4.896
  265POPC   D2A 3727   1.286   6.864   5.261
  265POPC   C3A 3728   1.310   6.659   5.641
  265POPC   C4A 3729   1.530   6.884   5.987
  265POPC   C1B 3730   0.833   6.488   4.834
  265POPC   C2B 3731   0.867   6.544   5.269
  265POPC   C3B 3732   0.836   6.199   5.501
  265POPC   C4B 3733   1.032   6.263   5.873
  266POPC   NC3 3734   1.384   6.082   3.945
  266POPC   PO4 3735   1.147   5.457   3.957
  266POPC   GL1 3736   1.323   5.681   4.292
  266POPC   GL2 3737   1.048   5.894   4.302
  266POPC   C1A 3738   1.408   5.546   4.717
  266POPC   D2A 3739   1.251   5.672   5.129
  266POPC   C3A 3740   1.530   5.658   5.451
  266POPC   C4A 3741   1.513   5.484   5.820
  266POPC   C1B 3742   1.127   5.978   4.730
  266POPC   C2B 3743   1.203   6.204   5.098
  266POPC   C3B 3744   1.351   6.123   5.501
  266POPC   C4B 3745   1.062   5.760   5.635
  267POPC   NC3 3746   7.254   2.196   3.927
  267POPC   PO4 3747   7.104   1.580   3.622
  267POPC   GL1 3748   7.212   1.712   4.073
  267POPC   GL2 3749   7.553   1.859   4.186
  267POPC   C1A 3750   7.143   1.911   4.526
  267POPC   D2A 3751   7.176   1.979   5.007
  267POPC   C3A 3752   6.885   1.932   5.365
  267POPC   C4A 3753   7.045   1.779   5.762
  267POPC   C1B 3754   7.648   1.912   4.643
  267POPC   C2B 3755   7.658   1.797   5.078
  267POPC   C3B 3756   7.452   1.949   5.460
  267POPC   C4B 3757   7.166   2.261   5.614
  268POPC   NC3 3758  10.287   8.254   3.648
  268POPC   PO4 3759  10.052   7.709   3.896
  268POPC   GL1 3760  10.364   7.839   4.239
  268POPC   GL2 3761  10.423   8.218   4.296
  268POPC   C1A 3762  10.179   7.921   4.674
  268POPC   D2A 3763   9.932   8.098   5.018
  268POPC   C3A 3764  10.101   7.941   5.399
  268POPC   C4A 3765  10.146   7.954   5.806
  268POPC   C1B 3766  10.414   8.364   4.752
  268POPC   C2B 3767  10.314   8.360   5.195
  268POPC   C3B 3768  10.545   8.204   5.564
  268POPC   C4B 3769  10.571   8.377   5.974
  269POPC   NC3 3770   2.857   9.493   3.878
  269POPC   PO4 3771   2.233   9.814   3.902
  269POPC   GL1 3772   2.530   9.643   4.250
  269POPC   GL2 3773   2.857   9.607   4.403
  269POPC   C1A 3774   2.469   9.589   4.719
  269POPC   D2A 3775   2.747   9.674   5.075
  269POPC   C3A 3776   2.505   9.735   5.421
  269POPC   C4A 3777   2.337   9.526   5.750
  269POPC   C1B 3778   2.978   9.324   4.759
  269POPC   C2B 3779   3.050   9.232   5.211
  269POPC   C3B 3780   3.004   9.563   5.541
  269POPC   C4B 3781   2.797   9.810   5.840
  270POPC   NC3 3782   3.848  11.031   3.751
  270POPC   PO4 3783   4.506  10.842   3.788
  270POPC   GL1 3784   4.556  10.943   4.228
  270POPC   GL2 3785   4.499  11.280   4.237
  270POPC   C1A 3786   4.403  10.861   4.655
  270POPC   D2A 3787   4.358  10.647   5.048
  270POPC   C3A 3788   4.203  10.862   5.400
  270POPC   C4A 3789   4.294  10.938   5.822
  270POPC   C1B 3790   4.160  11.288   4.559
  270POPC   C2B 3791   4.178  11.229   4.998
  270POPC   C3B 3792   4.046  11.365   5.410
  270POPC   C4B 3793   3.955  11.342   5.852
  271POPC   NC3 3794   2.837   6.583   3.882
  271POPC   PO4 3795   2.927   7.146   3.980
  271POPC   GL1 3796   2.855   6.816   4.358
  271POPC   GL2 3797   2.557   6.608   4.316
  271POPC   C1A 3798   2.905   6.613   4.818
  271POPC   D2A 3799   3.027   6.433   5.261
  271POPC   C3A 3800   2.843   6.618   5.643
  271POPC   C4A 3801   2.462   6.607   5.903
  271POPC   C1B 3802   2.546   6.301   4.611
  271POPC   C2B 3803   2.678   6.180   5.002
  271POPC   C3B 3804   2.548   6.263   5.418
  271POPC   C4B 3805   2.258   6.162   5.741
  272POPC   NC3 3806   6.944   3.076   4.116
  272POPC   PO4 3807   6.807   2.398   3.984
  272POPC   GL1 3808   7.079   2.568   4.334
  272POPC   GL2 3809   7.451   2.500   4.293
  272POPC   C1A 3810   7.081   2.786   4.771
  272POPC   D2A 3811   7.295   2.848   5.195
  272POPC   C3A 3812   7.124   2.785   5.640
  272POPC   C4A 3813   7.158   2.978   6.084
  272POPC   C1B 3814   7.393   2.360   4.719
  272POPC   C2B 3815   7.486   2.362   5.161
  272POPC   C3B 3816   7.610   2.486   5.575
  272POPC   C4B 3817   7.770   2.438   5.990
  273POPC   NC3 3818   1.943   9.741   3.556
  273POPC   PO4 3819   1.940  10.155   4.153
  273POPC   GL1 3820   2.075   9.785   4.407
  273POPC   GL2 3821   2.073   9.430   4.212
  273POPC   C1A 3822   1.985   9.736   4.807
  273POPC   D2A 3823   1.750   9.825   5.104
  273POPC   C3A 3824   1.968   9.669   5.388
  273POPC   C4A 3825   2.011   9.880   5.714
  273POPC   C1B 3826   2.032   9.269   4.607
  273POPC   C2B 3827   2.028   9.235   5.046
  273POPC   C3B 3828   1.782   9.196   5.406
  273POPC   C4B 3829   1.796   9.418   5.805
  274POPC   NC3 3830   7.270   8.839   3.876
  274POPC   PO4 3831   7.052   9.413   4.124
  274POPC   GL1 3832   7.305   9.135   4.431
  274POPC   GL2 3833   7.392   8.769   4.365
  274POPC   C1A 3834   7.303   8.993   4.887
  274POPC   D2A 3835   7.353   8.890   5.327
  274POPC   C3A 3836   7.101   9.087   5.685
  274POPC   C4A 3837   6.802   9.062   6.069
  274POPC   C1B 3838   7.714   8.850   4.637
  274POPC   C2B 3839   7.780   8.794   5.048
  274POPC   C3B 3840   7.815   8.721   5.482
  274POPC   C4B 3841   7.488   8.692   5.769
  275POPC   NC3 3842   2.783   1.230   3.727
  275POPC   PO4 3843   2.648   1.755   3.951
  275POPC   GL1 3844   2.719   1.501   4.295
  275POPC   GL2 3845   2.899   1.209   4.233
  275POPC   C1A 3846   2.531   1.411   4.697
  275POPC   D2A 3847   2.342   1.322   5.083
  275POPC   C3A 3848   2.303   1.536   5.445
  275POPC   C4A 3849   2.361   1.410   5.833
  275POPC   C1B 3850   3.021   1.220   4.667
  275POPC   C2B 3851   2.812   1.114   5.068
  275POPC   C3B 3852   2.708   1.211   5.509
  275POPC   C4B 3853   2.787   1.165   5.978
  276POPC   NC3 3854   3.730   2.564   4.019
  276POPC   PO4 3855   3.186   2.469   3.675
  276POPC   GL1 3856   3.131   2.602   4.197
  276POPC   GL2 3857   3.465   2.572   4.455
  276POPC   C1A 3858   3.017   2.510   4.670
  276POPC   D2A 3859   3.209   2.440   5.121
  276POPC   C3A 3860   3.232   2.643   5.557
  276POPC   C4A 3861   3.480   2.688   5.963
  276POPC   C1B 3862   3.365   2.859   4.826
  276POPC   C2B 3863   3.409   3.116   5.215
  276POPC   C3B 3864   3.496   3.096   5.665
  276POPC   C4B 3865   3.874   3.103   5.963
  277POPC   NC3 3866   8.910  10.912   3.417
  277POPC   PO4 3867   9.105  10.989   4.083
  277POPC   GL1 3868   8.901  11.137   4.393
  277POPC   GL2 3869   9.184  11.417   4.416
  277POPC   C1A 3870   8.761  10.904   4.758
  277POPC   D2A 3871   8.901  10.713   5.135
  277POPC   C3A 3872   8.679  10.731   5.518
  277POPC   C4A 3873   8.835  11.028   5.780
  277POPC   C1B 3874   9.158  11.215   4.818
  277POPC   C2B 3875   8.912  11.220   5.182
  277POPC   C3B 3876   9.022  11.422   5.544
  277POPC   C4B 3877   9.008   0.286   5.792
  278POPC   NC3 3878   6.340   2.557   4.030
  278POPC   PO4 3879   6.514   3.181   4.112
  278POPC   GL1 3880   6.615   2.798   4.424
  278POPC   GL2 3881   6.577   2.416   4.448
  278POPC   C1A 3882   6.584   2.706   4.889
  278POPC   D2A 3883   6.775   2.902   5.248
  278POPC   C3A 3884   6.568   2.933   5.655
  278POPC   C4A 3885   6.651   3.133   6.054
  278POPC   C1B 3886   6.881   2.310   4.747
  278POPC   C2B 3887   6.974   2.435   5.166
  278POPC   C3B 3888   6.717   2.465   5.530
  278POPC   C4B 3889   6.352   2.479   5.828
  279POPC   NC3 3890   0.408   2.820   3.699
  279POPC   PO4 3891   0.141   3.104   4.162
  279POPC   GL1 3892   0.518   2.903   4.356
  279POPC   GL2 3893   0.506   2.512   4.416
  279POPC   C1A 3894   0.637   2.792   4.801
  279POPC   D2A 3895   0.515   2.794   5.205
  279POPC   C3A 3896   0.765   2.998   5.484
  279POPC   C4A 3897   0.682   2.785   5.823
  279POPC   C1B 3898   0.223   2.367   4.799
  279POPC   C2B 3899   0.095   2.498   5.196
  279POPC   C3B 3900   0.168   2.704   5.579
  279POPC   C4B 3901   0.256   2.516   5.964
  280POPC   NC3 3902  11.104   3.618   3.780
  280POPC   PO4 3903  11.496   3.125   3.619
  280POPC   GL1 3904  11.448   3.524   4.103
  280POPC   GL2 3905  11.136   3.482   4.270
  280POPC   C1A 3906  11.496   3.642   4.613
  280POPC   D2A 3907   0.001   3.388   5.022
  280POPC   C3A 3908   0.007   3.589   5.395
  280POPC   C4A 3909  11.342   3.515   5.809
  280POPC   C1B 3910  11.004   3.692   4.618
  280POPC   C2B 3911  11.033   3.531   4.997
  280POPC   C3B 3912  11.006   3.501   5.400
  280POPC   C4B 3913  10.766   3.780   5.579
  281POPC   NC3 3914   3.340  10.160   4.143
  281POPC   PO4 3915   3.709  10.741   4.095
  281POPC   GL1 3916   3.401  10.635   4.393
  281POPC   GL2 3917   3.402  10.359   4.597
  281POPC   C1A 3918   3.268  10.827   4.749
  281POPC   D2A 3919   3.378  10.623   5.103
  281POPC   C3A 3920   3.265  10.710   5.516
  281POPC   C4A 3921   3.364  10.528   5.935
  281POPC   C1B 3922   3.697  10.148   4.793
  281POPC   C2B 3923   3.507  10.131   5.126
  281POPC   C3B 3924   3.565  10.301   5.492
  281POPC   C4B 3925   3.790  10.186   5.819
  282POPC   NC3 3926   3.741   0.075   4.074
  282POPC   PO4 3927   3.916   0.693   3.952
  282POPC   GL1 3928   3.715   0.571   4.314
  282POPC   GL2 3929   3.392   0.454   4.238
  282POPC   C1A 3930   3.843   0.329   4.682
  282POPC   D2A 3931   3.695   0.004   4.998
  282POPC   C3A 3932   3.616   0.145   5.435
  282POPC   C4A 3933   3.711   0.290   5.855
  282POPC   C1B 3934   3.326   0.300   4.671
  282POPC   C2B 3935   3.502   0.504   5.058
  282POPC   C3B 3936   3.428   0.653   5.496
  282POPC   C4B 3937   3.192   0.355   5.756
  283POPC   NC3 3938   4.088   9.613   3.979
  283POPC   PO4 3939   4.787   9.360   3.991
  283POPC   GL1 3940   4.538   9.464   4.392
  283POPC   GL2 3941   4.215   9.633   4.458
  283POPC   C1A 3942   4.496   9.577   4.860
  283POPC   D2A 3943   4.711   9.449   5.252
  283POPC   C3A 3944   4.524   9.479   5.686
  283POPC   C4A 3945   4.605   9.640   6.139
  283POPC   C1B 3946   3.971   9.718   4.809
  283POPC   C2B 3947   3.908   9.850   5.207
  283POPC   C3B 3948   3.992   9.752   5.600
  283POPC   C4B 3949   4.327   9.935   5.801
  284POPC   NC3 3950  10.302  10.232   3.934
  284POPC   PO4 3951   9.984  10.799   4.051
  284POPC   GL1 3952  10.237  10.572   4.324
  284POPC   GL2 3953  10.576  10.415   4.324
  284POPC   C1A 3954  10.357  10.680   4.721
  284POPC   D2A 3955  10.372  10.477   5.085
  284POPC   C3A 3956  10.331  10.770   5.357
  284POPC   C4A 3957  10.452  10.805   5.729
  284POPC   C1B 3958  10.600  10.199   4.740
  284POPC   C2B 3959  10.658  10.073   5.191
  284POPC   C3B 3960  10.513  10.292   5.555
  284POPC   C4B 3961  10.846  10.204   5.786
  285POPC   NC3 3962   0.941   5.030   3.961
  285POPC   PO4 3963   0.361   5.389   3.984
  285POPC   GL1 3964   0.738   5.374   4.334
  285POPC   GL2 3965   1.102   5.210   4.404
  285POPC   C1A 3966   0.877   5.493   4.749
  285POPC   D2A 3967   1.137   5.194   4.983
  285POPC   C3A 3968   1.204   5.234   5.433
  285POPC   C4A 3969   0.887   5.093   5.701
  285POPC   C1B 3970   1.344   4.878   4.625
  285POPC   C2B 3971   1.444   4.792   5.082
  285POPC   C3B 3972   1.348   4.732   5.536
  285POPC   C4B 3973   1.531   4.978   5.860
  286POPC   NC3 3974   7.201   9.828   4.008
  286POPC   PO4 3975   7.900   9.886   3.888
  286POPC   GL1 3976   7.660   9.968   4.329
  286POPC   GL2 3977   7.452   9.667   4.407
  286POPC   C1A 3978   7.664   9.863   4.822
  286POPC   D2A 3979   7.334   9.889   5.160
  286POPC   C3A 3980   7.479  10.009   5.586
  286POPC   C4A 3981   7.485   9.703   5.889
  286POPC   C1B 3982   7.278   9.505   4.816
  286POPC   C2B 3983   7.284   9.391   5.269
  286POPC   C3B 3984   7.086   9.618   5.575
  286POPC   C4B 3985   6.685   9.499   5.754
  287POPC   NC3 3986   7.424   0.278   3.817
  287POPC   PO4 3987   7.720   0.902   3.877
  287POPC   GL1 3988   7.759   0.690   4.273
  287POPC   GL2 3989   7.442   0.522   4.279
  287POPC   C1A 3990   7.742   0.490   4.725
  287POPC   D2A 3991   7.733   0.259   5.194
  287POPC   C3A 3992   7.674   0.600   5.563
  287POPC   C4A 3993   7.720   0.682   6.069
  287POPC   C1B 3994   7.218   0.597   4.652
  287POPC   C2B 3995   7.357   0.574   5.069
  287POPC   C3B 3996   7.257   0.328   5.415
  287POPC   C4B 3997   7.095   0.643   5.674
  288POPC   NC3 3998   5.216   9.116   4.029
  288POPC   PO4 3999   4.885   8.589   3.839
  288POPC   GL1 4000   4.791   8.710   4.284
  288POPC   GL2 4001   4.848   9.029   4.363
  288POPC   C1A 4002   4.671   8.559   4.716
  288POPC   D2A 4003   4.937   8.569   5.104
  288POPC   C3A 4004   4.887   8.670   5.547
  288POPC   C4A 4005   5.023   8.754   5.995
  288POPC   C1B 4006   5.049   8.895   4.729
  288POPC   C2B 4007   5.049   9.062   5.171
  288POPC   C3B 4008   4.998   9.189   5.605
  288POPC   C4B 4009   5.364   9.128   5.859
  289POPC   NC3 4010   5.044   1.254   3.885
  289POPC   PO4 4011   4.621   0.734   4.077
  289POPC   GL1 4012   4.854   0.772   4.427
  289POPC   GL2 4013   5.080   1.019   4.347
  289POPC   C1A 4014   4.954   0.789   4.854
  289POPC   D2A 4015   5.053   1.086   5.093
  289POPC   C3A 4016   4.946   0.937   5.443
  289POPC   C4A 4017   5.087   0.808   5.827
  289POPC   C1B 4018   5.139   1.394   4.652
  289POPC   C2B 4019   4.937   1.566   5.049
  289POPC   C3B 4020   5.112   1.480   5.471
  289POPC   C4B 4021   5.440   1.509   5.762
  290POPC   NC3 4022   4.344   7.506   4.206
  290POPC   PO4 4023   3.776   7.606   4.241
  290POPC   GL1 4024   4.001   7.378   4.565
  290POPC   GL2 4025   4.153   7.071   4.436
  290POPC   C1A 4026   4.089   7.465   4.985
  290POPC   D2A 4027   4.240   7.796   5.249
  290POPC   C3A 4028   4.185   7.651   5.661
  290POPC   C4A 4029   3.934   7.282   5.758
  290POPC   C1B 4030   4.441   7.133   4.799
  290POPC   C2B 4031   4.530   7.331   5.210
  290POPC   C3B 4032   4.450   7.196   5.633
  290POPC   C4B 4033   4.218   6.862   5.869
  291POPC   NC3 4034   0.488   0.596   3.890
  291POPC   PO4 4035   0.035   0.057   3.884
  291POPC   GL1 4036   0.137   0.110   4.366
  291POPC   GL2 4037   0.345   0.431   4.348
  291POPC   C1A 4038   0.530   0.122   4.683
  291POPC   D2A 4039   0.767   0.300   5.030
  291POPC   C3A 4040   0.676   0.134   5.453
  291POPC   C4A 4041   0.954   0.222   5.782
  291POPC   C1B 4042   0.581   0.647   4.688
  291POPC   C2B 4043   0.362   0.658   5.110
  291POPC   C3B 4044   0.428   0.575   5.572
  291POPC   C4B 4045   0.371   0.633   6.016
  292POPC   NC3 4046  10.381   2.230   3.514
  292POPC   PO4 4047  10.186   1.645   3.879
  292POPC   GL1 4048  10.150   2.002   4.168
  292POPC   GL2 4049  10.454   2.194   4.248
  292POPC   C1A 4050  10.116   2.041   4.629
  292POPC   D2A 4051  10.323   1.878   4.997
  292POPC   C3A 4052  10.148   2.020   5.381
  292POPC   C4A 4053  10.147   2.162   5.771
  292POPC   C1B 4054  10.489   1.737   4.476
  292POPC   C2B 4055  10.735   1.622   4.858
  292POPC   C3B 4056  10.700   1.601   5.337
  292POPC   C4B 4057  10.427   1.724   5.720
  293POPC   NC3 4058   1.364   1.729   4.103
  293POPC   PO4 4059   1.475   2.250   3.806
  293POPC   GL1 4060   1.396   2.268   4.265
  293POPC   GL2 4061   1.058   2.142   4.273
  293POPC   C1A 4062   1.487   2.246   4.739
  293POPC   D2A 4063   1.668   2.242   5.183
  293POPC   C3A 4064   1.402   2.022   5.504
  293POPC   C4A 4065   1.322   2.035   5.947
  293POPC   C1B 4066   1.109   1.899   4.677
  293POPC   C2B 4067   1.085   2.058   5.080
  293POPC   C3B 4068   0.868   1.940   5.435
  293POPC   C4B 4069   1.038   1.672   5.752
  294POPC   NC3 4070   0.447  10.516   3.737
  294POPC   PO4 4071   0.819  10.156   4.074
  294POPC   GL1 4072   0.708  10.529   4.285
  294POPC   GL2 4073   0.356  10.580   4.248
  294POPC   C1A 4074   0.706  10.634   4.709
  294POPC   D2A 4075   0.713  10.274   4.978
  294POPC   C3A 4076   0.705  10.425   5.357
  294POPC   C4A 4077   0.651  10.337   5.760
  294POPC   C1B 4078   0.326  10.307   4.628
  294POPC   C2B 4079   0.162  10.400   5.056
  294POPC   C3B 4080   0.216  10.438   5.512
  294POPC   C4B 4081   0.200  10.281   5.962
  295POPC   NC3 4082   2.908   2.821   3.763
  295POPC   PO4 4083   2.385   2.433   3.860
  295POPC   GL1 4084   2.608   2.536   4.205
  295POPC   GL2 4085   2.649   2.836   4.346
  295POPC   C1A 4086   2.516   2.425   4.604
  295POPC   D2A 4087   2.583   2.661   4.951
  295POPC   C3A 4088   2.723   2.440   5.311
  295POPC   C4A 4089   2.694   2.563   5.744
  295POPC   C1B 4090   2.877   3.004   4.701
  295POPC   C2B 4091   2.962   2.895   5.154
  295POPC   C3B 4092   2.873   3.018   5.561
  295POPC   C4B 4093   3.014   2.939   5.976
  296POPC   NC3 4094   1.166  10.990   3.959
  296POPC   PO4 4095   0.871   0.139   4.000
  296POPC   GL1 4096   1.048  11.369   4.323
  296POPC   GL2 4097   1.103  11.027   4.462
  296POPC   C1A 4098   1.090  11.431   4.762
  296POPC   D2A 4099   1.358  11.301   5.090
  296POPC   C3A 4100   1.134  11.380   5.442
  296POPC   C4A 4101   0.985  11.193   5.817
  296POPC   C1B 4102   1.444  10.831   4.728
  296POPC   C2B 4103   1.556  10.822   5.188
  296POPC   C3B 4104   1.379  10.955   5.570
  296POPC   C4B 4105   1.406  10.884   6.006
  297POPC   NC3 4106   9.939   8.105   4.119
  297POPC   PO4 4107   9.321   7.862   3.921
  297POPC   GL1 4108   9.530   7.851   4.299
  297POPC   GL2 4109   9.458   8.213   4.320
  297POPC   C1A 4110   9.690   7.775   4.721
  297POPC   D2A 4111   9.835   7.585   5.143
  297POPC   C3A 4112   9.605   7.797   5.480
  297POPC   C4A 4113   9.720   8.180   5.660
  297POPC   C1B 4114   9.448   8.347   4.757
  297POPC   C2B 4115   9.465   8.197   5.193
  297POPC   C3B 4116   9.235   8.281   5.580
  297POPC   C4B 4117   9.067   8.192   5.998
  298POPC   NC3 4118   6.506  11.407   3.954
  298POPC   PO4 4119   6.484  10.768   3.963
  298POPC   GL1 4120   6.566  10.996   4.344
  298POPC   GL2 4121   6.526  11.360   4.440
  298POPC   C1A 4122   6.442  10.961   4.760
  298POPC   D2A 4123   6.617  11.068   5.135
  298POPC   C3A 4124   6.371  10.914   5.452
  298POPC   C4A 4125   6.539  10.922   5.870
  298POPC   C1B 4126   6.467  11.474   4.829
  298POPC   C2B 4127   6.508   0.051   5.193
  298POPC   C3B 4128   6.562  11.377   5.570
  298POPC   C4B 4129   6.409   0.124   5.918
  299POPC   NC3 4130  11.089   6.911   3.921
  299POPC   PO4 4131  10.927   6.226   3.756
  299POPC   GL1 4132  10.978   6.482   4.209
  299POPC   GL2 4133  11.215   6.686   4.332
  299POPC   C1A 4134  10.886   6.546   4.702
  299POPC   D2A 4135  10.735   6.403   5.133
  299POPC   C3A 4136  10.860   6.644   5.534
  299POPC   C4A 4137  10.954   6.479   5.980
  299POPC   C1B 4138  11.390   6.519   4.682
  299POPC   C2B 4139   0.022   6.488   5.077
  299POPC   C3B 4140  11.359   6.584   5.436
  299POPC   C4B 4141  11.344   6.768   5.823
  300POPC   NC3 4142   0.024   1.182   3.851
  300POPC   PO4 4143  10.874   0.993   3.872
  300POPC   GL1 4144  11.135   0.949   4.226
  300POPC   GL2 4145  11.408   1.177   4.330
  300POPC   C1A 4146  11.063   0.933   4.672
  300POPC   D2A 4147  10.987   1.224   5.025
  300POPC   C3A 4148  10.996   1.150   5.462
  300POPC   C4A 4149  11.086   0.905   5.834
  300POPC   C1B 4150  11.373   1.390   4.708
  300POPC   C2B 4151  11.382   1.555   5.126
  300POPC   C3B 4152  11.446   1.397   5.557
  300POPC   C4B 4153  11.313   1.325   6.007
  301POPC   NC3 4154  10.747   5.223   3.957
  301POPC   PO4 4155  10.285   4.821   3.785
  301POPC   GL1 4156  10.269   4.873   4.253
  301POPC   GL2 4157  10.435   5.175   4.399
  301POPC   C1A 4158  10.285   4.814   4.728
  301POPC   D2A 4159  10.154   4.718   5.165
  301POPC   C3A 4160  10.424   4.718   5.558
  301POPC   C4A 4161  10.221   4.889   5.951
  301POPC   C1B 4162  10.603   5.221   4.835
  301POPC   C2B 4163  10.563   5.123   5.250
  301POPC   C3B 4164  10.242   5.222   5.535
  301POPC   C4B 4165  10.268   5.409   5.919
  302POPC   NC3 4166   9.598   0.985   3.950
  302POPC   PO4 4167   9.316   1.546   3.946
  302POPC   GL1 4168   9.512   1.392   4.325
  302POPC   GL2 4169   9.417   1.040   4.420
  302POPC   C1A 4170   9.487   1.390   4.781
  302POPC   D2A 4171   9.700   1.223   5.121
  302POPC   C3A 4172   9.468   1.180   5.517
  302POPC   C4A 4173   9.484   1.332   5.947
  302POPC   C1B 4174   9.847   1.013   4.621
  302POPC   C2B 4175  10.073   0.843   4.986
  302POPC   C3B 4176  10.040   1.002   5.422
  302POPC   C4B 4177   9.812   0.960   5.836
  303POPC   NC3 4178   9.514  10.778   4.038
  303POPC   PO4 4179   9.859  10.190   3.806
  303POPC   GL1 4180   9.900  10.106   4.249
  303POPC   GL2 4181   9.733  10.412   4.324
  303POPC   C1A 4182  10.077  10.236   4.665
  303POPC   D2A 4183   9.879  10.529   4.969
  303POPC   C3A 4184   9.980  10.384   5.400
  303POPC   C4A 4185   9.964  10.587   5.784
  303POPC   C1B 4186   9.536  10.207   4.664
  303POPC   C2B 4187   9.416  10.322   5.097
  303POPC   C3B 4188   9.506  10.504   5.505
  303POPC   C4B 4189   9.511  10.373   5.920
  304POPC   NC3 4190   6.651   1.664   3.704
  304POPC   PO4 4191   6.298   1.190   3.856
  304POPC   GL1 4192   6.528   1.068   4.326
  304POPC   GL2 4193   6.872   0.826   4.339
  304POPC   C1A 4194   6.539   1.232   4.797
  304POPC   D2A 4195   6.699   1.480   5.190
  304POPC   C3A 4196   6.532   1.637   5.635
  304POPC   C4A 4197   6.687   1.637   6.084
  304POPC   C1B 4198   6.713   0.750   4.733
  304POPC   C2B 4199   6.765   0.912   5.159
  304POPC   C3B 4200   6.649   0.866   5.563
  304POPC   C4B 4201   6.471   1.162   5.827
  305POPC   NC3 4202  10.993   0.520   3.953
  305POPC   PO4 4203   0.088   0.759   4.055
  305POPC   GL1 4204  11.306   0.495   4.381
  305POPC   GL2 4205  10.921   0.461   4.457
  305POPC   C1A 4206  11.249   0.485   4.851
  305POPC   D2A 4207  11.337   0.861   5.098
  305POPC   C3A 4208  11.452   0.843   5.483
  305POPC   C4A 4209  11.438   0.559   5.784
  305POPC   C1B 4210  10.740   0.208   4.843
  305POPC   C2B 4211  10.824   0.174   5.232
  305POPC   C3B 4212  11.161   0.382   5.384
  305POPC   C4B 4213  10.951   0.417   5.728
  306POPC   NC3 4214   0.748   9.732   3.918
  306POPC   PO4 4215   0.326   9.294   3.946
  306POPC   GL1 4216   0.592   9.194   4.325
  306POPC   GL2 4217   0.796   9.511   4.411
  306POPC   C1A 4218   0.594   9.210   4.801
  306POPC   D2A 4219   0.705   9.502   5.157
  306POPC   C3A 4220   0.604   9.437   5.602
  306POPC   C4A 4221   0.322   9.548   5.923
  306POPC   C1B 4222   0.596   9.815   4.730
  306POPC   C2B 4223   0.371   9.922   5.140
  306POPC   C3B 4224   0.420   9.931   5.592
  306POPC   C4B 4225   0.656   9.907   6.016
  307POPC   NC3 4226  10.784   6.033   4.155
  307POPC   PO4 4227  10.189   5.811   3.892
  307POPC   GL1 4228  10.458   5.657   4.238
  307POPC   GL2 4229  10.289   5.888   4.416
  307POPC   C1A 4230  10.685   5.696   4.685
  307POPC   D2A 4231  10.835   5.830   5.096
  307POPC   C3A 4232  10.557   5.715   5.400
  307POPC   C4A 4233  10.539   5.862   5.823
  307POPC   C1B 4234  10.192   5.560   4.720
  307POPC   C2B 4235  10.105   5.588   5.171
  307POPC   C3B 4236  10.075   5.772   5.600
  307POPC   C4B 4237  10.099   6.124   5.961
  308POPC   NC3 4238  10.642  11.294   3.907
  308POPC   PO4 4239   9.959  11.442   3.674
  308POPC   GL1 4240  10.139  11.357   4.136
  308POPC   GL2 4241  10.377  11.072   4.272
  308POPC   C1A 4242  10.095  11.303   4.633
  308POPC   D2A 4243   9.982  11.366   5.106
  308POPC   C3A 4244  10.206  11.250   5.476
  308POPC   C4A 4245  10.085  11.099   5.889
  308POPC   C1B 4246  10.641  11.117   4.653
  308POPC   C2B 4247  10.518  11.264   5.053
  308POPC   C3B 4248  10.715  11.177   5.448
  308POPC   C4B 4249  10.579  11.293   5.839
  309POPC   NC3 4250   0.622   4.067   3.948
  309POPC   PO4 4251   0.234   4.571   4.054
  309POPC   GL1 4252   0.269   4.274   4.328
  309POPC   GL2 4253   0.591   4.266   4.404
  309POPC   C1A 4254   0.209   4.121   4.707
  309POPC   D2A 4255   0.157   4.343   5.063
  309POPC   C3A 4256   0.243   4.139   5.428
  309POPC   C4A 4257   0.217   4.380   5.785
  309POPC   C1B 4258   0.497   4.540   4.737
  309POPC   C2B 4259   0.651   4.281   5.066
  309POPC   C3B 4260   0.835   4.041   5.380
  309POPC   C4B 4261   0.654   4.107   5.780
  310POPC   NC3 4262   9.941   4.579   3.633
  310POPC   PO4 4263   9.385   4.404   3.970
  310POPC   GL1 4264   9.751   4.470   4.254
  310POPC   GL2 4265   9.797   4.166   4.453
  310POPC   C1A 4266   9.799   4.595   4.717
  310POPC   D2A 4267   9.799   4.311   5.103
  310POPC   C3A 4268   9.697   4.492   5.511
  310POPC   C4A 4269   9.705   4.723   5.934
  310POPC   C1B 4270   9.452   4.200   4.731
  310POPC   C2B 4271   9.239   4.270   5.139
  310POPC   C3B 4272   9.264   4.131   5.561
  310POPC   C4B 4273   9.391   4.331   5.900
  311POPC   NC3 4274   6.359  10.357   4.111
  311POPC   PO4 4275   6.960  10.225   3.923
  311POPC   GL1 4276   6.834  10.548   4.282
  311POPC   GL2 4277   6.521  10.500   4.548
  311POPC   C1A 4278   6.902  10.728   4.739
  311POPC   D2A 4279   6.653  10.570   5.126
  311POPC   C3A 4280   6.827  10.650   5.564
  311POPC   C4A 4281   6.761  10.425   6.002
  311POPC   C1B 4282   6.139  10.517   4.833
  311POPC   C2B 4283   6.086  10.486   5.302
  311POPC   C3B 4284   6.352  10.449   5.686
  311POPC   C4B 4285   6.265  10.361   6.129
  312POPC   NC3 4286   8.204   0.600   3.927
  312POPC   PO4 4287   7.834   0.025   3.819
  312POPC   GL1 4288   7.941   0.190   4.265
  312POPC   GL2 4289   8.275   0.340   4.344
  312POPC   C1A 4290   8.053   0.094   4.725
  312POPC   D2A 4291   8.355   0.078   5.070
  312POPC   C3A 4292   8.131   0.083   5.504
  312POPC   C4A 4293   7.956   0.290   5.846
  312POPC   C1B 4294   8.321   0.525   4.743
  312POPC   C2B 4295   8.129   0.540   5.079
  312POPC   C3B 4296   8.238   0.570   5.473
  312POPC   C4B 4297   8.119   0.801   5.777
  313POPC   NC3 4298   8.207   1.266   3.923
  313POPC   PO4 4299   8.490   0.823   4.216
  313POPC   GL1 4300   8.161   1.024   4.402
  313POPC   GL2 4301   8.159   1.398   4.411
  313POPC   C1A 4302   8.216   1.113   4.833
  313POPC   D2A 4303   8.213   1.006   5.236
  313POPC   C3A 4304   8.420   1.155   5.562
  313POPC   C4A 4305   8.254   1.492   5.743
  313POPC   C1B 4306   7.819   1.417   4.721
  313POPC   C2B 4307   7.677   1.240   5.105
  313POPC   C3B 4308   7.808   1.124   5.507
  313POPC   C4B 4309   7.857   1.202   5.931
  314POPC   NC3 4310   9.343   3.427   4.034
  314POPC   PO4 4311   8.612   3.162   4.034
  314POPC   GL1 4312   8.929   3.290   4.358
  314POPC   GL2 4313   8.952   3.636   4.407
  314POPC   C1A 4314   8.874   3.362   4.837
  314POPC   D2A 4315   8.970   3.259   5.275
  314POPC   C3A 4316   8.722   3.292   5.694
  314POPC   C4A 4317   8.811   3.521   6.084
  314POPC   C1B 4318   9.130   3.809   4.822
  314POPC   C2B 4319   9.033   3.773   5.264
  314POPC   C3B 4320   8.799   3.907   5.645
  314POPC   C4B 4321   8.972   4.025   6.036
  315POPC   NC3 4322   6.758  10.550   3.674
  315POPC   PO4 4323   7.428  10.590   3.684
  315POPC   GL1 4324   7.365  10.349   4.176
  315POPC   GL2 4325   7.304  10.578   4.466
  315POPC   C1A 4326   7.247  10.112   4.619
  315POPC   D2A 4327   7.122  10.348   5.011
  315POPC   C3A 4328   7.039  10.204   5.453
  315POPC   C4A 4329   7.228  10.415   5.826
  315POPC   C1B 4330   7.626  10.439   4.738
  315POPC   C2B 4331   7.619  10.298   5.119
  315POPC   C3B 4332   7.553  10.518   5.446
  315POPC   C4B 4333   7.732  10.452   5.814
  316POPC   NC3 4334   1.390   2.694   3.841
  316POPC   PO4 4335   0.872   3.037   3.935
  316POPC   GL1 4336   0.983   2.675   4.223
  316POPC   GL2 4337   1.301   2.782   4.326
  316POPC   C1A 4338   1.021   2.460   4.659
  316POPC   D2A 4339   1.229   2.569   5.062
  316POPC   C3A 4340   0.963   2.516   5.419
  316POPC   C4A 4341   0.914   2.297   5.801
  316POPC   C1B 4342   1.084   2.965   4.666
  316POPC   C2B 4343   1.128   3.077   5.115
  316POPC   C3B 4344   1.291   2.897   5.506
  316POPC   C4B 4345   1.376   2.495   5.708
  317POPC   NC3 4346   9.738   1.742   3.975
  317POPC   PO4 4347   9.279   2.274   3.902
  317POPC   GL1 4348   9.499   2.203   4.249
  317POPC   GL2 4349   9.310   1.902   4.304
  317POPC   C1A 4350   9.511   2.315   4.692
  317POPC   D2A 4351   9.426   2.044   5.061
  317POPC   C3A 4352   9.579   2.160   5.482
  317POPC   C4A 4353   9.452   2.261   5.932
  317POPC   C1B 4354   9.635   1.845   4.610
  317POPC   C2B 4355   9.824   1.744   5.005
  317POPC   C3B 4356   9.658   1.658   5.425
  317POPC   C4B 4357   9.717   1.822   5.844
  318POPC   NC3 4358   3.343   5.839   3.767
  318POPC   PO4 4359   3.604   5.348   3.799
  318POPC   GL1 4360   3.476   5.097   4.209
  318POPC   GL2 4361   3.162   4.881   4.242
  318POPC   C1A 4362   3.646   5.055   4.662
  318POPC   D2A 4363   3.756   5.217   5.099
  318POPC   C3A 4364   3.432   5.181   5.440
  318POPC   C4A 4365   3.426   4.916   5.816
  318POPC   C1B 4366   3.235   4.757   4.691
  318POPC   C2B 4367   3.492   4.771   5.096
  318POPC   C3B 4368   3.800   4.827   5.452
  318POPC   C4B 4369   3.882   4.613   5.840
  319W        W 4370  11.243  10.748   8.540
  320W        W 4371   8.595   4.360   3.145
  321W        W 4372   5.750   3.538   8.136
  322W        W 4373   6.758   6.835  11.800
  323W        W 4374   7.638   8.420   9.832
  324W        W 4375   2.191   9.644   8.665
  325W        W 4376   5.976   3.863   8.570
  326W        W 4377   0.942   5.084   2.227
  327W        W 4378   3.673   0.812   3.115
  328W        W 4379   9.296   0.774  11.218
  329W        W 4380   7.621   6.102   8.367
  330W        W 4381   8.679   5.489   8.643
  331W        W 4382  10.951   9.100   9.091
  332W        W 4383   9.775   9.394   9.113
  333W        W 4384  10.456   6.553   2.974
  334W        W 4385   7.774  10.876   2.313
  335W        W 4386  10.251   6.658  10.846
  336W        W 4387   7.488   1.368   0.143
  337W        W 4388   5.114   6.444   0.870
  338W        W 4389   0.746   4.364  11.641
  339W        W 4390   0.133   8.135  10.787
  340W        W 4391   7.980   2.324   2.929
  341W        W 4392   4.067  10.748  11.506
  342W        W 4393   3.175   7.616   9.989
  343W        W 4394   1.449   0.912   1.904
  344W        W 4395   9.695   6.606   9.992
  345W        W 4396   7.233   8.027   0.761
  346W        W 4397  10.992   5.448  10.536
  347W        W 4398   6.673   0.759   1.757
  348W        W 4399   3.236   7.054   1.782
  349W        W 4400   5.535   3.600   9.485
  350W        W 4401   1.843   9.473  11.788
  351W        W 4402   4.761   2.835   0.532
  352W        W 4403  10.015  11.433   3.173
  353W        W 4404   8.605   3.406   2.185
  354W        W 4405   1.520   7.587  10.014
  355W        W 4406   0.401   8.514  11.535
  356W        W 4407   0.945   6.971   8.270
  357W        W 4408   2.462   9.922   0.355
  358W        W 4409   6.410   3.614   8.759
  359W        W 4410   7.533   9.513   9.012
  360W        W 4411  10.643   5.079  11.969
  361W        W 4412   6.136   8.450  10.405
  362W        W 4413   1.094   1.398   9.786
  363W        W 4414   6.518   2.923  11.640
  364W        W 4415   2.297  10.840   1.368
  365W        W 4416   1.824   5.525   2.482
  366W        W 4417   9.398   8.822   3.021
  367W        W 4418   4.636  10.769   2.774
  368W        W 4419   5.207   5.456   1.818
  369W        W 4420   8.466   6.933   3.048
  370W        W 4421   7.621   6.574   9.487
  371W        W 4422   5.593   2.619   1.489
  372W        W 4423  11.114  10.529   2.889
  373W        W 4424   7.691   9.429   3.593
  374W        W 4425   5.569   6.655  10.536
  375W        W 4426   1.394   9.929   0.484
  376W        W 4427   9.856   4.747   0.724
  377W        W 4428   7.601   5.204  10.103
  378W        W 4429   2.234   3.691   2.327
  379W        W 4430   1.459   8.125   2.728
  380W        W 4431   3.750   3.733   1.270
  381W        W 4432   9.344   2.429   2.469
  382W        W 4433   5.151   3.227   1.339
  383W        W 4434   5.659   0.359  11.107
  384W        W 4435   5.395   6.059   9.834
  385W        W 4436   4.832   1.160   3.105
  386W        W 4437   9.415   4.625  11.953
  387W        W 4438   4.964  10.555  10.437
  388W        W 4439   8.638   9.891   2.579
  389W        W 4440  11.232   2.681   8.827
  390W        W 4441   2.682   5.915   1.840
  391W        W 4442   2.960   8.038   9.266
  392W        W 4443   2.724   1.972  11.762
  393W        W 4444   0.857   9.347   2.629
  394W        W 4445   5.391   4.457   3.927
  395W        W 4446   2.710   8.617   3.245
  396W        W 4447   1.713   7.926   3.536
  397W        W 4448   5.174   3.655   1.856
  398W        W 4449   6.949   7.568   1.319
  399W        W 4450   3.193   7.442   2.567
  400W        W 4451   3.781   0.474  10.685
  401W        W 4452  11.401   2.577  10.864
  402W        W 4453   5.374  10.841  10.586
  403W        W 4454   1.451   9.158   0.639
  404W        W 4455   8.684  10.523  11.738
  405W        W 4456   4.978   2.401   8.148
  406W        W 4457   3.118   6.620   1.494
  407W        W 4458   0.225   6.565  11.498
  408W        W 4459   3.318   4.759  11.055
  409W        W 4460  10.357   4.142   1.248
  410W        W 4461   3.571   5.544  11.289
  411W        W 4462   5.941  10.428  10.963
  412W        W 4463   7.605   5.078  11.924
  413W        W 4464   2.730   9.171   3.472
  414W        W 4465   6.468  10.153   3.568
  415W        W 4466   3.306   3.395   0.458
  416W        W 4467   8.207   9.065  11.258
  417W        W 4468   2.335   2.265   9.141
  418W        W 4469   8.994   5.391  11.556
  419W        W 4470   5.256   2.624  10.772
  420W        W 4471   9.994   6.642   2.760
  421W        W 4472   6.956   4.640  10.748
  422W        W 4473   4.281   6.988   0.714
  423W        W 4474  11.312   6.076  10.403
  424W        W 4475   1.282   6.475   0.176
  425W        W 4476   9.046   8.886   0.530
  426W        W 4477   6.450   4.035   9.149
  427W        W 4478   2.287   9.655  11.952
  428W        W 4479  10.981   7.468   1.453
  429W        W 4480  10.040  10.748  10.401
  430W        W 4481   3.937   0.161  11.107
  431W        W 4482   7.075   7.523   0.292
  432W        W 4483   7.821   0.849   2.622
  433W        W 4484   7.067   0.258  11.527
  434W        W 4485   8.606   2.246  11.875
  435W        W 4486   4.216   5.706   0.343
  436W        W 4487   4.254   3.751   1.382
  437W        W 4488   5.537   1.956   9.464
  438W        W 4489   8.436   7.133   1.657
  439W        W 4490   7.594   1.691   3.406
  440W        W 4491  10.014  10.831   1.311
  441W        W 4492   8.029   4.096   1.190
  442W        W 4493   5.605   9.657   9.429
  443W        W 4494   1.267   6.514   1.138
  444W        W 4495   9.460   7.916   2.887
  445W        W 4496   7.005  11.280   2.790
  446W        W 4497   5.462   4.164   2.246
  447W        W 4498   2.250   2.791   8.912
  448W        W 4499   0.943  10.886   9.855
  449W        W 4500   2.835   7.490   1.837
  450W        W 4501   4.221  11.119   3.438
  451W        W 4502   4.723   0.772  11.935
  452W        W 4503   7.662   3.652  10.451
  453W        W 4504  10.876   8.837   1.465
  454W        W 4505  10.503   0.578   1.405
  455W        W 4506   3.189   8.108   9.748
  456W        W 4507   3.142   1.647   2.483
  457W        W 4508   9.308   7.546  10.790
  458W        W 4509   2.984  11.205   2.231
  459W        W 4510   7.791   9.276  11.722
  460W        W 4511   9.539   2.608   0.450
  461W        W 4512   7.056   1.701   0.203
  462W        W 4513   4.153   8.757   8.949
  463W        W 4514   0.889   1.387   0.030
  464W        W 4515   7.163   8.876   3.160
  465W        W 4516   3.133   5.668   9.431
  466W        W 4517  10.011   7.100   0.493
  467W        W 4518   5.525   8.401   9.946
  468W        W 4519   0.657   0.940   0.256
  469W        W 4520   1.107   9.506   0.372
  470W        W 4521   7.082   4.313   0.879
  471W        W 4522   2.760  10.815   2.014
  472W        W 4523   4.327  10.773   0.028
  473W        W 4524   9.215  10.067  11.070
  474W        W 4525   3.187   6.461   8.901
  475W        W 4526   5.995   5.739  11.368
  476W        W 4527   5.924   6.047   9.817
  477W        W 4528   2.157   4.850   3.277
  478W        W 4529   9.574   1.063   9.612
  479W        W 4530  10.702   0.884  11.373
  480W        W 4531   4.718   0.641  11.037
  481W        W 4532   2.300   7.603   8.043
  482W        W 4533   2.461   4.835   8.329
  483W        W 4534   7.997   9.596   9.327
  484W        W 4535   3.752   2.551   8.697
  485W        W 4536   4.560   7.150  11.807
  486W        W 4537   3.838   9.035   8.595
  487W        W 4538   0.912   8.427   1.761
  488W        W 4539   9.456   6.515  10.427
  489W        W 4540   3.058   7.133   9.518
  490W        W 4541   5.082  10.726   9.951
  491W        W 4542   7.042   1.841  10.854
  492W        W 4543   5.107   2.336   3.230
  493W        W 4544   2.286   7.179   9.877
  494W        W 4545   3.136   1.815   3.772
  495W        W 4546   7.959   6.087   3.223
  496W        W 4547  11.479   3.420   2.729
  497W        W 4548   5.944   6.457   0.372
  498W        W 4549   4.101  11.245   2.147
  499W        W 4550   0.923   2.710   1.222
  500W        W 4551   5.512   2.722   3.257
  501W        W 4552   4.862   4.338   0.882
  502W        W 4553   9.720   3.362  10.676
  503W        W 4554   5.166   9.830   2.222
  504W        W 4555   6.121  10.815  10.011
  505W        W 4556   1.449   3.334   1.485
  506W        W 4557   7.233   0.848   9.299
  507W        W 4558   0.829   6.538   1.394
  508W        W 4559   9.862   8.475   0.658
  509W        W 4560   1.656   4.027   9.660
  510W        W 4561   4.495   5.297  11.225
  511W        W 4562  10.544  10.055   2.236
  512W        W 4563  11.414   4.708  11.890
  513W        W 4564   8.190   5.483   8.469
  514W        W 4565  10.851   9.347   1.556
  515W        W 4566   1.203   2.771   2.969
  516W        W 4567   7.431   6.578   8.501
  517W        W 4568   0.054   4.826   0.362
  518W        W 4569   2.760   8.569   0.369
  519W        W 4570   2.629   4.650   1.942
  520W        W 4571   4.649  10.231   0.928
  521W        W 4572   3.884   1.735   2.165
  522W        W 4573   7.547   2.397   2.676
  523W        W 4574   2.337   6.961  10.810
  524W        W 4575   6.340   9.536   9.687
  525W        W 4576   6.185   5.078  10.845
  526W        W 4577   3.151   8.650   9.868
  527W        W 4578   8.249   4.816   3.608
  528W        W 4579   8.855   8.530  11.245
  529W        W 4580   3.300   8.091   0.372
  530W        W 4581   7.425   2.675   1.845
  531W        W 4582   6.740   0.805   9.238
  532W        W 4583   9.741   7.549   1.315
  533W        W 4584   8.450   6.091   3.434
  534W        W 4585   0.883   5.594   9.573
  535W        W 4586   1.800  11.009  10.273
  536W        W 4587   4.948   0.082  10.320
  537W        W 4588   8.546   6.643   2.169
  538W        W 4589   1.300   7.473  10.882
  539W        W 4590   0.320   1.672   0.775
  540W        W 4591   5.661   2.808  11.020
  541W        W 4592   5.545   2.314   3.584
  542W        W 4593   6.663   8.743  11.209
  543W        W 4594   3.555   0.999   1.286
  544W        W 4595   7.426   1.303   0.929
  545W        W 4596   7.340   6.149   0.341
  546W        W 4597   0.994   8.517   8.461
  547W        W 4598  11.440   5.188   3.368
  548W        W 4599   9.079   6.053   8.242
  549W        W 4600   3.893  10.791  11.006
  550W        W 4601   0.844   7.884   1.962
  551W        W 4602  10.526   9.915   1.270
  552W        W 4603   5.582   7.174   1.709
  553W        W 4604   7.625  10.075   0.098
  554W        W 4605   2.639   7.559   0.276
  555W        W 4606   9.882   6.493   2.289
  556W        W 4607  10.949   6.470   9.596
  557W        W 4608  10.035   3.336   1.369
  558W        W 4609   1.515  11.356  11.996
  559W        W 4610   7.737   1.933   2.547
  560W        W 4611   9.443   7.035  10.734
  561W        W 4612   0.400   1.164   0.699
  562W        W 4613   5.636   7.939   2.810
  563W        W 4614   6.113  11.318   2.666
  564W        W 4615   1.188   6.573   0.654
  565W        W 4616  10.813  11.290   1.147
  566W        W 4617   4.603   7.100   9.853
  567W        W 4618  11.474   2.589   3.202
  568W        W 4619   5.560   4.168   8.678
  569W        W 4620   2.274   9.214   2.776
  570W        W 4621   2.477   8.164  11.809
  571W        W 4622   9.044  10.502  10.826
  572W        W 4623   1.002   1.881  11.997
  573W        W 4624   1.348   8.674   1.941
  574W        W 4625   6.485   7.179   3.081
  575W        W 4626   4.876   1.994   1.403
  576W        W 4627   9.871   9.787  10.410
  577W        W 4628   9.604   6.786   9.206
  578W        W 4629   1.124   5.680   0.504
  579W        W 4630   5.826  10.456   9.445
  580W        W 4631   8.010   0.574  11.430
  581W        W 4632   9.184   2.133   3.437
  582W        W 4633   6.412   5.738   2.225
  583W        W 4634   1.831   2.211   9.274
  584W        W 4635   9.471   3.135   3.609
  585W        W 4636   4.322   2.631  11.098
  586W        W 4637   5.689   8.691   9.558
  587W        W 4638  10.875   6.758  11.962
  588W        W 4639   8.180  10.963   0.752
  589W        W 4640   1.312   8.998  11.494
  590W        W 4641   2.154   1.822   2.662
  591W        W 4642   2.645   0.347   2.841
  592W        W 4643   3.238   3.724   0.053
  593W        W 4644   4.629   6.155   3.515
  594W        W 4645   9.396   4.354   9.874
  595W        W 4646   4.284   7.966  10.333
  596W        W 4647   0.832   8.927   1.368
  597W        W 4648   7.387   3.137   9.467
  598W        W 4649   5.109   9.504   9.440
  599W        W 4650   3.037   6.053  11.940
  600W        W 4651   0.507   8.577   2.006
  601W        W 4652   4.303   7.177   8.874
  602W        W 4653   9.906   1.972   1.667
  603W        W 4654   0.812   3.524   3.083
  604W        W 4655   2.742   9.344   9.908
  605W        W 4656   7.391   4.853  10.495
  606W        W 4657   4.784   6.635   1.235
  607W        W 4658   7.382   1.694  11.777
  608W        W 4659   9.435   3.157  11.512
  609W        W 4660   8.705   9.884   0.316
  610W        W 4661  10.363   9.448  10.006
  611W        W 4662   2.432   2.305  10.092
  612W        W 4663  10.756   9.532   8.826
  613W        W 4664   7.031   9.956   3.207
  614W        W 4665   3.507   5.109   3.339
  615W        W 4666   5.595   9.721   1.883
  616W        W 4667   5.559   2.447   9.239
  617W        W 4668   8.567  11.327   2.210
  618W        W 4669   6.291   7.050  10.475
  619W        W 4670   2.312   7.678  11.844
  620W        W 4671   1.408   2.810   1.953
  621W        W 4672   0.203   2.217   1.460
  622W        W 4673   4.102   6.361   8.598
  623W        W 4674   6.674   7.212  11.431
  624W        W 4675   0.235   5.353   1.487
  625W        W 4676   0.290   4.274   3.095
  626W        W 4677   3.793  10.218   0.182
  627W        W 4678   8.828   4.335   0.121
  628W        W 4679   1.384   1.075   2.778
  629W        W 4680   2.391   9.588  10.151
  630W        W 4681   7.871   9.315   0.752
  631W        W 4682  11.430   5.650  11.715
  632W        W 4683   5.704   8.527   1.379
  633W        W 4684   7.189  10.201   1.415
  634W        W 4685   2.789   9.584  11.543
  635W        W 4686   6.010   6.890   1.808
  636W        W 4687  10.979   7.436  11.370
  637W        W 4688   1.408   6.681   2.169
  638W        W 4689   3.590  10.414  10.470
  639W        W 4690   3.589   9.475   3.249
  640W        W 4691   0.729   6.741   9.047
  641W        W 4692   8.994   6.831   9.539
  642W        W 4693   8.677   6.659   1.660
  643W        W 4694  11.430   5.772   1.116
  644W        W 4695   3.620   1.828   2.653
  645W        W 4696  10.501   0.741   0.923
  646W        W 4697   1.817  10.177  11.282
  647W        W 4698   4.141   5.695  11.840
  648W        W 4699  11.278   7.452  11.783
  649W        W 4700   8.568   0.547  10.221
  650W        W 4701   6.243   9.760   0.359
  651W        W 4702   1.779   7.305   0.252
  652W        W 4703   4.089   0.446   1.427
  653W        W 4704   5.199   1.667  11.734
  654W        W 4705   8.111   7.121   9.957
  655W        W 4706   8.423   1.178  10.857
  656W        W 4707   5.101   4.457  11.210
  657W        W 4708   7.133   7.143   1.111
  658W        W 4709   0.758   1.963   2.232
  659W        W 4710   7.963   0.321   0.262
  660W        W 4711   5.135  10.079   3.154
  661W        W 4712   0.721   8.888  11.096
  662W        W 4713   5.190   1.861   3.122
  663W        W 4714   2.648   5.206   3.665
  664W        W 4715   5.742   3.156   2.125
  665W        W 4716   3.614   4.848   0.625
  666W        W 4717   8.932   3.757   0.735
  667W        W 4718   7.612   9.188   3.108
  668W        W 4719   7.462   8.163   2.068
  669W        W 4720   1.296  11.384  11.019
  670W        W 4721   0.985   3.043   9.660
  671W        W 4722   9.050   0.259  11.475
  672W        W 4723   5.786   5.757  11.852
  673W        W 4724   4.966  10.232  10.039
  674W        W 4725   3.578   7.031   9.615
  675W        W 4726   6.574  11.081  10.967
  676W        W 4727   9.606   5.521   9.452
  677W        W 4728   2.100   4.192  10.571
  678W        W 4729   7.463   4.232   1.925
  679W        W 4730   0.891   7.623   9.366
  680W        W 4731   2.467  10.360  10.075
  681W        W 4732   7.084  10.545   8.698
  682W        W 4733   7.174  11.126   0.402
  683W        W 4734   0.807   3.354  10.043
  684W        W 4735   4.697   6.153   0.805
  685W        W 4736   3.648   2.376  11.799
  686W        W 4737   2.199   6.249   2.975
  687W        W 4738   8.331   5.272   2.813
  688W        W 4739   8.821   3.770   9.096
  689W        W 4740  10.782   4.848   3.633
  690W        W 4741   5.841  10.551   0.179
  691W        W 4742   2.342  11.331   9.061
  692W        W 4743   5.688   1.791   1.007
  693W        W 4744   8.144   8.272   2.265
  694W        W 4745   2.299   1.725  11.911
  695W        W 4746   1.408   5.171   2.654
  696W        W 4747   5.488   2.653   0.959
  697W        W 4748   3.125   9.466   9.178
  698W        W 4749   2.989   4.135   0.228
  699W        W 4750   4.723   7.242   0.527
  700W        W 4751   9.955   0.768   3.488
  701W        W 4752  10.592   5.182   2.277
  702W        W 4753   8.083   4.600   9.451
  703W        W 4754   1.643   2.333   2.302
  704W        W 4755   9.273   3.266  10.900
  705W        W 4756   7.127   0.936  11.305
  706W        W 4757   9.604   8.972   0.871
  707W        W 4758   4.352   9.941  10.664
  708W        W 4759  10.638   3.233   0.710
  709W        W 4760   4.912   1.272   1.204
  710W        W 4761   1.255   9.769   9.824
  711W        W 4762   6.544   9.978   9.620
  712W        W 4763   2.186   8.645   1.621
  713W        W 4764   1.862   8.561   9.996
  714W        W 4765   9.350   9.421   2.314
  715W        W 4766   2.762   2.186   0.253
  716W        W 4767   3.122   3.174   1.795
  717W        W 4768  10.066   9.627   3.073
  718W        W 4769   0.241   0.575   0.116
  719W        W 4770   4.146   9.520  10.958
  720W        W 4771   5.092   9.400  11.072
  721W        W 4772   9.201   6.581  10.867
  722W        W 4773   8.127  10.063   9.080
  723W        W 4774   7.925   0.353  10.969
  724W        W 4775   8.076   1.452   1.877
  725W        W 4776   1.127   7.980  11.595
  726W        W 4777   7.177   3.680   1.230
  727W        W 4778   0.526   7.695   1.463
  728W        W 4779  10.295   0.272   1.014
  729W        W 4780   6.328   1.723   2.326
  730W        W 4781   2.595   5.585   3.332
  731W        W 4782   3.570   8.392  11.293
  732W        W 4783   0.699  10.378   1.354
  733W        W 4784   3.643   7.919  11.528
  734W        W 4785   5.204   3.055  11.579
  735W        W 4786   6.482   2.797   3.451
  736W        W 4787   0.807   0.613   3.162
  737W        W 4788   7.022   8.426   1.901
  738W        W 4789   5.616   7.797   9.853
  739W        W 4790   5.869  10.533   2.114
  740W        W 4791   0.495  11.037   0.662
  741W        W 4792   8.289   6.363  10.996
  742W        W 4793  11.442   7.640   9.662
  743W        W 4794   1.535   7.935  10.900
  744W        W 4795   2.208   1.245   1.010
  745W        W 4796   5.673   5.539   2.722
  746W        W 4797  10.011   8.161   1.075
  747W        W 4798   3.243  10.803   0.861
  748W        W 4799  10.856   8.680   8.793
  749W        W 4800   6.686   3.206   8.924
  750W        W 4801   2.743   4.221  11.206
  751W        W 4802  10.339   5.599   1.907
  752W        W 4803  11.415   4.546   1.678
  753W        W 4804   5.011   2.048   9.545
  754W        W 4805   8.561   7.198  11.174
  755W        W 4806  10.884   4.691   1.685
  756W        W 4807   4.800   2.676  10.966
  757W        W 4808   0.944   9.020   9.200
  758W        W 4809   7.137   4.262   9.988
  759W        W 4810   9.022  11.496   9.539
  760W        W 4811  11.455   5.694  10.750
  761W        W 4812   5.710   1.109   1.825
  762W        W 4813   0.695   0.328  10.955
  763W        W 4814  10.860   7.020   1.702
  764W        W 4815  10.139   4.487   9.863
  765W        W 4816   6.677   9.106  11.667
  766W        W 4817   2.064   6.856   3.634
  767W        W 4818   7.602   0.735   2.043
  768W        W 4819  10.016   5.678  10.638
  769W        W 4820   2.612   1.782   1.754
  770W        W 4821   4.171   1.785   3.097
  771W        W 4822   6.783   5.150   0.442
  772W        W 4823   1.945   0.685   0.196
  773W        W 4824   8.538   8.948   2.748
  774W        W 4825   5.070   6.696  10.330
  775W        W 4826   7.036   1.044   3.608
  776W        W 4827   9.690   4.999   3.887
  777W        W 4828   6.270   5.694   1.286
  778W        W 4829   0.840   5.073   1.715
  779W        W 4830   7.808   4.649  10.739
  780W        W 4831   0.050   8.618   9.438
  781W        W 4832   5.943  10.105  10.490
  782W        W 4833   4.810   5.668   2.088
  783W        W 4834  10.891   0.910   1.282
  784W        W 4835   6.686   2.611   9.372
  785W        W 4836   6.038   2.158   2.252
  786W        W 4837  10.285   0.241  10.711
  787W        W 4838  10.498   5.615  10.464
  788W        W 4839   9.381   7.723   3.419
  789W        W 4840   2.832   8.638   2.735
  790W        W 4841   1.199   9.640   1.746
  791W        W 4842   5.804  10.068   0.375
  792W        W 4843   6.597   3.181  11.172
  793W        W 4844   7.481   7.637   1.265
  794W        W 4845   5.574   1.806   3.451
  795W        W 4846   6.371  10.601  11.193
  796W        W 4847   7.424   7.707   2.306
  797W        W 4848   7.555   6.731  11.423
  798W        W 4849  10.551   6.578  10.373
  799W        W 4850   8.540   9.883   8.771
  800W        W 4851   9.141   8.929  11.161
  801W        W 4852  11.455   5.591   1.864
  802W        W 4853   0.894  10.063   0.370
  803W        W 4854   2.722   6.611  10.939
  804W        W 4855  10.354   5.097   3.141
  805W        W 4856   9.981   1.705  10.270
  806W        W 4857   6.434   3.786   9.600
  807W        W 4858   1.334   5.476   3.210
  808W        W 4859   0.075  11.352  10.684
  809W        W 4860   9.550   0.233   0.532
  810W        W 4861   5.067   0.461   0.793
  811W        W 4862   3.645   2.337   1.205
  812W        W 4863   9.997   0.253   0.271
  813W        W 4864   4.577   2.194   0.980
  814W        W 4865   2.549   8.332   0.800
  815W        W 4866   0.554   9.196   0.785
  816W        W 4867   5.920   7.825  11.978
  817W        W 4868   6.492   5.110   1.871
  818W        W 4869   4.768   8.323   1.555
  819W        W 4870   3.197   1.394   2.034
  820W        W 4871  10.422   0.600   9.399
  821W        W 4872   3.855   0.383   9.682
  822W        W 4873   6.313   7.207   9.483
  823W        W 4874   2.230   5.256   9.488
  824W        W 4875   5.448   0.797   9.857
  825W        W 4876   0.915   8.350   3.526
  826W        W 4877   5.639   9.944  11.844
  827W        W 4878   2.174   3.378   2.798
  828W        W 4879  11.382   7.025  10.518
  829W        W 4880   2.710   4.498   0.949
  830W        W 4881   1.440   9.911   9.369
  831W        W 4882   7.048   4.827   0.750
  832W        W 4883   1.827   8.150   1.385
  833W        W 4884   7.842   4.185   8.686
  834W        W 4885  10.960   2.064   2.274
  835W        W 4886  11.292   9.931   0.753
  836W        W 4887   1.242   0.586   2.874
  837W        W 4888   7.781  10.650   0.782
  838W        W 4889   0.681   8.892   2.765
  839W        W 4890  10.028   5.666   0.971
  840W        W 4891   8.051  10.753   1.223
  841W        W 4892   6.292   9.182   3.146
  842W        W 4893   1.519   6.240   9.879
  843W        W 4894   6.433   0.295  11.663
  844W        W 4895   0.953   8.411   9.859
  845W        W 4896   6.636   9.400   1.076
  846W        W 4897  10.846   2.170   1.762
  847W        W 4898   4.211  10.787   2.447
  848W        W 4899   2.656   3.675   2.039
  849W        W 4900   7.876   0.347   2.713
  850W        W 4901   6.532   8.120  11.349
  851W        W 4902   0.676   2.161   1.747
  852W        W 4903   0.802   0.826   0.734
  853W        W 4904   1.303   3.128  11.572
  854W        W 4905  11.403   4.080   3.496
  855W        W 4906   2.368   2.449   0.456
  856W        W 4907   8.362   7.499   2.294
  857W        W 4908   1.199   9.403   9.459
  858W        W 4909   4.263  11.280  11.359
  859W        W 4910   1.753   5.086   1.675
  860W        W 4911   3.824   9.265   0.449
  861W        W 4912   3.504  11.390  11.962
  862W        W 4913   7.498   5.008   0.926
  863W        W 4914   2.545   4.642  11.778
  864W        W 4915   7.736   1.436   0.563
  865W        W 4916   7.904   1.933   0.708
  866W        W 4917   0.930   2.719   8.475
  867W        W 4918   3.174   7.501   1.089
  868W        W 4919   2.706   4.091   1.255
  869W        W 4920   6.982   0.317   2.760
  870W        W 4921   2.530   8.050   8.173
  871W        W 4922   4.902   2.833   4.026
  872W        W 4923   4.281   3.362  11.494
  873W        W 4924   2.253   3.803   1.336
  874W        W 4925  11.135   7.724   0.726
  875W        W 4926   1.021   8.903   0.420
  876W        W 4927   8.453   1.767   3.188
  877W        W 4928   1.348  10.047  11.732
  878W        W 4929   9.916   8.981   9.390
  879W        W 4930   0.349   2.732   0.045
  880W        W 4931   9.857   7.435   8.549
  881W        W 4932   3.917   2.178   2.883
  882W        W 4933   6.952   5.845  10.353
  883W        W 4934   4.227   2.209   3.379
  884W        W 4935   4.266   0.856   2.201
  885W        W 4936   7.750  10.161   0.586
  886W        W 4937   0.486   6.273   1.665
  887W        W 4938   0.301   1.890  10.287
  888W        W 4939  11.447   4.701  10.541
  889W        W 4940   3.602   0.476   2.722
  890W        W 4941   5.711   1.325   0.771
  891W        W 4942   1.129  10.444   9.511
  892W        W 4943  10.910  10.413   9.291
  893W        W 4944   6.276  10.240   0.207
  894W        W 4945   4.535  11.152   9.184
  895W        W 4946   4.185   4.719   2.817
  896W        W 4947   6.636   9.489  10.478
  897W        W 4948  11.310   7.687   9.160
  898W        W 4949  10.320   9.582  10.518
  899W        W 4950   3.899   6.166  10.658
  900W        W 4951   4.107   4.131   9.277
  901W        W 4952   1.682   9.515   8.604
  902W        W 4953   1.333   8.690   1.063
  903W        W 4954   0.864   6.355   2.933
  904W        W 4955   3.607  11.439   9.542
  905W        W 4956   4.824   8.395   2.851
  906W        W 4957   8.332  10.224   2.809
  907W        W 4958   5.569  10.585   2.957
  908W        W 4959   7.586   8.451  10.363
  909W        W 4960   0.165   1.484  11.902
  910W        W 4961   6.003   3.173   0.100
  911W        W 4962   0.637   7.075   9.478
  912W        W 4963   3.421   8.904   1.952
  913W        W 4964  11.288   8.030   3.068
  914W        W 4965   1.716   7.354   2.928
  915W        W 4966   3.066   5.288   8.233
  916W        W 4967   8.150   2.795  11.290
  917W        W 4968   9.358   0.434   2.720
  918W        W 4969   8.628   1.060   2.613
  919W        W 4970   9.384   2.153   0.336
  920W        W 4971  10.966  10.572   0.763
  921W        W 4972   2.269   9.102   9.990
  922W        W 4973   6.596   1.959   1.470
  923W        W 4974   5.631   1.952   2.009
  924W        W 4975   4.295   0.728  11.376
  925W        W 4976   6.126   3.823   0.390
  926W        W 4977   4.745   6.279  10.321
  927W        W 4978   0.318   2.275  10.904
  928W        W 4979   8.009   7.968   1.379
  929W        W 4980   6.588  10.440  10.752
  930W        W 4981   2.130   4.321   0.520
  931W        W 4982   3.176   5.532  10.511
  932W        W 4983   4.487   8.836   9.346
  933W        W 4984  10.380   2.410  10.924
  934W        W 4985   9.668   4.134   1.835
  935W        W 4986   1.503   6.342   3.515
  936W        W 4987   5.127   1.986   3.630
  937W        W 4988   3.264  10.214   2.683
  938W        W 4989   8.560   3.332   3.133
  939W        W 4990   6.146   1.377   2.683
  940W        W 4991  11.013   3.639   1.417
  941W        W 4992   8.556   6.141   9.176
  942W        W 4993  11.123   8.093   3.544
  943W        W 4994   8.041  11.451   8.929
  944W        W 4995   5.946  10.417   2.626
  945W        W 4996   3.583   6.391   2.716
  946W        W 4997   3.661   3.715   3.054
  947W        W 4998   9.398  10.512  10.287
  948W        W 4999   0.425   7.011   2.554
  949W        W 5000   2.110   9.994   2.830
  950W        W 5001   9.778   3.280  11.887
  951W        W 5002   7.609   2.230  10.916
  952W        W 5003   9.001  11.062   0.404
  953W        W 5004   9.301   5.097   1.457
  954W        W 5005   6.735   8.926   9.210
  955W        W 5006   8.304   9.131  11.759
  956W        W 5007   5.752   3.756   1.617
  957W        W 5008   1.326   3.770   2.870
  958W        W 5009   5.243   8.044   9.647
  959W        W 5010   0.989   1.678   1.404
  960W        W 5011   0.282   9.496   1.479
  961W        W 5012  10.408   3.206   2.197
  962W        W 5013   2.638  10.917   8.952
  963W        W 5014   5.767   7.192  11.282
  964W        W 5015   1.371   0.427   3.368
  965W        W 5016   8.605   5.904  10.969
  966W        W 5017   5.169   4.631  11.749
  967W        W 5018   1.034   0.668   1.722
  968W        W 5019   5.594   7.551  10.959
  969W        W 5020   2.109   5.968  10.937
  970W        W 5021   9.482   5.193   3.420
  971W        W 5022   3.764   8.030   8.914
  972W        W 5023   4.154   7.653   9.040
  973W        W 5024   7.140   2.308   3.008
  974W        W 5025   8.739   4.953  10.773
  975W        W 5026   0.834   0.219   1.871
  976W        W 5027   4.384   1.322   1.367
  977W        W 5028   6.997   2.759   8.993
  978W        W 5029   7.646   3.863   3.280
  979W        W 5030   0.005   4.262   0.148
  980W        W 5031   2.660   8.494   1.730
  981W        W 5032  10.877  10.362   0.304
  982W        W 5033   3.141   2.907   9.161
  983W        W 5034   1.386   2.763  10.992
  984W        W 5035   3.261   9.851   8.852
  985W        W 5036   5.055   5.864  11.361
  986W        W 5037   5.131   9.625   8.071
  987W        W 5038  10.950   8.121   2.685
  988W        W 5039   6.457   9.122   1.845
  989W        W 5040   5.664  10.137   8.551
  990W        W 5041   7.049   8.394   9.070
  991W        W 5042   6.004   5.540   9.659
  992W        W 5043   8.884   5.519  10.575
  993W        W 5044   7.446   3.616   0.767
  994W        W 5045   6.304   2.696   2.923
  995W        W 5046   8.095   5.529   0.693
  996W        W 5047   1.427   6.243   8.989
  997W        W 5048   6.674   0.065  10.847
  998W        W 5049   8.070   6.437   0.294
  999W        W 5050  10.608   4.504   9.627
 1000W        W 5051   9.574   3.556   2.665
 1001W        W 5052   4.172   2.831  10.034
 1002W        W 5053   0.359   4.545   9.810
 1003W        W 5054   9.998   9.080  11.519
 1004W        W 5055   2.630   6.571   2.914
 1005W        W 5056   3.274  10.536   3.193
 1006W        W 5057   9.873   1.675   3.483
 1007W        W 5058   9.420   5.555  11.752
 1008W        W 5059   7.967   9.984   3.269
 1009W        W 5060   1.233   4.549   9.852
 1010W        W 5061   9.004   9.355  11.457
 1011W        W 5062   3.600   0.413   0.041
 1012W        W 5063   3.060   3.086   8.391
 1013W        W 5064   0.252   9.113   0.058
 1014W        W 5065   8.149   8.935   0.578
 1015W        W 5066   9.727   6.684   0.481
 1016W        W 5067   9.333   9.393   9.943
 1017W        W 5068   5.229   1.948   0.719
 1018W        W 5069   3.150   2.385   2.148
 1019W        W 5070   9.319   5.914   1.941
 1020W        W 5071   0.938   1.531  11.098
 1021W        W 5072   2.884   1.628  10.496
 1022W        W 5073   3.777   0.280   9.179
 1023W        W 5074   0.395   6.459   3.301
 1024W        W 5075   1.857   3.625   9.389
 1025W        W 5076   9.850  10.057   3.243
 1026W        W 5077   5.952   0.496   9.277
 1027W        W 5078  11.372   7.031   1.705
 1028W        W 5079   7.677   2.612  11.948
 1029W        W 5080   8.430   0.240   0.457
 1030W        W 5081   5.772  10.918   9.198
 1031W        W 5082   8.429   8.102   9.095
 1032W        W 5083   0.312   5.172   3.012
 1033W        W 5084   4.818   8.908   0.916
 1034W        W 5085   0.532   3.992  11.888
 1035W        W 5086   0.421   6.290   9.776
 1036W        W 5087   8.743   1.454  11.772
 1037W        W 5088  11.250  11.196  10.304
 1038W        W 5089   2.616   8.118   2.110
 1039W        W 5090   3.624   8.411   9.736
 1040W        W 5091   7.876   6.953   2.583
 1041W        W 5092   9.562   2.390  11.115
 1042W        W 5093   6.934   0.801   1.289
 1043W        W 5094   6.266   6.387   8.572
 1044W        W 5095   2.180   8.322  10.716
 1045W        W 5096   0.933   1.363   9.101
 1046W        W 5097   2.069   6.843   9.529
 1047W        W 5098   9.753  10.278   9.009
 1048W        W 5099  11.063   7.721  10.496
 1049W        W 5100   1.184   1.980   0.714
 1050W        W 5101   8.577   9.958   1.145
 1051W        W 5102   6.040   8.187   3.045
 1052W        W 5103  11.038   9.840   0.325
 1053W        W 5104   4.816   9.788   2.619
 1054W        W 5105   6.136   1.375   1.145
 1055W        W 5106   1.761  11.233  11.100
 1056W        W 5107   9.417   6.648   0.087
 1057W        W 5108   8.303   0.227   2.996
 1058W        W 5109   2.439   0.707   0.303
 1059W        W 5110   2.585   6.125  11.035
 1060W        W 5111   3.772   0.067   0.382
 1061W        W 5112   7.989   8.974   1.583
 1062W        W 5113   6.639   8.934   0.317
 1063W        W 5114   0.900   3.413  11.449
 1064W        W 5115   0.850   6.786  10.904
 1065W        W 5116   8.181   6.682   1.762
 1066W        W 5117   2.437   4.838   1.197
 1067W        W 5118   9.407   2.433  10.647
 1068W        W 5119   5.114   2.647   1.319
 1069W        W 5120   0.895   3.657  10.897
 1070W        W 5121   7.570   7.224   0.299
 1071W        W 5122  10.143   7.916   0.667
 1072W        W 5123   6.710   9.323   9.986
 1073W        W 5124   9.858  10.114   1.804
 1074W        W 5125   2.193   4.681   0.159
 1075W        W 5126   2.194   7.950   2.360
 1076W        W 5127  11.175   6.489  11.254
 1077W        W 5128  10.904   9.977  10.066
 1078W        W 5129   1.590   2.369   1.462
 1079W        W 5130   6.501   1.711   1.007
 1080W        W 5131   1.928   1.342   9.406
 1081W        W 5132  11.382   7.269   0.805
 1082W        W 5133   9.888  10.890   9.929
 1083W        W 5134   1.186   9.568   0.865
 1084W        W 5135   0.732   2.333  11.303
 1085W        W 5136   9.519  10.370   0.025
 1086W        W 5137   9.333   7.623   1.006
 1087W        W 5138  10.880   7.199   3.071
 1088W        W 5139   6.611   1.458   1.469
 1089W        W 5140   5.521   6.698   1.821
 1090W        W 5141   9.423   1.906  11.065
 1091W        W 5142   9.285   1.434  11.825
 1092W        W 5143   4.698   7.758   2.948
 1093W        W 5144   6.549   3.730  10.908
 1094W        W 5145   5.150   8.029   3.023
 1095W        W 5146   9.525   8.867  10.795
 1096W        W 5147   9.480   1.654   1.506
 1097W        W 5148   2.883   9.467   2.202
 1098W        W 5149  11.321   5.102   2.870
 1099W        W 5150   7.611   9.322  10.495
 1100W        W 5151   2.875   0.943  11.426
 1101W        W 5152   2.220   4.382   9.824
 1102W        W 5153   3.769   7.979  11.029
 1103W        W 5154   5.147   6.660  10.852
 1104W        W 5155   9.747   7.017   0.944
 1105W        W 5156   0.221   2.861   8.976
 1106W        W 5157   3.693  10.349   2.924
 1107W        W 5158   3.203  11.364  10.626
 1108W        W 5159  10.955  10.831   2.516
 1109W        W 5160  10.842   6.349   2.748
 1110W        W 5161  11.127  11.113  11.516
 1111W        W 5162   0.388   6.021  10.766
 1112W        W 5163   8.193   2.825   1.272
 1113W        W 5164   7.507   2.653   9.033
 1114W        W 5165   7.047   7.052   2.070
 1115W        W 5166   0.335   9.028   3.114
 1116W        W 5167   9.861   1.802   1.184
 1117W        W 5168   2.909   5.490   0.728
 1118W        W 5169   7.953   8.361  11.334
 1119W        W 5170   7.921   0.675   3.111
 1120W        W 5171   8.979   8.684   2.761
 1121W        W 5172   2.081   0.907   0.639
 1122W        W 5173   8.012   3.853  10.092
 1123W        W 5174   9.366   7.422   9.844
 1124W        W 5175   0.849   0.489   8.846
 1125W        W 5176   4.758   4.356   2.936
 1126W        W 5177   7.038   5.029  11.333
 1127W        W 5178  11.014   4.079   0.613
 1128W        W 5179   4.417   1.297   2.762
 1129W        W 5180   2.501   4.212  10.212
 1130W        W 5181   6.421   2.742   1.665
 1131W        W 5182   3.320   0.451   9.437
 1132W        W 5183   7.031   2.976   9.832
 1133W        W 5184   5.178   4.037   8.370
 1134W        W 5185   0.063   2.870  11.244
 1135W        W 5186   6.830  10.741   0.580
 1136W        W 5187   2.699  10.811   9.921
 1137W        W 5188   4.561   2.210  11.942
 1138W        W 5189   7.095   6.513  11.418
 1139W        W 5190  10.244   4.039  10.430
 1140W        W 5191   7.891   5.020   1.469
 1141W        W 5192   6.352   3.281   3.244
 1142W        W 5193   4.290   4.225   2.653
 1143W        W 5194  11.361   7.508   3.179
 1144W        W 5195   1.255   6.672   9.754
 1145W        W 5196   9.462   4.052   2.838
 1146W        W 5197   4.736   4.108   8.647
 1147W        W 5198  10.028   8.616   1.944
 1148W        W 5199   0.898   7.715  10.659
 1149W        W 5200   8.979   5.628   0.971
 1150W        W 5201   0.933   0.229  10.212
 1151W        W 5202   1.136  10.206   2.774
 1152W        W 5203  10.105   3.052  10.546
 1153W        W 5204  11.009   1.155   0.563
 1154W        W 5205   4.607   2.262   2.381
 1155W        W 5206   7.342   1.474   9.076
 1156W        W 5207   3.813   0.392  10.195
 1157W        W 5208   2.481   1.769   8.813
 1158W        W 5209   6.681  10.912   8.724
 1159W        W 5210   3.831   4.622  11.359
 1160W        W 5211   6.200   2.967  10.322
 1161W        W 5212   3.042   5.543   8.836
 1162W        W 5213   0.278   3.158  10.830
 1163W        W 5214   2.440   4.630  11.278
 1164W        W 5215   0.122   1.793   8.873
 1165W        W 5216   4.236   5.028   9.555
 1166W        W 5217  10.063   1.681   2.607
 1167W        W 5218   9.081   4.290   2.582
 1168W        W 5219  11.267   3.114  10.867
 1169W        W 5220   8.367   1.759   0.860
 1170W        W 5221   1.271   8.462  11.551
 1171W        W 5222   6.934   6.225   9.153
 1172W        W 5223  11.393   3.186   1.347
 1173W        W 5224  10.644   1.859   3.884
 1174W        W 5225   1.184  10.277  10.426
 1175W        W 5226   9.090   9.038   1.998
 1176W        W 5227   8.967   1.891  11.921
 1177W        W 5228   4.253   9.939   2.770
 1178W        W 5229   8.957   6.922   1.198
 1179W        W 5230   6.874   3.107   9.379
 1180W        W 5231   6.214   8.525  11.278
 1181W        W 5232   9.438   3.574   3.153
 1182W        W 5233   8.555   2.075   1.283
 1183W        W 5234   8.511   8.034   2.775
 1184W        W 5235   9.887   9.312  10.654
 1185W        W 5236   7.480   2.783   2.343
 1186W        W 5237   8.965   7.133  10.859
 1187W        W 5238  10.811   9.791   1.877
 1188W        W 5239   4.750   9.473   8.471
 1189W        W 5240   8.154   1.812   2.260
 1190W        W 5241   8.015   6.434  11.440
 1191W        W 5242   7.586   5.314  10.611
 1192W        W 5243   7.056   9.062  11.991
 1193W        W 5244   7.113  10.986   9.032
 1194W        W 5245   8.853   4.547   8.647
 1195W        W 5246   4.171   2.599   3.001
 1196W        W 5247   5.671   3.850   0.711
 1197W        W 5248   1.256   6.539  11.270
 1198W        W 5249   8.509   8.985   3.247
 1199W        W 5250   4.149   0.459   8.842
 1200W        W 5251   8.719  10.903   0.968
 1201W        W 5252   6.560   8.444   9.701
 1202W        W 5253   2.323   8.645  10.340
 1203W        W 5254   0.496   1.096  11.792
 1204W        W 5255   0.410   4.388   1.716
 1205W        W 5256   0.422   0.463   2.060
 1206W        W 5257  11.295  10.782   0.404
 1207W        W 5258  10.512   4.793  10.042
 1208W        W 5259   1.820   1.748  10.104
 1209W        W 5260   6.475   4.743   0.389
 1210W        W 5261   1.207   4.995   3.179
 1211W        W 5262  10.330   6.276  11.235
 1212W        W 5263   6.123   9.632  10.571
 1213W        W 5264  10.928   7.869   1.772
 1214W        W 5265   3.299   8.329   8.930
 1215W        W 5266   2.281   6.179   9.310
 1216W        W 5267  10.011   5.461   8.700
 1217W        W 5268  10.404   2.135   9.594
 1218W        W 5269   1.842   0.179   2.708
 1219W        W 5270   3.373   1.282   8.788
 1220W        W 5271   7.190   7.291  10.071
 1221W        W 5272   8.585  10.778   0.480
 1222W        W 5273   6.414   8.003   9.016
 1223W        W 5274   6.616   5.422   0.056
 1224W        W 5275   7.470   1.542   2.376
 1225W        W 5276   6.741   9.518   3.205
 1226W        W 5277   3.476   8.636  11.763
 1227W        W 5278   5.885   2.950   0.835
 1228W        W 5279  10.907   5.543  10.024
 1229W        W 5280   2.416   1.789  11.393
 1230W        W 5281   7.211  10.635   0.223
 1231W        W 5282   0.031  10.894   0.879
 1232W        W 5283   3.311   7.469   2.062
 1233W        W 5284   8.902   7.576  11.101
 1234W        W 5285   6.244  10.035  10.931
 1235W        W 5286   3.736  10.925  10.013
 1236W        W 5287  10.086   9.095   1.789
 1237W        W 5288   3.791   7.033   0.513
 1238W        W 5289   9.411   7.157   1.857
 1239W        W 5290   3.624   9.367   9.262
 1240W        W 5291   3.838   9.859   1.205
 1241W        W 5292   1.315   5.320   9.461
 1242W        W 5293  11.336   8.569   8.970
 1243W        W 5294   8.268   6.361   8.802
 1244W        W 5295   6.911  11.439   3.265
 1245W        W 5296   2.386   1.329   9.142
 1246W        W 5297   6.371   9.169  11.275
 1247W        W 5298   3.121   1.843   9.529
 1248W        W 5299   6.565   2.466  11.902
 1249W        W 5300   3.717   9.819   2.055
 1250W        W 5301   6.177  11.065  11.291
 1251W        W 5302   7.163   7.066   0.558
 1252W        W 5303   2.354   9.915   1.752
 1253W        W 5304   8.506   9.415  11.060
 1254W        W 5305   5.517   5.644   9.556
 1255W        W 5306   7.649   7.994  10.141
 1256W        W 5307   1.144   0.355  11.209
 1257W        W 5308   1.312   8.143   1.926
 1258W        W 5309   7.546  10.865  11.446
 1259W        W 5310   1.673   4.547   9.558
 1260W        W 5311   8.874   1.641   2.878
 1261W        W 5312   5.141   8.619   0.354
 1262W        W 5313   5.632  10.020   1.446
 1263W        W 5314   9.841  10.277  10.334
 1264W        W 5315   9.045   3.685   8.649
 1265W        W 5316   5.656   8.645   0.460
 1266W        W 5317   2.028  11.298  11.921
 1267W        W 5318   7.441   4.001  11.935
 1268W        W 5319   4.582   6.750   2.920
 1269W        W 5320   5.341   5.067   2.601
 1270W        W 5321   9.509   3.018   2.494
 1271W        W 5322   9.156   1.237  10.040
 1272W        W 5323   0.643   0.549  10.497
 1273W        W 5324   4.542  10.361   8.518
 1274W        W 5325   1.231   3.553   9.855
 1275W        W 5326   0.755   0.067  11.403
 1276W        W 5327   0.638   7.157   1.286
 1277W        W 5328  10.432  10.832  11.007
 1278W        W 5329   1.913   5.043   2.630
 1279W        W 5330   1.474   9.734   1.266
 1280W        W 5331   3.660   2.338   0.694
 1281W        W 5332   6.710   6.842   2.377
 1282W        W 5333   8.444   7.098   0.326
 1283W        W 5334   5.272   3.298   2.240
 1284W        W 5335   0.214   2.302   9.132
 1285W        W 5336   1.755   6.877   2.733
 1286W        W 5337   5.270   0.163   0.400
 1287W        W 5338   0.053  10.299   2.341
 1288W        W 5339   6.744  10.001  11.005
 1289W        W 5340   6.002   8.505  11.768
 1290W        W 5341   8.048   7.243  11.121
 1291W        W 5342   9.820   9.412   0.683
 1292W        W 5343   2.408  11.331   0.275
 1293W        W 5344   2.384   9.426   0.401
 1294W        W 5345   8.507   5.615   3.582
 1295W        W 5346   4.252   3.561   0.914
 1296W        W 5347   6.969   2.361  10.999
 1297W        W 5348   8.427   3.274   9.506
 1298W        W 5349   9.184  10.106   0.408
 1299W        W 5350  10.185   8.603  11.583
 1300W        W 5351  11.424   8.628   9.921
 1301W        W 5352   6.521   0.640   0.055
 1302W        W 5353   6.141  11.008   3.404
 1303W        W 5354   0.149   7.196   9.817
 1304W        W 5355   2.918   7.570   2.994
 1305W        W 5356   0.425   9.010   1.739
 1306W        W 5357  10.523   8.501  11.967
 1307W        W 5358   7.211   5.667   1.092
 1308W        W 5359   3.383   5.280   9.152
 1309W        W 5360   9.896   8.149   2.818
 1310W        W 5361   2.913   5.472   1.743
 1311W        W 5362   2.414   3.296   1.192
 1312W        W 5363   3.877   1.287   8.621
 1313W        W 5364   8.705   6.672  10.839
 1314W        W 5365  10.413   1.495  10.439
 1315W        W 5366   7.138   6.504   3.141
 1316W        W 5367  11.475   6.135   0.003
 1317W        W 5368   0.173   1.077   0.240
 1318W        W 5369  11.454   3.393  10.435
 1319W        W 5370   8.873   3.204   8.557
 1320W        W 5371   0.072   6.093   1.924
 1321W        W 5372   5.985   4.089   9.462
 1322W        W 5373   9.872   3.691   0.611
 1323W        W 5374   4.620   8.578   0.439
 1324W        W 5375  10.813   3.468   2.409
 1325W        W 5376   0.472  10.010   2.211
 1326W        W 5377   5.046  11.452   0.837
 1327W        W 5378   7.273   6.196  10.611
 1328W        W 5379   3.775  11.134  11.421
 1329W        W 5380   2.666   9.306  11.954
 1330W        W 5381  10.625   7.859   0.521
 1331W        W 5382   1.705   4.869  11.040
 1332W        W 5383   6.894  11.383   9.485
 1333W        W 5384   1.879   8.832   0.283
 1334W        W 5385   8.554   2.328   2.328
 1335W        W 5386   3.676   2.854   0.724
 1336W        W 5387  10.667  11.398   0.663
 1337W        W 5388   2.874   4.191   2.649
 1338W        W 5389   3.145   0.333   1.517
 1339W        W 5390   0.266   5.534   9.833
 1340W        W 5391   6.303  10.449  10.316
 1341W        W 5392   4.918   0.638   1.669
 1342W        W 5393   0.253   3.125   0.389
 1343W        W 5394   2.959   0.136  10.169
 1344W        W 5395   0.488   3.094  11.432
 1345W        W 5396   1.981   8.112  11.885
 1346W        W 5397   4.574   7.581  11.533
 1347W        W 5398   7.327   0.535   8.915
 1348W        W 5399   6.576   7.889   2.337
 1349W        W 5400   7.550   2.296   0.779
 1350W        W 5401   3.750   5.189   0.252
 1351W        W 5402   3.711   4.489   1.901
 1352W        W 5403   8.139   4.634   8.670
 1353W        W 5404   7.853   8.453  11.920
 1354W        W 5405   5.487   8.990   8.602
 1355W        W 5406   0.858   9.217   3.128
 1356W        W 5407   2.801   2.110  10.365
 1357W        W 5408   0.464   1.281   2.612
 1358W        W 5409   5.336  11.365   1.744
 1359W        W 5410  10.279   9.469  11.314
 1360W        W 5411  10.727  10.412   1.313
 1361W        W 5412   2.782   2.394   0.780
 1362W        W 5413   8.015   5.997   4.124
 1363W        W 5414   2.318  10.884  11.797
 1364W        W 5415   6.980   1.518   0.718
 1365W        W 5416   0.031   9.958   8.841
 1366W        W 5417   0.476   3.056   9.778
 1367W        W 5418  10.642   3.914   0.284
 1368W        W 5419   2.813   3.771   9.455
 1369W        W 5420   4.588   9.483  10.695
 1370W        W 5421   5.679   1.719   2.923
 1371W        W 5422   3.401   1.422   2.875
 1372W        W 5423   5.284   9.484   8.548
 1373W        W 5424   0.220   0.338  10.756
 1374W        W 5425  10.868  10.118  11.303
 1375W        W 5426   4.628  10.062   2.214
 1376W        W 5427   4.942   0.777   9.775
 1377W        W 5428   4.039   4.651   3.534
 1378W        W 5429  10.543   7.228  11.555
 1379W        W 5430   6.790   3.643   9.197
 1380W        W 5431   4.508   4.445   9.564
 1381W        W 5432   3.830   0.421  11.580
 1382W        W 5433  10.882   4.184   1.138
 1383W        W 5434   5.151   9.847   3.629
 1384W        W 5435   4.354   1.425   9.950
 1385W        W 5436   7.477   0.800   3.414
 1386W        W 5437   9.046   0.776   2.462
 1387W        W 5438   8.539   7.591   9.262
 1388W        W 5439   3.688   2.651   9.275
 1389W        W 5440   8.542   7.528   2.786
 1390W        W 5441   9.016   4.604   1.302
 1391W        W 5442   8.600   2.579   0.531
 1392W        W 5443   6.063   3.317   1.147
 1393W        W 5444   2.723   7.937   2.655
 1394W        W 5445   3.182  10.305   0.106
 1395W        W 5446  10.600   9.840  10.905
 1396W        W 5447   7.603   4.375   1.453
 1397W        W 5448   2.384   7.858  10.717
 1398W        W 5449   8.645   6.353  11.731
 1399W        W 5450   8.971   9.626  11.009
 1400W        W 5451   5.764   0.374   0.506
 1401W        W 5452   6.071   8.114   8.606
 1402W        W 5453   6.059   7.281   3.991
 1403W        W 5454   4.083  10.951   9.055
 1404W        W 5455   0.864   3.919  11.342
 1405W        W 5456   4.329   8.850   0.766
 1406W        W 5457   2.795   2.478  11.837
 1407W        W 5458   7.781   6.655   9.984
 1408W        W 5459   9.591   2.874   9.459
 1409W        W 5460  10.100   8.999   9.865
 1410W        W 5461   3.675   0.796   8.950
 1411W        W 5462   4.731   9.058  11.466
 1412W        W 5463   8.790  10.901   2.411
 1413W        W 5464   3.880   5.268  10.572
 1414W        W 5465   6.677   3.774   0.267
 1415W        W 5466   8.036   9.622   9.875
 1416W        W 5467   9.096   5.733   2.792
 1417W        W 5468   7.663   4.159  11.039
 1418W        W 5469  10.719   9.805  11.766
 1419W        W 5470   3.137   9.087  10.153
 1420W        W 5471   5.823   5.197  11.605
 1421W        W 5472   3.386   6.067  10.679
 1422W        W 5473   6.506   6.672   1.665
 1423W        W 5474   9.548   6.152  10.807
 1424W        W 5475   6.933  10.868  10.662
 1425W        W 5476   8.143   8.987   1.089
 1426W        W 5477   3.329   8.065  10.224
 1427W        W 5478   4.238   2.320  10.442
 1428W        W 5479  10.825   2.768   9.176
 1429W        W 5480   0.492  10.971   1.181
 1430W        W 5481   0.981  11.314   1.401
 1431W        W 5482   8.909   7.335   9.533
 1432W        W 5483   2.171   3.412   1.883
 1433W        W 5484   9.177   7.087  11.941
 1434W        W 5485   2.899   7.870  11.935
 1435W        W 5486   2.400   0.543   1.994
 1436W        W 5487   1.152   9.661   2.917
 1437W        W 5488   8.849   0.742  11.472
 1438W        W 5489   2.941   3.035   3.104
 1439W        W 5490   4.273   2.811   0.359
 1440W        W 5491   4.638   4.260   9.118
 1441W        W 5492   4.721   2.965   1.425
 1442W        W 5493   5.221   5.602  10.953
 1443W        W 5494   5.729  11.075   3.059
 1444W        W 5495  11.074   6.064   9.916
 1445W        W 5496   1.249   4.816   9.406
 1446W        W 5497   2.328   4.343   8.439
 1447W        W 5498   2.400   2.697  11.567
 1448W        W 5499   5.793   7.119  10.422
 1449W        W 5500   1.278   1.108  11.118
 1450W        W 5501   8.722   4.254   9.194
 1451W        W 5502   7.403   5.205   1.848
 1452W        W 5503   5.138   1.695  11.251
 1453W        W 5504   6.601   6.129  10.039
 1454W        W 5505   6.594   4.512   2.521
 1455W        W 5506   1.187   5.665   1.324
 1456W        W 5507  10.292   0.641   0.101
 1457W        W 5508   3.102   8.882   2.357
 1458W        W 5509   3.411  10.769  10.871
 1459W        W 5510   8.110   4.102   3.156
 1460W        W 5511   3.148   3.530   2.756
 1461W        W 5512   4.709  10.944   9.691
 1462W        W 5513   9.843   0.297  10.409
 1463W        W 5514   5.690   3.397   8.945
 1464W        W 5515   9.083   4.597  10.951
 1465W        W 5516  10.703   1.819   0.862
 1466W        W 5517   5.187   3.734   1.372
 1467W        W 5518   9.100   4.160   8.873
 1468W        W 5519   9.750   5.293   1.232
 1469W        W 5520   9.937   8.150   0.278
 1470W        W 5521  10.364  10.946   3.218
 1471W        W 5522  10.104   2.371   2.886
 1472W        W 5523   1.277   2.399   1.051
 1473W        W 5524   7.082   0.287   1.308
 1474W        W 5525   2.168   2.094  10.990
 1475W        W 5526   7.375   7.199   2.442
 1476W        W 5527   0.007   9.572   2.761
 1477W        W 5528   9.130   6.602   9.102
 1478W        W 5529   3.145   8.938   9.150
 1479W        W 5530   4.110   9.546  10.431
 1480W        W 5531   1.912   2.214   0.431
 1481W        W 5532   4.821  10.574   1.289
 1482W        W 5533   6.219   6.223   3.024
 1483W        W 5534   3.715   5.398  11.779
 1484W        W 5535   0.134   8.893   2.141
 1485W        W 5536   6.076   6.186  11.942
 1486W        W 5537   0.900   6.451   1.912
 1487W        W 5538   5.184   3.633  10.995
 1488W        W 5539   9.281   6.301  11.286
 1489W        W 5540   8.950   3.268  10.485
 1490W        W 5541   4.574   0.259  11.969
 1491W        W 5542   1.760   9.195  11.354
 1492W        W 5543   9.663   0.587   9.453
 1493W        W 5544   9.765   0.787  11.418
 1494W        W 5545  10.386  11.333   1.874
 1495W        W 5546  10.822   1.322  11.083
 1496W        W 5547   3.718   3.363  10.933
 1497W        W 5548   0.454   3.836   2.316
 1498W        W 5549   4.590   0.748   0.768
 1499W        W 5550   9.035   8.097  10.177
 1500W        W 5551  10.783   0.288   0.992
 1501W        W 5552  10.149  10.416   9.963
 1502W        W 5553   8.543  11.243   0.180
 1503W        W 5554   1.002  10.554   2.437
 1504W        W 5555   5.127  11.488   2.719
 1505W        W 5556   5.465   4.044   3.597
 1506W        W 5557   1.987   9.889   9.387
 1507W        W 5558   4.941   1.255   2.612
 1508W        W 5559   6.640   2.671  10.388
 1509W        W 5560   5.166   3.987   4.005
 1510W        W 5561   9.127   6.347   8.665
 1511W        W 5562   8.906   7.418   1.221
 1512W        W 5563  10.561   4.285  10.103
 1513W        W 5564   2.184   9.131  11.987
 1514W        W 5565   8.072   5.038   4.043
 1515W        W 5566   7.624   7.134   1.250
 1516W        W 5567   1.666   6.933   3.235
 1517W        W 5568   0.074   5.978   9.958
 1518W        W 5569   4.431  10.404  11.364
 1519W        W 5570   9.495   9.873   1.227
 1520W        W 5571   5.537   9.636  11.337
 1521W        W 5572   2.652   1.060   1.265
 1522W        W 5573   3.342   2.245   9.268
 1523W        W 5574  11.051   9.431  11.723
 1524W        W 5575   2.288   2.246   0.913
 1525W        W 5576   9.048   6.789   1.971
 1526W        W 5577   7.802   5.732   9.864
 1527W        W 5578  11.116   4.480  10.874
 1528W        W 5579   8.017   4.694   2.182
 1529W        W 5580   7.365   4.704  11.029
 1530W        W 5581   4.248  11.403   2.603
 1531W        W 5582   3.671   6.593   0.282
 1532W        W 5583   5.913   0.940   8.513
 1533W        W 5584  10.857   8.200   0.221
 1534W        W 5585  10.789   1.815  10.491
 1535W        W 5586   9.426   2.615   2.008
 1536W        W 5587   1.625   1.346   9.825
 1537W        W 5588   0.485  10.556   2.290
 1538W        W 5589   9.338  11.368  11.216
 1539W        W 5590   9.972  11.436   9.521
 1540W        W 5591   2.910   5.357   0.218
 1541W        W 5592   3.381   2.567  10.659
 1542W        W 5593   4.358   3.793  11.203
 1543W        W 5594   6.593   2.228   0.962
 1544W        W 5595   2.140   1.772   9.205
 1545W        W 5596   2.185  11.416  11.420
 1546W        W 5597   4.360   0.803   0.307
 1547W        W 5598   9.572   8.046  10.086
 1548W        W 5599   4.919   8.595  10.869
 1549W        W 5600   0.598   5.911   0.706
 1550W        W 5601   3.232   4.295  11.296
 1551W        W 5602   2.259   8.639   2.971
 1552W        W 5603   1.823   0.255   9.502
 1553W        W 5604   6.378   4.018  10.469
 1554W        W 5605   4.111  11.252  10.836
 1555W        W 5606   5.986   6.165   0.873
 1556W        W 5607   0.272   1.640   9.850
 1557W        W 5608   1.459  10.231   1.369
 1558W        W 5609   3.754   6.614   9.391
 1559W        W 5610   1.146   1.838   8.966
 1560W        W 5611   7.939   0.445   1.776
 1561W        W 5612   6.276   8.802   9.998
 1562W        W 5613   8.006   4.163  11.424
 1563W        W 5614   8.602   8.411   2.003
 1564W        W 5615   8.204   6.531   3.251
 1565W        W 5616   9.623   6.950   2.291
 1566W        W 5617   0.704  11.389   0.985
 1567W        W 5618   8.778   8.711   3.746
 1568W        W 5619  11.456   9.136  10.761
 1569W        W 5620   1.296   5.983   0.062
 1570W        W 5621   8.906   6.108   0.533
 1571W        W 5622   8.517   3.408   8.883
 1572W        W 5623   4.745   8.008  11.743
 1573W        W 5624  11.276   9.659   1.729
 1574W        W 5625   6.770   8.054   9.402
 1575W        W 5626   7.136  10.479   9.215
 1576W        W 5627  10.960  10.631  11.417
 1577W        W 5628   5.480   6.213   2.299
 1578W        W 5629   6.373   6.168   2.533
 1579W        W 5630   3.277   8.580  10.386
 1580W        W 5631   2.689   5.534   2.829
 1581W        W 5632   0.299   9.465  11.329
 1582W        W 5633   3.183   6.205   3.374
 1583W        W 5634   0.605   1.523   3.665
 1584W        W 5635   0.309   7.075  11.772
 1585W        W 5636   3.679   3.855  11.816
 1586W        W 5637   9.883   0.011   1.844
 1587W        W 5638  10.401   1.290  11.350
 1588W        W 5639   6.247   7.896   0.388
 1589W        W 5640  11.000  10.016   1.465
 1590W        W 5641  10.823   1.348   9.621
 1591W        W 5642  10.450   6.490  11.987
 1592W        W 5643   0.793   1.106   3.247
 1593W        W 5644   0.898   3.791   2.579
 1594W        W 5645   9.674   2.082   2.645
 1595W        W 5646   3.154   2.081  10.754
 1596W        W 5647   4.527   0.958  10.098
 1597W        W 5648   1.318   2.309   1.931
 1598W        W 5649   8.858   4.595   2.222
 1599W        W 5650   5.802   9.018   9.947
 1600W        W 5651  11.014   9.854   2.336
 1601W        W 5652   8.857   1.732   1.043
 1602W        W 5653   8.016   7.463   1.310
 1603W        W 5654   9.018   7.680   2.872
 1604W        W 5655  10.008   7.010   8.975
 1605W        W 5656   3.385   3.387   1.403
 1606W        W 5657   9.174   7.592  11.941
 1607W        W 5658  10.625   3.605   9.632
 1608W        W 5659   8.086  10.309  11.878
 1609W        W 5660  10.105   8.811   8.933
 1610W        W 5661   6.967   4.622  11.733
 1611W        W 5662   6.564   1.134   9.591
 1612W        W 5663   6.270   8.975   2.675
 1613W        W 5664  10.009   8.948  11.008
 1614W        W 5665   8.328   6.831   0.763
 1615W        W 5666   2.833  11.398   8.814
 1616W        W 5667   2.503   0.067  10.380
 1617W        W 5668   6.642  10.927   1.352
 1618W        W 5669   4.581   9.036  11.942
 1619W        W 5670   9.414   2.885   0.894
 1620W        W 5671   5.011   2.842   3.168
 1621W        W 5672   0.180  10.328   1.416
 1622W        W 5673   9.829   4.805   2.309
 1623W        W 5674  10.078   0.382   9.729
 1624W        W 5675   3.311   9.963   1.304
 1625W        W 5676  10.901   6.475   1.294
 1626W        W 5677   6.105   3.649   1.992
 1627W        W 5678   4.135   4.259  11.194
 1628W        W 5679   0.661  10.818   3.381
 1629W        W 5680   9.386   8.050   1.814
 1630W        W 5681   0.436   6.189  11.773
 1631W        W 5682   4.220  10.114   3.277
 1632W        W 5683   9.447   3.931   2.320
 1633W        W 5684   2.884   2.589  10.507
 1634W        W 5685   0.774   4.202   0.701
 1635W        W 5686   1.818   0.926   8.662
 1636W        W 5687   3.800   3.610  11.379
 1637W        W 5688   2.173   5.691   9.126
 1638W        W 5689   8.110   5.839  10.982
 1639W        W 5690   4.987   9.511   8.955
 1640W        W 5691   3.889   7.541   3.246
 1641W        W 5692   5.615   3.672   2.090
 1642W        W 5693   5.055   3.554   2.782
 1643W        W 5694   0.059   6.704   2.386
 1644W        W 5695  10.462   3.213   2.702
 1645W        W 5696   5.660   7.662   1.920
 1646W        W 5697   7.361   0.921   8.468
 1647W        W 5698   7.976   4.999  10.396
 1648W        W 5699   4.438   1.082  11.050
 1649W        W 5700   2.661   3.295   0.218
 1650W        W 5701   0.452   0.283   3.407
 1651W        W 5702   3.198   3.626  10.555
 1652W        W 5703   3.188   6.047   9.801
 1653W        W 5704   9.895   2.862   1.152
 1654W        W 5705   0.419   8.619  10.049
 1655W        W 5706   7.097   2.836   0.463
 1656W        W 5707   8.114  10.041   2.368
 1657W        W 5708   0.842   8.364  11.277
 1658W        W 5709   6.192   5.299   2.406
 1659W        W 5710   1.890   2.289   1.866
 1660W        W 5711   3.224   5.311   2.477
 1661W        W 5712   5.811   5.043   0.392
 1662W        W 5713   5.165   9.749  11.712
 1663W        W 5714   1.371   5.757   1.790
 1664W        W 5715   2.158   9.031   8.915
 1665W        W 5716  10.515   6.983   9.083
 1666W        W 5717   5.542   7.965   8.688
 1667W        W 5718   4.709   0.936   3.605
 1668W        W 5719   6.421   2.124   9.310
 1669W        W 5720   1.284   7.639   9.020
 1670W        W 5721  11.233   2.813   1.700
 1671W        W 5722   3.415   2.248   3.014
 1672W        W 5723  10.829   3.690   0.940
 1673W        W 5724  11.008   6.165   0.539
 1674W        W 5725   0.876   8.650  10.286
 1675W        W 5726   2.669   0.531  11.240
 1676W        W 5727  11.475   8.077   2.587
 1677W        W 5728   7.308  10.766   2.140
 1678W        W 5729  10.420   0.459   8.918
 1679W        W 5730   5.495   6.700   0.368
 1680W        W 5731   2.698   0.248   0.248
 1681W        W 5732   3.514   4.005   2.014
 1682W        W 5733   9.611   2.916  11.070
 1683W        W 5734   4.607   9.367   9.389
 1684W        W 5735   8.713   5.117   0.349
 1685W        W 5736   5.074   4.029   0.087
 1686W        W 5737   1.680   9.494   9.609
 1687W        W 5738   4.779   1.467  11.527
 1688W        W 5739   5.634   9.391  11.778
 1689W        W 5740   1.818   0.475   1.197
 1690W        W 5741   2.707   3.626   3.052
 1691W        W 5742   9.952   4.826   1.247
 1692W        W 5743   9.019   4.820   2.666
 1693W        W 5744   0.065   9.438   3.280
 1694W        W 5745   4.556   4.814   0.467
 1695W        W 5746  10.752   5.757   3.590
 1696W        W 5747   7.073   9.847   2.253
 1697W        W 5748   6.132   4.884  10.393
 1698W        W 5749  10.997   0.717   0.827
 1699W        W 5750   8.464  10.039  10.353
 1700W        W 5751   2.708   3.657   1.534
 1701W        W 5752   3.827  10.254   0.694
 1702W        W 5753  11.135   0.038  11.798
 1703W        W 5754   4.449   9.310   1.283
 1704W        W 5755   4.662  10.790   1.737
 1705W        W 5756   9.068  11.374  10.545
 1706W        W 5757   4.236   7.773  10.961
 1707W        W 5758   5.490  10.763   1.172
 1708W        W 5759   7.925   3.189  11.618
 1709W        W 5760   5.521   6.814  10.054
 1710W        W 5761  10.140   5.166  10.512
 1711W        W 5762   6.240   3.169   2.165
 1712W        W 5763   8.451   5.189   3.330
 1713W        W 5764  10.823   0.744   0.333
 1714W        W 5765  10.106   6.292  11.685
 1715W        W 5766   8.926   3.559   9.962
 1716W        W 5767   4.812   6.983   2.456
 1717W        W 5768   3.338   8.155  11.845
 1718W        W 5769   1.080   7.927  11.091
 1719W        W 5770   2.273   0.929   3.116
 1720W        W 5771   4.207   8.407   9.486
 1721W        W 5772   8.125   7.828   3.059
 1722W        W 5773   7.860  11.485  10.385
 1723W        W 5774   1.467   3.756   1.190
 1724W        W 5775   7.266   4.499   8.206
 1725W        W 5776   6.186  11.218   9.093
 1726W        W 5777   7.870   5.472   1.743
 1727W        W 5778   5.580   1.706   8.969
 1728W        W 5779   2.770   2.687   1.975
 1729W        W 5780   0.428   4.070   0.369
 1730W        W 5781   2.407   8.571   8.817
 1731W        W 5782   3.860  11.132   8.627
 1732W        W 5783   8.404  10.936  11.786
 1733W        W 5784   9.507   0.100   9.368
 1734W        W 5785   5.547   7.984   3.682
 1735W        W 5786   8.974   9.990   3.014
 1736W        W 5787   0.423   0.328   1.037
 1737W        W 5788   6.332   8.014   0.897
 1738W        W 5789   6.217   4.075   8.144
 1739W        W 5790   5.169   2.564  11.772
 1740W        W 5791   3.137   8.339   3.065
 1741W        W 5792   3.073   5.580   1.235
 1742W        W 5793   0.754  10.459  10.633
 1743W        W 5794   5.327   6.935   3.549
 1744W        W 5795   5.996   4.188   3.639
 1745W        W 5796   8.880   5.069   1.132
 1746W        W 5797   6.182   4.320   0.985
 1747W        W 5798   4.694   3.736  10.804
 1748W        W 5799   6.599   7.980   8.532
 1749W        W 5800   0.928   2.932   0.755
 1750W        W 5801   1.692   3.243   1.911
 1751W        W 5802  10.945   5.540   2.185
 1752W        W 5803   9.438   4.256  10.902
 1753W        W 5804   3.672   6.176   9.658
 1754W        W 5805   3.620   3.546   9.900
 1755W        W 5806   6.316   5.377  10.437
 1756W        W 5807   9.904   4.692   8.897
 1757W        W 5808  10.781   7.686   9.071
 1758W        W 5809   4.249   5.586  10.876
 1759W        W 5810   5.704  10.503   8.910
 1760W        W 5811   5.918   3.795   2.858
 1761W        W 5812   7.215  10.128   0.434
 1762W        W 5813   3.379   9.777   3.610
 1763W        W 5814  11.447   8.054   1.877
 1764W        W 5815   5.693   4.118   0.256
 1765W        W 5816   4.170   6.666   0.302
 1766W        W 5817   6.908   0.750  10.302
 1767W        W 5818  10.455  10.539   0.569
 1768W        W 5819   2.916   2.965  11.911
 1769W        W 5820  10.030   2.563  11.293
 1770W        W 5821   4.452   6.653   3.563
 1771W        W 5822   1.343   8.933   2.422
 1772W        W 5823   2.171   3.318  10.485
 1773W        W 5824   7.938   9.168   9.678
 1774W        W 5825   3.283   4.010   2.878
 1775W        W 5826  11.148   9.496   9.530
 1776W        W 5827   2.757   3.735   8.952
 1777W        W 5828   9.096   8.073   2.248
 1778W        W 5829   7.763   2.844   2.802
 1779W        W 5830   7.498   3.144  10.909
 1780W        W 5831   8.510   0.620   1.191
 1781W        W 5832   6.542   0.796  11.555
 1782W        W 5833   6.520   2.219   2.402
 1783W        W 5834   9.657   8.702  11.310
 1784W        W 5835   3.235   9.811   2.348
 1785W        W 5836   4.594   0.335   1.416
 1786W        W 5837   6.716   1.100  11.960
 1787W        W 5838   5.207   1.015   3.457
 1788W        W 5839   4.481   5.381  10.444
 1789W        W 5840   0.992   8.525   9.370
 1790W        W 5841  10.771   8.464  10.903
 1791W        W 5842   7.085   9.742   1.210
 1792W        W 5843   1.949   2.232   9.991
 1793W        W 5844   6.533   8.342   0.246
 1794W        W 5845   3.381   9.100  11.518
 1795W        W 5846   5.996   7.882  11.020
 1796W        W 5847   6.237   6.475   9.834
 1797W        W 5848   1.242   0.987   0.938
 1798W        W 5849   1.432   3.092   9.906
 1799W        W 5850   1.701   4.543   3.316
 1800W        W 5851   4.041   6.753   2.875
 1801W        W 5852   6.030   1.838   9.503
 1802W        W 5853  10.780   9.119   2.953
 1803W        W 5854   9.761   8.435   8.954
 1804W        W 5855   1.488   8.020   0.031
 1805W        W 5856   9.395   6.664   1.036
 1806W        W 5857   9.402   4.707   3.577
 1807W        W 5858   0.668   6.715  11.801
 1808W        W 5859   2.613  10.564  11.433
 1809W        W 5860   3.798   2.161   9.037
 1810W        W 5861  10.911  10.894   9.957
 1811W        W 5862  10.942   6.663   3.165
 1812W        W 5863   8.027  10.080  10.092
 1813W        W 5864   4.674  10.916   3.288
 1814W        W 5865   1.486   9.683   0.060
 1815W        W 5866   9.529   2.666   1.483
 1816W        W 5867   4.282  10.813  10.615
 1817W        W 5868   9.240   5.162  10.715
 1818W        W 5869   3.227   3.833  11.539
 1819W        W 5870   5.714   4.235   9.933
 1820W        W 5871   4.092  10.027  10.227
 1821W        W 5872   1.301   9.129   2.902
 1822W        W 5873   2.586  10.058   2.984
 1823W        W 5874   6.626   9.443   9.259
 1824W        W 5875   1.623   5.555   0.458
 1825W        W 5876   8.879   4.184   9.678
 1826W        W 5877   9.920   7.175   2.648
 1827W        W 5878   2.490   5.332   1.013
 1828W        W 5879   4.174   3.105  11.060
 1829W        W 5880   1.382   5.797   9.629
 1830W        W 5881   1.081   2.921   3.478
 1831W        W 5882   1.721   6.629  10.999
 1832W        W 5883   1.155  10.960   9.369
 1833W        W 5884   4.132   5.223  11.555
 1834W        W 5885   0.560  10.228   8.873
 1835W        W 5886   5.013   5.809   9.588
 1836W        W 5887   1.366   3.820   1.844
 1837W        W 5888   0.257   3.525   9.897
 1838W        W 5889   9.961   0.485   8.687
 1839W        W 5890   9.522   1.940   9.009
 1840W        W 5891   4.627   3.226   0.250
 1841W        W 5892   9.177   0.473   9.542
 1842W        W 5893   3.592   4.211   3.266
 1843W        W 5894   8.527   5.381  10.948
 1844W        W 5895   5.676   8.718   1.867
 1845W        W 5896  10.086   2.722   9.412
 1846W        W 5897  10.217   3.415  10.884
 1847W        W 5898   8.004   9.466   8.821
 1848W        W 5899   0.799   8.255   2.299
 1849W        W 5900   0.726   8.099   9.230
 1850W        W 5901   9.090   6.661   2.912
 1851W        W 5902   8.535  10.353   0.186
 1852W        W 5903   6.571   2.649  11.191
 1853W        W 5904   0.249   5.870   1.474
 1854W        W 5905   1.815   2.792   1.196
 1855W        W 5906   3.474   8.411   1.622
 1856W        W 5907   3.835   4.810  10.862
 1857W        W 5908   8.079   2.671   8.457
 1858W        W 5909   1.535  11.026   0.857
 1859W        W 5910   6.727   9.900   0.365
 1860W        W 5911   5.845   6.230  11.473
 1861W        W 5912   4.661  11.278   2.903
 1862W        W 5913   7.168   9.387   1.956
 1863W        W 5914  10.654  11.395  11.785
 1864W        W 5915   2.007   6.282  11.860
 1865W        W 5916   7.465   3.335   1.571
 1866W        W 5917   5.759   4.113   3.200
 1867W        W 5918   8.131  10.832   1.722
 1868W        W 5919   2.459  10.880  10.900
 1869W        W 5920  11.263   4.279   2.981
 1870W        W 5921   7.177   2.647   9.476
 1871W        W 5922   9.261   0.673   1.781
 1872W        W 5923   7.206   3.262   3.032
 1873W        W 5924   2.204   3.681   3.256
 1874W        W 5925  10.334   3.377   9.983
 1875W        W 5926   1.365   9.202   1.979
 1876W        W 5927   3.727   2.084   8.451
 1877W        W 5928  10.278   3.898   9.918
 1878W        W 5929   6.928   5.363   2.037
 1879W        W 5930   4.548   2.726   0.992
 1880W        W 5931   6.247   3.663   1.492
 1881W        W 5932   8.357  10.836   9.528
 1882W        W 5933   4.746   5.231   0.759
 1883W        W 5934   7.116   4.531   1.714
 1884W        W 5935  11.036  11.331   0.263
 1885W        W 5936   9.733   5.947  11.717
 1886W        W 5937   6.702  10.446   9.473
 1887W        W 5938   5.304  10.947   8.977
 1888W        W 5939   6.288   2.344   1.366
 1889W        W 5940   4.578   0.557   2.432
 1890W        W 5941   0.473   2.754  10.571
 1891W        W 5942  10.883   1.950   2.772
 1892W        W 5943   6.461   6.055   0.978
 1893W        W 5944   1.943  10.132   1.949
 1894W        W 5945   1.156   0.853   9.113
 1895W        W 5946   3.485   9.603   9.689
 1896W        W 5947  10.392   2.766   2.451
 1897W        W 5948   1.239   8.039   9.366
 1898W        W 5949   0.368   0.812   2.421
 1899W        W 5950   1.703   5.557   1.429
 1900W        W 5951   3.184   8.867   3.140
 1901W        W 5952  10.042   4.987  10.032
 1902W        W 5953   2.095   1.825   1.744
 1903W        W 5954   8.433   3.268  10.428
 1904W        W 5955   3.786   3.100  11.381
 1905W        W 5956   9.054   6.082   9.082
 1906W        W 5957  11.187   5.728  11.222
 1907W        W 5958   1.766   4.597   1.490
 1908W        W 5959   8.705   2.514   2.795
 1909W        W 5960  11.361  10.564  11.100
 1910W        W 5961  10.036   2.611  10.325
 1911W        W 5962   8.246   0.914  10.396
 1912W        W 5963   5.523   2.114   2.561
 1913W        W 5964   5.620   0.383   9.632
 1914W        W 5965  10.959   5.214  11.490
 1915W        W 5966  10.117   3.590   9.530
 1916W        W 5967   0.270   7.268   2.972
 1917W        W 5968   3.332  11.363   1.409
 1918W        W 5969   6.718   6.138   8.693
 1919W        W 5970   1.437   7.059   8.422
 1920W        W 5971  11.478   5.625   9.198
 1921W        W 5972  10.127   6.051   2.220
 1922W        W 5973   5.059  10.318   2.318
 1923W        W 5974   0.423   9.867   3.467
 1924W        W 5975   9.158   9.569   0.333
 1925W        W 5976   9.017  10.483   2.210
 1926W        W 5977   1.799   8.939   1.820
 1927W        W 5978   2.239   2.781  10.068
 1928W        W 5979   4.105   4.242   1.547
 1929W        W 5980   2.229   1.936   3.756
 1930W        W 5981   4.109   3.336  10.044
 1931W        W 5982   0.189   1.459   1.693
 1932W        W 5983   8.457  10.716   2.766
 1933W        W 5984   4.629   3.862   2.813
 1934W        W 5985   6.630   8.443  10.235
 1935W        W 5986   2.996  10.442  10.107
 1936W        W 5987   3.186   1.774   9.014
 1937W        W 5988   9.576  10.768   1.008
 1938W        W 5989   3.497   8.006   0.924
 1939W        W 5990   5.414   7.827   9.191
 1940W        W 5991   4.039   2.575   2.515
 1941W        W 5992   7.694  11.032   0.461
 1942W        W 5993   3.612   2.105   0.244
 1943W        W 5994   6.586   1.267   9.064
 1944W        W 5995   8.082   8.323   2.773
 1945W        W 5996   0.897   0.373   2.381
 1946W        W 5997   6.902   3.320   0.575
 1947W        W 5998   4.165   9.070   1.696
 1948W        W 5999   3.463   0.514   3.721
 1949W        W 6000   3.672   3.562   1.786
 1950W        W 6001   9.918   4.763  10.782
 1951W        W 6002   7.235   1.877   2.681
 1952W        W 6003   8.680   3.681  11.305
 1953W        W 6004  11.407   9.913   9.333
 1954W        W 6005   9.804   0.101   0.993
 1955W        W 6006   1.466   5.104   2.126
 1956W        W 6007   2.421   6.121   8.814
 1957W        W 6008   3.373   9.484   0.403
 1958W        W 6009   8.610   5.261  11.862
 1959W        W 6010   5.986   6.067  10.979
 1960W        W 6011  10.539   3.419   0.258
 1961W        W 6012   3.109  11.347  11.127
 1962W        W 6013   8.625   8.805   1.229
 1963W        W 6014   1.781   5.979   2.213
 1964W        W 6015   1.661  10.810   9.268
 1965W        W 6016  11.280   9.759  11.362
 1966W        W 6017   5.301   8.956   0.699
 1967W        W 6018  10.573  11.351  10.944
 1968W        W 6019  11.451   7.572   1.688
 1969W        W 6020   9.916   5.601   0.026
 1970W        W 6021   1.320   1.419   3.172
 1971W        W 6022   4.774   1.701  11.985
 1972W        W 6023   6.535   7.557   1.004
 1973W        W 6024   4.978   6.538   3.562
 1974W        W 6025   3.843   3.167   1.487
 1975W        W 6026   7.130   8.846  11.057
 1976W        W 6027   3.267   2.686   1.745
 1977W        W 6028   2.255   7.924   1.195
 1978W        W 6029   3.685   0.299   3.206
 1979W        W 6030   4.156  11.199  10.296
 1980W        W 6031  10.419   5.185  11.476
 1981W        W 6032   2.840   8.794   0.807
 1982W        W 6033  10.878   3.277   9.309
 1983W        W 6034   3.940   7.125   9.260
 1984W        W 6035   3.857   3.384  11.827
 1985W        W 6036  11.419   3.120   9.979
 1986W        W 6037   2.221   8.921  11.324
 1987W        W 6038   6.211  10.808  10.740
 1988W        W 6039   2.194   2.224  11.485
 1989W        W 6040   3.263   9.063  10.640
 1990W        W 6041   1.291   5.288   1.649
 1991W        W 6042   9.751   4.591  10.198
 1992W        W 6043   3.898   8.200   8.364
 1993W        W 6044   8.127  10.457   2.041
 1994W        W 6045   6.966   8.432   0.569
 1995W        W 6046   5.542   2.367   9.751
 1996W        W 6047   0.688   5.989   1.221
 1997W        W 6048   1.678   6.702  11.984
 1998W        W 6049   6.081   8.899   1.609
 1999W        W 6050   0.637   1.828   9.049
 2000W        W 6051   2.765   1.124  10.437
 2001W        W 6052   6.064   0.400   2.273
 2002W        W 6053   8.564   9.718   1.611
 2003W        W 6054  11.428   0.899  11.847
 2004W        W 6055   7.217   7.829   9.944
 2005W        W 6056   8.637  10.010  11.079
 2006W        W 6057   3.333   2.246   9.784
 2007W        W 6058   1.812   6.444   1.944
 2008W        W 6059   3.647   8.913   9.040
 2009W        W 6060   2.255   3.677  11.282
 2010W        W 6061  10.074   0.253   1.456
 2011W        W 6062   8.254   1.541  11.293
 2012W        W 6063   2.904   1.865  11.233
 2013W        W 6064   8.380   9.572   0.022
 2014W        W 6065   0.307   7.956   9.511
 2015W        W 6066   2.700   3.462   8.523
 2016W        W 6067   1.260   9.327   3.453
 2017W        W 6068  10.848   7.020  10.848
 2018W        W 6069   3.833   7.488   0.249
 2019W        W 6070   2.000   7.714   3.174
 2020W        W 6071   1.814   1.345   2.068
 2021W        W 6072   9.389   9.375  11.871
 2022W        W 6073   1.621  10.510   1.778
 2023W        W 6074   8.005  11.440   0.914
 2024W        W 6075   8.592   0.599   2.281
 2025W        W 6076   4.268   4.566  11.688
 2026W        W 6077   2.429   7.437   4.081
 2027W        W 6078   9.507   9.827   9.001
 2028W        W 6079   8.062   5.317   3.618
 2029W        W 6080   9.644  10.960  11.286
 2030W        W 6081   8.900   3.634  10.839
 2031W        W 6082   6.097   9.491   0.758
 2032W        W 6083   2.626  10.876   0.204
 2033W        W 6084  10.607   0.298   3.209
 2034W        W 6085   1.553   2.419   0.098
 2035W        W 6086  10.890   1.177   8.610
 2036W        W 6087   9.082  11.259   2.163
 2037W        W 6088   8.161   7.543   1.817
 2038W        W 6089   3.102   1.486   3.361
 2039W        W 6090   2.250   4.906   3.783
 2040W        W 6091   0.115   6.760  10.135
 2041W        W 6092  10.366   7.000  11.978
 2042W        W 6093  10.819   6.107  11.197
 2043W        W 6094   1.651   2.797   3.183
 2044W        W 6095  10.126   2.778   8.886
 2045W        W 6096   4.814  10.069   1.369
 2046W        W 6097   5.690  11.348   8.933
 2047W        W 6098   2.784   4.557   1.461
 2048W        W 6099   4.492  11.258  11.960
 2049W        W 6100   8.974   9.499  10.306
 2050W        W 6101   3.037   7.795   0.712
 2051W        W 6102   5.689   8.194   1.879
 2052W        W 6103   6.418   3.342   9.358
 2053W        W 6104   1.101   2.219   1.484
 2054W        W 6105   5.540   5.706   0.449
 2055W        W 6106   8.910   5.925  11.416
 2056W        W 6107  11.476   6.761   0.870
 2057W        W 6108   6.740  10.429   1.490
 2058W        W 6109   4.380   6.529   0.955
 2059W        W 6110  10.781   5.151   1.383
 2060W        W 6111   0.407  10.331   9.901
 2061W        W 6112   6.962   3.762   2.286
 2062W        W 6113   4.026   7.931   0.966
 2063W        W 6114   5.510   3.307   1.699
 2064W        W 6115  11.263   0.409  11.097
 2065W        W 6116   1.819  10.415   2.773
 2066W        W 6117   1.000   9.937   1.351
 2067W        W 6118  10.460   8.965  11.278
 2068W        W 6119   9.666   8.161   9.569
 2069W        W 6120   1.903   2.520  11.757
 2070W        W 6121   5.971   6.177   8.930
 2071W        W 6122   0.645   1.635   1.868
 2072W        W 6123   2.213  11.329  10.912
 2073W        W 6124   4.195  10.280   2.380
 2074W        W 6125   5.265   9.607   4.099
 2075W        W 6126   2.942   8.382   8.116
 2076W        W 6127   2.843   2.936  10.902
 2077W        W 6128   7.395   2.995  11.754
 2078W        W 6129   5.454   4.658   0.350
 2079W        W 6130   1.830   0.190   3.244
 2080W        W 6131  10.900   5.977   2.421
 2081W        W 6132   6.947   9.923  11.480
 2082W        W 6133   5.748   4.770  10.051
 2083W        W 6134  11.472   5.066   1.828
 2084W        W 6135   8.106   2.861   8.961
 2085W        W 6136   4.130   3.038   2.718
 2086W        W 6137   3.591  11.052   0.378
 2087W        W 6138   2.262   9.076   3.255
 2088W        W 6139   1.677   1.869   0.770
 2089W        W 6140   0.299  10.033  10.644
 2090W        W 6141  10.452   5.486   9.453
 2091W        W 6142  10.817   9.659  10.464
 2092W        W 6143   1.388   1.763  11.277
 2093W        W 6144   9.235   3.884   1.830
 2094W        W 6145   2.619   3.190   1.783
 2095W        W 6146   8.582   1.824   9.546
 2096W        W 6147   8.195  11.099  10.455
 2097W        W 6148   8.233   5.062   0.479
 2098W        W 6149   2.406   5.331   0.026
 2099W        W 6150   3.185   7.974   1.325
 2100W        W 6151   3.667   7.576   9.207
 2101W        W 6152   1.328   9.434   2.438
 2102W        W 6153   7.620  10.374   9.003
 2103W        W 6154   0.068   0.557   9.812
 2104W        W 6155  10.391   2.417   0.299
 2105W        W 6156  11.046   5.986  11.644
 2106W        W 6157   1.958   3.175   9.132
 2107W        W 6158  10.003   6.173   9.896
 2108W        W 6159   6.150  10.824   2.883
 2109W        W 6160  11.429   2.761   2.167
 2110W        W 6161   7.144   7.022  11.527
 2111W        W 6162   0.051   3.355  11.379
 2112W        W 6163   5.702   0.751   2.197
 2113W        W 6164   0.196   3.180  11.863
 2114W        W 6165   3.890   1.045  11.388
 2115W        W 6166   1.896   0.242  10.871
 2116W        W 6167   6.015   4.393  10.312
 2117W        W 6168   9.346   7.595   8.793
 2118W        W 6169   3.312   5.114   9.641
 2119W        W 6170   3.404   3.258   3.142
 2120W        W 6171   3.583   9.324  10.246
 2121W        W 6172  10.216   0.295   2.885
 2122W        W 6173   3.997   8.912   9.427
 2123W        W 6174   5.408   8.084   4.196
 2124W        W 6175   2.190   8.432   2.115
 2125W        W 6176  10.414   6.529   2.432
 2126W        W 6177   8.126   9.966   0.252
 2127W        W 6178  11.316   3.903   1.022
 2128W        W 6179   0.849   7.422   1.749
 2129W        W 6180  10.460   6.753   1.349
 2130W        W 6181   1.919   9.684  11.323
 2131W        W 6182   3.290   2.236  10.285
 2132W        W 6183   8.564   2.619   3.614
 2133W        W 6184   4.607   2.404   9.578
 2134W        W 6185   3.174   9.409  11.923
 2135W        W 6186   2.112   5.612   0.337
 2136W        W 6187  10.048   1.162   2.585
 2137W        W 6188   1.047   3.662   1.484
 2138W        W 6189   9.562   9.783  10.825
 2139W        W 6190   0.809   6.128  10.401
 2140W        W 6191  10.047   0.809   9.095
 2141W        W 6192   9.158   1.270   3.193
 2142W        W 6193   9.258   8.385  11.474
 2143W        W 6194   1.895   1.913   1.274
 2144W        W 6195   4.370   4.397   0.187
 2145W        W 6196   8.645   1.755   0.421
 2146W        W 6197   9.760   6.724   1.849
 2147W        W 6198   1.659   9.394   1.603
 2148W        W 6199   4.487   8.376  10.028
 2149W        W 6200   3.758   9.674   8.857
 2150W        W 6201   3.620   0.264   2.252
 2151W        W 6202   0.472   8.855   9.292
 2152W        W 6203   2.458   3.212   3.202
 2153W        W 6204   5.060   2.978  10.007
 2154W        W 6205   5.237   8.626   3.065
 2155W        W 6206   1.441   1.746  11.780
 2156W        W 6207   9.998  10.510  11.818
 2157W        W 6208   4.555   4.201   3.394
 2158W        W 6209   4.118   2.554   0.770
 2159W        W 6210   8.284   3.695   1.883
 2160W        W 6211   0.546  10.344   1.828
 2161W        W 6212   7.871   4.097   9.335
 2162W        W 6213   0.784   3.693   9.073
 2163W        W 6214   7.058   3.372  11.061
 2164W        W 6215   1.624  10.549  10.387
 2165W        W 6216   6.610   4.559   0.865
 2166W        W 6217   5.254   1.158   9.558
 2167W        W 6218   0.120   7.095   1.252
 2168W        W 6219   2.128  11.332   2.330
 2169W        W 6220   7.059   0.388   9.433
 2170W        W 6221   2.747   5.653  11.775
 2171W        W 6222   5.555   9.441   2.292
 2172W        W 6223   0.824   4.820  10.929
 2173W        W 6224   1.744   8.064  10.065
 2174W        W 6225   2.495   9.048   1.562
 2175W        W 6226   9.632   8.456   1.644
 2176W        W 6227   8.400   2.325   3.205
 2177W        W 6228   7.034   9.726   0.721
 2178W        W 6229   9.586   7.461  11.648
 2179W        W 6230  11.256   6.085   1.486
 2180W        W 6231  10.592   6.125   2.057
 2181W        W 6232   7.706   0.672   9.288
 2182W        W 6233   1.527   9.499  10.998
 2183W        W 6234   9.981   1.732   2.113
 2184W        W 6235   3.224   6.077   1.270
 2185W        W 6236   3.792   9.262  11.246
 2186W        W 6237   5.091   5.563   0.255
 2187W        W 6238   8.646   3.746  10.392
 2188W        W 6239   0.926   9.766  11.411
 2189W        W 6240   9.897   8.893   2.391
 2190W        W 6241  11.064   3.175   0.963
 2191W        W 6242   9.788   7.498   9.048
 2192W        W 6243  10.815   7.528  10.897
 2193W        W 6244   5.461   4.087   9.528
 2194W        W 6245   7.104   7.467  11.273
 2195W        W 6246   1.781   0.524   1.720
 2196W        W 6247   9.240   0.754  10.726
 2197W        W 6248   3.722   3.276   1.008
 2198W        W 6249   8.383   6.321   0.775
 2199W        W 6250   1.787   9.034   9.796
 2200W        W 6251   3.135   0.244   0.011
 2201W        W 6252   1.357   7.096   0.072
 2202W        W 6253   2.833   7.940  10.953
 2203W        W 6254  10.487  11.359   2.950
 2204W        W 6255   0.786   9.898  10.041
 2205W        W 6256   6.461   9.976   1.831
 2206W        W 6257   6.554   0.880   3.384
 2207W        W 6258   7.672   6.345   1.192
 2208W        W 6259   7.911   5.588   0.204
 2209W        W 6260   9.402   3.762  10.814
 2210W        W 6261  10.414   6.999   2.700
 2211W        W 6262   2.288   8.453   0.196
 2212W        W 6263   5.096   7.018   1.872
 2213W        W 6264   8.467  11.326  11.206
 2214W        W 6265   5.551  10.231   3.452
 2215W        W 6266  10.460   2.754  11.890
 2216W        W 6267   6.645   0.924  11.048
 2217W        W 6268  10.988   1.392   2.922
 2218W        W 6269   7.619   3.052   3.266
 2219W        W 6270   8.904   4.231  11.647
 2220W        W 6271   1.591  10.249   0.155
 2221W        W 6272  10.657   3.529   1.846
 2222W        W 6273  11.117   9.952  10.888
 2223W        W 6274   7.533   6.253  11.533
 2224W        W 6275   4.585   9.318   0.737
 2225W        W 6276  10.279  11.129   9.251
 2226W        W 6277   5.427   3.758   3.058
 2227W        W 6278   5.618   4.843   0.818
 2228W        W 6279   0.507   0.754  10.030
 2229W        W 6280   1.479   8.647   0.555
 2230W        W 6281   7.400   5.771  11.521
 2231W        W 6282   0.451   3.559  11.643
 2232W        W 6283  10.218   3.682   3.360
 2233W        W 6284   1.417   3.549   8.972
 2234W        W 6285  10.644   7.483  10.334
 2235W        W 6286  10.820   9.076   9.592
 2236W        W 6287   3.532   4.656   0.146
 2237W        W 6288  10.560  10.554   2.306
 2238W        W 6289   6.621   6.322   9.540
 2239W        W 6290   6.207   0.640   0.457
 2240W        W 6291   6.496   7.512  10.525
 2241W        W 6292   5.157   3.546   9.155
 2242W        W 6293   4.648   2.457   1.418
 2243W        W 6294   4.046   4.773   0.295
 2244W        W 6295  10.927   6.908  11.472
 2245W        W 6296   8.103   5.916   1.563
 2246W        W 6297  10.471   4.107  11.399
 2247W        W 6298   6.739   9.814  10.084
 2248W        W 6299   8.408   3.516   9.982
 2249W        W 6300   3.324   9.299   1.335
 2250W        W 6301   8.241   1.183   9.972
 2251W        W 6302   9.756   6.040  10.340
 2252W        W 6303   2.681   1.200   3.245
 2253W        W 6304   4.253   7.194   0.234
 2254W        W 6305   3.724   1.825  10.978
 2255W        W 6306   1.780   3.714   2.613
 2256W        W 6307   7.943   9.792   0.887
 2257W        W 6308  11.283   7.281  10.965
 2258W        W 6309  10.517   7.837   2.679
 2259W        W 6310   9.408   8.504  10.431
 2260W        W 6311   6.682  10.305   9.988
 2261W        W 6312   7.097   5.147  11.816
 2262W        W 6313   2.372   9.477   2.130
 2263W        W 6314   4.322   8.558   2.888
 2264W        W 6315  10.409   7.992   0.064
 2265W        W 6316   5.540   7.117   2.205
 2266W        W 6317   2.900   7.251  10.290
 2267W        W 6318   3.821   4.577   9.057
 2268W        W 6319   0.368   0.986  10.517
 2269W        W 6320  11.227   3.686   9.976
 2270W        W 6321   6.250   3.168   2.729
 2271W        W 6322   1.201   8.775  11.943
 2272W        W 6323   3.547   8.475   2.243
 2273W        W 6324   0.075  10.096  11.105
 2274W        W 6325   0.391   6.402   9.278
 2275W        W 6326   3.754  10.527   2.460
 2276W        W 6327   1.940   4.316  11.922
 2277W        W 6328   7.935   1.448   2.604
 2278W        W 6329   2.226  10.795  10.088
 2279W        W 6330   1.231  10.948  11.858
 2280W        W 6331   7.551   4.511   0.964
 2281W        W 6332   4.590   0.685   8.968
 2282W        W 6333   7.720   8.478  10.863
 2283W        W 6334   3.405   1.755  10.437
 2284W        W 6335   8.544   8.175  10.430
 2285W        W 6336   3.368   0.290   8.372
 2286W        W 6337   6.215   7.002  11.408
 2287W        W 6338   0.451   8.139   1.715
 2288W        W 6339   4.459   0.425   3.329
 2289W        W 6340   6.306   6.962   2.656
 2290W        W 6341   2.456   6.621   0.180
 2291W        W 6342   2.952   5.115  10.011
 2292W        W 6343   5.936  10.925   0.950
 2293W        W 6344   9.002   9.100   0.056
 2294W        W 6345   0.553  11.488   2.307
 2295W        W 6346   8.737   0.362   3.281
 2296W        W 6347   4.587  10.400  10.845
 2297W        W 6348   4.239   7.625   2.730
 2298W        W 6349   1.680   9.009   8.734
 2299W        W 6350   5.493   0.185   0.902
 2300W        W 6351   5.309   6.873  11.295
 2301W        W 6352  10.280   9.884   2.638
 2302W        W 6353   2.591   8.559  11.505
 2303W        W 6354  10.924   4.338  11.341
 2304W        W 6355   1.427   2.858   0.862
 2305W        W 6356   3.132  11.363   9.696
 2306W        W 6357   7.536   7.542   9.383
 2307W        W 6358   6.630   1.968   0.046
 2308W        W 6359   8.391   5.527   1.686
 2309W        W 6360   2.177   9.999  10.374
 2310W        W 6361   2.793   7.048   0.162
 2311W        W 6362   2.336   7.625   2.773
 2312W        W 6363  11.412   7.700   2.223
 2313W        W 6364   2.732   6.033   9.551
 2314W        W 6365   6.115   0.902   2.478
 2315W        W 6366   0.053   2.698   1.304
 2316W        W 6367   7.326   0.353  11.970
 2317W        W 6368   4.541  10.450   9.822
 2318W        W 6369   9.480   5.562   1.596
 2319W        W 6370   5.613   9.932   9.991
 2320W        W 6371  10.904   0.261   8.919
 2321W        W 6372   6.203   8.454   2.633
 2322W        W 6373   6.963   5.993   1.734
 2323W        W 6374   8.478   9.455   9.040
 2324W        W 6375   6.736   8.965   8.303
 2325W        W 6376   8.374  11.204   1.182
 2326W        W 6377   6.474   3.642   0.724
 2327W        W 6378   5.591   6.920   3.104
 2328W        W 6379   8.043   6.585   2.253
 2329W        W 6380   9.445   0.035   2.375
 2330W        W 6381   1.964   4.604  11.457
 2331W        W 6382   6.521   2.736   1.149
 2332W        W 6383   1.935   7.612   1.450
 2333W        W 6384   4.546   8.096  11.270
 2334W        W 6385  10.614   9.212   0.998
 2335W        W 6386   6.434   4.340  11.420
 2336W        W 6387   3.221   1.824   0.418
 2337W        W 6388   9.008   6.731   3.792
 2338W        W 6389   1.750   8.661   1.361
 2339W        W 6390   7.475   4.681   0.490
 2340W        W 6391   3.002   0.458   1.998
 2341W        W 6392   0.727   6.759   3.504
 2342W        W 6393   8.004   5.094   0.956
 2343W        W 6394   3.694   3.070  10.109
 2344W        W 6395   9.704   6.210   0.663
 2345W        W 6396   7.784   3.758   8.967
 2346W        W 6397   2.981   9.708   9.599
 2347W        W 6398   8.144  10.886   0.230
 2348W        W 6399  10.422   5.733   1.325
 2349W        W 6400   6.103   0.424   0.918
 2350W        W 6401   0.043   2.302   0.971
 2351W        W 6402   5.699   0.894   0.020
 2352W        W 6403   9.802   4.262  11.995
 2353W        W 6404   0.235   6.769   2.952
 2354W        W 6405   0.177  10.953   9.479
 2355W        W 6406   5.464   3.225  10.776
 2356W        W 6407   2.149   6.826  11.270
 2357W        W 6408   4.090   0.499   2.977
 2358W        W 6409   2.761   5.566   2.294
 2359W        W 6410  10.891   6.497   2.256
 2360W        W 6411   8.385   2.406  10.581
 2361W        W 6412   6.289   5.222   0.539
 2362W        W 6413   8.953   7.941   1.266
 2363W        W 6414  10.852   7.248  11.976
 2364W        W 6415   5.083   2.262   8.624
 2365W        W 6416   5.859   6.781  11.986
 2366W        W 6417   3.634   5.595   1.186
 2367W        W 6418   2.787  10.045   2.513
 2368W        W 6419   7.651   9.960   1.337
 2369W        W 6420   8.134   5.793   2.078
 2370W        W 6421   7.627   2.905  10.423
 2371W        W 6422   9.113   4.093   1.347
 2372W        W 6423   6.194   4.112  10.973
 2373W        W 6424   7.765   3.456   2.939
 2374W        W 6425   6.065   9.634  11.320
 2375W        W 6426  10.397   1.163  10.829
 2376W        W 6427   7.749   4.403   3.365
 2377W        W 6428   6.248   6.482   1.240
 2378W        W 6429  10.984   2.768   3.046
 2379W        W 6430   7.249   6.594  11.883
 2380W        W 6431   7.948   2.109   3.423
 2381W        W 6432   0.379   3.176  10.276
 2382W        W 6433   0.044  11.322   2.358
 2383W        W 6434   1.605   1.792   8.536
 2384W        W 6435   4.094   3.966   0.104
 2385W        W 6436   8.507   4.677   1.871
 2386W        W 6437   9.929   1.908   3.045
 2387W        W 6438   0.890   5.540   0.938
 2388W        W 6439   7.936   3.257  10.645
 2389W        W 6440   3.239   7.927   2.758
 2390W        W 6441   1.792   5.526   1.956
 2391W        W 6442   2.950  10.483   2.360
 2392W        W 6443   5.453   3.748   9.984
 2393W        W 6444   0.079   6.985   0.409
 2394W        W 6445   1.624   7.514   8.647
 2395W        W 6446   6.659   2.403   3.188
 2396W        W 6447   8.502   1.292   0.208
 2397W        W 6448   1.851   2.777   1.708
 2398W        W 6449   3.616   1.793   0.847
 2399W        W 6450   4.565  11.304   1.880
 2400W        W 6451   0.939   5.514   1.952
 2401W        W 6452   5.281   7.082   2.678
 2402W        W 6453   7.097  10.842  11.697
 2403W        W 6454  10.716   8.519  11.422
 2404W        W 6455   9.835   7.083  11.069
 2405W        W 6456   4.667   1.712  11.076
 2406W        W 6457  10.000   6.566   0.899
 2407W        W 6458   2.926   5.091   9.076
 2408W        W 6459  10.767   4.618  10.480
 2409W        W 6460   0.329   6.285  10.284
 2410W        W 6461   3.272   6.919   0.307
 2411W        W 6462   6.187   1.452   0.644
 2412W        W 6463   1.831   7.150  11.782
 2413W        W 6464   0.751   9.381   1.672
 2414W        W 6465   4.026   1.782   9.753
 2415W        W 6466   7.398  10.810  10.920
 2416W        W 6467   0.688   0.425   0.360
 2417W        W 6468  11.150   6.926   2.181
 2418W        W 6469   5.245   2.624  11.276
 2419W        W 6470   6.546  10.501  11.769
 2420W        W 6471   9.879   6.919   8.459
 2421W        W 6472   3.348   3.626   0.943
 2422W        W 6473   7.940   1.846   9.585
 2423W        W 6474   1.301   9.927   2.395
 2424W        W 6475   9.879   7.106   9.961
 2425W        W 6476   5.379   1.198   0.316
 2426W        W 6477   6.977  10.842  11.182
 2427W        W 6478   5.466   4.327  10.391
 2428W        W 6479   1.830   7.065  10.776
 2429W        W 6480   2.247   8.061   3.488
 2430W        W 6481   5.385   2.296   0.293
 2431W        W 6482   8.979   0.067   0.498
 2432W        W 6483   8.992   5.554  11.075
 2433W        W 6484   1.887   1.161   2.862
 2434W        W 6485   2.806   5.946   0.954
 2435W        W 6486   4.329   3.908   1.863
 2436W        W 6487  10.546   9.324  10.902
 2437W        W 6488  10.082   1.417   3.070
 2438W        W 6489   8.862  10.796   9.972
 2439W        W 6490  10.901   9.949   9.538
 2440W        W 6491  10.086   4.802   1.853
 2441W        W 6492   0.560   0.414   2.760
 2442W        W 6493   8.182   9.739   2.787
 2443W        W 6494   2.224   6.681  10.049
 2444W        W 6495   0.918  10.823   1.453
 2445W        W 6496   2.709   1.454  10.006
 2446W        W 6497   9.960   9.203   8.643
 2447W        W 6498   6.510   7.844   1.440
 2448W        W 6499   0.274   4.762   3.335
 2449W        W 6500   8.366   9.183  10.611
 2450W        W 6501   3.212   3.144   0.891
 2451W        W 6502  10.932  11.494  10.026
 2452W        W 6503   8.580   5.514   9.556
 2453W        W 6504  10.590   8.972  10.013
 2454W        W 6505   1.260   1.503   0.936
 2455W        W 6506   8.523  10.381   2.350
 2456W        W 6507  11.171   5.630   3.205
 2457W        W 6508   6.001   6.704  10.219
 2458W        W 6509   7.323   3.236   1.075
 2459W        W 6510   9.540   4.652   9.254
 2460W        W 6511   3.589   5.061  11.402
 2461W        W 6512   2.927  10.553   0.512
 2462W        W 6513   6.193   1.051  11.273
 2463W        W 6514   5.683   8.762   3.295
 2464W        W 6515   2.724   0.479   0.702
 2465W        W 6516   8.490   7.648   1.418
 2466W        W 6517   3.168   4.265   1.706
 2467W        W 6518   0.106   0.408   2.998
 2468W        W 6519   8.290   5.521   4.040
 2469W        W 6520   1.654   9.484   2.823
 2470W        W 6521  10.702   1.253   0.130
 2471W        W 6522   6.604   5.060   0.919
 2472W        W 6523   2.199   9.486   9.668
 2473W        W 6524   1.322   6.154   3.000
 2474W        W 6525   1.952   4.607   2.884
 2475W        W 6526   8.963   5.904   9.832
 2476W        W 6527   2.215   6.663   2.633
 2477W        W 6528  11.023   8.717   3.189
 2478W        W 6529   8.502   4.161  11.321
 2479W        W 6530   3.156   5.001   2.992
 2480W        W 6531   3.617   9.842  10.259
 2481W        W 6532   7.780   0.279  11.781
 2482W        W 6533   6.198  10.808   9.467
 2483W        W 6534  10.564   8.189   2.312
 2484W        W 6535   5.216  11.473   2.221
 2485W        W 6536   0.531   5.024   0.249
 2486W        W 6537   3.330   4.221  11.855
 2487W        W 6538   3.882   1.709  10.275
 2488W        W 6539   3.664   0.245   0.852
 2489W        W 6540   3.223   9.756   0.840
 2490W        W 6541   7.466   8.920   9.689
 2491W        W 6542   5.260   8.771   1.163
 2492W        W 6543   2.298  11.433   2.821
 2493W        W 6544   9.028   3.124   2.321
 2494W        W 6545   1.419   0.757   1.393
 2495W        W 6546  10.865   0.021  11.327
 2496W        W 6547   8.003   1.786   2.983
 2497W        W 6548  11.276  11.237   9.279
 2498W        W 6549   9.911   5.238   0.374
 2499W        W 6550   5.520   5.353   0.038
 2500W        W 6551   3.140   9.208   9.632
 2501W        W 6552   3.639   4.938   2.248
 2502W        W 6553   1.796   7.663   9.141
 2503W        W 6554   9.336   8.472   9.888
 2504W        W 6555   8.979   6.380   0.118
 2505W        W 6556  10.608   8.954   1.906
 2506W        W 6557   3.265  11.439   0.462
 2507W        W 6558   1.109   9.370   1.325
 2508W        W 6559   5.278   0.484   3.526
 2509W        W 6560   7.131  10.798   2.625
 2510W        W 6561   2.093   7.232   3.289
 2511W        W 6562   1.711   5.047   3.090
 2512W        W 6563   5.690   5.669  10.059
 2513W        W 6564   0.075   3.597   2.056
 2514W        W 6565   0.895   7.179  11.854
 2515W        W 6566   9.686   7.976  10.941
 2516W        W 6567   1.328   3.621  11.205
 2517W        W 6568   8.276  10.918   2.319
 2518W        W 6569   1.772   4.710  10.561
 2519W        W 6570   9.819   5.681   1.989
 2520W        W 6571   3.466   8.041   9.335
 2521W        W 6572   2.623   4.127   3.098
 2522W        W 6573   6.259   1.149   9.989
 2523W        W 6574   5.505   3.759   2.560
 2524W        W 6575   3.101   8.608  11.418
 2525W        W 6576   9.504   5.735   1.117
 2526W        W 6577   8.345   4.172   9.521
 2527W        W 6578   2.260   0.272  11.976
 2528W        W 6579   6.509   4.016   3.672
 2529W        W 6580   4.722   9.730   0.989
 2530W        W 6581   2.760   6.222   1.408
 2531W        W 6582  10.998   6.532  10.705
 2532W        W 6583   1.721   4.074   0.365
 2533W        W 6584   2.921   0.307  10.711
 2534W        W 6585  10.441   9.449   1.869
 2535W        W 6586   2.741   7.558  11.306
 2536W        W 6587   0.413   3.107   1.387
 2537W        W 6588   4.666  10.407   3.169
 2538W        W 6589   0.047   9.628  10.892
 2539W        W 6590   5.640   6.208   1.808
 2540W        W 6591   6.237   8.085   9.493
 2541W        W 6592   2.637   5.111  11.272
 2542W        W 6593   6.065   2.011  11.377
 2543W        W 6594   1.391   4.208   0.009
 2544W        W 6595   6.580   7.607   1.909
 2545W        W 6596   3.618   9.391   3.821
 2546W        W 6597   0.889   7.227   9.049
 2547W        W 6598   7.541   2.289   2.186
 2548W        W 6599  11.335   6.990   3.153
 2549W        W 6600   7.122  10.516   9.862
 2550W        W 6601   8.915   9.196  10.721
 2551W        W 6602  10.338   2.784   0.870
 2552W        W 6603   8.742   6.836  11.940
 2553W        W 6604  11.078   8.994   1.009
 2554W        W 6605  10.438   0.788   9.864
 2555W        W 6606  10.381   3.677   0.684
 2556W        W 6607   1.849   5.847   9.867
 2557W        W 6608   9.763  10.638   2.793
 2558W        W 6609   9.771   0.937  11.909
 2559W        W 6610  10.874   3.495  10.821
 2560W        W 6611   8.807   5.651   9.111
 2561W        W 6612   5.728   3.629   3.438
 2562W        W 6613   3.767   9.858   8.342
 2563W        W 6614   7.492   9.193   0.235
 2564W        W 6615  10.230   5.295   3.942
 2565W        W 6616   0.184   5.660   3.255
 2566W        W 6617   1.683   5.091  11.501
 2567W        W 6618  10.392   8.106  11.459
 2568W        W 6619   6.855   7.206   3.600
 2569W        W 6620   9.663   5.058  10.375
 2570W        W 6621   0.251   1.930   0.334
 2571W        W 6622   7.066   9.480   0.281
 2572W        W 6623   3.028   4.680   9.637
 2573W        W 6624   6.425   4.715  10.022
 2574W        W 6625   4.760   0.483   9.410
 2575W        W 6626   4.907   4.379  10.347
 2576W        W 6627   7.072   1.794   3.156
 2577W        W 6628   8.929   6.318   9.523
 2578W        W 6629   9.838   9.596   2.598
 2579W        W 6630   4.615   8.369  10.526
 2580W        W 6631   4.857   5.716   1.551
 2581W        W 6632   2.220   2.061   9.606
 2582W        W 6633  11.246   5.260   8.947
 2583W        W 6634   6.482   2.695   2.175
 2584W        W 6635   9.351   8.525   0.757
 2585W        W 6636  10.315   3.151   3.720
 2586W        W 6637   2.906   2.467   9.982
 2587W        W 6638  10.542   3.667   2.956
 2588W        W 6639   3.607   7.566  10.248
 2589W        W 6640   1.749   8.435  10.474
 2590W        W 6641   5.009   3.507   0.929
 2591W        W 6642   0.969   2.646   1.747
 2592W        W 6643   3.817  10.926   9.491
 2593W        W 6644  11.422   2.153   3.493
 2594W        W 6645   8.934   5.105   9.802
 2595W        W 6646  11.452   5.538   3.735
 2596W        W 6647   7.377   6.430   0.763
 2597W        W 6648   1.265   0.919   3.280
 2598W        W 6649   3.134   0.197   2.418
 2599W        W 6650   2.726   6.895   9.917
 2600W        W 6651   8.043   3.820  11.034
 2601W        W 6652   9.708   5.225   2.553
 2602W        W 6653   7.234  10.031   8.973
 2603W        W 6654   2.277   5.763   9.607
 2604W        W 6655   3.592   1.774   9.362
 2605W        W 6656  10.979   4.810   9.382
 2606W        W 6657   8.564  11.183   3.661
 2607W        W 6658   3.893   9.324   1.340
 2608W        W 6659   8.040   9.200  10.187
 2609W        W 6660   0.914   5.345   9.113
 2610W        W 6661   0.371   7.681   1.980
 2611W        W 6662   1.621  11.323   2.410
 2612W        W 6663   9.324  10.362   1.355
 2613W        W 6664   0.827   4.836   9.082
 2614W        W 6665   3.278  10.288   0.853
 2615W        W 6666   7.211   2.253   9.162
 2616W        W 6667   9.509   1.496  10.333
 2617W        W 6668   3.786   5.071   1.234
 2618W        W 6669  10.355   7.915  10.311
 2619W        W 6670  10.985   9.330   2.061
 2620W        W 6671   1.824   0.447   0.676
 2621W        W 6672   2.837   9.924  11.960
 2622W        W 6673   0.477   3.220   2.740
 2623W        W 6674   3.903   5.626   1.613
 2624W        W 6675   9.210  10.609  11.707
 2625W        W 6676   2.192   1.742   0.868
 2626W        W 6677   2.224   6.175   2.465
 2627W        W 6678  10.966   7.522   3.487
 2628W        W 6679   7.256   5.669  10.737
 2629W        W 6680   2.718   9.065   2.970
 2630W        W 6681   1.362   5.459  11.133
 2631W        W 6682   5.636   0.727   8.925
 2632W        W 6683   0.372  11.022   2.117
 2633W        W 6684   9.459  10.596   9.375
 2634W        W 6685  10.345   2.266   1.655
 2635W        W 6686   3.135   1.658   0.909
 2636W        W 6687   4.516   3.672   9.942
 2637W        W 6688   7.916   7.121   1.672
 2638W        W 6689   2.066   4.225   8.861
 2639W        W 6690   0.409   4.785  10.265
 2640W        W 6691  10.739   8.636   0.896
 2641W        W 6692   5.396   2.832   1.907
 2642W        W 6693   3.146   7.517  11.007
 2643W        W 6694   5.581   4.103   1.247
 2644W        W 6695   4.569  11.322  10.586
 2645W        W 6696   0.981   9.757  11.936
 2646W        W 6697   3.942  10.611   1.523
 2647W        W 6698   5.068  10.319  11.011
 2648W        W 6699   4.147  10.609   3.453
 2649W        W 6700   4.725   4.283  10.815
 2650W        W 6701  10.803   1.184   2.071
 2651W        W 6702   2.486   7.583   3.285
 2652W        W 6703  10.417  10.379   9.133
 2653W        W 6704   4.707   8.853   1.416
 2654W        W 6705   4.717   3.924   1.515
 2655W        W 6706   7.722   3.988   2.792
 2656W        W 6707   6.981   3.815   0.742
 2657W        W 6708   4.244   3.280   2.280
 2658W        W 6709   5.771   7.108   0.693
 2659W        W 6710   9.502  10.571   0.494
 2660W        W 6711   9.547   0.988   0.827
 2661W        W 6712  10.327   8.360  10.588
 2662W        W 6713   0.436   6.931  11.233
 2663W        W 6714   7.961   1.704  10.076
 2664W        W 6715   8.404   5.052   8.647
 2665W        W 6716   9.841   7.635   9.911
 2666W        W 6717   1.492  10.456   3.241
 2667W        W 6718   0.855   1.004  10.324
 2668W        W 6719  10.431  11.388   3.464
 2669W        W 6720   6.200   9.921  10.056
 2670W        W 6721   9.108   8.910   1.061
 2671W        W 6722   9.818  10.359   1.232
 2672W        W 6723   6.128   2.954  11.224
 2673W        W 6724   8.898   1.027  11.004
 2674W        W 6725  11.199   0.223   2.235
 2675W        W 6726   2.799   5.082   2.663
 2676W        W 6727   8.406  11.237   2.729
 2677W        W 6728   3.216  11.005   1.791
 2678W        W 6729   1.451   3.317   9.461
 2679W        W 6730   9.522   3.660  11.644
 2680W        W 6731   9.814   2.158  10.502
 2681W        W 6732   7.319   8.946   2.167
 2682W        W 6733   7.587  11.210   8.985
 2683W        W 6734   5.792   7.774   3.264
 2684W        W 6735   7.991   0.478  10.471
 2685W        W 6736   6.969   0.479   2.264
 2686W        W 6737   0.997   9.239  11.868
 2687W        W 6738   4.751   0.974  11.464
 2688W        W 6739   7.441   0.071   2.667
 2689W        W 6740   6.986   6.707   0.872
 2690W        W 6741   6.084   7.430   2.701
 2691W        W 6742   6.619   2.673   0.650
 2692W        W 6743   6.725   3.046   2.959
 2693W        W 6744   7.167   8.937   2.649
 2694W        W 6745   6.554   8.351   1.406
 2695W        W 6746   4.785   2.908   8.700
 2696W        W 6747   8.501   6.069   0.204
 2697W        W 6748   3.827   9.877  10.738
 2698W        W 6749  10.399   1.572   1.369
 2699W        W 6750   2.374   6.056  10.483
 2700W        W 6751   0.343   4.549   8.875
 2701W        W 6752   8.433   7.135  11.661
 2702W        W 6753   1.439  10.053   1.909
 2703W        W 6754   5.629   1.463   9.404
 2704W        W 6755   3.732   0.842   9.465
 2705W        W 6756   9.817  11.289   1.393
 2706W        W 6757  10.578   2.640   9.604
 2707W        W 6758   8.117   0.509   0.861
 2708W        W 6759   8.748   3.102   3.552
 2709W        W 6760   9.932   2.360   1.315
 2710W        W 6761   7.625   9.824  10.283
 2711W        W 6762   3.313   0.688   2.322
 2712W        W 6763   6.127   1.804   1.844
 2713W        W 6764   3.243   7.869   3.273
 2714W        W 6765   5.049   9.146  10.268
 2715W        W 6766   2.426   5.169   9.033
 2716W        W 6767   7.753   5.534   3.965
 2717W        W 6768   4.089   5.735  10.426
 2718W        W 6769   2.230   4.649  10.813
 2719W        W 6770   0.607  10.236   9.425
 2720W        W 6771   8.169   6.806   9.058
 2721W        W 6772   6.094   9.588   9.231
 2722W        W 6773   5.875   3.897  10.268
 2723W        W 6774   8.990   8.179   2.728
 2724W        W 6775   0.196   6.045   2.664
 2725W        W 6776  11.144   8.820  10.517
 2726W        W 6777   5.409   0.358   1.876
 2727W        W 6778   0.426   7.852  10.491
 2728W        W 6779  10.930   9.618   3.634
 2729W        W 6780   0.423   3.895   1.809
 2730W        W 6781  11.339   9.868   9.837
 2731W        W 6782   0.718   5.519   1.470
 2732W        W 6783   0.515   8.426   9.582
 2733W        W 6784   0.622   1.923  10.668
 2734W        W 6785   7.195  10.064  10.090
 2735W        W 6786   4.545   5.811  10.157
 2736W        W 6787   7.848  10.894  10.161
 2737W        W 6788  10.074   6.562   3.303
 2738W        W 6789   7.405   0.818   1.102
 2739W        W 6790   5.587   5.155   9.718
 2740W        W 6791   9.907   3.962   2.586
 2741W        W 6792   5.598   8.453  10.460
 2742W        W 6793   8.502  10.175   1.863
 2743W        W 6794   5.209   4.946  11.130
 2744W        W 6795  10.920   8.199   9.048
 2745W        W 6796   7.480   3.478  11.909
 2746W        W 6797   7.147   5.153  10.853
 2747W        W 6798  11.327  10.270  11.523
 2748W        W 6799   0.972   1.196   1.882
 2749W        W 6800   2.215   6.463  10.913
 2750W        W 6801   5.214   4.126  10.802
 2751W        W 6802   8.898   2.327  10.486
 2752W        W 6803   2.915   7.147   2.232
 2753W        W 6804   7.805   3.091   0.093
 2754W        W 6805   8.088  11.357   0.421
 2755W        W 6806   7.531   1.199   9.484
 2756W        W 6807   4.324   8.279   2.030
 2757W        W 6808   2.634   6.720   1.392
 2758W        W 6809   6.476   3.188   1.410
 2759W        W 6810   2.396   4.699   8.836
 2760W        W 6811   7.091   9.910  11.999
 2761W        W 6812  11.134   5.717   0.724
 2762W        W 6813   5.942  10.088   1.861
 2763W        W 6814   9.590   7.970   2.383
 2764W        W 6815   5.246   4.755  10.203
 2765W        W 6816  10.033   1.334   9.027
 2766W        W 6817   5.586   0.391  11.999
 2767W        W 6818   4.817  10.374   0.327
 2768W        W 6819   7.620   8.147   1.093
 2769W        W 6820   2.235   6.129   0.344
 2770W        W 6821   2.834   9.025   1.942
 2771W        W 6822   2.246   0.436   1.507
 2772W        W 6823   2.194   4.687   2.367
 2773W        W 6824   4.029   2.051  11.896
 2774W        W 6825  10.547   1.241   2.714
 2775W        W 6826  10.229   5.122   9.088
 2776W        W 6827   7.740   4.506   2.855
 2777W        W 6828   2.130   5.061  11.227
 2778W        W 6829   3.948  10.683   0.353
 2779W        W 6830   8.648   7.824   3.218
 2780W        W 6831   2.911   9.622   1.250
 2781W        W 6832   5.649   1.200   2.480
 2782W        W 6833   7.681   4.666   8.470
 2783W        W 6834   2.551   4.224   9.441
 2784W        W 6835   7.005   7.572   0.798
 2785W        W 6836  10.285   4.557   0.953
 2786W        W 6837  10.386   8.670   2.296
 2787W        W 6838   4.628   2.760  11.869
 2788W        W 6839   6.501   2.194  10.224
 2789W        W 6840   8.318   3.163  11.965
 2790W        W 6841   8.203  10.533   8.898
 2791W        W 6842   5.782   9.845  10.919
 2792W        W 6843   8.519   9.144   0.266
 2793W        W 6844   5.304   2.285   1.745
 2794W        W 6845   8.498   4.630   1.369
 2795W        W 6846   5.532   8.932   2.355
 2796W        W 6847   5.893   1.201  10.791
 2797W        W 6848   9.767   4.498  11.211
 2798W        W 6849   6.526   0.594   2.738
 2799W        W 6850   2.915   3.255   1.301
 2800W        W 6851   7.185   9.350   3.417
 2801W        W 6852   3.220   6.272  10.255
 2802W        W 6853   5.077   6.474   1.816
 2803W        W 6854   4.476   7.960   9.343
 2804W        W 6855   5.700   7.476   9.439
 2805W        W 6856   9.419   3.372   9.755
 2806W        W 6857   9.532   1.221  11.322
 2807W        W 6858   3.723   4.605   2.613
 2808W        W 6859   5.503   3.679  10.533
 2809W        W 6860  10.104   7.633  11.767
 2810W        W 6861   0.786   6.925   1.753
 2811W        W 6862   0.427   7.927   0.737
 2812W        W 6863   5.671   0.765  11.496
 2813W        W 6864  11.008   8.219  10.227
 2814W        W 6865   9.903   0.242   2.278
 2815W        W 6866   9.832  11.322   9.042
 2816W        W 6867   8.620   9.294   1.922
 2817W        W 6868   7.175   1.882   8.803
 2818W        W 6869   4.694   9.085   8.957
 2819W        W 6870  10.073   4.702   9.388
 2820W        W 6871   1.351   4.177   1.473
 2821W        W 6872   7.145   0.387   3.413
 2822W        W 6873   2.445   0.992   2.207
 2823W        W 6874   1.419  11.412   3.440
 2824W        W 6875   2.975   7.069   8.116
 2825W        W 6876   8.493   0.213   9.018
 2826W        W 6877   0.617   5.784   9.074
 2827W        W 6878   9.979   9.793   8.780
 2828W        W 6879   6.631   1.263   2.439
 2829W        W 6880   4.542   1.816   9.053
 2830W        W 6881   0.270  11.274  11.627
 2831W        W 6882   9.013   6.850   0.382
 2832W        W 6883   6.257   9.006   0.762
 2833W        W 6884  10.650   7.021   2.215
 2834W        W 6885   8.984  10.021   1.963
 2835W        W 6886   3.702   0.631  11.147
 2836W        W 6887   7.869   1.653  11.945
 2837W        W 6888   3.113   1.132   2.518
 2838W        W 6889  11.385   1.271   8.794
 2839W        W 6890  10.234   6.148   2.722
 2840W        W 6891   0.447   3.555  11.130
 2841W        W 6892   8.555  10.192   3.986
 2842W        W 6893   5.231  10.622   1.896
 2843W        W 6894   6.616  10.938  11.521
 2844W        W 6895  10.919   6.850   2.663
 2845W        W 6896   7.494  10.500  11.817
 2846W        W 6897   5.630   6.118   9.371
 2847W        W 6898   1.785   6.013   2.743
 2848W        W 6899   2.396   7.061   2.311
 2849W        W 6900   0.247   9.921  11.575
 2850W        W 6901   2.248   3.884   2.794
 2851W        W 6902  11.451   8.472   3.291
 2852W        W 6903   7.138   6.412   9.633
 2853W        W 6904  10.457  10.574  11.534
 2854W        W 6905   1.070   7.439   2.228
 2855W        W 6906   3.972   3.705   2.178
 2856W        W 6907   8.961   6.356  10.473
 2857W        W 6908   6.566   8.534  11.662
 2858W        W 6909  10.468   1.912   2.352
 2859W        W 6910   1.282   3.346  10.332
 2860W        W 6911   6.052   7.144   2.239
 2861W        W 6912   4.515   3.930   9.505
 2862W        W 6913   0.862  10.730   1.979
 2863W        W 6914   0.393   8.842   0.459
 2864W        W 6915   3.769   2.178  10.086
 2865W        W 6916   7.100   0.410   9.962
 2866W        W 6917  11.072   3.808   1.953
 2867W        W 6918   7.124   0.349  11.003
 2868W        W 6919   7.550   6.676   3.833
 2869W        W 6920   9.627   7.820   0.032
 2870W        W 6921   5.034   8.196  11.164
 2871W        W 6922   4.899   7.992   2.541
 2872W        W 6923   1.576   5.960   8.559
 2873W        W 6924   6.111   9.652   2.058
 2874W        W 6925   1.751   4.166   1.813
 2875W        W 6926   1.068   7.378   8.584
 2876W        W 6927   5.341  10.301   0.408
 2877W        W 6928   0.510   9.944   0.027
 2878W        W 6929   8.353   8.646  11.954
 2879W        W 6930   8.672   5.622   3.098
 2880W        W 6931   5.584   4.717  11.437
 2881W        W 6932   0.763   1.881   0.442
 2882W        W 6933  10.133   4.257   0.407
 2883W        W 6934   6.631   1.918   0.554
 2884W        W 6935   5.319   7.395  11.380
 2885W        W 6936   5.461   9.136   9.464
 2886W        W 6937   5.633   0.775   3.262
 2887W        W 6938  10.341   4.231   2.535
 2888W        W 6939   2.074   8.789  10.852
 2889W        W 6940   6.068   7.090   1.338
 2890W        W 6941   4.791   3.842   3.682
 2891W        W 6942   5.941   2.374   2.720
 2892W        W 6943   9.346   3.770   9.060
 2893W        W 6944   1.719   4.667   1.983
 2894W        W 6945   4.766   2.265   9.105
 2895W        W 6946   2.183   6.631   1.148
 2896W        W 6947   0.033   7.533  10.578
 2897W        W 6948   3.937   9.321   2.872
 2898W        W 6949   2.004   4.157   2.394
 2899W        W 6950   5.144   2.333   4.030
 2900W        W 6951  10.080   2.207  10.046
 2901W        W 6952   3.426  10.261   2.175
 2902W        W 6953   3.755  10.805   3.149
 2903W        W 6954   7.051   9.137  10.559
 2904W        W 6955   7.985   2.801   2.253
 2905W        W 6956   7.076   3.805  10.802
 2906W        W 6957  10.861   2.622   0.233
 2907W        W 6958   7.173   9.580  10.337
 2908W        W 6959   2.307   9.971   2.310
 2909W        W 6960   4.082   6.490   2.033
 2910W        W 6961   7.597   4.726   1.868
 2911W        W 6962   0.397   1.369   8.989
 2912W        W 6963   0.890   3.755   2.022
 2913W        W 6964  11.327   6.262   2.357
 2914W        W 6965   6.770   8.923   2.249
 2915W        W 6966   2.102   0.726  10.850
 2916W        W 6967   2.897   4.683   8.692
 2917W        W 6968  11.045  10.392   9.801
 2918W        W 6969   7.571   3.617   9.942
 2919W        W 6970   0.716   3.104  11.891
 2920W        W 6971   7.524  10.261   3.150
 2921W        W 6972   4.195   3.395   1.770
 2922W        W 6973  10.885   9.464   9.975
 2923W        W 6974   9.546   8.351   3.163
 2924W        W 6975  10.997   4.558   8.910
 2925W        W 6976   8.347   9.501   1.017
 2926W        W 6977   0.960   0.151   9.707
 2927W        W 6978   9.048   4.757   0.275
 2928W        W 6979   6.725   3.812   1.435
 2929W        W 6980   5.179   5.979   1.906
 2930W        W 6981   0.808   3.045   3.067
 2931W        W 6982  10.460   5.655   8.449
 2932W        W 6983   0.998   7.943   0.091
 2933W        W 6984   7.558   3.649  10.960
 2934W        W 6985  11.250   0.254  10.537
 2935W        W 6986   1.933   8.372   2.658
 2936W        W 6987   1.809   3.693   1.586
 2937W        W 6988   8.420   4.776   0.020
 2938W        W 6989   4.753  11.204  11.144
 2939W        W 6990   0.916   3.127   1.528
 2940W        W 6991   7.320   9.950   2.773
 2941W        W 6992   6.915   4.143  11.511
 2942W        W 6993   3.305   2.730   9.620
 2943W        W 6994   1.119   1.924  10.846
 2944W        W 6995   0.652   9.316   9.488
 2945W        W 6996   1.815   8.305   0.346
 2946W        W 6997   7.402   4.849   1.408
 2947W        W 6998   5.419   7.050  11.765
 2948W        W 6999   4.688   3.464   1.323
 2949W        W 7000   0.792   5.090  10.443
 2950W        W 7001   9.915   3.269   3.373
 2951W        W 7002   1.756   8.144   9.379
 2952W        W 7003   3.016   4.786   3.422
 2953W        W 7004   9.701   1.978   0.705
 2954W        W 7005   0.749  10.110   0.885
 2955W        W 7006   2.748   8.362   9.631
 2956W        W 7007   3.771   7.972   9.960
 2957W        W 7008   8.699   3.029   2.729
 2958W        W 7009  10.585   8.182   9.939
 2959W        W 7010   0.254   1.775   3.376
 2960W        W 7011   1.719   9.961   9.810
 2961W        W 7012   2.756   4.762   3.884
 2962W        W 7013   9.919   9.932   9.857
 2963W        W 7014   0.014   0.193   1.352
 2964W        W 7015   6.634   4.542   1.937
 2965W        W 7016   1.709   0.003  11.551
 2966W        W 7017   5.012   4.337   9.476
 2967W        W 7018   5.218   8.938   3.539
 2968W        W 7019   8.244   3.057   3.602
 2969W        W 7020   7.683   6.589   8.964
 2970W        W 7021   7.172   7.571   2.766
 2971W        W 7022  10.253  10.404   2.717
 2972W        W 7023   7.175   4.226  11.047
 2973W        W 7024   9.724   3.737   3.531
 2974W        W 7025   2.770   0.738   1.652
 2975W        W 7026   8.605   9.042   0.794
 2976W        W 7027   5.015   3.156   1.824
 2977W        W 7028   3.112   0.750   1.261
 2978W        W 7029   4.823  10.692  11.224
 2979W        W 7030   2.284   5.216   4.200
 2980W        W 7031   7.116   0.490   0.804
 2981W        W 7032   2.804   6.115  11.496
 2982W        W 7033   2.125   0.749   9.971
 2983W        W 7034   1.826   9.993   8.878
 2984W        W 7035  10.717   8.614  10.365
 2985W        W 7036   0.538   4.974   8.424
 2986W        W 7037   4.156   2.667   9.520
 2987W        W 7038   7.161   6.381   3.994
 2988W        W 7039   7.481   9.071   1.654
 2989W        W 7040   3.216   6.583  10.737
 2990W        W 7041   0.992   4.418  11.204
 2991W        W 7042   2.262   3.760  10.251
 2992W        W 7043  11.258  10.937   3.312
 2993W        W 7044   9.849  10.938   3.216
 2994W        W 7045   5.958   0.929  10.332
 2995W        W 7046   1.264   7.665   0.862
 2996W        W 7047   6.902   7.022   1.571
 2997W        W 7048  10.786   6.042  10.326
 2998W        W 7049   8.666   0.444   9.457
 2999W        W 7050   4.730   4.776  10.994
 3000W        W 7051   9.643   3.580   1.699
 3001W        W 7052   9.398   6.449   2.094
 3002W        W 7053   5.743   9.928   2.370
 3003W        W 7054   8.472   7.819  10.978
 3004W        W 7055   4.676   3.638   0.542
 3005W        W 7056   3.697   3.517  10.421
 3006W        W 7057   9.142   2.773  10.343
 3007W        W 7058   4.263   7.775   0.402
 3008W        W 7059   0.678   1.570   9.499
 3009W        W 7060  10.464   0.395   0.534
 3010W        W 7061   0.285   5.902   9.478
 3011W        W 7062   1.100   8.231   8.899
 3012W        W 7063   9.080   1.726  11.442
 3013W        W 7064   8.920   9.103   1.515
 3014W        W 7065   4.597   0.239   0.886
 3015W        W 7066   1.350   3.709   0.200
 3016W        W 7067   9.274   5.638   3.265
 3017W        W 7068   8.410   9.006   9.870
 3018W        W 7069   4.013   7.446   0.733
 3019W        W 7070   9.038   2.254   1.160
 3020W        W 7071   8.397   4.355   2.244
 3021W        W 7072   6.029  10.490   0.662
 3022W        W 7073  11.284   1.802   1.627
 3023W        W 7074   7.125   4.833   2.124
 3024W        W 7075   2.120   4.220   3.164
 3025W        W 7076   3.275  10.832  10.370
 3026W        W 7077   0.847   5.341  11.363
 3027W        W 7078   5.538   2.797  10.006
 3028W        W 7079   1.780   1.658   3.032
 3029W        W 7080   4.468   7.594   0.909
 3030W        W 7081   1.765   6.034   9.390
 3031W        W 7082   4.186   7.571  11.871
 3032W        W 7083  11.125   9.183   3.386
 3033W        W 7084   4.016   6.668  10.375
 3034W        W 7085   6.179   7.917   2.652
 3035W        W 7086   5.420   1.885   8.525
 3036W        W 7087   0.570   3.405   1.806
 3037W        W 7088   3.539   1.241   3.334
 3038W        W 7089  11.006   1.044   2.519
 3039W        W 7090   4.661   8.105   0.245
 3040W        W 7091   7.451   4.020   9.668
 3041W        W 7092   7.083   6.738   3.603
 3042W        W 7093   8.700   6.465   3.168
 3043W        W 7094   5.966   5.960   0.394
 3044W        W 7095  10.451  10.786   1.862
 3045W        W 7096   4.794   1.981  11.517
 3046W        W 7097   1.469  10.337   9.087
 3047W        W 7098   8.040   3.270   1.591
 3048W        W 7099   6.327  10.722   2.322
 3049W        W 7100   5.506   8.377   9.096
 3050W        W 7101   3.281   9.615   4.142
 3051W        W 7102   2.100   5.571   3.893
 3052W        W 7103   3.983  11.028   1.206
 3053W        W 7104   7.022   3.231   0.072
 3054W        W 7105   7.872   0.764  10.066
 3055W        W 7106  10.117  10.283   8.637
 3056W        W 7107  11.482   4.127   2.025
 3057W        W 7108  10.044   3.459   2.894
 3058W        W 7109   6.748   7.339  11.925
 3059W        W 7110   2.625   0.875   9.031
 3060W        W 7111   2.569   9.600   2.610
 3061W        W 7112   0.859   6.814   2.743
 3062W        W 7113   1.405   1.243  11.945
 3063W        W 7114  11.363   1.316  11.536
 3064W        W 7115   2.041   4.856   9.828
 3065W        W 7116   3.246   5.078   8.676
 3066W        W 7117   5.096   3.913  10.343
 3067W        W 7118   1.175   1.204   1.398
 3068W        W 7119   9.962   2.259   9.061
 3069W        W 7120   7.477   4.978   9.659
 3070W        W 7121   8.965   9.132   3.014
 3071W        W 7122   2.220   9.979   9.857
 3072W        W 7123   4.602  11.094   2.361
 3073W        W 7124   6.671   7.808   0.096
 3074W        W 7125   1.719   8.682  11.397
 3075W        W 7126   8.590  10.722   1.959
 3076W        W 7127   9.957   1.473   1.634
 3077W        W 7128   7.866   3.686   2.397
 3078W        W 7129  10.849   3.096   0.020
 3079W        W 7130   1.608   7.409   3.463
 3080W        W 7131   7.558   6.567   2.432
 3081W        W 7132   9.598   6.583   3.090
 3082W        W 7133   8.427   0.642   1.704
 3083W        W 7134   8.341   0.125  10.373
 3084W        W 7135  11.378   8.076   8.826
 3085W        W 7136   3.062   7.036   2.919
 3086W        W 7137   9.917   0.942   3.023
 3087W        W 7138   2.116   1.282  10.008
 3088W        W 7139   1.699   4.569   2.464
 3089W        W 7140   3.737  10.049   9.794
 3090W        W 7141   0.733  10.561   0.585
 3091W        W 7142   5.160  11.057   3.470
 3092W        W 7143   0.053   8.540   1.770
 3093W        W 7144   8.001   1.950   1.221
 3094W        W 7145   1.193   3.219   0.075
 3095W        W 7146   7.572  11.484   0.654
 3096W        W 7147  11.197   2.240   1.354
 3097W        W 7148   6.780   8.635  10.709
 3098W        W 7149   3.805   3.713   0.737
 3099W        W 7150   8.712   1.389   9.269
 3100W        W 7151  10.944   5.071   3.215
 3101W        W 7152   9.382   8.401  10.971
 3102W        W 7153   4.749   1.675   2.875
 3103W        W 7154   6.323   7.253   3.561
 3104W        W 7155   5.991   6.220   2.210
 3105W        W 7156   0.296   8.796   8.790
 3106W        W 7157   2.949  10.922  10.779
 3107W        W 7158   6.854   2.345   0.328
 3108W        W 7159  11.294   0.802   3.656
 3109W        W 7160   4.067   7.069  11.706
 3110W        W 7161   9.757   1.442  11.981
 3111W        W 7162   1.491   7.794   3.102
 3112W        W 7163   3.861   2.752  10.855
 3113W        W 7164   3.312   4.727   9.055
 3114W        W 7165   2.240  10.445   3.068
 3115W        W 7166   5.528   3.587   3.908
 3116W        W 7167   9.486   3.330   9.257
 3117W        W 7168   6.206  10.719   8.955
 3118W        W 7169   1.315   3.636   2.335
 3119W        W 7170   1.019   3.225   9.160
 3120W        W 7171   6.271   8.776  10.832
 3121W        W 7172   5.497   5.561  11.408
 3122W        W 7173   1.813   2.805   2.261
 3123W        W 7174   1.020   8.461   0.727
 3124W        W 7175   3.826   9.480   2.419
 3125W        W 7176   5.201   2.556  10.285
 3126W        W 7177  10.636   4.411   0.253
 3127W        W 7178   4.008   4.927   8.202
 3128W        W 7179   2.786   4.617   9.189
 3129W        W 7180   1.650   5.145  10.311
 3130W        W 7181   8.896   9.616  11.905
 3131W        W 7182   9.987   0.770  10.566
 3132W        W 7183   2.911  10.904   2.622
 3133W        W 7184   8.904  11.000  10.876
 3134W        W 7185   7.105   8.434   2.864
 3135W        W 7186   4.360   8.040   1.370
 3136W        W 7187   4.203   9.781   2.271
 3137W        W 7188   0.962   9.344   9.926
 3138W        W 7189   1.227   8.787   8.831
 3139W        W 7190   9.834   3.606   9.946
 3140W        W 7191   4.204   3.587   9.235
 3141W        W 7192   9.368   9.981  10.373
 3142W        W 7193   8.873   9.419   8.689
 3143W        W 7194   7.662   8.125   2.529
 3144W        W 7195   1.352   8.383   1.487
 3145W        W 7196   8.641   2.624  11.032
 3146W        W 7197  11.330   9.348   1.284
 3147W        W 7198  10.704   6.082   0.949
 3148W        W 7199   1.901   7.909  10.535
 3149W        W 7200   1.945   0.829   2.128
 3150W        W 7201  10.378   9.388   2.749
 3151W        W 7202   2.765  11.292   9.332
 3152W        W 7203   4.183   0.927  11.833
 3153W        W 7204  10.242   8.597   0.984
 3154W        W 7205   6.638   7.664   2.778
 3155W        W 7206   3.589   0.486   1.318
 3156W        W 7207  10.744   4.819  11.239
 3157W        W 7208   3.181   6.409   0.298
 3158W        W 7209   6.714  11.420  11.344
 3159W        W 7210   1.128   1.605   8.426
 3160W        W 7211   3.835   8.807  11.451
 3161W        W 7212  10.438   4.724   1.419
 3162W        W 7213   5.396   6.530  11.810
 3163W        W 7214   5.171   0.757  11.263
 3164W        W 7215   1.307  11.047   0.372
 3165W        W 7216   3.197   3.872   1.363
 3166W        W 7217  11.293   5.800   8.734
 3167W        W 7218  10.457   3.154   9.037
 3168W        W 7219   1.371   0.102   2.963
 3169W        W 7220   6.285   7.662   3.153
 3170W        W 7221   7.872   4.157   0.711
 3171W        W 7222   6.732   3.672   3.280
 3172W        W 7223   3.861   6.584  11.799
 3173W        W 7224  10.682   5.662  11.438
 3174W        W 7225   4.748   9.919   9.707
 3175W        W 7226   4.065   0.926   1.212
 3176W        W 7227   9.591   4.302   3.298
 3177W        W 7228   8.514   8.694  10.556
 3178W        W 7229   0.075   8.988  10.253
 3179W        W 7230   0.745   6.373   0.866
 3180W        W 7231   4.283   9.030   3.114
 3181W        W 7232   6.278   0.136   0.516
 3182W        W 7233   5.868   3.334   3.048
 3183W        W 7234   2.239   5.299   2.984
 3184W        W 7235   6.453   5.876  10.534
 3185W        W 7236  10.374   7.157  10.031
 3186W        W 7237   9.819   5.751   0.510
 3187W        W 7238   3.535   8.466   0.637
 3188W        W 7239   8.360  10.026   0.700
 3189W        W 7240   9.185   6.496   3.374
 3190W        W 7241   9.234   8.087   8.575
 3191W        W 7242   1.979   2.712   0.209
 3192W        W 7243   1.667  10.020  10.324
 3193W        W 7244   4.478  10.933   1.259
 3194W        W 7245   6.227   5.731  10.085
 3195W        W 7246  10.558   3.679  11.796
 3196W        W 7247   9.999   1.805   8.771
 3197W        W 7248   9.954   6.154   3.593
 3198W        W 7249   6.962   1.318  10.970
 3199W        W 7250   0.337   2.938   3.219
 3200W        W 7251   8.495   5.835   0.680
 3201W        W 7252   8.868   5.459   1.455
 3202W        W 7253   3.318   2.723  10.168
 3203W        W 7254   4.651   6.712   9.128
 3204W        W 7255   8.478   7.453   9.787
 3205W        W 7256   3.690  10.180   8.967
 3206W        W 7257  10.683   9.497   9.330
 3207W        W 7258  11.331   8.371   0.249
 3208W        W 7259  10.897   7.000  10.330
 3209W        W 7260   3.581   1.373  11.171
 3210W        W 7261   2.091   4.439   3.624
 3211W        W 7262   3.140  10.365  11.139
 3212W        W 7263  11.235   9.382   0.201
 3213W        W 7264   8.053   7.953   0.315
 3214W        W 7265   5.789   0.553  10.650
 3215W        W 7266   0.435   8.159   1.186
 3216W        W 7267   1.284   4.348   1.944
 3217W        W 7268   2.068   5.113   8.096
 3218W        W 7269   4.019   7.929   2.348
 3219W        W 7270   7.010  10.819   1.709
 3220W        W 7271   9.428   9.857   1.737
 3221W        W 7272   3.383   4.277   2.445
 3222W        W 7273   1.645   0.549   9.104
 3223W        W 7274   0.325   3.447   8.883
 3224W        W 7275   8.071   7.668   9.997
 3225W        W 7276   9.188   1.453  11.021
 3226W        W 7277   0.790   1.262   1.030
 3227W        W 7278   3.791  11.038   2.562
 3228W        W 7279   7.367   2.436  11.332
 3229W        W 7280   4.106   4.698   2.303
 3230W        W 7281   2.828  10.320   3.400
 3231W        W 7282  10.933   9.626   1.126
 3232W        W 7283   3.091  10.443  10.639
 3233W        W 7284   5.825   1.708   2.432
 3234W        W 7285   2.848  10.086   1.030
 3235W        W 7286   9.747   4.787   3.205
 3236W        W 7287  10.874  11.315   2.634
 3237W        W 7288   6.717   1.260  11.445
 3238W        W 7289  11.053  10.372   2.324
 3239W        W 7290   1.001  11.275  10.453
 3240W        W 7291   9.317  11.283   1.364
 3241W        W 7292   0.925   6.991  11.376
 3242W        W 7293   9.342   1.940  10.541
 3243W        W 7294   5.454   1.413  10.970
 3244W        W 7295   1.713   2.039   2.696
 3245W        W 7296   7.818  10.101   2.775
 3246W        W 7297   3.256   7.287   9.069
 3247W        W 7298   4.851   8.226   2.089
 3248W        W 7299   2.795  10.594   1.030
 3249W        W 7300   8.643   2.119   1.824
 3250W        W 7301   5.698   5.110  11.068
 3251W        W 7302   0.649   3.295   0.978
 3252W        W 7303   6.574   1.243   1.938
 3253W        W 7304   0.791   4.029   9.489
 3254W        W 7305   6.983   9.994  10.556
 3255W        W 7306  10.883   8.573   2.214
 3256W        W 7307   3.611   7.548  10.769
 3257W        W 7308   0.277   2.631   0.543
 3258W        W 7309   9.002   1.889   1.507
 3259W        W 7310   0.470   9.484   9.931
 3260W        W 7311   0.707   5.790  11.587
 3261W        W 7312   1.450   1.956   0.268
 3262W        W 7313   9.502   2.868  11.997
 3263W        W 7314   4.889   9.560   1.442
 3264W        W 7315   2.500   7.568  10.226
 3265W        W 7316   6.552   6.714  10.771
 3266W        W 7317   0.380   4.798   9.349
 3267W        W 7318   8.934  10.011  10.641
 3268W        W 7319   2.879   7.195   1.407
 3269W        W 7320   7.077   3.598   1.767
 3270W        W 7321   1.001   0.955  11.792
 3271W        W 7322   9.963   1.266  11.574
 3272W        W 7323   1.699   5.697  10.835
 3273W        W 7324   5.420  11.308  10.346
 3274W        W 7325  10.526   4.626   9.133
 3275W        W 7326   0.314   7.164  10.804
 3276W        W 7327   5.434  10.396   9.775
 3277W        W 7328   1.405   0.807  11.519
 3278W        W 7329   9.851   9.362  10.124
 3279W        W 7330   2.688   2.642   9.143
 3280W        W 7331   4.976   5.359  11.321
 3281W        W 7332   1.707   4.779  11.911
 3282W        W 7333   8.893   2.916   0.793
 3283W        W 7334   4.522   7.854   2.209
 3284W        W 7335  11.452   0.764   1.394
 3285W        W 7336   6.701   7.976  10.473
 3286W        W 7337  11.269   1.567   9.793
 3287W        W 7338   4.860   9.357   9.851
 3288W        W 7339   1.817   8.990   2.796
 3289W        W 7340   8.213   8.515   1.404
 3290W        W 7341   4.141   4.704   1.297
 3291W        W 7342   0.832   9.789   9.540
 3292W        W 7343   0.938   6.426   2.410
 3293W        W 7344  10.358   8.365   2.751
 3294W        W 7345  10.927   5.702   1.206
 3295W        W 7346  10.086   5.237   2.187
 3296W        W 7347   5.773   1.195   2.985
 3297W        W 7348   9.570   8.874  11.821
 3298W        W 7349   1.215   6.711   9.215
 3299W        W 7350   5.204   5.089   0.990
 3300W        W 7351   1.314   2.468   3.381
 3301W        W 7352   5.295   2.553   2.801
 3302W        W 7353   2.316   4.792   0.664
 3303W        W 7354   1.967  10.874  10.768
 3304W        W 7355   2.215  11.260   0.743
 3305W        W 7356   0.297   9.018   9.753
 3306W        W 7357   1.215  11.271   9.988
 3307W        W 7358  11.216   6.304   8.875
 3308W        W 7359   3.634   1.781   3.186
 3309W        W 7360   3.228   8.487   9.402
 3310W        W 7361   0.064   2.945   9.485
 3311W        W 7362   6.431   3.328   0.329
 3312W        W 7363   5.048  10.842   2.453
 3313W        W 7364   2.808   0.241   9.578
 3314W        W 7365   0.821   5.812   0.083
 3315W        W 7366   2.005   7.996  11.048
 3316W        W 7367   8.822   0.775   9.821
 3317W        W 7368   2.335   1.431   2.943
 3318W        W 7369   9.498   7.127   0.345
 3319W        W 7370   7.374   8.922   8.383
 3320W        W 7371   0.074  10.536   1.891
 3321W        W 7372   1.791  10.304  10.785
 3322W        W 7373   0.789   7.313  10.981
 3323W        W 7374   8.153   4.254   2.672
 3324W        W 7375   0.385   2.715   2.386
 3325W        W 7376   8.267   6.684  11.883
 3326W        W 7377   6.920   2.726   1.766
 3327W        W 7378   5.728   5.611  10.943
 3328W        W 7379  11.257   0.723   8.834
 3329W        W 7380   4.769   7.966   9.776
 3330W        W 7381   4.375  10.856  11.100
 3331W        W 7382   3.227   0.945   9.594
 3332W        W 7383   2.440   2.813   0.047
 3333W        W 7384  10.426   3.129   9.544
 3334W        W 7385   3.406   4.657  11.631
 3335W        W 7386   3.946   8.782  10.955
 3336W        W 7387   2.685   7.258   2.672
 3337W        W 7388   3.545   5.519   8.729
 3338W        W 7389   9.462   8.023   9.070
 3339W        W 7390   8.039   0.835  10.862
 3340W        W 7391   8.236  10.497  10.339
 3341W        W 7392   5.145  11.461   8.977
 3342W        W 7393   9.106  10.898  10.406
 3343W        W 7394  10.809   7.953  11.205
 3344W        W 7395   0.714   2.583   9.811
 3345W        W 7396   1.885  10.517   1.309
 3346W        W 7397  11.033   4.410   3.641
 3347W        W 7398  11.362   3.104   3.126
 3348W        W 7399   2.428   7.162   8.984
 3349W        W 7400   6.501   4.307   9.586
 3350W        W 7401   1.895   3.817   0.867
 3351W        W 7402   9.523   4.575   1.396
 3352W        W 7403   7.944   9.805  11.778
 3353W        W 7404   7.536   7.718   0.453
 3354W        W 7405   5.034   6.492   0.266
 3355W        W 7406   6.421   4.124   8.636
 3356W        W 7407  10.245   9.082  10.365
 3357W        W 7408  11.289   6.545   0.306
 3358W        W 7409   6.513  10.932  10.340
 3359W        W 7410   5.067  11.337  10.755
 3360W        W 7411   4.740   4.137   9.910
 3361W        W 7412   4.650   9.215   1.793
 3362W        W 7413   8.858   6.580   0.803
 3363W        W 7414   2.493   3.219  11.725
 3364W        W 7415   8.764   8.006   9.478
 3365W        W 7416   6.473   2.735   8.911
 3366W        W 7417   3.730   5.688  10.819
 3367W        W 7418   3.189   1.415   9.798
 3368W        W 7419  10.119   7.919   2.384
 3369W        W 7420   9.880   7.009   3.112
 3370W        W 7421   7.428   5.736   1.786
 3371W        W 7422   2.680  10.437  10.935
 3372W        W 7423   2.186  10.480  11.065
 3373W        W 7424   5.179  10.212  11.933
 3374W        W 7425   8.995   6.595   2.427
 3375W        W 7426   1.974   8.918   3.641
 3376W        W 7427   9.560   2.649  11.537
 3377W        W 7428  11.450  10.268  10.117
 3378W        W 7429   3.133   1.827   2.968
 3379W        W 7430   4.915   5.690  10.526
 3380W        W 7431   4.670   3.430   9.486
 3381W        W 7432   8.044   1.068  11.327
 3382W        W 7433   0.803   9.285  11.389
 3383W        W 7434   7.373   3.612   2.669
 3384W        W 7435   1.677   6.697   8.926
 3385W        W 7436   3.782   9.780  11.255
 3386W        W 7437   5.263   0.673   9.378
 3387W        W 7438   5.671   5.051   9.216
 3388W        W 7439   7.526   9.437   9.511
 3389W        W 7440   3.027  10.383   1.871
 3390W        W 7441   9.782   0.456  10.902
 3391W        W 7442   3.703   3.334   2.717
 3392W        W 7443   8.192   5.861   9.436
 3393W        W 7444   6.935   6.417  10.963
 3394W        W 7445   2.566   8.804  11.949
 3395W        W 7446   3.731   5.051   8.837
 3396W        W 7447   2.266   1.379   0.501
 3397W        W 7448  11.081   0.831   1.767
 3398W        W 7449   7.949   0.787   0.469
 3399W        W 7450   9.446   5.517   0.256
 3400W        W 7451   5.740   7.670  11.479
 3401W        W 7452   6.877   9.548   8.044
 3402W        W 7453   4.481   8.126   0.747
 3403W        W 7454   8.862   6.190   2.740
 3404W        W 7455   0.436   4.532   0.152
 3405W        W 7456   6.270  10.249   9.238
 3406W        W 7457   8.424   7.060   2.560
 3407W        W 7458   2.666   9.219  10.405
 3408W        W 7459   1.921   7.080  10.251
 3409W        W 7460   3.593   3.795   2.514
 3410W        W 7461   3.373   5.442   0.463
 3411W        W 7462   6.072   5.416   1.924
 3412W        W 7463   3.887   0.873   1.680
 3413W        W 7464   7.396   2.162   3.456
 3414W        W 7465   5.746  10.925  10.970
 3415W        W 7466  11.361   8.122   9.843
 3416W        W 7467   0.716   5.999   2.609
 3417W        W 7468   5.784   8.492   2.320
 3418W        W 7469   0.724   3.372   2.303
 3419W        W 7470   7.467   3.339  11.385
 3420W        W 7471   6.051  11.462   3.145
 3421W        W 7472   5.203   1.214  10.580
 3422W        W 7473   7.432   8.531   0.281
 3423W        W 7474   1.785  10.053   0.985
 3424W        W 7475   3.770   7.024   3.252
 3425W        W 7476  11.123   8.476   1.188
 3426W        W 7477   4.618   6.204  11.753
 3427W        W 7478   1.658   4.299   0.829
 3428W        W 7479   8.015   4.616   1.174
 3429W        W 7480   6.798   4.031   2.708
 3430W        W 7481   9.053   3.245   1.444
 3431W        W 7482  10.671   7.987  10.704
 3432W        W 7483   0.112   1.071   9.914
 3433W        W 7484   9.220  10.265   9.044
 3434W        W 7485   7.952   8.227   9.289
 3435W        W 7486   8.031   0.937   1.813
 3436W        W 7487   6.155   6.760   3.109
 3437W        W 7488   4.525   1.264   0.867
 3438W        W 7489  11.436  10.766  10.008
 3439W        W 7490  11.317   6.518   2.816
 3440W        W 7491   4.531   1.602   8.559
 3441W        W 7492   2.298   3.864   9.162
 3442W        W 7493   8.941   9.895  11.481
 3443W        W 7494   1.910   5.927   0.692
 3444W        W 7495   2.927   9.055   0.328
 3445W        W 7496   2.319   1.043   9.568
 3446W        W 7497   5.064   0.783   1.191
 3447W        W 7498   9.307   1.326   1.168
 3448W        W 7499   8.345  10.888  10.917
 3449W        W 7500   0.312   5.741   0.075
 3450W        W 7501   6.682   4.217  10.944
 3451W        W 7502   2.351  11.378   1.421
 3452W        W 7503   3.715   1.405  10.664
 3453W        W 7504   3.993   1.437   3.418
 3454W        W 7505   8.904   9.953  10.101
 3455W        W 7506   7.152   2.385   8.651
 3456W        W 7507   0.986   2.622   9.377
 3457W        W 7508   9.379   4.416   8.543
 3458W        W 7509   3.782   1.277   9.138
 3459W        W 7510   4.641   3.352   3.663
 3460W        W 7511   8.439  10.341   9.455
 3461W        W 7512   0.735   7.107   3.143
 3462W        W 7513   4.486   0.131  11.021
 3463W        W 7514   4.366   6.625   2.458
 3464W        W 7515   5.601   8.032   1.399
 3465W        W 7516   4.957   3.926   3.197
 3466W        W 7517   6.234  10.207   2.257
 3467W        W 7518   5.619   3.074   1.255
 3468W        W 7519   0.417   2.195   2.524
 3469W        W 7520  10.878   2.134   0.388
 3470W        W 7521   6.982   6.499   1.638
 3471W        W 7522   4.625   0.941  10.606
 3472W        W 7523   5.204   2.082  10.038
 3473W        W 7524   8.090   7.862  11.319
 3474W        W 7525   6.406   7.674   4.072
 3475W        W 7526   8.137   6.180  11.855
 3476W        W 7527   8.792   4.775   3.497
 3477W        W 7528   1.887   1.690   0.344
 3478W        W 7529  11.184   3.349   1.811
 3479W        W 7530  11.040  10.855   9.013
 3480W        W 7531   3.716   7.917   1.451
 3481W        W 7532   9.139   1.692   2.452
 3482W        W 7533   0.257   1.863   9.396
 3483W        W 7534   0.376  10.871  11.272
 3484W        W 7535   5.545  10.675   0.667
 3485W        W 7536   8.816   4.054   2.179
 3486W        W 7537   2.051   6.125   8.434
 3487W        W 7538   9.584   1.473   8.761
 3488W        W 7539   0.528   5.589   2.845
 3489W        W 7540   2.340  10.853   2.304
 3490W        W 7541   8.782   5.820   1.839
 3491W        W 7542  10.503   4.658   2.792
 3492W        W 7543   1.346   6.112   2.477
 3493W        W 7544  10.375   1.352   9.909
 3494W        W 7545   7.599   8.069   0.109
 3495W        W 7546   6.574   8.974  10.372
 3496W        W 7547   8.013   7.724   9.149
 3497W        W 7548  10.391   9.838   9.610
 3498W        W 7549   6.470   1.931   9.784
 3499W        W 7550   8.913   0.823   2.960
 3500W        W 7551   7.165   2.087  10.027
 3501W        W 7552   8.284   0.219   8.523
 3502W        W 7553   3.239   7.031   9.990
 3503W        W 7554   0.974   3.754  10.390
 3504W        W 7555   5.750   6.512   8.608
 3505W        W 7556   8.947   6.029   3.222
 3506W        W 7557   6.520   6.679   0.689
 3507W        W 7558   9.363   4.376   0.960
 3508W        W 7559   6.701   0.401   0.491
 3509W        W 7560   2.399   3.707   0.843
 3510W        W 7561  11.448   0.415  11.638
 3511W        W 7562   7.625   7.550   1.774
 3512W        W 7563   1.656   1.332  10.345
 3513W        W 7564  11.052   9.445  10.874
 3514W        W 7565   6.396   9.836   8.886
 3515W        W 7566   4.183  10.506   1.042
 3516W        W 7567   2.732  10.465  11.937
 3517W        W 7568   5.601   2.211   3.082
 3518W        W 7569   5.632   0.675   1.000
 3519W        W 7570   5.307   1.378   3.076
 3520W        W 7571   3.298   8.033  10.717
 3521W        W 7572   4.329   5.073  10.811
 3522W        W 7573   2.194   2.509   3.324
 3523W        W 7574   7.278   4.571   3.500
 3524W        W 7575   1.933   9.866   0.276
 3525W        W 7576   6.075   3.686   9.139
 3526W        W 7577   7.230   7.492  11.784
 3527W        W 7578   3.728   2.609   0.270
 3528W        W 7579   5.994   8.233   3.545
 3529W        W 7580   9.483   0.501   0.964
 3530W        W 7581   5.647   3.138   3.579
 3531W        W 7582   9.445   7.036  10.212
 3532W        W 7583   3.769   4.102   9.658
 3533W        W 7584   1.694   3.088   0.430
 3534W        W 7585   3.342   6.002   8.717
 3535W        W 7586  10.727   9.042   2.425
 3536W        W 7587   1.939   1.655  10.604
 3537W        W 7588  11.334  10.418   9.015
 3538W        W 7589   4.382   4.408  10.335
 3539W        W 7590   3.365   2.836  11.566
 3540W        W 7591   4.095   7.431  11.342
 3541W        W 7592   3.826   4.492  10.024
 3542W        W 7593   1.639   0.413  11.273
 3543W        W 7594   4.821  11.339   1.343
 3544W        W 7595   9.286   9.122   8.482
 3545W        W 7596   1.996   2.027   8.784
 3546W        W 7597   3.018   4.099   0.816
 3547W        W 7598   2.859   3.668   1.028
 3548W        W 7599   6.152   9.921   2.675
 3549W        W 7600   2.168  10.841   9.164
 3550W        W 7601  10.868   6.989   9.473
 3551W        W 7602   5.214   8.532   9.498
 3552W        W 7603  11.136   3.786  10.486
 3553W        W 7604  11.179   8.302  11.214
 3554W        W 7605   0.241   7.544  11.989
 3555W        W 7606   0.366   8.117  10.023
 3556W        W 7607   4.309   5.123   2.082
 3557W        W 7608   6.091   3.655  11.915
 3558W        W 7609   6.569   2.082  11.534
 3559W        W 7610   7.177   3.183   2.490
 3560W        W 7611  10.017   4.394   1.552
 3561W        W 7612  10.222   6.570   0.433
 3562W        W 7613   8.488   3.800  11.932
 3563W        W 7614   4.926   8.424   0.859
 3564W        W 7615   9.971   1.329  11.064
 3565W        W 7616   3.534   6.204  11.994
 3566W        W 7617   2.578   7.066   3.132
 3567W        W 7618   1.470   1.195   8.390
 3568W        W 7619   0.401   5.575   1.050
 3569W        W 7620   5.990   8.381   0.752
 3570W        W 7621  10.318   4.742   2.319
 3571W        W 7622   7.702   6.667   1.593
 3572W        W 7623   6.435   8.573   3.592
 3573W        W 7624   1.712   8.357   0.917
 3574W        W 7625   0.534   7.048   8.689
 3575W        W 7626   1.389   1.402   8.842
 3576W        W 7627   9.538   6.104   8.517
 3577W        W 7628  11.361   1.552   9.244
 3578W        W 7629   5.856   5.057   2.698
 3579W        W 7630   7.599  11.459   0.153
 3580W        W 7631   1.414  10.743   1.321
 3581W        W 7632   7.953   1.498   1.002
 3582W        W 7633   2.359  10.476   3.552
 3583W        W 7634   0.413   8.480   3.543
 3584W        W 7635  11.188  11.336   8.799
 3585W        W 7636   6.134   7.647   2.199
 3586W        W 7637  11.040   2.288   0.862
 3587W        W 7638   9.492  11.197   1.838
 3588W        W 7639   9.661   6.641   3.605
 3589W        W 7640   3.352   0.433   0.492
 3590W        W 7641   6.597   5.315   1.362
 3591W        W 7642  10.145   6.929   2.259
 3592W        W 7643   6.761   1.193  10.068
 3593W        W 7644   4.481   9.548   8.912
 3594W        W 7645   3.299   0.065   3.461
 3595W        W 7646   2.854   6.714   0.541
 3596W        W 7647   1.368   1.743   2.248
 3597W        W 7648   0.801   7.113   9.976
 3598W        W 7649   2.964   7.043  10.794
 3599W        W 7650   3.809   2.594  11.353
 3600W        W 7651   8.942  10.476   9.436
 3601W        W 7652   0.280   3.427   3.163
 3602W        W 7653   2.118   8.566   0.655
 3603W        W 7654   5.232   9.870   1.150
 3604W        W 7655   3.759   8.414  10.247
 3605W        W 7656   5.333  11.317   1.248
 3606W        W 7657   3.346  10.023   3.168
 3607W        W 7658   3.832   4.363  11.820
 3608W        W 7659   2.430   7.967  11.314
 3609W        W 7660   5.479   7.000   9.557
 3610W        W 7661   6.262   5.876   8.613
 3611W        W 7662  10.268   9.413   9.006
 3612W        W 7663   4.669   6.439  10.825
 3613W        W 7664   2.907   5.272  10.869
 3614W        W 7665   3.053   2.102   3.369
 3615W        W 7666  10.037   5.687   9.685
 3616W        W 7667   3.639   4.344  10.963
 3617W        W 7668   6.576   1.215   0.892
 3618W        W 7669  10.336   1.071   1.288
 3619W        W 7670   2.109   8.111   9.010
 3620W        W 7671   2.183   7.148   2.786
 3621W        W 7672   0.723   4.670   2.448
 3622W        W 7673   3.184   5.782  11.502
 3623W        W 7674   7.539   1.531   2.901
 3624W        W 7675   3.728   7.743   2.774
 3625W        W 7676   6.236   0.064  11.259
 3626W        W 7677   1.944   6.309  11.341
 3627W        W 7678   5.244   4.240   0.516
 3628W        W 7679   5.462   3.300   0.819
 3629W        W 7680   3.994   0.672   3.457
 3630W        W 7681   7.687   6.961   2.101
 3631W        W 7682   2.658   9.354   9.411
 3632W        W 7683   2.712   3.778  11.470
 3633W        W 7684   8.432   5.312   9.079
 3634W        W 7685   5.749   6.532   9.676
 3635W        W 7686   8.394   4.183   1.780
 3636W        W 7687   8.084   8.140  10.888
 3637W        W 7688   2.333   8.634   9.798
 3638W        W 7689   4.828   1.724   0.961
 3639W        W 7690   5.344   9.885   8.901
 3640W        W 7691   3.698  10.140   1.648
 3641W        W 7692   5.472  10.203   2.026
 3642W        W 7693   9.741   6.107   2.584
 3643W        W 7694   6.903   9.369   1.513
 3644W        W 7695   0.297   4.113   0.873
 3645W        W 7696  10.688   6.619  11.115
 3646W        W 7697   6.514   1.980   8.001
 3647W        W 7698   1.932   1.406   8.870
 3648W        W 7699   7.440   3.998   2.360
 3649W        W 7700   3.170  10.035  10.372
 3650W        W 7701   4.821   2.002   0.408
 3651W        W 7702  10.155   5.697   2.980
 3652W        W 7703   4.130   0.482   0.906
 3653W        W 7704   7.874   6.260   1.882
 3654W        W 7705  10.956   6.686   8.579
 3655W        W 7706   0.663   9.290   0.285
 3656W        W 7707   6.155   3.206   9.859
 3657W        W 7708   0.949   0.133   3.260
 3658W        W 7709   2.100   2.396   1.396
 3659W        W 7710  10.833   0.323  10.821
 3660W        W 7711   8.569   4.126   1.312
 3661W        W 7712  10.563   4.981   0.916
 3662W        W 7713   5.886   7.999   9.068
 3663W        W 7714   1.750   7.372   1.892
 3664W        W 7715   1.170   3.339   1.921
 3665W        W 7716   3.569   1.392   2.388
 3666W        W 7717   8.191   2.172  10.137
 3667W        W 7718   4.592   4.835   1.509
 3668W        W 7719   0.293  10.565  10.370
 3669W        W 7720   1.060   3.288   2.674
 3670W        W 7721   9.900   7.641  11.274
 3671W        W 7722   8.590  10.434   3.189
 3672W        W 7723   6.507   4.833  11.484
 3673W        W 7724   8.121   3.583   3.314
 3674W        W 7725  10.570   2.731   3.489
 3675W        W 7726   5.548   6.158   0.144
 3676W        W 7727   1.909   6.191  10.242
 3677W        W 7728   7.364  11.028   0.872
 3678W        W 7729   1.900   9.814  10.820
 3679W        W 7730   5.165   8.862  11.236
 3680W        W 7731   3.885   9.929  11.740
 3681W        W 7732   7.006   4.354   3.909
 3682W        W 7733   2.558   1.689  10.885
 3683W        W 7734   6.865  11.330  10.443
 3684W        W 7735  11.243  10.332   1.140
 3685W        W 7736   5.481   4.047  11.232
 3686W        W 7737   7.117   9.658   9.321
 3687W        W 7738   4.385   4.316   2.150
 3688W        W 7739  10.254   5.296   2.672
 3689W        W 7740   2.256   0.720  11.718
 3690W        W 7741   8.085   9.639  10.440
 3691W        W 7742   1.777   2.258   3.184
 3692W        W 7743   6.025   3.229   1.670
 3693W        W 7744  10.875   1.726   9.262
 3694W        W 7745   2.248   6.161   1.461
 3695W        W 7746   0.193  11.361   0.994
 3696W        W 7747   9.587   5.370   0.758
 3697W        W 7748   4.225   1.888  11.214
 3698W        W 7749  10.077   3.867   1.610
 3699W        W 7750   3.172  10.452   1.358
 3700W        W 7751   4.894   8.622   9.101
 3701W        W 7752   8.699   8.278   3.494
 3702W        W 7753   3.047   3.099  10.448
 3703W        W 7754   5.352  11.150   0.310
 3704W        W 7755   8.436   6.721  11.345
 3705W        W 7756   6.737   7.141   0.797
 3706W        W 7757   6.090   1.609   9.945
 3707W        W 7758  10.119   8.474   1.468
 3708W        W 7759   7.968   0.979   9.594
 3709W        W 7760   1.162   1.482  10.316
 3710W        W 7761   5.925   9.413   1.634
 3711W        W 7762  11.407  11.498  11.352
 3712W        W 7763   1.155   4.250   2.691
 3713W        W 7764   3.127   1.300   0.534
 3714W        W 7765   9.464   3.887   0.892
 3715W        W 7766   3.106   8.493   1.967
 3716W        W 7767   3.758   4.704   3.111
 3717W        W 7768   6.197   0.800  10.823
 3718W        W 7769   4.414   1.840   2.123
 3719W        W 7770   1.333   6.582   2.694
 3720W        W 7771  10.961  10.760   2.005
 3721W        W 7772   3.025   4.640  11.986
 3722W        W 7773   6.466   9.575  10.977
 3723W        W 7774   4.064   8.666   9.899
 3724W        W 7775  10.291   3.238  11.870
 3725W        W 7776  10.118  11.487  11.831
 3726W        W 7777   4.179   8.302   0.388
 3727W        W 7778   9.936   2.192   0.310
 3728W        W 7779   1.174   4.052   9.830
 3729W        W 7780   9.463   6.760  11.256
 3730W        W 7781   1.276   7.110   1.868
 3731W        W 7782   2.888   2.329   9.491
 3732W        W 7783   3.011   0.572   9.912
 3733W        W 7784   4.262   7.243  10.872
 3734W        W 7785   0.814  10.955   2.913
 3735W        W 7786   5.499   6.585   2.685
 3736W        W 7787   6.070   4.648  11.722
 3737W        W 7788   7.175   3.687   0.288
 3738W        W 7789  10.205   6.662   9.986
 3739W        W 7790   9.018   9.575   2.730
 3740W        W 7791   0.311   2.443   1.971
 3741W        W 7792   3.756  10.002   2.534
 3742W        W 7793  11.481   5.152   9.427
 3743W        W 7794  11.473   5.293   1.007
 3744W        W 7795   4.968   5.206  10.313
 3745W        W 7796   7.130   2.889  10.319
 3746W        W 7797   9.879   0.600   2.633
 3747W        W 7798   3.520   1.328  11.694
 3748W        W 7799  11.036   8.590  11.867
 3749W        W 7800   4.162   2.343   1.276
 3750W        W 7801   9.944   6.574   9.538
 3751W        W 7802   0.412   1.378   3.111
 3752W        W 7803   4.127   3.086   0.753
 3753W        W 7804   9.949   6.685  11.989
 3754W        W 7805   1.642   1.454   1.289
 3755W        W 7806  10.708   4.028   1.627
 3756W        W 7807   0.348   7.508   1.019
 3757W        W 7808  11.450   0.452   1.812
 3758W        W 7809   0.193   3.049   0.917
 3759W        W 7810   3.716  11.130   1.663
 3760W        W 7811   2.029   6.872   0.308
 3761W        W 7812  11.412   3.952   9.523
 3762W        W 7813  10.275   6.082  10.345
 3763W        W 7814   1.452   7.816   1.395
 3764W        W 7815  11.097   1.699  11.305
 3765W        W 7816   2.255   8.131   1.684
 3766W        W 7817   3.708   7.435   2.379
 3767W        W 7818   8.006  10.257   1.050
 3768W        W 7819   1.360   5.599   2.260
 3769W        W 7820   7.352   8.560   0.909
 3770W        W 7821   5.255   9.054   2.787
 3771W        W 7822   6.032   3.089   8.128
 3772W        W 7823   6.762   3.666  10.424
 3773W        W 7824   5.994   4.196   8.955
 3774W        W 7825   9.481   1.894  11.922
 3775W        W 7826   6.428   8.119   3.821
 3776W        W 7827   9.134   3.335   0.945
 3777W        W 7828   4.226   9.284   2.165
 3778W        W 7829   4.778  10.884  10.757
 3779W        W 7830   0.841   4.616   1.464
 3780W        W 7831   4.277   2.310  11.502
 3781W        W 7832  10.013   6.390   8.514
 3782W        W 7833   1.018   7.509  11.396
 3783W        W 7834  10.132   9.729   2.178
 3784W        W 7835   6.750   6.410   1.199
 3785W        W 7836   6.146   6.536  11.189
 3786W        W 7837   2.428   9.367   1.163
 3787W        W 7838   5.537   9.411  10.788
 3788W        W 7839   1.832   0.822   9.539
 3789W        W 7840   5.720   8.852  10.821
 3790W        W 7841   6.180   0.946   9.115
 3791W        W 7842   6.992   9.574  10.844
 3792W        W 7843   5.648   1.826  10.562
 3793W        W 7844   1.793   3.572   9.916
 3794W        W 7845   4.753   1.128   1.671
 3795W        W 7846   7.431  10.209   8.532
 3796W        W 7847   4.694   7.100   1.036
 3797W        W 7848   6.535   2.876   9.908
 3798W        W 7849   9.957   6.657  11.329
 3799W        W 7850  10.811   4.668   2.292
 3800W        W 7851   5.487   4.614   1.422
 3801W        W 7852   0.170   6.056   8.978
 3802W        W 7853   7.531  10.806   9.302
 3803W        W 7854   7.987   9.511   2.352
 3804W        W 7855   2.291  10.923   3.324
 3805W        W 7856   3.652   4.157   0.240
 3806W        W 7857   0.378   8.837  10.639
 3807W        W 7858   8.615   2.719   0.034
 3808W        W 7859   9.828   6.593   1.369
 3809W        W 7860   5.142   0.174   9.506
 3810W        W 7861  11.474   8.174   1.403
 3811W        W 7862  10.002   7.083   1.395
 3812W        W 7863   7.729   5.891  10.638
 3813W        W 7864   6.277   3.570   8.207
 3814W        W 7865   5.110   6.737   3.026
 3815W        W 7866   0.648   1.295   1.500
 3816W        W 7867   4.196  10.473   2.887
 3817W        W 7868  10.927   7.725   0.107
 3818W        W 7869   1.857   1.484  11.886
 3819W        W 7870   7.229   1.258  10.466
 3820W        W 7871  10.044   8.420   3.242
 3821W        W 7872   7.945  11.454   9.504
 3822W        W 7873  10.302   8.493  11.099
 3823W        W 7874   2.399   8.926   0.430
 3824W        W 7875   1.231   4.619   3.495
 3825W        W 7876   5.470   0.837  10.371
 3826W        W 7877   1.970  10.288   0.562
 3827W        W 7878   9.258   7.139   0.809
 3828W        W 7879   2.392   1.962   1.335
 3829W        W 7880   2.718  10.621   1.550
 3830W        W 7881   2.308   7.649   9.045
 3831W        W 7882   4.855   9.034   0.391
 3832W        W 7883   1.672   3.161  10.624
 3833W        W 7884   6.027   9.260  10.910
 3834W        W 7885   8.364   2.929   1.796
 3835W        W 7886   3.444   3.391   2.243
 3836W        W 7887   0.885   0.487  11.906
 3837W        W 7888  10.761   4.533   3.224
 3838W        W 7889   1.761   7.891   1.835
 3839W        W 7890   4.622   9.820   1.775
 3840W        W 7891  11.141   5.103   0.043
 3841W        W 7892   1.643   1.775   9.086
 3842W        W 7893   5.026   2.495   9.827
 3843W        W 7894  10.414   0.986   8.785
 3844W        W 7895   2.713   1.427   2.296
 3845W        W 7896   4.751   3.268  11.755
 3846W        W 7897   5.118   8.171  10.648
 3847W        W 7898   7.731   4.293   0.254
 3848W        W 7899   8.980   8.380   0.377
 3849W        W 7900   9.566   0.288   9.866
 3850W        W 7901   4.236   7.315   1.728
 3851W        W 7902   8.731   8.540   9.052
 3852W        W 7903   3.850   7.083  10.630
 3853W        W 7904   5.100   6.024   0.498
 3854W        W 7905   6.767   8.044   9.929
 3855W        W 7906   9.703   7.656   1.813
 3856W        W 7907   6.538   1.897   3.259
 3857W        W 7908  11.052   9.395   2.595
 3858W        W 7909   2.384   1.466  10.416
 3859W        W 7910   0.898   1.398   0.563
 3860W        W 7911   4.193   0.003   3.106
 3861W        W 7912   0.102   8.938   3.560
 3862W        W 7913   0.471   6.479   2.621
 3863W        W 7914   5.660   1.358  10.352
 3864W        W 7915   3.157   3.720   3.281
 3865W        W 7916   7.130   3.573   9.587
 3866W        W 7917   8.666   1.821   2.306
 3867W        W 7918   1.785   2.567   2.737
 3868W        W 7919   3.234   0.994   1.699
 3869W        W 7920   2.577   2.718   2.912
 3870W        W 7921  10.353   6.995   1.783
 3871W        W 7922  10.015   4.337   2.143
 3872W        W 7923   0.956   5.964   2.169
 3873W        W 7924   0.840   1.050   9.512
 3874W        W 7925   5.634   5.104   1.262
 3875W        W 7926   6.827   2.401   1.396
 3876W        W 7927   7.053   6.686  10.536
 3877W        W 7928   0.085   7.200   2.148
 3878W        W 7929   2.662   9.664   0.792
 3879W        W 7930   4.218   5.218   0.045
 3880W        W 7931  11.055   2.834  11.259
 3881W        W 7932   1.202   5.645  11.592
 3882W        W 7933   5.133   7.736  11.037
 3883W        W 7934   4.416   2.086   1.655
 3884W        W 7935   5.722   8.550   2.826
 3885W        W 7936   9.421   5.656  10.834
 3886W        W 7937   4.099   7.083   9.756
 3887W        W 7938  11.291   3.509   8.647
 3888W        W 7939   8.676   2.823  10.528
 3889W        W 7940   8.440   8.551   8.594
 3890W        W 7941   4.917   2.491   0.212
 3891W        W 7942   3.947   7.969   9.424
 3892W        W 7943   3.231   2.884   2.211
 3893W        W 7944  10.795  10.154  10.531
 3894W        W 7945   2.887  10.030   9.189
 3895W        W 7946   1.210   6.620   3.206
 3896W        W 7947   7.709   0.260   3.364
 3897W        W 7948   3.378   6.653  11.215
 3898W        W 7949  10.843   1.749   3.257
 3899W        W 7950   4.064   1.301   2.355
 3900W        W 7951   6.636   2.215   8.460
 3901W        W 7952   3.793   7.235   1.487
 3902W        W 7953   1.124   6.980   1.369
 3903W        W 7954   3.713  11.469  10.512
 3904W        W 7955   2.212   4.625  10.286
 3905W        W 7956   3.869   1.365   1.426
 3906W        W 7957   7.870   8.572   0.899
 3907W        W 7958   5.434   1.143   1.156
 3908W        W 7959   0.030   3.637   1.560
 3909W        W 7960   0.438   5.386   9.361
 3910W        W 7961   5.223  10.950  11.059
 3911W        W 7962   7.031   9.485  11.723
 3912W        W 7963   1.832   0.300   2.197
 3913W        W 7964  11.268   2.526   9.307
 3914W        W 7965   0.784   1.776   0.952
 3915W        W 7966   7.093   2.135  11.880
 3916W        W 7967   5.314   5.143   0.478
 3917W        W 7968   1.825   3.878  10.978
 3918W        W 7969   0.263   1.293   9.474
 3919W        W 7970   5.845   9.651   1.172
 3920W        W 7971   5.044   3.055   2.706
 3921W        W 7972   1.225   2.295  11.188
 3922W        W 7973   7.969   4.662   0.672
 3923W        W 7974   9.634   2.376  11.948
 3924W        W 7975  11.397   6.593   3.504
 3925W        W 7976   2.760   0.744   9.497
 3926W        W 7977  10.816   3.579   8.864
 3927W        W 7978   8.571   3.839   3.173
 3928W        W 7979   5.269   2.754   0.493
 3929W        W 7980   2.173   1.312  11.528
 3930W        W 7981   2.444   8.352   2.564
 3931W        W 7982   0.256   0.778  11.480
 3932W        W 7983  11.122   1.617  10.797
 3933W        W 7984   1.476   1.864  10.459
 3934W        W 7985   2.891   6.927   9.048
 3935W        W 7986   3.065   8.296   2.435
 3936W        W 7987  10.603   7.877   3.477
 3937W        W 7988   3.487  10.586   1.761
 3938W        W 7989   2.411   9.859   1.222
 3939W        W 7990   0.757   1.169  10.803
 3940W        W 7991  11.220  10.587  11.941
 3941W        W 7992  11.235   7.873  11.487
 3942W        W 7993   5.300  10.014   2.673
 3943W        W 7994   6.117   4.770   0.737
 3944W        W 7995  11.469   4.898   1.315
 3945W        W 7996   6.550   0.843   8.756
 3946W        W 7997   3.568   6.144   0.492
 3947W        W 7998   8.479   4.014   9.974
 3948W        W 7999   2.860   9.110   1.216
 3949W        W 8000   9.943   2.882   8.391
 3950W        W 8001   8.408   4.296  11.814
 3951W        W 8002   8.944   2.634   2.230
 3952W        W 8003   7.609   0.744  11.129
 3953W        W 8004   8.235   6.449  10.084
 3954W        W 8005   9.148   1.279   9.013
 3955W        W 8006   8.311   6.974  10.778
 3956W        W 8007   9.125   6.940   8.070
 3957W        W 8008   2.901   0.460   3.591
 3958W        W 8009   9.523   6.264   9.067
 3959W        W 8010  10.312   9.427   1.387
 3960W        W 8011   8.950   8.090   9.002
 3961W        W 8012   4.993   4.703   1.229
 3962W        W 8013   2.823   5.922  10.186
 3963W        W 8014   6.263   4.291   0.489
 3964W        W 8015   5.600   3.878   9.075
 3965W        W 8016   3.652   2.526   2.072
 3966W        W 8017   2.579   9.536   3.124
 3967W        W 8018   0.532   9.845  11.069
 3968W        W 8019   7.866   2.422  10.488
 3969W        W 8020   4.195   9.982   8.859
 3970W        W 8021   2.684   0.576  10.330
 3971W        W 8022   3.458  10.138  11.480
 3972W        W 8023   9.477   1.621   0.359
 3973W        W 8024   7.729   1.245  10.001
 3974W        W 8025   3.610  10.303  10.964
 3975W        W 8026   7.725  11.084  10.658
 3976W        W 8027   4.186   3.467   0.400
 3977W        W 8028   7.525  10.364   9.567
 3978W        W 8029   1.620  10.496  11.691
 3979W        W 8030   7.609   6.123   3.777
 3980W        W 8031   9.905   2.791   2.250
 3981W        W 8032   6.659   9.931   1.359
 3982W        W 8033   6.670   3.362   9.796
 3983W        W 8034  11.315   9.025   9.595
 3984W        W 8035   2.807  10.065   1.533
 3985W        W 8036   7.202   8.484   2.375
 3986W        W 8037   9.163   5.492  10.090
 3987W        W 8038  10.701   2.349   1.265
 3988W        W 8039   5.632   4.864  11.931
 3989W        W 8040   6.123   2.294   3.207
 3990W        W 8041   0.636   5.872   9.951
 3991W        W 8042   4.641   6.833   0.199
 3992W        W 8043   2.213   3.916   1.848
 3993W        W 8044   4.514  10.788   8.818
 3994W        W 8045   0.972   6.641  10.398
 3995W        W 8046   9.252   9.004  10.337
 3996W        W 8047   0.428   0.056   0.581
 3997W        W 8048   8.575   7.967   2.262
 3998W        W 8049   1.454   9.345  10.071
 3999W        W 8050   4.327  10.392   0.540
 4000W        W 8051   4.569   0.848   1.264
 4001W        W 8052   0.306   0.681   8.699
 4002W        W 8053   7.615   9.040   1.130
 4003W        W 8054   5.385   0.403   3.010
 4004W        W 8055   0.040   5.274   2.307
 4005W        W 8056   0.830   6.267  10.901
 4006W        W 8057   9.696   9.602   0.232
 4007W        W 8058   5.248  11.404  11.281
 4008W        W 8059   0.813   4.624   1.962
 4009W        W 8060   7.647   7.562  10.414
 4010W        W 8061   8.212   0.415   3.461
 4011W        W 8062   4.452   7.131   9.353
 4012W        W 8063   4.171  10.080   1.861
 4013W        W 8064   3.099   3.624  10.058
 4014W        W 8065   9.473   0.743   3.491
 4015W        W 8066   3.359  10.984  11.688
 4016W        W 8067   1.037   5.128   0.306
 4017W        W 8068   7.849   2.404  11.489
 4018W        W 8069  10.866   4.997   0.473
 4019W        W 8070   5.013   0.456   2.180
 4020W        W 8071   6.315  11.270   1.135
 4021W        W 8072   1.913  10.864   9.707
 4022W        W 8073   3.749   4.990   1.746
 4023W        W 8074   8.805  10.467   3.646
 4024W        W 8075   6.043  10.010   0.850
 4025W        W 8076   3.548  10.647  11.350
 4026W        W 8077   5.029   3.430  10.564
 4027W        W 8078  10.866   7.728   3.035
 4028W        W 8079   3.110   7.401   0.363
 4029W        W 8080   9.562   4.933   4.374
 4030W        W 8081   4.800   7.971  10.281
 4031W        W 8082   3.327   2.726   3.247
 4032W        W 8083   0.568   0.861   1.719
 4033W        W 8084   7.498   9.736   3.223
 4034W        W 8085   2.887   4.509  10.386
 4035W        W 8086   5.126   8.974   2.044
 4036W        W 8087   5.220   3.210   8.766
 4037W        W 8088  10.306   6.944   9.568
 4038W        W 8089   9.122   3.714   9.507
 4039W        W 8090   8.805   1.296   1.284
 4040W        W 8091   2.791   1.270   9.499
 4041W        W 8092   2.109   2.897   2.996
 4042W        W 8093   5.816  10.597  10.496
 4043W        W 8094   3.744   2.629   9.838
 4044W        W 8095  10.897   3.285   9.910
 4045W        W 8096  11.087   5.083   2.416
 4046W        W 8097   8.072   0.993   3.499
 4047W        W 8098  11.020   3.130  10.401
 4048W        W 8099  11.378   2.329   0.404
 4049W        W 8100   3.329   9.351  11.063
 4050W        W 8101   5.130   1.588   9.253
 4051W        W 8102   9.537   7.544  10.324
 4052W        W 8103   4.211   2.841  11.538
 4053W        W 8104   6.580   0.440   1.373
 4054W        W 8105   0.126   8.560   1.075
 4055W        W 8106   0.057   2.348  10.409
 4056W        W 8107   0.477   3.866   3.362
 4057W        W 8108   2.637   6.179   3.321
 4058W        W 8109   2.861   2.025   1.177
 4059W        W 8110   2.853   3.340   3.514
 4060W        W 8111   8.841   0.383   1.840
 4061W        W 8112   0.520   9.322   3.489
 4062W        W 8113   8.940   5.130   2.264
 4063W        W 8114   6.153   3.081   3.736
 4064W        W 8115  11.296   5.658   9.673
 4065W        W 8116   9.155   8.091  11.935
 4066W        W 8117   7.653  11.251  11.134
 4067W        W 8118   1.807   2.467  10.882
 4068W        W 8119   2.338  11.454   3.335
 4069W        W 8120   3.304   9.645  11.476
 4070W        W 8121   6.674   7.013   0.308
 4071W        W 8122   1.303   7.638   1.833
 4072W        W 8123   9.493   8.653   8.542
 4073W        W 8124  10.036   4.857   2.778
 4074W        W 8125  10.145  11.430   0.653
 4075W        W 8126   9.652   4.065   1.333
 4076W        W 8127   4.603   2.112   8.634
 4077W        W 8128   6.695   0.418   3.190
 4078W        W 8129   9.681   1.479   0.814
 4079W        W 8130   4.648  11.485   9.552
 4080W        W 8131   6.061   1.318   2.163
 4081W        W 8132   9.815   7.483  10.769
 4082W        W 8133   7.931   5.002  11.538
 4083W        W 8134   7.908   9.475   0.193
 4084W        W 8135   5.634   5.698   1.905
 4085W        W 8136   8.229   2.281   0.898
 4086W        W 8137   2.907   9.812   3.404
 4087W        W 8138   6.757   8.968   0.824
 4088W        W 8139   6.424   9.911   3.117
 4089W        W 8140   5.434   5.896   1.474
 4090W        W 8141   8.493   8.218   0.211
 4091W        W 8142   6.388   2.257   1.873
 4092W        W 8143   0.761   3.291   0.402
 4093W        W 8144   9.574   8.936   8.971
 4094W        W 8145   8.313   3.026   9.942
 4095W        W 8146  11.074   2.898   9.613
 4096W        W 8147   4.660   2.978  11.349
 4097W        W 8148   6.591  11.334  11.839
 4098W        W 8149   9.877   2.415   8.593
 4099W        W 8150  10.423   0.372  11.681
 4100W        W 8151   0.766   4.330   9.997
 4101W        W 8152  11.281   4.844   0.806
 4102W        W 8153   8.412   2.060   2.746
 4103W        W 8154   5.522   9.743   3.275
 4104W        W 8155  10.524  10.884   1.369
 4105W        W 8156   9.001   8.666  10.738
 4106W        W 8157  11.375   8.740  11.383
 4107W        W 8158   7.076  10.088   9.586
 4108W        W 8159   0.248   0.759   3.423
 4109W        W 8160   4.922   1.859   8.295
 4110W        W 8161   7.858   1.149   2.223
 4111W        W 8162   8.043  11.303  11.911
 4112W        W 8163   6.448   6.429   9.047
 4113W        W 8164  10.596   9.548   3.229
 4114W        W 8165  11.018   4.697   2.791
 4115W        W 8166   0.006   9.817   2.245
 4116W        W 8167   8.983   2.184   9.561
 4117W        W 8168   4.583  10.994   0.403
 4118W        W 8169   7.089   2.301   2.477
 4119W        W 8170   5.743   1.258  11.352
 4120W        W 8171  10.491   0.633   3.796
 4121W        W 8172   0.006   6.169   3.169
 4122W        W 8173   5.245   5.492   1.273
 4123W        W 8174   2.671   6.956   1.839
 4124W        W 8175   5.085   7.598  10.047
 4125W        W 8176  10.909   5.454   8.617
 4126W        W 8177   0.811   5.614  10.448
 4127W        W 8178   5.575   9.575   2.772
 4128W        W 8179   3.103   8.466  10.912
 4129W        W 8180   5.562  10.200   0.899
 4130W        W 8181   1.396   1.922   1.200
 4131W        W 8182   4.141   7.569   1.307
 4132W        W 8183   3.818   0.009   1.279
 4133W        W 8184   6.145   0.844   2.989
 4134W        W 8185  11.150  10.520   1.602
 4135W        W 8186   0.946   0.544   3.652
 4136W        W 8187  10.025   3.275   0.337
 4137W        W 8188   4.274   9.083  11.215
 4138W        W 8189  11.126   3.917   0.121
 4139W        W 8190   3.807   3.122   0.302
 4140W        W 8191   0.126   3.126   1.806
 4141W        W 8192   6.491   7.353   2.391
 4142W        W 8193   4.790   6.968   3.351
 4143W        W 8194   4.520  10.309  10.332
 4144W        W 8195   9.548   2.468  10.182
 4145W        W 8196   0.766   8.730   3.240
 4146W        W 8197   9.459   6.232   1.478
 4147W        W 8198   6.980   1.795   9.276
 4148W        W 8199  11.245   3.053  11.670
 4149W        W 8200   8.118   8.119   0.802
 4150W        W 8201   6.570   1.585   2.860
 4151W        W 8202   9.032   2.243   9.053
 4152W        W 8203   8.761   4.607  11.324
 4153W        W 8204   2.305   1.804  10.052
 4154W        W 8205   1.924   5.338   9.914
 4155W        W 8206   1.073   2.325   0.235
 4156W        W 8207  11.209   6.907   9.850
 4157W        W 8208   2.114  10.923  11.305
 4158W        W 8209   7.927   4.048   1.683
 4159W        W 8210   0.934   8.443   2.794
 4160W        W 8211   8.587   1.872  11.488
 4161W        W 8212   6.940   4.677  10.241
 4162W        W 8213   7.008   1.293   9.422
 4163W        W 8214  11.236   1.322   1.874
 4164W        W 8215   4.347   5.608   1.878
 4165W        W 8216   9.118   8.515   1.784
 4166W        W 8217   5.119   9.577   2.980
 4167W        W 8218   6.003   2.904   3.273
 4168W        W 8219   2.188   7.471   0.500
 4169W        W 8220   8.249   2.719   2.714
 4170W        W 8221   8.876  11.403   2.618
 4171W        W 8222   2.560   8.992   8.550
 4172W        W 8223   4.923   2.934  10.516
 4173W        W 8224   8.865   9.517   9.784
 4174W        W 8225   5.225   7.505   9.581
 4175W        W 8226   9.231   6.085  11.766
 4176W        W 8227   8.008   8.715  10.015
 4177W        W 8228   5.518   8.083   0.231
 4178W        W 8229   9.542   1.529   9.811
 4179W        W 8230   6.089   3.817   1.010
 4180W        W 8231   1.142   7.446   3.153
 4181W        W 8232   3.775   9.008   3.244
 4182W        W 8233   4.859   1.001   0.387
 4183W        W 8234   2.469   8.001   9.380
 4184W        W 8235   2.177   8.436   1.147
 4185W        W 8236   2.043   4.261   9.368
 4186W        W 8237   4.678   5.272   0.254
 4187W        W 8238   1.460   8.626   2.819
 4188W        W 8239   4.395   9.459   2.640
 4189W        W 8240  11.290   7.795  10.983
 4190W        W 8241   6.106   5.903   1.823
 4191W        W 8242   0.352   8.045  11.771
 4192W        W 8243  10.873   8.134  11.719
 4193W        W 8244  10.840   1.497  10.109
 4194W        W 8245   8.413   9.410   9.563
 4195W        W 8246  11.433   4.381   0.640
 4196W        W 8247   5.928   4.608   9.242
 4197W        W 8248  10.475   5.110   1.786
 4198W        W 8249   5.207   3.963   0.929
 4199W        W 8250   4.688   6.960  10.882
 4200W        W 8251   1.109  10.660   3.576
 4201W        W 8252   5.407  10.341  10.278
 4202W        W 8253   7.679   2.725   9.518
 4203W        W 8254   6.648   0.923   0.466
 4204W        W 8255   8.134   8.692   1.985
 4205W        W 8256   0.789   1.072  11.314
 4206W        W 8257   1.565   0.861   0.575
 4207W        W 8258   8.550   5.581  11.411
 4208W        W 8259   4.545   7.553  10.554
 4209W        W 8260   1.484   3.050   9.048
 4210W        W 8261   2.555   8.616  11.005
 4211W        W 8262   6.344   2.334   0.366
 4212W        W 8263   9.280   4.200   9.367
 4213W        W 8264  11.231   5.366   1.455
 4214W        W 8265   4.357   6.670   9.981
 4215W        W 8266   9.649   1.018   1.718
 4216W        W 8267   9.135   8.069   0.800
 4217W        W 8268  10.447  10.323  11.033
 4218W        W 8269   9.824   9.565  11.643
 4219W        W 8270  10.498   8.498   9.116
 4220W        W 8271   3.018  10.966   1.318
 4221W        W 8272   0.738   3.827   9.953
 4222W        W 8273  10.201   7.655   1.116
 4223W        W 8274   9.104   1.732   8.760
 4224W        W 8275   9.490   8.432   2.151
 4225W        W 8276   7.408   7.576  10.868
 4226W        W 8277   0.875   9.573   2.158
 4227W        W 8278   1.958   9.579   1.191
 4228W        W 8279   4.176   6.250   9.750
 4229W        W 8280   0.515   2.614   1.520
 4230W        W 8281   5.912   5.733   2.315
 4231W        W 8282   5.062   0.479   8.946
 4232W        W 8283   7.727  10.565   0.255
 4233W        W 8284   7.680   9.044   2.595
 4234W        W 8285   7.423   2.778   0.894
 4235W        W 8286   8.229   1.323  11.752
 4236W        W 8287   2.331   8.493   9.310
 4237W        W 8288   7.948  11.330   2.510
 4238W        W 8289   4.249   6.984   1.238
 4239W        W 8290   8.541   0.179   1.473
 4240W        W 8291   9.290   4.487  11.416
 4241W        W 8292  11.327   1.225  11.026
 4242W        W 8293   3.674   1.330   9.640
 4243W        W 8294   9.115   5.767   8.674
 4244W        W 8295   9.997  10.557  11.303
 4245W        W 8296   2.282   7.251  11.542
 4246W        W 8297   4.838   2.132   1.919
 4247W        W 8298   5.233   1.195  10.070
 4248W        W 8299  11.430  10.447   3.284
 4249W        W 8300   1.767   8.406   1.822
 4250W        W 8301   6.039   3.713   3.836
 4251W        W 8302   4.120   4.761   8.672
 4252W        W 8303   8.127   9.433   1.815
 4253W        W 8304   5.852   8.971   0.020
 4254W        W 8305  11.172   4.301  10.375
 4255W        W 8306   4.049   1.485   0.940
 4256W        W 8307  11.387   7.655   1.180
 4257W        W 8308   5.248   8.456  11.536
 4258W        W 8309   4.726   4.319  11.815
 4259W        W 8310   9.985   1.664   0.365
 4260W        W 8311   8.395  10.365   1.406
 4261W        W 8312  10.525  10.827   8.917
 4262W        W 8313   0.489   9.567   2.993
 4263W        W 8314   7.394   4.085   9.157
 4264W        W 8315   1.711   5.980   3.256
 4265W        W 8316   4.308   0.268   0.437
 4266W        W 8317   6.196   7.496  11.286
 4267W        W 8318   7.168   9.142  10.062
 4268W        W 8319   2.928   0.949   2.099
 4269W        W 8320   9.399   8.910   3.616
 4270W        W 8321   2.255   2.787   2.525
 4271W        W 8322  11.227   0.051   0.901
 4272W        W 8323   6.601   3.648   1.914
 4273W        W 8324   6.149   2.504   0.840
 4274W        W 8325   2.008  10.739   0.846
 4275W        W 8326   7.976   4.036  11.905
 4276W        W 8327   7.432  10.912   9.874
 4277W        W 8328  10.959   1.234   9.125
 4278W        W 8329  10.718   6.540   1.773
 4279W        W 8330  10.362   6.045   9.522
 4280W        W 8331   8.345   2.341  11.448
 4281W        W 8332   8.420   1.539   2.686
 4282W        W 8333   3.106   2.140   2.585
 4283W        W 8334   7.559   2.549   3.172
 4284W        W 8335   7.887  10.434   8.500
 4285W        W 8336   4.954   8.986   9.496
 4286W        W 8337   5.050   8.830  11.862
 4287W        W 8338   2.742   2.215   2.964
 4288W        W 8339   6.509   5.898  11.889
 4289W        W 8340   7.572   6.884   0.816
 4290W        W 8341   5.339   0.351  11.517
 4291W        W 8342   9.155   2.784   2.800
 4292W        W 8343   1.735  11.252   2.962
 4293W        W 8344   4.231   9.541  11.985
 4294W        W 8345   9.005   4.097  11.173
 4295W        W 8346   1.809   9.172   2.305
 4296W        W 8347   6.877   9.405   2.457
 4297W        W 8348   8.367   1.587   1.358
 4298W        W 8349   6.997   6.945  11.018
 4299W        W 8350   9.126   3.057   3.234
 4300W        W 8351   3.548   9.336   0.891
 4301W        W 8352   8.381   1.105   2.156
 4302W        W 8353   6.960   4.660   1.235
 4303W        W 8354   1.805   8.868   0.894
 4304W        W 8355   3.622   1.751   1.730
 4305W        W 8356   5.619   1.746  11.460
 4306W        W 8357   4.234   3.178   9.576
 4307W        W 8358   8.539   2.821   8.657
 4308W        W 8359  10.680   2.294  10.538
 4309W        W 8360   6.384  10.588   8.422
 4310W        W 8361   9.359  10.819   9.840
 4311W        W 8362   1.724  10.891   0.015
 4312W        W 8363   2.753   5.645  11.256
 4313W        W 8364   0.125   2.439   9.649
 4314W        W 8365   4.427   8.643  10.941
 4315W        W 8366   9.085   2.413   1.676
 4316W        W 8367   0.558   2.907   1.936
 4317W        W 8368   2.419   2.534   9.622
 4318W        W 8369   2.833   0.065   3.232
 4319W        W 8370   3.622   0.757   0.847
 4320W        W 8371   1.874  10.005  11.770
 4321W        W 8372   1.821  10.629   8.788
 4322W        W 8373   1.002   0.666   9.878
 4323W        W 8374   8.570   5.341   0.801
 4324W        W 8375   6.756   7.488   8.669
 4325W        W 8376  10.411   5.533  11.888
 4326W        W 8377   5.121   7.378   2.284
 4327W        W 8378   1.222   2.638   9.880
 4328W        W 8379  10.043   6.744   4.376
 4329W        W 8380  10.748   5.110   9.027
 4330W        W 8381   4.142   6.469   4.209
 4331W        W 8382   0.596  11.006   8.595
 4332W        W 8383   5.596   8.005  10.707
 4333W        W 8384   8.694   7.127   2.123
 4334W        W 8385  10.957   0.829  10.931
 4335W        W 8386   6.808   6.132   0.235
 4336W        W 8387  10.351  11.480  11.374
 4337W        W 8388   8.472   1.646  10.029
 4338W        W 8389   3.268   3.043   2.687
 4339W        W 8390   3.549   9.054   0.052
 4340W        W 8391   8.595   9.636  10.622
 4341W        W 8392   9.980  11.317  10.504
 4342W        W 8393  10.891   5.053   9.838
 4343W        W 8394   7.146  11.402   9.925
 4344W        W 8395  10.507   6.563   0.862
 4345W        W 8396   5.491  10.997   2.122
 4346W        W 8397   9.907   9.201   0.015
 4347W        W 8398  10.200   8.004  10.951
 4348W        W 8399   0.885  10.613   9.036
 4349W        W 8400  11.449   2.242   2.329
 4350W        W 8401   5.179   1.763   1.767
 4351W        W 8402   0.391   8.499  11.030
 4352W        W 8403   0.499   8.129   2.691
 4353W        W 8404   8.474   7.200   8.896
 4354W        W 8405   8.403   5.152   1.336
 4355W        W 8406   0.319   7.469   0.497
 4356W        W 8407  10.062   7.015   3.575
 4357W        W 8408   3.075   2.591   2.815
 4358W        W 8409   5.623   7.185   0.219
 4359W        W 8410   2.322  10.896   2.813
 4360W        W 8411  11.323   9.085   2.930
 4361W        W 8412   9.328   9.360   1.284
 4362W        W 8413  11.499   4.122  10.731
 4363W        W 8414   0.989   7.986   1.501
 4364W        W 8415   1.541   9.694   3.279
 4365W        W 8416   6.557   3.420  11.834
 4366W        W 8417   4.266   0.363   9.356
 4367W        W 8418   4.134   0.025   1.713
 4368W        W 8419   8.373   4.203  10.431
 4369W        W 8420   7.595   8.578   2.806
 4370W        W 8421  10.360   1.014  10.307
 4371W        W 8422   7.572   6.688   2.932
 4372W        W 8423   6.032   4.560  10.789
 4373W        W 8424   0.004   2.217   2.849
 4374W        W 8425   9.280   6.451   0.548
 4375W        W 8426   9.884   7.901  10.484
 4376W        W 8427  10.620   1.755  11.421
 4377W        W 8428   6.259   6.585  11.686
 4378W        W 8429   6.189   1.397  10.437
 4379W        W 8430   4.545  10.907  11.586
 4380W        W 8431   9.876   8.122   1.979
 4381W        W 8432   6.117   9.203   1.202
 4382W        W 8433   5.544   7.033  10.863
 4383W        W 8434   0.531   7.383  11.426
 4384W        W 8435   0.621   4.236   2.687
 4385W        W 8436   2.012   5.682   8.661
 4386W        W 8437   3.540   1.777   9.877
 4387W        W 8438   5.442   5.653  10.504
 4388W        W 8439   6.404   9.523   1.525
 4389W        W 8440   0.856   4.623   0.970
 4390W        W 8441  10.453   7.403   3.647
 4391W        W 8442   6.281   4.138   2.726
 4392W        W 8443   2.449   2.641  11.050
 4393W        W 8444   1.698   7.396   0.739
 4394W        W 8445   1.667   3.304   0.991
 4395W        W 8446   0.047  10.961   8.920
 4396W        W 8447   7.389  10.050   0.916
 4397W        W 8448   9.296   1.062   2.125
 4398W        W 8449   1.249   4.264   0.499
 4399W        W 8450   5.607   4.361  11.809
 4400W        W 8451   8.465   2.336   9.580
 4401W        W 8452   1.819   1.060   1.585
 4402W        W 8453   8.703   2.137   0.776
 4403W        W 8454   4.513   2.194  10.915
 4404W        W 8455   1.501  11.260   9.036
 4405W        W 8456   9.908   9.164   2.851
 4406W        W 8457   8.454   4.851   0.911
 4407W        W 8458   0.443   0.263  11.754
 4408W        W 8459   5.154   7.742   1.365
 4409W        W 8460  10.467   1.704   2.894
 4410W        W 8461   7.908   6.500   0.777
 4411W        W 8462   5.980   5.239  10.064
 4412W        W 8463   4.652   5.298  11.734
 4413W        W 8464   8.683   2.110   9.983
 4414W        W 8465   1.707  11.316   9.870
 4415W        W 8466   0.013  10.359   9.572
 4416W        W 8467   2.851  11.148  10.311
 4417W        W 8468   4.493   0.311   1.992
 4418W        W 8469   5.726   9.410  10.313
 4419W        W 8470   5.605   0.256   1.396
 4420W        W 8471   7.857   0.994   0.936
 4421W        W 8472   7.745   9.920   8.793
 4422W        W 8473   1.821  10.951   1.599
 4423W        W 8474   1.261   7.991   9.880
 4424W        W 8475   4.473   9.327   3.549
 4425W        W 8476   6.032   6.665   0.828
 4426W        W 8477   8.184   7.061   2.109
 4427W        W 8478   0.323   4.834   2.148
 4428W        W 8479   4.634   9.798  10.255
 4429W        W 8480   0.425   0.256  10.106
 4430W        W 8481  11.231   0.844  11.376
 4431W        W 8482   7.605   9.897   2.343
 4432W        W 8483   5.194  10.009   8.413
 4433W        W 8484   4.065   9.263   8.994
 4434W        W 8485   5.062   2.975   0.068
 4435W        W 8486   3.488   5.983   3.031
 4436W        W 8487  10.357  10.083   0.769
 4437W        W 8488   3.123   5.272  11.353
 4438W        W 8489   0.436  10.847   9.901
 4439W        W 8490   2.308   5.526  11.067
 4440W        W 8491   6.652   0.545  10.694
 4441W        W 8492   1.192   0.513   0.439
 4442W        W 8493   3.325   7.960   1.836
 4443W        W 8494   0.986   2.950   2.185
 4444W        W 8495   2.718   5.565   9.784
 4445W        W 8496   3.490   0.590   1.848
 4446W        W 8497  10.365   1.733   3.408
 4447W        W 8498   7.634   0.392   0.949
 4448W        W 8499  10.765   2.981  10.860
 4449W        W 8500   8.301   1.449   8.969
 4450W        W 8501   7.954   8.699   9.503
 4451W        W 8502   3.371   9.986   9.358
 4452W        W 8503  10.892  10.918  10.542
 4453W        W 8504   0.233   1.944   1.885
 4454W        W 8505   0.522   9.348  10.871
 4455W        W 8506  10.637   2.585   8.725
 4456W        W 8507   6.963  10.368   2.870
 4457W        W 8508   4.574   4.800   0.984
 4458W        W 8509   8.511   3.961  10.857
 4459W        W 8510   8.343   2.155   0.388
 4460W        W 8511   0.836   7.314   2.668
 4461W        W 8512   8.176   3.753   8.641
 4462W        W 8513   3.505   7.603   0.613
 4463W        W 8514   1.624   1.055   9.127
 4464W        W 8515   6.140  10.260   8.734
 4465W        W 8516  11.284   3.794   2.415
 4466W        W 8517  10.417  11.497  10.236
 4467W        W 8518   8.465   8.100   1.169
 4468W        W 8519   0.046   9.495  11.783
 4469W        W 8520   5.255  10.362   1.414
 4470W        W 8521   5.593  10.451  11.727
 4471W        W 8522   2.880   9.575   0.337
 4472W        W 8523   8.154   2.765   0.318
 4473W        W 8524   1.418   4.652   2.877
 4474W        W 8525   2.844   6.400   9.941
 4475W        W 8526  10.825  10.894  11.861
 4476W        W 8527   8.400   9.451   8.505
 4477W        W 8528   9.452   5.342  11.255
 4478W        W 8529   8.959   5.231   3.289
 4479W        W 8530   3.414   2.216   1.710
 4480W        W 8531  10.476  10.867   2.715
 4481W        W 8532  10.396  11.274   9.756
 4482W        W 8533   1.287   4.758  10.321
 4483W        W 8534   2.665   0.051  11.287
 4484W        W 8535   8.150   2.729  11.785
 4485W        W 8536   1.352   6.996  11.063
 4486W        W 8537   1.485   6.294  11.685
 4487W        W 8538   2.176   5.784  11.880
 4488W        W 8539  11.343   9.012  11.801
 4489W        W 8540  10.030   2.951   2.770
 4490W        W 8541   4.502   2.979   3.093
 4491W        W 8542   9.977   3.187   9.249
 4492W        W 8543  10.894   3.138   1.472
 4493W        W 8544   9.204   3.626  11.254
 4494W        W 8545   3.499   2.290  11.076
 4495W        W 8546   7.985   0.287   9.924
 4496W        W 8547   2.110   0.866   9.112
 4497W        W 8548   1.922   3.136   9.641
 4498W        W 8549  10.276  11.277   1.140
 4499W        W 8550   6.675  11.333   1.971
 4500W        W 8551   4.064   2.991   9.124
 4501W        W 8552   3.966   0.980  10.833
 4502W        W 8553   1.696   2.224  11.370
 4503W        W 8554   3.188   0.711  11.821
 4504W        W 8555   3.346   6.549   9.827
 4505W        W 8556   8.729   9.053  10.262
 4506W        W 8557   5.679   4.047   8.190
 4507W        W 8558   5.872  10.997   0.451
 4508W        W 8559   0.138   0.342   2.473
 4509W        W 8560   5.583   9.724   0.700
 4510W        W 8561   1.203   3.736   3.370
 4511W        W 8562   9.020  10.573   0.243
 4512W        W 8563   2.876   1.353   8.985
 4513W        W 8564   9.521   0.978  10.344
 4514W        W 8565   6.982   1.823   1.144
 4515W        W 8566   1.211   0.217   9.114
 4516W        W 8567   8.948   7.177   1.659
 4517W        W 8568  11.222   9.361  10.384
 4518W        W 8569   9.137   9.558   3.254
 4519W        W 8570   3.906   6.938   2.421
 4520W        W 8571   3.753   7.098  10.121
 4521W        W 8572   4.629   6.399   3.980
 4522W        W 8573   4.713   7.520   9.549
 4523W        W 8574   7.037   8.740  11.581
 4524W        W 8575   1.299  10.493  10.871
 4525W        W 8576   5.686   8.482   8.618
 4526W        W 8577   9.369   1.091   0.224
 4527W        W 8578   1.999   6.987   0.822
 4528W        W 8579   1.131   7.121   9.527
 4529W        W 8580   5.824   5.289  10.562
 4530W        W 8581   6.862   8.543   1.065
 4531W        W 8582   4.047   7.548  10.525
 4532W        W 8583   6.044   2.802   1.316
 4533W        W 8584  11.456   5.146  11.608
 4534W        W 8585   6.692   9.539   1.965
 4535W        W 8586   6.862   8.155  11.779
 4536W        W 8587   4.294   6.981   2.096
 4537W        W 8588   6.078   7.392   1.758
 4538W        W 8589   6.208   0.475  10.334
 4539W        W 8590   9.641   7.996   0.788
 4540W        W 8591   9.918   3.824  10.799
 4541W        W 8592  11.200   1.320   0.059
 4542W        W 8593   5.995   2.653   9.075
 4543W        W 8594  11.374   2.488  11.543
 4544W        W 8595   3.106   6.645   2.046
 4545W        W 8596   6.251   9.051   9.095
 4546W        W 8597   6.830   0.253   0.005
 4547W        W 8598   2.295   0.951  10.402
 4548W        W 8599   7.124   0.286  10.489
 4549W        W 8600   8.088   8.423  10.451
 4550W        W 8601   7.953   3.324  10.148
 4551W        W 8602   9.602  10.502   3.310
 4552W        W 8603   2.604   8.090   8.883
 4553W        W 8604   7.907   3.201   9.643
 4554W        W 8605   9.837   6.128   1.142
 4555W        W 8606   2.472   6.538   9.626
 4556W        W 8607   4.600   9.502  11.219
 4557W        W 8608   5.976   4.389   8.470
 4558W        W 8609   7.754   7.931   9.647
 4559W        W 8610   1.213  11.453   0.962
 4560W        W 8611   6.599  10.822   9.805
 4561W        W 8612   4.618   6.301   8.815
 4562W        W 8613   8.569   9.444   2.945
 4563W        W 8614   5.030  11.050  11.564
 4564W        W 8615   4.592  11.229   0.857
 4565W        W 8616   0.032   9.949   3.140
 4566W        W 8617   4.546   3.361   2.748
 4567W        W 8618   3.336   7.156   0.764
 4568W        W 8619   2.997   9.788   2.884
 4569W        W 8620  10.724  10.320   1.834
 4570W        W 8621   7.515   7.196   2.927
 4571W        W 8622  10.463   6.516   9.343
 4572W        W 8623  11.466   6.808  10.985
 4573W        W 8624   1.294   8.774  10.557
 4574W        W 8625   3.414   9.300   8.772
 4575W        W 8626   8.823   3.052  10.042
 4576W        W 8627   9.589   5.761   9.911
 4577W        W 8628   9.466   6.084   3.436
 4578W        W 8629   2.681   2.303  11.365
 4579W        W 8630   1.474   2.661  11.492
 4580W        W 8631   9.885   8.373  10.317
 4581W        W 8632   9.688   4.766   9.726
 4582W        W 8633   8.107   2.253  11.939
 4583W        W 8634   9.828   4.116  10.039
 4584W        W 8635   2.357  10.145  11.895
 4585W        W 8636   1.323   5.547  10.518
 4586W        W 8637   7.465   1.192  10.936
 4587W        W 8638  10.047   2.764   3.274
 4588W        W 8639   2.148   6.765  11.787
 4589W        W 8640   1.713   3.942   3.318
 4590W        W 8641   5.960   9.133   2.089
 4591W        W 8642  10.478   2.730   2.965
 4592W        W 8643  10.870   8.664   0.383
 4593W        W 8644   6.499  10.642   3.243
 4594W        W 8645   9.387   0.841   1.316
 4595W        W 8646   9.282   4.003   3.583
 4596W        W 8647   4.547  10.813  10.183
 4597W        W 8648   6.421  10.746   0.925
 4598W        W 8649   9.565  11.153   8.459
 4599W        W 8650  10.914   4.022   3.292
 4600W        W 8651   0.749   8.609   8.933
 4601W        W 8652   0.393   5.666   2.358
 4602W        W 8653   4.638   3.197  10.865
 4603W        W 8654  10.281  10.104  10.575
 4604W        W 8655  11.375   4.408   1.151
 4605W        W 8656   8.000   9.944   1.882
 4606W        W 8657   9.916   4.378   2.894
 4607W        W 8658   2.212   4.853   1.687
 4608W        W 8659   6.512   0.702   9.984
 4609W        W 8660   8.616   6.650   9.257
 4610W        W 8661   5.894   3.383  10.288
 4611W        W 8662   7.189   6.165   1.198
 4612W        W 8663   4.250   6.682   9.474
 4613W        W 8664   8.628   2.079   3.586
 4614W        W 8665   7.449   4.269  11.498
 4615W        W 8666   4.242   0.559  10.886
 4616W        W 8667   9.284   3.376   0.011
 4617W        W 8668   0.306   2.685  10.086
 4618W        W 8669   3.798   2.206   9.557
 4619W        W 8670   7.424  11.281   9.478
 4620W        W 8671   0.157   2.258  11.939
 4621W        W 8672   8.035  11.282   2.012
 4622W        W 8673   1.447   8.432   9.696
 4623W        W 8674   2.337   7.667   9.734
 4624W        W 8675   4.976   2.823   2.259
 4625W        W 8676   5.573   7.081   1.194
 4626W        W 8677   5.669   4.233   2.713
 4627W        W 8678   8.841   9.497   1.182
 4628W        W 8679   8.318   0.205   2.480
 4629W        W 8680   2.796   4.732  10.889
 4630W        W 8681   5.185   9.273  11.544
 4631W        W 8682   6.062   0.363   2.797
 4632W        W 8683   4.186   7.532   9.533
 4633W        W 8684   2.355   3.476   9.480
 4634W        W 8685  11.294  11.239   1.314
 4635W        W 8686   8.386  10.911   3.246
 4636W        W 8687   1.229   2.649   8.909
 4637W        W 8688   2.670   8.630   2.221
 4638W        W 8689  10.104   9.787   0.448
 4639W        W 8690   1.862   2.027  11.931
 4640W        W 8691   5.785   1.224   8.965
 4641W        W 8692   1.838   3.700  10.503
 4642W        W 8693   4.587   3.177   9.963
 4643W        W 8694   5.687   3.643  11.005
 4644W        W 8695   6.439   8.272  10.858
 4645W        W 8696   9.349  10.903   3.085
 4646W        W 8697   1.194   3.147   8.653
 4647W        W 8698   7.709   8.585   2.295
 4648W        W 8699  10.980   8.630   9.348
 4649W        W 8700   3.115   0.812   0.748
 4650W        W 8701   4.725   9.064  10.960
 4651W        W 8702   3.157   0.868   9.096
 4652W        W 8703   6.325   8.872  11.922
 4653W        W 8704   5.170  10.574   3.315
 4654W        W 8705  11.313   2.611  10.034
 4655W        W 8706   8.080   0.978   9.081
 4656W        W 8707   6.748   7.706  11.559
 4657W        W 8708   2.165   9.801   0.753
 4658W        W 8709   0.354  10.948   2.632
 4659W        W 8710  11.055   2.618  10.486
 4660W        W 8711   7.549   5.978   0.849
 4661W        W 8712   3.177   4.355   1.207
 4662W        W 8713   2.336   4.130  11.609
 4663W        W 8714  10.054  10.232   2.276
 4664W        W 8715   7.224  10.315   2.426
 4665W        W 8716   8.241   8.538   3.421
 4666W        W 8717   1.308   9.287   8.959
 4667W        W 8718  10.919   0.872  11.850
 4668W        W 8719   6.508   0.093   2.859
 4669W        W 8720  10.369   8.993   0.079
 4670W        W 8721   2.690   1.168   0.310
 4671W        W 8722   7.834   7.719   0.880
 4672W        W 8723   7.519   4.627  10.040
 4673W        W 8724   5.681   3.594   0.255
 4674W        W 8725  10.479   3.636   1.347
 4675W        W 8726   8.238   2.442   1.944
 4676W        W 8727  11.489   9.047   9.124
 4677W        W 8728   3.239   3.359   9.456
 4678W        W 8729   1.671  10.688   0.459
 4679W        W 8730   2.285   4.374   1.458
 4680W        W 8731   0.548   7.066   0.234
 4681W        W 8732  11.003   7.212   9.027
 4682W        W 8733  10.122   9.094   0.940
 4683W        W 8734   1.499   3.190   3.589
 4684W        W 8735   4.811   0.470  11.516
 4685W        W 8736   0.833  10.911   0.217
 4686W        W 8737   9.526   2.387   0.988
 4687W        W 8738   2.876  10.938   8.486
 4688W        W 8739   4.985   9.388   3.467
 4689W        W 8740   8.070   8.470   0.394
 4690W        W 8741   0.563   2.314   0.266
 4691W        W 8742   0.828   7.416   3.563
 4692W        W 8743   8.057   2.051   8.543
 4693W        W 8744   8.556   8.466   2.512
 4694W        W 8745   6.157   6.210  10.273
 4695W        W 8746   0.302   5.273  10.278
 4696W        W 8747   9.817   9.437  11.137
 4697W        W 8748  10.349   0.775   2.800
 4698W        W 8749   2.888   5.052   2.174
 4699W        W 8750   4.975  11.063  10.322
 4700W        W 8751   4.044  10.554  10.258
 4701W        W 8752   9.598  10.988  10.337
 4702W        W 8753   2.955   4.972   1.686
 4703W        W 8754  10.128   3.767  11.250
 4704W        W 8755   5.112  10.935   1.513
 4705W        W 8756   7.526   0.586  10.656
 4706W        W 8757   6.737   6.287  10.517
 4707W        W 8758   6.251   7.115   0.869
 4708W        W 8759   0.121   4.131   2.615
 4709W        W 8760   7.029   1.443   2.116
 4710W        W 8761   2.976   6.873   1.011
 4711W        W 8762  10.578   0.780   1.864
 4712W        W 8763   9.611   1.680  11.492
 4713W        W 8764   2.450   7.032   0.548
 4714W        W 8765   3.162   9.596  10.084
 4715W        W 8766  10.458   8.996   9.249
 4716W        W 8767   5.125  10.555  11.583
 4717W        W 8768   4.779   5.238   1.271
 4718W        W 8769   8.094   0.653   2.238
 4719W        W 8770   0.594   8.695   0.921
 4720W        W 8771   3.490   4.636   3.553
 4721W        W 8772   6.115   5.202   1.048
 4722W        W 8773   2.022   9.080   1.329
 4723W        W 8774   4.837   0.986   9.313
 4724W        W 8775   0.894   2.424   0.707
 4725W        W 8776   8.624   4.625   9.521
 4726W        W 8777   7.258   9.971  11.083
 4727W        W 8778   4.266   7.138  10.280
 4728W        W 8779   7.387   0.834  10.225
 4729W        W 8780   2.582   4.263  10.723
 4730W        W 8781   0.448  10.819   1.663
 4731W        W 8782   9.742   6.616  10.854
 4732W        W 8783   5.883   6.896   3.540
 4733W        W 8784   5.636   4.534   3.476
 4734W        W 8785  10.790   9.571  11.304
 4735W        W 8786   1.560   6.905   0.528
 4736W        W 8787  10.325   3.669   2.470
 4737W        W 8788   8.868  10.976   2.915
 4738W        W 8789   6.350   0.673   9.517
 4739W        W 8790   9.878   0.449  11.808
 4740W        W 8791   6.031   2.666   9.946
 4741W        W 8792   3.149   1.026   3.031
 4742W        W 8793   1.612   0.679   9.970
 4743W        W 8794   4.728   5.247   1.784
 4744W        W 8795   1.818   0.463  11.750
 4745W        W 8796   1.695   3.368  11.951
 4746W        W 8797  11.414   6.165  10.944
 4747W        W 8798   0.713   9.585   1.065
 4748W        W 8799   6.099   7.901   1.750
 4749W        W 8800   1.258   8.287  10.699
 4750W        W 8801   2.706   0.375  11.737
 4751W        W 8802   5.543   6.691   0.882
 4752W        W 8803   0.254   6.179   1.010
 4753W        W 8804   1.715   9.554   9.108
 4754W        W 8805   7.765   6.586  11.883
 4755W        W 8806   9.958   8.000   9.167
 4756W        W 8807   1.905   7.178   8.960
 4757W        W 8808   7.366  11.291  10.369
 4758W        W 8809   4.854  10.840   0.003
 4759W        W 8810   1.377  10.671   2.771
 4760W        W 8811   8.482   9.914   3.166
 4761W        W 8812   8.177  11.411   3.416
 4762W        W 8813   8.040   0.223   1.326
 4763W        W 8814   4.695   2.209  10.067
 4764W        W 8815   2.246   5.697   2.221
 4765W        W 8816   4.329   1.885  10.163
 4766W        W 8817   9.514  10.092   9.441
 4767W        W 8818   1.396   1.473   0.424
 4768W        W 8819  10.493   5.560   8.947
 4769W        W 8820   5.722  11.423   2.306
 4770W        W 8821  10.286   5.237   1.301
 4771W        W 8822   3.680   8.243   2.705
 4772W        W 8823   2.628   9.090   2.435
 4773W        W 8824   5.016   6.201   1.404
 4774W        W 8825  11.452   4.739  10.030
 4775W        W 8826   2.495   7.174   3.635
 4776W        W 8827   0.704   7.572  10.198
 4777W        W 8828   8.038   0.475   8.920
 4778W        W 8829   1.899  11.215   3.463
 4779W        W 8830   1.045  10.525   1.022
 4780W        W 8831   0.171   9.349   0.484
 4781W        W 8832   9.030   3.434   1.911
 4782W        W 8833   9.681   3.733   0.108
 4783W        W 8834   5.970   1.680  11.815
 4784W        W 8835   9.965   5.277   1.693
 4785W        W 8836   6.094   6.405   1.746
 4786W        W 8837  10.424   5.811  10.986
 4787W        W 8838   6.599   4.326   1.422
 4788W        W 8839   8.188   3.729   2.817
 4789W        W 8840   0.959  11.197   3.542
 4790W        W 8841   3.891   9.766   3.535
 4791W        W 8842  11.246   1.208  10.255
 4792W        W 8843   5.333  10.696   0.078
 4793W        W 8844   6.255   1.534  11.413
 4794W        W 8845   3.223   7.209  11.874
 4795W        W 8846   5.910  11.084  10.407
 4796W        W 8847  11.075  11.225   2.171
 4797W        W 8848   6.082   7.563   0.744
 4798W        W 8849   6.529   9.845   0.850
 4799W        W 8850   1.932   3.286   2.358
 4800W        W 8851   2.891   2.256   1.701
 4801W        W 8852  10.030   9.916   1.354
 4802W        W 8853   2.022  10.485   0.068
 4803W        W 8854   6.176   8.676   9.467
 4804W        W 8855   0.812   2.821   2.629
 4805W        W 8856  10.833   2.230   9.283
 4806W        W 8857   4.215   1.068   3.693
 4807W        W 8858   2.259   3.120  11.275
 4808W        W 8859  10.692   0.087   2.229
 4809W        W 8860   2.543  11.368  11.780
 4810W        W 8861   0.943   1.348   2.815
 4811W        W 8862   1.302   1.049  10.089
 4812W        W 8863   3.109   1.178   0.008
 4813W        W 8864   8.549   3.579   0.396
 4814W        W 8865  11.481   3.870   0.500
 4815W        W 8866  10.445   5.294   9.942
 4816W        W 8867   2.238   5.239   8.562
 4817W        W 8868   2.660   5.073   3.174
 4818W        W 8869   6.545   3.950  11.812
 4819W        W 8870   8.476   9.364   2.448
 4820W        W 8871   8.175   2.363   1.442
 4821W        W 8872   0.198   9.523   0.966
 4822W        W 8873   3.220   1.603  10.906
 4823W        W 8874   1.991  11.467  10.448
 4824W        W 8875   7.060   9.309   8.475
 4825W        W 8876   7.269   4.274   2.758
 4826W        W 8877   9.972  11.455  11.012
 4827W        W 8878   8.387   0.821  11.686
 4828W        W 8879   4.677   3.742   9.066
 4829W        W 8880   5.998   9.591   3.042
 4830W        W 8881   9.027   1.722   9.795
 4831W        W 8882   5.748   6.426   3.102
 4832W        W 8883   6.931   2.203  10.493
 4833W        W 8884   5.459   4.509   8.313
 4834W        W 8885   2.721   7.079   8.575
 4835W        W 8886   4.671   4.820  10.487
 4836W        W 8887   7.928   6.217   9.752
 4837W        W 8888   3.549  11.265   2.139
 4838W        W 8889  11.274   2.017   9.479
 4839W        W 8890  10.273   0.490  10.233
 4840W        W 8891  10.411   8.340   0.490
 4841W        W 8892   4.527   2.389   0.517
 4842W        W 8893   6.986   8.929   1.764
 4843W        W 8894   5.132   2.620   8.997
 4844W        W 8895   6.981   2.750   2.273
 4845W        W 8896   2.587   0.954   0.762
 4846W        W 8897  10.558   3.500  11.265
 4847W        W 8898   9.638   4.097   0.449
 4848W        W 8899   6.081   8.164   1.303
 4849W        W 8900   3.143  11.304   0.940
 4850W        W 8901   0.253  10.031   0.900
 4851W        W 8902   5.701  10.493   1.637
 4852W        W 8903   6.932   2.948   0.957
 4853W        W 8904  10.431   4.864  10.833
 4854W        W 8905   3.512  10.846   1.298
 4855W        W 8906   8.039   2.318   2.415
 4856W        W 8907   8.345   0.213   1.967
 4857W        W 8908   2.418   5.119  10.799
 4858W        W 8909   1.841   9.629   2.040
 4859W        W 8910   2.261  10.501   9.623
 4860W        W 8911   3.028   9.330   2.666
 4861W        W 8912   6.751   2.593   2.710
 4862W        W 8913  10.675   5.493   3.146
 4863W        W 8914   6.828   8.024   1.078
 4864W        W 8915   3.914   8.764   0.448
 4865W        W 8916   8.563  10.851   9.067
 4866W        W 8917   9.945  10.955  10.871
 4867W        W 8918   0.294  11.415   8.792
 4868W        W 8919   9.396   7.504   2.567
 4869W        W 8920  11.427   6.560   1.346
 4870W        W 8921  10.435   3.201   3.216
 4871W        W 8922   4.903   1.768   2.284
 4872W        W 8923  10.336   4.640  11.898
 4873W        W 8924   7.571   2.031   3.021
 4874W        W 8925   6.121   8.421   1.744
 4875W        W 8926  10.839   0.605   2.284
 4876W        W 8927   3.907   1.382   2.868
 4877W        W 8928   1.450   6.100   0.565
 4878W        W 8929   6.165   5.049   0.024
 4879W        W 8930   7.055   5.164   1.166
 4880W        W 8931   2.345  10.318   1.400
 4881W        W 8932   8.850   1.326   2.243
 4882W        W 8933   8.567  10.378   9.945
 4883W        W 8934   0.730   0.582  11.423
 4884W        W 8935   1.498   4.107   2.332
 4885W        W 8936   4.089   6.329   8.074
 4886W        W 8937   8.827   2.089   3.096
 4887W        W 8938   2.151   2.320   2.312
 4888W        W 8939  10.571   0.289   9.822
 4889W        W 8940   0.773   9.490  10.400
 4890W        W 8941   3.587   7.481  11.264
 4891W        W 8942   7.723   5.075  11.054
 4892W        W 8943   3.133   6.771   8.511
 4893W        W 8944   0.924   7.966   0.579
 4894W        W 8945   5.998   2.564   3.634
 4895W        W 8946   3.181   7.595  10.512
 4896W        W 8947   8.372  10.871  10.028
 4897W        W 8948   9.572  10.886   8.941
 4898W        W 8949   3.508   8.886   9.528
 4899W        W 8950   7.791   3.608   1.880
 4900W        W 8951   2.953   1.155  10.924
 4901W        W 8952   2.308   7.435  11.064
 4902W        W 8953   7.958   5.513  10.314
 4903W        W 8954   5.200   8.617   1.654
 4904W        W 8955  11.454   2.066   9.953
 4905W        W 8956   6.614   1.440   0.364
 4906W        W 8957   2.606   5.766   0.254
 4907W        W 8958   0.866   3.601  11.954
 4908W        W 8959   3.680   6.305   9.003
 4909W        W 8960   0.887   9.556   9.083
 4910W        W 8961  10.146   6.584   3.847
 4911W        W 8962   4.673   7.491  11.047
 4912W        W 8963   7.110   8.067   0.233
 4913W        W 8964   9.998   5.190   9.555
 4914W        W 8965   0.327   1.679   2.314
 4915W        W 8966   2.863   1.422   2.842
 4916W        W 8967   1.501  10.424   2.301
 4917W        W 8968  11.422   7.003  11.452
 4918W        W 8969   9.480   3.440   2.174
 4919W        W 8970   8.961   0.890   9.339
 4920W        W 8971   3.664  10.352   1.181
 4921W        W 8972  10.911   2.208  11.440
 4922W        W 8973  10.444   0.100   9.343
 4923W        W 8974   9.257   6.088   2.430
 4924W        W 8975   6.870   7.487   3.182
 4925W        W 8976   6.262  11.318   1.650
 4926W        W 8977   6.415   5.855   9.625
 4927W        W 8978   7.244   2.736   1.363
 4928W        W 8979  10.233   6.511   1.927
 4929W        W 8980   0.768   5.762  11.047
 4930W        W 8981   5.464   2.839   2.419
 4931W        W 8982   7.523   0.474   0.449
 4932W        W 8983   1.121   6.025   0.946
 4933W        W 8984   3.603   8.540   3.148
 4934W        W 8985  10.205   1.154   0.042
 4935W        W 8986   2.759   1.903   0.677
 4936W        W 8987   3.194  10.472   9.560
 4937W        W 8988   3.918   6.973  11.157
 4938W        W 8989   7.431   1.963  10.512
 4939W        W 8990   4.232   2.402   8.829
 4940W        W 8991   3.394   9.877  11.932
 4941W        W 8992   8.751   3.829   1.704
 4942W        W 8993   8.028   6.484   2.772
 4943W        W 8994   1.158  10.455  11.980
 4944W        W 8995  10.436   7.482   0.155
 4945W        W 8996  10.877   1.556   2.433
 4946W        W 8997   9.934   8.954   0.464
 4947W        W 8998   9.628   4.212   8.991
 4948W        W 8999   2.619   1.356  11.257
 4949W        W 9000   4.203  11.014   1.685
 4950W        W 9001   7.013   0.823   3.141
 4951W        W 9002   8.536   8.827   1.719
 4952W        W 9003   1.680   3.088   2.770
 4953W        W 9004  11.489   2.881  10.451
 4954W        W 9005   8.877   7.822  10.622
 4955W        W 9006   5.920  10.442   1.178
 4956W        W 9007   2.820  11.401   2.692
 4957W        W 9008   2.598   2.440   1.288
 4958W        W 9009  10.324   7.424   2.396
 4959W        W 9010   9.331   4.807   2.277
 4960W        W 9011   2.912   5.086   1.203
 4961W        W 9012  10.371   1.658  10.957
 4962W        W 9013  10.903   6.134   3.238
 4963W        W 9014   1.238   4.296   9.390
 4964W        W 9015   1.354   0.385   1.992
 4965W        W 9016   7.218   7.920  11.498
 4966W        W 9017   3.818   8.150   1.923
 4967W        W 9018   1.704   8.136   2.274
 4968W        W 9019   5.886   7.270  11.773
 4969W        W 9020   0.648   3.249   3.489
 4970W        W 9021   2.172   5.819   3.264
 4971W        W 9022  10.273  11.438   2.484
 4972W        W 9023   6.457   0.944  10.425
 4973W        W 9024   6.507   6.218   2.024
 4974W        W 9025  10.135   5.107  11.924
 4975W        W 9026  11.000   4.975  10.804
 4976W        W 9027   8.845   6.523   8.274
 4977W        W 9028   1.750   4.973   0.774
 4978W        W 9029   6.448   5.735   0.406
 4979W        W 9030   6.656   4.938  11.962
 4980W        W 9031   6.234  10.433   1.624
 4981W        W 9032  11.066   0.498   9.906
 4982W        W 9033  10.169   3.758   0.217
 4983W        W 9034   5.225   6.712   2.267
 4984W        W 9035   9.351   5.964   9.484
 4985W        W 9036   0.400   9.024  11.597
 4986W        W 9037   2.309   3.716   0.336
 4987W        W 9038   4.934   9.964   9.218
 4988W        W 9039   9.096   5.514   9.539
 4989W        W 9040   1.738   6.742   9.897
 4990W        W 9041   4.743  11.472  11.564
 4991W        W 9042   7.045   5.543  11.207
 4992W        W 9043   2.499   4.138   2.269
 4993W        W 9044   6.673  11.048   3.559
 4994W        W 9045   7.903   5.913  11.446
 4995W        W 9046   6.733   7.968   0.579
 4996W        W 9047   3.510   7.924   2.314
 4997W        W 9048   8.385   6.063  11.406
 4998W        W 9049  11.418   6.428   9.804
 4999W        W 9050   1.977   2.685   9.376
 5000W        W 9051   7.333   9.709   8.589
 5001W        W 9052   5.794   6.651   1.388
 5002W        W 9053  11.229   2.110   8.976
 5003W        W 9054   8.263  10.565  11.440
 5004W        W 9055   0.169   8.077  11.285
 5005W        W 9056   9.990   5.128   3.505
 5006W        W 9057   0.916   9.020   3.646
 5007W        W 9058   2.875   6.533  11.917
 5008W        W 9059   7.291  10.445  11.340
 5009W        W 9060   4.024   0.183   3.551
 5010W        W 9061   8.046   6.847   1.232
 5011W        W 9062   8.635   4.044   2.709
 5012W        W 9063   3.638  11.228   0.866
 5013W        W 9064   0.696   7.746   2.426
 5014W        W 9065   5.458   9.414   3.670
 5015W        W 9066   0.999   9.617  10.894
 5016W        W 9067   7.401   2.608   9.935
 5017W        W 9068   4.163   6.077   1.673
 5018W        W 9069   7.532  11.083   2.726
 5019W        W 9070   8.570   7.408  10.700
 5020W        W 9071   6.540   6.120   8.208
 5021W        W 9072   2.674   6.460   0.950
 5022W        W 9073   3.265   2.618  11.998
 5023W        W 9074   6.543   8.463   9.180
 5024W        W 9075   2.609  11.105   1.057
 5025W        W 9076   6.718  10.294   2.433
 5026W        W 9077   3.114   1.199   1.062
 5027W        W 9078   8.692  10.315   9.013
 5028W        W 9079   5.456   3.138   9.277
 5029W        W 9080   5.942   5.796  10.508
 5030W        W 9081  10.040   3.695  11.732
 5031W        W 9082  10.028   5.614   9.181
 5032W        W 9083   8.498   2.582  10.093
 5033W        W 9084   5.289   2.141  11.486
 5034W        W 9085   0.562   2.313  10.346
 5035W        W 9086   1.362   9.508  11.571
 5036W        W 9087   6.671   8.389   2.292
 5037W        W 9088   8.161   9.501   3.287
 5038W        W 9089   9.861   8.658   2.838
 5039W        W 9090   2.516   6.669   3.457
 5040W        W 9091   1.405   1.441   1.785
 5041W        W 9092   9.811   9.336   2.154
 5042W        W 9093   5.315   5.116  11.603
 5043W        W 9094   6.701  11.445   1.436
 5044W        W 9095   8.946   8.248   8.148
 5045W        W 9096   2.743   7.912   9.885
 5046W        W 9097   1.698   1.516   2.553
 5047W        W 9098   5.789   9.132   0.528
 5048W        W 9099  10.931   5.547  11.880
 5049W        W 9100   1.445   4.545   9.000
 5050W        W 9101   5.594   6.150  10.661
 5051W        W 9102  11.205  10.776   9.506
 5052W        W 9103   9.355   1.844   1.052
 5053W        W 9104   5.254   1.384   8.598
 5054W        W 9105   9.632   3.792   9.497
 5055W        W 9106   2.496   2.933  10.519
 5056W        W 9107   3.751   8.459   9.240
 5057W        W 9108  11.132   1.503   0.946
 5058W        W 9109   8.617  10.823  10.480
 5059W        W 9110   5.599   7.639   8.283
 5060W        W 9111   1.381   5.685   2.753
 5061W        W 9112   7.559  10.933   1.334
 5062W        W 9113   0.471   1.477   0.302
 5063W        W 9114   4.515   1.269  11.997
 5064W        W 9115   0.267   7.502   2.520
 5065W        W 9116   2.472   5.301   0.515
 5066W        W 9117   7.814   5.501  11.713
 5067W        W 9118   7.591   8.918  10.183
 5068W        W 9119   3.078   1.832  10.056
 5069W        W 9120   3.999   0.462   1.957
 5070W        W 9121   7.495   0.678  11.609
 5071W        W 9122   4.084   4.821   0.807
 5072W        W 9123   9.604   1.349   2.909
 5073W        W 9124   6.645   7.549   9.165
 5074W        W 9125   3.262   7.796   8.923
 5075W        W 9126  11.474   0.785  10.811
 5076W        W 9127   1.418   5.098   8.998
 5077W        W 9128   7.096  10.442   3.339
 5078W        W 9129   1.337   2.292   2.902
 5079W        W 9130   8.778   3.139  10.967
 5080W        W 9131   1.770   7.641  11.864
 5081W        W 9132   4.071   2.204   2.196
 5082W        W 9133  10.105   1.726  11.394
 5083W        W 9134   3.357   8.630   2.706
 5084W        W 9135   7.837   7.429   3.267
 5085W        W 9136   4.601   4.403  11.325
 5086W        W 9137  11.318   9.252  11.290
 5087W        W 9138   8.556   7.185  10.234
 5088W        W 9139   3.451   7.084  10.970
 5089W        W 9140   1.939   0.261  10.001
 5090W        W 9141   2.923  10.052   0.517
 5091W        W 9142   0.527  11.034   9.096
 5092W        W 9143   1.778   6.444   2.457
 5093W        W 9144   3.594   8.858  10.025
 5094W        W 9145   8.511   2.826   3.161
 5095W        W 9146   6.998   0.709  11.779
 5096W        W 9147   9.343  11.161  11.692
 5097W        W 9148   9.321  11.115   9.347
 5098W        W 9149   2.659   5.564   9.261
 5099W        W 9150   1.373   7.893  10.402
 5100W        W 9151   4.359   9.096   8.570
 5101W        W 9152  11.114   9.597   3.090
 5102W        W 9153   0.783   6.613   0.296
 5103W        W 9154   3.798   7.999   0.506
 5104W        W 9155   2.470   9.609  11.132
 5105W        W 9156   9.015   6.294   1.785
 5106W        W 9157   4.346   7.120   2.620
 5107W        W 9158  10.791   8.238   3.155
 5108W        W 9159   6.619   9.412   0.557
 5109W        W 9160   1.370   0.471   0.938
 5110W        W 9161   4.538   3.021   1.913
 5111W        W 9162   8.602   3.641   8.387
 5112W        W 9163   4.487   5.985  10.653
 5113W        W 9164   4.491   1.461   3.307
 5114W        W 9165   3.478   9.119   2.781
 5115W        W 9166   0.821   5.319   3.157
 5116W        W 9167   0.273  11.106   3.643
 5117W        W 9168   0.244   9.445  10.429
 5118W        W 9169   1.840  10.895   2.603
 5119W        W 9170   1.985   3.176   3.408
 5120W        W 9171  11.435  10.803   2.323
 5121W        W 9172   0.385   5.409  11.662
 5122W        W 9173   1.754  11.353   1.919
 5123W        W 9174   3.765   7.623   1.893
 5124W        W 9175   7.995   6.931  11.521
 5125W        W 9176   4.597   4.375   1.704
 5126W        W 9177  10.841   0.982  10.068
 5127W        W 9178  10.623   2.244  11.865
 5128W        W 9179   5.475   5.216  10.204
 5129W        W 9180   7.447   8.854  10.669
 5130W        W 9181   4.039   3.123  10.514
 5131W        W 9182   0.765   4.321   9.074
 5132W        W 9183   3.254   6.702   9.349
 5133W        W 9184   4.494   3.742   2.325
 5134W        W 9185  10.900   2.147   3.567
 5135W        W 9186   6.529   9.808   2.345
 5136W        W 9187   0.840   1.644   3.223
 5137W        W 9188   0.949   1.899  11.490
 5138W        W 9189   1.389   9.915  11.252
 5139W        W 9190   2.634   3.786   9.931
 5140W        W 9191   3.388   3.199  11.966
 5141W        W 9192   0.996   7.937   2.848
 5142W        W 9193   8.168   4.628   3.144
 5143W        W 9194   6.008   2.832   8.583
 5144W        W 9195  10.407   6.998   3.216
 5145W        W 9196   6.200   1.791   0.269
 5146W        W 9197  11.470   9.212   1.773
 5147W        W 9198   0.416   9.559   2.472
 5148W        W 9199   5.023   4.307   3.589
 5149W        W 9200   1.581   1.909   1.701
 5150W        W 9201   2.245   0.749   1.107
 5151W        W 9202   5.252   1.264   1.619
 5152W        W 9203   3.053   5.364   3.365
 5153W        W 9204   6.051   7.436  10.770
 5154W        W 9205  10.835   2.795  10.049
 5155W        W 9206   6.174   2.141  11.868
 5156W        W 9207   4.597   4.836  11.959
 5157W        W 9208  10.554   1.298   3.223
 5158W        W 9209   0.892   8.423   1.237
 5159W        W 9210   5.707   0.943   9.401
 5160W        W 9211   6.897   4.081   1.844
 5161W        W 9212   3.593   5.206   8.325
 5162W        W 9213   8.850  11.371   1.165
 5163W        W 9214   3.708   7.461  11.746
 5164W        W 9215   9.062   2.277  10.984
 5165W        W 9216   9.963   9.829   9.308
 5166W        W 9217   4.203   5.175   1.584
 5167W        W 9218   2.440  10.413   2.594
 5168W        W 9219   1.294   4.740   0.702
 5169W        W 9220   1.266   8.137   1.049
 5170W        W 9221   1.899   4.083  10.114
 5171W        W 9222   2.706   4.635   2.443
 5172W        W 9223   7.911   8.809  11.571
 5173W        W 9224   8.555   5.746   2.615
 5174W        W 9225  10.263   7.020   0.944
 5175W        W 9226   0.940   4.178   3.543
 5176W        W 9227   0.918   5.521   2.515
 5177W        W 9228   8.774   6.096   1.013
 5178W        W 9229   1.688   4.174   2.831
 5179W        W 9230   2.072   9.558   3.103
 5180W        W 9231   5.116   7.027   0.210
 5181W        W 9232  10.748   2.670   1.658
 5182W        W 9233   9.497   5.754   9.012
 5183W        W 9234  10.851  10.430   8.765
 5184W        W 9235   3.608   4.205   1.456
 5185W        W 9236   0.427   5.484  10.770
 5186W        W 9237   6.092   7.631   1.260
 5187W        W 9238   9.653   1.210   3.406
 5188W        W 9239   3.366   4.288   9.879
 5189W        W 9240  10.996   1.145   3.393
 5190W        W 9241   8.101   1.918   9.084
 5191W        W 9242   6.058   0.915   3.487
 5192W        W 9243   0.711  10.867  10.328
 5193W        W 9244   6.914   9.614   8.867
 5194W        W 9245  11.076   2.443   2.633
 5195W        W 9246   9.214   5.333   9.071
 5196W        W 9247   0.953   4.156  10.755
 5197W        W 9248   9.542  10.376   2.378
 5198W        W 9249   3.841   6.470  11.293
 5199W        W 9250   1.830   7.546  10.937
 5200W        W 9251   3.703   6.117   2.003
 5201W        W 9252   2.677   1.763   9.289
 5202W        W 9253   8.915   4.154  10.178
 5203W        W 9254   4.957   3.071   9.178
 5204W        W 9255   6.382   6.225   0.515
 5205W        W 9256   8.633   1.878   9.035
 5206W        W 9257   9.436  10.850   2.199
 5207W        W 9258   9.112   5.207   0.025
 5208W        W 9259   4.656   9.489   0.261
 5209W        W 9260   3.395   7.032   2.316
 5210W        W 9261   2.007   6.332   9.732
 5211W        W 9262   6.783  11.132   0.903
 5212W        W 9263   3.997   1.001   9.936
 5213W        W 9264   6.126   0.532   8.796
 5214W        W 9265   9.119   6.602  11.671
 5215W        W 9266   9.544   1.461   1.949
 5216W        W 9267   8.960   8.536   8.576
 5217W        W 9268   6.584   6.802   3.421
 5218W        W 9269  10.413   5.216   0.417
 5219W        W 9270   0.801   7.126  10.507
 5220W        W 9271   2.255   5.571  10.583
 5221W        W 9272   1.516   4.981   9.840
 5222W        W 9273   0.260   2.143  11.447
 5223W        W 9274   9.273  11.457   2.926
 5224W        W 9275   7.978   1.196   0.173
 5225W        W 9276   3.360   7.068   1.283
 5226W        W 9277   3.569   8.467   1.127
 5227W        W 9278   8.941   7.316  11.541
 5228W        W 9279   2.467   4.244   0.102
 5229W        W 9280   0.869   0.301   1.337
 5230W        W 9281   5.293   1.109   9.056
 5231W        W 9282   7.953   9.350  10.877
 5232W        W 9283   1.249   8.658  11.080
 5233W        W 9284   2.650   0.096   2.196
 5234W        W 9285   3.166  10.832   0.142
 5235W        W 9286   0.644   5.481   0.436
 5236W        W 9287   1.105   1.839   9.496
 5237W        W 9288   2.074   2.913  10.824
 5238W        W 9289   8.478   4.927   2.322
 5239W        W 9290   6.645   0.426  11.209
 5240W        W 9291   9.370   9.867  11.979
 5241W        W 9292   9.678   8.534   1.145
 5242W        W 9293  11.148   8.207  10.705
 5243W        W 9294  11.038   3.978  10.964
 5244W        W 9295   9.320   2.172  11.516
 5245W        W 9296   3.206   4.779   2.513
 5246W        W 9297  11.224   0.474   0.082
 5247W        W 9298   1.474   2.750   9.450
 5248W        W 9299   9.818   2.150  11.495
 5249W        W 9300   7.597   4.130  10.168
 5250W        W 9301   0.678   7.609   3.057
 5251W        W 9302   0.956   2.798  11.360
 5252W        W 9303   6.092   2.051  10.845
 5253W        W 9304   7.231   1.506  11.337
 5254W        W 9305   1.802   8.199   3.115
 5255W        W 9306   3.927   2.799   1.154
 5256W        W 9307   8.524  10.010  11.817
 5257W        W 9308  10.380   1.247   1.785
 5258W        W 9309   1.722   0.027   0.937
 5259W        W 9310   9.254   7.617   1.547
 5260W        W 9311   9.563   8.957   9.875
 5261W        W 9312   9.122   5.417   1.901
 5262W        W 9313   3.706   3.105   9.592
 5263W        W 9314   1.747   0.733   3.130
 5264W        W 9315   7.086   6.315  10.144
 5265W        W 9316   5.133   0.745  10.752
 5266W        W 9317   2.855   2.809   1.499
 5267W        W 9318   1.343   8.903   9.507
 5268W        W 9319   4.400   9.952  11.669
 5269W        W 9320   9.363   3.857   9.941
 5270W        W 9321   2.828   0.011   1.262
 5271W        W 9322  10.786   5.401  11.008
 5272W        W 9323   1.336   7.580   0.361
 5273W        W 9324   0.032   4.780  11.027
 5274W        W 9325  11.068   3.521  11.785
 5275W        W 9326   1.221   4.666   2.345
 5276W        W 9327   4.962  10.388   9.543
 5277W        W 9328   4.293   7.127   3.154
 5278W        W 9329   3.423   6.668   0.728
 5279W        W 9330   5.709   8.528  11.341
 5280W        W 9331   9.636   5.130  11.940
 5281W        W 9332   3.402   0.240  10.943
 5282W        W 9333   6.442   3.594   2.399
 5283W        W 9334   9.113   2.441  11.900
 5284W        W 9335   2.737  10.289   9.640
 5285W        W 9336   4.852  10.089  11.451
 5286W        W 9337   8.892   2.929   1.811
 5287W        W 9338   2.876   9.428  10.861
 5288W        W 9339  11.476   1.293   3.352
 5289W        W 9340   3.460   8.843  11.067
 5290W        W 9341   0.386   4.480  10.726
 5291W        W 9342   6.206   8.654   1.163
 5292W        W 9343   2.293   5.656  10.097
 5293W        W 9344   0.476   1.782   1.396
 5294W        W 9345   0.799   6.586   9.542
 5295W        W 9346   0.869   1.470   2.320
 5296W        W 9347  10.784   4.153  11.824
 5297W        W 9348   1.215   9.754  10.324
 5298W        W 9349   4.339   6.526  11.311
 5299W        W 9350   9.147   7.112   2.353
 5300W        W 9351   1.228   6.253   9.456
 5301W        W 9352   3.353  11.289  10.154
 5302W        W 9353   5.127   0.302  11.001
 5303W        W 9354  11.325   1.784   3.114
 5304W        W 9355   1.429   3.149   2.341
 5305W        W 9356  10.827   7.407   0.489
 5306W        W 9357  10.746   6.572   0.404
 5307W        W 9358   5.170   9.930   1.697
 5308W        W 9359   9.482   4.877  11.076
 5309W        W 9360   7.024   0.986   0.795
 5310W        W 9361   2.083   1.556  11.073
 5311W        W 9362   6.183   0.877   1.922
 5312W        W 9363   7.950   1.372  10.904
 5313W        W 9364   1.594   4.190  10.553
 5314W        W 9365  10.811   8.626   2.725
 5315W        W 9366   5.280   0.683   0.293
 5316W        W 9367   3.598   9.640   1.595
 5317W        W 9368   3.350   6.685  11.848
 5318W        W 9369   8.387   1.679  10.832
 5319W        W 9370   1.488   4.513  11.309
 5320W        W 9371  10.388   1.562  11.823
 5321W        W 9372   5.234   0.347   9.989
 5322W        W 9373   9.860   2.669   9.852
 5323W        W 9374   6.616   4.056   0.988
 5324W        W 9375   1.351   6.067  10.364
 5325W        W 9376   7.674   2.149  10.089
 5326W        W 9377  10.581  11.076   2.264
 5327W        W 9378   9.750   5.258  10.838
 5328W        W 9379   0.027   5.559   2.777
 5329W        W 9380   5.817   6.076   2.694
 5330W        W 9381   6.847   9.773   3.646
 5331W        W 9382   3.898   4.207   2.303
 5332W        W 9383   9.776   0.067   2.749
 5333W        W 9384   4.682   7.361   1.990
 5334W        W 9385   3.877   0.575   0.448
 5335W        W 9386   8.710   7.379  11.994
 5336W        W 9387   5.140   3.496   0.018
 5337W        W 9388   1.426   7.534   9.495
 5338W        W 9389  11.374   5.594  10.236
 5339W        W 9390   2.379   2.990   9.374
 5340W        W 9391   8.999   1.468   0.229
 5341W        W 9392   8.011   7.433  11.579
 5342W        W 9393   8.063   8.780   2.998
 5343W        W 9394   7.686   1.525  10.497
 5344W        W 9395   5.704   2.358  11.271
 5345W        W 9396   7.977   1.890  11.064
 5346W        W 9397   1.411   0.047   0.498
 5347W        W 9398   6.642   4.996  10.560
 5348W        W 9399   1.000   1.973  10.345
 5349W        W 9400   1.742   3.494   3.082
 5350W        W 9401   0.052   9.006   0.826
 5351W        W 9402  10.135   4.233  11.002
 5352W        W 9403   3.022   7.877   8.029
 5353W        W 9404   2.032   5.109   0.355
 5354W        W 9405  10.386   1.434   2.260
 5355W        W 9406   1.391   0.272   2.488
 5356W        W 9407   0.044   5.143   8.534
 5357W        W 9408   2.697   0.878  11.888
 5358W        W 9409   2.722   0.584   2.398
 5359W        W 9410   4.696   7.957  10.809
 5360W        W 9411   0.456   4.534  11.235
 5361W        W 9412   0.964   5.805   3.018
 5362W        W 9413   9.078  10.873   1.817
 5363W        W 9414   3.763  11.492   2.798
 5364W        W 9415   6.435   1.511  11.892
 5365W        W 9416   6.637  10.440   8.929
 5366W        W 9417   4.319   4.680   9.149
 5367W        W 9418   7.209   3.362  10.557
 5368W        W 9419   9.427  10.244   0.868
 5369W        W 9420   9.073  10.781   9.041
 5370W        W 9421   1.911  11.256   9.377
 5371W        W 9422  10.239   9.620  11.975
 5372W        W 9423   0.397   4.630   0.701
 5373W        W 9424   6.081   4.604   2.675
 5374W        W 9425   8.032  10.052   9.582
 5375W        W 9426  11.429   0.132  10.081
 5376W        W 9427   4.417   2.788  10.606
 5377W        W 9428   2.833  10.800   9.428
 5378W        W 9429   5.532   4.611   9.607
 5379W        W 9430  10.322   2.866   9.988
 5380W        W 9431   5.071   0.348  11.953
 5381W        W 9432   7.521   4.019   1.071
 5382W        W 9433   6.802   7.114  10.399
 5383W        W 9434   4.597   4.636   2.513
 5384W        W 9435   7.127   5.295  10.355
 5385W        W 9436   6.239   3.871  11.424
 5386W        W 9437   2.921   6.620  11.412
 5387W        W 9438   9.927   9.591   1.722
 5388W        W 9439   9.022   8.950   8.889
 5389W        W 9440   8.966  11.480  11.956
 5390W        W 9441   7.525   9.683   0.497
 5391W        W 9442   2.666   1.441   0.859
 5392W        W 9443   1.186   8.381   0.240
 5393W        W 9444   8.102   2.373  10.998
 5394W        W 9445   1.153   9.154  11.036
 5395W        W 9446   5.717   1.455   1.431
 5396W        W 9447   6.190   3.802   3.328
 5397W        W 9448   4.140   8.252  10.738
 5398W        W 9449   8.088   6.771   9.575
 5399W        W 9450   3.864   8.660   1.853
 5400W        W 9451   9.061  11.428   3.466
 5401W        W 9452   4.155   8.858   1.242
 5402W        W 9453   6.108   1.900  10.368
 5403W        W 9454   8.660   9.522   3.436
 5404W        W 9455   3.650   7.529   9.719
 5405W        W 9456   3.562   0.981   2.670
 5406W        W 9457   1.214  10.826  10.306
 5407W        W 9458   8.856  10.394   1.138
 5408W        W 9459  11.314   4.694   2.155
 5409W        W 9460   5.239   2.740   8.498
 5410W        W 9461   4.281   5.202   1.079
 5411W        W 9462   1.726   6.457   3.035
 5412W        W 9463   0.252  11.425   9.301
 5413W        W 9464   3.250   1.272  10.512
 5414W        W 9465   9.993   8.623   0.066
 5415W        W 9466   3.411  10.998   8.395
 5416W        W 9467   5.427   9.512   1.445
 5417W        W 9468   5.513   8.946  10.351
 5418W        W 9469   6.058   4.532   9.723
 5419W        W 9470   2.887   8.120  11.481
 5420W        W 9471   8.475  11.258   8.742
 5421W        W 9472   0.836   2.360  10.803
 5422W        W 9473   9.456   4.550   0.490
 5423W        W 9474   2.439   3.211   2.276
 5424W        W 9475  10.064   2.262   2.331
 5425W        W 9476   7.290   6.152   8.774
 5426W        W 9477  10.730   0.302   2.718
 5427W        W 9478   7.553   0.433   1.450
 5428W        W 9479   7.615   9.937   9.291
 5429W        W 9480   3.657   2.698   2.851
 5430W        W 9481  10.358   6.052   9.021
 5431W        W 9482   0.367   3.716   9.411
 5432W        W 9483   8.739   6.351  10.008
 5433W        W 9484  10.973   4.570   9.976
 5434W        W 9485   5.031   4.756   0.665
 5435W        W 9486   3.826   9.873   3.037
 5436W        W 9487   9.030   3.798   2.912
 5437W        W 9488   2.192   0.825   2.610
 5438W        W 9489   7.046   5.496   1.559
 5439W        W 9490   0.023   6.136   0.537
 5440W        W 9491   4.660   9.876   3.100
 5441W        W 9492  10.684   3.097  11.541
 5442W        W 9493   9.893   2.245   9.565
 5443W        W 9494   3.151   4.253   8.871
 5444W        W 9495  10.038   0.365  11.335
 5445W        W 9496   8.033   2.654   3.342
 5446W        W 9497   3.939   5.250  11.088
 5447W        W 9498   1.166   4.249  10.298
 5448W        W 9499   0.468   1.214   2.091
 5449W        W 9500   4.314   0.254  11.521
 5450W        W 9501   3.356   0.333  10.418
 5451W        W 9502   5.878   0.524   1.746
 5452W        W 9503   5.278   7.904   2.212
 5453W        W 9504   4.654   8.503  11.901
 5454W        W 9505   8.437   7.181   1.151
 5455W        W 9506   9.478   6.546   2.595
 5456W        W 9507   8.304   3.813   9.144
 5457W        W 9508   3.276   7.984  11.204
 5458W        W 9509   8.198   3.204   8.522
 5459W        W 9510   7.436   6.124   2.142
 5460W        W 9511  10.967   5.691   9.097
 5461W        W 9512   5.969   9.163   9.495
 5462W        W 9513   5.730  11.008  11.955
 5463W        W 9514   8.945   9.988   9.576
 5464W        W 9515   5.251   1.623   9.760
 5465W        W 9516   8.996   6.436   1.305
 5466W        W 9517   4.774   9.925   0.026
 5467W        W 9518   7.722   7.590  11.969
 5468W        W 9519   0.681   2.219   1.208
 5469W        W 9520  10.994   4.294   9.352
 5470W        W 9521  10.821  11.065   8.558
 5471W        W 9522   1.291   5.250   0.754
 5472W        W 9523   7.015   9.841   1.727
 5473W        W 9524   8.089   5.414  11.287
 5474W        W 9525   1.181   5.227  10.135
 5475W        W 9526   2.702   3.283   0.743
 5476W        W 9527   7.464  10.548   1.689
 5477W        W 9528   9.996  10.447  10.811
 5478W        W 9529   6.277   6.658   2.191
 5479W        W 9530  10.275   9.188   2.275
 5480W        W 9531   2.400   2.277   1.824
 5481W        W 9532   8.856   7.639   0.784
 5482W        W 9533  10.956   4.716   1.186
 5483W        W 9534   9.811  10.987  11.787
 5484W        W 9535  11.132   2.246  11.941
 5485W        W 9536   3.904   1.596  11.485
 5486W        W 9537   0.011   4.137   8.540
 5487W        W 9538   7.583   7.103  11.782
 5488W        W 9539   5.946   2.760   1.864
 5489W        W 9540   1.817  10.880   2.101
 5490W        W 9541   6.120  10.544   3.666
 5491W        W 9542   8.782   8.901  11.613
 5492W        W 9543  10.518   4.079   3.620
 5493W        W 9544   4.602   0.455  10.438
 5494W        W 9545   5.235   0.863   2.435
 5495W        W 9546   7.362   7.608   3.228
 5496W        W 9547   9.658   2.616   2.830
 5497W        W 9548   1.787   0.440   8.477
 5498W        W 9549   8.061   6.835  10.374
 5499W        W 9550   9.307   1.098   8.550
 5500W        W 9551   6.905   2.483  11.527
 5501W        W 9552   8.632   0.755  10.674
 5502W        W 9553   0.807   7.737   8.861
 5503W        W 9554   2.192   3.630  11.815
 5504W        W 9555   9.441  10.816  10.813
 5505W        W 9556   8.876   4.336   1.733
 5506W        W 9557   4.852   7.149   8.943
 5507W        W 9558   5.327   8.290   2.607
 5508W        W 9559   0.509   3.193   9.285
 5509W        W 9560  10.530   6.126   0.339
 5510W        W 9561  10.919   6.662   9.095
 5511W        W 9562   0.961   6.159   0.437
 5512W        W 9563   5.857   1.377   0.241
 5513W        W 9564   1.345   8.952   1.514
 5514W        W 9565   7.708   2.478   1.268
 5515W        W 9566   2.721   3.016   8.794
 5516W        W 9567   9.469   9.160   0.350
 5517W        W 9568   3.676   0.866  11.831
 5518W        W 9569  10.095   5.177   0.839
 5519W        W 9570  11.083   7.392   1.995
 5520W        W 9571   1.601   8.072   8.879
 5521W        W 9572   1.571   2.889  11.946
 5522W        W 9573   4.156   1.264   9.501
 5523W        W 9574   6.081   3.255  11.610
 5524W        W 9575   6.157   6.724   9.379
 5525W        W 9576  11.356   8.898   0.318
 5526W        W 9577   4.093   9.304   0.883
 5527W        W 9578   8.050   5.220   2.356
 5528W        W 9579   6.879   1.669  11.703
 5529W        W 9580   5.293   7.156  10.421
 5530W        W 9581   9.093   8.092   3.216
 5531W        W 9582   7.224   3.789  11.329
 5532W        W 9583   7.117   8.957   1.257
 5533W        W 9584   0.353   5.042   9.802
 5534W        W 9585   9.598   8.889   1.966
 5535W        W 9586   8.437   0.296  10.871
 5536W        W 9587   3.675   4.582   1.076
 5537W        W 9588   6.137   0.312   9.829
 5538W        W 9589   1.519   5.671   0.939
 5539W        W 9590   4.424   0.830   9.605
 5540W        W 9591   3.715   3.626   0.255
 5541W        W 9592   8.777  10.313   0.633
 5542W        W 9593   0.810   4.583   8.627
 5543W        W 9594   2.661   6.439   1.864
 5544W        W 9595   0.690   6.553   8.449
 5545W        W 9596   3.164   0.003   1.887
 5546W        W 9597   9.449   9.752   0.706
 5547W        W 9598   4.493   4.331   1.220
 5548W        W 9599   8.215   3.241   2.617
 5549W        W 9600   7.813   9.076   2.088
 5550W        W 9601   8.570   8.666   0.435
 5551W        W 9602   0.806   8.344  11.827
 5552W        W 9603   9.584   5.544  10.378
 5553W        W 9604   1.284   8.297   3.176
 5554W        W 9605   5.569  10.822  10.098
 5555W        W 9606   5.063   7.622  10.551
 5556W        W 9607   2.049   2.468   8.529
 5557W        W 9608   7.702   8.584   1.374
 5558W        W 9609   5.083  10.474   2.814
 5559W        W 9610  11.000   6.644   0.826
 5560W        W 9611   2.322   2.280  11.978
 5561W        W 9612   9.988   7.655   2.807
 5562W        W 9613   3.673   1.700   8.860
 5563W        W 9614  10.366   7.112  11.078
 5564W        W 9615   2.312   0.957   1.673
 5565W        W 9616   2.595  11.070  11.342
 5566W        W 9617   5.579   0.877  10.996
 5567W        W 9618   4.419   9.848   9.312
 5568W        W 9619   6.459   6.568   0.154
 5569W        W 9620  10.845   3.040   2.013
 5570W        W 9621  10.444   1.116   9.320
 5571W        W 9622   5.958   5.745   9.201
 5572W        W 9623   2.238   2.321   2.828
 5573W        W 9624   8.099   7.838   2.551
 5574W        W 9625   7.501  10.985  11.990
 5575W        W 9626  11.353   8.543   2.787
 5576W        W 9627   4.877   3.981  11.218
 5577W        W 9628   5.602   1.939   1.499
 5578W        W 9629   0.381   2.594   2.864
 5579W        W 9630   7.657  11.363   9.938
 5580W        W 9631   7.743   8.932  11.091
 5581W        W 9632   5.965   3.973   2.369
 5582W        W 9633   5.221   7.456   0.472
 5583W        W 9634   8.170   1.932   1.727
 5584W        W 9635   8.679   8.084   8.581
 5585W        W 9636   5.070   9.357   0.023
 5586W        W 9637   6.985   4.110   3.456
 5587W        W 9638   6.505   7.331   1.472
 5588W        W 9639   6.199   0.441   3.311
 5589W        W 9640   0.390   3.578   0.168
 5590W        W 9641   7.778   7.123  10.706
 5591W        W 9642   0.078   9.783   0.257
 5592W        W 9643   9.063   2.794   0.310
 5593W        W 9644   8.152   1.653   0.376
 5594W        W 9645   2.175   3.884   9.718
 5595W        W 9646   9.581   9.535   8.564
 5596W        W 9647   3.367   8.306   8.421
 5597W        W 9648   5.468   4.395   9.134
 5598W        W 9649   0.784  10.579  11.145
 5599W        W 9650   8.945   8.594  10.228
 5600W        W 9651   5.621   7.543   1.398
 5601W        W 9652   4.269   4.058  10.732
 5602W        W 9653   4.809   1.731   9.996
 5603W        W 9654   8.566   6.702  10.357
 5604W        W 9655   4.042   9.101  10.178
 5605W        W 9656   3.824   5.285   0.778
 5606W        W 9657   8.850   9.986   3.509
 5607W        W 9658   3.682   5.888  11.646
 5608W        W 9659  10.944   3.121   3.455
 5609W        W 9660   4.769   2.615   2.746
 5610W        W 9661   4.064   0.900   2.674
 5611W        W 9662  10.307  10.507   1.057
 5612W        W 9663   3.853   4.888  11.820
 5613W        W 9664   8.613   4.461  10.843
 5614W        W 9665  10.849   0.354   1.833
 5615W        W 9666   3.699   9.454  11.746
 5616W        W 9667  10.244  10.751   9.583
 5617W        W 9668   7.865   5.121   8.664
 5618W        W 9669   9.553   1.155  10.818
 5619W        W 9670   0.362  11.362  11.115
 5620W        W 9671   9.550   0.251   1.411
 5621W        W 9672  11.368   8.163   9.328
 5622W        W 9673   6.025   8.971  10.429
 5623W        W 9674   0.381   0.845   1.120
 5624W        W 9675   6.906   1.650   9.811
 5625W        W 9676   1.315   4.081  11.527
 5626W        W 9677   9.818   7.501   0.800
 5627W        W 9678   7.887   2.759   9.988
 5628W        W 9679   2.672   8.307  10.629
 5629W        W 9680   9.374   6.528   8.251
 5630W        W 9681  11.310   0.041   2.751
 5631W        W 9682   3.743  11.298   3.306
 5632W        W 9683   3.010   7.820   2.247
 5633W        W 9684   3.708   2.944   2.396
 5634W        W 9685   3.665   6.211   3.528
 5635W        W 9686  11.449   9.862   1.279
 5636W        W 9687   7.730   5.177   0.485
 5637W        W 9688   3.147   2.429   1.301
 5638W        W 9689   0.770   7.960   9.744
 5639W        W 9690   0.517   5.796   1.886
 5640W        W 9691   9.543   3.167   1.346
 5641W        W 9692   5.977   8.285   0.218
 5642W        W 9693   2.293   8.968   2.022
 5643W        W 9694   4.582  10.312   9.048
 5644W        W 9695   7.879  11.414   3.001
 5645W        W 9696   9.431   8.162   0.362
 5646W        W 9697   4.193   6.098  11.069
 5647W        W 9698   1.360   6.993  10.547
 5648W        W 9699   8.452   6.236  10.532
 5649W        W 9700   9.323   4.975  11.581
 5650W        W 9701   0.933   3.731   0.952
 5651W        W 9702   8.016   9.040   3.441
 5652W        W 9703   0.443   9.288   9.011
 5653W        W 9704   8.637   1.260   3.103
 5654W        W 9705   8.538   4.728   9.027
 5655W        W 9706   6.459   6.227  10.945
 5656W        W 9707   2.933   4.704  11.430
 5657W        W 9708   2.270   0.544   9.521
 5658W        W 9709   6.583  11.221   2.490
 5659W        W 9710   5.637   5.145   1.770
 5660W        W 9711   6.029   6.233   8.145
 5661W        W 9712   9.827  10.587   1.978
 5662W        W 9713   3.235   3.776   9.131
 5663W        W 9714   1.153   3.266   1.085
 5664W        W 9715   9.098  11.252   9.988
 5665W        W 9716   9.608   2.891  10.500
 5666W        W 9717   5.073   3.246   0.492
 5667W        W 9718   3.377   9.307   2.292
 5668W        W 9719   5.081   7.799   0.114
 5669W        W 9720   3.078   4.132  10.800
 5670W        W 9721   3.631   1.264   0.699
 5671W        W 9722   6.554   4.138   3.159
 5672W        W 9723   7.549   0.338  10.189
 5673W        W 9724   3.603  10.525  11.839
 5674W        W 9725   9.067   2.758   1.271
 5675W        W 9726   3.825  10.829   2.060
 5676W        W 9727   6.147   9.967   1.410
 5677W        W 9728   5.265   7.925   0.902
 5678W        W 9729   7.848   1.460   9.203
 5679W        W 9730   3.378   7.688   0.057
 5680W        W 9731   7.702   1.152  11.729
 5681W        W 9732   9.924  10.736   0.271
 5682W        W 9733   7.280   8.042   9.459
 5683W        W 9734   7.600   9.747  10.781
 5684W        W 9735   3.330   5.241   1.967
 5685W        W 9736   8.437   4.710  10.421
 5686W        W 9737   3.085   0.606   2.757
 5687W        W 9738  10.569   2.329   2.615
 5688W        W 9739  10.040   0.878   9.600
 5689W        W 9740  10.220   9.370   9.514
 5690W        W 9741   9.468   2.664   3.325
 5691W        W 9742   7.387   9.083  11.445
 5692W        W 9743   8.057   3.352   9.158
 5693W        W 9744   5.817   5.542   1.453
 5694W        W 9745   2.176   5.318   3.474
 5695W        W 9746   0.710   5.734   3.445
 5696W        W 9747   4.082   1.441  11.026
 5697W        W 9748   2.663   4.142   1.767
 5698W        W 9749   5.565   8.251   3.227
 5699W        W 9750   6.602  10.020   8.147
 5700W        W 9751   3.355   1.914   1.302
 5701W        W 9752   1.001  10.982   0.810
 5702W        W 9753   6.676   6.708   2.913
 5703W        W 9754   3.876   4.379   0.629
 5704W        W 9755   2.315   0.038   9.536
 5705W        W 9756   0.010  11.397   3.228
 5706W        W 9757   9.161   6.640   9.993
 5707W        W 9758   7.920   4.163   2.192
 5708W        W 9759   9.099   4.276   3.128
 5709W        W 9760   3.239   9.911   1.824
 5710W        W 9761   2.695   6.647   2.378
 5711W        W 9762  10.410   7.063  10.545
 5712W        W 9763   6.744   2.064   2.826
 5713W        W 9764   2.708   9.064  11.485
 5714W        W 9765   4.462   6.762   8.627
 5715W        W 9766   2.115   8.629  11.750
 5716W        W 9767   7.698   3.772  11.528
 5717W        W 9768  10.415   7.617  11.242
 5718W        W 9769   4.402   0.738   1.727
 5719W        W 9770   3.900   4.385  10.525
 5720W        W 9771  10.232  10.419   1.566
 5721W        W 9772   0.092   0.961   1.846
 5722W        W 9773   2.152   7.467   1.004
 5723W        W 9774   1.144   0.240  10.685
 5724W        W 9775  11.304   1.262   1.375
 5725W        W 9776   3.466   9.629   2.770
 5726W        W 9777   3.575   2.320   2.516
 5727W        W 9778   7.649   0.191   9.161
 5728W        W 9779   1.792   1.265   3.363
 5729W        W 9780   3.192   5.706  10.991
 5730W        W 9781   6.973   4.656   0.267
 5731W        W 9782  11.098   0.316   3.116
 5732W        W 9783   4.322   8.707  11.557
 5733W        W 9784   1.219   0.627  10.360
 5734W        W 9785   9.999   1.887  11.892
 5735W        W 9786   5.633   3.254   9.828
 5736W        W 9787   2.504   8.536   8.318
 5737W        W 9788   1.298   1.069  10.606
 5738W        W 9789  10.910   3.280   2.936
 5739W        W 9790   3.964   8.365   1.402
 5740W        W 9791   8.683   7.878  11.909
 5741W        W 9792   9.353   1.794   2.941
 5742W        W 9793   9.437   4.913   0.983
 5743W        W 9794   1.920   3.647   8.874
 5744W        W 9795  11.391   8.857   1.414
 5745W        W 9796   4.219   9.970   0.863
 5746W        W 9797   2.766   1.665   0.201
 5747W        W 9798   7.219   3.841  10.297
 5748W        W 9799   7.718   8.015  11.629
 5749W        W 9800   3.146   3.681   1.838
 5750W        W 9801   5.202   9.033   9.036
 5751W        W 9802  10.634   7.695  11.696
 5752W        W 9803   2.726  10.249   8.744
 5753W        W 9804   0.046   7.499  11.350
 5754W        W 9805   0.289   1.196  11.225
 5755W        W 9806  10.921  11.373   3.294
 5756W        W 9807   5.757   1.480   8.529
 5757W        W 9808   3.286   1.357   9.296
 5758W        W 9809   6.030   6.537   2.656
 5759W        W 9810  10.946   6.253   0.050
 5760W        W 9811   3.868   3.873  10.959
 5761W        W 9812  11.358   7.172   9.395
 5762W        W 9813   0.193   1.407  10.306
 5763W        W 9814   0.803   0.820   2.167
 5764W        W 9815   1.054   6.079  11.345
 5765W        W 9816   3.171   4.948   0.396
 5766W        W 9817   0.682   8.404   0.341
 5767W        W 9818   6.708  11.369   0.365
 5768W        W 9819   8.999   0.938   0.952
 5769W        W 9820  11.283   1.119   9.515
 5770W        W 9821   0.901   4.206   2.250
 5771W        W 9822   8.104   9.244   2.814
 5772W        W 9823   9.472   2.158   1.453
 5773W        W 9824   1.255   7.562  11.856
 5774W        W 9825   2.233   6.132   1.959
 5775W        W 9826   9.480   9.334   1.769
 5776W        W 9827  10.570   6.243  10.759
 5777W        W 9828   9.393   7.011   3.314
 5778W        W 9829   8.599   6.144   1.474
 5779W        W 9830   7.071   6.225   8.308
 5780W        W 9831   0.941   5.326  10.861
 5781W        W 9832   8.893   9.596   2.232
 5782W        W 9833  11.319   7.433   0.300
 5783W        W 9834   8.746   0.391   2.746
 5784W        W 9835   6.712   3.171  10.276
 5785W        W 9836   5.986   9.957   3.410
 5786W        W 9837   5.960   4.581   0.217
 5787W        W 9838   5.709   7.383   3.597
 5788W        W 9839   6.339   8.098  11.847
 5789W        W 9840  11.376   5.765   2.340
 5790W        W 9841  10.806  10.875   0.368
 5791W        W 9842   7.012   3.709  11.807
 5792W        W 9843   6.861   2.293   2.027
 5793W        W 9844   8.157  10.451   0.495
 5794W        W 9845   2.765   1.271   1.747
 5795W        W 9846   8.528   6.640   1.183
 5796W        W 9847   8.040  10.515   2.538
 5797W        W 9848   5.618  10.983   1.614
 5798W        W 9849  11.424   4.593   9.530
 5799W        W 9850   2.885   0.396   9.101
 5800W        W 9851  10.742   4.101  10.541
 5801W        W 9852   3.107   7.141  11.368
 5802W        W 9853   4.637  10.267   2.676
 5803W        W 9854   1.257  10.073   0.932
 5804W        W 9855   5.490   3.659   8.565
 5805W        W 9856   2.308   7.206   0.054
 5806W        W 9857   6.136   9.817  11.842
 5807W        W 9858   4.061   7.535  10.023
 5808W        W 9859   5.287   8.600   4.157
 5809W        W 9860   7.428   0.988   2.893
 5810W        W 9861   0.264   1.352   1.169
 5811W        W 9862   7.142   9.615   9.828
 5812W        W 9863  10.525   2.768  10.462
 5813W        W 9864  11.342   0.737   2.224
 5814W        W 9865   1.299  10.959   3.193
 5815W        W 9866   2.483  10.796   0.688
 5816W        W 9867   0.939   9.578   8.579
 5817W        W 9868   6.749   2.287   8.963
 5818W        W 9869   2.636   0.767  10.795
 5819W        W 9870   4.581   6.188   0.290
 5820W        W 9871   3.429   0.907   0.322
 5821W        W 9872   0.554   9.487  11.797
 5822W        W 9873   5.907   2.275   1.715
 5823W        W 9874   2.782   3.342   9.749
 5824W        W 9875   2.846  10.092  11.458
 5825W        W 9876   5.138   3.292   9.624
 5826W        W 9877   0.355   3.995   8.952
 5827W        W 9878   8.200   3.673  11.511
 5828W        W 9879   6.620   0.144   0.935
 5829W        W 9880   1.778   1.368   0.758
 5830W        W 9881  11.427  10.721   3.743
 5831W        W 9882   0.103   3.856  10.281
 5832W        W 9883  10.243   4.612   3.237
 5833W        W 9884  10.416   8.018   8.936
 5834W        W 9885   5.316   8.019  10.214
 5835W        W 9886   6.982   6.602   0.350
 5836W        W 9887  10.402   6.742  11.532
 5837W        W 9888   6.151   4.570   1.702
 5838W        W 9889  10.533   7.858   1.440
 5839W        W 9890   6.294   7.945  10.049
 5840W        W 9891   4.037   6.444   1.313
 5841W        W 9892   6.702   5.572   0.833
 5842W        W 9893   0.400   0.880   2.953
 5843W        W 9894   3.091   6.218  11.082
 5844W        W 9895   7.283   4.168   0.438
 5845W        W 9896  10.133  10.270   0.281
 5846W        W 9897   6.896   2.186   9.587
 5847W        W 9898  11.030   3.779   2.842
 5848W        W 9899   6.674   0.277  10.242
 5849W        W 9900   1.816   4.385  10.963
 5850W        W 9901  10.846   1.884   9.749
 5851W        W 9902   9.118   7.699   9.266
 5852W        W 9903   0.071   0.069   0.048
 5853W        W 9904   8.275   5.693  11.818
 5854W        W 9905   0.341   9.049   1.236
 5855W        W 9906   4.368   1.754  11.685
 5856W        W 9907   4.197   8.653  10.411
 5857W        W 9908   0.803   4.844  11.459
 5858W        W 9909   6.478   7.191  10.958
 5859W        W 9910   1.735   5.293   8.463
 5860W        W 9911   7.583   0.933   1.564
 5861W        W 9912   7.144   0.141   0.396
 5862W        W 9913   3.518  10.474   9.966
 5863W        W 9914   2.367   0.352   9.066
 5864W        W 9915   9.832  10.105   2.729
 5865W        W 9916   8.248   7.625  11.968
 5866W        W 9917   4.755   6.733   0.676
 5867W        W 9918   9.418   9.279   2.799
 5868W        W 9919  11.096   4.987  10.294
 5869W        W 9920   2.866   4.228   9.852
 5870W        W 9921   3.527   3.048  10.586
 5871W        W 9922  10.925   2.657  11.723
 5872W        W 9923   7.554   1.865   0.328
 5873W        W 9924   7.563   6.678  10.471
 5874W        W 9925   1.901   5.241  10.775
 5875W        W 9926   4.682   9.512  11.723
 5876W        W 9927   7.032   4.320   2.275
 5877W        W 9928   7.108   3.410  10.068
 5878W        W 9929   5.657   5.796   1.012
 5879W        W 9930   2.826   2.859   9.585
 5880W        W 9931  10.604   7.444   1.844
 5881W        W 9932  10.492   4.986   9.519
 5882W        W 9933   7.613  10.415  10.073
 5883W        W 9934   6.310   7.566  11.781
 5884W        W 9935   5.586   8.121  11.727
 5885W        W 9936   9.136   4.166   0.506
 5886W        W 9937  11.336   3.187   9.077
 5887W        W 9938   2.838   8.354  10.147
 5888W        W 9939   7.186   9.244   0.825
 5889W        W 9940   4.212   2.308   9.885
 5890W        W 9941   3.850   6.645   9.886
 5891W        W 9942  11.046   2.721   1.213
 5892W        W 9943   0.219   7.784   2.941
 5893W        W 9944   4.015   1.474  11.967
 5894W        W 9945   5.142   4.659  10.704
 5895W        W 9946   0.287  10.711   0.324
 5896W        W 9947   7.030   7.926  10.917
 5897W        W 9948   1.755   1.797   9.592
 5898W        W 9949  10.148   1.232   3.555
 5899W        W 9950  10.851   9.147   0.537
 5900W        W 9951   8.104   1.551   3.491
 5901W        W 9952   3.595   4.695   8.511
 5902W        W 9953   7.934  10.106  10.590
 5903W        W 9954   5.207   8.084   1.743
 5904W        W 9955   1.797  10.009   2.418
 5905W        W 9956   2.338   1.923   0.391
 5906W        W 9957   6.599   8.181   2.801
 5907W        W 9958   9.804   1.195   1.244
 5908W        W 9959   2.668   3.235   2.731
 5909W        W 9960   8.945   6.856  11.277
 5910W        W 9961   6.135   0.556  11.268
 5911W        W 9962   2.858  10.480   2.895
 5912W        W 9963   9.957  10.787   8.576
 5913W        W 9964   4.638   3.889   0.994
 5914W        W 9965   9.389   9.893   9.882
 5915W        W 9966   5.221   3.726   0.479
 5916W        W 9967   3.292   2.900   0.405
 5917W        W 9968   3.244   1.314   3.848
 5918W        W 9969   0.775  11.215   1.867
 5919W        W 9970   3.712   8.393   0.162
 5920W        W 9971   4.763   8.560  11.376
 5921W        W 9972   9.960  11.459  10.023
 5922W        W 9973   3.773   0.159   8.668
 5923W        W 9974   2.173   9.445   1.654
 5924W        W 9975   9.894   3.785   2.124
 5925W        W 9976  10.889   4.041   9.785
 5926W        W 9977   5.203   7.264   3.177
 5927W        W 9978   5.093   9.464   1.899
 5928W        W 9979   9.045   3.643   2.396
 5929W        W 9980   1.101  10.395   1.680
 5930W        W 9981   1.389   1.440   9.366
 5931W        W 9982   3.319   6.598   3.680
 5932W        W 9983  10.530   7.372   9.439
 5933W        W 9984   6.236   5.592  10.896
 5934W        W 9985  11.331   6.985  11.972
 5935W        W 9986   6.110   5.654   0.786
 5936W        W 9987   4.135   7.912  11.482
 5937W        W 9988   1.269  10.897  11.222
 5938W        W 9989   0.808   3.283  10.542
 5939W        W 9990   4.215   7.823   1.803
 5940W        W 9991   2.961   8.955  11.053
 5941W        W 9992  10.925   1.630   0.436
 5942W        W 9993   4.181   0.182  10.517
 5943W        W 9994   6.402   3.659   2.892
 5944W        W 9995   0.815   7.854   1.053
 5945W        W 9996   1.714   8.949  10.317
 5946W        W 9997   7.310   6.048  11.097
 5947W        W 9998   6.842   7.191   2.722
 5948W        W 9999   8.875   2.221   0.302
 5949W        W10000   2.519   7.791   0.738
 5950W        W10001   6.763   5.481  10.678
 5951W        W10002   9.004   8.074  11.056
 5952W        W10003   3.389   1.822  11.376
 5953W        W10004   8.180   5.393   9.870
 5954W        W10005   0.847  10.695  11.640
 5955W        W10006   2.559   7.572   2.288
 5956W        W10007   2.425   2.879   3.578
 5957W        W10008   1.335   1.241   2.284
 5958W        W10009   4.695   1.961   3.304
 5959W        W10010   5.960   4.702   1.227
 5960W        W10011   8.551  10.388  10.741
 5961W        W10012   2.748   7.400  11.786
 5962W        W10013   8.653   2.808   9.628
 5963W        W10014   7.583   9.893   9.790
 5964W        W10015   4.617   4.269   3.918
 5965W        W10016   4.762   8.826   9.972
 5966W        W10017  11.163   4.306   2.467
 5967W        W10018   8.064  10.517   9.840
 5968W        W10019   1.576   9.991   2.881
 5969W        W10020   1.380  11.431   9.508
 5970W        W10021   2.582   4.108   0.578
 5971W        W10022   9.986   2.086  11.010
 5972W        W10023   4.113  11.201   0.305
 5973W        W10024   8.514   7.616  11.490
 5974W        W10025   7.697   9.582   2.779
 5975W        W10026   3.771   2.459   3.326
 5976W        W10027   7.753   1.504  11.377
 5977W        W10028   7.672   3.110   1.974
 5978W        W10029   9.887   5.400  11.556
 5979W        W10030   2.809   5.285   4.144
 5980W        W10031   8.894   0.510  11.033
 5981W        W10032   4.772   9.935   8.720
 5982W        W10033   6.316   7.048  11.921
 5983W        W10034   9.633   3.363   0.895
 5984W        W10035   0.269   6.927   9.164
 5985W        W10036   9.333   0.177   1.886
 5986W        W10037   8.518   4.682   8.292
 5987W        W10038   9.550   8.637   9.412
 5988W        W10039   2.402   0.470   3.422
 5989W        W10040   2.310   1.407   1.954
 5990W        W10041   6.984   5.653   0.329
 5991W        W10042  10.865   1.682   1.929
 5992W        W10043   0.350   4.273   9.385
 5993W        W10044   5.010  11.344  11.988
 5994W        W10045   6.216   5.271  11.305
 5995W        W10046   5.118  10.446   0.890
 5996W        W10047   9.358   8.009  10.565
 5997W        W10048   0.819  11.076  11.304
 5998W        W10049   6.033   6.941  10.910
 5999W        W10050   8.907   1.815  10.793
 6000W        W10051   8.141   9.111   9.205
 6001W        W10052   7.242   2.220   1.708
 6002W        W10053   0.006   3.842   3.046
 6003W        W10054   8.952   2.122   2.614
 6004W        W10055   3.240   6.214   2.321
 6005W        W10056   8.004   1.929  10.556
 6006W        W10057   8.466   0.786   3.221
 6007W        W10058   5.533   8.055  11.212
 6008W        W10059   3.359   4.491  10.570
 6009W        W10060   4.926   0.140   1.778
 6010W        W10061   8.079   4.944   9.082
 6011W        W10062   6.716   1.349  10.548
 6012W        W10063   6.592   8.945   1.364
 6013W        W10064   0.289   6.555   8.798
 6014W        W10065   7.753   7.075   9.201
 6015W        W10066   8.842   8.481   9.732
 6016W        W10067  10.036  10.702   9.080
 6017W        W10068   6.074   4.160  11.883
 6018W        W10069   7.982   6.845   3.599
 6019W        W10070   9.184   4.794   3.138
 6020W        W10071   9.084   2.742   3.698
 6021W        W10072   5.093   9.953   0.676
 6022W        W10073   3.599   6.575   2.241
 6023W        W10074   3.274   7.053   3.399
 6024W        W10075  10.946  10.976  11.037
 6025W        W10076   1.672  10.400   9.565
 6026W        W10077  10.879   0.641   3.452
 6027W        W10078   6.556   7.487   0.480
 6028W        W10079   5.090  10.978   2.967
 6029W        W10080   5.138   2.334   2.291
 6030W        W10081  10.648   4.125   8.979
 6031W        W10082   2.268   2.773   2.016
 6032W        W10083   9.598   6.947  11.694
 6033W        W10084   3.562   6.855   8.963
 6034W        W10085  11.288  11.200   9.791
 6035W        W10086   3.780   8.888   0.913
 6036W        W10087   6.287   6.819   3.855
 6037W        W10088   5.992   3.397   0.631
 6038W        W10089   7.865   0.812   8.567
 6039W        W10090   3.490   6.578   3.186
 6040W        W10091   2.166   9.132  10.483
 6041W        W10092   5.002   2.430   0.791
 6042W        W10093   8.923   6.198   3.699
 6043W        W10094   2.284   9.353   3.692
 6044W        W10095   6.684  11.357   9.020
 6045W        W10096   1.241   7.863   8.563
 6046W        W10097   7.669   8.208   0.590
 6047W        W10098   4.877  10.724   9.176
 6048W        W10099  10.824   4.556   0.725
 6049W        W10100   6.474   9.061   9.610
 6050W        W10101   7.299   6.689   1.278
 6051W        W10102   2.129   8.252   8.513
 6052W        W10103   0.924   4.545   3.064
 6053W        W10104   4.237   9.097  10.676
 6054W        W10105   0.881   8.742   2.332
 6055W        W10106   1.937   4.692   9.069
 6056W        W10107   2.966   4.298   2.159
 6057W        W10108  11.217   8.910   2.449
 6058W        W10109   3.901   1.060   0.251
 6059W        W10110   2.297   2.770   1.016
 6060W        W10111   7.192  11.261  11.395
 6061W        W10112   8.978   4.936   8.298
 6062W        W10113   9.324   5.819   0.636
 6063W        W10114   9.349   6.166   2.937
 6064W        W10115   6.521  10.317   0.639
 6065W        W10116  10.610   4.390  10.944
 6066W        W10117   1.370  10.289   9.961
 6067W        W10118   5.738   0.882   0.524
 6068W        W10119   8.019  10.972   9.142
 6069W        W10120   8.050   9.531  11.354
 6070W        W10121   9.920   2.944   1.694
 6071W        W10122   0.231  10.892   3.135
 6072W        W10123   8.100   3.105   3.094
 6073W        W10124  10.294   7.480   8.994
 6074W        W10125   6.981   8.018   1.571
 6075W        W10126  11.430   8.333  11.680
 6076W        W10127   5.499   6.952   8.775
 6077W        W10128   7.025  10.344  11.771
 6078W        W10129   4.266   7.964   9.819
 6079W        W10130   8.390   6.118   2.936
 6080W        W10131   4.260   8.972   2.583
 6081W        W10132  11.350   4.245   9.909
 6082W        W10133   0.769   1.741   9.969
 6083W        W10134   7.138   8.378   9.891
 6084W        W10135   6.150   7.618   9.247
 6085W        W10136   1.403   0.230   9.995
 6086W        W10137   5.009  11.178   9.369
 6087W        W10138   7.454   5.701  10.254
 6088W        W10139   6.202   1.934   2.783
 6089W        W10140   2.548   2.165   3.441
 6090W        W10141   7.106   8.185   8.466
 6091W        W10142   4.133   1.685   1.711
 6092W        W10143   1.558   9.239   1.126
 6093W        W10144   8.507   5.431   2.188
 6094W        W10145   0.303   8.356   9.087
 6095W        W10146   8.761   0.443  11.864
 6096W        W10147  10.382   3.670   9.111
 6097W        W10148   6.449  11.492   3.441
 6098W        W10149   1.248   3.782   9.394
 6099W        W10150   5.938   3.472   2.468
 6100W        W10151   9.899   9.694   3.597
 6101W        W10152   4.633   5.734   0.016
 6102W        W10153   9.008   3.732  11.706
 6103W        W10154   8.980   7.105   9.974
 6104W        W10155   9.155  10.016   2.479
 6105W        W10156   6.104   2.455  10.442
 6106W        W10157   2.900   8.490   8.630
 6107W        W10158   8.967   9.792   9.072
 6108W        W10159   8.056   5.969   1.019
 6109W        W10160   5.550   2.790   0.016
 6110W        W10161   0.470   2.146   3.078
 6111W        W10162   6.453   9.512   2.776
 6112W        W10163   5.590   3.304  11.822
 6113W        W10164   3.524   1.433   0.206
 6114W        W10165   8.793   6.167   2.227
 6115W        W10166   4.574   8.537   2.421
 6116W        W10167   0.727  10.028   3.049
 6117W        W10168   5.578   9.289   0.965
 6118W        W10169   3.712   6.158   4.037
 6119W        W10170  10.093  10.773   2.373
 6120W        W10171   0.262  11.349   9.808
 6121W        W10172   6.058   7.566   9.765
 6122W        W10173   2.740   5.171   8.610
 6123W        W10174   2.406   5.752   0.725
 6124W        W10175   5.643   1.815  10.024
 6125W        W10176   6.538   0.744   2.255
 6126W        W10177   1.275   9.205   8.456
 6127W        W10178   8.183   8.653  10.958
 6128W        W10179   3.667   4.832  10.381
 6129W        W10180  11.064   6.979   0.434
 6130W        W10181   2.509   5.241   1.502
 6131W        W10182   4.746   2.321   3.679
 6132W        W10183   9.495   3.140   0.433
 6133W        W10184   7.418   9.551   1.526
 6134W        W10185  10.472   4.051   9.458
 6135W        W10186   8.490   5.701   1.195
 6136W        W10187   4.667   9.547   2.194
 6137W        W10188   8.902  11.271  11.475
 6138W        W10189   6.609  10.002  11.871
 6139W        W10190   2.460   5.267   1.992
 6140W        W10191   7.443   1.667  10.085
 6141W        W10192   9.577   5.186   2.021
 6142W        W10193   7.128  11.342  11.916
 6143W        W10194   7.862   2.326   0.375
 6144W        W10195   0.391   2.616  11.563
 6145W        W10196   8.561   6.579   0.357
 6146W        W10197   0.774   1.835   2.734
 6147W        W10198   0.887   8.082  10.271
 6148W        W10199   1.822   0.984  11.786
 6149W        W10200   4.097   9.419   9.479
 6150W        W10201   4.344   9.843   1.345
 6151W        W10202   6.208  11.405   2.162
 6152W        W10203   1.702  10.655  11.162
 6153W        W10204  10.548   9.967   0.276
 6154W        W10205   3.993   6.572   3.352
 6155W        W10206  11.144   3.047   0.432
 6156W        W10207   1.705   6.199  10.726
 6157W        W10208  10.923   8.564   9.857
 6158W        W10209  10.623  10.516   3.087
 6159W        W10210   5.310   2.193   1.166
 6160W        W10211   4.382   4.413   0.722
 6161W        W10212   6.904   2.950  10.782
 6162W        W10213   9.537  11.107   2.655
 6163W        W10214   6.835   3.827   9.935
 6164W        W10215   9.869   3.902   3.082
 6165W        W10216   6.003   2.758   2.380
 6166W        W10217   4.790   0.489   0.371
 6167W        W10218   1.811   1.177   0.279
 6168W        W10219   9.099   4.796   1.814
 6169W        W10220  10.300   0.348   1.905
 6170W        W10221   7.982   7.210   0.867
 6171W        W10222   6.956  10.896   3.133
 6172W        W10223   6.192   7.932  10.563
 6173W        W10224   9.456   9.465  10.439
 6174W        W10225   3.871   9.848   9.336
 6175W        W10226   8.580   8.049   9.936
 6176W        W10227   3.380   0.934  11.394
 6177W        W10228   3.889   5.908   8.760
 6178W        W10229   8.512   8.993   8.846
 6179W        W10230   7.104   4.168   1.364
 6180W        W10231  11.426  11.035   1.834
 6181W        W10232   3.854   8.772   2.789
 6182W        W10233   0.855   0.533   9.376
 6183W        W10234   8.885   0.812   1.457
 6184W        W10235   4.167   1.857  10.686
 6185W        W10236   6.402  10.294   1.127
 6186W        W10237   0.951  10.164   2.116
 6187W        W10238   6.963  10.466  10.363
 6188W        W10239   7.774   2.269   1.744
 6189W        W10240   4.669   1.627   1.734
 6190W        W10241   0.922   8.943   1.870
 6191W        W10242   5.033   3.752   2.325
 6192W        W10243   4.646   0.146   9.049
 6193W        W10244   8.170   3.700  10.539
 6194W        W10245  10.782   6.420  11.589
 6195W        W10246  10.781   5.979   8.714
 6196W        W10247   1.862   9.363   0.315
 6197W        W10248   7.287  10.532   0.732
 6198W        W10249   7.342   6.620   1.968
 6199W        W10250  11.386   3.445   0.173
 6200W        W10251   9.223  10.709   2.635
 6201W        W10252   7.428   9.580  11.392
 6202W        W10253   2.333   8.085  10.235
 6203W        W10254  11.471   4.311  11.224
 6204W        W10255   4.484   3.694   3.277
 6205W        W10256   8.854   4.243   0.921
 6206W        W10257   9.081   1.754   9.273
 6207W        W10258   1.358   2.346  10.683
 6208W        W10259   3.049   0.789   3.988
 6209W        W10260  11.074   5.991   1.949
 6210W        W10261   8.047   4.557   1.681
 6211W        W10262   6.770  10.015   9.172
 6212W        W10263   2.169   0.457  10.415
 6213W        W10264   2.336   2.849   1.515
 6214W        W10265   3.343   9.875  11.009
 6215W        W10266   5.078  10.339   8.840
 6216W        W10267   5.606   7.427   2.920
 6217W        W10268  11.121   3.985   8.852
 6218W        W10269   8.939   7.080   9.065
 6219W        W10270   1.522   7.305   1.432
 6220W        W10271   9.485   0.562   2.240
 6221W        W10272  10.978   5.265   0.919
 6222W        W10273   7.451   4.121   3.701
 6223W        W10274   5.077   9.547  10.578
 6224W        W10275   9.525   7.111   8.816
 6225W        W10276   9.394   8.881   2.461
 6226W        W10277  10.107   7.639   9.477
 6227W        W10278   4.641  10.710   0.816
 6228W        W10279  11.339   1.746   2.123
 6229W        W10280   7.281   6.780  10.038
 6230W        W10281   5.486   1.963  11.016
 6231W        W10282   6.601   9.497   0.030
 6232W        W10283   8.129   8.797   2.488
 6233W        W10284   7.096   7.506   1.807
 6234W        W10285   4.182   6.140   0.656
 6235W        W10286  10.777   3.978   2.361
 6236W        W10287   4.772   3.477  11.279
 6237W        W10288   9.361   5.078   9.484
 6238W        W10289  11.046   8.380   1.709
 6239W        W10290   7.907   8.288   1.782
 6240W        W10291   2.983   6.655   3.269
 6241W        W10292   0.877   9.664   3.368
 6242W        W10293  10.748   9.754   2.787
 6243W        W10294   2.224   5.745   2.743
 6244W        W10295   1.257   3.323   0.582
 6245W        W10296   3.419   2.883   1.286
 6246W        W10297   9.577   6.608   8.715
 6247W        W10298   7.429   6.230   1.634
 6248W        W10299  10.382   9.956  11.374
 6249W        W10300   2.540  10.449   9.187
 6250W        W10301   0.645   7.890  11.367
 6251W        W10302  11.384  10.320  10.649
 6252W        W10303   8.904  10.968  11.905
 6253W        W10304   4.701   6.700   2.044
 6254W        W10305   3.637   0.128   1.742
 6255W        W10306   8.976   3.548   3.375
 6256W        W10307   7.065   1.189   0.323
 6257W        W10308   4.675   9.351   3.056
 6258W        W10309   3.202  10.882   9.871
 6259W        W10310   3.965   5.822   9.945
 6260W        W10311   5.868   4.154   1.908
 6261W        W10312   5.492   9.843  10.479
 6262W        W10313   3.641   8.884   1.441
 6263W        W10314  11.420   0.234   9.048
 6264W        W10315   2.828   7.905  10.395
 6265W        W10316  11.042   1.652   8.790
 6266W        W10317   2.174   4.408   1.954
 6267W        W10318   9.409   7.278   8.341
 6268W        W10319   4.233   4.172   9.892
 6269W        W10320   1.394   9.953  10.756
 6270W        W10321   7.672   3.764   0.333
 6271W        W10322   9.371   6.194  10.001
 6272W        W10323  11.151   8.857   1.908
 6273W        W10324   8.653  10.856  11.328
 6274W        W10325   4.813   1.264   9.789
 6275W        W10326   7.543   4.512   2.356
 6276W        W10327   4.948   4.547   0.213
 6277W        W10328   9.151   1.312   9.531
 6278W        W10329  10.757   9.152  10.462
 6279W        W10330   0.617   7.876   3.646
 6280W        W10331   0.679   3.187   8.597
 6281W        W10332   2.148   8.418  11.272
 6282W        W10333  11.427  10.835  10.632
 6283W        W10334   4.986   3.506  10.057
 6284W        W10335   7.675   5.976  11.951
 6285W        W10336   4.323  11.433   1.250
 6286W        W10337   0.359   7.660  10.976
 6287W        W10338   1.649   7.450  10.482
 6288W        W10339   6.236   7.632   8.723
 6289W        W10340   7.115   8.678  10.316
 6290W        W10341   5.623  11.468   9.912
 6291W        W10342   8.540   1.943  10.443
 6292W        W10343   3.042  11.398  11.631
 6293W        W10344  11.016   2.166  10.182
 6294W        W10345   1.730   6.896   1.719
 6295W        W10346   3.403   0.242   9.908
 6296W        W10347  10.917   3.086   8.790
 6297W        W10348   8.394   1.789  11.958
 6298W        W10349   1.909   8.578   8.956
 6299W        W10350   4.196   7.457   2.230
 6300W        W10351   7.232   1.230   9.902
 6301W        W10352   4.217  11.034   9.807
 6302W        W10353   5.767   6.733  11.493
 6303W        W10354   5.164   5.537   0.755
 6304W        W10355   6.776   3.432   1.070
 6305W        W10356   0.502   5.169   2.515
 6306W        W10357  10.858  11.351   9.551
 6307W        W10358   7.481   9.608  11.937
 6308W        W10359   8.887   6.915   3.323
 6309W        W10360   9.571   0.988   2.536
 6310W        W10361   2.186   7.125   1.859
 6311W        W10362  10.979   5.127   1.906
 6312W        W10363   4.542   0.791   2.879
 6313W        W10364   0.299  10.562   9.168
 6314W        W10365   2.957   6.736  10.340
 6315W        W10366   1.970   4.796   8.539
 6316W        W10367   0.975  10.511   3.126
 6317W        W10368   9.799  10.970   9.434
 6318W        W10369   1.902   9.580  10.079
 6319W        W10370  11.340   2.719   0.052
 6320W        W10371   8.410   6.359   9.616
 6321W        W10372   8.047  10.967   8.627
 6322W        W10373   8.359   8.024   1.769
 6323W        W10374   2.142   6.749   3.124
 6324W        W10375   1.142   5.819   9.173
 6325W        W10376   2.721   5.084   9.534
 6326W        W10377   3.125   0.374  11.440
 6327W        W10378   1.779   5.960   0.186
 6328W        W10379   6.223  11.244   0.173
 6329W        W10380   0.476   9.931   1.333
 6330W        W10381   1.218  10.406  11.385
 6331W        W10382   0.442   5.292   3.494
 6332W        W10383   6.254   1.081   0.202
 6333W        W10384  11.485   1.357   2.833
 6334W        W10385   3.151  10.993   8.920
 6335W        W10386   5.561  11.421  10.829
 6336W        W10387   3.744  10.730   0.843
 6337W        W10388   5.075   5.047   0.039
 6338W        W10389   0.905   6.271   9.030
 6339W        W10390   0.810  10.217   3.548
 6340W        W10391   9.167   2.124  10.091
 6341W        W10392   0.214   5.643  11.225
 6342W        W10393   9.892   2.893   0.651
 6343W        W10394   8.545   8.497   3.017
 6344W        W10395  10.443   1.482   0.508
 6345W        W10396   6.157   6.925   0.396
 6346W        W10397   4.646  10.591   2.251
 6347W        W10398   1.796   7.243   9.780
 6348W        W10399  10.283   9.138   3.202
 6349W        W10400   9.956   1.805   9.283
 6350W        W10401   4.614  11.308  10.050
 6351W        W10402   7.040   1.068   8.884
 6352W        W10403   8.833   5.296   2.735
 6353W        W10404   2.675   1.734   3.204
 6354W        W10405   3.119   3.347   8.860
 6355W        W10406   0.839   4.841   9.995
 6356W        W10407   9.861   5.682  11.119
 6357W        W10408   2.678   9.605   8.952
 6358W        W10409   2.747   7.537   8.313
 6359W        W10410   3.141   6.271   0.789
 6360W        W10411   4.047   5.147   2.532
 6361W        W10412  10.363   7.908   1.923
 6362W        W10413   9.008   4.710   0.781
 6363W        W10414   7.081  10.318   1.934
 6364W        W10415   5.205   1.675   0.268
 6365W        W10416   7.040   2.455   0.814
 6366W        W10417   4.408   9.584   9.845
 6367W        W10418   5.635   3.598   1.166
 6368W        W10419   3.234   2.140   0.866
 6369W        W10420   2.343   8.909   0.948
 6370W        W10421  10.869   1.774  11.902
 6371W        W10422   7.910   8.930   8.769
 6372W        W10423   4.124   6.156  11.601
 6373W        W10424   2.037   9.323  10.960
 6374W        W10425   0.687   8.833   0.031
 6375W        W10426   7.381   5.543  11.986
 6376W        W10427   3.324   5.790   0.843
 6377W        W10428   0.490   6.203   2.196
 6378W        W10429   0.462   6.100  11.267
 6379W        W10430   1.789   6.035   1.174
 6380W        W10431   8.620   3.741   9.562
 6381W        W10432   9.601   5.252   9.907
 6382W        W10433   0.343   7.496   3.408
 6383W        W10434  10.520   0.441  11.183
 6384W        W10435  11.115   6.969   1.247
 6385W        W10436   3.423  10.004   0.441
 6386W        W10437   0.462   2.163   0.747
 6387W        W10438   3.481   5.245  10.186
 6388W        W10439   1.861   1.871   2.204
 6389W        W10440  10.799   7.035   3.542
 6390W        W10441   6.343   3.616  10.129
 6391W        W10442   0.839  10.545   8.519
 6392W        W10443   7.209   8.461   1.422
 6393W        W10444   3.341   4.411   0.561
 6394W        W10445   4.541   6.738  10.442
 6395W        W10446   6.483   4.691  10.985
 6396W        W10447   9.343  11.400   8.908
 6397W        W10448   8.359   7.389   3.247
 6398W        W10449  10.833   0.825   2.961
 6399W        W10450   9.497   9.177  11.419
 6400W        W10451   9.926   5.742   1.469
 6401W        W10452  10.712   7.618   0.997
 6402W        W10453   8.929  10.397  11.318
 6403W        W10454   5.229   1.651  10.292
 6404W        W10455   6.835   3.196   3.453
 6405W        W10456   0.248   5.564   8.757
 6406W        W10457   1.675   5.804  11.720
 6407W        W10458   9.014   0.288   2.305
 6408W        W10459   2.146   5.686   1.189
 6409W        W10460   1.464   2.389   0.590
 6410W        W10461  10.399   8.081   9.460
 6411W        W10462   0.468   0.774  10.988
 6412W        W10463  11.075  11.089   0.752
 6413W        W10464   1.912   2.705   0.697
 6414W        W10465   7.132  11.290  10.889
 6415W        W10466  10.254   9.603   0.919
 6416W        W10467   7.852   2.782  10.860
 6417W        W10468   5.541   6.219   0.651
 6418W        W10469   9.402   3.083   1.821
 6419W        W10470   6.043   8.478   9.011
 6420W        W10471  11.497   6.104  11.461
 6421W        W10472  10.933   0.456  11.561
 6422W        W10473   9.219   9.315   0.784
 6423W        W10474   5.155   9.433   0.539
 6424W        W10475   6.235   8.663   3.109
 6425W        W10476   5.557   4.517  10.977
 6426W        W10477   5.465   0.742   1.497
 6427W        W10478   9.286   2.303   2.967
 6428W        W10479   1.279   8.424   2.372
 6429W        W10480   4.243   3.103  11.958
 6430W        W10481   1.010   2.182   9.866
 6431W        W10482   1.810   7.796   0.381
 6432W        W10483   4.080   2.228   0.374
 6433W        W10484   2.811   8.514   9.131
 6434W        W10485   8.608  10.824   1.454
 6435W        W10486   7.939   8.895  10.582
 6436W        W10487   8.622   8.090   0.681
 6437W        W10488   7.003   7.945   2.071
 6438W        W10489   7.200   1.917   2.132
 6439W        W10490  11.248   3.233   2.303
 6440W        W10491   8.496   2.892   2.283
 6441W        W10492   4.232   9.590   3.179
 6442W        W10493   3.079   4.235   9.378
 6443W        W10494  10.419   1.625   9.466
 6444W        W10495   9.909   2.590  10.801
 6445W        W10496   2.807   9.695  10.444
 6446W        W10497   0.602   8.180   8.701
 6447W        W10498   3.708   8.699   8.230
 6448W        W10499   2.311   5.934  11.420
 6449W        W10500  11.453   7.989  10.331
 6450W        W10501  10.568   2.635  11.353
 6451W        W10502   3.923   9.577   9.946
 6452W        W10503   2.377   4.360   2.721
 6453W        W10504  11.279   6.527  11.748
 6454W        W10505  10.734  10.236   2.683
 6455W        W10506   9.325   5.253   2.906
 6456W        W10507   0.273   6.977   3.446
 6457W        W10508   5.509   0.276   9.148
 6458W        W10509   3.197   7.627   9.471
 6459W        W10510  11.481  10.760  11.552
 6460W        W10511   8.122   9.906   8.459
 6461W        W10512   1.091   1.862   1.857
 6462W        W10513   5.167   4.142  11.607
 6463W        W10514   5.675   5.270   2.259
 6464W        W10515   1.308   2.669   2.483
 6465W        W10516   9.963   1.271  10.539
 6466W        W10517   9.837   0.699  10.051
 6467W        W10518   4.048   8.463   2.423
 6468W        W10519   8.821   0.532   0.354
 6469W        W10520   8.960   4.587  10.464
 6470W        W10521   4.972   2.135   2.750
 6471W        W10522   8.234  10.030  11.411
 6472W        W10523  10.703   9.482   0.166
 6473W        W10524   1.539   0.681  10.852
 6474W        W10525   7.408   6.600  10.952
 6475W        W10526   8.543   6.545   3.650
 6476W        W10527   3.883   3.027   3.171
 6477W        W10528   9.448   0.153  11.811
 6478W        W10529   8.387   8.611  11.440
 6479W        W10530   4.765   5.693   1.046
 6480W        W10531   0.628  10.455   2.763
 6481W        W10532  10.510   6.496   8.811
 6482W        W10533   0.455   3.654   0.672
 6483W        W10534   0.698   2.177   9.434
 6484W        W10535   1.261   0.748   2.367
 6485W        W10536  10.551   9.292  11.700
 6486W        W10537   4.926   8.363   3.374
 6487W        W10538   7.611   7.514   9.896
 6488W        W10539   1.670   1.971  10.921
 6489W        W10540   4.632   7.571   0.106
 6490W        W10541   0.805  10.188  11.654
 6491W        W10542   2.108   3.305   0.729
 6492W        W10543   0.473  11.423   1.449
 6493W        W10544   1.865   5.542  11.316
 6494W        W10545   4.927   4.096   1.958
 6495W        W10546   3.795   7.030   1.011
 6496W        W10547  10.651   5.887   2.853
 6497W        W10548   8.220   4.375   0.293
 6498W        W10549   0.807   8.881   9.724
 6499W        W10550   7.401  11.338   3.163
 6500W        W10551   9.100   1.853   0.613
 6501W        W10552   9.543  11.324   3.331
 6502W        W10553   2.715   7.660   1.185
 6503W        W10554   6.944   5.001   1.646
 6504W        W10555  11.420   3.406   0.681
 6505W        W10556   2.476   7.075   1.069
 6506W        W10557   0.322   0.661   0.628
 6507W        W10558   5.245   9.952   9.639
 6508W        W10559   3.607   3.043   1.903
 6509W        W10560   5.674   5.344   0.795
 6510W        W10561   7.392   9.421   2.408
 6511W        W10562   1.489   2.315  10.196
 6512W        W10563   3.592   6.524   8.553
 6513W        W10564   2.044   7.433   2.363
 6514W        W10565  11.271  10.058   2.716
 6515W        W10566   4.559   1.362   2.251
 6516W        W10567   6.969   4.185   0.023
 6517W        W10568   0.718   5.358   9.995
 6518W        W10569   6.683   1.709  11.190
 6519W        W10570   8.642  11.364   3.171
 6520W        W10571   7.143   1.997   0.628
 6521W        W10572   1.445   0.717   0.035
 6522W        W10573   7.770   9.926  11.224
 6523W        W10574   4.109   0.453  12.000
 6524W        W10575   8.089   8.195   9.968
 6525W        W10576   0.356   6.495   3.799
 6526W        W10577   4.545   5.743  11.499
 6527W        W10578   4.031  10.531   9.755
 6528W        W10579   5.676   2.343  10.745
 6529W        W10580   8.891   9.286   9.307
 6530W        W10581   1.875   6.938   2.230
 6531W        W10582   0.397  10.819  11.832
 6532W        W10583   3.061  10.858  11.273
 6533W        W10584   0.798   9.961  10.564
 6534W        W10585   2.544   5.373   8.166
 6535W        W10586   6.625   6.689  11.303
 6536W        W10587   3.186   3.303  10.933
 6537W        W10588  10.836  10.300  11.791
 6538W        W10589   1.252  11.166   2.725
 6539W        W10590   3.764  10.945  10.530
 6540W        W10591   7.575   1.975  11.385
 6541W        W10592   4.011  11.461  11.828
 6542W        W10593   0.870   0.807   1.262
 6543W        W10594   1.878   8.631   9.485
 6544W        W10595   3.643   6.180   0.982
 6545W        W10596   9.770   1.693  10.751
 6546W        W10597   3.280   5.605  11.968
 6547W        W10598   0.598   7.264   2.162
 6548W        W10599   5.794   7.010   2.655
 6549W        W10600   9.775  11.415  11.482
 6550W        W10601   5.271   6.694   1.364
 6551W        W10602   6.233   4.124   4.105
 6552W        W10603   1.556   5.980  11.248
 6553W        W10604   6.569   6.890   1.200
 6554W        W10605   7.138   7.658  10.433
 6555W        W10606   6.522   7.753  10.975
 6556W        W10607   4.194  11.000   2.936
 6557W        W10608   7.093   0.839  10.780
 6558W        W10609   5.945  11.498   9.467
 6559W        W10610   5.869   9.527   9.841
 6560W        W10611   3.801   8.951   2.314
 6561W        W10612   4.158   6.251   3.739
 6562W        W10613   1.276   2.801   0.367
 6563W        W10614  10.557   2.373  10.046
 6564W        W10615   0.316  11.446   2.788
 6565W        W10616   0.356   7.252   1.701
 6566W        W10617   3.184   2.117  11.966
 6567W        W10618   2.878   2.796  11.415
 6568W        W10619   5.476   9.240   3.195
 6569W        W10620   9.951   8.398   2.396
 6570W        W10621  10.861  11.141   1.665
 6571W        W10622   1.730   9.208   3.282
 6572W        W10623   2.344  11.096  10.464
 6573W        W10624   7.480   0.968   0.565
 6574W        W10625   1.631   1.326  11.437
 6575W        W10626   6.674   3.126   2.436
 6576W        W10627   2.135   6.570   8.679
 6577W        W10628   2.860   6.229  10.608
 6578W        W10629   4.212   3.525  10.800
 6579W        W10630   6.431   3.133   8.489
 6580W        W10631   2.295   2.470  10.580
 6581W        W10632   1.612   7.036   9.366
 6582W        W10633  11.243   7.629   2.697
 6583W        W10634   9.250   0.682   0.559
 6584W        W10635   1.744   8.658   2.278
 6585W        W10636   5.118  11.295   9.873
 6586W        W10637   2.220   9.481   9.159
 6587W        W10638  10.089   3.410   1.873
 6588W        W10639   8.776   3.357  11.965
 6589W        W10640   4.250   0.081   9.843
 6590W        W10641   9.881   2.449   1.838
 6591W        W10642  10.950   8.201   0.730
 6592W        W10643   9.705   0.683   0.329
 6593W        W10644   5.181   5.963   1.000
 6594W        W10645   7.750   4.542   9.031
 6595W        W10646   3.242   2.640   0.854
 6596W        W10647   5.215   6.084  10.326
 6597W        W10648  10.010   8.146  11.785
 6598W        W10649   6.122   0.950   0.866
 6599W        W10650   1.977   3.407  10.949
 6600W        W10651  10.208   6.105   0.741
 6601W        W10652   8.991   7.860  11.524
 6602W        W10653   1.391   1.925   3.266
 6603W        W10654   6.572   8.638   1.821
 6604W        W10655   6.299   7.187   8.966
 6605W        W10656  10.801   0.756   9.072
 6606W        W10657   2.763   8.860   9.540
 6607W        W10658  11.262   8.597   0.714
 6608W        W10659   3.546   4.104   0.947
 6609W        W10660   4.042   6.175   0.133
 6610W        W10661   4.410   1.775   0.696
 6611W        W10662   6.205   0.290  10.809
 6612W        W10663   4.102  11.451   0.790
 6613W        W10664   7.616   8.895   0.616
 6614W        W10665   2.008   3.025  11.714
 6615W        W10666   8.153   2.840  10.405
 6616W        W10667   1.311   3.612  11.709
 6617W        W10668   4.544   3.400  10.408
 6618W        W10669   4.880   7.156  11.381
 6619W        W10670   5.666   6.315  10.172
 6620W        W10671   7.468   3.870   1.582
 6621W        W10672   0.155   5.646   0.598
 6622W        W10673  10.288   8.572  10.101
 6623W        W10674   7.168   3.120   1.968
 6624W        W10675   6.000   2.367   9.493
 6625W        W10676   4.614   1.446   9.372
 6626W        W10677   4.483   4.692   3.241
 6627W        W10678  10.083   7.454  10.314
 6628W        W10679  10.056  10.922   0.805
 6629W        W10680  11.343   5.254  11.115
 6630W        W10681   4.795   1.338  10.308
 6631W        W10682   0.820   3.512   9.551
 6632W        W10683   5.769   4.370   0.686
 6633W        W10684  10.168   7.515   1.618
 6634W        W10685   8.707   1.278   9.772
 6635W        W10686   3.250   8.607   0.227
 6636W        W10687   5.909   1.636  11.042
 6637W        W10688   5.007   1.800   4.114
 6638W        W10689   6.996   1.309   1.188
 6639W        W10690   7.884   5.238   9.475
 6640W        W10691   0.447   3.765   2.819
 6641W        W10692   8.080  11.381  10.874
 6642W        W10693   1.920   5.253   8.971
 6643W        W10694   1.370   2.833  10.353
 6644W        W10695   8.156  11.312   9.977
 6645W        W10696   9.245   0.381   3.226
 6646W        W10697   0.419  11.216   0.174
 6647W        W10698   8.658  11.263  10.222
 6648W        W10699   2.692   6.560   8.742
 6649W        W10700  10.521   0.697  10.673
 6650W        W10701   5.744   7.684   4.051
 6651W        W10702   3.339   3.339  11.418
 6652W        W10703   4.077  10.359  10.772
 6653W        W10704   9.025   3.309   9.039
 6654W        W10705   6.201   5.717   2.737
 6655W        W10706   4.977   8.122   9.221
 6656W        W10707   9.253   5.926  10.420
 6657W        W10708  10.357   4.131   3.099
 6658W        W10709   3.429   7.401   3.028
 6659W        W10710   7.622   2.120  11.883
 6660W        W10711   3.111   1.388  11.373
 6661W        W10712  10.746  11.279   9.060
 6662W        W10713  10.422   0.807   3.305
 6663W        W10714   4.120   1.244  10.384
 6664W        W10715   5.879  10.917   2.458
 6665W        W10716   2.010  10.361   9.189
 6666W        W10717   1.376   3.717  10.700
 6667W        W10718   1.728   4.607   0.406
 6668W        W10719   4.247   1.219   1.853
 6669W        W10720   9.026   8.980   9.842
 6670W        W10721   1.303   4.569  10.808
 6671W        W10722   4.255   2.772   1.555
 6672W        W10723   0.715   4.151   1.215
 6673W        W10724   9.327  10.410   3.730
 6674W        W10725  10.735   6.068   1.549
 6675W        W10726   2.137  10.584   1.796
 6676W        W10727  11.303   0.795   3.159
 6677W        W10728   0.572   1.890  11.153
 6678W        W10729   1.918  10.001   1.470
 6679W        W10730   7.604   6.216  10.203
 6680W        W10731   4.375   6.658  11.801
 6681W        W10732   0.100   1.686  11.256
 6682W        W10733   7.609  10.329  10.965
 6683W        W10734   7.584   8.018  10.646
 6684W        W10735   3.771   5.003   9.343
 6685W        W10736   5.103   0.281   1.296
 6686W        W10737   1.225   5.935  10.854
 6687W        W10738   9.824   8.894   3.306
 6688W        W10739   7.650   5.487   0.910
 6689W        W10740   2.195   8.799   2.487
 6690W        W10741   7.586   1.913   9.229
 6691W        W10742   9.300   4.829  10.078
 6692W        W10743   7.145   7.448   9.049
 6693W        W10744  10.862  10.963   3.013
 6694W        W10745   7.968   2.344   9.709
 6695W        W10746   3.711   6.623  10.809
 6696W        W10747   7.880  10.992   3.344
 6697W        W10748   3.934  10.281  11.347
 6698W        W10749   5.403   8.479  10.941
 6699W        W10750   0.586   9.068  10.192
 6700W        W10751   0.250   3.189   2.294
 6701W        W10752   6.088   2.529  10.978
 6702W        W10753  10.629   8.398   1.353
 6703W        W10754   3.217  11.488   9.198
 6704W        W10755  10.133   4.245   9.125
 6705W        W10756   6.814   1.763   2.437
 6706W        W10757   0.822   4.573  10.471
 6707W        W10758   5.774   2.857   2.828
 6708W        W10759   9.977   2.725   0.181
 6709W        W10760   3.900   7.261   2.820
 6710W        W10761  10.186   0.339   3.462
 6711W        W10762   7.385   1.053   2.392
 6712W        W10763   7.947   3.307  11.139
 6713W        W10764   0.813   7.389   0.813
 6714W        W10765   1.859   3.117  10.155
 6715W        W10766   1.806   6.424   0.388
 6716W        W10767   5.561   1.898  11.991
 6717W        W10768   2.350   9.581  10.648
 6718W        W10769   6.176   2.509  11.504
 6719W        W10770   4.519   6.118   1.290
 6720W        W10771   4.746  11.482   0.410
 6721W        W10772   9.031   7.374  10.403
 6722W        W10773   1.651  11.004  11.541
 6723W        W10774   4.165   9.522  11.487
 6724W        W10775   6.254   8.730   2.202
 6725W        W10776   3.651   0.891  10.410
 6726W        W10777   0.943   6.269  11.823
 6727W        W10778   8.829   7.608   8.836
 6728W        W10779   5.348   4.456   0.963
 6729W        W10780  10.006   3.266   8.749
 6730W        W10781   8.059   1.921  11.564
 6731W        W10782   9.631   9.388   3.260
 6732W        W10783   5.602   4.605   1.918
 6733W        W10784   5.838   7.073   9.176
 6734W        W10785   3.413   1.943   2.166
 6735W        W10786   8.431   5.922   9.891
 6736W        W10787   8.375   8.396   9.550
 6737W        W10788   0.218   4.065   1.364
 6738W        W10789   6.117   1.602   9.061
 6739W        W10790   4.789   7.970   1.113
 6740W        W10791   8.958   9.139   3.540
 6741W        W10792   9.998   7.971   1.524
 6742W        W10793   6.817  10.862   2.208
 6743W        W10794   9.473   3.377   8.741
 6744W        W10795   8.680   0.144   3.755
 6745W        W10796   2.956   0.700   0.282
 6746W        W10797   6.029   2.148   9.942
 6747W        W10798   4.923   2.639   1.798
 6748W        W10799   7.044   8.670   9.498
 6749W        W10800   7.801  10.384  11.438
 6750W        W10801   5.694   0.733   2.731
 6751W        W10802  11.366   5.216   9.915
 6752W        W10803   7.441  10.032  11.616
 6753W        W10804   7.114  11.185   1.316
 6754W        W10805  11.387   3.829  11.363
 6755W        W10806   9.866   9.996  11.927
 6756W        W10807   7.126   8.900   0.465
 6757W        W10808   2.159   4.985  11.742
 6758W        W10809   4.725   8.905   2.810
 6759W        W10810   2.698   9.511   1.705
 6760W        W10811  10.751   7.711   2.246
 6761W        W10812   1.752   2.688   9.881
 6762W        W10813   5.386   9.370   9.907
 6763W        W10814   2.318  10.029  11.394
 6764W        W10815  11.430   8.109   0.907
 6765W        W10816   8.208   1.213   0.631
 6766W        W10817   9.970   7.603   0.320
 6767W        W10818   5.101   7.243  10.910
 6768W        W10819   3.542   6.912   2.797
 6769W        W10820   8.638   3.045   1.240
 6770W        W10821   7.774   3.599   1.261
 6771W        W10822   1.373   7.170  11.553
 6772W        W10823   0.902   3.796   0.428
 6773W        W10824   2.795   2.852   0.995
 6774W        W10825  10.314  11.013  11.860
 6775W        W10826   6.511   2.344  10.759
 6776W        W10827   9.463   6.949   9.693
 6777W        W10828   4.768   9.902  10.961
 6778W        W10829   6.668   0.859   3.890
 6779W        W10830  10.519   7.268   1.340
 6780W        W10831  11.358   0.157   9.569
 6781W        W10832   5.203   9.010  10.748
 6782W        W10833   2.346   1.965  10.521
 6783W        W10834   5.074   9.359   2.435
 6784W        W10835   3.153   5.107   3.788
 6785W        W10836  11.303   5.272   0.508
 6786W        W10837   8.175   6.001   8.445
 6787W        W10838   9.748   0.498   1.800
 6788W        W10839  10.488   3.862  10.900
 6789W        W10840   1.162   6.689   8.697
 6790W        W10841   2.118   7.591   3.668
 6791W        W10842   4.486   1.447  10.688
 6792W        W10843   6.053   7.528  10.261
 6793W        W10844   2.706   7.521   9.335
 6794W        W10845   4.380  10.704   9.388
 6795W        W10846   4.795   7.173  10.342
 6796W        W10847   7.914  10.350   1.570
 6797W        W10848   7.963   1.247   1.425
 6798W        W10849   7.145   6.787   2.675
 6799W        W10850   9.181   8.427   1.268
 6800W        W10851   5.766   2.636   0.454
 6801W        W10852   1.885   2.158  10.489
 6802W        W10853   3.033   2.492  11.034
 6803W        W10854  10.426   7.450   2.988
 6804W        W10855  11.063   0.426   1.385
 6805W        W10856   5.909   4.294  11.371
 6806W        W10857   7.510   5.351   1.373
 6807W        W10858   7.175   9.455   2.895
 6808W        W10859   9.372   8.875   1.501
 6809W        W10860   5.682  10.734   3.438
 6810W        W10861   7.912   2.378   9.202
 6811W        W10862   3.686   7.038   0.028
 6812W        W10863   2.265  11.081   1.848
 6813W        W10864  11.446   0.517   0.952
 6814W        W10865   3.289   8.891   1.034
 6815W        W10866   7.344   6.990   8.842
 6816W        W10867   8.907   7.627   9.979
 6817W        W10868  10.513   9.071   8.725
 6818W        W10869   4.827   6.660  11.280
 6819W        W10870   0.392   4.876   1.625
 6820W        W10871   2.428   6.453  11.479
 6821W        W10872   9.470   9.781   2.920
 6822W        W10873   8.809   5.752  11.902
 6823W        W10874  10.889   0.345   9.422
 6824W        W10875   4.994   7.492   0.953
 6825W        W10876   2.392  10.278   0.866
 6826W        W10877  10.322   6.265   1.246
 6827W        W10878   5.309   9.803   0.221
 6828W        W10879  11.272   4.693   3.278
 6829W        W10880   5.235   0.803  11.778
 6830W        W10881   5.153   2.635   3.623
 6831W        W10882   5.743   4.099  10.745
 6832W        W10883   9.382  10.285   2.874
 6833W        W10884   1.845   7.808   2.699
 6834W        W10885  10.771   7.106   0.901
 6835W        W10886   9.875   4.733   0.205
 6836W        W10887   9.955   1.217   2.089
 6837W        W10888   3.194   4.753   0.911
 6838W        W10889   2.963   3.432  11.753
 6839W        W10890   0.660  10.443   0.079
 6840W        W10891   6.681   8.674   2.703
 6841W        W10892   8.475   9.483  10.133
 6842W        W10893   1.805   5.546   3.003
 6843W        W10894  11.432   2.838   2.688
 6844W        W10895   5.483  11.312   9.405
 6845W        W10896   9.001   9.910   0.870
 6846W        W10897   8.400   3.471  10.922
 6847W        W10898   6.539   1.652  10.184
 6848W        W10899   0.825   5.325  11.890
 6849W        W10900   2.692   8.162   1.290
 6850W        W10901   9.380   4.224  10.367
 6851W        W10902   7.495   6.697   0.327
 6852W        W10903  10.015   3.767   1.093
 6853W        W10904   2.167   7.410  10.576
 6854W        W10905   9.230   7.915   9.734
 6855W        W10906   8.469   9.894   9.827
 6856W        W10907   2.683   3.786  11.989
 6857W        W10908   1.003   0.725  10.859
 6858W        W10909  10.536  10.326   9.628
 6859W        W10910   6.244   1.291   8.669
 6860W        W10911   0.500   6.029   3.084
 6861W        W10912   0.805   4.557   9.536
 6862W        W10913   7.460   1.406   1.416
 6863W        W10914   9.407   5.830  11.319
 6864W        W10915  10.852   1.333  11.622
 6865W        W10916   8.886   4.784  11.786
 6866W        W10917   2.499   3.314  10.867
 6867W        W10918   6.378   1.376  10.927
 6868W        W10919   7.478   7.376   0.812
 6869W        W10920   1.326  10.918   2.288
 6870W        W10921   8.976   7.413   3.298
 6871W        W10922   5.482  10.566   2.447
 6872W        W10923   4.127  10.366  11.820
 6873W        W10924   1.345   1.813   9.956
 6874W        W10925   3.791   4.150   2.803
 6875W        W10926   5.043   6.042  11.993
 6876W        W10927   9.447   8.402   2.658
 6877W        W10928   7.660   5.547   2.206
 6878W        W10929   1.195  10.056   3.262
 6879W        W10930   5.517   7.491   0.899
 6880W        W10931  10.410  10.042   3.104
 6881W        W10932   4.266   5.229   0.550
 6882W        W10933   4.245   2.195   9.296
 6883W        W10934   8.906   7.149   2.820
 6884W        W10935   5.785   3.676  11.495
 6885W        W10936   7.904   2.756   1.691
 6886W        W10937   3.196   2.332  11.502
 6887W        W10938   7.491  10.026   1.826
 6888W        W10939   2.350   6.666   9.133
 6889W        W10940   9.025   9.546   1.729
 6890W        W10941   4.129  10.281   9.287
 6891W        W10942   3.174   6.187   1.788
 6892W        W10943   1.682   8.141  11.452
 6893W        W10944   6.122   0.225   1.387
 6894W        W10945   2.944   3.320   2.289
 6895W        W10946   4.179  11.449   8.910
 6896W        W10947   8.953   8.685   3.268
 6897W        W10948   7.162   8.157  10.348
 6898W        W10949   7.272   2.230   1.200
 6899W        W10950  10.081   8.089   9.889
 6900W        W10951   5.671   1.770   0.493
 6901W        W10952   0.816  11.357  10.905
 6902W        W10953   0.673  10.728   9.475
 6903W        W10954   3.324  11.239   2.607
 6904W        W10955   0.307   7.843   9.000
 6905W        W10956   2.010   7.599  10.126
 6906W        W10957   4.701   1.902  10.508
 6907W        W10958   7.560  10.453   1.188
 6908W        W10959   5.280   8.859   9.891
 6909W        W10960   7.170   5.347   0.711
 6910W        W10961   8.019   7.454   0.422
 6911W        W10962   5.594   3.120   0.384
 6912W        W10963  10.949   8.950  10.983
 6913W        W10964   3.666  10.417   9.425
 6914W        W10965   8.043   6.341   9.261
 6915W        W10966  10.285   1.988  10.576
 6916W        W10967   2.842   5.676   3.772
 6917W        W10968   6.106   0.265   0.059
 6918W        W10969   2.365   0.918  11.259
 6919W        W10970   8.123  10.322  11.007
 6920W        W10971   2.670  10.175  10.488
 6921W        W10972   1.433   1.511  10.823
 6922W        W10973   9.528   0.335  11.331
 6923W        W10974   7.154   9.197   9.090
 6924W        W10975   3.335   5.242   0.934
 6925W        W10976   9.890   7.215   0.010
 6926W        W10977   7.487   1.802   0.971
 6927W        W10978   6.907   7.420  10.814
 6928W        W10979  11.222   4.738  11.416
 6929W        W10980   9.254   7.605   2.067
 6930W        W10981   2.849   9.947  10.920
 6931W        W10982   7.381  10.079   3.609
 6932W        W10983  10.818   5.519   0.379
 6933W        W10984  10.458   8.841  10.759
 6934W        W10985   0.846  11.474   2.755
 6935W        W10986  11.057   3.363  11.280
 6936W        W10987  10.719   5.121   2.768
 6937W        W10988   4.263  10.019   0.168
 6938W        W10989   8.078  11.070  11.409
 6939W        W10990   0.283   6.751   9.642
 6940W        W10991   9.740   9.480   9.636
 6941W        W10992   7.362   2.444  10.400
 6942W        W10993   5.293   4.316   3.155
 6943W        W10994   2.666  11.337   9.872
 6944W        W10995   3.458   0.990  10.874
 6945W        W10996   1.626   5.699   9.010
 6946W        W10997   1.646   4.034   9.136
 6947W        W10998   8.425   9.245   1.440
 6948W        W10999   3.388   4.710   1.500
 6949W        W11000   1.619   6.877   1.173
 6950W        W11001   6.806   8.820   9.926
 6951W        W11002   9.826   9.464   1.198
 6952W        W11003   9.008   9.960   1.421
 6953W        W11004   3.119   3.832   2.327
 6954W        W11005   7.348   2.669  10.848
 6955W        W11006   8.431   5.226  10.458
 6956W        W11007   8.362   8.551   0.883
 6957W        W11008   7.487   5.661   0.462
 6958W        W11009  11.427   0.348   3.490
 6959W        W11010   8.022   0.732   1.341
 6960W        W11011   0.485   4.018  10.912
 6961W        W11012  10.904   2.463  10.965
 6962W        W11013   6.526   7.677   9.642
 6963W        W11014   4.290   1.348   8.962
 6964W        W11015   6.059   5.020   9.584
 6965W        W11016   5.255   1.652   1.245
 6966W        W11017   5.817  10.020   9.088
 6967W        W11018   6.355  11.424  10.441
 6968W        W11019   4.381   5.613   1.374
 6969W        W11020   8.845   0.970  11.935
 6970W        W11021   3.332   2.202   8.750
 6971W        W11022   9.909   5.979   8.827
 6972W        W11023   7.520   1.701  10.949
 6973W        W11024   3.810  11.424   9.999
 6974W        W11025  10.251   5.334  10.993
 6975W        W11026   7.481   1.297   1.917
 6976W        W11027   9.819   7.515   2.288
 6977W        W11028   5.532   8.549  11.991
 6978W        W11029   5.793  11.030   9.691
 6979W        W11030   6.204   4.088   9.942
 6980W        W11031   5.488  11.421  11.762
 6981W        W11032   8.522   0.795   0.707
 6982W        W11033   5.724   8.892   9.078
 6983W        W11034   9.555  11.280   9.775
 6984W        W11035   2.769   0.711   3.169
 6985W        W11036   4.526   9.275  10.234
 6986W        W11037   6.647   5.177  11.058
 6987W        W11038   4.769   3.289   2.301
 6988W        W11039   2.439   5.171   9.948
 6989W        W11040  11.249   6.512   1.853
 6990W        W11041   2.875   1.949   2.163
 6991W        W11042   3.727   6.236  10.173
 6992W        W11043  11.273   7.367  10.144
 6993W        W11044   4.612  11.428   3.449
 6994W        W11045  10.316   2.039   1.184
 6995W        W11046   9.527   0.437   8.979
 6996W        W11047   8.312   0.679   9.824
 6997W        W11048   4.051  10.170   3.798
 6998W        W11049   1.204   4.562  11.696
 6999W        W11050   5.111   7.098   9.935
 7000W        W11051   6.334  11.147   0.647
 7001W        W11052   2.670   1.383  11.765
 7002W        W11053  10.335   9.533   8.496
 7003W        W11054   9.060   2.804   8.898
 7004W        W11055   1.901   0.105   8.986
 7005W        W11056   7.576   1.039   8.943
 7006W        W11057   3.786   2.876  11.841
 7007W        W11058   6.947   4.055   9.476
 7008W        W11059   2.734   2.949  10.075
 7009W        W11060   0.311   4.043   9.845
 7010W        W11061  10.222   1.935   0.698
 7011W        W11062   1.842  10.792   3.129
 7012W        W11063   8.975   4.124  10.679
 7013W        W11064   2.068   6.345   3.462
 7014W        W11065   2.756  11.217   1.697
 7015W        W11066  10.296   5.694   0.383
 7016W        W11067  10.824   1.339   1.545
 7017W        W11068   9.851   1.171   0.421
 7018W        W11069   1.028   7.049   0.465
 7019W        W11070   0.928   5.010   2.757
 7020W        W11071   7.288   7.150  10.581
 7021W        W11072  11.421   1.044   0.905
 7022W        W11073   2.920  11.292   0.118
 7023W        W11074   5.769   6.672   2.249
 7024W        W11075   1.859   0.878  11.283
 7025W        W11076   4.094   8.366  11.229
 7026W        W11077   7.356   2.353   0.293
 7027W        W11078   0.846   4.653   0.456
 7028W        W11079   1.328   9.801   8.863
 7029W        W11080   8.621   2.965   9.144
 7030W        W11081   6.716   9.009   3.398
 7031W        W11082   4.298   5.653   0.849
 7032W        W11083   6.056   3.691  10.684
 7033W        W11084   5.526   6.284   1.170
 7034W        W11085   4.987   3.660   8.678
 7035W        W11086   5.987   9.972   9.590
 7036W        W11087   6.467  10.889   1.823
 7037W        W11088  11.323   1.791   2.607
 7038W        W11089   7.619   2.774   0.434
 7039W        W11090   0.316   8.129   2.214
 7040W        W11091   9.047   4.637   9.104
 7041W        W11092   1.337  10.790   8.887
 7042W        W11093   7.820   0.225   2.218
 7043W        W11094   3.405   8.973   0.545
 7044W        W11095   7.957   3.659   0.785
 7045W        W11096   5.124   9.753  10.105
 7046W        W11097   8.827   0.907   1.953
 7047W        W11098  10.034  11.102   2.777
 7048W        W11099   5.650   1.286   3.483
 7049W        W11100   5.985   8.937  11.495
 7050W        W11101   5.628   4.672   2.420
 7051W        W11102   8.392   0.772   0.197
 7052W        W11103   8.047   5.826   3.651
 7053W        W11104   0.630   0.904   9.064
 7054W        W11105   2.845   4.220  11.713
 7055W        W11106  11.205   5.985   2.817
 7056W        W11107   7.502   8.047   1.580
 7057W        W11108   5.360   0.316  10.513
 7058W        W11109   5.707   6.579   9.145
 7059W        W11110   7.884   7.871   2.089
 7060W        W11111   8.889  10.416  10.338
 7061W        W11112   7.918  10.778  11.787
 7062W        W11113  10.980   0.291   0.513
 7063W        W11114   3.548   3.999  10.588
 7064W        W11115  10.175   1.474   0.935
 7065W        W11116   9.990   6.501  10.417
 7066W        W11117   4.181   2.736   3.489
 7067W        W11118   6.592   1.787   8.919
 7068W        W11119   5.724   8.174   9.516
 7069W        W11120   3.205   9.375   1.815
 7070W        W11121   7.553  11.450   1.205
 7071W        W11122   1.789   8.696   3.218
 7072W        W11123   7.334   8.348  11.779
 7073W        W11124   6.795  10.388  11.322
 7074W        W11125   0.844   8.539  10.777
 7075W        W11126   5.749  11.449   0.232
 7076W        W11127   6.726   6.343  11.759
 7077W        W11128   9.719   8.223   3.672
 7078W        W11129   5.771   8.817   0.942
 7079W        W11130  10.531   5.532   0.847
 7080W        W11131   9.096  10.465   3.237
 7081W        W11132   7.884  10.970   9.649
 7082W        W11133   6.636  10.896   9.238
 7083W        W11134   2.448   7.051  10.334
 7084W        W11135  10.749   0.327   0.053
 7085W        W11136   6.655   9.120  10.858
 7086W        W11137   4.065   2.841   2.034
 7087W        W11138   8.143   9.885   1.387
 7088W        W11139   5.090   4.514   2.240
 7089W        W11140   0.875   4.149   1.703
 7090W        W11141   6.897   2.509   9.988
 7091W        W11142   2.639   4.940  10.392
 7092W        W11143   8.268   0.352  11.858
 7093W        W11144   7.642   9.033   9.222
 7094W        W11145   3.725   5.743   0.183
 7095W        W11146  10.364   6.100   3.239
 7096W        W11147   0.023  10.797   1.378
 7097W        W11148   4.715   0.335   9.925
 7098W        W11149   5.988   3.365   8.559
 7099W        W11150   8.409  10.521   0.920
 7100W        W11151   4.724   4.131   0.444
 7101W        W11152   0.003   1.813   1.170
 7102W        W11153  10.804   7.358   2.600
 7103W        W11154   5.556   9.403   8.992
 7104W        W11155   1.422   9.177   0.142
 7105W        W11156   9.367   0.456  10.341
 7106W        W11157   2.634   7.048  11.211
 7107W        W11158   2.848  10.930  11.748
 7108W        W11159   2.130   7.338   9.401
 7109W        W11160   1.680   9.609   0.750
 7110W        W11161   0.968  10.122  11.022
 7111W        W11162   9.988   2.862  11.694
 7112W        W11163   2.355   1.550   9.622
 7113W        W11164   8.582   3.354   1.641
 7114W        W11165   0.117  10.513   2.797
 7115W        W11166  11.404   8.462   2.255
 7116W        W11167   8.449   7.105   9.410
 7117W        W11168   5.247   1.678   2.649
 7118W        W11169   9.857   6.126   3.086
 7119W        W11170   7.960   6.959   3.101
 7120W        W11171   6.982   6.583   8.773
 7121W        W11172   1.753   6.466   0.890
 7122W        W11173   6.546   1.829  10.671
 7123W        W11174   2.728   5.740  10.734
 7124W        W11175   6.073  11.300  10.849
 7125W        W11176   1.116   5.734  10.052
 7126W        W11177   1.271   8.862  10.015
 7127W        W11178   5.060   2.960   0.923
 7128W        W11179   0.746   6.508  11.351
 7129W        W11180   8.463   1.142   1.628
 7130W        W11181   7.850   7.410   2.326
 7131W        W11182   2.819   2.578   3.328
 7132W        W11183   5.559   1.344  11.833
 7133W        W11184   2.013   7.669  11.425
 7134W        W11185   8.436   0.743  11.154
 7135W        W11186   0.461   6.736  10.532
 7136W        W11187   1.956  11.143   1.157
 7137W        W11188   0.256  11.115  10.281
 7138W        W11189   4.010   4.557   9.549
 7139W        W11190  10.881   9.036   0.027
 7140W        W11191   5.112   5.568  11.764
 7141W        W11192   9.853   5.272   3.037
 7142W        W11193   6.597   9.597   8.469
 7143W        W11194  10.040   1.784   9.780
 7144W        W11195   4.693   5.710   0.534
 7145W        W11196   1.332   8.384  10.200
 7146W        W11197   8.387  11.295   9.283
 7147W        W11198   3.135   1.019  10.096
 7148W        W11199   8.619   5.778   8.234
 7149W        W11200   3.559   4.165   9.209
 7150W        W11201   2.344  10.048  10.868
 7151W        W11202   1.762   5.028   9.405
 7152W        W11203   8.067   5.999  10.240
 7153W        W11204   6.980   0.952   2.119
 7154W        W11205   5.253   0.901   2.934
 7155W        W11206   4.614   3.214   0.830
 7156W        W11207   3.506   0.049  11.425
 7157W        W11208   8.052   0.069  11.398
 7158W        W11209   4.603   0.321   8.561
 7159W        W11210   8.509   7.648   0.402
 7160W        W11211  10.314   2.700   1.389
 7161W        W11212   8.567   1.174  11.373
 7162W        W11213   5.351  11.412   3.168
 7163W        W11214   4.906   0.666   3.217
 7164W        W11215  10.052   8.474   9.375
 7165W        W11216   4.132   1.869   8.758
 7166W        W11217   5.183   8.275   1.270
 7167W        W11218   3.337  10.799   2.248
 7168W        W11219   5.126   9.110   1.527
 7169W        W11220   6.767  10.911   0.084
 7170W        W11221   1.619   9.002  10.876
 7171W        W11222  11.389   1.875  11.681
 7172W        W11223   2.611   5.728   1.369
 7173W        W11224   8.609   4.085   0.492
 7174W        W11225   3.355   5.224   1.460
 7175W        W11226   6.887   4.572  11.248
 7176W        W11227  10.824   2.751   0.732
 7177W        W11228   6.511  11.140   3.060
 7178W        W11229   5.095   3.092  11.079
 7179W        W11230   9.419  10.877   0.107
 7180W        W11231   3.771   7.977  10.504
 7181W        W11232   7.146   7.052   0.058
 7182W        W11233   1.460   8.504   9.180
 7183W        W11234   3.870   1.869   1.298
 7184W        W11235   1.189   6.729  11.743
 7185W        W11236   5.202   1.436   0.756
 7186W        W11237   4.739   8.690   1.924
 7187W        W11238   3.324   8.797   8.641
 7188W        W11239   1.275   4.671   0.186
 7189W        W11240   7.228   8.395  10.799
 7190W        W11241   0.670   1.492  10.411
 7191W        W11242   2.621   8.659   1.261
 7192W        W11243   7.010   1.711  10.348
 7193W        W11244   5.055  10.792   0.510
 7194W        W11245   2.647   2.343   2.453
 7195W        W11246  10.778   4.223   2.815
 7196W        W11247   4.673   6.110   1.825
 7197W        W11248   8.803   3.653   1.228
 7198W        W11249   5.514   3.276   2.683
 7199W        W11250   1.801   5.530   9.456
 7200W        W11251   4.449   2.156   2.863
 7201W        W11252   6.159   3.144   8.974
 7202W        W11253   6.558   5.650   1.741
 7203W        W11254   3.597  11.248  10.959
 7204W        W11255   3.367   7.135  10.475
 7205W        W11256   3.809   2.628  10.360
 7206W        W11257  11.440   4.290   9.090
 7207W        W11258   9.458   5.028   0.400
 7208W        W11259   6.546   5.691  11.276
 7209W        W11260   8.704   6.636   8.764
 7210W        W11261   0.603   1.252   9.932
 7211W        W11262   4.292   4.566  10.814
 7212W        W11263   1.058   7.879   3.387
 7213W        W11264   4.152   2.540  11.952
 7214W        W11265   5.752   7.516   8.908
 7215W        W11266   8.098   3.702   9.608
 7216W        W11267   0.382   4.894  11.757
 7217W        W11268   0.852   9.034  10.629
 7218W        W11269   6.976   0.848   2.628
 7219W        W11270   0.205   7.637  10.085
 7220W        W11271   3.814   2.089  11.426
 7221W        W11272   7.029  11.473   2.318
 7222W        W11273   9.134   3.311   2.793
 7223W        W11274   4.077   1.712   9.248
 7224W        W11275   9.424   2.418   9.701
 7225W        W11276   5.208   6.748   9.154
 7226W        W11277   6.133   6.217   9.399
 7227W        W11278   0.233   6.613   0.051
 7228W        W11279   2.253   0.208   1.030
 7229W        W11280   5.506  10.274  10.762
 7230W        W11281   4.927   0.176   3.150
 7231W        W11282   2.191   1.926   3.176
 7232W        W11283   0.761  11.200  11.787
 7233W        W11284   8.001  10.932   2.835
 7234W        W11285   8.680   1.345   0.763
 7235W        W11286   0.536   9.719   0.570
 7236W        W11287   7.023   7.582   9.546
 7237W        W11288   0.117   5.274   0.093
 7238W        W11289   4.684   6.165  11.240
 7239W        W11290   3.843  10.973  11.920
 7240W        W11291   4.563   7.572  10.047
 7241W        W11292   8.349   9.849   3.656
 7242W        W11293   3.591   1.315  10.137
 7243W        W11294   2.776   9.927   2.030
 7244W        W11295   2.151   5.127  10.348
 7245W        W11296   1.784   3.558  11.455
 7246W        W11297   8.553   8.882   9.396
 7247W        W11298   6.501   7.095   1.949
 7248W        W11299   2.622   0.939   9.966
 7249W        W11300   2.667   1.837   2.637
 7250W        W11301   0.223  11.500   1.895
 7251W        W11302   4.159   3.712  10.352
 7252W        W11303   3.712   6.085   8.326
 7253W        W11304   3.274   4.732  10.084
 7254W        W11305   0.407   6.665   1.134
 7255W        W11306   0.768   3.163  11.025
 7256W        W11307   8.624   8.910  11.020
 7257W        W11308   1.729   8.977  11.809
 7258W        W11309   8.351   1.107   1.112
 7259W        W11310   2.537   5.628   8.734
 7260W        W11311   7.431   0.482   2.991
 7261W        W11312   2.711   8.842  10.057
 7262W        W11313   4.765   2.480  11.445
 7263W        W11314  10.889   2.930   2.536
 7264W        W11315   3.464  10.545   0.450
 7265W        W11316   6.219   5.499  11.759
 7266W        W11317   7.540   8.081  11.141
 7267W        W11318   8.856   8.507   0.869
 7268W        W11319   8.146   6.366   1.356
 7269W        W11320   9.999   0.306   9.182
 7270W        W11321   9.824   7.923   3.270
 7271W        W11322   5.104   8.279  11.981
 7272W        W11323   1.756   2.653   8.906
 7273W        W11324  10.329   8.885   2.742
 7274W        W11325   3.690   4.222   8.712
 7275W        W11326  10.352   2.177  11.396
 7276W        W11327   6.261  10.389   9.739
 7277W        W11328   2.341   3.836   8.624
 7278W        W11329   3.799   9.709   0.198
 7279W        W11330   4.085   0.399   2.470
 7280W        W11331  10.387   1.784   1.827
 7281W        W11332  10.952   2.556   2.131
 7282W        W11333   1.853   7.742   9.656
 7283W        W11334   0.412   0.426   1.546
 7284W        W11335   9.108   2.743  11.338
 7285W        W11336  10.819   6.171   9.198
 7286W        W11337   2.202   6.654   1.651
 7287W        W11338  10.299   7.990   3.104
 7288W        W11339  10.890   4.655  11.805
 7289W        W11340   6.780   5.824   1.282
 7290W        W11341   0.811   2.890  10.197
 7291W        W11342   2.743   9.929   9.999
 7292W        W11343  11.263   9.517   9.029
 7293W        W11344   8.941   2.566   3.249
 7294W        W11345   0.975   2.827  10.694
 7295W        W11346   7.509  11.306   2.224
 7296W        W11347   5.704   4.057   4.057
 7297W        W11348   0.904  11.383   0.509
 7298W        W11349   1.186   4.181   0.999
 7299W        W11350   8.463   0.960   9.438
 7300W        W11351  11.204   1.690   3.635
 7301W        W11352   3.709   1.288   1.912
 7302W        W11353   2.285   9.371  11.536
 7303W        W11354   7.069   2.006  11.364
 7304W        W11355   1.740   7.836   0.982
 7305W        W11356   9.105  10.823   1.301
 7306W        W11357  10.127  11.038  11.373
 7307W        W11358   1.374   4.105  11.027
 7308W        W11359   4.192   4.691   1.807
 7309W        W11360  10.516   8.423   1.849
 7310W        W11361   2.342   3.424   3.682
 7311W        W11362   6.754   1.370   3.294
 7312W        W11363   1.553  10.493   0.905
 7313W        W11364   5.466   8.395   0.857
 7314W        W11365   0.371  10.394  11.424
 7315W        W11366   4.994  11.071   2.003
 7316W        W11367   1.055   7.484   1.295
 7317W        W11368   2.036   5.157   1.245
 7318W        W11369   0.477   2.637   1.001
 7319W        W11370   5.653   4.666   2.975
 7320W        W11371   4.514   3.243   9.010
 7321W        W11372   9.881   4.236   0.889
 7322W        W11373   3.903   8.353  11.694
 7323W        W11374   4.245  10.572   1.950
 7324W        W11375   8.847   2.311  11.436
 7325W        W11376   6.216   9.247   0.277
 7326W        W11377   0.300   5.156   0.668
 7327W        W11378   5.688   2.805  10.494
 7328W        W11379   0.450  10.988  10.760
 7329W        W11380   0.462   2.138   9.876
 7330W        W11381   0.504   6.720   2.131
 7331W        W11382  10.417   1.954   9.076
 7332W        W11383   6.899   6.039  11.391
 7333W        W11384   9.047   0.318   1.362
 7334W        W11385   2.716   6.222   0.475
 7335W        W11386  11.364  10.235   0.272
 7336W        W11387   9.061   2.147   2.120
 7337W        W11388   1.178   7.921   2.358
 7338W        W11389   3.322   5.086  11.911
 7339W        W11390   6.492   4.510  10.513
 7340W        W11391   9.252   0.563   0.060
 7341W        W11392   1.757   9.071   9.252
 7342W        W11393   3.338   1.743   8.486
 7343W        W11394  10.057   0.990   0.853
 7344W        W11395  10.009   2.399   0.790
 7345W        W11396   0.699  11.240   9.534
 7346W        W11397   8.690   6.074   8.665
 7347W        W11398   7.913   4.268   9.807
 7348W        W11399   8.989  10.173  11.928
 7349W        W11400   6.947   0.830   9.729
 7350W        W11401   7.963   4.499  10.271
 7351W        W11402   9.622   2.908   8.942
 7352W        W11403  10.443   0.936   2.326
 7353W        W11404  11.300   6.101   9.392
 7354W        W11405   5.825   2.287   1.187
 7355W        W11406   6.551   0.223   2.359
 7356W        W11407   8.260   7.890   9.569
 7357W        W11408   8.040   7.144   0.002
 7358W        W11409   7.962  11.228   1.456
 7359W        W11410   2.783   4.981   0.731
 7360W        W11411   4.952   7.067   9.451
 7361W        W11412   4.685   4.772   2.023
 7362W        W11413   1.782   2.315   0.986
 7363W        W11414   0.334   5.771  10.341
 7364W        W11415   2.871   3.695   0.485
 7365W        W11416   4.979   1.778   8.792
 7366W        W11417  10.698   6.784   9.908
 7367W        W11418   2.263   0.261   0.514
 7368W        W11419   4.158   4.864  10.395
 7369W        W11420   2.001   5.413   0.790
 7370W        W11421   6.060   6.487  10.683
 7371W        W11422   8.761   9.499   0.653
 7372W        W11423   9.961   5.661   2.491
 7373W        W11424  10.344   7.447   0.671
 7374W        W11425   1.484  11.391  10.418
 7375W        W11426  10.703   9.642   0.667
 7376W        W11427   8.623   2.563   1.049
 7377W        W11428   4.287   9.953  11.169
 7378W        W11429   8.763   5.921  10.294
 7379W        W11430   8.425   3.833   0.897
 7380W        W11431   2.098   8.070   0.726
 7381W        W11432  11.175   3.554   3.286
 7382W        W11433   7.574  10.556   2.711
 7383W        W11434   9.007   8.590   2.273
 7384W        W11435   0.968   6.924   2.254
 7385W        W11436   7.622  11.331  11.638
 7386W        W11437  10.380   8.912   1.383
 7387W        W11438   3.754   7.108   1.970
 7388W        W11439   0.566   3.668   1.358
 7389W        W11440   3.541   0.738   9.933
 7390W        W11441   0.582   9.133   2.227
 7391W        W11442  11.420   8.625  10.889
 7392W        W11443   7.229   2.782   2.799
 7393W        W11444   8.712   8.386   1.496
 7394W        W11445   3.689   3.638   9.373
 7395W        W11446   4.723   5.709  11.009
 7396W        W11447   5.332   7.271   9.139
 7397W        W11448   7.425   0.545   2.483
 7398W        W11449   3.223   3.149   9.922
 7399W        W11450   9.758   0.456   3.096
 7400W        W11451   2.401   9.953   3.438
 7401W        W11452   7.817  10.596  10.589
 7402W        W11453   7.253   1.297   3.235
 7403W        W11454   1.385   0.248   1.419
 7404W        W11455   4.492   8.481   1.129
 7405W        W11456   5.738   2.809  11.546
 7406W        W11457   1.148   1.019   0.335
 7407W        W11458   6.560   8.125   1.868
 7408W        W11459   2.824   2.702   0.359
 7409W        W11460   9.477   1.945   9.525
 7410W        W11461   3.579   7.013  11.524
 7411W        W11462   0.765   6.072   9.480
 7412W        W11463  10.277   2.921  11.019
 7413W        W11464   3.577   3.190   9.097
 7414W        W11465   2.118   0.938   3.602
 7415W        W11466   5.485   7.575  11.915
 7416W        W11467  11.330   2.723   0.781
 7417W        W11468   6.533   6.652  10.232
 7418W        W11469   7.426  10.243  10.512
 7419W        W11470   6.091   5.086   1.544
 7420W        W11471   3.598   1.809  11.843
 7421W        W11472   1.806   3.581   0.409
 7422W        W11473   5.072   4.231   1.351
 7423W        W11474   3.246   4.699   2.005
 7424W        W11475   6.100   7.730   3.664
 7425W        W11476   7.562   4.493   9.511
 7426W        W11477   5.396   9.034   0.202
 7427W        W11478  10.809   5.577   1.693
 7428W        W11479   8.573   8.890   2.228
 7429W        W11480   9.334   3.641   1.309
 7430W        W11481   8.221   8.123  11.774
 7431W        W11482   2.414   7.408   1.498
 7432W        W11483   9.098   2.698   9.408
 7433W        W11484   2.343   9.999   9.011
 7434W        W11485   6.762   4.235   0.489
 7435W        W11486   8.889   1.020   0.436
 7436W        W11487   9.896  11.248   0.226
 7437W        W11488   5.927  10.659  11.421
 7438W        W11489   4.265   1.357   0.433
 7439W        W11490   9.999  10.318   9.467
 7440W        W11491   2.849   4.542   0.474
 7441W        W11492   8.623   2.569   1.549
 7442W        W11493   8.682   7.572   1.891
 7443W        W11494   3.724   8.041   3.190
 7444W        W11495   9.943   3.313   2.391
 7445W        W11496   0.384   5.089   8.925
 7446W        W11497   0.360   8.585   2.493
 7447W        W11498   9.377  10.372   1.866
 7448W        W11499  11.111   4.578   0.285
 7449W        W11500   2.142   3.231   0.182
 7450W        W11501   5.238   1.226  11.450
 7451W        W11502   9.860   2.285   3.401
 7452W        W11503   4.660  10.400  11.824
 7453W        W11504   5.642   4.797  10.552
 7454W        W11505   7.160   3.857   3.049
 7455W        W11506   4.306   4.711   9.942
 7456W        W11507   0.484   2.674   9.375
 7457W        W11508   9.611   5.699   2.871
 7458W        W11509  10.035   7.466   3.328
 7459W        W11510   2.055   8.763   8.475
 7460W        W11511   1.774   6.464   1.432
 7461W        W11512   4.039   5.939   1.178
 7462W        W11513   5.189   7.852  11.561
 7463W        W11514   2.190  11.302  10.002
 7464W        W11515   1.979   2.679  11.291
 7465W        W11516   8.577   1.592   1.849
 7466W        W11517   0.151   9.434   9.445
 7467W        W11518  10.013   6.142   0.194
 7468W        W11519   3.628   8.421  10.768
 7469W        W11520   6.344  10.738   0.329
 7470W        W11521  10.344   9.950   1.761
 7471W        W11522   7.659   0.013   1.730
 7472W        W11523   5.110   8.628  10.388
 7473W        W11524   8.156   3.881   0.365
 7474W        W11525   8.927   3.245  11.440
 7475W        W11526   7.643   5.609  11.079
 7476W        W11527   6.714   3.665  11.384
 7477W        W11528   8.147   0.424   9.416
 7478W        W11529   4.622   2.488   3.217
 7479W        W11530  10.057   6.163  10.809
 7480W        W11531   2.375   3.385   8.940
 7481W        W11532   8.469   4.996  10.001
 7482W        W11533  11.395   4.634   8.584
 7483W        W11534   8.566   8.321  10.909
 7484W        W11535   0.767   4.879   3.467
 7485W        W11536  10.192   5.818  11.482
 7486W        W11537   0.476   4.713   2.874
 7487W        W11538   0.363   8.519   3.000
 7488W        W11539   8.444  11.237   1.711
 7489W        W11540   9.004   5.049  11.187
 7490W        W11541   7.855   4.521  11.759
 7491W        W11542   7.512   6.979   3.394
 7492W        W11543   8.947   9.130   2.488
 7493W        W11544   5.108   4.039   9.042
 7494W        W11545   8.949   5.674   2.305
 7495W        W11546  11.227  10.128   1.923
 7496W        W11547   5.013  10.061  10.536
 7497W        W11548   4.643   7.008   1.593
 7498W        W11549   1.694   3.095  11.236
 7499W        W11550   0.879  10.425  10.043
 7500W        W11551   6.015   4.915   2.075
 7501W        W11552   2.260   1.154   0.022
 7502W        W11553   2.702   5.438  10.323
 7503W        W11554  10.964  10.097   3.144
 7504W        W11555   7.213   8.377   3.368
 7505W        W11556  11.486   0.280   0.501
 7506W        W11557   6.393   0.215   9.272
 7507W        W11558   3.760   2.649   1.601
 7508W        W11559   6.955   7.984   3.110
 7509W        W11560   9.852   1.023   8.643
 7510W        W11561   5.249   3.584  11.499
 7511W        W11562   6.443   0.976   1.341
 7512W        W11563   1.997   5.094   2.130
 7513W        W11564   4.454   6.523   1.619
 7514W        W11565   0.943   2.137   3.250
 7515W        W11566   2.808   6.455   9.256
 7516W        W11567   5.023   1.236  11.944
 7517W        W11568   6.948   5.658  11.738
 7518W        W11569   9.985   1.359   9.533
 7519W        W11570   0.809   2.469   2.215
 7520W        W11571   6.472   8.112   3.310
 7521W        W11572   5.027   3.478   3.989
 7522W        W11573   8.314   2.981  10.860
 7523W        W11574   9.430   7.641   0.478
 7524W        W11575   7.457  10.782   3.155
 7525W        W11576   6.469   6.128   1.527
 7526W        W11577   6.095   0.685  11.778
 7527W        W11578   8.129   3.294   0.448
 7528W        W11579   8.536   6.577   2.688
 7529W        W11580  11.333   2.306   1.840
 7530W        W11581   9.090   5.215   0.686
 7531W        W11582   5.520  10.957  11.493
 7532W        W11583   0.267   8.538   0.039
 7533W        W11584   9.520   8.663   0.300
 7534W        W11585   6.452   5.925   9.105
 7535W        W11586   5.285   7.465   8.666
 7536W        W11587   4.235   6.219  10.262
 7537W        W11588   5.118   3.130   3.615
 7538W        W11589   8.289   3.704   1.386
 7539W        W11590   8.423   9.741   2.111
 7540W        W11591   6.196  10.855  11.827
 7541W        W11592   4.294   9.118   0.338
 7542W        W11593   1.266  11.425   1.799
 7543W        W11594   1.742   3.189   8.632
 7544W        W11595   3.754   9.289   1.923
 7545W        W11596   3.148   4.086  10.281
 7546W        W11597   2.641   8.995   9.056
 7547W        W11598   4.102  11.361   9.407
 7548W        W11599   6.380  10.085  11.416
 7549W        W11600   4.733   0.075   2.397
 7550W        W11601   1.284   7.045   2.902
 7551W        W11602   7.652   9.551   1.967
 7552W        W11603   7.382  10.766  10.392
 7553W        W11604  10.354   0.442   2.407
 7554W        W11605   0.021   4.663   2.635
 7555W        W11606   5.419   6.029  11.659
 7556W        W11607   7.369   1.663   9.594
 7557W        W11608   8.175   3.307   1.092
 7558W        W11609   6.156   1.319   1.653
 7559W        W11610   5.249   0.931   0.735
 7560W        W11611   2.557   7.029   9.456
 7561W        W11612   2.988   5.824   3.128
 7562W        W11613   2.664  10.686  10.433
 7563W        W11614   6.258   2.863   9.468
 7564W        W11615   0.473   6.183   0.277
 7565W        W11616   5.011   8.370   9.972
 7566W        W11617   5.781   9.559   0.236
 7567W        W11618   7.916   7.654  10.862
 7568W        W11619   2.602   4.226   8.903
 7569W        W11620   8.581  11.281   0.677
 7570W        W11621   3.102   5.878   0.404
 7571W        W11622   2.515  10.367   2.061
 7572W        W11623   9.984   4.182  11.527
 7573W        W11624   6.743   8.530   3.193
 7574W        W11625  11.280   1.730  10.305
 7575W        W11626   0.808  11.027   2.404
 7576W        W11627   6.984  10.944  10.124
 7577W        W11628   6.641   4.265  10.087
 7578W        W11629  10.237   4.580  10.416
 7579W        W11630   8.139   4.799   2.675
 7580W        W11631   1.301   7.551   2.689
 7581W        W11632   9.832   4.284  10.588
 7582W        W11633   2.829   3.707  10.963
 7583W        W11634   0.480   5.052   1.146
 7584W        W11635   9.035   6.858  10.445
 7585W        W11636   8.965   3.212   9.546
 7586W        W11637   9.308   4.100  11.993
 7587W        W11638  11.263   4.230  11.698
 7588W        W11639   5.027   3.812   9.605
 7589W        W11640   4.049   2.060   0.868
 7590W        W11641   8.972   7.869   0.345
 7591W        W11642   3.445   5.238  10.884
 7592W        W11643   7.423   3.253   0.403
 7593W        W11644   2.214   7.655   1.913
 7594W        W11645   3.902   1.722   0.434
 7595W        W11646   4.222   6.706  10.848
 7596W        W11647   3.579   6.603   1.739
 7597W        W11648  10.610   9.559   2.334
 7598W        W11649   9.611   6.437  11.662
 7599W        W11650   6.128   4.446   3.169
 7600W        W11651   9.439   7.019   2.787
 7601W        W11652   0.371  10.210   0.441
 7602W        W11653   2.291   7.948   0.275
 7603W        W11654   9.133   6.866   8.594
 7604W        W11655  10.773   1.977  10.980
 7605W        W11656   2.787   3.289  11.291
 7606W        W11657   6.022  10.419   3.176
 7607W        W11658   2.273   8.092   2.955
 7608W        W11659   1.283   1.762   2.777
 7609W        W11660   2.879   5.993   9.033
 7610W        W11661  10.980   3.558   0.469
 7611W        W11662   9.525   4.791   2.756
 7612W        W11663  10.982   4.277   8.474
 7613W        W11664   2.701  11.353  10.800
 7614W        W11665   4.715   8.431   9.558
 7615W        W11666   1.677   6.745  11.488
 7616W        W11667   9.789   5.671   3.369
 7617W        W11668   6.649   2.887   0.174
 7618W        W11669   7.394   4.553  11.994
 7619W        W11670  10.100   3.553  10.389
 7620W        W11671   6.102  10.879   1.431
 7621W        W11672   8.837   5.074   9.310
 7622W        W11673  10.008   0.730   2.163
 7623W        W11674  11.243   9.910  11.865
 7624W        W11675   7.704   3.222   2.474
 7625W        W11676   8.885   8.013   1.785
 7626W        W11677   8.224   8.611   9.072
 7627W        W11678   6.906  10.215   0.971
 7628W        W11679  10.299   4.132  11.919
 7629W        W11680   3.408   2.867  11.071
 7630W        W11681  10.986   9.972   9.020
 7631W        W11682   3.680  11.266   9.080
 7632W        W11683   8.516   5.071  11.384
 7633W        W11684   3.364   7.520   1.556
 7634W        W11685   5.052   8.702   2.471
 7635W        W11686   9.282   9.626   9.447
 7636W        W11687   2.490   9.108  10.894
 7637W        W11688   4.285   4.827  11.257
 7638W        W11689  11.347   7.209   3.616
 7639W        W11690   2.847   2.161   8.998
 7640W        W11691   0.288   0.334  11.260
 7641W        W11692  11.330   3.419   9.547
 7642W        W11693   5.580   2.361   8.732
 7643W        W11694  10.329   7.553  10.742
 7644W        W11695   1.312  10.924   1.783
 7645W        W11696   7.630   3.601   9.425
 7646W        W11697  10.965  10.523   3.477
 7647W        W11698   5.923   0.938   1.366
 7648W        W11699  11.313   9.861  10.409
 7649W        W11700   5.155   4.069   2.734
 7650W        W11701   6.581   0.680   0.913
 7651W        W11702   9.314   0.258  10.844
 7652W        W11703   6.099   1.859   1.322
 7653W        W11704   3.323   4.513   2.931
 7654W        W11705   7.604   7.598  11.342
 7655W        W11706  10.708  10.874   9.426
 7656W        W11707   4.367   9.081   9.773
 7657W        W11708   5.401   3.232  10.276
 7658W        W11709   4.374   1.806   1.229
 7659W        W11710  11.336   1.905   0.686
 7660W        W11711   1.286   8.819   3.322
 7661W        W11712   8.825   4.626   9.992
 7662W        W11713   0.503   7.923   0.237
 7663W        W11714   7.641   5.848   1.336
 7664W        W11715   5.155   7.591   2.745
 7665W        W11716   3.825   7.927  11.997
 7666W        W11717   3.155   4.979  10.524
 7667W        W11718   4.680   3.541   1.863
 7668W        W11719   0.096   3.610   3.591
 7669W        W11720   5.391   4.130   1.733
 7670W        W11721   5.694   7.657   0.433
 7671W        W11722   7.050  10.899   9.539
 7672W        W11723   1.634   8.495  11.910
 7673W        W11724  10.428   8.632   8.468
 7674W        W11725   8.354   5.046   9.511
 7675W        W11726   7.169   6.091  11.859
 7676W        W11727   6.175   4.431   2.205
 7677W        W11728   6.971   3.254  11.563
 7678W        W11729   0.469   0.275   9.609
 7679W        W11730   8.084   4.949   8.238
 7680W        W11731   3.191   7.635  11.569
 7681W        W11732   4.981   0.766  10.268
 7682W        W11733   1.811   5.644  10.337
 7683W        W11734   8.892   5.048   8.797
 7684W        W11735  11.354  11.024   2.797
 7685W        W11736   4.405   8.107   2.650
 7686W        W11737   1.399   3.810   0.693
 7687W        W11738   7.878  10.764  11.070
 7688W        W11739   5.526   5.161   3.086
 7689W        W11740   1.376   7.130   8.928
 7690W        W11741   9.861   6.069   9.384
 7691W        W11742   7.341   4.364   8.722
 7692W        W11743   5.576   3.124   8.410
 7693W        W11744   0.894   2.502   3.732
 7694W        W11745   4.991   1.520   3.455
 7695W        W11746   6.548   4.074   2.263
 7696W        W11747   8.344   2.933   0.792
 7697W        W11748   3.098   9.382   3.175
 7698W        W11749   8.648   4.879   3.008
 7699W        W11750   4.104   3.708   2.689
 7700W        W11751  11.076  10.529  10.310
 7701W        W11752   8.187   9.808  10.924
 7702W        W11753   2.437  10.422   0.357
 7703W        W11754   7.942   8.941   0.107
 7704W        W11755   4.076   3.710   9.709
 7705W        W11756   1.166   7.428  10.343
 7706W        W11757   2.676   0.493   1.212
 7707W        W11758   9.958   4.994  11.251
 7708W        W11759   6.115  11.329   9.988
 7709W        W11760   7.465   2.216   9.613
 7710W        W11761   7.183   0.669   1.733
 7711W        W11762  11.447  11.059  11.099
 7712W        W11763   5.667   0.036   2.799
 7713W        W11764   5.184   5.041   1.539
 7714W        W11765   6.067   2.646  11.999
 7715W        W11766   0.539   0.001  10.519
 7716W        W11767   3.124   0.768  10.539
 7717W        W11768   7.083  10.683   1.185
 7718W        W11769   4.313   4.044  11.645
 7719W        W11770  11.465   9.386   9.940
 7720W        W11771   0.228   8.380   0.588
 7721W        W11772   2.391   2.939   0.538
 7722W        W11773   4.783   2.410  10.537
 7723W        W11774   0.400   4.339   2.225
 7724W        W11775   7.044   8.017   2.572
 7725W        W11776   5.732  10.065   2.941
 7726W        W11777   6.514   1.612   9.414
 7727W        W11778   1.439  10.795   9.839
 7728W        W11779   1.180   2.168   2.433
 7729W        W11780   0.988   6.260   9.932
 7730W        W11781  10.895   3.837  11.433
 7731W        W11782   4.746   8.890   3.342
 7732W        W11783   6.430   2.264   3.623
 7733W        W11784  10.663   1.265   0.939
 7734W        W11785   6.429   3.131   0.828
 7735W        W11786   5.575   7.318   9.976
 7736W        W11787   4.189   8.659   0.040
 7737W        W11788   2.202  10.490  10.523
 7738W        W11789  10.493   3.148   1.182
 7739W        W11790   1.091   2.716  11.871
 7740W        W11791  10.280   5.549   3.466
 7741W        W11792   5.169   5.628  10.059
 7742W        W11793   9.862   3.119  10.096
 7743W        W11794   5.250   2.091   9.071
 7744W        W11795   0.117   0.949   9.121
 7745W        W11796  10.010   6.468   9.035
 7746W        W11797  11.377   6.630   9.335
 7747W        W11798   2.556   4.560   3.404
 7748W        W11799   9.893   0.669   1.223
 7749W        W11800   6.933   7.914   8.927
 7750W        W11801   2.655   3.826   3.518
 7751W        W11802   2.069   9.288   0.781
 7752W        W11803   0.185   4.345  10.269
 7753W        W11804   0.548  11.300   3.223
 7754W        W11805   0.747   2.592   3.236
 7755W        W11806   5.274   0.857   1.942
 7756W        W11807   8.001  10.498   3.102
 7757W        W11808   5.171   7.531   1.812
 7758W        W11809  10.406  10.874  10.071
 7759W        W11810   1.823   0.189   0.221
 7760W        W11811   5.019   7.384  11.815
 7761W        W11812  10.862   9.265   8.399
 7762W        W11813   1.289   4.790   1.702
 7763W        W11814   8.340   4.506   9.931
 7764W        W11815   1.837   5.359  11.945
 7765W        W11816  11.013   5.528   2.699
 7766W        W11817   8.565  11.323  10.707
 7767W        W11818   2.273   0.331   2.462
 7768W        W11819   9.867   8.465  10.821
 7769W        W11820   8.345   7.640   0.904
 7770W        W11821   5.522   9.202   1.852
 7771W        W11822  10.240   6.055   1.702
 7772W        W11823   9.777   8.879  10.337
 7773W        W11824   0.420   3.608  10.600
 7774W        W11825   0.348   6.567   0.587
 7775W        W11826   5.450   0.367   2.459
 7776W        W11827  10.837   7.280   9.895
 7777W        W11828   4.475   2.823   2.384
 7778W        W11829   2.257   6.556   0.646
 7779W        W11830   5.826   8.047  10.236
 7780W        W11831   1.962   3.220   1.443
 7781W        W11832   6.907   2.094   3.553
 7782W        W11833   3.112   1.795   1.735
 7783W        W11834   6.476   3.494   3.693
 7784W        W11835   1.705   8.419  10.973
 7785W        W11836   4.052   5.691  11.337
 7786W        W11837   2.183   1.351   2.454
 7787W        W11838   8.251   1.429   9.520
 7788W        W11839  11.094   9.004  10.049
 7789W        W11840  10.631  10.415  10.113
 7790W        W11841  10.970   3.787   9.313
 7791W        W11842  11.445   3.695   9.103
 7792W        W11843   2.804   7.332   0.767
 7793W        W11844   7.452   8.077   2.996
 7794W        W11845   3.280  11.118   3.119
 7795W        W11846   0.411   7.051   0.792
 7796W        W11847   0.889   0.329   0.817
 7797W        W11848   9.649  10.389   9.847
 7798W        W11849   8.643   3.537   2.680
 7799W        W11850   0.490   8.353  10.477
 7800W        W11851   5.598   9.148  11.218
 7801W        W11852   3.118   1.644  11.811
 7802W        W11853   9.687  10.088   0.415
 7803W        W11854   3.508   6.684  10.310
 7804W        W11855   6.915   4.076   8.921
 7805W        W11856   1.318   5.485   0.058
 7806W        W11857   5.852   0.279  11.582
 7807W        W11858   9.563  10.777   1.555
 7808W        W11859   5.241   2.762   9.491
 7809W        W11860   8.467   8.535  10.071
 7810W        W11861   7.735   4.896   3.590
 7811W        W11862   1.364   2.832   1.435
 7812W        W11863  10.629  11.051  11.418
 7813W        W11864  10.297  11.463   8.855
 7814W        W11865   8.015   7.400   9.545
 7815W        W11866  11.301   1.823   0.174
 7816W        W11867   8.025   5.501   1.258
 7817W        W11868   9.585   7.436   3.047
 7818W        W11869   5.489  11.162   0.797
 7819W        W11870   7.433   4.781  11.540
 7820W        W11871   7.646   2.861  11.322
 7821W        W11872   3.600   8.866   3.705
 7822W        W11873   4.741   2.891   9.594
 7823W        W11874   8.957   3.792   0.205
 7824W        W11875   0.841   4.778  11.956
 7825W        W11876   6.246   1.312   3.205
 7826W        W11877  10.540   2.317   0.776
 7827W        W11878  10.112  10.492   3.197
 7828W        W11879   0.698  11.304  10.046
 7829W        W11880   4.768   4.170   2.437
 7830W        W11881  10.313   9.331   0.476
 7831W        W11882   8.073   6.338   3.715
 7832W        W11883   6.759   9.124   2.891
 7833W        W11884   1.485  11.246   1.350
 7834W        W11885   5.328   5.173  10.690
 7835W        W11886  11.494   1.250   2.320
 7836W        W11887   8.505   7.686  10.281
 7837W        W11888   3.373   3.778  11.050
 7838W        W11889   0.722   5.408   8.634
 7839W        W11890   6.816   9.873   2.752
 7840W        W11891   0.639   8.084  10.892
 7841W        W11892   5.937   6.075   1.378
 7842W        W11893   8.590   4.058   8.738
 7843W        W11894   9.623   9.883   2.225
 7844W        W11895   8.652   5.479  10.069
 7845W        W11896   9.110   2.783  10.840
 7846W        W11897   8.054   5.356  10.785
 7847W        W11898  10.412   2.455   9.158
 7848W        W11899   2.688   1.963   9.777
 7849W        W11900   1.114   1.403  11.556
 7850W        W11901   3.609  10.736   9.015
 7851W        W11902   6.367   0.313   1.854
 7852W        W11903   7.083  10.407  10.870
 7853W        W11904   0.755   2.311  11.803
 7854W        W11905   7.949   6.913   0.441
 7855W        W11906   9.968   0.509   0.720
 7856W        W11907   7.052   7.010   3.151
 7857W        W11908   0.363   6.495  10.969
 7858W        W11909   4.080   6.701   8.985
 7859W        W11910   3.355   0.391   8.896
 7860W        W11911   8.167   5.611   3.188
 7861W        W11912   0.019   7.905   0.443
 7862W        W11913   2.306   3.315   9.970
 7863W        W11914   7.471   0.762   9.741
 7864W        W11915   9.158   1.220   1.659
 7865W        W11916  11.336   2.134  11.150
 7866W        W11917   5.653   6.526  11.030
 7867W        W11918   4.943   6.791  11.769
 7868W        W11919   5.638   9.033   1.397
 7869W        W11920   7.005   8.335  11.268
 7870W        W11921   0.581   4.074  10.402
 7871W        W11922   2.620   4.685   9.944
 7872W        W11923   8.578   1.140   3.596
 7873W        W11924   3.721   8.864  10.513
 7874W        W11925   9.001   0.287  10.009
 7875W        W11926   5.877   2.185   0.267
 7876W        W11927   2.482   6.558  10.474
 7877W        W11928   5.864   0.084  10.439
 7878W        W11929   0.319   9.884   9.654
 7879W        W11930   0.863   2.299   8.966
 7880W        W11931  11.451   3.613  10.901
 7881W        W11932   5.631   2.444   2.143
 7882W        W11933   5.959   3.158  10.770
 7883W        W11934   9.393  10.141  11.565
 7884W        W11935   9.900   8.252  11.303
 7885W        W11936   0.403   0.788   9.515
 7886W        W11937   4.682   9.046   2.304
 7887W        W11938   2.317   3.776  10.768
 7888W        W11939   7.755   1.034  10.503
 7889W        W11940  10.915  10.491  10.881
 7890W        W11941   0.190   9.962   1.769
 7891W        W11942   7.939   5.998   0.511
 7892W        W11943   3.074  10.501   9.061
 7893W        W11944  10.131   3.281   0.859
 7894W        W11945   3.325  10.992   9.389
 7895W        W11946   4.508   1.894   9.620
 7896W        W11947  10.972   5.893  10.774
 7897W        W11948   5.378   8.474   3.650
 7898W        W11949   0.522   2.723  11.065
 7899W        W11950   5.581   2.865   8.875
 7900W        W11951  10.239   0.837  11.610
 7901W        W11952  10.542   1.473   8.917
 7902W        W11953   8.194   5.083   1.879
 7903W        W11954   6.017   8.093  11.465
 7904W        W11955   7.593   9.402  10.000
 7905W        W11956   6.665   3.144   1.899
 7906W        W11957  10.691   3.584   3.482
 7907W        W11958   9.632   1.981  10.025
 7908W        W11959   8.898   0.015  11.022
 7909W        W11960   9.588   3.103   3.002
 7910W        W11961   4.140   9.562   8.540
 7911W        W11962   4.349   1.813   0.204
 7912W        W11963  10.415  11.081  10.546
 7913W        W11964   7.670   7.666   2.780
 7914W        W11965   6.357   6.134  11.448
 7915W        W11966   7.631   7.053   9.695
 7916W        W11967   3.563   6.610   1.224
 7917W        W11968  10.980   7.559   9.513
 7918W        W11969   8.624   2.779  11.529
 7919W        W11970   8.868  11.286   9.089
 7920W        W11971  10.285   4.598  11.358
 7921W        W11972   5.361   3.236   3.161
 7922W        W11973   8.935  11.387   1.687
 7923W        W11974   4.044   6.826   1.664
 7924W        W11975   9.804   6.176  11.257
 7925W        W11976   4.194   1.038   3.163
 7926W        W11977   4.062   9.096  11.811
 7927W        W11978   3.769   9.743   0.709
 7928W        W11979  10.995   2.383   9.728
 7929W        W11980   9.263   8.506   8.976
 7930W        W11981  10.044   7.154  11.527
 7931W        W11982   5.276   9.857  10.954
 7932W        W11983   2.641   4.918   0.217
 7933W        W11984   9.515  10.303  10.734
 7934W        W11985   6.588   7.197   4.034
 7935W        W11986   5.918   8.371  10.878
 7936W        W11987   1.315   4.222   3.183
 7937W        W11988   1.708   0.675   2.610
 7938W        W11989   8.659   1.217  10.296
 7939W        W11990   4.284   6.033   2.175
 7940W        W11991   3.298   9.581  10.591
 7941W        W11992  10.990   4.300   1.979
 7942W        W11993   8.985   0.845   3.455
 7943W        W11994   9.715   5.153   9.102
 7944W        W11995   6.668   1.789   1.944
 7945W        W11996   9.136   1.231   2.682
 7946W        W11997   2.774   8.074   0.381
 7947W        W11998   1.280   7.155   0.911
 7948W        W11999   4.945  10.721   8.532
 7949W        W12000  11.291   5.711   0.223
 7950W        W12001   1.273   2.235  11.713
 7951W        W12002   5.306   8.061   8.169
 7952W        W12003   5.787   9.074   2.820
 7953W        W12004   9.337   7.239  11.216
 7954W        W12005   3.512   4.598   9.512
 7955W        W12006  10.985   5.326   9.434
 7956W        W12007  11.357   6.853   8.868
 7957W        W12008   9.156  10.870  11.281
 7958W        W12009  10.583  10.929   0.860
 7959W        W12010  10.576   6.291   9.922
 7960W        W12011  10.421   8.848   0.570
 7961W        W12012   6.608   7.681   3.577
 7962W        W12013   5.037  10.965   1.004
 7963W        W12014   2.271   4.187   0.985
 7964W        W12015   8.120   3.278   2.120
 7965W        W12016  10.130   2.378  11.825
 7966W        W12017   9.103   1.242  10.564
 7967W        W12018   9.019   0.287   9.094
 7968W        W12019   4.681   7.492   2.498
 7969W        W12020   3.389  10.744   2.752
 7970W        W12021   7.561   1.896   1.476
 7971W        W12022   5.759  11.364  11.291
 7972W        W12023   5.643   2.293  10.247
 7973W        W12024   9.895   7.003  10.498
 7974W        W12025   5.925   3.281   9.408
 7975W        W12026   8.871   7.554   2.394
 7976W        W12027   9.397   7.170   1.315
 7977W        W12028   2.170   0.453   2.968
 7978W        W12029   2.848   1.552   1.338
 7979W        W12030   2.332   4.729   9.414
 7980W        W12031   9.183   8.287   9.414
 7981W        W12032   4.123   4.314   3.144
 7982W        W12033   9.541  11.308  10.755
 7983W        W12034   7.965   4.879   9.876
 7984W        W12035   1.281   6.485  10.765
 7985W        W12036   7.905   4.776   0.189
 7986W        W12037   2.037   7.093   1.357
 7987W        W12038   1.026   2.466  10.318
 7988W        W12039   0.843   0.860   2.682
 7989W        W12040   6.121   1.986   0.757
 7990W        W12041   2.719   6.126   2.302
 7991W        W12042  10.473   5.688   2.403
 7992W        W12043   9.931  10.432   0.725
 7993W        W12044   7.477   8.567  11.339
 7994W        W12045   4.448   2.500   1.954
 7995W        W12046  11.214   0.006   1.748
 7996W        W12047   9.565   0.987   9.091
 7997W        W12048   8.909   0.433   0.871
 7998W        W12049   1.371   6.132   1.445
 7999W        W12050   2.251   9.012   9.443
 8000W        W12051  10.510   8.102   0.967
 8001W        W12052   9.386  11.363   0.233
 8002W        W12053   6.599  10.441   1.978
 8003W        W12054   0.365   4.005  11.400
 8004W        W12055  10.317   5.463   7.975
 8005W        W12056  11.301   0.632   9.362
 8006W        W12057   1.806   7.197  11.281
 8007W        W12058   8.703   5.131   1.802
 8008W        W12059  10.035   5.520  10.153
 8009W        W12060   2.225   5.657   1.702
 8010W        W12061   4.175   4.542   4.027
 8011W        W12062   0.712   9.870   1.773
 8012W        W12063   9.331   6.724   1.559
 8013W        W12064   8.150   4.336  10.965
 8014W        W12065   6.015   5.374   3.082
 8015W        W12066   9.853   8.963   1.359
 8016W        W12067  10.154   0.803  11.079
 8017W        W12068   2.404   6.138   9.966
 8018W        W12069   6.074  10.317  11.761
 8019W        W12070   7.659   7.106  10.206
 8020W        W12071   9.415   0.862   3.006
 8021W        W12072   6.434   2.418   9.757
 8022W        W12073   7.656  10.380   2.178
 8023W        W12074   9.057   8.783   9.370
 8024W        W12075   8.624   3.357   0.838
 8025W        W12076   3.589   6.049  11.158
 8026W        W12077   7.042   2.750   3.275
 8027W        W12078   7.918   9.426   1.319
 8028W        W12079   0.313  10.020   2.710
 8029W        W12080   8.235  10.340   3.563
 8030W        W12081   1.811   1.163  10.843
 8031W        W12082   1.791   0.851  10.423
 8032W        W12083   5.135   4.449   8.728
 8033W        W12084   8.853  10.387   2.734
 8034W        W12085   0.873   6.247   3.424
 8035W        W12086   7.491   8.827  11.867
 8036W        W12087   5.976   2.032   3.710
 8037W        W12088   4.235  10.047   9.737
 8038W        W12089  11.344   0.775   0.465
 8039W        W12090   1.813   5.994   1.692
 8040W        W12091   6.394   2.875  10.781
 8041W        W12092   1.757   0.964   1.063
 8042W        W12093   0.342   7.194  10.291
 8043W        W12094   0.809   9.875   2.571
 8044W        W12095   8.416   5.526   0.281
 8045W        W12096   0.796   5.074   0.743
 8046W        W12097   6.411  10.334   2.835
 8047W        W12098   1.761   5.016   3.594
 8048W        W12099  11.101   2.632   3.556
 8049W        W12100   7.882   4.109  10.590
 8050W        W12101   9.492   5.355   8.656
 8051W        W12102   1.169   4.033   8.944
 8052W        W12103   9.450   5.611   2.357
 8053W        W12104   6.066  11.346  11.711
 8054W        W12105   0.864   6.859   0.936
 8055W        W12106   6.053   1.184  11.751
 8056W        W12107   8.191   1.424  10.436
 8057W        W12108   4.764   1.492   0.457
 8058W        W12109   3.701   2.156  10.587
 8059W        W12110   6.984   3.172   1.471
 8060W        W12111  11.069   2.265   3.118
 8061W        W12112   1.325   0.318  11.706
 8062W        W12113   0.889   4.258   0.136
 8063W        W12114   7.509   3.109   9.969
 8064W        W12115   9.860   7.183   9.452
 8065W        W12116  10.546   3.308  10.464
 8066W        W12117   0.821   7.504   0.299
 8067W        W12118   6.880   0.266   1.799
 8068W        W12119  11.069   8.096   2.202
 8069W        W12120   4.838   4.643   9.911
 8070W        W12121   4.315   1.286  11.498
 8071W        W12122  10.460   1.861  10.081
 8072W        W12123   1.182   7.055   3.452
 8073W        W12124   9.853   4.709  11.680
 8074W        W12125   3.130  10.507  11.634
 8075W        W12126   0.052   3.823  11.850
 8076W        W12127   3.813   6.632   3.832
 8077W        W12128   8.602   4.624   0.489
 8078W        W12129   1.897   1.779  11.479
 8079W        W12130   0.009  11.253   0.497
 8080W        W12131   1.237   3.246  10.862
 8081W        W12132   7.926   0.741  11.938
 8082W        W12133   9.593   7.678   9.464
 8083W        W12134   9.258   4.334   2.076
 8084W        W12135   6.096   1.294   9.498
 8085W        W12136   8.750   7.120   0.755
 8086W        W12137   4.936   1.223  11.025
 8087W        W12138   8.229   4.306   9.035
 8088W        W12139   8.888   0.335  10.548
 8089W        W12140   1.933  10.381  10.022
 8090W        W12141   5.490  10.539  11.198
 8091W        W12142   9.019   7.355   0.386
 8092W        W12143   8.276   9.543   0.523
 8093W        W12144   8.959   1.668  10.293
 8094W        W12145   0.382   5.100  11.243
 8095W        W12146   6.643  10.769   2.728
 8096W        W12147   5.992   5.490   0.232
 8097W        W12148   2.343   1.454   1.447
 8098W        W12149   0.777   2.774   0.299
 8099W        W12150   5.944   3.675   9.784
 8100W        W12151   3.597   5.069   2.765
 8101W        W12152   9.502   2.432   9.196
 8102W        W12153  11.382   7.121   2.645
 8103W        W12154   7.534   0.087  10.768
 8104W        W12155   0.278   1.768   2.818
 8105W        W12156   8.873   1.636   3.422
 8106W        W12157   7.035   1.168   1.666
 8107W        W12158   8.321   6.182   2.425
 8108W        W12159   6.956   8.572   0.068
 8109W        W12160  10.494  10.574  10.571
 8110W        W12161   9.134  10.353   9.884
 8111W        W12162   1.516   5.119   1.211
 8112W        W12163   6.851   5.924  10.888
 8113W        W12164   6.919   4.193  10.496
 8114W        W12165   1.848   2.665  10.403
 8115W        W12166   4.651   2.701  10.130
 8116W        W12167   6.482   9.997  10.488
 8117W        W12168   2.459   0.331   9.947
 8118W        W12169   3.739  10.267   3.413
 8119W        W12170   3.036   9.288   0.772
 8120W        W12171  11.104   0.744  10.444
 8121W        W12172   0.446   5.298   1.970
 8122W        W12173   3.587   5.753  10.305
 8123W        W12174   1.723   5.555   3.536
 8124W        W12175   5.223   2.124  10.563
 8125W        W12176   0.238   8.983  11.130
 8126W        W12177   8.121   7.370  10.431
 8127W        W12178   5.821   0.006   1.805
 8128W        W12179   5.957   0.785   9.819
 8129W        W12180   2.364   1.199  10.840
 8130W        W12181   1.735   3.860  11.880
 8131W        W12182   4.615   9.930   0.520
 8132W        W12183   9.410   3.320  10.260
 8133W        W12184   3.672   6.126   1.498
 8134W        W12185   2.913  11.057   0.572
 8135W        W12186   2.700   7.467  10.718
 8136W        W12187   6.048   1.780   3.262
 8137W        W12188   6.173   1.812   8.566
 8138W        W12189   2.025  10.462   2.310
 8139W        W12190   9.358  10.021   3.384
 8140W        W12191  10.448   9.882   9.081
 8141W        W12192   5.685   2.345  11.789
 8142W        W12193   6.778  10.380   0.210
 8143W        W12194   3.067   4.271   3.309
 8144W        W12195   9.993  11.016   1.793
 8145W        W12196   7.354   0.274   2.023
 8146W        W12197   7.774   6.229  11.043
 8147W        W12198   4.285   8.116  11.922
 8148W        W12199   6.402  11.270   9.550
 8149W        W12200   3.176   5.584   9.990
 8150W        W12201   5.379  10.280   9.256
 8151W        W12202   5.787   7.941   0.920
 8152W        W12203   0.619   6.654  10.042
 8153W        W12204   2.792   7.554   8.830
 8154W        W12205   2.116  10.474  11.570
 8155W        W12206   1.526   2.247   9.704
 8156W        W12207   1.455   3.838  10.201
 8157W        W12208   3.770   4.957   9.854
 8158W        W12209   7.997   3.550  11.988
 8159W        W12210   5.448  11.100   2.629
 8160W        W12211   7.913   6.736  11.023
 8161W        W12212   6.637  11.316   9.991
 8162W        W12213   8.386   6.226   1.914
 8163W        W12214  10.458   3.026   8.547
 8164W        W12215  10.817   5.814   9.572
 8165W        W12216  10.431   3.102   1.681
 8166W        W12217   7.764   3.170   0.789
 8167W        W12218   5.177   7.035   0.793
 8168W        W12219   0.434   9.801   9.165
 8169W        W12220   4.989   0.493   2.714
 8170W        W12221   1.807   1.826   3.525
 8171W        W12222   6.050   4.784  11.244
 8172W        W12223   3.734   9.324  10.737
 8173W        W12224   1.234   4.962  11.228
 8174W        W12225   9.848  11.214   2.263
 8175W        W12226   5.339  10.795   9.479
 8176W        W12227   9.874   9.948   0.881
 8177W        W12228   7.642  11.007   1.827
 8178W        W12229   3.769   0.867   2.211
 8179W        W12230   4.142   9.583   1.748
 8180W        W12231   4.091  10.491   8.816
 8181W        W12232   5.836  11.308   1.295
 8182W        W12233  10.115   0.815   1.665
 8183W        W12234   1.047   0.027   0.049
 8184W        W12235  11.479  10.423   0.711
 8185W        W12236   2.335   5.425  11.547
 8186W        W12237  10.385   9.954  10.111
 8187W        W12238   0.973  10.893  10.791
 8188W        W12239  10.477   8.626   9.621
 8189W        W12240   4.282   3.172   1.238
 8190W        W12241   9.068   6.049  10.892
 8191W        W12242   9.385   4.870   8.802
 8192W        W12243  10.969   7.774   9.982
 8193W        W12244   8.950   4.115   8.371
 8194W        W12245   1.315   6.609   1.653
 8195W        W12246   6.039   8.371   9.879
 8196W        W12247   9.127   4.657   9.593
 8197W        W12248   8.180   2.783   9.470
 8198W        W12249   7.719   2.998   1.275
 8199W        W12250   3.340   1.427   1.464
 8200W        W12251   7.000   9.189   9.575
 8201W        W12252   0.819   9.081   8.697
 8202W        W12253   6.156   8.724   0.370
 8203W        W12254   1.474  10.972  10.734
 8204W        W12255   1.788   3.728   2.102
 8205W        W12256   4.860   3.347   3.199
 8206W        W12257  11.451   9.334   2.277
 8207W        W12258   2.684  11.484   0.719
 8208W        W12259   1.427   8.072   0.573
 8209W        W12260   6.862   3.516   2.745
 8210W        W12261   5.651   2.228   0.727
 8211W        W12262   9.788   4.281   9.527
 8212W        W12263   3.311   6.274  11.546
 8213W        W12264   4.003   2.271  10.970
 8214W        W12265   9.364   3.634   0.479
 8215W        W12266   7.491   7.133  11.128
 8216W        W12267   2.048   9.579   2.522
 8217W        W12268   2.947   7.980   8.528
 8218W        W12269   6.663   5.294  11.564
 8219W        W12270  10.923   8.982  11.503
 8220W        W12271   2.683   3.718   2.555
 8221W        W12272   5.079   9.333   1.037
 8222W        W12273   4.560   6.374   8.302
 8223W        W12274  10.107   3.262  11.391
 8224W        W12275   7.918   2.671   0.835
 8225W        W12276   9.404   9.677  11.342
 8226W        W12277  10.438   1.906   0.216
 8227W        W12278   9.649   3.789  10.376
 8228W        W12279   8.414   3.223  11.378
 8229W        W12280  10.841   1.840   1.361
 8230W        W12281   2.522   6.159  11.918
 8231W        W12282   4.274   8.791   2.105
 8232W        W12283   0.373   4.545   1.214
 8233W        W12284   0.713   7.654  11.811
 8234W        W12285   4.533   0.271   2.839
 8235W        W12286   9.077   5.914   1.410
 8236W        W12287   0.425  10.387   3.228
 8237W        W12288   0.749   2.829   8.962
 8238W        W12289   9.127   0.753   8.883
 8239W        W12290   5.312   8.446   2.119
 8240W        W12291  10.328   2.689   1.954
 8241W        W12292  10.472  10.582   0.064
 8242W        W12293   4.974   6.696   8.693
 8243W        W12294   1.269   9.301  10.556
 8244W        W12295   2.637   6.049   2.805
 8245W        W12296   6.368   4.086   1.803
 8246W        W12297   1.650   0.367  10.433
 8247W        W12298   9.608   4.648   1.882
 8248W        W12299   5.722   0.455  10.134
 8249W        W12300   7.126  11.492   0.890
 8250W        W12301   1.474   6.560  10.285
 8251W        W12302   5.922   2.099   9.055
 8252W        W12303   9.036   2.940  11.818
 8253W        W12304   4.337   8.586   1.633
 8254W        W12305  10.399   0.975   0.482
 8255W        W12306   3.163   0.936   3.523
 8256W        W12307   4.394   3.594  11.945
 8257W        W12308   3.688   4.111  11.398
 8258W        W12309   0.187  10.343  11.902
 8259W        W12310   8.493  11.430  11.711
 8260W        W12311   6.498   4.820   1.393
 8261W        W12312   2.418   0.298  10.849
 8262W        W12313  10.556   6.579   3.489
 8263W        W12314   1.536   5.082   0.302
 8264W        W12315  10.992   7.988   1.238
 8265W        W12316   2.663   0.972   2.735
 8266W        W12317   6.603   1.072   2.906
 8267W        W12318   5.567   7.596  10.413
 8268W        W12319   8.372   5.717  10.550
 8269W        W12320   9.409   9.139   9.427
 8270W        W12321   5.218   4.255   9.949
 8271W        W12322   4.093   0.975   0.718
 8272W        W12323  10.627   5.117  10.417
 8273W        W12324  10.430  11.479   0.226
 8274W        W12325   8.990   0.812  10.299
 8275W        W12326   2.264   6.161   0.964
 8276W        W12327   1.830   4.104  11.434
 8277W        W12328   6.954   7.503   2.312
 8278W        W12329   1.051   7.527   9.839
 8279W        W12330   2.622   6.911  11.704
 8280W        W12331   3.085   6.286   2.883
 8281W        W12332  11.023  10.821   1.202
 8282W        W12333   9.852   3.675   9.041
 8283W        W12334   8.778   6.361  11.219
 8284W        W12335   6.049   4.143   1.426
 8285W        W12336   0.313   6.018   3.607
 8286W        W12337   5.010   2.182  11.042
 8287W        W12338  10.762   0.394  10.312
 8288W        W12339   8.317   5.787   8.895
 8289W        W12340   4.806   4.877  11.482
 8290W        W12341   4.660   7.492   1.383
 8291W        W12342   2.245   4.171  11.103
 8292W        W12343   7.262   5.098   0.289
 8293W        W12344   9.369   7.250   9.289
 8294W        W12345   6.854  10.062   8.618
 8295W        W12346   7.119   2.884  11.255
 8296W        W12347   1.877   0.055   1.469
 8297W        W12348   9.646  11.217   0.678
 8298W        W12349   4.406   7.022  11.320
 8299W        W12350   8.912   5.602   0.400
 8300W        W12351  11.235   6.221   0.986
 8301W        W12352   5.504   8.899  11.646
 8302W        W12353   7.458   5.278  11.443
 8303W        W12354   7.396   9.290  10.961
 8304W        W12355   1.025   9.063   0.913
 8305W        W12356   0.175   3.541   1.086
 8306W        W12357   8.122   5.191  11.982
 8307W        W12358  10.324   4.735   0.478
 8308W        W12359   5.922  11.428   0.796
 8309W        W12360   5.674   4.682   8.772
 8310W        W12361   5.501   3.852  11.863
 8311W        W12362   2.831   8.779  10.571
 8312W        W12363   5.199   4.582   2.727
 8313W        W12364  10.420   2.926   0.372
 8314W        W12365   3.854   5.383   2.071
 8315W        W12366  10.347  10.140  11.837
 8316W        W12367   3.354   3.891   0.518
 8317W        W12368   6.645   0.270   9.723
 8318W        W12369  10.914   8.093   9.557
 8319W        W12370   2.380  11.028   9.580
 8320W        W12371   6.481   8.517   0.728
 8321W        W12372   5.066   6.097  10.848
 8322W        W12373   8.238   4.878  10.966
 8323W        W12374   9.284   6.173   0.984
 8324W        W12375   7.552  10.780   8.706
 8325W        W12376   3.334   5.484   2.953
 8326W        W12377   9.889   1.215  10.031
 8327W        W12378   2.787   2.837   2.455
 8328W        W12379   4.403  10.363   1.494
 8329W        W12380   9.517   8.031   1.300
 8330W        W12381   3.915   6.578   0.763
 8331W        W12382   3.373   5.693   8.286
 8332W        W12383   6.934   6.129   0.746
 8333W        W12384   0.818   5.080   9.547
 8334W        W12385   9.779   6.191   1.868
 8335W        W12386   1.356   0.472   9.540
 8336W        W12387   5.100   8.145   0.490
 8337W        W12388  10.469   4.445   1.890
 8338W        W12389   9.482  11.469  10.259
 8339W        W12390   8.896  10.427   1.648
 8340W        W12391   1.947   6.635  10.508
 8341W        W12392   8.978   2.557   9.918
 8342W        W12393   8.520   9.860   9.323
 8343W        W12394  10.705   3.724  10.165
 8344W        W12395   3.250   0.539   3.229
 8345W        W12396   0.844   2.346   2.776
 8346W        W12397   9.252   8.421   3.573
 8347W        W12398   6.173   9.327  11.755
 8348W        W12399   1.100  11.413   2.274
 8349W        W12400   5.210   3.609   3.504
 8350W        W12401   0.231   9.086   2.617
 8351W        W12402   5.714   1.248   9.858
 8352W        W12403   1.706   4.550  10.081
 8353W        W12404   5.717   0.261   3.389
 8354W        W12405   4.534   2.727   9.146
 8355W        W12406   1.752   9.428  10.532
 8356W        W12407   7.678   6.480   3.381
 8357W        W12408   9.287   9.372   8.979
 8358W        W12409   5.078   4.575   1.736
 8359W        W12410   3.272   6.181   9.319
 8360W        W12411   7.809   4.602  11.246
 8361W        W12412   3.823   5.773   0.706
 8362W        W12413   1.242   5.891   3.488
 8363W        W12414   7.079   2.662  11.975
 8364W        W12415   1.778   7.360   3.968
 8365W        W12416   4.670   8.870  10.496
 8366W        W12417   9.084   1.666   1.945
 8367W        W12418   8.346   4.348   0.862
 8368W        W12419   2.671   0.222   1.692
 8369W        W12420  10.502   8.663   3.171
 8370W        W12421   1.437   7.136   2.412
 8371W        W12422   2.381   4.854   2.808
 8372W        W12423  10.459   5.798   9.964
 8373W        W12424   4.224   4.273   8.801
 8374W        W12425   2.000   4.617   1.043
 8375W        W12426   5.105   7.204   1.378
 8376W        W12427   2.374   1.860   2.202
 8377W        W12428   8.905   5.075  10.306
 8378W        W12429   4.078   5.302  10.099
 8379W        W12430   8.350   3.849   2.348
 8380W        W12431   9.369   9.325  10.931
 8381W        W12432   4.801   7.750   0.568
 8382W        W12433   1.326   4.633   1.209
 8383W        W12434   8.529   9.577  11.533
 8384W        W12435   2.280   1.479   3.481
 8385W        W12436   3.256   0.126   2.930
 8386W        W12437   7.504   8.503   9.343
 8387W        W12438   1.360   7.090  10.020
 8388W        W12439   8.536   0.315  11.391
 8389W        W12440   7.176  11.311   1.819
 8390W        W12441  11.436   4.805   9.061
 8391W        W12442   0.277   9.886  10.163
 8392W        W12443   5.068   1.675  10.762
 8393W        W12444   1.923   6.146   8.926
 8394W        W12445   7.174   0.022   9.075
 8395W        W12446   7.405   4.344  10.597
 8396W        W12447   2.780   3.282   9.240
 8397W        W12448   6.209   2.869   0.445
 8398W        W12449   8.473   0.168   0.969
 8399W        W12450   2.160   0.423  11.300
 8400W        W12451   3.295   3.849   9.638
 8401W        W12452   6.404   3.348  10.618
 8402W        W12453   0.350   9.519   1.976
 8403W        W12454   0.933   5.994   1.662
 8404W        W12455   1.344   0.976   9.583
 8405W        W12456   1.362   5.076  10.726
 8406W        W12457   7.519   0.265   9.654
 8407W        W12458   3.749   8.523   8.725
 8408W        W12459   4.190  10.937   0.741
 8409W        W12460   9.194   1.346   0.684
 8410W        W12461   2.354   5.273   2.490
 8411W        W12462   2.734   8.037   3.177
 8412W        W12463   6.155   3.461  11.138
 8413W        W12464   4.148   0.874   9.161
 8414W        W12465   5.989   7.243   3.176
 8415W        W12466  10.547   6.016  11.810
 8416W        W12467   3.355  11.398   8.712
 8417W        W12468   7.501   8.605   1.834
 8418W        W12469   1.223  10.444   0.507
 8419W        W12470   6.553   9.598  11.512
 8420W        W12471   9.106   2.456   0.698
 8421W        W12472   3.111   0.668  11.035
 8422W        W12473   8.588   0.716   9.005
 8423W        W12474   1.584   7.635   2.280
 8424W        W12475  11.488   6.520  10.571
 8425W        W12476   7.690   1.804   1.982
 8426W        W12477   7.175   1.208  11.762
 8427W        W12478   4.679   2.850   3.567
 8428W        W12479   6.799   0.377   8.970
 8429W        W12480   2.755   7.393   9.821
 8430W        W12481   0.383   4.987  10.731
 8431W        W12482  10.832  11.418  10.513
 8432W        W12483   1.285   3.266   3.129
 8433W        W12484  10.854   0.840   9.569
 8434W        W12485   8.436   2.464   9.077
 8435W        W12486   1.360   6.214   1.975
 8436W        W12487   7.826   6.085   8.849
 8437W        W12488   9.908   7.200   1.905
 8438W        W12489   9.524   3.892   8.594
 8439W        W12490   6.361   2.041   4.085
 8440W        W12491   2.908   8.415  11.902
 8441W        W12492   9.378   1.663   3.449
 8442W        W12493  10.841  10.096   0.908
 8443W        W12494   3.159   6.667   2.567
 8444W        W12495   4.830  10.313   1.819
 8445W        W12496   3.232  10.057   9.860
 8446W        W12497   5.988  11.000   1.956
 8447W        W12498   3.158   0.322   0.978
 8448ION    NA+12499   2.206   0.089   1.887
 8449ION    NA+12500   3.670   7.538   1.100
 8450ION    NA+12501   9.644   3.931  11.235
 8451ION    NA+12502   3.115   8.831   1.558
 8452ION    NA+12503   9.441   4.676  10.600
 8453ION    NA+12504   2.251   6.602   2.142
 8454ION    NA+12505   4.800   3.792  11.702
 8455ION    NA+12506   7.503   1.263   3.666
 8456ION    NA+12507   0.010   8.486  10.400
 8457ION    NA+12508   6.167   8.187   2.195
 8458ION    NA+12509   9.563   8.367  11.881
 8459ION    NA+12510   9.485   6.084   0.209
 8460ION    NA+12511   3.380   5.713   1.649
 8461ION    NA+12512   9.309   0.926  11.704
 8462ION    NA+12513   5.243   4.977   2.068
 8463ION    NA+12514  11.436   5.205  10.616
 8464ION    NA+12515   7.400   3.522   2.169
 8465ION    NA+12516   7.965  10.511   9.348
 8466ION    NA+12517   0.106   7.354   8.938
 8467ION    NA+12518   9.430   6.458   9.554
 8468ION    NA+12519   2.140   8.170   9.738
 8469ION    NA+12520   7.611   2.176   8.810
 8470ION    NA+12521   8.090   2.598   3.863
 8471ION    NA+12522   8.858  10.966   9.492
 8472ION    NA+12523   5.238   6.353  11.295
 8473ION    NA+12524   0.535   7.514   9.721
 8474ION    NA+12525   9.113  10.666   0.782
 8475ION    NA+12526   3.840   4.008  10.159
 8476ION    NA+12527   9.379   7.739  11.252
 8477ION    NA+12528   3.920   2.177   1.712
 8478ION    NA+12529   4.775   0.906   2.120
 8479ION    NA+12530   1.258   5.056  11.795
 8480ION    NA+12531   0.982  11.187   8.909
 8481ION    NA+12532   8.779   8.379  11.731
 8482ION    NA+12533   0.871   4.002   3.058
 8483ION    NA+12534   7.033   1.396   2.793
 8484ION    NA+12535   5.075   2.098  11.949
 8485ION    NA+12536   4.155   0.731  10.405
 8486ION    NA+12537  10.577   0.086   1.473
 8487ION    NA+12538   5.602   7.570   2.436
 8488ION    NA+12539  11.181   0.536   2.669
 8489ION    NA+12540   4.238   3.955   0.595
 8490ION    NA+12541   6.019   9.437   2.521
 8491ION    NA+12542   3.210   2.366   0.424
 8492ION    NA+12543   1.499   2.214   8.871
 8493ION    NA+12544   3.049   8.912  11.851
 8494ION    NA+12545   4.182   1.771   2.588
 8495ION    NA+12546   8.545   6.826   9.841
 8496ION    NA+12547   7.516   9.562   1.020
 8497ION    NA+12548   7.424   0.857   0.079
 8498ION    NA+12549   1.841   4.128   1.289
 8499ION    NA+12550   7.957   6.373  10.583
 8500ION    NA+12551   3.084   5.820   2.622
 8501ION    NA+12552   5.400   1.539   2.176
 8502ION    NA+12553   0.243   4.390  11.693
 8503ION    NA+12554   3.053   8.287   0.858
 8504ION    NA+12555   7.092   1.699   1.649
 8505ION    NA+12556   3.071  11.033   8.003
 8506ION    NA+12557   8.188   1.084   2.898
 8507ION    NA+12558   4.042   8.437   0.870
 8508ION    NA+12559   9.274   0.047   0.930
 8509ION    NA+12560   3.568   2.081   3.641
 8510ION    NA+12561   5.366  10.108  11.413
 8511ION    NA+12562   7.957   5.108   3.163
 8512ION    NA+12563  11.373   7.925  11.970
 8513ION    NA+12564   9.333   0.753   9.924
 8514ION    NA+12565  11.426  11.070  11.982
 8515ION    NA+12566  11.060   6.511  10.183
 8516ION    NA+12567   5.754   2.817   9.539
 8517ION    NA+12568   6.652   9.172   8.780
 8518ION    NA+12569   1.002   5.093   1.224
 8519ION    NA+12570   7.547   0.237  11.304
 8520ION    NA+12571   0.422   0.386   9.121
 8521ION    NA+12572   2.338   7.768   8.558
 8522ION    NA+12573   8.988   3.300   0.444
 8523ION    NA+12574   9.613   1.547   2.435
 8524ION    NA+12575  10.453   7.667   9.866
 8525ION    NA+12576  10.517   4.153   0.742
 8526ION    NA+12577   7.411   8.726   8.888
 8527ION    NA+12578   0.571   1.521  11.484
 8528ION    NA+12579   9.758  10.122  11.154
 8529ION    NA+12580  10.332  11.015   0.388
 8530ION    NA+12581   9.555   1.484   9.276
 8531ION    NA+12582   0.060   1.855  10.730
 8532ION    NA+12583   8.601   4.534   2.656
 8533ION    NA+12584   1.809  11.208   0.430
 8534ION    NA+12585   2.664   3.418  10.337
 8535ION    NA+12586   8.495   0.179   9.870
 8536ION    NA+12587   5.123   3.373   8.277
 8537ION    CL-12588   2.814   4.610   2.953
 8538ION    CL-12589   4.682   3.248   8.282
 8539ION    CL-12590   0.395   2.373   3.528
 8540ION    CL-12591   1.213  11.342  11.531
 8541ION    CL-12592  10.028   4.154   3.510
 8542ION    CL-12593  11.138  11.425  10.916
 8543ION    CL-12594   5.810  10.114  11.363
 8544ION    CL-12595   9.144   3.745  10.384
 8545ION    CL-12596   9.482  10.481  11.213
 8546ION    CL-12597   0.093   0.594  10.323
 8547ION    CL-12598   2.810   5.113  11.761
 8548ION    CL-12599   5.041   1.273   2.104
 8549ION    CL-12600   3.520  10.705   3.606
 8550ION    CL-12601  11.237   4.085   1.540
 8551ION    CL-12602   1.505   7.652  11.357
 8552ION    CL-12603   0.370   1.532  10.866
 8553ION    CL-12604   6.392   9.302   2.314
 8554ION    CL-12605   0.321  10.504  10.897
 8555ION    CL-12606   4.575   3.956  10.350
 8556ION    CL-12607   6.232   9.339  10.152
 8557ION    CL-12608   0.719   0.036   9.098
 8558ION    CL-12609   2.659   2.199  10.856
 8559ION    CL-12610   7.714   1.729   8.781
 8560ION    CL-12611   9.516   1.913   2.189
 8561ION    CL-12612   9.056   1.198  11.456
 8562ION    CL-12613   0.859   8.789  11.563
 8563ION    CL-12614   8.300   0.683   2.732
 8564ION    CL-12615   9.331  10.930   3.588
 8565ION    CL-12616  11.462   0.877   2.696
 8566ION    CL-12617   8.271   4.620  11.447
 8567ION    CL-12618   2.507   9.845   9.468
 8568ION    CL-12619   8.608   3.076   0.385
 8569ION    CL-12620   9.383   2.891   9.921
 8570ION    CL-12621   4.771   7.232   2.914
 8571ION    CL-12622   9.149   8.591  11.936
 8572ION    CL-12623   8.577   8.124  11.403
 8573ION    CL-12624   6.104   7.408   0.237
 8574ION    CL-12625  10.533   2.160   3.095
 8575ION    CL-12626  11.227   9.424   0.743
 8576ION    CL-12627   1.820   4.944   4.097
 8577ION    CL-12628   0.523   1.835  11.807
 8578ION    CL-12629   8.616  11.266   9.727
 8579ION    CL-12630   1.924  10.180   3.405
 8580ION    CL-12631   8.554   2.122  11.014
 8581ION    CL-12632  11.445   1.433   0.517
 8582ION    CL-12633   2.753  11.066   3.074
 8583ION    CL-12634   8.067   7.909  10.438
 8584ION    CL-12635  10.068   9.846  10.963
 8585ION    CL-12636   4.172   0.053   8.373
 8586ION    CL-12637   0.310   6.751   1.637
 8587ION    CL-12638   5.787   7.972   2.327
 8588ION    CL-12639   7.393   7.078   1.692
 8589ION    CL-12640   1.296   2.244   9.269
 8590ION    CL-12641   9.698   3.489  11.177
 8591ION    CL-12642   5.867  10.367  10.040
 8592ION    CL-12643   2.079  11.080   8.710
 8593ION    CL-12644   4.087   4.072   1.001
 8594ION    CL-12645   0.401  10.521   0.968
 8595ION    CL-12646   3.087   8.490   1.263
 8596ION    CL-12647   9.188  11.105   0.873
 8597ION    CL-12648  10.378   3.943   2.032
 8598ION    CL-12649  10.827   1.193  10.559
 8599ION    CL-12650   4.743   7.843   1.739
 8600ION    CL-12651   5.613   3.235  11.293
 8601ION    CL-12652  10.514   7.008   0.464
 8602ION    CL-12653   2.740   3.839  10.464
 8603ION    CL-12654   4.827   1.306   8.908
 8604ION    CL-12655  11.467   7.733   8.443
 8605ION    CL-12656   6.930   9.286  11.261
 8606ION    CL-12657   9.851   8.550   9.839
 8607ION    CL-12658   5.949   7.011   9.794
 8608ION    CL-12659   4.252   0.550  10.009
 8609ION    CL-12660   9.553   8.002  11.580
 8610ION    CL-12661   0.306   7.442   9.337
 8611ION    CL-12662   8.072   7.363   2.802
 8612ION    CL-12663   1.656   6.530   9.420
 8613ION    CL-12664   6.984   8.856   8.771
 8614ION    CL-12665   2.126  10.908   0.339
 8615ION    CL-12666   9.595   4.386   2.468
 8616ION    CL-12667   5.497   6.021  11.146
 8617ION    CL-12668   4.834   5.243  10.819
 8618ION    CL-12669   7.076   0.678   0.295
 8619ION    CL-12670   0.611   8.098   3.176
 8620ION    CL-12671  11.190   2.119  10.665
 8621ION    CL-12672   4.216   9.611   0.494
 8622ION    CL-12673   0.997  10.086   9.133
 8623ION    CL-12674   6.508   4.445  11.962
 8624ION    CL-12675   0.461   8.587   1.466
 8625ION    CL-12676   6.754   7.565  10.091
  11.50000  11.50000  12.00000
