Protein in INSANE! Membrane UpperLeaflet>POPC=1.0 LowerLeaflet>POPC=1.0
11530
    1AU     AUC    1   7.057   1.698   5.710 -0.0388 -0.0705  0.0457
    1AU     AUC    2   7.020   1.548   5.670  0.0021  0.0182  0.0743
    1AU     AUC    3   7.120   1.578   5.826 -0.0955 -0.0305 -0.0138
    1AU     AUC    4   7.034   1.844   5.611  0.0300  0.0083  0.0480
    1AU     AUC    5   7.153   1.846   5.795 -0.0149  0.0174  0.0095
    1AU     AUC    6   7.178   1.785   5.635 -0.1141 -0.0086  0.0264
    1AU     AUC    7   7.193   1.621   5.646 -0.0223  0.0459  0.0730
    1AU     AUC    8   6.931   1.784   5.773  0.0586 -0.0558  0.0166
    1AU     AUC    9   6.954   1.650   5.801  0.0561 -0.0296 -0.0806
    1AU     AUC   10   7.071   1.740   5.883 -0.0598  0.0716 -0.0287
    1AU     AUC   11   7.221   1.719   5.788  0.0686  0.0213 -0.0650
    1AU     AUC   12   6.919   1.685   5.644  0.0002 -0.0595  0.0473
    1AU     AUC   13   7.066   1.693   5.541  0.0114  0.0444  0.0173
    1AU     AUC   14   6.996   1.417   5.639 -0.0982 -0.0381 -0.0461
    1AU     AUC   15   7.062   1.397   5.745 -0.0462  0.0379 -0.0023
    1AU     AUC   16   7.164   1.461   5.888  0.0753  0.0345 -0.1187
    1AU     AUC   17   7.000   1.976   5.559 -0.0060 -0.0401 -0.0742
    1AU     AUC   18   7.095   2.037   5.714 -0.0125 -0.0152 -0.0647
    1AU     AUC   19   7.155   1.991   5.850  0.0212  0.0231  0.0612
    1AU     AUC   20   7.308   1.892   5.564 -0.1338  0.0559  0.0084
    1AU     AUC   21   7.341   1.758   5.540 -0.0291  0.0453  0.0630
    1AU     AUC   22   7.293   1.534   5.568  0.0144 -0.0429 -0.1242
    1AU     AUC   23   6.819   1.892   5.800  0.0407 -0.0292  0.0236
    1AU     AUC   24   6.797   1.756   5.876  0.0005  0.0282 -0.0348
    1AU     AUC   25   6.846   1.539   5.889  0.0315 -0.0152 -0.0022
    1AU     AUC   26   7.054   1.747   6.044 -0.0823 -0.0128  0.0274
    1AU     AUC   27   7.222   1.718   6.040 -0.0604  0.0270  0.0284
    1AU     AUC   28   7.375   1.694   5.872  0.0318  0.0166 -0.0635
    1AU     AUC   29   6.789   1.666   5.562 -0.0433  0.0940  0.0223
    1AU     AUC   30   6.931   1.660   5.425 -0.0934  0.0281 -0.0013
    1AU     AUC   31   7.064   1.638   5.394  0.0662 -0.0109 -0.0448
    1AU     AUC   32   7.169   1.537   5.992 -0.0162  0.0870 -0.0098
    1AU     AUC   33   7.307   1.583   5.892 -0.0238  0.0267  0.0105
    1AU     AUC   34   6.843   1.507   5.590 -0.0001  0.0811 -0.0598
    1AU     AUC   35   7.021   1.513   5.465 -0.0952 -0.0028  0.0200
    1AU     AUC   36   7.066   1.910   5.957  0.0203 -0.0206 -0.0176
    1AU     AUC   37   7.309   1.880   5.871  0.0952  0.0178 -0.1516
    1AU     AUC   38   6.858   1.921   5.527 -0.0179  0.0256 -0.1229
    1AU     AUC   39   7.026   1.832   5.417 -0.0186  0.0187 -0.0693
    1AU     AUC   40   7.136   1.438   5.600 -0.0104 -0.0234 -0.0185
    1AU     AUC   41   7.284   1.453   5.738  0.1121 -0.0245 -0.0237
    1AU     AUC   42   7.150   1.966   5.539 -0.0092  0.1201 -0.0011
    1AU     AUC   43   7.253   1.978   5.727 -0.0059 -0.0313 -0.0719
    1AU     AUC   44   6.873   1.476   5.813  0.0146  0.1482  0.0013
    1AU     AUC   45   7.035   1.470   5.929  0.0252  0.0308 -0.0329
    1AU     AUC   46   6.920   1.982   5.707  0.0127 -0.0121 -0.0806
    1AU     AUC   47   6.976   2.031   5.822 -0.0372  0.0456 -0.0622
    1AU     AUC   48   7.420   1.766   5.685 -0.0128 -0.0292  0.0579
    1AU     AUC   49   7.376   1.623   5.780 -0.0431  0.0063  0.0766
    1AU     AUC   50   6.936   1.869   5.979 -0.0691 -0.0154 -0.0018
    1AU     AUC   51   6.946   1.658   6.025  0.0127 -0.0462  0.0829
    1AU     AUC   52   7.220   1.763   5.405 -0.0115  0.0561 -0.0069
    1AU     AUC   53   7.227   1.562   5.480  0.0370 -0.0746  0.1475
    1AU     AUC   54   6.761   1.782   5.653 -0.0612 -0.0080 -0.0280
    1AU     AUC   55   6.705   1.611   5.696  0.0098 -0.0261  0.0470
    1AU    AUSL   56   7.261   1.302   6.191 -0.1300 -0.0478 -0.0294
    1AU    AUSL   57   7.034   1.462   6.298 -0.0567  0.0090  0.0952
    1AU     AUL   58   6.861   1.201   6.008  0.0350  0.0489 -0.0927
    1AU       S   59   6.762   1.356   6.713  0.4498 -0.1107  0.0426
    1AU     LIG   60   7.036   1.047   6.791 -0.0261  0.4525  0.0415
    1AU     LIG   61   7.481   1.039   7.063  0.0185 -0.4979  0.1589
    1AU       S   62   7.414   1.027   6.487  0.1343 -0.2752 -0.0037
    1AU     LIG   63   7.763   0.815   6.552  0.3238 -0.2392 -0.1101
    1AU     LIG   64   8.076   1.059   6.802 -0.0514  0.1520 -0.3684
    1AU    AUSL   65   7.243   1.579   6.153 -0.0348  0.0056 -0.0605
    1AU    AUSL   66   7.327   1.813   6.043  0.0947  0.0745  0.0153
    1AU     AUL   67   6.949   1.718   6.382 -0.0173 -0.0442  0.0437
    1AU       S   68   7.581   1.376   6.607  0.0666 -0.0188  0.2209
    1AU     LIG   69   7.715   1.590   6.936  0.0692  0.0224  0.1013
    1AU     LIG   70   8.120   1.374   7.237 -0.0309  0.0852  0.2428
    1AU       S   71   7.335   2.315   6.803 -0.1351  0.0477  0.4448
    1AU     LIG   72   7.211   2.526   7.166  0.0619  0.1971  0.0528
    1AU     LIG   73   7.192   2.902   7.232 -0.3184 -0.1662  0.1468
    1AU    AUSL   74   7.535   1.656   6.125  0.0340 -0.0321 -0.0219
    1AU    AUSL   75   7.425   1.429   5.992 -0.0170 -0.1009 -0.1165
    1AU     AUL   76   7.243   1.666   6.400  0.0676  0.0224  0.0354
    1AU       S   77   7.884   1.789   6.361 -0.3011  0.1805 -0.1596
    1AU     LIG   78   8.155   1.573   6.494 -0.0160 -0.1553 -0.2187
    1AU     LIG   79   8.445   1.231   6.576 -0.4590 -0.1191  0.1211
    1AU       S   80   7.882   1.134   6.174  0.1768  0.1855  0.3139
    1AU     LIG   81   7.964   0.602   6.113 -0.3044  0.3900  0.0674
    1AU     LIG   82   7.950   0.295   6.284  0.0223 -0.2189  0.0030
    1AU    AUSL   83   6.751   1.288   5.356 -0.0166  0.0668  0.0185
    1AU    AUSL   84   7.222   1.333   5.246  0.0107  0.0231  0.0147
    1AU     AUL   85   6.875   1.527   5.142 -0.0329 -0.0574 -0.0226
    1AU       S   86   6.545   1.068   5.036 -0.3838 -0.5325  0.2302
    1AU     LIG   87   6.776   0.942   4.686 -0.2614  0.1812  0.1327
    1AU     LIG   88   6.817   0.867   4.235 -0.0314  0.1897  0.0338
    1AU       S   89   7.280   1.020   4.978 -0.3636 -0.4802 -0.3302
    1AU     LIG   90   7.611   0.728   5.159  0.0120  0.1606 -0.1442
    1AU     LIG   91   7.673   0.382   5.213 -0.2775 -0.3152  0.0313
    1AU    AUSL   92   6.758   1.576   5.417  0.0609 -0.0522 -0.1408
    1AU    AUSL   93   6.817   1.379   5.612 -0.0043 -0.0007 -0.0305
    1AU     AUL   94   6.709   1.257   5.685 -0.0226  0.0511  0.0137
    1AU       S   95   6.086   0.872   5.688  0.2200 -0.0269  0.0125
    1AU     LIG   96   5.776   1.093   5.703  0.0983 -0.3934 -0.1235
    1AU     LIG   97   5.543   1.452   5.763 -0.1730  0.3779  0.1616
    1AU       S   98   6.424   1.348   4.963  0.1234  0.4456 -0.3755
    1AU     LIG   99   6.111   1.504   4.786  0.3422 -0.0898  0.3578
    1AU     LIG  100   5.663   1.479   4.698  0.0402  0.0873 -0.0673
    1AU    AUSL  101   6.988   1.423   5.361  0.0042 -0.0029  0.1066
    1AU    AUSL  102   6.635   1.796   5.262 -0.0874 -0.0092 -0.2288
    1AU     AUL  103   6.673   1.550   5.329 -0.1013 -0.0199 -0.0311
    1AU       S  104   6.406   1.906   4.973 -0.0215  0.0390  0.3994
    1AU     LIG  105   5.975   1.876   4.999  0.1789 -0.0321  0.1542
    1AU     LIG  106   5.536   2.090   4.892  0.0579  0.0214  0.1091
    1AU       S  107   6.297   1.108   4.954  0.1955 -0.0843 -0.0825
    1AU     LIG  108   6.440   0.622   4.895 -0.0470 -0.0299  0.0363
    1AU     LIG  109   6.815   0.497   4.837 -0.1547 -0.2365  0.1815
    1AU    AUSL  110   7.197   2.043   6.015 -0.0403 -0.0785 -0.0385
    1AU    AUSL  111   7.570   1.807   5.899 -0.0019  0.0369  0.0899
    1AU     AUL  112   7.388   1.847   6.259  0.0151 -0.0087 -0.0345
    1AU       S  113   7.330   2.400   6.501 -0.0301  0.3140 -0.3747
    1AU     LIG  114   7.690   2.753   6.341  0.1919  0.0909 -0.0208
    1AU     LIG  115   8.055   2.885   6.396 -0.3089 -0.3367  0.2430
    1AU       S  116   8.025   2.156   5.920 -0.1585 -0.0092 -0.4784
    1AU     LIG  117   8.489   2.087   5.742  0.2350 -0.0584 -0.2589
    1AU     LIG  118   9.007   2.148   5.806  0.0701  0.1515 -0.1425
    1AU    AUSL  119   7.110   1.876   6.211  0.0247  0.0407 -0.0332
    1AU    AUSL  120   7.004   2.144   6.176 -0.0905 -0.0288  0.0169
    1AU     AUL  121   7.361   2.105   6.102  0.0544 -0.0258  0.0310
    1AU       S  122   6.892   2.531   6.359  0.1284 -0.2774 -0.4519
    1AU     LIG  123   6.798   2.481   6.793  0.3757  0.0522  0.2776
    1AU     LIG  124   6.720   2.263   7.244  0.1756 -0.0539  0.1027
    1AU       S  125   7.200   2.177   6.659 -0.0623 -0.2994  0.3158
    1AU     LIG  126   6.971   2.013   6.872  0.1534 -0.0517 -0.0548
    1AU     LIG  127   6.535   2.040   6.827 -0.2790  0.5081  0.1000
    1AU    AUSL  128   6.738   2.052   5.315  0.0498  0.0376 -0.0405
    1AU    AUSL  129   6.746   1.848   5.508 -0.0210  0.0177 -0.0422
    1AU     AUL  130   6.403   1.948   5.546 -0.0626 -0.0074  0.0672
    1AU       S  131   6.540   2.168   4.962  0.0718 -0.2901 -0.2154
    1AU     LIG  132   6.111   2.346   5.055 -0.1341  0.2987 -0.2838
    1AU     LIG  133   5.779   2.378   5.229  0.3708 -0.1805  0.1393
    1AU       S  134   6.418   2.703   5.220 -0.3213 -0.0398  0.1805
    1AU     LIG  135   6.045   3.044   5.238  0.2102  0.0890  0.0938
    1AU     LIG  136   6.012   3.429   5.012  0.1718  0.0218  0.2795
    1AU    AUSL  137   6.929   1.769   5.320 -0.0447 -0.0213 -0.0226
    1AU    AUSL  138   7.091   2.001   5.372 -0.0071  0.0693 -0.0098
    1AU     AUL  139   6.881   1.800   5.171 -0.0151 -0.0183 -0.0069
    1AU       S  140   6.984   2.354   4.870  0.2496 -0.1273  0.3263
    1AU     LIG  141   6.857   2.816   4.878 -0.1762 -0.0061  0.0274
    1AU     LIG  142   6.319   2.941   4.793  0.0205 -0.1233 -0.0204
    1AU       S  143   6.360   1.932   4.714  0.0044 -0.3782 -0.2551
    1AU     LIG  144   6.176   1.831   4.361 -0.1779  0.1297 -0.3836
    1AU     LIG  145   6.016   1.494   4.278  0.0057  0.4715  0.2563
    1AU    AUSL  146   7.203   1.285   5.522 -0.0112 -0.0268  0.0261
    1AU    AUSL  147   6.962   1.155   5.504  0.0269  0.0478 -0.1017
    1AU     AUL  148   7.393   1.260   5.538  0.0016 -0.0068 -0.0173
    1AU       S  149   7.104   0.798   5.225 -0.2262 -0.2124 -0.0116
    1AU     LIG  150   7.045   0.370   5.284  0.4597  0.0984  0.2831
    1AU     LIG  151   7.075  -0.049   5.301 -0.2711  0.2855 -0.1982
    1AU       S  152   7.568   0.634   5.759  0.2286  0.0380  0.1440
    1AU     LIG  153   7.730   0.309   5.803  0.1944  0.0415  0.2835
    1AU     LIG  154   7.786  -0.041   5.881 -0.0239  0.2140 -0.1873
    1AU    AUSL  155   7.185   1.078   5.698 -0.0528  0.0281 -0.0086
    1AU    AUSL  156   7.153   1.140   5.978  0.0394  0.1814 -0.0528
    1AU     AUL  157   7.547   1.258   5.796 -0.0948 -0.0915  0.0148
    1AU       S  158   7.299   0.679   5.694  0.1137  0.1875  0.1720
    1AU     LIG  159   7.166   0.254   5.810 -0.0636  0.0370  0.0015
    1AU     LIG  160   7.356  -0.233   5.775  0.1032 -0.2514 -0.3140
    1AU       S  161   7.024   0.682   6.098 -0.3013  0.1481 -0.6154
    1AU     LIG  162   7.189   0.562   6.604 -0.0335 -0.2007  0.0671
    1AU     LIG  163   7.386   0.552   7.015  0.2429 -0.2033 -0.0089
    1AU    AUSL  164   7.269   1.312   5.805  0.0384 -0.0809 -0.1217
    1AU    AUSL  165   7.448   1.495   5.670 -0.0048  0.0623 -0.0690
    1AU     AUL  166   7.557   1.493   5.626  0.0292  0.0760 -0.0374
    1AU       S  167   8.084   1.141   6.291  0.2157 -0.2166  0.0031
    1AU     LIG  168   8.572   1.234   6.045 -0.1963 -0.1436  0.3876
    1AU     LIG  169   8.724   1.230   5.674  0.0230 -0.1604  0.3277
    1AU       S  170   7.536   0.745   5.926 -0.0621 -0.1037  0.2220
    1AU     LIG  171   7.452   0.411   6.238  0.0217 -0.5192  0.0038
    1AU     LIG  172   7.143   0.080   6.398  0.0079 -0.4132 -0.0194
    1AU    AUSL  173   7.309   2.041   5.541 -0.0384  0.0119 -0.0541
    1AU    AUSL  174   7.394   1.998   5.824  0.0829 -0.0841 -0.0081
    1AU     AUL  175   7.402   2.165   5.547  0.0623 -0.0402  0.0244
    1AU       S  176   7.819   2.371   6.042 -0.1783  0.0961 -0.0274
    1AU     LIG  177   8.241   2.576   6.094  0.4197 -0.1136 -0.2869
    1AU     LIG  178   8.497   2.860   5.930  0.3369  0.3433 -0.3037
    1AU       S  179   7.695   2.495   5.391 -0.1543 -0.0946 -0.2844
    1AU     LIG  180   7.729   2.925   5.266  0.2896 -0.0274 -0.2288
    1AU     LIG  181   7.794   3.238   5.488  0.2486 -0.3079 -0.0887
    1AU    AUSL  182   7.112   2.211   5.650 -0.0189  0.0275 -0.0059
    1AU    AUSL  183   7.336   2.068   5.273 -0.0168  0.0369  0.0990
    1AU     AUL  184   7.006   2.066   5.260 -0.0460 -0.0508 -0.0196
    1AU       S  185   7.251   2.719   5.565 -0.1441 -0.0586 -0.1506
    1AU     LIG  186   7.268   3.116   5.722  0.2873 -0.1630  0.0387
    1AU     LIG  187   7.410   3.569   5.886  0.2358 -0.1970 -0.1197
    1AU       S  188   7.448   2.434   4.987 -0.0983 -0.1448  0.0236
    1AU     LIG  189   7.724   2.230   4.691 -0.0510  0.3267  0.3075
    1AU     LIG  190   8.169   1.978   4.638 -0.0588 -0.0674 -0.0190
    1AU    AUSL  191   7.301   2.249   5.846 -0.0166 -0.0192  0.0414
    1AU    AUSL  192   6.840   2.299   5.696  0.0982  0.0981  0.0734
    1AU     AUL  193   7.136   2.250   5.452 -0.0288  0.0526 -0.0244
    1AU       S  194   6.744   2.706   5.801 -0.4597 -0.1676  0.0279
    1AU     LIG  195   6.422   2.976   5.686 -0.3839 -0.0034  0.1143
    1AU     LIG  196   6.375   3.494   5.729  0.0246 -0.0622 -0.1007
    1AU       S  197   7.427   2.599   5.971  0.2738 -0.0821  0.0409
    1AU     LIG  198   7.804   2.856   5.862  0.2108  0.2701 -0.0624
    1AU     LIG  199   8.163   2.905   5.561  0.1126 -0.0008 -0.4817
    1AU    AUSL  200   6.823   1.438   5.896 -0.0181  0.0635  0.0128
    1AU    AUSL  201   7.063   1.397   6.027 -0.0231  0.0879 -0.0727
    1AU     AUL  202   6.961   1.197   6.272  0.0364  0.0321 -0.0742
    1AU       S  203   6.619   0.766   6.037 -0.1743  0.1324  0.1190
    1AU     LIG  204   6.253   0.442   5.862 -0.3685 -0.4099 -0.1167
    1AU     LIG  205   6.136   0.107   5.621 -0.1899 -0.1997 -0.0600
    1AU       S  206   6.499   1.214   6.829 -0.0822  0.5128 -0.1954
    1AU     LIG  207   6.179   0.874   6.869 -0.2801 -0.0156  0.3443
    1AU     LIG  208   6.016   0.564   7.076  0.0096  0.2752  0.3585
    1AU    AUSL  209   6.995   1.257   5.769  0.1130 -0.0219 -0.0516
    1AU    AUSL  210   6.586   1.307   5.945  0.0353  0.0629  0.0762
    1AU     AUL  211   6.910   1.076   5.764  0.0943  0.0374  0.1027
    1AU       S  212   6.767   0.653   5.840  0.2830  0.3462  0.1027
    1AU     LIG  213   6.500   0.625   5.428 -0.0980  0.0067  0.0486
    1AU     LIG  214   6.096   0.633   5.293 -0.0434 -0.0744  0.1533
    1AU       S  215   6.234   1.078   5.907  0.0750 -0.3423 -0.6004
    1AU     LIG  216   6.085   0.742   6.174  0.0996  0.0083 -0.3868
    1AU     LIG  217   5.840   0.286   6.238  0.0540 -0.3015 -0.3992
    1AU    AUSL  218   6.836   2.040   5.799  0.0280 -0.0758  0.0279
    1AU    AUSL  219   6.892   2.086   5.528 -0.0366  0.0713  0.0587
    1AU     AUL  220   6.449   2.095   5.789 -0.0030  0.0149 -0.0178
    1AU       S  221   6.736   2.570   5.269 -0.2819 -0.1207 -0.2868
    1AU     LIG  222   6.877   2.963   5.360  0.1885  0.0998 -0.5040
    1AU     LIG  223   6.880   3.484   5.509 -0.1438 -0.0180 -0.0194
    1AU       S  224   6.853   3.008   5.928 -0.0538 -0.0820 -0.0164
    1AU     LIG  225   6.813   3.478   6.021 -0.1351  0.2310 -0.1978
    1AU     LIG  226   6.972   3.878   5.789 -0.3518 -0.0414 -0.1452
    1AU    AUSL  227   7.019   2.236   5.902 -0.0340  0.1461 -0.0809
    1AU    AUSL  228   6.767   2.182   6.016 -0.0544  0.0063 -0.1700
    1AU     AUL  229   6.708   2.139   5.869  0.0238 -0.0085  0.0018
    1AU       S  230   6.605   2.518   6.298 -0.4280  0.1347 -0.0534
    1AU     LIG  231   6.199   2.761   6.088 -0.0759 -0.1900 -0.5453
    1AU     LIG  232   5.944   3.037   5.871  0.1681 -0.1421 -0.3019
    1AU       S  233   6.970   2.733   5.991 -0.2364  0.0012  0.0250
    1AU     LIG  234   7.238   3.020   6.215  0.0655 -0.1585  0.1282
    1AU     LIG  235   7.611   3.264   6.361 -0.2884  0.1652  0.1188
    1AU    AUSL  236   7.706   1.717   5.677  0.0128 -0.0127  0.0941
    1AU    AUSL  237   7.619   2.009   5.674  0.1494  0.0795  0.0089
    1AU     AUL  238   7.567   1.944   6.026 -0.0036  0.1033 -0.0304
    1AU       S  239   8.031   2.213   5.567 -0.2710  0.0752 -0.1599
    1AU     LIG  240   8.445   2.527   5.520  0.0005  0.0103 -0.3189
    1AU     LIG  241   8.660   2.707   5.177  0.2370  0.4464  0.1869
    1AU       S  242   8.146   1.733   5.528  0.2647 -0.3320  0.2686
    1AU     LIG  243   8.574   1.713   5.442  0.3628  0.3536 -0.0901
    1AU     LIG  244   8.777   1.407   5.231  0.0390 -0.1471 -0.5166
    1AU    AUSL  245   7.455   1.812   5.599  0.1015  0.0407  0.0069
    1AU    AUSL  246   7.409   1.616   5.192 -0.0092 -0.0718 -0.0202
    1AU     AUL  247   7.554   1.936   5.397 -0.0643  0.0139  0.0142
    1AU       S  248   8.240   1.855   5.137  0.0669 -0.1296  0.1702
    1AU     LIG  249   8.274   2.285   5.055  0.1058 -0.0061  0.2484
    1AU     LIG  250   7.975   2.602   4.941  0.1786  0.2123 -0.0117
    1AU       S  251   7.506   1.463   4.780 -0.2427  0.2642 -0.1291
    1AU     LIG  252   7.757   1.099   4.737  0.0134 -0.4703 -0.1953
    1AU     LIG  253   7.610   0.708   4.515 -0.0976  0.1753  0.2949
    1AU    AUSL  254   7.582   1.662   5.411 -0.1067 -0.0130  0.0092
    1AU    AUSL  255   7.658   1.541   5.878  0.0383  0.0528 -0.0840
    1AU     AUL  256   7.706   1.285   5.546 -0.0745 -0.0928  0.0195
    1AU       S  257   8.048   1.330   5.982 -0.1147 -0.2920  0.1409
    1AU     LIG  258   8.292   1.642   6.060 -0.2170 -0.2012  0.3342
    1AU     LIG  259   8.331   2.098   6.275  0.2622  0.1854  0.1031
    1AU       S  260   8.025   1.605   5.266  0.0813 -0.2996  0.3436
    1AU     LIG  261   7.974   1.550   4.766  0.1532 -0.1768  0.2726
    1AU     LIG  262   8.130   1.417   4.356  0.1782  0.3212 -0.0369
    1AU    AUSL  263   6.951   1.654   6.117 -0.0338 -0.0195 -0.0276
    1AU    AUSL  264   6.778   1.446   6.167  0.0223 -0.0521  0.0727
    1AU     AUL  265   6.705   1.749   6.244  0.0064 -0.0090  0.0574
    1AU       S  266   6.183   2.395   6.600  0.0119 -0.0800 -0.1838
    1AU     LIG  267   5.843   2.669   6.457  0.3730 -0.2288  0.0796
    1AU     LIG  268   5.575   2.735   6.077  0.1691  0.1590  0.3770
    1AU       S  269   6.489   1.288   6.547  0.0329 -0.4498 -0.3023
    1AU     LIG  270   6.665   0.798   6.671 -0.2204 -0.0037 -0.1138
    1AU     LIG  271   6.511   0.534   6.999  0.2451 -0.2212  0.1775
    1AU    AUSL  272   6.597   1.945   6.035  0.0423 -0.0469  0.0399
    1AU    AUSL  273   6.872   1.924   6.072  0.0738 -0.1434  0.0181
    1AU     AUL  274   6.826   1.985   6.343 -0.0061 -0.0296  0.0679
    1AU       S  275   6.274   2.171   6.306  0.0624 -0.1920 -0.5038
    1AU     LIG  276   5.919   2.379   6.018 -0.4703  0.2234 -0.3037
    1AU     LIG  277   5.659   2.265   5.687  0.5827  0.0819 -0.1394
    1AU       S  278   6.717   2.738   6.412  0.2269 -0.1297  0.1229
    1AU     LIG  279   6.759   3.075   6.481 -0.1084  0.1421 -0.1251
    1AU     LIG  280   6.735   3.520   6.520 -0.2350 -0.1060 -0.2075
    1AU    AUSL  281   6.720   1.697   5.961 -0.0508  0.0065  0.0537
    1AU    AUSL  282   6.626   1.869   5.758 -0.0890 -0.0371  0.0648
    1AU     AUL  283   6.580   1.594   6.030 -0.0554  0.0197 -0.0485
    1AU       S  284   6.019   1.888   6.021 -0.1188 -0.3612  0.2432
    1AU     LIG  285   5.894   1.402   6.134 -0.2802  0.3752  0.0079
    1AU     LIG  286   5.952   1.140   6.538 -0.0001 -0.0139 -0.2659
    1AU       S  287   6.159   2.208   6.554 -0.0295 -0.2704  0.1975
    1AU     LIG  288   5.959   2.060   6.951 -0.0990  0.1474 -0.2519
    1AU     LIG  289   5.940   2.191   7.302  0.0012 -0.0821 -0.3425
    1AU    AUSL  290   7.133   1.612   5.221 -0.0374 -0.0263 -0.0256
    1AU    AUSL  291   7.333   1.513   5.422  0.0408 -0.0374  0.0069
    1AU     AUL  292   7.522   1.405   5.353 -0.0528 -0.0094  0.0071
    1AU       S  293   7.204   1.566   4.724 -0.2032  0.3249  0.0837
    1AU     LIG  294   6.868   1.413   4.502 -0.0091 -0.0910 -0.2562
    1AU     LIG  295   6.451   1.379   4.468 -0.5052  0.2208 -0.1799
    1AU       S  296   7.217   0.800   4.861 -0.2824 -0.0987  0.1438
    1AU     LIG  297   7.293   0.436   4.890 -0.2230  0.2667 -0.0958
    1AU     LIG  298   7.398  -0.024   4.940 -0.0994 -0.1121 -0.0245
    1AU    AUSL  299   7.301   1.797   5.362  0.0644  0.0414  0.0709
    1AU    AUSL  300   7.167   1.870   5.132 -0.0372 -0.0124  0.0272
    1AU     AUL  301   7.539   1.849   5.123  0.0469  0.0355  0.1033
    1AU       S  302   7.382   1.351   4.574 -0.1956  0.3258  0.3553
    1AU     LIG  303   7.178   1.222   4.129  0.3114  0.0676 -0.3554
    1AU     LIG  304   6.949   1.037   3.795 -0.0272  0.0532 -0.1270
    1AU       S  305   7.217   2.167   4.792 -0.0531 -0.0776 -0.2484
    1AU     LIG  306   7.297   2.182   4.346  0.0601 -0.1564 -0.2245
    1AU     LIG  307   7.507   1.996   3.911 -0.1950  0.1244  0.1001
    1AU    AUSL  308   6.508   1.694   5.519 -0.0795  0.0271  0.1198
    1AU    AUSL  309   6.630   2.103   5.589 -0.0420  0.1278  0.0250
    1AU     AUL  310   6.499   1.812   5.808 -0.0429 -0.0792  0.0029
    1AU       S  311   6.488   2.503   5.409 -0.0730  0.1220 -0.0262
    1AU     LIG  312   6.052   2.606   5.565  0.1178  0.1150 -0.0981
    1AU     LIG  313   5.645   2.846   5.545  0.0291  0.0904 -0.0628
    1AU       S  314   5.744   1.965   6.144 -0.0146 -0.0560 -0.3570
    1AU     LIG  315   5.811   1.820   6.480  0.5133  0.1074  0.1012
    1AU     LIG  316   6.012   1.679   6.668 -0.0951  0.3101 -0.1801
    1AU    AUSL  317   6.603   1.546   5.756 -0.0231 -0.0252  0.0645
    1AU    AUSL  318   6.528   1.409   5.522 -0.0513  0.0503  0.0601
    1AU     AUL  319   6.348   1.577   5.834 -0.0503  0.0270 -0.0280
    1AU       S  320   5.807   1.854   5.901  0.1082 -0.0871 -0.1174
    1AU     LIG  321   5.306   1.897   5.956 -0.0369 -0.0569  0.5042
    1AU     LIG  322   4.943   1.881   5.981 -0.1557 -0.1714  0.1562
    1AU       S  323   6.218   1.130   5.493 -0.2465  0.0275 -0.2182
    1AU     LIG  324   5.928   1.434   5.297 -0.1282  0.0104  0.1844
    1AU     LIG  325   5.674   1.777   5.422  0.1982  0.3431  0.2314
    2POPC   NC3  326   5.059   5.953   7.283  0.0979  0.1791 -0.2705
    2POPC   PO4  327   5.511   6.078   7.313  0.0259 -0.0518 -0.2466
    2POPC   GL1  328   5.478   5.933   6.946  0.0981 -0.3023  0.3017
    2POPC   GL2  329   5.610   5.884   6.701 -0.2257 -0.2328  0.1273
    2POPC   C1A  330   5.139   5.784   6.656  0.2142  0.2580 -0.2085
    2POPC   D2A  331   5.115   5.667   6.155  0.0998  0.3211  0.1780
    2POPC   C3A  332   4.912   5.932   5.889  0.0450  0.2844 -0.2769
    2POPC   C4A  333   4.521   6.084   5.649  0.3108 -0.1379  0.1188
    2POPC   C1B  334   5.489   6.061   6.237  0.1398 -0.1795 -0.0324
    2POPC   C2B  335   5.348   6.151   5.822  0.4025  0.2837  0.3107
    2POPC   C3B  336   5.137   6.331   5.531  0.2517 -0.2158 -0.0617
    2POPC   C4B  337   5.066   6.725   5.308  0.0705 -0.1001  0.0997
    3POPC   NC3  338   8.620   4.799   7.423 -0.3268  0.2181 -0.2127
    3POPC   PO4  339   8.772   5.130   7.472 -0.2455 -0.2061 -0.1846
    3POPC   GL1  340   8.696   5.194   7.073  0.0537  0.1245 -0.0848
    3POPC   GL2  341   8.977   4.915   7.045 -0.2495 -0.2201  0.0987
    3POPC   C1A  342   8.802   5.174   6.606  0.2476 -0.0538 -0.4138
    3POPC   D2A  343   8.799   5.008   6.188  0.1485 -0.1139  0.1875
    3POPC   C3A  344   8.630   4.694   5.880 -0.1406  0.0906  0.2175
    3POPC   C4A  345   8.728   4.466   5.547 -0.0789 -0.2590 -0.0593
    3POPC   C1B  346   9.359   4.809   6.757 -0.0315  0.2855 -0.3417
    3POPC   C2B  347   9.498   4.677   6.335 -0.1191  0.0678  0.0827
    3POPC   C3B  348   9.794   4.749   5.946 -0.1575 -0.0426  0.1171
    3POPC   C4B  349   9.622   4.903   5.635 -0.0471 -0.0208 -0.1534
    4POPC   NC3  350  10.522   1.302   7.837 -0.3230 -0.1689  0.0697
    4POPC   PO4  351  10.550   1.707   7.734  0.2104 -0.0373 -0.1099
    4POPC   GL1  352  10.486   1.623   7.369  0.2216  0.0949  0.2986
    4POPC   GL2  353  10.288   1.862   7.219 -0.0445 -0.0404  0.2168
    4POPC   C1A  354  10.305   1.379   6.968 -0.3070 -0.2832  0.1267
    4POPC   D2A  355  10.094   1.104   6.683 -0.1523  0.2756 -0.0763
    4POPC   C3A  356  10.000   1.349   6.290  0.1090 -0.2677 -0.1509
    4POPC   C4A  357   9.841   1.515   5.923  0.1921 -0.1370  0.0783
    4POPC   C1B  358   9.890   1.803   7.141 -0.1034  0.0514  0.0930
    4POPC   C2B  359   9.685   2.191   6.857  0.4142 -0.2742 -0.0435
    4POPC   C3B  360   9.821   2.356   6.457  0.0718  0.1209  0.0799
    4POPC   C4B  361   9.710   2.879   6.279 -0.0130 -0.1265 -0.2357
    5POPC   NC3  362   5.814   8.293   8.073  0.2802  0.0234  0.3191
    5POPC   PO4  363   5.313   8.171   8.032  0.2245  0.4126  0.1855
    5POPC   GL1  364   5.532   8.271   7.617  0.2547 -0.3390  0.0405
    5POPC   GL2  365   5.908   8.291   7.560  0.1983 -0.0410  0.0387
    5POPC   C1A  366   5.423   8.162   7.187  0.0148  0.3610  0.1270
    5POPC   D2A  367   5.560   7.882   7.040 -0.0287  0.1372  0.1392
    5POPC   C3A  368   5.764   7.913   6.650 -0.0017  0.0268 -0.0198
    5POPC   C4A  369   5.894   7.680   6.198 -0.4852  0.0312  0.0538
    5POPC   C1B  370   5.709   8.559   7.220  0.0607  0.0716  0.1041
    5POPC   C2B  371   5.621   8.916   7.004  0.0782  0.2008  0.0254
    5POPC   C3B  372   5.421   9.229   6.815  0.3876  0.3170  0.0073
    5POPC   C4B  373   5.086   9.267   6.533  0.4834 -0.0694  0.1216
    6POPC   NC3  374   9.532  10.354   8.148  0.0667  0.1143 -0.0207
    6POPC   PO4  375   9.127  10.245   7.856 -0.1840  0.2706 -0.1751
    6POPC   GL1  376   9.005  10.264   7.518 -0.1692  0.1623 -0.1915
    6POPC   GL2  377   9.320  10.125   7.391  0.0276  0.2307  0.0707
    6POPC   C1A  378   8.978  10.343   7.053  0.2264  0.2369  0.0677
    6POPC   D2A  379   8.919  10.315   6.620 -0.0809 -0.0816 -0.1885
    6POPC   C3A  380   8.784  10.482   6.226 -0.0130 -0.0171  0.0673
    6POPC   C4A  381   8.539  10.474   5.863  0.3872  0.2867 -0.0793
    6POPC   C1B  382   9.258   9.965   6.935  0.2611 -0.1521 -0.0564
    6POPC   C2B  383   9.264   9.923   6.527  0.2062 -0.2169 -0.1495
    6POPC   C3B  384   9.313  10.050   6.141  0.0321  0.3654  0.1727
    6POPC   C4B  385   9.600  10.350   5.889 -0.0108 -0.0053 -0.3947
    7POPC   NC3  386   5.404   7.469   7.329  0.0286 -0.2761 -0.0881
    7POPC   PO4  387   5.257   6.971   7.388 -0.2640  0.3598  0.0669
    7POPC   GL1  388   5.360   7.094   6.962 -0.0230  0.0863  0.0642
    7POPC   GL2  389   5.343   6.806   6.877 -0.0689 -0.2739 -0.1343
    7POPC   C1A  390   5.277   7.006   6.462  0.1859  0.3480 -0.0335
    7POPC   D2A  391   5.539   6.984   6.209  0.2972  0.0248  0.4006
    7POPC   C3A  392   5.629   7.263   5.979  0.0091 -0.2727 -0.0857
    7POPC   C4A  393   5.671   7.332   5.464  0.1081  0.2097 -0.1302
    7POPC   C1B  394   4.873   6.739   6.583  0.0262 -0.1664 -0.5389
    7POPC   C2B  395   4.644   6.559   6.256  0.0497 -0.0255  0.1678
    7POPC   C3B  396   4.457   6.164   6.122 -0.1309 -0.2890  0.2340
    7POPC   C4B  397   4.683   5.820   6.329 -0.0602 -0.2656  0.0004
    8POPC   NC3  398   6.341   5.933   7.685  0.0921 -0.0106  0.4310
    8POPC   PO4  399   5.985   6.159   7.493  0.1017  0.0824  0.0475
    8POPC   GL1  400   5.976   6.181   7.058  0.2665  0.1223  0.0201
    8POPC   GL2  401   5.770   6.383   6.819 -0.0046  0.1404 -0.0543
    8POPC   C1A  402   6.115   6.037   6.649 -0.3432  0.2490 -0.6094
    8POPC   D2A  403   6.460   5.782   6.395 -0.1177 -0.0437  0.1405
    8POPC   C3A  404   6.292   5.539   6.028  0.2147  0.0091 -0.0111
    8POPC   C4A  405   6.338   5.600   5.687  0.1641 -0.1906 -0.2770
    8POPC   C1B  406   5.516   6.517   6.506  0.1985  0.0504  0.1406
    8POPC   C2B  407   5.564   6.513   6.048 -0.1695 -0.0414  0.1589
    8POPC   C3B  408   5.676   6.435   5.568  0.1940 -0.2594 -0.0380
    8POPC   C4B  409   5.561   6.788   5.189 -0.4167 -0.3942  0.0598
    9POPC   NC3  410   9.516   3.914   8.030  0.1328  0.0070  0.1326
    9POPC   PO4  411   9.769   3.938   7.656  0.1428  0.2152 -0.4602
    9POPC   GL1  412   9.823   4.064   7.224 -0.2708  0.0723 -0.0963
    9POPC   GL2  413  10.083   4.101   6.986  0.1181  0.0490 -0.2206
    9POPC   C1A  414   9.588   3.982   6.813  0.3821  0.1227  0.0757
    9POPC   D2A  415   9.520   4.122   6.422  0.2826  0.0843  0.5971
    9POPC   C3A  416   9.447   3.836   6.004  0.1019 -0.1199  0.1159
    9POPC   C4A  417   9.670   3.864   5.600  0.2821 -0.0101  0.2891
    9POPC   C1B  418  10.066   4.087   6.516 -0.0053  0.1041  0.2157
    9POPC   C2B  419   9.868   4.088   6.045 -0.3064 -0.0546  0.0714
    9POPC   C3B  420   9.863   4.373   5.591 -0.2242 -0.1304 -0.4197
    9POPC   C4B  421  10.109   4.356   5.331  0.0903  0.1551 -0.2267
   10POPC   NC3  422   6.617   8.690   7.829 -0.2521  0.2296  0.1553
   10POPC   PO4  423   6.347   8.414   7.629 -0.2886 -0.1389 -0.1839
   10POPC   GL1  424   6.271   8.544   7.177  0.3434 -0.4397  0.1724
   10POPC   GL2  425   6.481   8.759   7.173  0.1664 -0.0270  0.3025
   10POPC   C1A  426   6.384   8.410   6.703 -0.0313  0.0403  0.1088
   10POPC   D2A  427   6.568   8.344   6.383  0.0454 -0.1240 -0.0337
   10POPC   C3A  428   6.989   8.553   6.119  0.0446 -0.0098  0.1801
   10POPC   C4A  429   7.272   8.690   5.805  0.1861 -0.1147 -0.0070
   10POPC   C1B  430   6.163   9.157   7.060  0.4017 -0.0524 -0.2547
   10POPC   C2B  431   5.843   9.198   6.601  0.0658 -0.2772 -0.3412
   10POPC   C3B  432   5.523   9.324   6.300 -0.2723 -0.2518 -0.0970
   10POPC   C4B  433   5.362   9.758   6.158 -0.1001  0.2911 -0.0040
   11POPC   NC3  434   0.583   8.839   7.592  0.3056  0.3176 -0.0641
   11POPC   PO4  435   0.274   8.870   7.854  0.1454  0.1072 -0.2859
   11POPC   GL1  436   0.188   9.179   7.424 -0.0948  0.3147 -0.0595
   11POPC   GL2  437   0.128   9.525   7.519 -0.0501  0.3445  0.0005
   11POPC   C1A  438   0.469   9.504   7.126  0.4348  0.1949  0.2944
   11POPC   D2A  439   0.571   9.853   6.781  0.1170 -0.0108 -0.2868
   11POPC   C3A  440   0.972   9.795   6.467 -0.2629  0.1219  0.1983
   11POPC   C4A  441   1.414   9.887   6.432 -0.0178 -0.0781 -0.2150
   11POPC   C1B  442  -0.161   9.718   7.272 -0.2279 -0.3242 -0.2864
   11POPC   C2B  443  -0.274   9.850   6.933  0.1445  0.7705 -0.0412
   11POPC   C3B  444  -0.380   9.993   6.496 -0.2554 -0.2243 -0.0145
   11POPC   C4B  445  -0.266  10.303   6.230 -0.1675 -0.2519 -0.3525
   12POPC   NC3  446   2.181   0.988   7.591  0.0015 -0.1765  0.0679
   12POPC   PO4  447   2.174   0.583   7.353  0.2152  0.0720 -0.0080
   12POPC   GL1  448   1.827   0.552   7.041 -0.1265 -0.1484 -0.3223
   12POPC   GL2  449   1.476   0.815   7.093 -0.3037 -0.0308 -0.0496
   12POPC   C1A  450   1.736   0.851   6.583  0.0918 -0.0264  0.2926
   12POPC   D2A  451   1.790   0.704   6.201 -0.3242  0.1721 -0.1360
   12POPC   C3A  452   1.645   0.457   5.903  0.1466  0.0831 -0.2668
   12POPC   C4A  453   1.463   0.736   5.534  0.0722  0.1418  0.1193
   12POPC   C1B  454   1.338   1.059   6.828  0.0937 -0.2899 -0.0011
   12POPC   C2B  455   0.941   0.981   6.588 -0.0041  0.2568  0.1060
   12POPC   C3B  456   0.745   0.948   6.179 -0.0592 -0.0387  0.4529
   12POPC   C4B  457   0.537   0.701   5.916  0.2072  0.1619 -0.0167
   13POPC   NC3  458   7.028  10.021   7.810  0.1015  0.1156  0.4397
   13POPC   PO4  459   6.942   9.609   8.097  0.4258 -0.2018 -0.0364
   13POPC   GL1  460   6.963   9.544   7.604 -0.1463  0.0088  0.0913
   13POPC   GL2  461   7.314   9.532   7.382 -0.0270 -0.0817 -0.2096
   13POPC   C1A  462   6.874   9.738   7.186  0.1107 -0.1004  0.1404
   13POPC   D2A  463   7.095   9.906   6.817 -0.2551  0.1737 -0.0431
   13POPC   C3A  464   6.857   9.992   6.498 -0.2946  0.2194 -0.0147
   13POPC   C4A  465   6.714   9.894   6.135 -0.0481 -0.0905 -0.2817
   13POPC   C1B  466   7.431   9.221   7.137 -0.0770  0.2222  0.1181
   13POPC   C2B  467   7.641   9.171   6.827  0.2043 -0.0449  0.4656
   13POPC   C3B  468   7.720   9.378   6.478  0.1435 -0.1393 -0.1201
   13POPC   C4B  469   8.079   9.446   6.080  0.0327 -0.1906  0.2635
   14POPC   NC3  470   0.944   8.139   7.956  0.2823 -0.3988  0.2558
   14POPC   PO4  471   1.058   7.923   7.656 -0.1762  0.0344  0.2245
   14POPC   GL1  472   1.210   7.712   7.307  0.1431  0.0477  0.1106
   14POPC   GL2  473   1.345   7.342   7.347  0.0434  0.1542 -0.6023
   14POPC   C1A  474   1.300   7.735   6.787 -0.1065 -0.0447  0.0145
   14POPC   D2A  475   1.200   7.859   6.290  0.0874 -0.0323  0.2430
   14POPC   C3A  476   1.442   8.311   6.198 -0.0057  0.2452  0.0905
   14POPC   C4A  477   1.436   8.611   5.829 -0.0286  0.1354  0.0148
   14POPC   C1B  478   1.404   7.221   6.928 -0.0101 -0.6651 -0.1485
   14POPC   C2B  479   1.558   7.050   6.596 -0.0343  0.3082 -0.1763
   14POPC   C3B  480   1.431   6.841   6.311  0.0344  0.3269  0.2949
   14POPC   C4B  481   1.208   6.841   5.900  0.0750  0.0334  0.1732
   15POPC   NC3  482   6.758   3.142   8.443  0.2754 -0.2224  0.3937
   15POPC   PO4  483   6.791   3.569   8.233 -0.1681 -0.2402  0.2310
   15POPC   GL1  484   6.745   3.377   7.903  0.2176 -0.3690 -0.0111
   15POPC   GL2  485   7.129   3.287   7.672  0.1148  0.1962  0.1202
   15POPC   C1A  486   6.480   3.259   7.486 -0.2275  0.1340 -0.1190
   15POPC   D2A  487   6.226   2.867   7.372 -0.3096  0.0038  0.0398
   15POPC   C3A  488   6.226   2.548   7.579  0.0076 -0.0402  0.1410
   15POPC   C4A  489   6.378   2.416   8.047 -0.1643 -0.0609 -0.1796
   15POPC   C1B  490   6.904   3.387   7.337  0.1009 -0.0547 -0.0261
   15POPC   C2B  491   6.766   3.236   6.977 -0.0398  0.2376  0.1163
   15POPC   C3B  492   6.501   2.912   6.845 -0.1610 -0.3068 -0.0434
   15POPC   C4B  493   6.237   2.899   6.549  0.1817 -0.1911  0.0645
   16POPC   NC3  494   4.618   6.161   7.568 -0.3553  0.0555 -0.3144
   16POPC   PO4  495   4.459   6.483   7.313  0.1131 -0.1240 -0.2694
   16POPC   GL1  496   4.254   6.628   7.017 -0.0410  0.0365  0.0335
   16POPC   GL2  497   3.937   6.839   7.140  0.0102  0.1233 -0.0576
   16POPC   C1A  498   4.362   6.757   6.624  0.0659 -0.0509  0.1233
   16POPC   D2A  499   4.063   6.803   6.286 -0.0299 -0.0368 -0.1960
   16POPC   C3A  500   4.285   7.068   5.814  0.5419  0.0341 -0.4383
   16POPC   C4A  501   4.629   7.172   5.604 -0.2792 -0.1787  0.2674
   16POPC   C1B  502   3.920   6.968   6.733  0.0886  0.0313 -0.0538
   16POPC   C2B  503   3.654   7.065   6.475 -0.1095  0.0630 -0.0108
   16POPC   C3B  504   3.348   7.113   6.050 -0.0129 -0.3133 -0.0874
   16POPC   C4B  505   2.937   7.021   5.845 -0.0677 -0.3043 -0.1258
   17POPC   NC3  506  10.247   0.201   7.933 -0.0377  0.0107 -0.2033
   17POPC   PO4  507  10.551   0.624   7.811  0.0077  0.2203  0.2817
   17POPC   GL1  508  10.116   0.606   7.603 -0.0508 -0.3402  0.2628
   17POPC   GL2  509   9.878   0.818   7.657  0.2826 -0.1780  0.0855
   17POPC   C1A  510  10.171   0.335   7.202 -0.0234  0.0638  0.1508
   17POPC   D2A  511   9.979   0.170   6.915  0.0041 -0.0083  0.1358
   17POPC   C3A  512  10.260   0.104   6.522  0.1378  0.2501  0.1289
   17POPC   C4A  513  10.381   0.198   6.076  0.1158 -0.0532  0.1831
   17POPC   C1B  514   9.779   0.692   7.266  0.2515  0.1640 -0.1764
   17POPC   C2B  515   9.493   0.407   7.023 -0.0218 -0.0892 -0.1660
   17POPC   C3B  516   9.323   0.436   6.632  0.0186  0.1100 -0.2242
   17POPC   C4B  517   9.052   0.368   6.272 -0.1548  0.2477  0.1173
   18POPC   NC3  518   3.576   6.687   7.469 -0.1073 -0.0352  0.2758
   18POPC   PO4  519   3.364   6.336   7.375  0.1135 -0.1318  0.3246
   18POPC   GL1  520   3.411   6.158   7.019  0.0358  0.3034 -0.3980
   18POPC   GL2  521   3.726   6.118   6.873  0.1287 -0.1383  0.2493
   18POPC   C1A  522   3.533   5.683   6.890  0.2282 -0.0608  0.0449
   18POPC   D2A  523   3.771   5.472   6.625 -0.2056 -0.0792  0.3907
   18POPC   C3A  524   4.149   5.567   6.396 -0.0127 -0.1363  0.1613
   18POPC   C4A  525   4.081   5.812   5.984  0.0526 -0.4252 -0.1346
   18POPC   C1B  526   3.667   5.908   6.434 -0.0294 -0.0581 -0.2226
   18POPC   C2B  527   3.600   5.617   6.081  0.3338  0.0211 -0.0329
   18POPC   C3B  528   3.687   5.635   5.640 -0.0348  0.0617 -0.0432
   18POPC   C4B  529   3.665   5.990   5.372  0.1189 -0.2163 -0.1002
   19POPC   NC3  530   7.834   8.296   7.132 -0.2961 -0.0333 -0.1705
   19POPC   PO4  531   7.476   8.616   7.432 -0.0477  0.3976 -0.2562
   19POPC   GL1  532   7.613   8.741   7.084  0.2629  0.0530 -0.0608
   19POPC   GL2  533   7.311   8.750   6.927 -0.1470  0.0162 -0.2158
   19POPC   C1A  534   7.925   8.744   6.698  0.0004 -0.3831 -0.2126
   19POPC   D2A  535   8.108   8.983   6.301 -0.0267  0.1990  0.0634
   19POPC   C3A  536   8.134   8.882   5.746  0.1702 -0.0815  0.2345
   19POPC   C4A  537   7.975   8.688   5.327  0.1376  0.2179 -0.0378
   19POPC   C1B  538   6.989   8.840   6.604 -0.0858 -0.1490 -0.3239
   19POPC   C2B  539   7.194   8.996   6.316 -0.1911  0.3604 -0.2035
   19POPC   C3B  540   7.205   9.239   5.959  0.1517  0.1516  0.0893
   19POPC   C4B  541   6.947   9.625   5.754 -0.0988 -0.1369 -0.0291
   20POPC   NC3  542   5.438   0.287   8.879  0.1999  0.2332  0.1933
   20POPC   PO4  543   5.568   0.596   8.437  0.0873  0.1455  0.1326
   20POPC   GL1  544   5.532   0.806   7.961  0.1549 -0.1648 -0.2176
   20POPC   GL2  545   5.823   0.971   8.009 -0.3116 -0.4439  0.4126
   20POPC   C1A  546   5.786   0.634   7.584 -0.1883 -0.2323 -0.4251
   20POPC   D2A  547   5.763   0.231   7.339 -0.0308  0.0036  0.1195
   20POPC   C3A  548   5.575   0.287   6.917 -0.1306  0.2570  0.0212
   20POPC   C4A  549   5.310   0.482   6.587  0.1209 -0.0481 -0.1773
   20POPC   C1B  550   6.135   0.969   7.792  0.1241  0.1118 -0.0719
   20POPC   C2B  551   6.536   1.194   7.774  0.0500  0.1222 -0.0785
   20POPC   C3B  552   6.649   1.607   7.787 -0.0220  0.1699  0.0887
   20POPC   C4B  553   6.648   2.151   7.765 -0.1468  0.0851  0.0318
   21POPC   NC3  554   2.897   7.112   7.524 -0.4331  0.0312 -0.0300
   21POPC   PO4  555   3.322   7.147   7.392 -0.0828  0.1137 -0.1065
   21POPC   GL1  556   3.511   7.071   6.985  0.1562  0.2396 -0.0586
   21POPC   GL2  557   3.543   6.645   6.929 -0.0626  0.2017  0.0516
   21POPC   C1A  558   3.191   6.825   6.694 -0.1680  0.0468 -0.0174
   21POPC   D2A  559   3.078   6.716   6.247  0.0231 -0.1167 -0.0417
   21POPC   C3A  560   3.070   6.514   5.811 -0.1109 -0.1409 -0.0257
   21POPC   C4A  561   3.260   6.279   5.477 -0.1836  0.3755 -0.2284
   21POPC   C1B  562   3.699   6.507   6.594  0.0614  0.0976 -0.0298
   21POPC   C2B  563   3.613   6.677   6.107 -0.0973  0.1070  0.1098
   21POPC   C3B  564   3.793   6.647   5.730  0.1255  0.1359 -0.1056
   21POPC   C4B  565   4.085   6.370   5.450  0.0022 -0.1711  0.0348
   22POPC   NC3  566   0.763   3.223   8.296  0.2086 -0.0980  0.0872
   22POPC   PO4  567   0.650   3.330   7.883  0.0771  0.1381  0.0652
   22POPC   GL1  568   0.899   3.312   7.524  0.0296  0.0972 -0.3813
   22POPC   GL2  569   0.816   3.074   7.226 -0.2783 -0.5447  0.0129
   22POPC   C1A  570   0.925   3.540   7.091  0.3766  0.1615  0.2411
   22POPC   D2A  571   0.981   3.707   6.752  0.0078 -0.2214  0.0480
   22POPC   C3A  572   0.770   3.571   6.421 -0.1245 -0.0496 -0.3560
   22POPC   C4A  573   0.461   3.536   5.994 -0.0091 -0.1050 -0.1671
   22POPC   C1B  574   1.087   2.740   7.001 -0.0979  0.3619 -0.2048
   22POPC   C2B  575   1.306   2.601   6.686  0.0693 -0.0716  0.0959
   22POPC   C3B  576   1.420   2.476   6.296  0.5268  0.0550  0.2165
   22POPC   C4B  577   1.385   2.256   5.970 -0.0426 -0.2976 -0.2386
   23POPC   NC3  578   2.482   5.538   7.879  0.0579 -0.0133 -0.2311
   23POPC   PO4  579   2.936   5.700   8.000  0.0389  0.2495  0.3421
   23POPC   GL1  580   2.857   5.770   7.476 -0.0426  0.2417 -0.0826
   23POPC   GL2  581   3.102   5.882   7.276  0.1334  0.0818  0.0601
   23POPC   C1A  582   2.518   5.975   7.145 -0.0739  0.1311 -0.1821
   23POPC   D2A  583   2.206   5.917   6.892  0.0638  0.2322 -0.0118
   23POPC   C3A  584   2.037   6.202   6.545 -0.2210  0.0351  0.3487
   23POPC   C4A  585   2.272   6.419   6.211 -0.2658  0.0223 -0.0562
   23POPC   C1B  586   3.061   5.831   6.839  0.0381 -0.0159  0.1569
   23POPC   C2B  587   3.182   5.659   6.469  0.0921  0.0707 -0.0170
   23POPC   C3B  588   3.112   5.420   6.121  0.0750  0.0520  0.0837
   23POPC   C4B  589   3.331   5.118   5.860  0.3134 -0.0420  0.0626
   24POPC   NC3  590   9.391   1.276   8.526  0.3400  0.0779 -0.0779
   24POPC   PO4  591   9.605   1.105   8.148  0.0254  0.1821  0.0590
   24POPC   GL1  592   9.458   1.114   7.787  0.3928  0.0476  0.0578
   24POPC   GL2  593   9.635   1.367   7.629 -0.0745  0.0479  0.0453
   24POPC   C1A  594   9.393   0.992   7.282  0.1324  0.4929 -0.0032
   24POPC   D2A  595   9.445   1.039   6.896 -0.3076 -0.2879 -0.1537
   24POPC   C3A  596   9.749   0.752   6.737  0.0111 -0.1680  0.2680
   24POPC   C4A  597   9.848   0.452   6.574  0.0502  0.1827  0.0152
   24POPC   C1B  598   9.488   1.457   7.205  0.2703  0.0221  0.1495
   24POPC   C2B  599   9.219   1.647   6.745 -0.0697  0.0915  0.3635
   24POPC   C3B  600   9.463   1.624   6.301 -0.3061  0.2159 -0.1958
   24POPC   C4B  601   9.464   1.816   5.876 -0.3021  0.3048 -0.1017
   25POPC   NC3  602   7.636   8.495   7.922  0.2009 -0.1530 -0.0414
   25POPC   PO4  603   7.741   8.980   7.865 -0.0594  0.0975  0.0217
   25POPC   GL1  604   7.771   9.065   7.520 -0.0477  0.0226  0.1495
   25POPC   GL2  605   7.786   9.449   7.327  0.2631  0.0488  0.0329
   25POPC   C1A  606   8.059   9.065   7.037  0.0455 -0.0762  0.1936
   25POPC   D2A  607   8.323   9.182   6.661 -0.2867  0.2004  0.0429
   25POPC   C3A  608   8.568   9.470   6.426  0.0751 -0.1089  0.0029
   25POPC   C4A  609   8.823   9.759   6.195 -0.1074  0.2745 -0.2459
   25POPC   C1B  610   8.046   9.589   6.972  0.4450 -0.2479 -0.2625
   25POPC   C2B  611   8.099   9.669   6.625 -0.3201  0.1170  0.1891
   25POPC   C3B  612   7.854   9.810   6.333  0.0342  0.0171 -0.2080
   25POPC   C4B  613   7.671  10.086   6.079  0.0834  0.1137 -0.5690
   26POPC   NC3  614   1.582   5.789   7.661 -0.0083  0.1052 -0.2299
   26POPC   PO4  615   1.242   5.586   7.553  0.5551  0.3806 -0.0679
   26POPC   GL1  616   1.455   5.719   7.171  0.0784  0.2900 -0.1800
   26POPC   GL2  617   1.162   5.632   6.973 -0.2501 -0.0599 -0.1804
   26POPC   C1A  618   1.729   5.731   6.978 -0.1410 -0.2815 -0.2192
   26POPC   D2A  619   1.851   5.696   6.580 -0.1448  0.2038 -0.1353
   26POPC   C3A  620   1.801   5.466   6.238  0.1312  0.2302  0.1570
   26POPC   C4A  621   1.477   5.481   6.009 -0.1408  0.1223 -0.1560
   26POPC   C1B  622   1.418   5.372   6.560  0.1022  0.0935 -0.0300
   26POPC   C2B  623   1.337   4.953   6.446  0.1298 -0.0141  0.1938
   26POPC   C3B  624   1.451   4.951   6.046 -0.1044 -0.0455  0.2031
   26POPC   C4B  625   1.457   4.758   5.785 -0.2013  0.0352  0.0386
   27POPC   NC3  626   8.913   0.433   7.954 -0.1214  0.2345  0.1198
   27POPC   PO4  627   9.227   0.082   7.883 -0.1835  0.0981  0.2918
   27POPC   GL1  628   9.125   0.068   7.513  0.2164  0.1496 -0.2871
   27POPC   GL2  629   9.261   0.027   7.294 -0.1733  0.3238  0.0258
   27POPC   C1A  630   8.922   0.355   7.174 -0.1326 -0.0982  0.0205
   27POPC   D2A  631   8.984   0.766   6.994 -0.1550  0.1859  0.0718
   27POPC   C3A  632   9.129   0.857   6.545  0.2634  0.0256 -0.3850
   27POPC   C4A  633   8.859   0.850   6.140  0.1381 -0.2753 -0.2071
   27POPC   C1B  634   9.133   0.024   6.797 -0.1714  0.0785  0.0376
   27POPC   C2B  635   8.773   0.219   6.661  0.2564  0.3158  0.0598
   27POPC   C3B  636   8.607   0.524   6.442  0.3217 -0.3959  0.1264
   27POPC   C4B  637   8.262   0.701   6.513 -0.0367 -0.0158  0.0111
   28POPC   NC3  638   3.142   3.834   8.277 -0.1506  0.1433 -0.0638
   28POPC   PO4  639   3.407   4.080   7.999  0.3829  0.0686 -0.0729
   28POPC   GL1  640   3.230   4.178   7.602 -0.0166 -0.6298  0.3090
   28POPC   GL2  641   3.301   4.523   7.455  0.3029 -0.0889 -0.3074
   28POPC   C1A  642   3.108   3.943   7.194 -0.3371  0.0137 -0.0181
   28POPC   D2A  643   2.790   4.019   6.940  0.0323 -0.2503 -0.2428
   28POPC   C3A  644   2.802   3.950   6.477 -0.1366  0.0011 -0.0337
   28POPC   C4A  645   2.547   4.188   6.186  0.0496 -0.1947 -0.1133
   28POPC   C1B  646   3.563   4.319   7.160 -0.1761 -0.1293  0.0320
   28POPC   C2B  647   3.779   4.164   6.799 -0.2132 -0.0216  0.1486
   28POPC   C3B  648   4.126   4.384   6.651  0.1063  0.0300  0.0732
   28POPC   C4B  649   4.358   4.682   6.802  0.0630  0.0166 -0.2387
   29POPC   NC3  650   2.579   0.596   7.932 -0.3182 -0.2255  0.0980
   29POPC   PO4  651   2.663   0.691   7.508  0.2282 -0.0826  0.0113
   29POPC   GL1  652   2.524   0.771   7.093  0.0624  0.0743  0.0212
   29POPC   GL2  653   2.493   0.443   6.961 -0.0343 -0.1346 -0.1112
   29POPC   C1A  654   2.411   0.903   6.706  0.3592 -0.0043 -0.1214
   29POPC   D2A  655   2.182   0.950   6.305 -0.4418 -0.0318 -0.0343
   29POPC   C3A  656   2.218   1.199   5.915 -0.0750 -0.2227 -0.5722
   29POPC   C4A  657   2.442   1.179   5.579 -0.0983 -0.1838  0.0552
   29POPC   C1B  658   2.390   0.303   6.621  0.3296  0.0671  0.3736
   29POPC   C2B  659   2.305   0.457   6.261 -0.4666 -0.0824 -0.1700
   29POPC   C3B  660   2.123   0.283   5.956 -0.0636  0.0002 -0.0604
   29POPC   C4B  661   2.159   0.093   5.552  0.0909 -0.1392  0.0495
   30POPC   NC3  662   2.629   5.049   7.914 -0.2289 -0.1205 -0.1603
   30POPC   PO4  663   2.256   5.105   8.188 -0.0133  0.1719 -0.1058
   30POPC   GL1  664   2.081   4.922   7.787 -0.2593 -0.4269 -0.5027
   30POPC   GL2  665   2.216   5.092   7.542  0.1257 -0.4914 -0.0401
   30POPC   C1A  666   2.022   4.585   7.393 -0.0795 -0.0702  0.4058
   30POPC   D2A  667   2.058   4.562   6.852 -0.1181  0.0310 -0.1277
   30POPC   C3A  668   2.090   4.395   6.426 -0.0285 -0.0522 -0.4280
   30POPC   C4A  669   2.007   4.233   6.000 -0.3843 -0.0632 -0.0122
   30POPC   C1B  670   2.191   4.982   7.085  0.2418  0.2817 -0.1204
   30POPC   C2B  671   1.907   5.065   6.681 -0.0939 -0.1410  0.0345
   30POPC   C3B  672   1.897   4.949   6.190 -0.1375  0.1496 -0.4553
   30POPC   C4B  673   1.962   4.702   5.768 -0.1649 -0.1180  0.0671
   31POPC   NC3  674   8.271   0.005   8.460 -0.0718 -0.2101 -0.1461
   31POPC   PO4  675   7.878   0.273   8.263 -0.0114  0.0089 -0.0154
   31POPC   GL1  676   7.921   0.563   7.893 -0.1334 -0.2944  0.0538
   31POPC   GL2  677   7.978   0.908   7.980  0.0959 -0.2792 -0.0243
   31POPC   C1A  678   8.055   0.542   7.538  0.1268  0.0355  0.0989
   31POPC   D2A  679   8.252   0.881   7.382 -0.1209  0.0993  0.0854
   31POPC   C3A  680   8.671   0.751   7.449 -0.1612 -0.1428  0.2234
   31POPC   C4A  681   8.954   1.024   7.673 -0.1111  0.3264  0.0128
   31POPC   C1B  682   7.792   1.035   7.478  0.2080 -0.1412 -0.1434
   31POPC   C2B  683   7.837   0.760   7.138 -0.3478  0.1262 -0.2479
   31POPC   C3B  684   7.946   0.537   6.998 -0.0461 -0.3988  0.1600
   31POPC   C4B  685   8.083   0.244   6.740  0.0226 -0.0695 -0.0424
   32POPC   NC3  686   4.524   9.868   7.727  0.2277 -0.2040 -0.3682
   32POPC   PO4  687   4.188   9.948   7.412 -0.0219  0.0901 -0.0836
   32POPC   GL1  688   3.938   9.749   7.088  0.4795 -0.3194  0.0390
   32POPC   GL2  689   4.184   9.609   6.925  0.0381  0.3672  0.0037
   32POPC   C1A  690   3.677   9.832   6.823  0.2720  0.1642 -0.1789
   32POPC   D2A  691   3.477   9.896   6.391  0.1086 -0.2306  0.0322
   32POPC   C3A  692   3.515   9.877   5.889 -0.0701  0.3229  0.2251
   32POPC   C4A  693   3.548   9.704   5.478 -0.0278  0.3250  0.1834
   32POPC   C1B  694   4.335   9.326   6.585 -0.0074  0.3444  0.0901
   32POPC   C2B  695   4.630   9.182   6.335  0.0153 -0.3816 -0.1202
   32POPC   C3B  696   4.534   9.025   6.019  0.0455 -0.0644  0.4053
   32POPC   C4B  697   4.392   9.112   5.608  0.1998 -0.0885 -0.2506
   33POPC   NC3  698   3.340   8.731   7.544  0.1991  0.3140 -0.0109
   33POPC   PO4  699   3.335   8.371   7.810  0.0386  0.0492  0.1249
   33POPC   GL1  700   3.267   8.256   7.374 -0.1236  0.0515  0.1417
   33POPC   GL2  701   3.338   8.464   7.090  0.5817  0.3459  0.2457
   33POPC   C1A  702   3.258   7.883   7.126 -0.2839 -0.2662 -0.0449
   33POPC   D2A  703   3.283   7.512   7.075 -0.3891 -0.0611  0.1545
   33POPC   C3A  704   3.184   7.353   6.705  0.0427 -0.0932 -0.1783
   33POPC   C4A  705   3.013   7.209   6.336  0.1041 -0.0747  0.2090
   33POPC   C1B  706   3.694   8.510   6.775  0.4019  0.0763 -0.1965
   33POPC   C2B  707   3.844   8.867   6.659  0.1056 -0.1818 -0.0103
   33POPC   C3B  708   4.053   8.989   6.273  0.0141 -0.1957 -0.2034
   33POPC   C4B  709   4.172   9.394   6.051 -0.1048 -0.2771  0.1938
   34POPC   NC3  710   9.154   6.044   7.234 -0.1312 -0.2104  0.0221
   34POPC   PO4  711   9.272   5.781   7.546 -0.2101 -0.2339  0.1338
   34POPC   GL1  712   8.977   5.553   7.292  0.2230 -0.3138 -0.1262
   34POPC   GL2  713   9.183   5.341   7.245  0.0420 -0.1040  0.0506
   34POPC   C1A  714   8.821   5.626   6.867 -0.3056  0.0165 -0.0951
   34POPC   D2A  715   8.860   5.784   6.544 -0.3343 -0.1625  0.0759
   34POPC   C3A  716   8.811   5.572   6.184  0.0619 -0.2873 -0.1257
   34POPC   C4A  717   8.793   5.404   5.822  0.1046 -0.1079  0.2285
   34POPC   C1B  718   9.248   5.370   6.770  0.4666 -0.0194  0.0395
   34POPC   C2B  719   9.251   5.148   6.324 -0.1260 -0.1750 -0.1510
   34POPC   C3B  720   9.543   5.256   5.983  0.1404 -0.1958  0.2446
   34POPC   C4B  721   9.284   5.385   5.652 -0.1352 -0.2469 -0.0099
   35POPC   NC3  722   3.904   7.819   8.017 -0.0253 -0.0460 -0.1765
   35POPC   PO4  723   4.046   7.697   7.705 -0.1838  0.1198 -0.1189
   35POPC   GL1  724   3.816   7.616   7.285  0.0717  0.1289 -0.1390
   35POPC   GL2  725   3.915   7.350   7.109 -0.0728 -0.1908  0.2568
   35POPC   C1A  726   3.626   7.612   6.756 -0.2503  0.2884  0.4504
   35POPC   D2A  727   3.818   7.559   6.411  0.1205 -0.3454 -0.1664
   35POPC   C3A  728   3.925   7.799   6.084 -0.0545  0.0199 -0.2471
   35POPC   C4A  729   3.893   8.204   5.933 -0.0806  0.2366 -0.4471
   35POPC   C1B  730   4.244   7.389   6.769  0.0141 -0.1234  0.0873
   35POPC   C2B  731   4.208   7.287   6.355  0.0702  0.0112  0.1989
   35POPC   C3B  732   3.875   7.212   5.964 -0.1875 -0.2736 -0.0157
   35POPC   C4B  733   3.804   7.190   5.557  0.1208 -0.1540 -0.1795
   36POPC   NC3  734   8.468   2.168   8.638  0.3632  0.0583  0.2689
   36POPC   PO4  735   8.787   2.325   8.278 -0.0296  0.4386 -0.1190
   36POPC   GL1  736   8.791   2.422   7.774  0.1435  0.5000 -0.0171
   36POPC   GL2  737   9.000   2.278   7.648 -0.1655  0.3212  0.2022
   36POPC   C1A  738   8.625   2.227   7.327 -0.1304  0.2222 -0.0401
   36POPC   D2A  739   8.232   1.907   7.211 -0.1976 -0.0575  0.2075
   36POPC   C3A  740   7.814   1.722   7.374  0.2511  0.0178  0.2457
   36POPC   C4A  741   7.468   1.957   7.622 -0.1942 -0.3428 -0.1839
   36POPC   C1B  742   9.247   2.404   7.451 -0.3110  0.0553  0.2792
   36POPC   C2B  743   9.180   2.307   7.032  0.1479 -0.2780  0.4596
   36POPC   C3B  744   9.241   2.194   6.599  0.0203 -0.1284  0.0284
   36POPC   C4B  745   9.417   2.156   6.231  0.1363 -0.0460  0.0229
   37POPC   NC3  746   6.019   9.145   8.322 -0.1146  0.3020 -0.0548
   37POPC   PO4  747   6.041   9.310   7.914  0.1916  0.1867 -0.4086
   37POPC   GL1  748   6.032   9.419   7.448 -0.0601 -0.4271  0.1612
   37POPC   GL2  749   5.985   9.762   7.327 -0.1220 -0.2896  0.1624
   37POPC   C1A  750   5.753   9.517   7.000  0.1501 -0.1806  0.0132
   37POPC   D2A  751   5.543   9.663   6.685  0.3638 -0.0506  0.1909
   37POPC   C3A  752   5.849   9.695   6.267  0.1929 -0.0613 -0.1321
   37POPC   C4A  753   5.930   9.942   5.851  0.1069  0.0313  0.3539
   37POPC   C1B  754   6.155   9.823   7.068  0.1494 -0.1525 -0.1911
   37POPC   C2B  755   5.943  10.002   6.708 -0.0005 -0.0433  0.0740
   37POPC   C3B  756   5.616  10.075   6.422  0.0997 -0.1757  0.1781
   37POPC   C4B  757   5.425  10.341   6.180 -0.0468  0.1145 -0.3826
   38POPC   NC3  758   0.442   2.378   7.828  0.1977  0.1273 -0.1189
   38POPC   PO4  759   0.173   2.330   7.544 -0.2053  0.1645  0.1776
   38POPC   GL1  760   0.255   2.037   7.184  0.1323 -0.1214 -0.4367
   38POPC   GL2  761   0.033   2.056   7.038 -0.1053 -0.0069  0.0007
   38POPC   C1A  762   0.455   2.054   6.801  0.0672  0.0648 -0.0432
   38POPC   D2A  763   0.477   1.873   6.406  0.0770 -0.3408 -0.0977
   38POPC   C3A  764   0.626   1.922   5.965 -0.0177 -0.2718  0.0564
   38POPC   C4A  765   1.012   1.976   5.695  0.0229  0.3669 -0.0109
   38POPC   C1B  766   0.129   2.394   6.746 -0.0915  0.0487 -0.0797
   38POPC   C2B  767   0.102   2.843   6.595  0.1904 -0.1857  0.3741
   38POPC   C3B  768   0.262   3.196   6.782  0.4176 -0.0364 -0.0554
   38POPC   C4B  769   0.566   3.360   6.813  0.4256 -0.1289  0.1641
   39POPC   NC3  770   3.206   1.303   7.816 -0.0886 -0.2609 -0.0162
   39POPC   PO4  771   3.524   1.074   7.727 -0.0057 -0.1570 -0.1249
   39POPC   GL1  772   3.609   1.227   7.382 -0.2254 -0.2797 -0.3133
   39POPC   GL2  773   3.923   1.276   7.449 -0.1874 -0.2270  0.1460
   39POPC   C1A  774   3.651   1.452   7.015 -0.1780 -0.2754 -0.2216
   39POPC   D2A  775   3.591   1.739   6.811  0.1123  0.0364  0.3597
   39POPC   C3A  776   3.502   2.147   6.998 -0.0733 -0.2424 -0.0385
   39POPC   C4A  777   3.339   2.432   7.099  0.2252  0.1091  0.0131
   39POPC   C1B  778   4.016   1.052   7.127 -0.0280  0.1155  0.2723
   39POPC   C2B  779   4.035   1.199   6.674  0.4315 -0.0823  0.0303
   39POPC   C3B  780   4.080   1.040   6.292  0.0483 -0.2857  0.0002
   39POPC   C4B  781   4.293   1.205   5.933  0.1018  0.2036  0.1900
   40POPC   NC3  782   7.676   6.977   7.946 -0.0498 -0.0685 -0.2900
   40POPC   PO4  783   7.747   6.725   7.647  0.0661 -0.0087 -0.1784
   40POPC   GL1  784   7.939   6.506   7.256 -0.0801 -0.1586 -0.1210
   40POPC   GL2  785   8.117   6.605   7.061  0.0925  0.1128 -0.0724
   40POPC   C1A  786   7.868   6.191   6.947 -0.0498 -0.1858 -0.0165
   40POPC   D2A  787   8.030   5.823   6.930  0.3459 -0.1366  0.0167
   40POPC   C3A  788   7.913   5.663   6.527  0.0309  0.0559  0.0595
   40POPC   C4A  789   7.651   5.899   6.107 -0.0664 -0.1501  0.0061
   40POPC   C1B  790   8.090   6.594   6.622  0.1963  0.0860 -0.0314
   40POPC   C2B  791   8.118   6.903   6.236  0.1102  0.0706 -0.0621
   40POPC   C3B  792   8.129   6.802   5.828 -0.0205 -0.1677 -0.3743
   40POPC   C4B  793   8.457   6.553   5.544 -0.0379 -0.0503 -0.2371
   41POPC   NC3  794   3.965   2.579   8.068 -0.0322 -0.0049  0.0275
   41POPC   PO4  795   4.461   2.280   8.144 -0.1569  0.3207  0.0906
   41POPC   GL1  796   4.282   2.171   7.756 -0.2541 -0.2851  0.1810
   41POPC   GL2  797   4.009   2.334   7.612 -0.1154  0.1651 -0.0662
   41POPC   C1A  798   4.382   2.165   7.366  0.1068 -0.1295 -0.1695
   41POPC   D2A  799   4.587   2.328   7.024  0.1900  0.0463 -0.1209
   41POPC   C3A  800   4.409   2.035   6.613  0.3392 -0.3688 -0.0292
   41POPC   C4A  801   4.508   1.902   6.198 -0.0016 -0.0939 -0.3248
   41POPC   C1B  802   3.729   2.508   7.376  0.0509 -0.0582  0.1491
   41POPC   C2B  803   3.936   2.646   7.052 -0.0013 -0.2752 -0.2274
   41POPC   C3B  804   4.227   2.517   6.654  0.1983 -0.3294  0.0551
   41POPC   C4B  805   4.479   2.599   6.497 -0.2679 -0.1634  0.2958
   42POPC   NC3  806   9.202   3.951   7.685 -0.1677 -0.1646  0.0986
   42POPC   PO4  807   9.326   4.278   7.421  0.0306  0.0311 -0.1108
   42POPC   GL1  808   9.375   4.445   7.105  0.3460  0.1858 -0.1513
   42POPC   GL2  809   9.623   4.566   7.158 -0.0344  0.2117 -0.2090
   42POPC   C1A  810   9.180   4.357   6.691 -0.1222 -0.1401  0.1343
   42POPC   D2A  811   9.009   4.531   6.335 -0.1859 -0.1249 -0.0969
   42POPC   C3A  812   9.091   4.701   5.866 -0.0810 -0.0752  0.0085
   42POPC   C4A  813   9.177   4.652   5.384  0.2559 -0.0785  0.2458
   42POPC   C1B  814   9.832   4.475   6.754  0.2366 -0.1114  0.0628
   42POPC   C2B  815  10.036   4.708   6.414  0.5630  0.2368  0.2427
   42POPC   C3B  816  10.265   5.060   6.204  0.0999 -0.0034  0.3234
   42POPC   C4B  817  10.602   5.391   6.123 -0.0466 -0.1594  0.1408
   43POPC   NC3  818   4.004   1.136   7.953 -0.1554  0.2966  0.2631
   43POPC   PO4  819   4.452   1.258   8.032 -0.2461  0.1823  0.1359
   43POPC   GL1  820   4.593   1.444   7.664 -0.2179  0.0090  0.3213
   43POPC   GL2  821   4.769   1.214   7.536  0.2235  0.2968  0.0496
   43POPC   C1A  822   4.406   1.367   7.255  0.0944 -0.2059 -0.0597
   43POPC   D2A  823   4.179   1.587   6.947 -0.0432 -0.1653 -0.1591
   43POPC   C3A  824   4.017   1.668   6.515  0.1285  0.3276 -0.1417
   43POPC   C4A  825   4.016   1.726   6.067  0.0839 -0.0089 -0.1787
   43POPC   C1B  826   4.874   1.107   7.198  0.3704  0.1066  0.0797
   43POPC   C2B  827   4.977   0.963   6.772 -0.1704 -0.1645  0.2810
   43POPC   C3B  828   5.313   1.119   6.527 -0.2424  0.3399 -0.1300
   43POPC   C4B  829   5.574   0.988   6.237  0.1603  0.1313  0.1597
   44POPC   NC3  830   8.596   7.266   7.448 -0.1393  0.2297 -0.0820
   44POPC   PO4  831   8.646   7.678   7.430 -0.0753 -0.0055 -0.3700
   44POPC   GL1  832   8.636   7.850   6.968 -0.4590 -0.1423 -0.2636
   44POPC   GL2  833   8.592   7.721   6.693 -0.0389  0.1999 -0.0889
   44POPC   C1A  834   8.628   8.225   6.800 -0.1361  0.2442 -0.1642
   44POPC   D2A  835   8.351   8.558   6.501 -0.2556 -0.1933 -0.1534
   44POPC   C3A  836   8.012   8.482   6.205  0.0277 -0.4767  0.3391
   44POPC   C4A  837   7.783   8.514   5.818 -0.1202  0.0836 -0.0023
   44POPC   C1B  838   8.980   7.936   6.515 -0.1895  0.1689  0.1574
   44POPC   C2B  839   9.129   8.026   6.245  0.0345  0.2610 -0.1755
   44POPC   C3B  840   9.333   8.494   6.155  0.0395  0.1581 -0.1411
   44POPC   C4B  841   9.784   8.658   5.997  0.3862 -0.1887  0.1362
   45POPC   NC3  842   6.477   6.433   7.648 -0.0753 -0.2403 -0.2500
   45POPC   PO4  843   6.175   6.675   7.443  0.1630  0.1314  0.2448
   45POPC   GL1  844   6.088   6.750   6.970  0.2545  0.0637  0.0006
   45POPC   GL2  845   6.184   6.603   6.756 -0.0445 -0.1478 -0.1885
   45POPC   C1A  846   5.955   7.127   6.860  0.1278  0.1315 -0.0130
   45POPC   D2A  847   5.757   7.313   6.568  0.2690 -0.1972  0.0355
   45POPC   C3A  848   5.394   7.554   6.344  0.1024 -0.0921 -0.0967
   45POPC   C4A  849   5.035   7.492   6.247 -0.1684  0.1259  0.0071
   45POPC   C1B  850   5.929   6.771   6.466  0.2265  0.0105  0.2549
   45POPC   C2B  851   6.108   7.174   6.236 -0.1111  0.0176 -0.1550
   45POPC   C3B  852   6.400   7.419   5.978  0.2008 -0.3013 -0.3571
   45POPC   C4B  853   6.333   7.822   5.807  0.1686 -0.1380 -0.0168
   46POPC   NC3  854   7.815   7.524   7.234 -0.1269  0.0593 -0.1242
   46POPC   PO4  855   7.552   7.864   7.264  0.2912  0.0447 -0.1530
   46POPC   GL1  856   7.701   7.894   6.845 -0.1437 -0.1607  0.1665
   46POPC   GL2  857   7.417   8.057   6.660 -0.2424 -0.0889  0.0376
   46POPC   C1A  858   7.713   7.619   6.356  0.1763  0.0535 -0.1291
   46POPC   D2A  859   7.657   7.145   6.274 -0.1214 -0.0773  0.0650
   46POPC   C3A  860   7.670   6.914   5.895 -0.3025 -0.0317 -0.3307
   46POPC   C4A  861   7.500   6.977   5.444 -0.0399 -0.0770  0.0417
   46POPC   C1B  862   7.335   8.464   6.492 -0.1222 -0.1019  0.1290
   46POPC   C2B  863   7.629   8.814   6.286 -0.0709  0.0802  0.0659
   46POPC   C3B  864   7.713   9.110   5.952 -0.1173 -0.0795 -0.1550
   46POPC   C4B  865   7.642   9.001   5.479 -0.0457  0.1682  0.0135
   47POPC   NC3  866   8.542   3.954   8.418 -0.1118  0.2101 -0.0287
   47POPC   PO4  867   8.518   4.072   7.913  0.2707  0.3067 -0.1719
   47POPC   GL1  868   8.610   3.888   7.487  0.2648 -0.0788  0.3428
   47POPC   GL2  869   8.905   3.775   7.317  0.1342 -0.2249 -0.3248
   47POPC   C1A  870   8.589   4.060   7.093  0.1081 -0.0454  0.1295
   47POPC   D2A  871   8.271   4.302   6.933 -0.0578 -0.0677  0.1581
   47POPC   C3A  872   8.232   4.415   6.636  0.0394  0.4657  0.2817
   47POPC   C4A  873   8.321   4.628   6.316 -0.2123  0.0808  0.1160
   47POPC   C1B  874   9.048   3.923   6.890 -0.0318 -0.1306 -0.1314
   47POPC   C2B  875   9.017   3.991   6.330 -0.1403 -0.3068  0.1320
   47POPC   C3B  876   8.888   4.106   5.914  0.1326 -0.0721 -0.1255
   47POPC   C4B  877   9.012   4.050   5.488  0.1895 -0.1105  0.2438
   48POPC   NC3  878   9.586  10.444   7.644  0.2688 -0.1872  0.1393
   48POPC   PO4  879   9.919  10.509   7.842  0.1728 -0.0239 -0.1605
   48POPC   GL1  880  10.028  10.448   7.335  0.0650 -0.0247 -0.1464
   48POPC   GL2  881  10.207  10.326   7.134  0.0147  0.2982  0.3671
   48POPC   C1A  882   9.626  10.457   7.004 -0.0652 -0.0597 -0.1579
   48POPC   D2A  883   9.517  10.324   6.609 -0.1018  0.2377  0.0596
   48POPC   C3A  884   9.314  10.560   6.305  0.1870  0.5217 -0.2334
   48POPC   C4A  885   9.136  10.494   5.871  0.1782  0.0612  0.0196
   48POPC   C1B  886  10.084  10.379   6.689  0.2050 -0.2179  0.1442
   48POPC   C2B  887   9.840  10.630   6.387 -0.0296  0.2664 -0.0130
   48POPC   C3B  888   9.581  10.957   6.191  0.2398  0.0515  0.0815
   48POPC   C4B  889   9.563  11.016   5.721  0.0302  0.1619  0.3692
   49POPC   NC3  890   2.207   1.938   7.552 -0.0811 -0.1141  0.0692
   49POPC   PO4  891   1.762   2.069   7.673  0.1585  0.3649 -0.1512
   49POPC   GL1  892   1.895   2.296   7.429 -0.2446  0.0500  0.2407
   49POPC   GL2  893   2.251   2.454   7.473  0.1974  0.0106  0.0581
   49POPC   C1A  894   1.971   2.310   7.016  0.0467  0.1448 -0.1848
   49POPC   D2A  895   2.068   2.205   6.517  0.0761 -0.1524 -0.1673
   49POPC   C3A  896   1.865   2.174   6.182  0.1975  0.0258  0.1279
   49POPC   C4A  897   1.951   2.051   5.738  0.1682  0.1554  0.1739
   49POPC   C1B  898   2.182   2.786   7.050 -0.1220  0.0475 -0.0800
   49POPC   C2B  899   2.262   3.041   6.676 -0.1860 -0.0206 -0.4148
   49POPC   C3B  900   2.403   3.001   6.282 -0.0380 -0.0703  0.0902
   49POPC   C4B  901   2.407   2.727   5.916 -0.3152  0.1961  0.1586
   50POPC   NC3  902   0.561   9.849   7.772 -0.2306 -0.0311 -0.0968
   50POPC   PO4  903   0.112   9.916   7.805  0.2007 -0.0689 -0.0616
   50POPC   GL1  904   0.181  10.128   7.513 -0.0951 -0.3691 -0.0251
   50POPC   GL2  905  -0.008  10.244   7.431  0.0630  0.0203  0.2054
   50POPC   C1A  906   0.204  10.042   7.024  0.0327  0.0855  0.1437
   50POPC   D2A  907  -0.016  10.331   6.799 -0.2487 -0.0589 -0.0472
   50POPC   C3A  908  -0.158  10.686   6.941 -0.1067 -0.3920  0.1419
   50POPC   C4A  909   0.085  11.088   7.041  0.0143  0.2701 -0.3271
   50POPC   C1B  910   0.215  10.498   7.190 -0.1474 -0.0799 -0.1119
   50POPC   C2B  911   0.314  10.743   6.767 -0.0721  0.5382 -0.3046
   50POPC   C3B  912   0.622  10.866   6.508 -0.0670  0.1080  0.3528
   50POPC   C4B  913   0.871  11.133   6.319  0.4388 -0.2990 -0.0248
   51POPC   NC3  914   4.458   8.696   8.113 -0.0596 -0.2438  0.1924
   51POPC   PO4  915   4.651   8.326   7.924 -0.2887 -0.2609  0.0006
   51POPC   GL1  916   4.490   8.518   7.426  0.1962  0.1029  0.0943
   51POPC   GL2  917   4.103   8.409   7.284  0.0053 -0.0516  0.0545
   51POPC   C1A  918   4.683   8.600   6.979 -0.1531 -0.2366 -0.0128
   51POPC   D2A  919   4.927   8.816   6.565  0.0678  0.1639 -0.5291
   51POPC   C3A  920   4.633   8.609   6.235  0.1728 -0.4823 -0.1065
   51POPC   C4A  921   4.767   8.626   5.865  0.2280 -0.1661 -0.2812
   51POPC   C1B  922   4.223   8.387   6.902 -0.1119 -0.0454  0.0003
   51POPC   C2B  923   4.462   8.250   6.534  0.1256 -0.0197 -0.0087
   51POPC   C3B  924   4.373   8.177   6.064 -0.0609  0.0082  0.0623
   51POPC   C4B  925   4.204   8.052   5.645  0.2180  0.0085  0.3996
   52POPC   NC3  926   2.106   3.285   8.034  0.2331 -0.0689  0.1316
   52POPC   PO4  927   2.105   2.869   7.846  0.0017 -0.1545  0.1080
   52POPC   GL1  928   2.351   2.991   7.472  0.3023  0.3134  0.1212
   52POPC   GL2  929   2.134   3.258   7.489 -0.1968  0.1303 -0.0991
   52POPC   C1A  930   2.525   3.126   7.097  0.2498 -0.0533 -0.1370
   52POPC   D2A  931   2.580   3.429   6.738 -0.1296 -0.0285 -0.1504
   52POPC   C3A  932   2.358   3.635   6.329  0.1991 -0.0192  0.1369
   52POPC   C4A  933   2.280   3.752   5.890  0.0168 -0.0911 -0.1245
   52POPC   C1B  934   1.929   3.222   7.115 -0.1908  0.0252  0.0677
   52POPC   C2B  935   1.701   3.101   6.834  0.0834  0.2599  0.1673
   52POPC   C3B  936   1.536   3.021   6.384  0.1753  0.0597  0.2818
   52POPC   C4B  937   1.682   2.991   5.938  0.2616  0.0838  0.2376
   53POPC   NC3  938   1.723   8.436   7.425  0.0028 -0.2605  0.0722
   53POPC   PO4  939   2.055   8.270   7.537  0.0538 -0.1374  0.2139
   53POPC   GL1  940   2.402   8.287   7.250 -0.3545  0.1658  0.3049
   53POPC   GL2  941   2.738   8.091   7.147  0.1923  0.2920  0.2547
   53POPC   C1A  942   2.412   8.371   6.803  0.2150  0.0282 -0.0879
   53POPC   D2A  943   2.546   8.076   6.504 -0.1146  0.3082  0.2071
   53POPC   C3A  944   2.299   7.802   6.269  0.1023 -0.0656  0.2064
   53POPC   C4A  945   1.718   7.920   6.224  0.1102 -0.1693  0.0120
   53POPC   C1B  946   2.949   8.228   6.785 -0.1477 -0.1703 -0.1628
   53POPC   C2B  947   3.072   8.272   6.281 -0.1655 -0.1205  0.0742
   53POPC   C3B  948   3.187   8.469   5.887 -0.0298  0.1464 -0.2782
   53POPC   C4B  949   3.036   8.840   5.586  0.1088  0.0869 -0.2409
   54POPC   NC3  950   7.595   5.059   7.568  0.0379  0.3647  0.2867
   54POPC   PO4  951   7.318   5.321   7.563 -0.0333  0.0502  0.0428
   54POPC   GL1  952   7.344   5.399   7.175  0.1460 -0.0718 -0.0231
   54POPC   GL2  953   7.343   5.007   7.124 -0.0104 -0.1361  0.0192
   54POPC   C1A  954   7.506   5.757   6.909  0.1371  0.0165  0.1262
   54POPC   D2A  955   7.596   6.085   6.564 -0.2290  0.0413 -0.0697
   54POPC   C3A  956   7.951   6.149   6.464  0.0961  0.0256 -0.2576
   54POPC   C4A  957   8.208   6.394   6.149  0.1049 -0.2376 -0.0659
   54POPC   C1B  958   7.081   5.172   6.831  0.2063 -0.1389  0.0192
   54POPC   C2B  959   7.011   5.006   6.396 -0.1268 -0.0621  0.0679
   54POPC   C3B  960   7.133   5.085   5.991 -0.4604  0.1201 -0.1051
   54POPC   C4B  961   7.536   5.097   5.780 -0.1381 -0.0292  0.0049
   55POPC   NC3  962   5.194  10.360   8.519  0.1721 -0.2364  0.0131
   55POPC   PO4  963   5.418  10.432   8.120  0.2660 -0.0867 -0.1505
   55POPC   GL1  964   5.285  10.675   7.684 -0.1691 -0.1088  0.1657
   55POPC   GL2  965   5.041  10.761   7.511 -0.0137 -0.1659 -0.1543
   55POPC   C1A  966   5.440  10.557   7.225 -0.0357  0.0303  0.0137
   55POPC   D2A  967   5.555  10.506   6.742  0.1798  0.0073 -0.0377
   55POPC   C3A  968   5.913  10.456   6.463  0.2176  0.0928  0.1064
   55POPC   C4A  969   6.263  10.630   6.322 -0.2463 -0.1916 -0.0081
   55POPC   C1B  970   5.003  10.780   7.103 -0.0814  0.1039  0.0432
   55POPC   C2B  971   5.084  10.706   6.742 -0.0933  0.0296  0.1921
   55POPC   C3B  972   5.132  10.726   6.385 -0.0577  0.2448  0.1144
   55POPC   C4B  973   5.312  10.960   6.101 -0.0725 -0.4205  0.0889
   56POPC   NC3  974   1.384   7.161   7.820 -0.1698 -0.1724 -0.2695
   56POPC   PO4  975   1.332   6.805   7.527  0.3256 -0.1756 -0.0029
   56POPC   GL1  976   1.439   6.758   7.053  0.1638  0.1351 -0.0124
   56POPC   GL2  977   1.844   6.868   6.932 -0.2811 -0.1280  0.1910
   56POPC   C1A  978   1.545   6.469   6.655  0.0358  0.1797 -0.1503
   56POPC   D2A  979   1.731   6.494   6.194  0.0915  0.1616 -0.0525
   56POPC   C3A  980   1.738   6.857   5.865  0.0873  0.0627 -0.2689
   56POPC   C4A  981   1.491   6.954   5.529 -0.1924 -0.0964 -0.2311
   56POPC   C1B  982   2.061   6.831   6.491 -0.0433  0.0432  0.0557
   56POPC   C2B  983   2.184   6.983   6.123  0.1601 -0.0277  0.0940
   56POPC   C3B  984   2.065   7.441   5.968  0.0284 -0.0045 -0.0367
   56POPC   C4B  985   1.950   7.846   5.657 -0.4203  0.0322  0.0273
   57POPC   NC3  986   3.416   5.045   7.562  0.0334 -0.2657 -0.0202
   57POPC   PO4  987   2.982   5.327   7.626  0.3060 -0.1979 -0.2063
   57POPC   GL1  988   2.961   5.019   7.260 -0.2374  0.0385  0.2131
   57POPC   GL2  989   2.669   4.882   7.089 -0.3324  0.1598  0.1634
   57POPC   C1A  990   3.198   4.844   6.903 -0.1386 -0.0887 -0.1222
   57POPC   D2A  991   2.938   4.633   6.533 -0.3216 -0.0192 -0.2578
   57POPC   C3A  992   2.628   4.411   6.716  0.0824 -0.1415  0.0337
   57POPC   C4A  993   2.349   4.018   6.693  0.0792 -0.0119 -0.2387
   57POPC   C1B  994   2.447   4.949   6.652  0.1680  0.1004  0.0104
   57POPC   C2B  995   2.383   4.774   6.309  0.0795  0.0424 -0.1767
   57POPC   C3B  996   2.453   4.629   5.920  0.3459  0.0700  0.0541
   57POPC   C4B  997   2.394   4.321   5.719 -0.2597 -0.1340  0.0664
   58POPC   NC3  998  10.002   9.432   7.669 -0.0536  0.0358  0.2163
   58POPC   PO4  999   9.868   9.053   7.805  0.0232 -0.1291 -0.2043
   58POPC   GL1 1000   9.883   9.159   7.281 -0.1341  0.0280  0.1806
   58POPC   GL2 1001  10.055   9.492   7.169 -0.0976  0.1405 -0.1674
   58POPC   C1A 1002   9.745   9.110   6.848  0.1670  0.0682 -0.0446
   58POPC   D2A 1003   9.833   9.085   6.319  0.1677  0.2520 -0.2024
   58POPC   C3A 1004   9.585   9.164   6.026  0.1149  0.2579 -0.1117
   58POPC   C4A 1005   9.426   9.047   5.682 -0.1765 -0.2841 -0.0777
   58POPC   C1B 1006  10.166   9.453   6.671 -0.0566  0.0889  0.2055
   58POPC   C2B 1007  10.435   9.397   6.332 -0.1424  0.0216 -0.0971
   58POPC   C3B 1008  10.653   9.714   6.087  0.0665 -0.0724  0.0108
   58POPC   C4B 1009  10.690  10.040   5.736  0.1767  0.1972  0.0048
   59POPC   NC3 1010   0.499   2.035   8.359 -0.3522 -0.2674  0.1204
   59POPC   PO4 1011   0.798   2.042   7.988  0.3282  0.0326  0.1866
   59POPC   GL1 1012   0.778   2.087   7.540  0.0106  0.1426 -0.0557
   59POPC   GL2 1013   0.682   2.164   7.372 -0.1314 -0.3222  0.3751
   59POPC   C1A 1014   0.855   1.753   7.213 -0.2539 -0.2833 -0.0385
   59POPC   D2A 1015   0.714   1.619   6.770 -0.1177  0.2921 -0.0385
   59POPC   C3A 1016   1.017   1.434   6.499  0.1140 -0.2301  0.1982
   59POPC   C4A 1017   1.292   1.185   6.320 -0.0857 -0.1313  0.0226
   59POPC   C1B 1018   0.633   2.509   7.079 -0.1766 -0.0512 -0.2143
   59POPC   C2B 1019   0.568   2.807   6.856  0.2919 -0.1206  0.0196
   59POPC   C3B 1020   0.541   3.050   6.419  0.4389  0.0408 -0.0257
   59POPC   C4B 1021   0.130   3.275   6.212  0.0165 -0.2022 -0.1156
   60POPC   NC3 1022   9.033   7.661   7.810 -0.2577 -0.0951 -0.0793
   60POPC   PO4 1023   9.256   7.466   7.561  0.2171  0.1982  0.3227
   60POPC   GL1 1024   9.012   7.393   7.219  0.3735  0.1760  0.4133
   60POPC   GL2 1025   9.102   7.627   6.891  0.1159 -0.1224 -0.0554
   60POPC   C1A 1026   8.776   7.254   6.862  0.0165  0.1676  0.0152
   60POPC   D2A 1027   8.557   6.810   6.832  0.1335 -0.5158 -0.1024
   60POPC   C3A 1028   8.605   6.706   6.462 -0.0047 -0.1669 -0.1108
   60POPC   C4A 1029   8.608   6.741   6.074  0.1397  0.1893 -0.1123
   60POPC   C1B 1030   9.278   7.308   6.711  0.1867 -0.1694  0.2023
   60POPC   C2B 1031   9.506   7.092   6.440 -0.1689  0.3223 -0.0433
   60POPC   C3B 1032   9.497   7.103   5.980 -0.2191  0.0468 -0.0345
   60POPC   C4B 1033   9.693   6.953   5.621 -0.0306 -0.4726 -0.2537
   61POPC   NC3 1034   3.118   2.091   7.622  0.1032  0.0027 -0.0284
   61POPC   PO4 1035   2.863   1.702   7.701  0.1644  0.0633  0.0091
   61POPC   GL1 1036   2.618   1.618   7.357 -0.0617  0.1546  0.2776
   61POPC   GL2 1037   2.311   1.401   7.240  0.2286 -0.0301 -0.0556
   61POPC   C1A 1038   2.549   1.767   6.982  0.3632  0.3288  0.0843
   61POPC   D2A 1039   2.435   1.895   6.600 -0.0034 -0.0381  0.1011
   61POPC   C3A 1040   2.637   2.168   6.473 -0.1233 -0.1785 -0.1327
   61POPC   C4A 1041   2.755   2.491   6.199  0.0112 -0.0828  0.2651
   61POPC   C1B 1042   2.196   1.387   6.739 -0.0039  0.1058 -0.4393
   61POPC   C2B 1043   2.480   1.470   6.318 -0.0704  0.0834 -0.1342
   61POPC   C3B 1044   2.764   1.387   6.070  0.1334 -0.0330  0.2107
   61POPC   C4B 1045   3.184   1.394   5.834 -0.0223  0.1498  0.2960
   62POPC   NC3 1046   5.068   9.092   7.811 -0.2213  0.3385  0.2268
   62POPC   PO4 1047   4.940   8.664   7.651 -0.3195  0.1230 -0.1102
   62POPC   GL1 1048   5.230   8.648   7.270  0.1303 -0.1565  0.2823
   62POPC   GL2 1049   5.082   8.897   7.080 -0.1322  0.2428  0.2332
   62POPC   C1A 1050   5.321   8.635   6.783  0.1636 -0.1736  0.0968
   62POPC   D2A 1051   5.486   8.830   6.508  0.0013  0.1507 -0.0051
   62POPC   C3A 1052   5.577   8.843   6.084  0.4435 -0.1063  0.4382
   62POPC   C4A 1053   5.861   8.523   5.740 -0.1862 -0.3477 -0.1373
   62POPC   C1B 1054   4.737   9.207   6.845 -0.1119 -0.2046 -0.0595
   62POPC   C2B 1055   4.691   9.646   6.907  0.0351  0.3413  0.3141
   62POPC   C3B 1056   4.724  10.083   6.813  0.0305  0.1131 -0.0745
   62POPC   C4B 1057   4.616  10.462   6.613  0.0337  0.1938  0.3050
   63POPC   NC3 1058   6.422   5.527   7.373  0.2693  0.0115 -0.0305
   63POPC   PO4 1059   6.742   5.767   7.497 -0.0183  0.0251  0.2752
   63POPC   GL1 1060   6.861   5.681   6.992  0.4295 -0.0417  0.1816
   63POPC   GL2 1061   6.897   5.754   6.719  0.0038 -0.1145 -0.2894
   63POPC   C1A 1062   6.589   5.247   6.707  0.4079 -0.1077  0.0385
   63POPC   D2A 1063   6.484   5.112   6.319  0.0092 -0.0738  0.0869
   63POPC   C3A 1064   6.663   5.168   5.966 -0.0474 -0.3366 -0.0776
   63POPC   C4A 1065   6.923   5.485   5.617  0.1821  0.0260 -0.0351
   63POPC   C1B 1066   7.161   5.877   6.380  0.1308 -0.5768  0.0894
   63POPC   C2B 1067   7.238   5.628   5.966  0.1580 -0.1754 -0.0555
   63POPC   C3B 1068   7.422   5.557   5.703  0.3728 -0.3611  0.2658
   63POPC   C4B 1069   7.756   5.849   5.592  0.0673  0.2618  0.1484
   64POPC   NC3 1070   3.820  10.503   7.576 -0.0804 -0.4517  0.1138
   64POPC   PO4 1071   3.650  10.881   7.800 -0.2747 -0.0041  0.0993
   64POPC   GL1 1072   3.449  11.014   7.477 -0.4414 -0.1155 -0.2164
   64POPC   GL2 1073   3.408  10.752   7.368  0.1023 -0.0781 -0.1551
   64POPC   C1A 1074   3.552  11.212   7.159 -0.1423 -0.4589 -0.0879
   64POPC   D2A 1075   3.589  11.534   6.810  0.1579 -0.0047  0.0566
   64POPC   C3A 1076   3.662  11.462   6.410  0.1193  0.2778  0.0646
   64POPC   C4A 1077   3.631  11.582   5.918 -0.0038 -0.0386 -0.0134
   64POPC   C1B 1078   3.482  10.717   6.925 -0.0242  0.1644 -0.3435
   64POPC   C2B 1079   3.312  11.065   6.755 -0.0711  0.1078 -0.0803
   64POPC   C3B 1080   3.262  11.182   6.307 -0.1062 -0.2594 -0.1417
   64POPC   C4B 1081   3.451  11.056   5.914  0.0447 -0.0611 -0.1024
   65POPC   NC3 1082   0.464   5.946   7.414 -0.1623 -0.2311 -0.0307
   65POPC   PO4 1083   0.558   6.386   7.457  0.0664 -0.1052  0.2967
   65POPC   GL1 1084   0.552   6.284   7.073  0.0034 -0.0356  0.0014
   65POPC   GL2 1085   0.297   6.142   6.956 -0.0597 -0.1055 -0.2910
   65POPC   C1A 1086   0.687   6.534   6.767 -0.0670 -0.1429 -0.1849
   65POPC   D2A 1087   0.683   6.618   6.395 -0.3445 -0.0411  0.5033
   65POPC   C3A 1088   0.339   6.463   6.333 -0.0894 -0.2722  0.2345
   65POPC   C4A 1089  -0.080   6.394   6.098  0.1819 -0.3140  0.2172
   65POPC   C1B 1090   0.621   6.063   6.615 -0.0311 -0.2656 -0.1550
   65POPC   C2B 1091   0.723   6.177   6.087  0.0062 -0.0276 -0.1063
   65POPC   C3B 1092   0.849   6.519   5.711  0.1300 -0.1697  0.1438
   65POPC   C4B 1093   0.526   6.706   5.447 -0.0690 -0.0461  0.1767
   66POPC   NC3 1094   2.268   9.495   7.939  0.0864 -0.2226 -0.1158
   66POPC   PO4 1095   1.914   9.539   7.616 -0.0117 -0.1593  0.0591
   66POPC   GL1 1096   1.862   9.718   7.244  0.0801 -0.2204 -0.5150
   66POPC   GL2 1097   1.453   9.851   7.253  0.2066 -0.4510  0.1320
   66POPC   C1A 1098   1.751  10.082   6.935  0.0818  0.0062  0.2382
   66POPC   D2A 1099   1.867  10.068   6.422  0.1105  0.0547  0.3301
   66POPC   C3A 1100   1.778   9.627   6.153  0.1692  0.3245  0.0084
   66POPC   C4A 1101   2.020   9.339   6.289 -0.0945  0.1502  0.1953
   66POPC   C1B 1102   1.347   9.680   6.854  0.2420 -0.0759 -0.0851
   66POPC   C2B 1103   1.564   9.407   6.583 -0.1433  0.0189 -0.0262
   66POPC   C3B 1104   1.556   8.995   6.437 -0.0750 -0.0052 -0.2877
   66POPC   C4B 1105   1.601   8.531   6.543 -0.1377  0.1393 -0.4329
   67POPC   NC3 1106   9.035   7.929   7.287 -0.2296  0.0084  0.2700
   67POPC   PO4 1107   9.296   8.177   7.033  0.0709  0.0285 -0.2698
   67POPC   GL1 1108   9.426   8.294   6.656  0.0258  0.1543 -0.0108
   67POPC   GL2 1109   9.140   8.378   6.611  0.1210  0.0659 -0.1935
   67POPC   C1A 1110   9.717   8.548   6.496  0.0635 -0.3884 -0.3187
   67POPC   D2A 1111  10.140   8.470   6.325 -0.2478  0.0518 -0.1661
   67POPC   C3A 1112  10.427   8.210   6.541  0.0068 -0.0297  0.0631
   67POPC   C4A 1113  10.783   8.490   6.609 -0.2629  0.1597 -0.1210
   67POPC   C1B 1114   8.829   8.432   6.340 -0.2527 -0.3282  0.0137
   67POPC   C2B 1115   8.470   8.582   6.013 -0.0958  0.1248 -0.1574
   67POPC   C3B 1116   8.233   8.274   5.787 -0.2260 -0.0717  0.1933
   67POPC   C4B 1117   7.872   7.990   5.717  0.0793 -0.1476  0.2252
   68POPC   NC3 1118   4.909   0.954   7.978  0.3542 -0.1929  0.0552
   68POPC   PO4 1119   4.772   0.705   7.636 -0.3794  0.4473 -0.0233
   68POPC   GL1 1120   4.711   0.636   7.282 -0.1329 -0.0809 -0.3014
   68POPC   GL2 1121   4.583   0.321   7.219  0.1035  0.0184 -0.0127
   68POPC   C1A 1122   4.465   0.864   6.944 -0.2388  0.0993  0.1703
   68POPC   D2A 1123   4.558   0.960   6.429  0.0420  0.1787  0.1440
   68POPC   C3A 1124   4.827   1.241   6.169 -0.2287 -0.0177 -0.0791
   68POPC   C4A 1125   5.078   1.315   5.829  0.2793  0.0987 -0.1426
   68POPC   C1B 1126   4.405   0.281   6.829 -0.3357 -0.0974  0.0812
   68POPC   C2B 1127   4.346   0.513   6.475  0.1474 -0.1031  0.3723
   68POPC   C3B 1128   4.410   0.642   6.004  0.1653 -0.5176  0.2492
   68POPC   C4B 1129   4.636   0.864   5.773 -0.0140  0.2659 -0.1678
   69POPC   NC3 1130   8.054   4.258   7.864 -0.1052 -0.2928 -0.1572
   69POPC   PO4 1131   7.666   4.555   7.732  0.2745 -0.1246 -0.3875
   69POPC   GL1 1132   7.710   4.504   7.330  0.1466 -0.1008 -0.0467
   69POPC   GL2 1133   7.776   4.171   7.356 -0.1867  0.2025  0.1184
   69POPC   C1A 1134   7.708   4.595   6.939  0.3344 -0.4105 -0.0103
   69POPC   D2A 1135   7.921   4.788   6.587  0.1264 -0.0917  0.0111
   69POPC   C3A 1136   7.943   5.178   6.354  0.2175  0.2226  0.3509
   69POPC   C4A 1137   7.877   5.475   6.001  0.0387  0.0462  0.0653
   69POPC   C1B 1138   7.847   4.030   6.921 -0.0167  0.3272 -0.1422
   69POPC   C2B 1139   7.889   4.117   6.457 -0.1423 -0.1128  0.0976
   69POPC   C3B 1140   7.847   4.496   6.150 -0.2135 -0.0053  0.1527
   69POPC   C4B 1141   7.949   4.733   5.790  0.1328  0.1895 -0.1482
   70POPC   NC3 1142   1.838   6.535   7.426 -0.0563  0.1166 -0.4363
   70POPC   PO4 1143   2.117   6.771   7.397  0.3796  0.0466 -0.1306
   70POPC   GL1 1144   2.475   6.715   7.089  0.0450 -0.2878 -0.1696
   70POPC   GL2 1145   2.872   6.799   7.118  0.3651 -0.1739 -0.2709
   70POPC   C1A 1146   2.505   6.408   6.806  0.0342 -0.1267  0.3113
   70POPC   D2A 1147   2.660   6.129   6.536  0.2679 -0.5483  0.0153
   70POPC   C3A 1148   2.852   6.279   6.270 -0.2071  0.2344  0.0077
   70POPC   C4A 1149   2.680   6.245   5.770  0.0311  0.0715  0.0327
   70POPC   C1B 1150   3.011   6.414   6.836 -0.1525  0.0727 -0.1927
   70POPC   C2B 1151   3.268   6.224   6.525 -0.0724 -0.2407 -0.0075
   70POPC   C3B 1152   3.432   6.231   6.047  0.0202 -0.1535  0.0795
   70POPC   C4B 1153   3.673   6.066   5.870  0.1023 -0.1102 -0.1992
   71POPC   NC3 1154   8.631  10.108   7.834 -0.0015  0.0886 -0.2110
   71POPC   PO4 1155   8.241  10.293   7.903 -0.0446  0.2465  0.2327
   71POPC   GL1 1156   7.894  10.215   7.479  0.1351 -0.4439  0.2039
   71POPC   GL2 1157   7.689  10.497   7.498  0.2035  0.1344 -0.1625
   71POPC   C1A 1158   7.755   9.976   7.221  0.1221 -0.0604 -0.2023
   71POPC   D2A 1159   7.555   9.648   6.841 -0.2800  0.0730  0.1184
   71POPC   C3A 1160   7.407   9.807   6.425 -0.1446 -0.0243 -0.0065
   71POPC   C4A 1161   7.597   9.600   6.012  0.2337  0.3261 -0.2320
   71POPC   C1B 1162   7.510  10.451   7.125  0.2787  0.0972 -0.2283
   71POPC   C2B 1163   7.216  10.369   6.724 -0.0588  0.2861 -0.1400
   71POPC   C3B 1164   7.186  10.299   6.332 -0.1253 -0.2403  0.0223
   71POPC   C4B 1165   7.166  10.019   5.997 -0.1158  0.0894 -0.1500
   72POPC   NC3 1166   5.089   3.717   8.249 -0.0404  0.1663 -0.2521
   72POPC   PO4 1167   4.757   3.572   8.038  0.0340  0.0196 -0.0640
   72POPC   GL1 1168   4.942   3.407   7.550  0.0227 -0.1770  0.2138
   72POPC   GL2 1169   4.743   3.265   7.325  0.2977  0.1067  0.0768
   72POPC   C1A 1170   5.378   3.160   7.395 -0.1622 -0.1970  0.4043
   72POPC   D2A 1171   5.772   3.147   7.200  0.2411  0.0969  0.2022
   72POPC   C3A 1172   5.786   3.215   6.771  0.1173 -0.0505 -0.0539
   72POPC   C4A 1173   5.836   3.164   6.372  0.4383  0.0522 -0.2624
   72POPC   C1B 1174   5.047   3.265   7.073 -0.1843  0.1812  0.1135
   72POPC   C2B 1175   5.280   3.379   6.853 -0.1068 -0.3211  0.0321
   72POPC   C3B 1176   5.292   3.620   6.472  0.3434 -0.2447  0.1479
   72POPC   C4B 1177   5.388   3.718   6.094 -0.2233  0.1632  0.2830
   73POPC   NC3 1178   5.505   5.566   7.303 -0.3231  0.0793 -0.0844
   73POPC   PO4 1179   5.102   5.377   7.224  0.0178 -0.3683  0.0837
   73POPC   GL1 1180   5.118   5.261   6.873  0.0546 -0.0362  0.2167
   73POPC   GL2 1181   5.225   4.922   6.780  0.1804 -0.0425 -0.3654
   73POPC   C1A 1182   5.155   5.203   6.401 -0.0782 -0.2438 -0.0177
   73POPC   D2A 1183   5.241   4.979   5.997  0.2198  0.3258  0.3152
   73POPC   C3A 1184   5.463   4.682   6.058 -0.1923 -0.0069  0.3295
   73POPC   C4A 1185   5.366   4.235   6.127  0.0148  0.2518  0.0999
   73POPC   C1B 1186   5.580   4.873   6.488 -0.1036 -0.0650  0.1575
   73POPC   C2B 1187   5.901   5.088   6.136 -0.2164  0.0506 -0.3768
   73POPC   C3B 1188   6.273   4.851   5.888  0.0281  0.1079  0.0761
   73POPC   C4B 1189   6.728   4.701   6.080 -0.0483  0.0797 -0.2852
   74POPC   NC3 1190   4.675   5.278   7.610 -0.2292 -0.1471  0.3859
   74POPC   PO4 1191   4.904   4.819   7.639 -0.1049  0.1119  0.1242
   74POPC   GL1 1192   4.798   4.638   7.215  0.1725  0.1516 -0.0047
   74POPC   GL2 1193   4.830   4.934   7.061 -0.1172  0.0474 -0.2022
   74POPC   C1A 1194   4.828   4.409   6.801  0.1941 -0.2791 -0.0291
   74POPC   D2A 1195   4.573   4.332   6.398  0.0497  0.2683 -0.3810
   74POPC   C3A 1196   4.324   4.143   6.163  0.1923  0.1359 -0.2088
   74POPC   C4A 1197   4.168   4.162   5.646  0.0220 -0.2575 -0.0458
   74POPC   C1B 1198   4.767   4.939   6.638 -0.4954 -0.0435 -0.0462
   74POPC   C2B 1199   4.446   4.788   6.289  0.0224  0.2744  0.1990
   74POPC   C3B 1200   4.293   5.078   5.962 -0.2419  0.0788  0.3295
   74POPC   C4B 1201   4.039   5.336   5.730 -0.0467  0.1126 -0.0652
   75POPC   NC3 1202   4.577   7.901   7.584 -0.3371  0.1167  0.0400
   75POPC   PO4 1203   4.369   7.523   7.335 -0.2515  0.2734  0.0936
   75POPC   GL1 1204   4.159   7.890   7.182 -0.0343 -0.3857 -0.4661
   75POPC   GL2 1205   4.178   7.862   6.890 -0.1287  0.0851  0.2139
   75POPC   C1A 1206   3.781   8.050   6.991  0.0130 -0.1024  0.2906
   75POPC   D2A 1207   3.416   8.095   6.697 -0.0049 -0.0881  0.1834
   75POPC   C3A 1208   3.523   8.112   6.275 -0.0319 -0.2193 -0.1188
   75POPC   C4A 1209   3.281   8.029   5.878  0.2115  0.2281 -0.5443
   75POPC   C1B 1210   4.292   7.773   6.443 -0.0892  0.0063  0.2927
   75POPC   C2B 1211   4.465   7.667   6.047  0.0233  0.0095 -0.0784
   75POPC   C3B 1212   4.850   7.705   5.791  0.0662  0.0655 -0.3624
   75POPC   C4B 1213   5.346   7.658   5.846  0.0262  0.3774 -0.3181
   76POPC   NC3 1214   1.429   9.391   7.608  0.2783 -0.2591 -0.0344
   76POPC   PO4 1215   0.966   9.473   7.762 -0.1138 -0.1791  0.2059
   76POPC   GL1 1216   1.068   9.460   7.247  0.0625  0.0633  0.0108
   76POPC   GL2 1217   1.214   9.183   7.143 -0.0988  0.0977 -0.1200
   76POPC   C1A 1218   0.969   9.435   6.762 -0.1065  0.2280  0.2003
   76POPC   D2A 1219   0.978   9.295   6.327 -0.0907 -0.2223  0.2703
   76POPC   C3A 1220   1.276   9.438   6.093  0.1254  0.1794 -0.1341
   76POPC   C4A 1221   1.561   9.177   5.950  0.1838 -0.0929  0.1164
   76POPC   C1B 1222   1.108   8.942   6.831  0.1022 -0.2181 -0.3381
   76POPC   C2B 1223   1.125   8.838   6.410  0.1786 -0.2694  0.1304
   76POPC   C3B 1224   0.967   8.747   6.042 -0.2963  0.0942 -0.1153
   76POPC   C4B 1225   1.108   8.909   5.581  0.1459  0.0987 -0.1463
   77POPC   NC3 1226   0.519   4.589   7.913  0.0907  0.6891 -0.2106
   77POPC   PO4 1227   0.434   4.646   7.531 -0.0759 -0.3357 -0.2643
   77POPC   GL1 1228   0.317   4.714   7.197 -0.1289 -0.0243  0.1607
   77POPC   GL2 1229   0.396   4.422   7.036  0.0870 -0.0015 -0.0111
   77POPC   C1A 1230   0.151   4.752   6.778 -0.1863 -0.3424  0.2172
   77POPC   D2A 1231  -0.203   4.589   6.520  0.1146  0.0130 -0.0342
   77POPC   C3A 1232  -0.191   4.556   6.134 -0.1381  0.0114 -0.0173
   77POPC   C4A 1233  -0.332   4.246   5.864  0.1300  0.1371 -0.3384
   77POPC   C1B 1234   0.745   4.537   6.952 -0.0289  0.2107 -0.2064
   77POPC   C2B 1235   1.052   4.560   6.547  0.3645  0.0418  0.0145
   77POPC   C3B 1236   1.190   4.485   6.151 -0.1888 -0.1129 -0.3142
   77POPC   C4B 1237   1.500   4.138   6.008 -0.0737  0.0845 -0.1774
   78POPC   NC3 1238   5.657   1.942   8.681 -0.3482  0.0434 -0.0583
   78POPC   PO4 1239   5.973   1.647   8.932  0.0394 -0.3690 -0.2800
   78POPC   GL1 1240   6.208   1.831   8.592  0.0770  0.2740 -0.2511
   78POPC   GL2 1241   6.341   1.509   8.608 -0.5783 -0.2134  0.0939
   78POPC   C1A 1242   6.380   1.870   8.139 -0.3260  0.1205  0.1778
   78POPC   D2A 1243   6.116   2.017   7.722 -0.0301  0.2319 -0.1156
   78POPC   C3A 1244   6.395   1.880   7.307 -0.0725  0.0871  0.4094
   78POPC   C4A 1245   6.626   1.653   7.156  0.1790 -0.2134 -0.1101
   78POPC   C1B 1246   6.226   1.351   8.282  0.1810 -0.0431 -0.2723
   78POPC   C2B 1247   6.005   1.432   7.916  0.1592  0.1263  0.0329
   78POPC   C3B 1248   6.193   1.454   7.485  0.1959 -0.3524  0.0267
   78POPC   C4B 1249   6.163   1.446   7.095 -0.2107  0.4513  0.1379
   79POPC   NC3 1250   0.984   6.022   7.435 -0.2814 -0.1586 -0.0779
   79POPC   PO4 1251   1.411   6.289   7.385  0.2649  0.2231 -0.2433
   79POPC   GL1 1252   1.314   6.211   6.985  0.0914  0.1225  0.0094
   79POPC   GL2 1253   1.017   6.177   6.894  0.2992  0.0295 -0.0755
   79POPC   C1A 1254   1.318   5.930   6.653 -0.1226  0.0060 -0.0041
   79POPC   D2A 1255   1.346   5.961   6.184  0.2448  0.0890 -0.0846
   79POPC   C3A 1256   1.685   5.954   5.955  0.0625  0.0517 -0.1442
   79POPC   C4A 1257   1.872   5.679   5.736  0.1562  0.2083  0.0419
   79POPC   C1B 1258   1.067   6.375   6.522 -0.0908 -0.2395  0.0615
   79POPC   C2B 1259   1.173   6.391   6.095  0.1120  0.1991 -0.1050
   79POPC   C3B 1260   1.192   6.169   5.734  0.2294  0.1698 -0.0999
   79POPC   C4B 1261   1.041   5.868   5.470  0.4134 -0.0361  0.1154
   80POPC   NC3 1262   1.032   5.285   8.120 -0.0003  0.0588  0.2027
   80POPC   PO4 1263   1.377   5.465   8.005 -0.1302 -0.3071  0.1923
   80POPC   GL1 1264   1.656   5.158   7.676 -0.3108 -0.2749  0.1031
   80POPC   GL2 1265   1.769   5.351   7.405 -0.0287  0.0518 -0.0750
   80POPC   C1A 1266   1.570   4.765   7.451  0.0236 -0.2886  0.2773
   80POPC   D2A 1267   1.185   4.609   7.184  0.1079 -0.0515 -0.0599
   80POPC   C3A 1268   1.047   4.928   6.920 -0.1474 -0.1338 -0.0534
   80POPC   C4A 1269   0.969   5.197   6.723 -0.0376  0.1203 -0.0946
   80POPC   C1B 1270   1.583   5.206   7.009  0.1343  0.2965 -0.1241
   80POPC   C2B 1271   1.587   4.744   6.931  0.0013 -0.1280 -0.0337
   80POPC   C3B 1272   1.617   4.316   7.210 -0.0681  0.2520 -0.1048
   80POPC   C4B 1273   1.823   4.156   7.547  0.0874 -0.0107  0.4111
   81POPC   NC3 1274   0.634   0.150   8.055  0.1042  0.0409  0.4332
   81POPC   PO4 1275   0.660  -0.318   7.886  0.2114 -0.0061 -0.1726
   81POPC   GL1 1276   0.712  -0.360   7.408  0.1367  0.0630  0.1865
   81POPC   GL2 1277   0.620  -0.726   7.289  0.0764  0.2024 -0.1088
   81POPC   C1A 1278   0.679  -0.270   6.980  0.2568  0.1073  0.1144
   81POPC   D2A 1279   0.598  -0.376   6.601  0.3522 -0.0929  0.0522
   81POPC   C3A 1280   0.661  -0.563   6.248  0.0561  0.0663  0.0014
   81POPC   C4A 1281   0.419  -0.831   5.963  0.1657 -0.1104 -0.1191
   81POPC   C1B 1282   0.976  -0.687   7.106 -0.0524  0.1956  0.2591
   81POPC   C2B 1283   1.289  -0.461   6.880  0.0555  0.1225 -0.0482
   81POPC   C3B 1284   1.551  -0.214   6.575  0.2981  0.2588  0.0181
   81POPC   C4B 1285   1.706  -0.232   6.168 -0.3236 -0.1209  0.1257
   82POPC   NC3 1286   2.423   8.748   8.385 -0.1550 -0.2250 -0.2181
   82POPC   PO4 1287   2.460   8.582   7.957  0.0099 -0.0421 -0.0739
   82POPC   GL1 1288   2.570   8.549   7.608  0.0909  0.0873  0.0781
   82POPC   GL2 1289   2.896   8.531   7.349  0.3077  0.1053 -0.2107
   82POPC   C1A 1290   2.537   8.856   7.267 -0.2131 -0.0097  0.2594
   82POPC   D2A 1291   2.233   8.855   7.059  0.1422 -0.0028  0.1272
   82POPC   C3A 1292   2.102   8.726   6.530 -0.2703  0.1977 -0.4010
   82POPC   C4A 1293   1.864   8.629   6.165 -0.0550  0.0567 -0.0281
   82POPC   C1B 1294   2.848   8.660   6.952  0.2718  0.1786  0.0900
   82POPC   C2B 1295   3.170   8.665   6.578 -0.0839 -0.3399  0.1712
   82POPC   C3B 1296   3.415   9.048   6.453  0.1229  0.0250  0.0577
   82POPC   C4B 1297   3.669   9.199   6.091 -0.0825 -0.1981  0.0891
   83POPC   NC3 1298   7.588   7.143   7.460  0.1867  0.1175  0.3321
   83POPC   PO4 1299   8.050   7.211   7.542 -0.2242 -0.1022 -0.2005
   83POPC   GL1 1300   7.990   7.046   7.135 -0.0674 -0.0668 -0.4778
   83POPC   GL2 1301   7.738   7.010   6.983  0.2665 -0.0480  0.2926
   83POPC   C1A 1302   8.177   7.146   6.717 -0.0315  0.0346 -0.0666
   83POPC   D2A 1303   8.445   7.237   6.482 -0.0857  0.2747  0.0265
   83POPC   C3A 1304   8.640   7.589   6.136 -0.1439  0.0585  0.0841
   83POPC   C4A 1305   8.770   7.530   5.789  0.2575 -0.1781 -0.1301
   83POPC   C1B 1306   7.623   6.700   6.793  0.0076 -0.2120  0.3601
   83POPC   C2B 1307   7.723   6.587   6.325 -0.0029  0.1306 -0.1308
   83POPC   C3B 1308   7.646   6.357   5.986  0.2423 -0.2347 -0.1706
   83POPC   C4B 1309   7.641   6.459   5.547 -0.2588  0.2630  0.0782
   84POPC   NC3 1310   7.324   3.370   8.142  0.2615  0.0549 -0.0293
   84POPC   PO4 1311   7.094   2.996   8.066  0.3205  0.0978 -0.2195
   84POPC   GL1 1312   6.948   2.824   7.650  0.0592  0.0606 -0.0360
   84POPC   GL2 1313   6.702   2.660   7.812  0.2234  0.0717  0.0594
   84POPC   C1A 1314   6.697   2.789   7.262 -0.3208  0.2097 -0.0273
   84POPC   D2A 1315   6.288   2.416   7.061  0.0473 -0.0640 -0.0680
   84POPC   C3A 1316   5.876   2.617   7.049 -0.0382 -0.1493  0.3590
   84POPC   C4A 1317   5.590   2.349   6.874  0.2999  0.0311  0.1794
   84POPC   C1B 1318   7.115   2.342   7.811 -0.1047 -0.0677 -0.1163
   84POPC   C2B 1319   7.403   2.440   7.653 -0.0082  0.1279  0.1135
   84POPC   C3B 1320   7.630   2.298   7.285 -0.3586 -0.1186 -0.1058
   84POPC   C4B 1321   7.848   2.039   6.882 -0.1164 -0.2727 -0.0532
   85POPC   NC3 1322   3.009   2.928   8.081  0.0989  0.2431 -0.1870
   85POPC   PO4 1323   3.262   3.212   8.179  0.2577 -0.2183  0.1317
   85POPC   GL1 1324   3.252   3.444   7.686 -0.1547  0.3494 -0.4740
   85POPC   GL2 1325   3.111   3.635   7.566  0.2713 -0.0133 -0.2934
   85POPC   C1A 1326   3.110   3.084   7.314  0.1016  0.1338 -0.6024
   85POPC   D2A 1327   2.866   2.754   7.136  0.0871 -0.2177 -0.0126
   85POPC   C3A 1328   3.017   2.629   6.776 -0.1053  0.1970 -0.0591
   85POPC   C4A 1329   3.137   2.735   6.384 -0.2096 -0.1353  0.4486
   85POPC   C1B 1330   3.425   3.480   7.171 -0.3024  0.0273  0.0907
   85POPC   C2B 1331   3.574   3.302   6.772  0.1178 -0.0892 -0.0730
   85POPC   C3B 1332   3.624   3.076   6.392  0.2629 -0.0557  0.2564
   85POPC   C4B 1333   3.406   3.024   5.953 -0.0663 -0.1882  0.1965
   86POPC   NC3 1334   6.929   6.263   7.379 -0.1145 -0.1011 -0.2342
   86POPC   PO4 1335   6.495   6.097   7.199  0.1616 -0.0532 -0.0583
   86POPC   GL1 1336   6.786   6.240   6.895 -0.1037 -0.1355 -0.2078
   86POPC   GL2 1337   7.188   6.213   6.936  0.1522  0.1303  0.1505
   86POPC   C1A 1338   6.591   6.242   6.456  0.2884 -0.0220 -0.0058
   86POPC   D2A 1339   6.117   6.358   6.233  0.1042 -0.1373  0.3038
   86POPC   C3A 1340   6.124   6.502   5.933  0.2020  0.1516  0.2442
   86POPC   C4A 1341   5.894   6.852   5.729 -0.6761 -0.2183  0.0159
   86POPC   C1B 1342   7.302   6.470   6.550 -0.5356  0.1830  0.1956
   86POPC   C2B 1343   7.180   6.373   6.173 -0.1925  0.1268  0.1238
   86POPC   C3B 1344   6.831   6.248   6.028  0.0011 -0.2241 -0.0633
   86POPC   C4B 1345   6.388   6.060   5.956 -0.2549 -0.1213 -0.0538
   87POPC   NC3 1346   5.473   0.295   8.042  0.1514  0.2846 -0.0073
   87POPC   PO4 1347   5.069   0.404   7.899  0.2527  0.1779 -0.0266
   87POPC   GL1 1348   5.276   0.559   7.569  0.3609 -0.0832  0.2043
   87POPC   GL2 1349   5.288   0.925   7.505 -0.0091  0.2980 -0.0776
   87POPC   C1A 1350   5.173   0.564   7.077 -0.2331 -0.2690 -0.2395
   87POPC   D2A 1351   4.836   0.509   6.748 -0.0048  0.0521 -0.1292
   87POPC   C3A 1352   4.865   0.539   6.345 -0.0523 -0.3454  0.1466
   87POPC   C4A 1353   5.054   0.824   6.124  0.2128 -0.1549  0.2412
   87POPC   C1B 1354   5.386   1.117   7.076  0.4563 -0.0242 -0.0552
   87POPC   C2B 1355   5.573   0.807   6.804  0.0060 -0.0015  0.3500
   87POPC   C3B 1356   5.848   0.642   6.566 -0.1263  0.0764 -0.3518
   87POPC   C4B 1357   6.253   0.437   6.610  0.3589 -0.1348  0.2734
   88POPC   NC3 1358   8.421   5.061   7.870  0.4144 -0.1299 -0.3924
   88POPC   PO4 1359   8.128   4.850   7.586 -0.3504 -0.1173  0.3315
   88POPC   GL1 1360   8.176   4.804   7.162  0.1088 -0.3052 -0.2700
   88POPC   GL2 1361   7.889   4.972   7.110 -0.0117 -0.0440 -0.1149
   88POPC   C1A 1362   8.326   4.934   6.820 -0.1434  0.2205  0.0013
   88POPC   D2A 1363   8.626   4.689   6.726  0.1023 -0.1995  0.2416
   88POPC   C3A 1364   8.684   4.289   6.607 -0.0035 -0.1355 -0.1565
   88POPC   C4A 1365   8.504   3.967   6.276 -0.2113  0.1063 -0.0535
   88POPC   C1B 1366   7.725   5.301   6.850 -0.2403 -0.1183  0.0511
   88POPC   C2B 1367   7.364   5.452   6.532 -0.1963  0.2641  0.2316
   88POPC   C3B 1368   6.902   5.504   6.297  0.1122 -0.1211 -0.2478
   88POPC   C4B 1369   6.762   5.740   5.996 -0.1058 -0.1419 -0.1745
   89POPC   NC3 1370   7.379   8.093   7.701 -0.1971  0.0275 -0.0664
   89POPC   PO4 1371   7.073   8.582   7.784 -0.2037  0.1678  0.0911
   89POPC   GL1 1372   6.849   8.524   7.378 -0.1397  0.1112  0.0331
   89POPC   GL2 1373   6.739   8.217   7.300 -0.0784  0.3111 -0.0021
   89POPC   C1A 1374   6.863   8.440   6.901  0.1317 -0.1630  0.1386
   89POPC   D2A 1375   6.868   8.046   6.705  0.3725 -0.2031  0.1396
   89POPC   C3A 1376   7.160   7.987   6.228 -0.1682 -0.0997  0.1133
   89POPC   C4A 1377   7.494   8.175   6.028 -0.2561 -0.1281 -0.1303
   89POPC   C1B 1378   6.445   7.934   6.967  0.2093 -0.0298  0.0068
   89POPC   C2B 1379   6.305   7.962   6.566 -0.0254 -0.2942  0.0540
   89POPC   C3B 1380   6.023   8.201   6.367 -0.1310 -0.3189 -0.0105
   89POPC   C4B 1381   5.913   8.539   6.281  0.0664 -0.0958  0.0037
   90POPC   NC3 1382   2.067   4.652   8.344 -0.1817 -0.0856  0.2273
   90POPC   PO4 1383   2.493   4.634   8.125 -0.2126  0.2261 -0.2268
   90POPC   GL1 1384   2.480   4.676   7.588  0.1081  0.1676  0.3934
   90POPC   GL2 1385   2.765   4.485   7.584  0.2456 -0.1014 -0.2140
   90POPC   C1A 1386   2.419   4.337   7.271 -0.0717  0.2213  0.1494
   90POPC   D2A 1387   2.092   4.067   7.138  0.0216 -0.1679  0.4296
   90POPC   C3A 1388   1.783   4.008   6.867 -0.0064 -0.0400 -0.0563
   90POPC   C4A 1389   1.827   3.875   6.381 -0.0859 -0.2970  0.0348
   90POPC   C1B 1390   2.955   4.432   7.154 -0.0465  0.1325  0.0140
   90POPC   C2B 1391   3.168   4.261   6.755 -0.3251 -0.2805  0.0601
   90POPC   C3B 1392   3.387   3.959   6.536  0.0558  0.1105  0.0207
   90POPC   C4B 1393   3.511   3.589   6.277 -0.0293 -0.1681 -0.2602
   91POPC   NC3 1394   3.893   6.381   7.293 -0.0809 -0.0150 -0.0275
   91POPC   PO4 1395   4.114   6.180   7.660  0.0387  0.1067  0.1727
   91POPC   GL1 1396   4.246   5.970   7.298 -0.1720  0.0575 -0.1861
   91POPC   GL2 1397   4.260   6.138   7.010 -0.0268  0.2153 -0.0068
   91POPC   C1A 1398   4.116   5.657   6.967  0.0508 -0.2150  0.1355
   91POPC   D2A 1399   4.276   5.178   6.766  0.3029 -0.2513 -0.1573
   91POPC   C3A 1400   3.995   4.996   6.503 -0.0002 -0.2168  0.0182
   91POPC   C4A 1401   3.795   5.012   6.156 -0.3028  0.0412  0.1186
   91POPC   C1B 1402   4.120   6.112   6.576 -0.1968  0.4209 -0.2916
   91POPC   C2B 1403   3.982   6.323   6.159 -0.0426 -0.0569  0.2723
   91POPC   C3B 1404   4.258   6.599   5.871 -0.1119  0.2040 -0.1313
   91POPC   C4B 1405   4.715   6.589   5.683 -0.1454 -0.1106  0.1471
   92POPC   NC3 1406   2.484   1.948   8.056 -0.0020 -0.1645  0.1231
   92POPC   PO4 1407   2.654   2.216   7.671  0.0584  0.1325 -0.3426
   92POPC   GL1 1408   2.725   2.238   7.252  0.5060  0.1283 -0.0023
   92POPC   GL2 1409   2.935   2.035   7.125  0.3862 -0.0234  0.0976
   92POPC   C1A 1410   2.535   2.318   6.934 -0.0597  0.0102 -0.1253
   92POPC   D2A 1411   2.537   2.644   6.608 -0.1976  0.2258  0.0483
   92POPC   C3A 1412   2.783   3.030   6.644 -0.0537  0.3287 -0.0998
   92POPC   C4A 1413   3.098   3.127   6.797  0.0703  0.1023  0.1224
   92POPC   C1B 1414   3.064   2.084   6.718 -0.0263 -0.3230  0.2079
   92POPC   C2B 1415   3.327   2.293   6.508  0.2721 -0.2467  0.0547
   92POPC   C3B 1416   3.349   2.451   6.073  0.4840 -0.2833 -0.1061
   92POPC   C4B 1417   3.312   2.581   5.601  0.0815 -0.1774 -0.0949
   93POPC   NC3 1418   0.572   1.036   8.156 -0.0729  0.2329 -0.1042
   93POPC   PO4 1419   0.352   1.320   7.843 -0.1292 -0.0789  0.1862
   93POPC   GL1 1420   0.236   1.414   7.513 -0.0305 -0.0429 -0.1342
   93POPC   GL2 1421   0.417   1.550   7.288 -0.1239 -0.0296 -0.0670
   93POPC   C1A 1422   0.078   1.181   7.172  0.0244  0.3556  0.0806
   93POPC   D2A 1423   0.027   0.901   6.807  0.4446 -0.3443  0.0591
   93POPC   C3A 1424  -0.055   1.029   6.452 -0.2625  0.3545 -0.0228
   93POPC   C4A 1425  -0.062   1.378   6.379 -0.0787  0.1665 -0.1527
   93POPC   C1B 1426   0.129   1.614   6.834  0.0335  0.2545  0.1557
   93POPC   C2B 1427   0.034   1.920   6.558 -0.0095 -0.1543 -0.1264
   93POPC   C3B 1428  -0.276   1.934   6.229  0.0349  0.0952 -0.0794
   93POPC   C4B 1429  -0.703   1.956   6.073 -0.0935 -0.5348  0.1812
   94POPC   NC3 1430   7.113   7.800   7.020  0.2130 -0.0129 -0.3222
   94POPC   PO4 1431   7.388   7.409   6.989 -0.2704 -0.1363  0.0124
   94POPC   GL1 1432   7.202   7.537   6.609  0.1198  0.3959  0.1855
   94POPC   GL2 1433   6.895   7.413   6.699 -0.0330 -0.0859  0.2000
   94POPC   C1A 1434   7.183   7.507   6.161  0.0623 -0.3925 -0.3244
   94POPC   D2A 1435   7.001   7.734   5.797 -0.3139 -0.0426  0.2565
   94POPC   C3A 1436   6.821   7.479   5.543  0.0495  0.1175  0.0612
   94POPC   C4A 1437   6.496   7.183   5.482  0.2280  0.0396  0.3200
   94POPC   C1B 1438   6.766   7.202   6.283 -0.0479  0.0037  0.0658
   94POPC   C2B 1439   6.916   7.195   5.900 -0.2374 -0.3609  0.1640
   94POPC   C3B 1440   7.272   7.304   5.714  0.0515  0.0246  0.0894
   94POPC   C4B 1441   7.611   7.580   5.855 -0.2374  0.0219  0.2109
   95POPC   NC3 1442   1.447   1.473   7.711  0.0584 -0.2253 -0.0157
   95POPC   PO4 1443   1.914   1.524   7.550 -0.1636 -0.1611  0.1468
   95POPC   GL1 1444   1.849   1.753   7.259  0.1378 -0.1037 -0.0156
   95POPC   GL2 1445   1.603   1.953   7.162 -0.0260 -0.1092  0.0761
   95POPC   C1A 1446   2.014   1.880   6.906 -0.0962  0.4888 -0.2401
   95POPC   D2A 1447   1.977   1.710   6.472  0.0735 -0.0370 -0.0866
   95POPC   C3A 1448   2.296   1.910   6.141  0.1201  0.2032  0.1594
   95POPC   C4A 1449   2.421   2.220   5.888  0.0927  0.0640  0.1275
   95POPC   C1B 1450   1.603   2.067   6.674  0.3866 -0.2110  0.1325
   95POPC   C2B 1451   1.500   1.773   6.340 -0.0897 -0.1163 -0.2652
   95POPC   C3B 1452   1.094   1.692   6.099 -0.0562  0.4684  0.1409
   95POPC   C4B 1453   0.808   1.443   5.929  0.0047  0.2350  0.2128
   96POPC   NC3 1454   9.810   6.834   7.344 -0.1200 -0.0376  0.0415
   96POPC   PO4 1455   9.442   6.546   7.298  0.1426 -0.1281 -0.2776
   96POPC   GL1 1456   9.440   6.479   6.859  0.2260  0.1255 -0.1955
   96POPC   GL2 1457   9.386   6.168   6.827  0.1149  0.0443  0.0883
   96POPC   C1A 1458   9.609   6.545   6.436  0.1359  0.3651  0.0915
   96POPC   D2A 1459   9.668   6.554   5.941  0.3433  0.0670  0.3256
   96POPC   C3A 1460   9.293   6.661   5.673  0.2684 -0.2449 -0.1000
   96POPC   C4A 1461   8.903   6.421   5.771  0.1566 -0.1130  0.1045
   96POPC   C1B 1462   9.876   6.161   6.585  0.2269 -0.1154  0.1333
   96POPC   C2B 1463  10.273   6.044   6.297  0.0377  0.0893 -0.0235
   96POPC   C3B 1464  10.325   5.835   5.937  0.0390  0.2786  0.0486
   96POPC   C4B 1465  10.108   5.342   5.819 -0.1082 -0.2504  0.1420
   97POPC   NC3 1466   6.919   7.261   7.217 -0.0593  0.2308 -0.3279
   97POPC   PO4 1467   7.160   6.982   7.236 -0.0345  0.0841  0.0773
   97POPC   GL1 1468   7.069   6.918   6.832 -0.0270  0.0205 -0.2304
   97POPC   GL2 1469   7.257   7.000   6.619  0.3897 -0.1896 -0.2941
   97POPC   C1A 1470   6.825   6.665   6.533 -0.1621  0.0140  0.1700
   97POPC   D2A 1471   6.472   6.739   6.319  0.1371 -0.1011  0.0418
   97POPC   C3A 1472   6.591   6.733   5.963  0.1147 -0.2138 -0.1367
   97POPC   C4A 1473   6.572   6.448   5.665  0.0945 -0.1814 -0.1106
   97POPC   C1B 1474   7.242   6.897   6.241 -0.0833  0.2259  0.4614
   97POPC   C2B 1475   7.100   6.709   5.824 -0.0014 -0.1360 -0.1132
   97POPC   C3B 1476   7.003   6.979   5.389 -0.0790  0.4145  0.0932
   97POPC   C4B 1477   6.838   7.270   5.069  0.1115 -0.1714 -0.0985
   98POPC   NC3 1478   0.011   6.440   7.348  0.0222 -0.1939 -0.0915
   98POPC   PO4 1479  -0.365   6.359   7.413  0.2536 -0.1204  0.0143
   98POPC   GL1 1480  -0.351   6.357   6.974 -0.0142  0.2981  0.1138
   98POPC   GL2 1481  -0.489   6.638   6.848 -0.4741 -0.0927  0.0655
   98POPC   C1A 1482  -0.269   5.999   6.765 -0.1917  0.2576 -0.3080
   98POPC   D2A 1483   0.145   5.998   6.465  0.0094  0.0129  0.0158
   98POPC   C3A 1484   0.165   5.960   5.975 -0.0032  0.2727 -0.3579
   98POPC   C4A 1485   0.080   5.756   5.621  0.0754  0.0488 -0.2370
   98POPC   C1B 1486  -0.466   6.503   6.340 -0.0959  0.1112  0.1754
   98POPC   C2B 1487  -0.514   6.418   5.910  0.1073  0.3422  0.0738
   98POPC   C3B 1488  -0.677   6.567   5.532  0.0535 -0.1023  0.1048
   98POPC   C4B 1489  -0.979   6.518   5.298 -0.0776  0.2482  0.0548
   99POPC   NC3 1490   5.261   4.902   7.375  0.0203  0.1364  0.0573
   99POPC   PO4 1491   5.610   4.640   7.369 -0.1919 -0.0972  0.2740
   99POPC   GL1 1492   5.732   4.929   7.028 -0.1536  0.1511  0.0274
   99POPC   GL2 1493   5.581   5.144   7.019 -0.1446 -0.1881 -0.0992
   99POPC   C1A 1494   6.118   4.893   6.732  0.0479 -0.1138  0.1126
   99POPC   D2A 1495   6.344   4.577   6.553  0.2608  0.0383  0.3636
   99POPC   C3A 1496   6.355   4.314   6.173  0.0633  0.0358  0.0783
   99POPC   C4A 1497   6.368   3.991   5.660  0.1006 -0.0925 -0.0650
   99POPC   C1B 1498   5.604   5.383   6.683 -0.1142  0.0417  0.1912
   99POPC   C2B 1499   5.534   5.539   6.346  0.0586  0.2290  0.1382
   99POPC   C3B 1500   5.682   5.484   5.911 -0.2711 -0.1603  0.0415
   99POPC   C4B 1501   5.765   5.465   5.380  0.1607 -0.1887 -0.1650
  100POPC   NC3 1502   3.723   3.870   7.614 -0.0977  0.1971 -0.3124
  100POPC   PO4 1503   4.096   3.622   7.823  0.1785 -0.1990 -0.0652
  100POPC   GL1 1504   4.002   3.407   7.524 -0.0403 -0.0525 -0.1085
  100POPC   GL2 1505   3.736   3.355   7.608 -0.0141  0.0182 -0.2128
  100POPC   C1A 1506   4.113   3.181   7.224 -0.0504  0.0919 -0.0539
  100POPC   D2A 1507   3.998   3.069   6.757  0.0758  0.1053 -0.0118
  100POPC   C3A 1508   4.058   2.862   6.311 -0.0736  0.1932  0.1288
  100POPC   C4A 1509   3.833   2.755   5.952 -0.0907 -0.0532  0.1064
  100POPC   C1B 1510   3.639   3.029   7.172  0.1599  0.1285 -0.1684
  100POPC   C2B 1511   3.535   2.757   6.806 -0.0502  0.0193 -0.0573
  100POPC   C3B 1512   3.666   2.611   6.427  0.1090 -0.0815 -0.0406
  100POPC   C4B 1513   4.097   2.352   6.212  0.0857 -0.1483 -0.0444
  101POPC   NC3 1514  10.016   7.726   7.270  0.0274  0.0113  0.0729
  101POPC   PO4 1515  10.350   7.970   7.232  0.0191  0.0009  0.3102
  101POPC   GL1 1516  10.679   7.889   6.943  0.1295  0.1300  0.2691
  101POPC   GL2 1517  11.019   8.182   7.026 -0.3644 -0.1076  0.0312
  101POPC   C1A 1518  10.556   7.669   6.595 -0.0950 -0.0526  0.1208
  101POPC   D2A 1519  10.419   7.309   6.334  0.0418 -0.1290  0.1892
  101POPC   C3A 1520  10.059   7.351   6.104 -0.0651  0.0678  0.0881
  101POPC   C4A 1521   9.913   7.440   5.763  0.0909 -0.0709 -0.2878
  101POPC   C1B 1522  11.028   8.080   6.638 -0.1377 -0.0958  0.1865
  101POPC   C2B 1523  10.791   8.032   6.234 -0.0708 -0.1748 -0.1207
  101POPC   C3B 1524  10.681   8.438   6.036  0.1270 -0.1503 -0.1969
  101POPC   C4B 1525  10.498   8.816   5.885 -0.0955  0.1338  0.1846
  102POPC   NC3 1526   6.114   0.738   8.360 -0.0539  0.0056 -0.2406
  102POPC   PO4 1527   6.447   0.412   8.293  0.0746  0.3788 -0.0059
  102POPC   GL1 1528   6.792   0.542   8.027 -0.1402  0.0144  0.1190
  102POPC   GL2 1529   7.058   0.350   7.970 -0.0118  0.2975 -0.2285
  102POPC   C1A 1530   6.934   0.937   7.741 -0.2500  0.1968  0.0784
  102POPC   D2A 1531   7.289   0.980   7.513 -0.1586  0.1412  0.2306
  102POPC   C3A 1532   7.513   0.632   7.500  0.1319  0.2424  0.3289
  102POPC   C4A 1533   7.663   0.270   7.353  0.0420  0.0327 -0.3439
  102POPC   C1B 1534   6.977   0.441   7.574  0.0902 -0.0699 -0.0186
  102POPC   C2B 1535   6.946   0.699   7.242  0.0633 -0.2230  0.1483
  102POPC   C3B 1536   6.811   1.190   7.236  0.1114  0.2000  0.1072
  102POPC   C4B 1537   7.081   1.491   7.513 -0.6429  0.4952  0.0540
  103POPC   NC3 1538   6.515   1.567   9.088  0.2606  0.0368 -0.0862
  103POPC   PO4 1539   6.810   1.806   8.753  0.2453 -0.1880 -0.0290
  103POPC   GL1 1540   6.844   1.671   8.356  0.3331 -0.3097 -0.3944
  103POPC   GL2 1541   6.826   1.365   8.216 -0.0159 -0.0972  0.3235
  103POPC   C1A 1542   7.024   1.890   7.981 -0.0510  0.0106  0.2037
  103POPC   D2A 1543   7.007   1.987   7.534  0.0435 -0.3023 -0.1243
  103POPC   C3A 1544   7.308   1.925   7.167  0.0850  0.0250  0.0145
  103POPC   C4A 1545   7.246   1.493   7.013 -0.0364 -0.0385  0.0683
  103POPC   C1B 1546   7.197   1.426   7.996 -0.3016  0.1458  0.0664
  103POPC   C2B 1547   7.570   1.371   7.738 -0.4622 -0.0584 -0.3434
  103POPC   C3B 1548   8.039   1.443   7.714 -0.1039  0.2075 -0.1790
  103POPC   C4B 1549   8.353   1.824   7.702  0.1060 -0.1470  0.2763
  104POPC   NC3 1550   7.206   3.858   8.066  0.1412 -0.1188  0.1746
  104POPC   PO4 1551   7.207   4.272   7.973 -0.1987 -0.2484  0.2144
  104POPC   GL1 1552   7.188   4.310   7.479  0.0028  0.2977  0.0353
  104POPC   GL2 1553   7.148   4.623   7.406  0.1453  0.0325  0.1299
  104POPC   C1A 1554   7.367   4.226   7.098 -0.0338  0.1461  0.1064
  104POPC   D2A 1555   7.352   4.064   6.690  0.2161 -0.1684  0.0818
  104POPC   C3A 1556   7.487   3.683   6.640  0.0126  0.0815 -0.0122
  104POPC   C4A 1557   7.143   3.649   6.322 -0.2060  0.1463 -0.1458
  104POPC   C1B 1558   7.004   4.571   7.013 -0.1727  0.0007 -0.3843
  104POPC   C2B 1559   7.311   4.689   6.671 -0.3047 -0.1654  0.0765
  104POPC   C3B 1560   7.485   4.778   6.192  0.0867 -0.1810 -0.2193
  104POPC   C4B 1561   7.230   4.675   5.797 -0.2778  0.0197 -0.1273
  105POPC   NC3 1562   8.917   3.206   8.086  0.0347 -0.1256  0.4273
  105POPC   PO4 1563   9.267   3.503   8.016  0.2929 -0.2805 -0.1098
  105POPC   GL1 1564   9.319   3.455   7.565  0.1732 -0.0604 -0.0920
  105POPC   GL2 1565   9.454   3.215   7.445 -0.3324 -0.1952 -0.1846
  105POPC   C1A 1566   9.003   3.168   7.286 -0.3966  0.2836 -0.0171
  105POPC   D2A 1567   8.653   3.020   6.993  0.2770  0.0614 -0.3202
  105POPC   C3A 1568   8.292   2.811   6.997  0.0924 -0.0618  0.3339
  105POPC   C4A 1569   7.877   2.740   7.299 -0.1955  0.0218  0.0676
  105POPC   C1B 1570   9.407   2.958   7.127  0.0725 -0.0479  0.2304
  105POPC   C2B 1571   9.149   2.798   6.786 -0.1029 -0.1700 -0.2918
  105POPC   C3B 1572   9.248   2.720   6.384 -0.0418  0.0454  0.0256
  105POPC   C4B 1573   9.040   2.830   6.062  0.0791 -0.2039  0.2061
  106POPC   NC3 1574   8.329   3.506   8.318 -0.2830  0.0633  0.0841
  106POPC   PO4 1575   7.888   3.331   8.219 -0.0327 -0.1013  0.2134
  106POPC   GL1 1576   8.178   3.267   7.894  0.1449 -0.2367  0.1867
  106POPC   GL2 1577   8.485   3.346   7.853 -0.0033 -0.0995  0.0744
  106POPC   C1A 1578   8.152   3.188   7.407  0.0358 -0.1146  0.2076
  106POPC   D2A 1579   8.197   3.323   7.011  0.0661  0.3399 -0.3636
  106POPC   C3A 1580   8.362   3.269   6.637 -0.0720 -0.3095 -0.0468
  106POPC   C4A 1581   8.448   3.353   6.157  0.3131  0.2751  0.0107
  106POPC   C1B 1582   8.570   3.421   7.387  0.3906  0.2572 -0.1264
  106POPC   C2B 1583   8.684   3.561   6.945 -0.0181 -0.0958  0.1187
  106POPC   C3B 1584   8.748   3.621   6.528  0.2794  0.2191  0.1672
  106POPC   C4B 1585   8.970   3.372   6.171  0.1085  0.1501  0.0429
  107POPC   NC3 1586   4.560   4.278   7.593 -0.2625 -0.1983  0.3235
  107POPC   PO4 1587   4.181   4.046   7.511  0.1122  0.1189  0.2071
  107POPC   GL1 1588   4.011   3.753   7.200  0.3630 -0.0460  0.2708
  107POPC   GL2 1589   4.350   3.621   7.191 -0.0716  0.0751  0.1867
  107POPC   C1A 1590   3.933   3.714   6.820 -0.2212 -0.1151 -0.2476
  107POPC   D2A 1591   4.015   3.405   6.399  0.1730 -0.0716 -0.2591
  107POPC   C3A 1592   4.318   3.638   6.198 -0.0654 -0.0964 -0.1282
  107POPC   C4A 1593   4.395   3.677   5.757  0.2104  0.0481  0.2262
  107POPC   C1B 1594   4.716   3.665   6.907  0.2100  0.1633  0.1530
  107POPC   C2B 1595   4.752   3.568   6.403 -0.0008  0.0638 -0.0618
  107POPC   C3B 1596   4.872   3.502   5.957 -0.1649  0.0667 -0.0443
  107POPC   C4B 1597   5.035   3.572   5.637  0.2003 -0.0305  0.0622
  108POPC   NC3 1598   5.471   4.088   7.480 -0.0703 -0.1801  0.1287
  108POPC   PO4 1599   5.075   4.373   7.481 -0.2006  0.1756  0.2197
  108POPC   GL1 1600   5.247   4.428   7.055 -0.0934  0.3465  0.1882
  108POPC   GL2 1601   5.509   4.338   7.027 -0.1739 -0.0253  0.2965
  108POPC   C1A 1602   5.242   4.518   6.553  0.0578  0.2876 -0.1820
  108POPC   D2A 1603   4.959   4.629   6.246  0.1736 -0.3397  0.1456
  108POPC   C3A 1604   5.037   4.519   5.848  0.2716  0.2875 -0.2637
  108POPC   C4A 1605   5.391   4.647   5.559  0.2344 -0.3059  0.0021
  108POPC   C1B 1606   5.533   4.099   6.553 -0.0768  0.0850  0.0751
  108POPC   C2B 1607   5.839   4.068   6.175  0.0027  0.1752 -0.1743
  108POPC   C3B 1608   5.875   3.983   5.731 -0.2267 -0.3259  0.0071
  108POPC   C4B 1609   6.050   3.764   5.393  0.1505  0.0141  0.0439
  109POPC   NC3 1610  10.214   0.955   7.986  0.3409  0.1326  0.1069
  109POPC   PO4 1611  10.014   1.340   7.929 -0.2446  0.0740 -0.0781
  109POPC   GL1 1612  10.146   1.250   7.534 -0.1109 -0.0460 -0.0947
  109POPC   GL2 1613  10.365   1.025   7.444  0.0420 -0.1022  0.1097
  109POPC   C1A 1614   9.896   1.195   7.149 -0.1354 -0.0347 -0.1016
  109POPC   D2A 1615   9.755   1.442   6.702 -0.1933  0.2405 -0.2193
  109POPC   C3A 1616   9.603   1.093   6.392 -0.1043  0.0280 -0.0034
  109POPC   C4A 1617   9.356   0.804   6.083 -0.1260  0.2809 -0.0449
  109POPC   C1B 1618  10.244   0.830   7.065 -0.0411  0.1395  0.1239
  109POPC   C2B 1619  10.339   0.566   6.718 -0.1485 -0.1083  0.3858
  109POPC   C3B 1620  10.701   0.339   6.452  0.1210  0.0697 -0.1002
  109POPC   C4B 1621  10.955   0.261   6.004  0.1744  0.0295  0.0066
  110POPC   NC3 1622   0.360   7.223   7.336 -0.0073  0.0061 -0.1675
  110POPC   PO4 1623   0.300   6.863   7.498 -0.1168 -0.5138  0.0226
  110POPC   GL1 1624   0.280   6.861   6.988  0.0786  0.1999 -0.3006
  110POPC   GL2 1625   0.026   6.655   6.905  0.2382 -0.3370 -0.0772
  110POPC   C1A 1626   0.339   6.903   6.623  0.2215 -0.1229  0.2801
  110POPC   D2A 1627   0.377   6.969   6.222 -0.1775  0.0394 -0.0917
  110POPC   C3A 1628   0.348   6.754   5.959  0.1942 -0.0567  0.0308
  110POPC   C4A 1629   0.374   6.354   5.773 -0.2005 -0.1092  0.1533
  110POPC   C1B 1630  -0.103   6.760   6.449 -0.3101  0.0282 -0.1458
  110POPC   C2B 1631  -0.188   6.964   5.990 -0.3897  0.2340 -0.1008
  110POPC   C3B 1632   0.070   7.189   5.765 -0.2275  0.1412  0.0717
  110POPC   C4B 1633   0.115   7.655   5.698  0.1280  0.1414 -0.0001
  111POPC   NC3 1634   2.718   3.960   7.701 -0.2349  0.1964 -0.1091
  111POPC   PO4 1635   2.435   3.550   7.802 -0.2669 -0.1334  0.0656
  111POPC   GL1 1636   2.597   3.529   7.400 -0.0203  0.0658  0.2082
  111POPC   GL2 1637   2.309   3.603   7.173 -0.0391  0.1958  0.0242
  111POPC   C1A 1638   2.934   3.471   7.112 -0.1629 -0.0973 -0.3527
  111POPC   D2A 1639   3.109   3.636   6.741 -0.1164  0.1651  0.0260
  111POPC   C3A 1640   3.043   3.444   6.391  0.2817  0.0724  0.2406
  111POPC   C4A 1641   2.759   3.326   6.193 -0.0612  0.0508 -0.0068
  111POPC   C1B 1642   2.047   3.552   6.801 -0.1901 -0.0456  0.0059
  111POPC   C2B 1643   1.925   3.357   6.423  0.3084 -0.2229 -0.1885
  111POPC   C3B 1644   2.100   3.313   5.981  0.1234 -0.0752 -0.0232
  111POPC   C4B 1645   2.434   3.230   5.832  0.2042 -0.1992 -0.0437
  112POPC   NC3 1646   7.548   0.148   7.943  0.1720 -0.1186  0.4260
  112POPC   PO4 1647   7.146  -0.142   7.899 -0.1445 -0.0859 -0.0311
  112POPC   GL1 1648   7.027  -0.187   7.525  0.2303 -0.0863  0.0443
  112POPC   GL2 1649   7.183   0.112   7.288  0.1411  0.3125 -0.1006
  112POPC   C1A 1650   6.821  -0.399   7.173 -0.4108  0.2077  0.0511
  112POPC   D2A 1651   6.558  -0.548   6.862 -0.0784 -0.2204  0.0690
  112POPC   C3A 1652   6.255  -0.350   6.819  0.1646  0.1481  0.0959
  112POPC   C4A 1653   6.124   0.072   6.938 -0.0904 -0.2839 -0.2455
  112POPC   C1B 1654   6.972   0.256   6.931  0.2739 -0.3086  0.1384
  112POPC   C2B 1655   6.725   0.298   6.460 -0.3124 -0.0142  0.2718
  112POPC   C3B 1656   6.737   0.287   6.078  0.1118  0.6135 -0.1287
  112POPC   C4B 1657   6.677   0.046   5.679 -0.0657 -0.0108 -0.0393
  113POPC   NC3 1658  10.534   8.391   7.246  0.1441  0.0343  0.0966
  113POPC   PO4 1659  10.919   8.546   7.382 -0.0675  0.1631  0.1365
  113POPC   GL1 1660  10.918   8.785   7.058 -0.0173  0.1411 -0.0391
  113POPC   GL2 1661  10.648   8.860   6.980  0.1032  0.0004 -0.0481
  113POPC   C1A 1662  10.984   8.985   6.599 -0.1265  0.1474 -0.2206
  113POPC   D2A 1663  11.273   8.989   6.311 -0.1737 -0.4920 -0.3401
  113POPC   C3A 1664  11.346   9.153   5.929 -0.3611  0.0446 -0.0953
  113POPC   C4A 1665  11.396   9.400   5.512 -0.0555 -0.2189 -0.1950
  113POPC   C1B 1666  10.609   9.291   6.957  0.1121  0.1006  0.1361
  113POPC   C2B 1667  10.772   9.503   6.687  0.0418 -0.1647 -0.0795
  113POPC   C3B 1668  10.852   9.994   6.491  0.3632  0.0392  0.1187
  113POPC   C4B 1669  10.807  10.504   6.375 -0.2987  0.2487 -0.1789
  114POPC   NC3 1670   7.941   6.074   7.891 -0.0171  0.1046 -0.0901
  114POPC   PO4 1671   8.212   5.719   7.797 -0.0509  0.1971  0.0108
  114POPC   GL1 1672   8.484   5.832   7.437  0.0156  0.1605 -0.1012
  114POPC   GL2 1673   8.339   5.527   7.319 -0.0909  0.1644 -0.1455
  114POPC   C1A 1674   8.519   5.963   7.017  0.1549  0.0267  0.1170
  114POPC   D2A 1675   8.412   6.216   6.748  0.0547 -0.2935 -0.0467
  114POPC   C3A 1676   8.419   5.982   6.407  0.2031  0.1755  0.1153
  114POPC   C4A 1677   8.140   5.895   6.078  0.2655  0.1333 -0.0759
  114POPC   C1B 1678   8.338   5.439   6.797  0.2054  0.2841 -0.3274
  114POPC   C2B 1679   8.396   5.403   6.351  0.0034  0.0718  0.1158
  114POPC   C3B 1680   8.363   5.091   5.962  0.2463  0.0806 -0.2212
  114POPC   C4B 1681   8.199   5.217   5.628  0.1612  0.0009  0.0901
  115POPC   NC3 1682  10.237   7.286   7.921  0.0099 -0.1059  0.0413
  115POPC   PO4 1683  10.115   7.224   7.423  0.3382 -0.1754 -0.0575
  115POPC   GL1 1684   9.911   7.217   6.922 -0.0192  0.1760  0.1311
  115POPC   GL2 1685   9.704   6.895   6.859  0.2262  0.0177 -0.0159
  115POPC   C1A 1686   9.826   7.545   6.586 -0.2069 -0.1599  0.1037
  115POPC   D2A 1687   9.506   7.746   6.487  0.1632 -0.4240  0.2506
  115POPC   C3A 1688   9.195   7.458   6.245 -0.2677  0.3966  0.0332
  115POPC   C4A 1689   8.886   7.153   6.234 -0.0781 -0.0259  0.4555
  115POPC   C1B 1690  10.065   7.036   6.491  0.0977 -0.1571 -0.0556
  115POPC   C2B 1691  10.008   6.884   6.061  0.1090 -0.0494  0.2764
  115POPC   C3B 1692  10.181   7.016   5.624 -0.1269  0.1363  0.3249
  115POPC   C4B 1693   9.978   7.011   5.238  0.0961  0.0476  0.0535
  116POPC   NC3 1694   6.120   4.666   7.528  0.2213 -0.2777 -0.0607
  116POPC   PO4 1695   6.051   5.134   7.457 -0.3536  0.3027 -0.0453
  116POPC   GL1 1696   6.130   5.267   7.037  0.1708  0.2563  0.1255
  116POPC   GL2 1697   6.403   5.050   7.057 -0.2914  0.1863 -0.2651
  116POPC   C1A 1698   6.090   5.506   6.525 -0.3513 -0.0538  0.0260
  116POPC   D2A 1699   5.952   5.845   6.224 -0.0650 -0.1571 -0.3012
  116POPC   C3A 1700   5.949   6.022   5.784  0.2836 -0.1871  0.0428
  116POPC   C4A 1701   6.134   6.006   5.426 -0.0647 -0.1257 -0.1048
  116POPC   C1B 1702   6.643   4.803   6.869 -0.0458 -0.0687 -0.2672
  116POPC   C2B 1703   6.885   4.490   6.539  0.3569  0.0814 -0.1586
  116POPC   C3B 1704   7.202   4.325   6.220 -0.2731  0.2456  0.5928
  116POPC   C4B 1705   7.532   3.995   6.179  0.1265  0.2595 -0.2027
  117POPC   NC3 1706   1.690   2.592   7.821 -0.0423 -0.0067  0.1179
  117POPC   PO4 1707   1.303   2.810   7.599 -0.1169 -0.1286  0.0204
  117POPC   GL1 1708   1.368   3.082   7.295  0.2301 -0.1272  0.1312
  117POPC   GL2 1709   1.334   3.489   7.314 -0.4729 -0.1389 -0.2518
  117POPC   C1A 1710   1.207   3.219   6.893 -0.1815  0.1849  0.0393
  117POPC   D2A 1711   0.997   3.064   6.574  0.0136  0.2080  0.1238
  117POPC   C3A 1712   1.028   3.179   6.119  0.3010  0.2774 -0.0533
  117POPC   C4A 1713   1.225   2.920   5.721 -0.1070  0.1788 -0.0855
  117POPC   C1B 1714   1.486   3.601   6.876  0.0995  0.1252 -0.2338
  117POPC   C2B 1715   1.362   3.602   6.395  0.0562 -0.4331  0.2470
  117POPC   C3B 1716   1.682   3.577   6.024 -0.0534 -0.0934  0.3459
  117POPC   C4B 1717   1.588   3.397   5.616  0.2140 -0.1996  0.1722
  118POPC   NC3 1718   0.572   3.779   7.833 -0.3331 -0.0099 -0.0781
  118POPC   PO4 1719   0.402   4.174   7.762 -0.0978  0.0392 -0.1783
  118POPC   GL1 1720   0.609   4.178   7.399  0.0586  0.1116  0.0520
  118POPC   GL2 1721   0.919   4.086   7.492  0.1373  0.2035  0.0674
  118POPC   C1A 1722   0.707   4.032   7.027  0.0414 -0.0013 -0.0762
  118POPC   D2A 1723   0.600   4.097   6.695 -0.0595  0.2686  0.2838
  118POPC   C3A 1724   0.875   4.049   6.252  0.2014  0.0276 -0.2393
  118POPC   C4A 1725   1.023   3.725   5.967 -0.5214  0.2294 -0.0740
  118POPC   C1B 1726   1.178   3.997   7.227 -0.0917  0.0876 -0.3030
  118POPC   C2B 1727   1.280   4.104   6.802 -0.1359 -0.1541  0.1000
  118POPC   C3B 1728   1.599   4.288   6.539  0.0294 -0.0624  0.0483
  118POPC   C4B 1729   1.631   4.551   6.294 -0.2652  0.2290  0.2567
  119POPC   NC3 1730   4.707   7.170   7.483  0.0402 -0.0649  0.1975
  119POPC   PO4 1731   4.388   6.957   7.373  0.4284 -0.0314 -0.2087
  119POPC   GL1 1732   4.646   7.251   6.999  0.3835 -0.4111 -0.2369
  119POPC   GL2 1733   4.936   7.284   7.054  0.2680  0.3451 -0.2429
  119POPC   C1A 1734   4.687   7.313   6.567 -0.0470  0.1240 -0.0966
  119POPC   D2A 1735   4.660   7.062   6.191  0.0468  0.2042 -0.0437
  119POPC   C3A 1736   5.039   7.166   5.911 -0.0288 -0.0932  0.2912
  119POPC   C4A 1737   5.340   6.949   5.679  0.5231  0.0302  0.0865
  119POPC   C1B 1738   5.188   7.515   6.760 -0.0856  0.1557 -0.2470
  119POPC   C2B 1739   5.259   7.931   6.633  0.0836  0.0330  0.2721
  119POPC   C3B 1740   5.397   8.127   6.386  0.0166 -0.3221  0.4125
  119POPC   C4B 1741   5.620   8.111   6.015  0.1666 -0.1895 -0.1523
  120POPC   NC3 1742  10.329   2.684   7.828 -0.0740  0.0728  0.1236
  120POPC   PO4 1743   9.980   2.936   7.958 -0.0837 -0.2326  0.1541
  120POPC   GL1 1744   9.884   2.981   7.532 -0.0505  0.0166  0.1333
  120POPC   GL2 1745   9.651   2.744   7.577  0.1356  0.2752  0.0737
  120POPC   C1A 1746   9.904   3.110   7.116 -0.1291 -0.2006 -0.1039
  120POPC   D2A 1747   9.936   3.150   6.606  0.0302  0.1384 -0.0480
  120POPC   C3A 1748  10.181   3.081   6.375  0.1192  0.0522  0.2769
  120POPC   C4A 1749  10.384   3.002   6.050 -0.4267 -0.4060  0.1039
  120POPC   C1B 1750   9.745   2.666   7.191  0.2065  0.5238  0.0277
  120POPC   C2B 1751   9.655   2.738   6.738 -0.1016 -0.3759 -0.2923
  120POPC   C3B 1752   9.427   3.165   6.611  0.1389 -0.0461 -0.1196
  120POPC   C4B 1753   9.363   3.603   6.461  0.0504 -0.0665  0.1514
  121POPC   NC3 1754   5.279   1.785   8.369  0.1448  0.1818 -0.3396
  121POPC   PO4 1755   5.257   2.205   8.491  0.3953 -0.0193 -0.0186
  121POPC   GL1 1756   5.343   2.160   7.987  0.0138  0.0896 -0.2838
  121POPC   GL2 1757   5.253   2.268   7.666  0.0524  0.0217  0.2319
  121POPC   C1A 1758   5.602   1.832   7.741 -0.3533 -0.0828 -0.0069
  121POPC   D2A 1759   5.813   1.736   7.299  0.1118  0.0241  0.0884
  121POPC   C3A 1760   5.647   1.521   7.100 -0.0278 -0.0507  0.0818
  121POPC   C4A 1761   5.571   1.445   6.764 -0.0792  0.0698  0.1790
  121POPC   C1B 1762   5.375   1.996   7.337 -0.4036  0.0779  0.0281
  121POPC   C2B 1763   5.372   1.865   6.851 -0.3069  0.1226 -0.1704
  121POPC   C3B 1764   5.354   2.020   6.438 -0.0231  0.0193  0.6178
  121POPC   C4B 1765   5.245   2.414   6.174 -0.2953  0.2932 -0.0628
  122POPC   NC3 1766  10.161   1.997   8.083 -0.2245 -0.0701 -0.2627
  122POPC   PO4 1767   9.707   1.998   8.085 -0.0017  0.0076  0.4642
  122POPC   GL1 1768   9.648   2.062   7.656 -0.1858 -0.1259 -0.0921
  122POPC   GL2 1769   9.385   1.920   7.587  0.0036 -0.0228  0.1754
  122POPC   C1A 1770   9.922   2.256   7.398  0.1767 -0.2142  0.0846
  122POPC   D2A 1771  10.242   2.351   7.092  0.0092 -0.1083 -0.0102
  122POPC   C3A 1772  10.309   2.161   6.738  0.0728  0.2107  0.0152
  122POPC   C4A 1773  10.105   1.787   6.570 -0.1218 -0.1062  0.0372
  122POPC   C1B 1774   9.082   1.893   7.220  0.3098  0.2516 -0.0958
  122POPC   C2B 1775   8.877   1.957   6.841  0.1788  0.0476 -0.0362
  122POPC   C3B 1776   8.366   2.137   6.775 -0.0782  0.2945 -0.0226
  122POPC   C4B 1777   8.178   2.367   7.178  0.1639 -0.1943 -0.2648
  123POPC   NC3 1778   7.590   4.014   7.793  0.0581 -0.1562 -0.2807
  123POPC   PO4 1779   7.654   3.602   7.758 -0.0288  0.1335 -0.2047
  123POPC   GL1 1780   7.867   3.565   7.354 -0.1631 -0.0677 -0.1150
  123POPC   GL2 1781   7.568   3.707   7.181 -0.0842  0.2153 -0.1758
  123POPC   C1A 1782   8.194   3.772   7.109 -0.1581 -0.1982  0.0319
  123POPC   D2A 1783   8.299   3.851   6.706  0.1002  0.0177  0.1816
  123POPC   C3A 1784   8.045   3.640   6.404  0.0549 -0.0041  0.2172
  123POPC   C4A 1785   8.020   3.498   5.987  0.0260 -0.2173  0.0350
  123POPC   C1B 1786   7.676   3.307   7.003  0.0442  0.0160 -0.0696
  123POPC   C2B 1787   7.805   2.922   6.859  0.1891  0.2889  0.1225
  123POPC   C3B 1788   7.795   2.562   6.823 -0.2565  0.3212 -0.0576
  123POPC   C4B 1789   7.992   2.322   6.524  0.0285 -0.1384  0.1478
  124POPC   NC3 1790   9.430   1.580   7.997  0.1982 -0.0706 -0.0649
  124POPC   PO4 1791   8.929   1.635   8.208 -0.0608 -0.0670  0.1345
  124POPC   GL1 1792   8.876   1.721   7.753 -0.0030 -0.3485  0.0957
  124POPC   GL2 1793   9.032   1.491   7.537  0.0004  0.2301  0.1589
  124POPC   C1A 1794   8.667   1.690   7.291 -0.3234 -0.0175  0.2696
  124POPC   D2A 1795   8.535   1.593   6.906  0.4197 -0.0228  0.1925
  124POPC   C3A 1796   8.630   1.683   6.450 -0.1377  0.4391 -0.2789
  124POPC   C4A 1797   8.935   1.939   6.311 -0.0091 -0.0326 -0.2168
  124POPC   C1B 1798   9.010   1.376   7.122 -0.1796  0.0028 -0.0478
  124POPC   C2B 1799   8.926   1.255   6.750 -0.1060  0.3209  0.0005
  124POPC   C3B 1800   8.980   1.293   6.359 -0.2715 -0.2006 -0.0698
  124POPC   C4B 1801   9.234   1.338   5.876  0.2514  0.1831 -0.0580
  125POPC   NC3 1802   1.079  10.438   7.728  0.1019  0.2812 -0.1199
  125POPC   PO4 1803   1.586  10.502   7.806  0.1595  0.2311  0.1300
  125POPC   GL1 1804   1.443  10.794   7.478 -0.1602 -0.2382  0.0105
  125POPC   GL2 1805   1.617  10.703   7.077 -0.0279 -0.0641  0.1320
  125POPC   C1A 1806   1.113  10.744   7.088  0.1631  0.0625  0.1672
  125POPC   D2A 1807   1.029  10.651   6.597 -0.0165  0.1311  0.2392
  125POPC   C3A 1808   1.189  10.307   6.319  0.1391  0.2155 -0.2597
  125POPC   C4A 1809   1.226  10.017   5.969 -0.3300 -0.0775  0.2140
  125POPC   C1B 1810   1.446  11.040   6.796  0.3197  0.2467 -0.1655
  125POPC   C2B 1811   1.279  11.369   6.442 -0.0243  0.2323 -0.0331
  125POPC   C3B 1812   1.215  11.459   6.061  0.0648 -0.2761  0.2860
  125POPC   C4B 1813   1.636  11.756   5.913  0.0874 -0.2662 -0.2314
  126POPC   NC3 1814   2.290   7.814   7.496  0.0317  0.2436  0.3944
  126POPC   PO4 1815   2.702   7.545   7.672  0.5893 -0.1766 -0.2389
  126POPC   GL1 1816   2.788   7.489   7.142 -0.0899  0.0836  0.1468
  126POPC   GL2 1817   2.627   7.189   6.855  0.1597  0.0863 -0.1961
  126POPC   C1A 1818   2.833   7.760   6.758 -0.0037 -0.1435 -0.2486
  126POPC   D2A 1819   2.925   7.768   6.330  0.4411  0.0794 -0.0513
  126POPC   C3A 1820   3.302   7.676   6.362  0.2693  0.0847  0.1254
  126POPC   C4A 1821   3.512   7.598   5.912 -0.4176 -0.1462  0.2194
  126POPC   C1B 1822   2.593   6.842   6.518  0.0139 -0.0668  0.2170
  126POPC   C2B 1823   2.579   6.788   6.006  0.0839 -0.1278 -0.0877
  126POPC   C3B 1824   2.361   6.615   5.657 -0.1043  0.0774  0.1300
  126POPC   C4B 1825   2.277   6.592   5.241 -0.0397 -0.0495 -0.1003
  127POPC   NC3 1826   6.209   7.376   7.926 -0.1036 -0.3508 -0.0558
  127POPC   PO4 1827   6.359   7.504   7.452 -0.0915  0.2417 -0.0600
  127POPC   GL1 1828   6.207   7.498   7.073 -0.1697  0.2032 -0.0411
  127POPC   GL2 1829   5.929   7.595   7.033 -0.1486 -0.1078 -0.3125
  127POPC   C1A 1830   6.420   7.476   6.552 -0.0563  0.1080 -0.0785
  127POPC   D2A 1831   6.683   7.701   6.237 -0.2539  0.1113  0.2064
  127POPC   C3A 1832   6.704   8.053   5.991 -0.1351 -0.3531  0.0216
  127POPC   C4A 1833   6.343   8.393   5.931  0.0466  0.0763  0.3434
  127POPC   C1B 1834   6.014   8.101   7.069 -0.4493 -0.1386  0.3551
  127POPC   C2B 1835   5.757   8.442   6.760 -0.0721  0.0627  0.0664
  127POPC   C3B 1836   6.015   8.752   6.732 -0.1468  0.1531 -0.0764
  127POPC   C4B 1837   6.442   8.940   6.569  0.0556  0.3497  0.4691
  128POPC   NC3 1838   9.329   9.127   7.380 -0.0217 -0.1699  0.0662
  128POPC   PO4 1839   9.061   8.762   7.569 -0.1439 -0.1562 -0.2143
  128POPC   GL1 1840   9.117   8.666   7.129 -0.0421 -0.0370  0.0975
  128POPC   GL2 1841   9.247   8.816   6.859 -0.0326 -0.0419  0.0765
  128POPC   C1A 1842   8.770   8.737   6.833 -0.0672  0.0992 -0.1866
  128POPC   D2A 1843   8.810   8.975   6.497  0.4527  0.3799  0.1068
  128POPC   C3A 1844   8.602   9.081   6.113  0.2218  0.0723 -0.1803
  128POPC   C4A 1845   8.627   9.502   5.842  0.2244 -0.1569  0.1128
  128POPC   C1B 1846   9.341   8.927   6.505  0.2690 -0.0654  0.0103
  128POPC   C2B 1847   9.127   8.944   6.105 -0.0357 -0.0126  0.1779
  128POPC   C3B 1848   8.765   9.001   5.672 -0.0124 -0.1739  0.0371
  128POPC   C4B 1849   8.515   8.648   5.460 -0.1661 -0.0531 -0.2343
  129POPC   NC3 1850   5.957   2.303   8.659  0.0414  0.0473  0.0633
  129POPC   PO4 1851   5.736   2.185   8.263 -0.0119 -0.1580  0.1452
  129POPC   GL1 1852   5.885   2.521   7.955  0.0300 -0.0852  0.2707
  129POPC   GL2 1853   5.740   2.356   7.726 -0.5173  0.0832 -0.2925
  129POPC   C1A 1854   5.842   2.889   7.717  0.0496 -0.1610 -0.0647
  129POPC   D2A 1855   6.024   3.361   7.562 -0.1392  0.0634  0.3083
  129POPC   C3A 1856   6.194   3.363   7.091  0.1802 -0.0198 -0.0996
  129POPC   C4A 1857   6.534   3.748   6.989 -0.0012 -0.1219 -0.0282
  129POPC   C1B 1858   5.505   2.632   7.402 -0.0190  0.1655 -0.0027
  129POPC   C2B 1859   5.380   2.875   6.929  0.0107  0.3580  0.1391
  129POPC   C3B 1860   5.305   2.709   6.567  0.1414 -0.3685  0.1293
  129POPC   C4B 1861   4.990   2.871   6.153  0.3312  0.1830 -0.1647
  130POPC   NC3 1862   1.720   0.701   7.567 -0.1270  0.1500 -0.0023
  130POPC   PO4 1863   1.712   1.059   7.458  0.0812 -0.1432  0.1084
  130POPC   GL1 1864   1.593   1.337   7.164 -0.0612 -0.0623 -0.0387
  130POPC   GL2 1865   1.309   1.539   7.266 -0.0431  0.0527  0.4084
  130POPC   C1A 1866   1.694   1.388   6.776 -0.2267 -0.1320 -0.0019
  130POPC   D2A 1867   1.819   1.264   6.308 -0.0560  0.2624 -0.2176
  130POPC   C3A 1868   1.936   1.553   6.010  0.1437  0.1048 -0.1655
  130POPC   C4A 1869   1.592   1.691   5.842 -0.0045 -0.1197 -0.3988
  130POPC   C1B 1870   1.220   1.656   6.857 -0.1583  0.0774 -0.0549
  130POPC   C2B 1871   1.099   1.955   6.539 -0.1847 -0.1161  0.0620
  130POPC   C3B 1872   0.942   2.185   6.165 -0.0869  0.1657 -0.0023
  130POPC   C4B 1873   0.874   2.655   6.240  0.1709  0.0789  0.2109
  131POPC   NC3 1874   4.316   0.512   7.566 -0.1828  0.1708  0.0478
  131POPC   PO4 1875   4.177   0.123   7.729  0.3719 -0.2556  0.1734
  131POPC   GL1 1876   3.952   0.223   7.305 -0.0261  0.0142 -0.1485
  131POPC   GL2 1877   4.076   0.552   7.120 -0.4593 -0.1746 -0.1284
  131POPC   C1A 1878   4.031  -0.020   6.922 -0.1428  0.4205  0.0523
  131POPC   D2A 1879   4.159   0.069   6.423 -0.1740  0.3004 -0.0029
  131POPC   C3A 1880   4.616   0.072   6.127  0.1197 -0.0143  0.2109
  131POPC   C4A 1881   4.932  -0.174   5.965  0.3023 -0.0245  0.2495
  131POPC   C1B 1882   3.840   0.438   6.775 -0.1103 -0.1801 -0.1210
  131POPC   C2B 1883   3.720   0.258   6.494  0.2200  0.0853  0.1084
  131POPC   C3B 1884   3.362  -0.019   6.376 -0.0156  0.0131  0.0234
  131POPC   C4B 1885   3.124  -0.363   6.364 -0.0352 -0.1218  0.0875
  132POPC   NC3 1886   4.901   7.890   7.970 -0.1151 -0.3593 -0.2401
  132POPC   PO4 1887   4.989   7.602   7.580  0.0710 -0.1575  0.0586
  132POPC   GL1 1888   5.064   7.768   7.168  0.2444 -0.0041  0.2207
  132POPC   GL2 1889   4.779   7.730   7.035 -0.2546  0.2521  0.0088
  132POPC   C1A 1890   4.936   8.180   6.968  0.1947  0.1163  0.1385
  132POPC   D2A 1891   5.020   8.345   6.560  0.2122  0.0163 -0.0034
  132POPC   C3A 1892   5.195   8.544   6.188 -0.0036  0.0986 -0.1502
  132POPC   C4A 1893   5.060   8.980   6.033  0.5172 -0.3862 -0.2114
  132POPC   C1B 1894   4.752   7.877   6.605 -0.2174  0.0669  0.0929
  132POPC   C2B 1895   4.923   7.951   6.215  0.1085  0.1547  0.2379
  132POPC   C3B 1896   5.130   8.175   5.811 -0.2421  0.1447  0.1040
  132POPC   C4B 1897   5.481   8.190   5.542 -0.0440 -0.2132 -0.1829
  133POPC   NC3 1898   1.221   1.079   7.504  0.0719 -0.1799 -0.1529
  133POPC   PO4 1899   1.261   0.575   7.571  0.0684  0.0810 -0.0531
  133POPC   GL1 1900   0.925   0.725   7.266 -0.1215 -0.0438  0.1042
  133POPC   GL2 1901   1.058   0.593   6.950 -0.1632 -0.0866 -0.0799
  133POPC   C1A 1902   0.536   0.856   7.223  0.1207  0.3559  0.0933
  133POPC   D2A 1903   0.457   1.172   6.830 -0.0769 -0.0646 -0.0191
  133POPC   C3A 1904   0.487   1.248   6.476  0.1493  0.1554 -0.1423
  133POPC   C4A 1905   0.334   1.161   6.050  0.0608  0.3384 -0.1831
  133POPC   C1B 1906   0.579   0.625   6.730  0.0937  0.1755 -0.2156
  133POPC   C2B 1907   0.351   0.718   6.372  0.0683  0.1612  0.0159
  133POPC   C3B 1908  -0.069   0.740   6.038 -0.2529 -0.1898 -0.1167
  133POPC   C4B 1909  -0.309   1.014   5.813  0.0845  0.0981 -0.0050
  134POPC   NC3 1910   8.198   9.349   7.610  0.1819  0.0636  0.0881
  134POPC   PO4 1911   8.611   9.592   7.659  0.0458  0.0575 -0.2071
  134POPC   GL1 1912   8.820   9.728   7.246 -0.2077 -0.2600  0.1345
  134POPC   GL2 1913   9.124   9.541   7.186 -0.0760 -0.3520 -0.0931
  134POPC   C1A 1914   8.682   9.875   6.771 -0.1104 -0.0176 -0.1578
  134POPC   D2A 1915   8.442  10.007   6.464  0.0552  0.0643 -0.0347
  134POPC   C3A 1916   8.313   9.855   5.994 -0.0561 -0.2690 -0.3449
  134POPC   C4A 1917   8.085   9.634   5.576  0.0208 -0.0317 -0.1452
  134POPC   C1B 1918   8.939   9.453   6.781  0.2140  0.0735  0.4142
  134POPC   C2B 1919   9.099   9.397   6.433  0.2425 -0.1450 -0.0306
  134POPC   C3B 1920   9.158   9.435   5.928  0.1018  0.1141 -0.1153
  134POPC   C4B 1921   9.126   9.339   5.430  0.3867 -0.3757 -0.0413
  135POPC   NC3 1922   3.443   0.622   7.948  0.3727  0.3877  0.0811
  135POPC   PO4 1923   2.983   0.843   7.921  0.0158 -0.1143  0.1078
  135POPC   GL1 1924   3.142   0.858   7.484  0.2106 -0.1479  0.4398
  135POPC   GL2 1925   3.165   1.159   7.325  0.0045 -0.0093  0.0183
  135POPC   C1A 1926   3.107   0.753   7.023 -0.0791  0.1160  0.1617
  135POPC   D2A 1927   3.002   0.904   6.622  0.0656  0.1687  0.3406
  135POPC   C3A 1928   3.200   1.043   6.358 -0.0931  0.0111 -0.1631
  135POPC   C4A 1929   3.177   0.957   5.989 -0.2469 -0.1297 -0.1622
  135POPC   C1B 1930   2.844   1.176   7.149  0.0574  0.4551 -0.2018
  135POPC   C2B 1931   2.754   1.299   6.807  0.1409  0.1950  0.0392
  135POPC   C3B 1932   2.894   1.615   6.569  0.3918 -0.0956  0.3613
  135POPC   C4B 1933   3.234   1.754   6.337 -0.1739  0.3249 -0.0208
  136POPC   NC3 1934   0.904   4.579   7.665  0.0640 -0.2015  0.0279
  136POPC   PO4 1935   0.824   4.971   7.730  0.0550  0.3983 -0.2089
  136POPC   GL1 1936   0.723   5.032   7.274 -0.0202 -0.0226  0.2162
  136POPC   GL2 1937   0.818   5.370   7.213  0.0028 -0.0166  0.0818
  136POPC   C1A 1938   0.490   5.141   6.901  0.3432  0.0094  0.1504
  136POPC   D2A 1939   0.547   4.948   6.473  0.1629 -0.1313 -0.4401
  136POPC   C3A 1940   0.830   4.911   6.157 -0.2274 -0.0097 -0.0236
  136POPC   C4A 1941   0.893   4.804   5.773 -0.0177 -0.0358 -0.1311
  136POPC   C1B 1942   0.694   5.615   6.952 -0.2821 -0.0159  0.0904
  136POPC   C2B 1943   0.911   5.648   6.540 -0.2329  0.1899 -0.0490
  136POPC   C3B 1944   0.989   5.433   6.127 -0.0275  0.3490 -0.2422
  136POPC   C4B 1945   1.174   5.186   5.722  0.1935  0.1169 -0.0583
  137POPC   NC3 1946  10.606   4.911   7.485 -0.2871 -0.0768  0.1411
  137POPC   PO4 1947  10.616   4.352   7.534 -0.1543 -0.1047  0.0125
  137POPC   GL1 1948  10.710   4.159   7.175 -0.1066  0.2102 -0.1006
  137POPC   GL2 1949  10.586   4.184   6.785  0.1093 -0.2773  0.0763
  137POPC   C1A 1950  10.972   3.783   6.919  0.2655  0.2050 -0.1565
  137POPC   D2A 1951  10.985   3.664   6.477  0.0502  0.0427  0.2018
  137POPC   C3A 1952  11.046   4.014   6.171  0.2136  0.0848  0.0313
  137POPC   C4A 1953  11.268   3.966   5.726  0.0981 -0.0997  0.2794
  137POPC   C1B 1954  10.879   4.328   6.544  0.2037  0.0298  0.0330
  137POPC   C2B 1955  11.233   4.430   6.340 -0.0038  0.2773 -0.1847
  137POPC   C3B 1956  11.324   4.432   5.972  0.0427 -0.2898 -0.0278
  137POPC   C4B 1957  11.644   4.258   5.755  0.1009 -0.2083 -0.2533
  138POPC   NC3 1958   3.321   5.668   7.671 -0.0293  0.2609  0.0306
  138POPC   PO4 1959   3.727   5.364   7.723  0.0108  0.3251 -0.1017
  138POPC   GL1 1960   3.623   5.376   7.275  0.0296 -0.0893  0.2588
  138POPC   GL2 1961   3.319   5.393   7.195  0.3650  0.2135 -0.2749
  138POPC   C1A 1962   3.628   5.125   6.878 -0.0547  0.0176 -0.0771
  138POPC   D2A 1963   3.419   5.070   6.481 -0.2065 -0.0202  0.2129
  138POPC   C3A 1964   3.389   4.741   6.257  0.0361 -0.0076  0.3645
  138POPC   C4A 1965   3.230   4.339   6.244 -0.0068 -0.0099  0.1822
  138POPC   C1B 1966   3.109   5.305   6.807 -0.2873  0.2621  0.1171
  138POPC   C2B 1967   2.906   5.113   6.559  0.0863 -0.4445 -0.1236
  138POPC   C3B 1968   2.664   5.162   6.214  0.2065 -0.1232 -0.0524
  138POPC   C4B 1969   2.231   5.277   6.051 -0.0032 -0.2432  0.1163
  139POPC   NC3 1970   3.714   9.250   8.285  0.0861 -0.1988  0.1103
  139POPC   PO4 1971   3.920   9.222   7.896  0.1231 -0.0879 -0.3474
  139POPC   GL1 1972   3.886   9.069   7.385 -0.1004 -0.0330 -0.3446
  139POPC   GL2 1973   3.684   8.839   7.216  0.1319  0.0548 -0.3487
  139POPC   C1A 1974   4.219   8.969   7.010  0.2886  0.2233 -0.0021
  139POPC   D2A 1975   4.366   8.745   6.611  0.4360 -0.1473 -0.3396
  139POPC   C3A 1976   4.045   8.530   6.332 -0.1805  0.4173 -0.0187
  139POPC   C4A 1977   3.964   8.165   6.485 -0.0230 -0.1563 -0.2165
  139POPC   C1B 1978   3.357   8.905   6.950  0.0986 -0.2046 -0.0913
  139POPC   C2B 1979   3.037   9.138   6.825  0.0046  0.1595  0.0772
  139POPC   C3B 1980   2.911   9.241   6.399 -0.1572  0.0148 -0.0583
  139POPC   C4B 1981   3.048   8.980   6.119  0.0931  0.0126  0.0614
  140POPC   NC3 1982  10.391   5.908   7.684 -0.1187 -0.1963  0.3388
  140POPC   PO4 1983  10.779   5.661   7.658 -0.1954 -0.0725  0.1838
  140POPC   GL1 1984  10.931   5.479   7.217  0.2117  0.1573  0.1064
  140POPC   GL2 1985  10.699   5.262   7.121 -0.2888 -0.0097  0.1840
  140POPC   C1A 1986  10.858   5.617   6.810  0.0002  0.0246  0.2979
  140POPC   D2A 1987  11.123   5.444   6.493 -0.0724 -0.1015 -0.1391
  140POPC   C3A 1988  11.228   5.713   6.189 -0.2686  0.2088  0.1806
  140POPC   C4A 1989  11.262   5.754   5.726 -0.0128 -0.1315  0.0295
  140POPC   C1B 1990  10.362   5.496   6.953 -0.0492 -0.0429 -0.0087
  140POPC   C2B 1991  10.183   5.558   6.554  0.0792  0.2148 -0.2363
  140POPC   C3B 1992   9.914   5.671   6.174  0.2283  0.1237 -0.3586
  140POPC   C4B 1993   9.816   6.093   6.048 -0.1044 -0.3196  0.1116
  141POPC   NC3 1994   5.773   3.810   7.778  0.0633  0.1464 -0.0770
  141POPC   PO4 1995   5.377   3.693   7.842  0.1721  0.0590 -0.0527
  141POPC   GL1 1996   5.464   3.624   7.351 -0.0238  0.3802 -0.1799
  141POPC   GL2 1997   5.159   3.705   7.179  0.0676  0.2930  0.0875
  141POPC   C1A 1998   5.678   3.698   6.959 -0.0405 -0.0999 -0.0875
  141POPC   D2A 1999   5.826   3.675   6.603  0.0673  0.0375 -0.0230
  141POPC   C3A 2000   6.183   3.442   6.646 -0.0278 -0.2526  0.1258
  141POPC   C4A 2001   6.317   3.292   6.248  0.2307  0.3792 -0.1278
  141POPC   C1B 2002   5.096   3.924   6.827 -0.3004 -0.3298 -0.0962
  141POPC   C2B 2003   4.996   4.033   6.463 -0.1294 -0.0919  0.0545
  141POPC   C3B 2004   4.886   4.021   6.098 -0.0327  0.1216 -0.0863
  141POPC   C4B 2005   4.851   4.110   5.644  0.0198  0.0179  0.0042
  142POPC   NC3 2006  10.422   3.130   8.045  0.0438 -0.0735  0.1141
  142POPC   PO4 2007  10.907   3.153   8.128  0.4221 -0.4110  0.0650
  142POPC   GL1 2008  10.755   3.329   7.640  0.1046  0.2407  0.0813
  142POPC   GL2 2009  10.544   3.082   7.507  0.0986  0.1257  0.2978
  142POPC   C1A 2010  10.674   3.392   7.153  0.0351 -0.0353 -0.1175
  142POPC   D2A 2011  10.428   3.178   6.826 -0.2496  0.2912 -0.2049
  142POPC   C3A 2012  10.465   3.554   6.493  0.0939  0.2180  0.1025
  142POPC   C4A 2013  10.501   4.046   6.320  0.3156  0.0089  0.1375
  142POPC   C1B 2014  10.256   2.810   7.207  0.4716  0.3290 -0.3437
  142POPC   C2B 2015  10.209   2.688   6.726  0.1031 -0.1658 -0.3557
  142POPC   C3B 2016  10.407   2.550   6.323  0.4337  0.0437  0.1483
  142POPC   C4B 2017  10.804   2.753   6.030 -0.0096  0.1866 -0.0702
  143POPC   NC3 2018   1.238   1.722   8.105  0.1656  0.1744  0.0051
  143POPC   PO4 2019   1.242   1.940   7.667  0.0731  0.1010  0.0881
  143POPC   GL1 2020   1.404   2.298   7.449  0.1133  0.2975  0.1807
  143POPC   GL2 2021   1.217   2.354   7.313 -0.2662 -0.1493  0.0358
  143POPC   C1A 2022   1.600   2.612   7.083  0.2972 -0.0638  0.1072
  143POPC   D2A 2023   1.771   2.630   6.620  0.2824 -0.0152 -0.2432
  143POPC   C3A 2024   1.929   2.679   6.263  0.3021 -0.0479  0.2040
  143POPC   C4A 2025   1.725   2.509   5.747 -0.3680 -0.3745 -0.0035
  143POPC   C1B 2026   1.060   2.229   7.036  0.1024 -0.0025  0.2108
  143POPC   C2B 2027   0.874   2.379   6.661  0.2314  0.1262  0.0073
  143POPC   C3B 2028   0.458   2.434   6.347 -0.1997 -0.0333 -0.2394
  143POPC   C4B 2029   0.156   2.255   6.206  0.0101 -0.0830 -0.1442
  144POPC   NC3 2030   0.085   3.840   7.584 -0.0376  0.0554  0.0742
  144POPC   PO4 2031  -0.316   3.536   7.682  0.0096  0.2880  0.0709
  144POPC   GL1 2032  -0.487   3.430   7.355 -0.0386 -0.0404 -0.2435
  144POPC   GL2 2033  -0.811   3.527   7.328 -0.1151  0.0625  0.2750
  144POPC   C1A 2034  -0.573   3.536   6.885  0.3263 -0.2225 -0.2186
  144POPC   D2A 2035  -0.752   3.618   6.472 -0.1367 -0.2139  0.1787
  144POPC   C3A 2036  -0.889   3.450   6.169  0.2274  0.0798  0.0588
  144POPC   C4A 2037  -1.267   3.154   5.973  0.0119 -0.0954 -0.0336
  144POPC   C1B 2038  -1.053   3.491   6.927  0.0706 -0.2865 -0.1125
  144POPC   C2B 2039  -1.540   3.414   6.863 -0.0801 -0.1083  0.1944
  144POPC   C3B 2040  -1.835   3.158   6.590  0.2022 -0.0373  0.0765
  144POPC   C4B 2041  -2.049   2.864   6.430 -0.1733 -0.0859  0.2476
  145POPC   NC3 2042   0.939   7.602   7.971  0.1779  0.2868  0.3859
  145POPC   PO4 2043   0.838   7.413   7.509 -0.0803 -0.1123 -0.2069
  145POPC   GL1 2044   0.881   7.402   7.132 -0.0994  0.4194 -0.2216
  145POPC   GL2 2045   0.777   7.050   7.123  0.1847 -0.0240 -0.0937
  145POPC   C1A 2046   0.911   7.306   6.735 -0.0945 -0.1815  0.1403
  145POPC   D2A 2047   1.223   7.383   6.439  0.0228 -0.0336  0.1838
  145POPC   C3A 2048   1.097   7.489   5.992 -0.0492 -0.0552 -0.1135
  145POPC   C4A 2049   1.132   7.534   5.649  0.1549 -0.4246  0.0721
  145POPC   C1B 2050   1.059   6.834   6.759  0.2897  0.0306  0.3395
  145POPC   C2B 2051   0.955   7.004   6.324  0.0081 -0.0114  0.1058
  145POPC   C3B 2052   0.685   7.396   6.314  0.0543  0.4070  0.5046
  145POPC   C4B 2053   0.280   7.538   6.193  0.0814  0.1477 -0.3836
  146POPC   NC3 2054   6.536   9.948   7.921 -0.0456  0.0002  0.1850
  146POPC   PO4 2055   6.644  10.328   7.871  0.0774  0.1508 -0.2568
  146POPC   GL1 2056   6.669  10.734   7.785 -0.0538  0.6484 -0.0084
  146POPC   GL2 2057   6.507  10.805   7.886 -0.0699  0.0700  0.3695
  146POPC   C1A 2058   6.681  10.826   7.346 -0.1244  0.1416  0.1117
  146POPC   D2A 2059   6.582  10.660   6.974 -0.0245  0.0609  0.0117
  146POPC   C3A 2060   6.677  10.519   6.580  0.0893  0.1661  0.1268
  146POPC   C4A 2061   6.720  10.455   6.139 -0.1810  0.0379 -0.0165
  146POPC   C1B 2062   6.202  10.852   7.580 -0.0441  0.0126 -0.1280
  146POPC   C2B 2063   6.076  10.410   7.416  0.1050  0.1010  0.2509
  146POPC   C3B 2064   5.863  10.287   7.137  0.1651  0.1037 -0.1477
  146POPC   C4B 2065   5.624   9.961   7.083  0.0970  0.0093 -0.0261
  147POPC   NC3 2066   4.680   5.511   8.055  0.0465  0.1303  0.1471
  147POPC   PO4 2067   4.885   5.748   7.700  0.1591 -0.0591 -0.2287
  147POPC   GL1 2068   4.626   5.683   7.252 -0.0104 -0.3161  0.1264
  147POPC   GL2 2069   4.624   5.380   7.103  0.0683  0.2751 -0.1359
  147POPC   C1A 2070   4.652   5.872   6.866 -0.1354 -0.0463  0.0759
  147POPC   D2A 2071   4.665   6.232   6.609  0.0684  0.2462  0.1303
  147POPC   C3A 2072   5.000   6.242   6.325 -0.2703 -0.1140 -0.2858
  147POPC   C4A 2073   5.107   6.651   6.160 -0.0899  0.1807  0.0324
  147POPC   C1B 2074   4.719   5.422   6.647 -0.2968 -0.1043 -0.0302
  147POPC   C2B 2075   4.692   5.285   6.217  0.0186  0.0857 -0.1992
  147POPC   C3B 2076   4.786   4.983   5.947  0.1692 -0.3539  0.1457
  147POPC   C4B 2077   5.088   5.149   5.608  0.2174 -0.2583  0.2210
  148POPC   NC3 2078   8.287   0.621   8.340 -0.0789 -0.1045  0.0253
  148POPC   PO4 2079   8.376   0.290   8.062 -0.4602  0.0724  0.0724
  148POPC   GL1 2080   8.461   0.299   7.615  0.1300 -0.1852 -0.1297
  148POPC   GL2 2081   8.615   0.058   7.445  0.1540  0.2043 -0.0773
  148POPC   C1A 2082   8.375   0.399   7.175  0.1137 -0.0892  0.2855
  148POPC   D2A 2083   8.478   0.651   6.953  0.1232  0.1927 -0.0572
  148POPC   C3A 2084   8.569   1.116   7.095  0.2825 -0.0103 -0.0637
  148POPC   C4A 2085   8.573   1.285   7.516  0.0453 -0.3923  0.1455
  148POPC   C1B 2086   8.130   0.001   7.293  0.0335  0.0229  0.0285
  148POPC   C2B 2087   7.932  -0.116   7.013 -0.0274  0.0698  0.1226
  148POPC   C3B 2088   7.583   0.164   6.771 -0.1153 -0.1048 -0.0458
  148POPC   C4B 2089   7.588  -0.111   6.319  0.0033 -0.0389  0.0382
  149POPC   NC3 2090   2.457   0.228   7.522  0.1312 -0.2289 -0.0808
  149POPC   PO4 2091   2.347  -0.199   7.569 -0.3095 -0.0040  0.0523
  149POPC   GL1 2092   2.322  -0.113   7.164 -0.3123 -0.0390  0.0991
  149POPC   GL2 2093   2.149   0.148   7.065  0.3311 -0.1091  0.0141
  149POPC   C1A 2094   2.513  -0.103   6.775  0.0792  0.1279  0.0591
  149POPC   D2A 2095   2.641  -0.272   6.396 -0.0451  0.2564  0.1273
  149POPC   C3A 2096   2.513  -0.529   6.137  0.3364  0.0453  0.0529
  149POPC   C4A 2097   2.215  -0.919   6.035  0.2204 -0.3020 -0.1754
  149POPC   C1B 2098   1.921   0.234   6.680  0.0791 -0.1362  0.1353
  149POPC   C2B 2099   1.588   0.258   6.347 -0.1978  0.1673 -0.0461
  149POPC   C3B 2100   1.220   0.093   6.064  0.1469  0.3240  0.2140
  149POPC   C4B 2101   0.994  -0.222   5.803 -0.0530  0.0067 -0.0986
  150POPC   NC3 2102   6.606   3.936   7.922 -0.2603  0.0243  0.3348
  150POPC   PO4 2103   6.238   4.241   7.692 -0.2420 -0.2137 -0.0838
  150POPC   GL1 2104   6.018   4.198   7.261 -0.0586  0.0875  0.1213
  150POPC   GL2 2105   6.057   4.436   7.060  0.1930 -0.0747  0.1509
  150POPC   C1A 2106   6.122   3.978   6.939  0.4034  0.0970  0.1080
  150POPC   D2A 2107   6.223   4.082   6.574 -0.0819  0.1932 -0.2081
  150POPC   C3A 2108   6.364   3.801   6.348 -0.1128  0.0087  0.0428
  150POPC   C4A 2109   5.976   3.598   6.101  0.0231 -0.0254  0.0927
  150POPC   C1B 2110   5.855   4.437   6.679 -0.1015  0.0959  0.1144
  150POPC   C2B 2111   5.928   4.566   6.277 -0.1028  0.0342 -0.0484
  150POPC   C3B 2112   5.911   4.521   5.850 -0.0312 -0.1053  0.0794
  150POPC   C4B 2113   6.254   4.490   5.528  0.0676 -0.0469 -0.0501
  151POPC   NC3 2114   9.651   3.238   8.277 -0.2724 -0.3987  0.0830
  151POPC   PO4 2115   9.416   3.012   7.936 -0.1489  0.1912  0.1378
  151POPC   GL1 2116   9.113   2.845   7.649  0.3201 -0.2593  0.2417
  151POPC   GL2 2117   8.811   2.940   7.640  0.1197  0.2244 -0.1079
  151POPC   C1A 2118   8.870   2.711   7.218  0.1944  0.1508 -0.0594
  151POPC   D2A 2119   8.678   2.540   6.906 -0.2477  0.2826  0.1950
  151POPC   C3A 2120   8.834   2.417   6.486  0.2330 -0.2076 -0.0358
  151POPC   C4A 2121   8.713   2.398   6.090  0.0536 -0.0683  0.2078
  151POPC   C1B 2122   8.417   2.779   7.514  0.2850  0.3301 -0.0818
  151POPC   C2B 2123   8.110   2.572   7.743  0.0265  0.0323 -0.1270
  151POPC   C3B 2124   7.980   2.115   7.649  0.2660 -0.1252 -0.3056
  151POPC   C4B 2125   7.918   1.850   7.935  0.1463  0.0268 -0.3274
  152POPC   NC3 2126   2.963   0.340   7.675 -0.0454 -0.1411 -0.2183
  152POPC   PO4 2127   2.907  -0.076   7.593 -0.1879  0.0412  0.1817
  152POPC   GL1 2128   2.793   0.032   7.238  0.1240  0.0881  0.1689
  152POPC   GL2 2129   2.960   0.287   7.167 -0.1396 -0.0064  0.1239
  152POPC   C1A 2130   2.976  -0.182   6.927  0.0019 -0.2421  0.1004
  152POPC   D2A 2131   3.360  -0.450   6.790  0.2551 -0.3837 -0.1347
  152POPC   C3A 2132   3.690  -0.359   6.637  0.0678  0.1498 -0.3523
  152POPC   C4A 2133   4.036  -0.450   6.492  0.1975 -0.0330  0.0282
  152POPC   C1B 2134   2.862   0.246   6.616  0.0616 -0.1224 -0.1717
  152POPC   C2B 2135   2.935   0.151   6.165  0.1202  0.5081 -0.1610
  152POPC   C3B 2136   2.876   0.537   6.066 -0.2294 -0.2206  0.4022
  152POPC   C4B 2137   2.727   0.889   6.173 -0.0134 -0.2372  0.0292
  153POPC   NC3 2138   3.817   9.542   7.559  0.1033  0.3058 -0.1145
  153POPC   PO4 2139   3.421   9.242   7.563  0.4162 -0.0784 -0.3774
  153POPC   GL1 2140   3.453   9.397   7.116 -0.2191 -0.1898 -0.0835
  153POPC   GL2 2141   3.776   9.291   6.926 -0.1202  0.1081  0.3587
  153POPC   C1A 2142   3.314   9.566   6.698 -0.0448  0.1006  0.0323
  153POPC   D2A 2143   3.005   9.799   6.308 -0.0917  0.0693  0.0346
  153POPC   C3A 2144   2.724   9.663   6.056  0.2661 -0.0462 -0.1265
  153POPC   C4A 2145   2.561   9.920   5.696  0.2111  0.1141 -0.0119
  153POPC   C1B 2146   3.781   9.361   6.549  0.1002  0.0753 -0.1824
  153POPC   C2B 2147   4.022   9.684   6.393 -0.0096 -0.0697 -0.0144
  153POPC   C3B 2148   3.998  10.021   6.047 -0.0826 -0.0614 -0.2378
  153POPC   C4B 2149   3.841  10.178   5.686  0.2583 -0.3340  0.1418
  154POPC   NC3 2150   5.330   0.983   8.726 -0.0127 -0.2734 -0.1615
  154POPC   PO4 2151   5.387   1.137   8.280  0.2871  0.0746 -0.0696
  154POPC   GL1 2152   5.323   1.234   7.925 -0.0928 -0.0692  0.1200
  154POPC   GL2 2153   5.255   1.530   7.838  0.2421 -0.0873 -0.1528
  154POPC   C1A 2154   5.641   1.272   7.609  0.0290 -0.0946 -0.2039
  154POPC   D2A 2155   5.896   1.065   7.353 -0.0662 -0.0814  0.1180
  154POPC   C3A 2156   6.343   0.938   7.302  0.2708  0.4998  0.0093
  154POPC   C4A 2157   6.511   0.593   7.576 -0.1172  0.1229 -0.2328
  154POPC   C1B 2158   5.211   1.525   7.415 -0.3394  0.1194  0.0708
  154POPC   C2B 2159   4.991   1.501   6.952 -0.1327  0.2154 -0.1204
  154POPC   C3B 2160   4.724   1.353   6.663  0.0355  0.0872  0.1610
  154POPC   C4B 2161   4.451   1.517   6.433  0.1992 -0.0046 -0.0254
  155POPC   NC3 2162   5.030  10.245   7.735  0.1190  0.0996  0.0827
  155POPC   PO4 2163   5.067   9.705   7.812 -0.3732 -0.1958  0.0768
  155POPC   GL1 2164   5.161   9.889   7.430 -0.1585  0.0354  0.3018
  155POPC   GL2 2165   5.150  10.211   7.261  0.0732 -0.1125  0.1729
  155POPC   C1A 2166   5.177   9.628   7.036  0.1176  0.0238  0.0563
  155POPC   D2A 2167   5.069   9.773   6.581 -0.1737 -0.2091 -0.2784
  155POPC   C3A 2168   4.685   9.746   6.430  0.1843  0.0057 -0.0908
  155POPC   C4A 2169   4.634   9.568   6.029  0.3541 -0.0791 -0.1890
  155POPC   C1B 2170   5.202  10.170   6.879 -0.0971 -0.1468 -0.1143
  155POPC   C2B 2171   5.001  10.200   6.371  0.0281  0.0656  0.2798
  155POPC   C3B 2172   4.910   9.997   5.997 -0.0401  0.0330  0.0387
  155POPC   C4B 2173   5.011   9.729   5.619 -0.1497 -0.3375 -0.3622
  156POPC   NC3 2174   8.194   7.702   7.559  0.1117  0.2464  0.1523
  156POPC   PO4 2175   8.173   7.910   7.097 -0.0979 -0.0093  0.1826
  156POPC   GL1 2176   8.161   8.135   6.734  0.0411  0.1259  0.0586
  156POPC   GL2 2177   7.995   8.071   6.436 -0.3244 -0.3910 -0.1925
  156POPC   C1A 2178   8.478   8.052   6.358 -0.2599  0.0134 -0.3686
  156POPC   D2A 2179   8.686   8.033   5.998 -0.1501  0.1549 -0.0732
  156POPC   C3A 2180   8.457   7.864   5.662 -0.0035 -0.1093 -0.1389
  156POPC   C4A 2181   8.244   7.680   5.464 -0.0575  0.1321  0.1408
  156POPC   C1B 2182   8.190   7.797   6.086  0.2681  0.1844 -0.0608
  156POPC   C2B 2183   8.086   7.406   6.010  0.0634  0.0651  0.0213
  156POPC   C3B 2184   8.433   7.204   6.000  0.1087  0.2884  0.3741
  156POPC   C4B 2185   8.783   7.013   5.689  0.1972 -0.0774  0.0375
  157POPC   NC3 2186   8.632   6.635   7.779  0.2346  0.0826 -0.2099
  157POPC   PO4 2187   8.876   6.809   7.508 -0.0846 -0.0283 -0.2170
  157POPC   GL1 2188   8.967   6.863   7.131  0.0001 -0.1168 -0.0847
  157POPC   GL2 2189   8.976   6.541   7.058  0.0506 -0.1448  0.0913
  157POPC   C1A 2190   9.154   6.821   6.644  0.0499 -0.1268 -0.1316
  157POPC   D2A 2191   9.146   6.733   6.240 -0.0507 -0.2725  0.0834
  157POPC   C3A 2192   9.306   6.351   6.117  0.2415  0.0796 -0.3634
  157POPC   C4A 2193   9.482   6.180   5.705 -0.1344  0.2122 -0.3304
  157POPC   C1B 2194   8.934   6.358   6.634  0.0231  0.0409 -0.2237
  157POPC   C2B 2195   8.716   6.258   6.256 -0.2722 -0.0947  0.0049
  157POPC   C3B 2196   8.525   6.110   5.901 -0.0162 -0.0644  0.3339
  157POPC   C4B 2197   8.733   5.820   5.640  0.2091 -0.4040  0.2369
  158POPC   NC3 2198   0.190   8.389   7.970  0.1417  0.3278 -0.3839
  158POPC   PO4 2199   0.554   8.297   7.724  0.0898  0.0718  0.0628
  158POPC   GL1 2200   0.800   8.290   7.318 -0.1966 -0.1586 -0.0981
  158POPC   GL2 2201   0.945   8.490   7.117  0.1854  0.1142  0.0136
  158POPC   C1A 2202   0.811   8.007   6.974 -0.0807  0.0198 -0.1721
  158POPC   D2A 2203   0.743   7.760   6.626 -0.3109  0.1196  0.5042
  158POPC   C3A 2204   0.685   7.923   6.197 -0.2151 -0.0731 -0.3075
  158POPC   C4A 2205   0.495   8.182   5.874  0.3226  0.1743 -0.0002
  158POPC   C1B 2206   0.714   8.561   6.738  0.0680  0.1357 -0.0689
  158POPC   C2B 2207   0.519   8.558   6.276 -0.0269 -0.0707  0.1384
  158POPC   C3B 2208   0.391   8.735   5.946  0.2060  0.0424 -0.0713
  158POPC   C4B 2209   0.155   8.580   5.594  0.2638  0.1457 -0.0744
  159POPC   NC3 2210   9.618   5.109   7.279 -0.0398  0.0277  0.1976
  159POPC   PO4 2211   9.973   4.961   7.345 -0.1830  0.3580 -0.1391
  159POPC   GL1 2212   9.896   4.989   6.907 -0.1791 -0.0470  0.1974
  159POPC   GL2 2213  10.276   4.957   6.872 -0.0438 -0.2570  0.3559
  159POPC   C1A 2214   9.732   5.183   6.486  0.1731 -0.2238 -0.2356
  159POPC   D2A 2215   9.544   5.682   6.486 -0.0089 -0.1407  0.0511
  159POPC   C3A 2216   9.384   5.756   6.173  0.4549 -0.0983 -0.3268
  159POPC   C4A 2217   9.068   5.902   5.974 -0.1095 -0.1933 -0.0029
  159POPC   C1B 2218  10.579   5.217   6.562  0.2756  0.0396 -0.1871
  159POPC   C2B 2219  10.790   4.978   6.225  0.0697  0.2058 -0.1198
  159POPC   C3B 2220  10.938   4.701   5.960 -0.1195 -0.2556 -0.0188
  159POPC   C4B 2221  10.847   4.304   5.815  0.0389 -0.0275 -0.1751
  160POPC   NC3 2222   4.115   1.671   7.706 -0.0594 -0.0493 -0.1404
  160POPC   PO4 2223   3.669   1.558   7.805  0.0260 -0.0122 -0.2249
  160POPC   GL1 2224   3.491   1.764   7.402  0.0167 -0.0470  0.0911
  160POPC   GL2 2225   3.825   1.853   7.290  0.0242 -0.3331 -0.2846
  160POPC   C1A 2226   3.178   1.625   7.115  0.0734 -0.0700 -0.0329
  160POPC   D2A 2227   3.241   1.247   6.844 -0.2503 -0.2646 -0.1917
  160POPC   C3A 2228   3.524   1.355   6.534 -0.4250 -0.3916 -0.1373
  160POPC   C4A 2229   3.623   1.341   6.124 -0.1598 -0.0263 -0.0572
  160POPC   C1B 2230   4.015   2.111   6.981 -0.3367  0.0201 -0.2168
  160POPC   C2B 2231   3.819   2.133   6.597 -0.0072 -0.2828  0.0391
  160POPC   C3B 2232   3.681   2.138   6.200  0.0951  0.2747  0.0784
  160POPC   C4B 2233   3.734   2.338   5.748  0.1281  0.1570 -0.0092
  161POPC   NC3 2234   7.031   9.143   8.365  0.2073 -0.1918  0.0238
  161POPC   PO4 2235   6.950   9.079   7.935  0.0467 -0.1630 -0.1091
  161POPC   GL1 2236   6.756   9.064   7.483 -0.0299  0.2472 -0.0348
  161POPC   GL2 2237   6.594   9.307   7.311  0.0623  0.0021 -0.0852
  161POPC   C1A 2238   6.905   9.041   7.046 -0.0088  0.1983 -0.0617
  161POPC   D2A 2239   7.134   9.347   6.771 -0.0009 -0.1787 -0.2057
  161POPC   C3A 2240   6.964   9.502   6.438 -0.1156 -0.0089  0.4117
  161POPC   C4A 2241   6.602   9.415   6.107 -0.0890 -0.4205  0.1853
  161POPC   C1B 2242   6.614   9.415   6.893  0.0735 -0.2354  0.0955
  161POPC   C2B 2243   6.374   9.730   6.584 -0.1773  0.2132 -0.2830
  161POPC   C3B 2244   6.186  10.059   6.268 -0.0905 -0.0354 -0.0822
  161POPC   C4B 2245   6.280  10.306   5.920 -0.0927  0.2321 -0.1408
  162POPC   NC3 2246   1.309   8.843   7.981  0.0238 -0.3508  0.1594
  162POPC   PO4 2247   1.517   8.888   7.549  0.2272 -0.0210  0.2434
  162POPC   GL1 2248   1.784   9.181   7.242  0.0395 -0.0821 -0.3573
  162POPC   GL2 2249   2.267   9.338   7.261 -0.2338 -0.2049 -0.3760
  162POPC   C1A 2250   2.089   9.298   6.778 -0.0513  0.1204  0.0507
  162POPC   D2A 2251   2.035   9.691   6.659 -0.0039  0.0889  0.2276
  162POPC   C3A 2252   2.337  10.000   6.645 -0.3402  0.0778 -0.2725
  162POPC   C4A 2253   2.765  10.100   6.811 -0.0461  0.1177 -0.0511
  162POPC   C1B 2254   2.553   9.240   7.001 -0.0413  0.0746 -0.0038
  162POPC   C2B 2255   2.536   8.925   6.651  0.0785 -0.0700  0.1684
  162POPC   C3B 2256   2.612   8.595   6.392  0.1615 -0.1355 -0.3858
  162POPC   C4B 2257   2.691   8.613   6.004 -0.2746 -0.1814  0.0559
  163POPC   NC3 2258   4.767   3.265   8.428  0.0099 -0.4942 -0.3215
  163POPC   PO4 2259   5.004   3.054   8.140  0.1108 -0.1384 -0.2178
  163POPC   GL1 2260   4.861   2.935   7.730  0.2731  0.1077 -0.0765
  163POPC   GL2 2261   4.637   2.701   7.729 -0.3142  0.3902 -0.0677
  163POPC   C1A 2262   4.978   2.777   7.344 -0.1465 -0.0753 -0.1492
  163POPC   D2A 2263   4.864   2.768   6.934  0.0956  0.3124 -0.0456
  163POPC   C3A 2264   4.967   3.110   6.596 -0.0700  0.0788  0.1443
  163POPC   C4A 2265   5.362   3.208   6.251  0.0994  0.2645 -0.0823
  163POPC   C1B 2266   4.391   2.658   7.388  0.0921 -0.0733  0.1226
  163POPC   C2B 2267   4.407   2.871   7.023 -0.4284 -0.0627 -0.2024
  163POPC   C3B 2268   4.493   3.203   6.730  0.1530  0.3335  0.2852
  163POPC   C4B 2269   4.561   3.145   6.260 -0.3345 -0.0202  0.3340
  164POPC   NC3 2270   6.989   4.937   7.773 -0.0063 -0.1469 -0.2485
  164POPC   PO4 2271   6.506   4.945   7.560 -0.0702 -0.4498 -0.0853
  164POPC   GL1 2272   6.514   4.527   7.270  0.4535 -0.0638 -0.0557
  164POPC   GL2 2273   6.659   4.235   7.433  0.0129  0.2061  0.0047
  164POPC   C1A 2274   6.549   4.261   6.903 -0.2577  0.0262 -0.1346
  164POPC   D2A 2275   6.795   3.988   6.686  0.2487 -0.1803 -0.2533
  164POPC   C3A 2276   6.793   4.028   6.278  0.2093 -0.2075  0.0052
  164POPC   C4A 2277   6.701   4.291   5.860  0.2676 -0.3764  0.0492
  164POPC   C1B 2278   6.921   3.998   7.184  0.4257 -0.1558 -0.0843
  164POPC   C2B 2279   7.088   3.595   6.920 -0.0262 -0.2405  0.0051
  164POPC   C3B 2280   7.219   3.191   6.774  0.3531 -0.1718 -0.2710
  164POPC   C4B 2281   7.242   2.803   6.667  0.2188 -0.0429 -0.0542
  165POPC   NC3 2282   4.987   2.460   8.173 -0.0562  0.1545  0.1669
  165POPC   PO4 2283   4.880   2.055   8.136 -0.1599  0.0026 -0.0775
  165POPC   GL1 2284   4.757   2.176   7.778 -0.0613 -0.1956 -0.1278
  165POPC   GL2 2285   4.880   1.854   7.657  0.1335  0.2057  0.1274
  165POPC   C1A 2286   4.884   2.248   7.373 -0.1100 -0.0273  0.1702
  165POPC   D2A 2287   5.138   2.293   7.029  0.1508  0.0249 -0.1440
  165POPC   C3A 2288   4.953   2.319   6.599  0.0781 -0.1270  0.1178
  165POPC   C4A 2289   4.733   2.360   6.101  0.0566 -0.1647 -0.0204
  165POPC   C1B 2290   4.685   1.801   7.356 -0.0335 -0.0246 -0.2129
  165POPC   C2B 2291   4.791   1.918   6.883  0.0788  0.1097 -0.3830
  165POPC   C3B 2292   4.902   1.762   6.451 -0.2607 -0.2840  0.0074
  165POPC   C4B 2293   5.354   1.541   6.262  0.0154  0.0783  0.1565
  166POPC   NC3 2294   3.689   4.480   7.789 -0.2091 -0.1159  0.0286
  166POPC   PO4 2295   4.143   4.507   7.768  0.3179  0.1400  0.0094
  166POPC   GL1 2296   4.154   4.482   7.324  0.0213 -0.1061 -0.2210
  166POPC   GL2 2297   4.341   4.190   7.082  0.2912 -0.1106 -0.1864
  166POPC   C1A 2298   3.901   4.722   6.976 -0.1973  0.1687  0.0734
  166POPC   D2A 2299   3.669   4.605   6.668 -0.0674 -0.2101  0.1763
  166POPC   C3A 2300   3.742   4.395   6.306 -0.2779 -0.0030  0.2355
  166POPC   C4A 2301   3.999   4.496   5.962  0.1316 -0.2028  0.1689
  166POPC   C1B 2302   4.328   3.945   6.664 -0.3788 -0.2166  0.2670
  166POPC   C2B 2303   3.941   3.917   6.334 -0.0378 -0.0419  0.1631
  166POPC   C3B 2304   3.873   3.641   5.979 -0.2860  0.1272 -0.1671
  166POPC   C4B 2305   4.040   3.180   5.941 -0.1325 -0.1018  0.0638
  167POPC   NC3 2306   2.179   7.260   7.642  0.0117 -0.0000 -0.3018
  167POPC   PO4 2307   2.442   7.155   7.360  0.0349  0.1182 -0.2150
  167POPC   GL1 2308   2.111   7.340   7.039  0.1340 -0.2319 -0.0815
  167POPC   GL2 2309   2.293   7.720   7.050 -0.4005  0.4462  0.0436
  167POPC   C1A 2310   2.185   7.325   6.599  0.2429  0.1336 -0.1358
  167POPC   D2A 2311   2.551   7.403   6.316 -0.1343  0.1693 -0.1305
  167POPC   C3A 2312   2.527   7.285   5.846  0.2627  0.1996  0.0907
  167POPC   C4A 2313   2.404   7.685   5.772  0.1738  0.1340  0.0852
  167POPC   C1B 2314   2.146   7.977   6.745 -0.1453 -0.0873  0.0245
  167POPC   C2B 2315   2.033   8.281   6.490  0.0190  0.1842  0.0401
  167POPC   C3B 2316   2.287   8.355   6.081 -0.0771  0.1343  0.0234
  167POPC   C4B 2317   2.347   8.304   5.637 -0.1323 -0.1863 -0.2097
  168POPC   NC3 2318   2.580   6.065   7.881  0.1711  0.1688  0.0152
  168POPC   PO4 2319   2.133   5.939   7.760  0.1680 -0.3467 -0.0589
  168POPC   GL1 2320   2.274   5.660   7.396 -0.5274  0.1536 -0.1269
  168POPC   GL2 2321   2.537   5.410   7.282 -0.3861  0.0323  0.0217
  168POPC   C1A 2322   2.108   5.450   7.011 -0.1771 -0.0608 -0.1164
  168POPC   D2A 2323   2.226   5.408   6.516  0.0612 -0.1340 -0.1003
  168POPC   C3A 2324   2.159   5.794   6.233  0.0204 -0.2027 -0.0121
  168POPC   C4A 2325   2.288   6.022   5.889  0.1312  0.1365 -0.2565
  168POPC   C1B 2326   2.629   5.487   6.908  0.1984  0.0150 -0.1358
  168POPC   C2B 2327   2.711   5.613   6.475  0.0494 -0.1350  0.0770
  168POPC   C3B 2328   2.584   5.629   6.040 -0.1424  0.2939 -0.0616
  168POPC   C4B 2329   2.597   5.712   5.608  0.0682  0.0382  0.1114
  169POPC   NC3 2330   7.884   9.942   8.151 -0.0393  0.5194 -0.2703
  169POPC   PO4 2331   8.132   9.807   7.744 -0.0791  0.2865  0.1102
  169POPC   GL1 2332   8.315   9.911   7.309  0.3147  0.3572 -0.0041
  169POPC   GL2 2333   8.540  10.230   7.370  0.0109 -0.0665  0.1629
  169POPC   C1A 2334   8.155  10.108   6.917 -0.0024  0.0103  0.0861
  169POPC   D2A 2335   7.781  10.236   6.630  0.0444  0.1065 -0.0406
  169POPC   C3A 2336   8.047  10.364   6.231 -0.0202 -0.1711  0.0421
  169POPC   C4A 2337   8.047  10.233   5.758 -0.1717 -0.1078  0.0016
  169POPC   C1B 2338   8.518  10.479   6.962  0.2825 -0.1407  0.0049
  169POPC   C2B 2339   8.461  10.498   6.590  0.4492  0.1521  0.0207
  169POPC   C3B 2340   8.366  10.736   6.254 -0.0760 -0.5211  0.1966
  169POPC   C4B 2341   8.647  10.932   6.032 -0.2596 -0.4332 -0.2502
  170POPC   NC3 2342   9.577   8.664   7.252  0.2100  0.1481  0.1700
  170POPC   PO4 2343  10.010   8.575   7.418  0.0825 -0.0048  0.0318
  170POPC   GL1 2344  10.190   8.717   7.123  0.0522 -0.2160  0.0324
  170POPC   GL2 2345  10.114   8.405   6.919 -0.2221  0.3952  0.1853
  170POPC   C1A 2346  10.225   8.922   6.706  0.2235  0.1657  0.1404
  170POPC   D2A 2347  10.543   8.870   6.323 -0.0291 -0.1795 -0.1978
  170POPC   C3A 2348  10.841   9.263   6.137 -0.5715  0.1863 -0.4010
  170POPC   C4A 2349  11.149   9.519   6.308 -0.0255 -0.1894 -0.0513
  170POPC   C1B 2350   9.950   8.033   6.610 -0.1297 -0.1371  0.0203
  170POPC   C2B 2351   9.746   8.116   6.186 -0.0640  0.2127 -0.0218
  170POPC   C3B 2352   9.661   8.251   5.665 -0.3647 -0.4543  0.5254
  170POPC   C4B 2353   9.818   8.090   5.301 -0.0751 -0.0075  0.0283
  171POPC   NC3 2354   9.137   9.710   7.657 -0.1854 -0.1403  0.0274
  171POPC   PO4 2355   9.570   9.557   7.374 -0.2059 -0.1646 -0.2562
  171POPC   GL1 2356   9.616   9.622   6.925  0.1671 -0.2653 -0.2016
  171POPC   GL2 2357   9.414   9.523   6.758  0.0666 -0.1465  0.0666
  171POPC   C1A 2358   9.743   9.891   6.666 -0.0888  0.0479  0.0065
  171POPC   D2A 2359   9.826   9.984   6.283 -0.1199 -0.0648 -0.2918
  171POPC   C3A 2360   9.673   9.803   5.864  0.2816 -0.2022  0.1359
  171POPC   C4A 2361   9.397   9.730   5.604  0.1264  0.0414  0.0230
  171POPC   C1B 2362   9.539   9.570   6.313  0.2068  0.0807 -0.0143
  171POPC   C2B 2363   9.943   9.558   6.172  0.0473  0.2034 -0.2850
  171POPC   C3B 2364  10.189   9.179   5.895  0.0844  0.1158  0.3029
  171POPC   C4B 2365  10.314   9.130   5.444 -0.0588 -0.1975 -0.2176
  172POPC   NC3 2366   3.024   9.848   7.647  0.0507 -0.0233 -0.1284
  172POPC   PO4 2367   3.400   9.767   7.424 -0.1342 -0.0785 -0.1540
  172POPC   GL1 2368   3.068   9.798   7.123 -0.0562 -0.0161  0.0025
  172POPC   GL2 2369   2.894   9.539   7.193  0.0647  0.0368  0.2169
  172POPC   C1A 2370   2.826   9.617   6.712  0.1571 -0.0417  0.1841
  172POPC   D2A 2371   2.527   9.469   6.533  0.1531  0.0063  0.0039
  172POPC   C3A 2372   2.486   9.175   6.157  0.0822 -0.2112 -0.1589
  172POPC   C4A 2373   2.198   8.855   5.913 -0.1538 -0.1121 -0.0564
  172POPC   C1B 2374   2.501   9.679   7.083  0.4120 -0.0833  0.1295
  172POPC   C2B 2375   2.230  10.053   7.093  0.1014  0.2652 -0.0859
  172POPC   C3B 2376   2.029  10.426   6.758 -0.0181 -0.2513  0.2793
  172POPC   C4B 2377   2.206  10.581   6.316  0.4459 -0.0499 -0.0584
  173POPC   NC3 2378   2.015   7.712   8.056  0.1278  0.1033  0.1042
  173POPC   PO4 2379   1.714   7.516   7.614  0.1326  0.3917  0.0617
  173POPC   GL1 2380   1.713   7.629   7.092 -0.2556 -0.2588 -0.1335
  173POPC   GL2 2381   1.855   8.015   7.097 -0.3973 -0.1647 -0.0424
  173POPC   C1A 2382   1.764   7.525   6.640  0.1481  0.0297  0.0726
  173POPC   D2A 2383   1.640   7.301   6.198 -0.1151  0.0675  0.1327
  173POPC   C3A 2384   1.689   7.379   5.636  0.1284  0.1056  0.3052
  173POPC   C4A 2385   1.978   7.478   5.284  0.0563  0.0038  0.0245
  173POPC   C1B 2386   1.602   8.104   6.760  0.0815  0.1363 -0.1395
  173POPC   C2B 2387   1.193   8.260   6.673  0.2233 -0.2788  0.1211
  173POPC   C3B 2388   0.940   8.303   6.328  0.2397 -0.0071  0.0543
  173POPC   C4B 2389   1.038   8.258   5.900  0.1556  0.1795  0.1693
  174POPC   NC3 2390   6.892   9.764   3.880 -0.1787 -0.0247 -0.1453
  174POPC   PO4 2391   6.770  10.136   3.660  0.0079 -0.2889 -0.2151
  174POPC   GL1 2392   6.995  10.305   4.066 -0.1195  0.0014  0.0791
  174POPC   GL2 2393   7.286  10.075   4.133  0.0330  0.0893 -0.3432
  174POPC   C1A 2394   6.946  10.222   4.450 -0.0906 -0.1028 -0.1774
  174POPC   D2A 2395   7.037  10.275   4.937  0.1931 -0.3569  0.3101
  174POPC   C3A 2396   6.626  10.400   5.196  0.1718  0.1622 -0.0236
  174POPC   C4A 2397   6.305  10.255   5.395  0.0197  0.0678 -0.3804
  174POPC   C1B 2398   7.393   9.801   4.489 -0.0250  0.3333 -0.1455
  174POPC   C2B 2399   7.154   9.492   4.718 -0.1518  0.0296 -0.0812
  174POPC   C3B 2400   7.125   9.553   5.161  0.0726  0.0602 -0.4446
  174POPC   C4B 2401   7.357   9.514   5.518  0.1018 -0.2079 -0.0024
  175POPC   NC3 2402   9.155   1.227   3.490  0.1968 -0.0369 -0.2481
  175POPC   PO4 2403   9.344   0.949   3.944 -0.0978 -0.1585 -0.2394
  175POPC   GL1 2404   9.492   0.744   4.286 -0.2049  0.1314 -0.2196
  175POPC   GL2 2405   9.214   0.767   4.455 -0.0363 -0.2319 -0.2708
  175POPC   C1A 2406   9.672   0.659   4.692 -0.1066  0.2199 -0.3364
  175POPC   D2A 2407   9.730   0.891   5.112 -0.2240  0.0566  0.0314
  175POPC   C3A 2408   9.264   0.731   5.305 -0.0124 -0.4238  0.0437
  175POPC   C4A 2409   9.062   0.898   5.660 -0.3257  0.0545  0.3130
  175POPC   C1B 2410   9.181   0.571   4.868  0.0042  0.0156  0.0288
  175POPC   C2B 2411   8.719   0.438   5.164 -0.2042  0.0066 -0.0263
  175POPC   C3B 2412   8.457   0.198   5.418 -0.0578 -0.3299  0.1728
  175POPC   C4B 2413   8.220   0.175   5.792  0.2404 -0.0950 -0.2305
  176POPC   NC3 2414   5.698   6.140   3.540  0.1641 -0.0126 -0.2639
  176POPC   PO4 2415   6.095   6.170   3.371 -0.1023  0.1250  0.0122
  176POPC   GL1 2416   6.115   6.213   3.806 -0.0568 -0.1429 -0.2686
  176POPC   GL2 2417   6.322   6.352   4.000  0.0120  0.1796  0.1140
  176POPC   C1A 2418   5.833   6.143   4.165  0.3519  0.2523 -0.0430
  176POPC   D2A 2419   5.575   5.852   4.353  0.2453  0.2003  0.0751
  176POPC   C3A 2420   5.373   5.804   4.836 -0.1111 -0.2092 -0.1696
  176POPC   C4A 2421   5.267   5.518   5.126 -0.2108 -0.1195  0.1003
  176POPC   C1B 2422   6.272   6.333   4.418 -0.0521 -0.0981  0.1958
  176POPC   C2B 2423   6.442   6.323   4.911 -0.2079  0.2290 -0.2846
  176POPC   C3B 2424   6.581   6.232   5.192 -0.2945 -0.1054  0.1640
  176POPC   C4B 2425   6.725   5.942   5.517 -0.1466  0.0189 -0.1639
  177POPC   NC3 2426   3.566   9.407   3.684 -0.0519 -0.0319 -0.1725
  177POPC   PO4 2427   3.685   9.685   3.950 -0.1522  0.1013  0.0125
  177POPC   GL1 2428   3.684   9.596   4.316  0.0634  0.1496 -0.3573
  177POPC   GL2 2429   3.456   9.606   4.682  0.0180 -0.0122 -0.3149
  177POPC   C1A 2430   3.721   9.208   4.436 -0.0547  0.2013  0.0620
  177POPC   D2A 2431   3.681   8.717   4.436 -0.0344  0.0385 -0.1306
  177POPC   C3A 2432   3.668   8.547   4.843 -0.1341 -0.1015 -0.3027
  177POPC   C4A 2433   3.412   8.577   5.279  0.1045  0.4826 -0.1922
  177POPC   C1B 2434   3.454   9.372   5.124  0.0973 -0.0807 -0.0074
  177POPC   C2B 2435   3.440   9.061   5.385  0.1090  0.1535  0.2279
  177POPC   C3B 2436   3.529   8.756   5.731 -0.1912  0.0574 -0.1329
  177POPC   C4B 2437   3.548   8.634   6.165 -0.0228  0.0990  0.1847
  178POPC   NC3 2438   8.306   3.255   3.393  0.2967  0.2173  0.1009
  178POPC   PO4 2439   7.891   3.107   3.287 -0.0933  0.1946 -0.1883
  178POPC   GL1 2440   7.637   2.754   3.501 -0.2107  0.0622 -0.1349
  178POPC   GL2 2441   7.757   2.781   3.794  0.2408  0.1971  0.3794
  178POPC   C1A 2442   7.327   2.527   3.619  0.0126  0.1143  0.0114
  178POPC   D2A 2443   7.007   2.470   3.951 -0.0638 -0.3812  0.0843
  178POPC   C3A 2444   6.717   2.181   4.186 -0.1566  0.0322 -0.1467
  178POPC   C4A 2445   6.725   1.850   4.330  0.0902  0.0625 -0.0516
  178POPC   C1B 2446   7.870   2.572   4.147  0.2358  0.0375 -0.0763
  178POPC   C2B 2447   8.189   2.462   4.456 -0.1094  0.0733  0.0602
  178POPC   C3B 2448   8.557   2.375   4.541  0.0469  0.0567  0.3106
  178POPC   C4B 2449   8.945   2.373   4.809 -0.1890  0.0463 -0.3038
  179POPC   NC3 2450   7.447   8.912   3.773  0.3836  0.0049  0.1389
  179POPC   PO4 2451   7.803   9.229   3.797 -0.0633 -0.0717 -0.4176
  179POPC   GL1 2452   7.739   9.269   4.240 -0.0228 -0.1578  0.0419
  179POPC   GL2 2453   7.423   9.137   4.202  0.0151  0.0546 -0.2166
  179POPC   C1A 2454   7.629   9.393   4.646  0.2416 -0.1020 -0.2773
  179POPC   D2A 2455   7.590   9.407   5.069 -0.1918 -0.1978  0.2429
  179POPC   C3A 2456   8.013   9.240   5.332 -0.0402  0.1935  0.0066
  179POPC   C4A 2457   8.364   9.239   5.490  0.1388 -0.2038  0.2548
  179POPC   C1B 2458   7.587   8.722   4.400 -0.0796  0.1388 -0.0499
  179POPC   C2B 2459   7.972   8.559   4.548 -0.2174  0.0781  0.0712
  179POPC   C3B 2460   8.438   8.634   4.370 -0.0933  0.2798  0.0739
  179POPC   C4B 2461   8.933   8.619   4.312  0.1626  0.0607 -0.2614
  180POPC   NC3 2462  10.271   9.600   3.737 -0.1878 -0.2782  0.0399
  180POPC   PO4 2463  10.048   9.991   3.510  0.2809  0.3690 -0.1059
  180POPC   GL1 2464   9.957   9.910   3.995 -0.1311  0.0905 -0.2095
  180POPC   GL2 2465   9.710   9.697   3.998 -0.2547 -0.3129  0.1130
  180POPC   C1A 2466   9.705   9.979   4.348 -0.0456  0.3080  0.1423
  180POPC   D2A 2467   9.714   9.732   4.755 -0.0242 -0.1546  0.0677
  180POPC   C3A 2468   9.386   9.730   5.109  0.0835  0.0723  0.0816
  180POPC   C4A 2469   8.915   9.798   5.310 -0.0077 -0.1193 -0.1678
  180POPC   C1B 2470   9.913   9.483   4.334  0.0254 -0.0351 -0.2962
  180POPC   C2B 2471  10.192   9.375   4.609 -0.1922  0.2434  0.0979
  180POPC   C3B 2472  10.410   9.285   4.961 -0.2593  0.0103 -0.1874
  180POPC   C4B 2473  10.729   8.958   5.100 -0.0030  0.0127 -0.1581
  181POPC   NC3 2474   5.726   8.986   3.775 -0.1178 -0.1199 -0.2406
  181POPC   PO4 2475   5.348   8.674   3.649  0.0513 -0.3181 -0.0198
  181POPC   GL1 2476   5.497   8.449   4.085  0.0754  0.3494 -0.3064
  181POPC   GL2 2477   5.922   8.406   4.215  0.2829 -0.2674  0.1850
  181POPC   C1A 2478   5.325   8.396   4.493 -0.3358  0.0898 -0.3786
  181POPC   D2A 2479   5.293   8.681   4.879  0.0328 -0.2276  0.0609
  181POPC   C3A 2480   5.239   8.733   5.304  0.0837  0.0605  0.0519
  181POPC   C4A 2481   5.347   8.625   5.696  0.0035  0.1024 -0.0234
  181POPC   C1B 2482   6.065   8.573   4.594  0.0970 -0.1068  0.0961
  181POPC   C2B 2483   6.028   8.690   4.984  0.0833  0.1882  0.3315
  181POPC   C3B 2484   5.775   8.994   5.193  0.0625  0.2464  0.3071
  181POPC   C4B 2485   5.670   8.974   5.618  0.2881  0.3064  0.0350
  182POPC   NC3 2486   0.454   5.526   3.622  0.1299  0.2065  0.4093
  182POPC   PO4 2487   0.760   5.801   3.869 -0.2700 -0.0374 -0.0306
  182POPC   GL1 2488   0.579   5.679   4.206 -0.0746 -0.2495 -0.0248
  182POPC   GL2 2489   0.393   5.457   4.172  0.0137  0.1871  0.1951
  182POPC   C1A 2490   0.290   5.822   4.571  0.0063  0.0110  0.2495
  182POPC   D2A 2491  -0.001   5.565   4.811 -0.0166 -0.2478 -0.1159
  182POPC   C3A 2492  -0.144   5.355   5.291  0.0740  0.1288  0.0488
  182POPC   C4A 2493  -0.144   5.091   5.599 -0.0250 -0.2856  0.2491
  182POPC   C1B 2494   0.330   5.307   4.536 -0.2344  0.1362 -0.1096
  182POPC   C2B 2495   0.366   5.317   5.061  0.1464  0.1552  0.0639
  182POPC   C3B 2496   0.312   5.295   5.541 -0.0239 -0.1069 -0.0321
  182POPC   C4B 2497   0.617   5.294   5.835 -0.2669 -0.1736 -0.1866
  183POPC   NC3 2498   9.315   2.981   3.250 -0.0181 -0.1626 -0.0196
  183POPC   PO4 2499   9.169   3.063   3.744 -0.1625  0.1370  0.1778
  183POPC   GL1 2500   9.032   3.255   4.179  0.2805  0.1937  0.1699
  183POPC   GL2 2501   9.184   3.463   4.279  0.0637 -0.0504  0.3248
  183POPC   C1A 2502   8.775   3.263   4.428  0.1715 -0.0864  0.0546
  183POPC   D2A 2503   8.355   3.380   4.669 -0.1841  0.1493 -0.0498
  183POPC   C3A 2504   8.294   3.543   5.113 -0.0450  0.0974 -0.0718
  183POPC   C4A 2505   8.299   3.461   5.591 -0.0201  0.3636  0.0703
  183POPC   C1B 2506   9.212   3.646   4.727  0.2556 -0.2116 -0.1393
  183POPC   C2B 2507   8.876   3.676   5.027  0.2528 -0.2472  0.2838
  183POPC   C3B 2508   8.711   3.652   5.349  0.1147  0.1077 -0.2142
  183POPC   C4B 2509   8.729   3.657   5.859  0.0435 -0.0575  0.3540
  184POPC   NC3 2510   9.571   1.766   3.966  0.4203  0.0513  0.0285
  184POPC   PO4 2511   9.991   1.962   3.933  0.0154  0.0615  0.0118
  184POPC   GL1 2512   9.908   1.930   4.346  0.1876 -0.1308 -0.0624
  184POPC   GL2 2513   9.749   1.586   4.433  0.0978  0.0059  0.1344
  184POPC   C1A 2514  10.202   1.848   4.698  0.0813  0.0205 -0.2103
  184POPC   D2A 2515  10.273   1.661   5.145 -0.3729 -0.0655  0.1747
  184POPC   C3A 2516  10.137   1.900   5.528  0.1614 -0.2267  0.2417
  184POPC   C4A 2517  10.284   2.309   5.751 -0.2347  0.0778 -0.1274
  184POPC   C1B 2518   9.409   1.681   4.652 -0.3104 -0.1876  0.0789
  184POPC   C2B 2519   9.127   1.597   4.950 -0.3755 -0.3462 -0.1027
  184POPC   C3B 2520   9.118   1.610   5.491  0.0043  0.0598  0.1284
  184POPC   C4B 2521   8.820   1.705   5.860 -0.5654  0.0333 -0.3965
  185POPC   NC3 2522   0.393   1.581   4.200  0.3104 -0.5230 -0.0770
  185POPC   PO4 2523   0.720   1.746   3.864 -0.0266  0.1027  0.0997
  185POPC   GL1 2524   0.990   1.699   4.236 -0.0546 -0.0575  0.0061
  185POPC   GL2 2525   0.761   1.996   4.274 -0.2337  0.2443 -0.0896
  185POPC   C1A 2526   1.054   1.738   4.601 -0.0857  0.3047 -0.0536
  185POPC   D2A 2527   1.109   1.904   5.026 -0.1914 -0.1693  0.0684
  185POPC   C3A 2528   1.024   1.607   5.401 -0.2719  0.1867  0.0653
  185POPC   C4A 2529   1.223   1.293   5.728  0.0842 -0.0923  0.0827
  185POPC   C1B 2530   0.776   2.142   4.690  0.4103 -0.2191 -0.1739
  185POPC   C2B 2531   1.213   2.307   4.703  0.1932 -0.2478 -0.1638
  185POPC   C3B 2532   1.342   2.380   5.136 -0.0796 -0.0131  0.0214
  185POPC   C4B 2533   1.245   2.509   5.465 -0.1093  0.0500  0.0002
  186POPC   NC3 2534   9.741  10.311   3.711  0.0607 -0.0792  0.0626
  186POPC   PO4 2535   9.738  10.714   3.946  0.3803  0.1653  0.1373
  186POPC   GL1 2536   9.648  10.494   4.246  0.1361  0.2407  0.3715
  186POPC   GL2 2537   9.936  10.769   4.409 -0.0125 -0.0897 -0.0214
  186POPC   C1A 2538   9.354  10.384   4.513  0.2966 -0.2004 -0.0603
  186POPC   D2A 2539   8.999  10.254   4.777 -0.1913 -0.1032 -0.1042
  186POPC   C3A 2540   9.171  10.226   5.124  0.2978  0.3360 -0.3003
  186POPC   C4A 2541   9.349  10.246   5.465 -0.1882  0.0600 -0.2633
  186POPC   C1B 2542  10.177  10.760   4.832 -0.3293  0.0660  0.1032
  186POPC   C2B 2543  10.148  10.379   5.070 -0.2082 -0.3523 -0.3941
  186POPC   C3B 2544  10.355  10.303   5.499 -0.1905 -0.0680 -0.1614
  186POPC   C4B 2545  10.599  10.573   5.768 -0.0831  0.1037 -0.0954
  187POPC   NC3 2546   1.021  10.135   3.135  0.0274  0.1178 -0.1911
  187POPC   PO4 2547   0.936  10.175   3.679 -0.2020 -0.0310 -0.0154
  187POPC   GL1 2548   0.856  10.254   4.108 -0.1719  0.3628  0.1426
  187POPC   GL2 2549   1.052  10.372   4.363 -0.0051  0.0803  0.0824
  187POPC   C1A 2550   0.571  10.081   4.449  0.0497  0.0273  0.0504
  187POPC   D2A 2551   0.564  10.073   4.912 -0.0501  0.1175  0.0486
  187POPC   C3A 2552   0.371   9.853   5.271 -0.1079 -0.1014 -0.0044
  187POPC   C4A 2553   0.224   9.667   5.510 -0.2486  0.0915 -0.0847
  187POPC   C1B 2554   0.927  10.386   4.787  0.0365 -0.0101  0.0030
  187POPC   C2B 2555   0.836  10.238   5.252 -0.3224 -0.1454  0.0498
  187POPC   C3B 2556   0.797  10.030   5.643 -0.0771 -0.2141 -0.0002
  187POPC   C4B 2557   0.864   9.674   5.973 -0.3920  0.2627  0.1531
  188POPC   NC3 2558   4.303   7.703   3.503  0.0400  0.1505  0.2648
  188POPC   PO4 2559   4.064   7.378   3.343 -0.0828 -0.1336  0.0458
  188POPC   GL1 2560   4.085   7.407   3.924 -0.3671 -0.0609  0.0169
  188POPC   GL2 2561   4.458   7.409   3.937  0.0466  0.1966  0.0017
  188POPC   C1A 2562   3.893   7.666   4.298  0.1680 -0.1526 -0.1851
  188POPC   D2A 2563   3.775   7.458   4.751 -0.2630  0.1623 -0.2680
  188POPC   C3A 2564   3.677   7.606   5.174  0.1645  0.1335  0.0292
  188POPC   C4A 2565   3.345   7.621   5.429 -0.4740 -0.0287 -0.0412
  188POPC   C1B 2566   4.437   7.529   4.270 -0.0836  0.3893 -0.0064
  188POPC   C2B 2567   4.215   7.645   4.724 -0.2031 -0.2773  0.0635
  188POPC   C3B 2568   4.191   7.869   5.190 -0.2019 -0.0029  0.1387
  188POPC   C4B 2569   4.124   7.589   5.655  0.1449  0.1140  0.0871
  189POPC   NC3 2570  10.440   8.707   3.440 -0.0437  0.0127 -0.3559
  189POPC   PO4 2571  10.409   9.108   3.714 -0.0676 -0.3823  0.1702
  189POPC   GL1 2572  10.328   8.819   4.061  0.1319 -0.3732  0.3118
  189POPC   GL2 2573  10.477   8.983   4.285  0.0642  0.0710 -0.1178
  189POPC   C1A 2574  10.026   8.753   4.344  0.0431  0.1756 -0.3544
  189POPC   D2A 2575   9.442   8.685   4.388  0.1367 -0.1338  0.3132
  189POPC   C3A 2576   9.168   8.620   4.784 -0.0676 -0.1954 -0.2076
  189POPC   C4A 2577   8.742   8.633   4.944 -0.1526  0.2187 -0.0248
  189POPC   C1B 2578  10.457   8.884   4.649  0.3509 -0.1251  0.0258
  189POPC   C2B 2579  10.308   8.674   5.045  0.0189  0.0143 -0.3744
  189POPC   C3B 2580  10.316   8.630   5.464  0.0619  0.0460 -0.2677
  189POPC   C4B 2581  10.179   8.479   5.794  0.0406 -0.0115  0.4268
  190POPC   NC3 2582   3.859   2.337   3.545 -0.1871  0.0387  0.1807
  190POPC   PO4 2583   3.678   2.640   3.825 -0.0836  0.0673  0.1779
  190POPC   GL1 2584   3.375   2.789   4.184  0.3035 -0.0775  0.0501
  190POPC   GL2 2585   3.279   2.453   4.275  0.2279 -0.2577  0.1062
  190POPC   C1A 2586   3.143   2.805   4.592 -0.0106  0.2691 -0.3690
  190POPC   D2A 2587   3.120   2.733   5.045  0.1840  0.3131  0.2830
  190POPC   C3A 2588   2.885   2.669   5.378  0.1760  0.0511  0.0855
  190POPC   C4A 2589   2.891   2.461   5.751 -0.1351 -0.1144  0.0647
  190POPC   C1B 2590   3.457   2.355   4.720 -0.2289  0.3017 -0.0571
  190POPC   C2B 2591   3.260   2.199   5.098 -0.0662  0.3312  0.0225
  190POPC   C3B 2592   3.416   2.084   5.457 -0.3102  0.2934  0.1085
  190POPC   C4B 2593   3.527   1.767   5.829  0.2846 -0.2042  0.1273
  191POPC   NC3 2594  10.253   5.511   3.825  0.0575  0.1348  0.1362
  191POPC   PO4 2595  10.696   5.270   3.776  0.1106  0.1014 -0.1198
  191POPC   GL1 2596  10.673   4.903   4.125  0.2170 -0.1220 -0.0763
  191POPC   GL2 2597  10.311   5.071   4.283  0.2559 -0.0691 -0.2138
  191POPC   C1A 2598  10.707   4.868   4.562  0.0935  0.2247 -0.0396
  191POPC   D2A 2599  10.639   4.993   4.978  0.0632 -0.0851 -0.2529
  191POPC   C3A 2600  10.256   4.866   5.271  0.0533  0.2620 -0.0815
  191POPC   C4A 2601  10.230   4.699   5.674  0.0763  0.2058  0.0309
  191POPC   C1B 2602  10.294   5.219   4.650 -0.0402  0.1154  0.0429
  191POPC   C2B 2603  10.041   5.359   5.025  0.2192 -0.0682  0.0536
  191POPC   C3B 2604  10.104   5.635   5.356  0.2946  0.0352  0.0644
  191POPC   C4B 2605   9.987   6.061   5.582 -0.1752 -0.0659  0.1438
  192POPC   NC3 2606   2.076   0.050   3.837  0.1609  0.2312 -0.5292
  192POPC   PO4 2607   2.403   0.161   4.038  0.3318  0.2133 -0.0187
  192POPC   GL1 2608   2.107  -0.036   4.366  0.0430  0.1351 -0.0101
  192POPC   GL2 2609   2.105  -0.274   4.191 -0.1976 -0.0396  0.4224
  192POPC   C1A 2610   1.668   0.098   4.533  0.1470  0.1047 -0.0757
  192POPC   D2A 2611   1.670   0.061   5.021 -0.2485 -0.1989 -0.0551
  192POPC   C3A 2612   1.861  -0.307   5.325  0.3119  0.3190 -0.1733
  192POPC   C4A 2613   2.030  -0.769   5.490 -0.1520 -0.1295 -0.1449
  192POPC   C1B 2614   2.310  -0.468   4.601  0.1071  0.0141 -0.0190
  192POPC   C2B 2615   2.369  -0.521   5.053  0.1308  0.0878 -0.0799
  192POPC   C3B 2616   2.323  -0.338   5.447 -0.0781  0.3779  0.0212
  192POPC   C4B 2617   2.128  -0.363   5.827  0.2688 -0.2836 -0.0655
  193POPC   NC3 2618   1.301   9.993   3.971  0.1674 -0.0587  0.0026
  193POPC   PO4 2619   1.024   9.556   3.903  0.0096 -0.2152  0.0894
  193POPC   GL1 2620   0.900   9.730   4.278  0.0197 -0.0538  0.2279
  193POPC   GL2 2621   0.575   9.563   4.328  0.4358 -0.2899  0.1919
  193POPC   C1A 2622   1.011   9.926   4.643 -0.0571  0.0676  0.0779
  193POPC   D2A 2623   1.367   9.806   5.012  0.0612 -0.1332 -0.2464
  193POPC   C3A 2624   1.748   9.993   4.924  0.1862 -0.1423 -0.0527
  193POPC   C4A 2625   1.919  10.405   4.785 -0.5318  0.2931  0.3972
  193POPC   C1B 2626   0.627   9.603   4.709  0.0508 -0.5828  0.5580
  193POPC   C2B 2627   0.851   9.739   5.149 -0.0383 -0.2431  0.3041
  193POPC   C3B 2628   1.174   9.670   5.524 -0.2704  0.1905  0.2146
  193POPC   C4B 2629   1.539   9.595   5.723  0.1985  0.0763 -0.0143
  194POPC   NC3 2630   8.619   0.470   3.516  0.1975 -0.1732  0.1073
  194POPC   PO4 2631   8.624   0.839   3.657  0.1697  0.0767  0.0557
  194POPC   GL1 2632   8.577   1.005   4.068 -0.0148  0.2904 -0.0106
  194POPC   GL2 2633   8.859   1.166   3.990 -0.3864  0.0671 -0.0028
  194POPC   C1A 2634   8.522   1.060   4.556  0.0032 -0.2581 -0.0115
  194POPC   D2A 2635   8.327   1.353   4.995 -0.1324  0.4010 -0.1255
  194POPC   C3A 2636   8.177   1.061   5.229  0.0386  0.1503 -0.2025
  194POPC   C4A 2637   8.029   0.698   5.611 -0.0919 -0.0842  0.2631
  194POPC   C1B 2638   8.977   1.206   4.516 -0.1698 -0.2571  0.1484
  194POPC   C2B 2639   9.289   1.123   4.878 -0.2603 -0.0322  0.1232
  194POPC   C3B 2640   9.415   1.230   5.341  0.1524  0.6966 -0.0442
  194POPC   C4B 2641   9.603   0.994   5.641  0.0495 -0.0193  0.2887
  195POPC   NC3 2642   9.694   4.891   3.550 -0.0598 -0.1561  0.0610
  195POPC   PO4 2643   9.383   4.453   3.589  0.0181  0.0650 -0.1564
  195POPC   GL1 2644   9.501   4.459   3.997 -0.0489 -0.0926  0.1272
  195POPC   GL2 2645   9.238   4.612   4.209 -0.1673 -0.0504 -0.1064
  195POPC   C1A 2646   9.761   4.637   4.134 -0.6706 -0.0128  0.0071
  195POPC   D2A 2647   9.965   4.805   4.443  0.1356  0.2716  0.0303
  195POPC   C3A 2648   9.913   4.895   4.855 -0.1417 -0.0069  0.0709
  195POPC   C4A 2649   9.744   4.698   5.233  0.3495  0.0328  0.1158
  195POPC   C1B 2650   9.492   4.482   4.507  0.2368  0.3212 -0.3018
  195POPC   C2B 2651   9.690   4.333   4.924 -0.2421 -0.1005  0.3571
  195POPC   C3B 2652   9.445   4.257   5.375 -0.2248  0.2754  0.2954
  195POPC   C4B 2653   9.350   4.270   5.780 -0.1678 -0.0786  0.0281
  196POPC   NC3 2654   9.518   6.303   3.382 -0.2278 -0.0609 -0.1407
  196POPC   PO4 2655   9.297   6.071   3.680 -0.0802  0.0575  0.0048
  196POPC   GL1 2656   9.181   5.985   4.010 -0.0310 -0.1799  0.2125
  196POPC   GL2 2657   8.993   6.317   4.004  0.0177  0.2626  0.0428
  196POPC   C1A 2658   9.189   6.124   4.438 -0.0635 -0.1163 -0.0990
  196POPC   D2A 2659   9.428   6.237   4.731  0.1267 -0.0433  0.0816
  196POPC   C3A 2660   9.286   6.376   5.074  0.3981 -0.4650  0.0846
  196POPC   C4A 2661   8.943   6.528   5.260  0.0070  0.1682 -0.2445
  196POPC   C1B 2662   8.768   5.866   4.186 -0.0960 -0.0846 -0.0990
  196POPC   C2B 2663   8.588   5.538   4.507  0.1675 -0.1571  0.3206
  196POPC   C3B 2664   8.595   5.508   4.847  0.3864 -0.0534 -0.1937
  196POPC   C4B 2665   8.523   5.419   5.300 -0.0395 -0.2449 -0.0199
  197POPC   NC3 2666   1.447   4.551   3.584  0.5316  0.0944 -0.1815
  197POPC   PO4 2667   1.797   4.833   3.685 -0.0942 -0.3177 -0.0103
  197POPC   GL1 2668   1.835   4.555   4.060 -0.1681  0.0036 -0.1935
  197POPC   GL2 2669   1.478   4.778   4.086 -0.1499  0.0060  0.0936
  197POPC   C1A 2670   2.093   4.687   4.427 -0.1454  0.1532 -0.1358
  197POPC   D2A 2671   2.291   4.934   4.837 -0.0920  0.0095  0.2400
  197POPC   C3A 2672   2.581   4.684   4.958 -0.0376  0.2409 -0.0332
  197POPC   C4A 2673   2.692   4.578   5.354  0.1807  0.0552  0.0401
  197POPC   C1B 2674   1.329   5.062   4.386 -0.0066 -0.0469  0.2250
  197POPC   C2B 2675   1.107   5.108   4.773 -0.1994 -0.3214 -0.1679
  197POPC   C3B 2676   0.858   5.455   4.924 -0.0954  0.0810  0.2338
  197POPC   C4B 2677   0.705   5.855   4.947  0.2654 -0.1224  0.0284
  198POPC   NC3 2678   2.100   9.480   3.694 -0.3407  0.0267 -0.1457
  198POPC   PO4 2679   2.356   9.770   3.771  0.4447  0.1744 -0.1180
  198POPC   GL1 2680   2.329   9.868   4.134  0.0386  0.1791 -0.1104
  198POPC   GL2 2681   2.621   9.936   4.279  0.1489  0.3607  0.0644
  198POPC   C1A 2682   2.100   9.727   4.528 -0.1086 -0.0474 -0.0030
  198POPC   D2A 2683   2.146   9.616   5.015 -0.3205  0.0660  0.2756
  198POPC   C3A 2684   2.037   9.219   5.232  0.2389  0.2071  0.0458
  198POPC   C4A 2685   1.707   8.930   5.473  0.2289 -0.0154 -0.0394
  198POPC   C1B 2686   2.654   9.829   4.755  0.1295  0.2887  0.0215
  198POPC   C2B 2687   2.697   9.605   5.147 -0.1054 -0.3413  0.1691
  198POPC   C3B 2688   2.555   9.452   5.522  0.1360 -0.3182  0.0465
  198POPC   C4B 2689   2.156   9.343   5.785 -0.1912 -0.1679 -0.0665
  199POPC   NC3 2690   4.779   3.087   3.240  0.5515  0.2557  0.0130
  199POPC   PO4 2691   4.490   3.020   3.542 -0.0578 -0.0269  0.1754
  199POPC   GL1 2692   4.678   3.063   3.893 -0.3204 -0.1376  0.1561
  199POPC   GL2 2693   4.514   3.145   4.080 -0.1211  0.2177 -0.1630
  199POPC   C1A 2694   5.003   3.309   4.174 -0.0345 -0.3083 -0.2410
  199POPC   D2A 2695   5.389   3.342   3.993 -0.0726  0.1246 -0.3702
  199POPC   C3A 2696   5.662   3.573   4.185 -0.0651  0.1006 -0.0986
  199POPC   C4A 2697   5.741   3.701   4.615 -0.2682  0.3184  0.0255
  199POPC   C1B 2698   4.643   3.155   4.523  0.2122  0.1286  0.0436
  199POPC   C2B 2699   4.546   3.097   4.978 -0.0950  0.2854 -0.1114
  199POPC   C3B 2700   4.828   2.988   5.328  0.0008  0.1052 -0.1807
  199POPC   C4B 2701   4.836   2.777   5.723 -0.2584 -0.0063  0.1859
  200POPC   NC3 2702  10.154   1.412   4.081  0.4384 -0.0492  0.0684
  200POPC   PO4 2703  10.598   1.358   4.085 -0.1359  0.2495 -0.1080
  200POPC   GL1 2704  10.418   1.390   4.472 -0.2102 -0.2726  0.1599
  200POPC   GL2 2705  10.703   1.585   4.555  0.0656 -0.0677 -0.1679
  200POPC   C1A 2706  10.372   1.272   4.864  0.1195 -0.1883 -0.0299
  200POPC   D2A 2707  10.261   1.099   5.243  0.1294  0.2618 -0.1239
  200POPC   C3A 2708  10.012   1.353   5.464 -0.1386 -0.1904 -0.1751
  200POPC   C4A 2709   9.667   1.660   5.455  0.1540 -0.4134  0.1672
  200POPC   C1B 2710  10.824   1.485   4.933  0.1236 -0.0029 -0.1509
  200POPC   C2B 2711  10.778   1.221   5.248 -0.0444  0.3106 -0.0656
  200POPC   C3B 2712  10.560   1.459   5.539  0.1992  0.1036  0.0553
  200POPC   C4B 2713  10.343   1.554   5.890 -0.2959 -0.0992 -0.0931
  201POPC   NC3 2714   6.634   0.281   3.041 -0.5451  0.1613 -0.3446
  201POPC   PO4 2715   6.401   0.290   3.469  0.2538 -0.1702  0.3848
  201POPC   GL1 2716   6.345   0.402   3.866 -0.0628  0.0630 -0.0063
  201POPC   GL2 2717   6.315   0.733   3.855 -0.4048 -0.1469 -0.0588
  201POPC   C1A 2718   6.140   0.109   4.243  0.0117  0.1431  0.0709
  201POPC   D2A 2719   5.926  -0.003   4.556  0.1367 -0.3623 -0.0190
  201POPC   C3A 2720   6.111   0.061   4.977 -0.1524 -0.1756 -0.2547
  201POPC   C4A 2721   6.450   0.165   5.272 -0.1304  0.1241 -0.0675
  201POPC   C1B 2722   6.543   1.195   3.991  0.1781  0.2175 -0.1062
  201POPC   C2B 2723   6.831   1.544   3.973 -0.1916 -0.0759  0.1125
  201POPC   C3B 2724   7.036   1.860   3.840 -0.0112 -0.2256  0.2722
  201POPC   C4B 2725   7.152   2.059   3.543 -0.1869 -0.0294  0.0848
  202POPC   NC3 2726   4.695   1.901   3.569  0.3357 -0.2029  0.1693
  202POPC   PO4 2727   4.421   2.214   3.547  0.2553 -0.0726 -0.0062
  202POPC   GL1 2728   4.560   2.218   3.917  0.1322  0.0594 -0.0782
  202POPC   GL2 2729   4.856   2.078   3.961 -0.1982  0.2052  0.1658
  202POPC   C1A 2730   4.268   2.062   4.332 -0.1761 -0.1764 -0.1570
  202POPC   D2A 2731   4.060   1.774   4.555  0.0819 -0.0899 -0.1792
  202POPC   C3A 2732   4.014   2.032   4.954  0.0801  0.3283  0.0581
  202POPC   C4A 2733   3.785   2.294   5.242 -0.4316 -0.0855 -0.0201
  202POPC   C1B 2734   5.152   1.826   4.187  0.1403  0.1721 -0.2650
  202POPC   C2B 2735   5.277   1.744   4.613  0.1788 -0.0065  0.1108
  202POPC   C3B 2736   5.395   1.588   5.074  0.1230  0.1438 -0.0110
  202POPC   C4B 2737   5.373   1.236   5.370  0.2665  0.0622  0.0586
  203POPC   NC3 2738   8.233   5.304   3.539  0.2389  0.2156 -0.1630
  203POPC   PO4 2739   8.715   5.145   3.473  0.0428  0.3856 -0.3683
  203POPC   GL1 2740   8.825   5.179   3.909 -0.2600  0.2438 -0.1997
  203POPC   GL2 2741   9.036   5.490   3.942 -0.0353  0.0708  0.1587
  203POPC   C1A 2742   8.898   5.219   4.355  0.1152 -0.0946 -0.2072
  203POPC   D2A 2743   9.081   5.322   4.747  0.0347  0.1042 -0.1170
  203POPC   C3A 2744   8.849   5.086   5.079  0.0154 -0.0992 -0.1845
  203POPC   C4A 2745   8.764   4.982   5.425  0.1339 -0.0995 -0.0003
  203POPC   C1B 2746   9.271   5.576   4.348 -0.0982 -0.2269  0.3611
  203POPC   C2B 2747   8.965   5.770   4.791 -0.1405 -0.1656  0.0534
  203POPC   C3B 2748   8.662   5.962   5.086  0.3503 -0.1880 -0.1190
  203POPC   C4B 2749   8.469   6.285   5.138 -0.1638 -0.1671 -0.0798
  204POPC   NC3 2750   9.220   7.749   3.142 -0.0938  0.2949 -0.2323
  204POPC   PO4 2751   9.181   7.863   3.631 -0.1426 -0.0495  0.0658
  204POPC   GL1 2752   9.197   7.959   4.024  0.1162  0.1505  0.1695
  204POPC   GL2 2753   9.244   8.244   4.208  0.0193 -0.1142  0.0248
  204POPC   C1A 2754   9.030   7.744   4.342 -0.1575 -0.1206  0.1808
  204POPC   D2A 2755   9.325   7.685   4.795 -0.2726 -0.4038  0.0938
  204POPC   C3A 2756   9.169   7.670   5.113  0.0567 -0.0165 -0.2188
  204POPC   C4A 2757   8.714   7.618   5.277  0.1584  0.0722  0.0223
  204POPC   C1B 2758   9.357   8.157   4.567  0.2371 -0.2772  0.0614
  204POPC   C2B 2759   9.406   8.212   5.078 -0.3219 -0.0256 -0.0113
  204POPC   C3B 2760   9.326   8.002   5.417 -0.1607 -0.1294 -0.0912
  204POPC   C4B 2761   9.094   7.962   5.673  0.0821 -0.0847  0.0080
  205POPC   NC3 2762   1.807   0.987   3.959  0.0434 -0.1746 -0.0891
  205POPC   PO4 2763   1.361   0.801   4.085  0.0304 -0.4239 -0.1477
  205POPC   GL1 2764   1.540   0.720   4.403  0.1810 -0.0923  0.0797
  205POPC   GL2 2765   1.915   0.990   4.504  0.1897  0.0766 -0.1505
  205POPC   C1A 2766   1.779   0.522   4.769  0.0660 -0.1324 -0.2516
  205POPC   D2A 2767   1.833   0.562   5.218 -0.0785  0.0360  0.4619
  205POPC   C3A 2768   1.672   0.274   5.474  0.1988  0.2174 -0.1161
  205POPC   C4A 2769   1.588  -0.116   5.732  0.2941 -0.0400 -0.3428
  205POPC   C1B 2770   1.748   1.079   4.873  0.0308  0.0778 -0.3757
  205POPC   C2B 2771   1.441   1.129   5.112  0.2550 -0.1862 -0.1659
  205POPC   C3B 2772   1.079   1.075   5.350 -0.3677  0.1714 -0.0190
  205POPC   C4B 2773   0.785   0.974   5.627  0.0292 -0.2202 -0.0075
  206POPC   NC3 2774   9.600   3.337   3.938  0.1067  0.0574  0.1610
  206POPC   PO4 2775  10.008   3.482   3.735 -0.0321  0.0617 -0.0758
  206POPC   GL1 2776  10.079   3.464   4.182  0.1526  0.2889 -0.2278
  206POPC   GL2 2777  10.062   3.710   4.414 -0.0418 -0.0169  0.0063
  206POPC   C1A 2778  10.234   3.185   4.444  0.1926 -0.1161  0.2808
  206POPC   D2A 2779  10.087   2.940   4.726  0.0574  0.1244  0.2211
  206POPC   C3A 2780  10.266   2.659   5.095 -0.0982 -0.1713 -0.2740
  206POPC   C4A 2781  10.351   2.203   5.236  0.1864 -0.0256 -0.3612
  206POPC   C1B 2782  10.137   3.452   4.911 -0.0355 -0.1078  0.1024
  206POPC   C2B 2783  10.138   3.144   5.256 -0.0972 -0.0154  0.0580
  206POPC   C3B 2784  10.365   2.959   5.551 -0.0829  0.4985  0.0732
  206POPC   C4B 2785  10.660   2.686   5.480  0.0362 -0.0229 -0.2013
  207POPC   NC3 2786   1.386   9.016   3.920 -0.3774 -0.4227  0.0095
  207POPC   PO4 2787   0.957   8.752   3.897 -0.3093 -0.3856 -0.2372
  207POPC   GL1 2788   1.034   8.872   4.245  0.1504  0.1512  0.0133
  207POPC   GL2 2789   0.887   9.150   4.217 -0.0233 -0.1414 -0.0209
  207POPC   C1A 2790   1.010   8.872   4.716 -0.1565  0.0417 -0.4409
  207POPC   D2A 2791   0.870   8.876   5.163  0.3782  0.1904 -0.1214
  207POPC   C3A 2792   0.475   8.983   5.425  0.2348 -0.2738 -0.2361
  207POPC   C4A 2793   0.028   9.259   5.678 -0.2801 -0.1034 -0.0276
  207POPC   C1B 2794   1.052   9.300   4.507 -0.1607  0.0501  0.0809
  207POPC   C2B 2795   1.094   9.376   4.949  0.2819 -0.1245  0.1420
  207POPC   C3B 2796   1.392   9.304   5.294 -0.1081  0.2425 -0.0567
  207POPC   C4B 2797   1.719   9.553   5.275 -0.0882 -0.1263 -0.0263
  208POPC   NC3 2798   7.807   9.827   3.536 -0.2375  0.0389 -0.0171
  208POPC   PO4 2799   7.763  10.082   3.898 -0.0371 -0.0599 -0.1528
  208POPC   GL1 2800   7.741  10.226   4.200 -0.3284  0.1150 -0.0358
  208POPC   GL2 2801   7.904  10.525   4.111  0.2774  0.0948 -0.0489
  208POPC   C1A 2802   7.487  10.274   4.592 -0.0980  0.0690  0.1351
  208POPC   D2A 2803   7.350   9.916   4.988 -0.1964  0.1309 -0.2463
  208POPC   C3A 2804   7.151   9.989   5.450 -0.3446 -0.3919  0.2196
  208POPC   C4A 2805   6.806  10.206   5.716 -0.5745 -0.1239  0.0355
  208POPC   C1B 2806   8.119  10.679   4.468 -0.1778  0.1395  0.2466
  208POPC   C2B 2807   8.373  10.704   4.948  0.1620 -0.0366  0.0169
  208POPC   C3B 2808   8.741  10.616   5.065 -0.1775  0.0940  0.1979
  208POPC   C4B 2809   8.919  10.478   5.393  0.1067  0.0096 -0.0475
  209POPC   NC3 2810   5.695   0.622   3.830  0.0645  0.2698 -0.2034
  209POPC   PO4 2811   5.353   0.415   3.827 -0.0339 -0.0203 -0.2241
  209POPC   GL1 2812   5.350   0.506   4.209  0.0758 -0.0716  0.1060
  209POPC   GL2 2813   5.571   0.308   4.257  0.1344  0.2086 -0.0949
  209POPC   C1A 2814   5.307   0.674   4.570  0.0521  0.0288  0.0138
  209POPC   D2A 2815   5.588   0.537   4.876  0.0138 -0.2568 -0.1464
  209POPC   C3A 2816   5.933   0.473   4.777 -0.1486 -0.1138 -0.1561
  209POPC   C4A 2817   5.960   0.493   4.491 -0.2873  0.0333  0.2088
  209POPC   C1B 2818   5.402   0.122   4.616  0.0712  0.1162  0.0408
  209POPC   C2B 2819   5.504   0.010   5.065 -0.0612  0.0045  0.1908
  209POPC   C3B 2820   5.724   0.270   5.484  0.1199  0.2389  0.1373
  209POPC   C4B 2821   5.652   0.602   5.834 -0.2357  0.2058 -0.1037
  210POPC   NC3 2822   8.934   3.512   3.739 -0.2560 -0.1678 -0.2378
  210POPC   PO4 2823   8.531   3.634   3.574  0.1728 -0.2025  0.2010
  210POPC   GL1 2824   8.221   3.796   3.923  0.2141 -0.3591  0.1711
  210POPC   GL2 2825   8.056   4.051   4.124  0.1125 -0.0219 -0.1652
  210POPC   C1A 2826   8.334   3.695   4.310  0.1098  0.1968 -0.1760
  210POPC   D2A 2827   8.443   3.899   4.704  0.2087  0.0984 -0.1641
  210POPC   C3A 2828   8.837   4.143   4.718 -0.0928 -0.1788 -0.1368
  210POPC   C4A 2829   9.188   4.238   4.961  0.2944 -0.1001  0.0816
  210POPC   C1B 2830   8.005   3.981   4.526 -0.0938 -0.2787 -0.0728
  210POPC   C2B 2831   7.961   3.645   4.756 -0.0384 -0.0111  0.0677
  210POPC   C3B 2832   7.735   3.503   5.060  0.2175 -0.0315  0.1814
  210POPC   C4B 2833   7.344   3.596   5.341 -0.2107  0.2347 -0.0848
  211POPC   NC3 2834   0.714   3.003   3.681  0.0061 -0.0614  0.1336
  211POPC   PO4 2835   0.442   2.763   3.940 -0.1030  0.2488  0.1233
  211POPC   GL1 2836   0.488   3.144   4.139  0.1194 -0.1130  0.1656
  211POPC   GL2 2837   0.854   3.133   4.190  0.5540  0.0172 -0.3555
  211POPC   C1A 2838   0.265   3.347   4.463  0.0275 -0.1357  0.0258
  211POPC   D2A 2839  -0.031   3.550   4.696 -0.0604 -0.2733 -0.0910
  211POPC   C3A 2840   0.046   3.565   5.092  0.1926 -0.2516 -0.1009
  211POPC   C4A 2841   0.262   3.662   5.432 -0.2785  0.0864  0.3049
  211POPC   C1B 2842   0.707   3.172   4.603  0.2099  0.0974 -0.0740
  211POPC   C2B 2843   0.469   2.853   4.958  0.2164  0.1048 -0.0780
  211POPC   C3B 2844   0.460   2.745   5.386  0.0289 -0.1351 -0.2057
  211POPC   C4B 2845   0.556   2.876   5.790  0.1401 -0.5395  0.0576
  212POPC   NC3 2846   5.063   5.963   3.411 -0.3087 -0.1368  0.0082
  212POPC   PO4 2847   5.320   5.863   3.707  0.4115 -0.0262 -0.0392
  212POPC   GL1 2848   5.114   5.751   4.085  0.0642 -0.4811  0.0822
  212POPC   GL2 2849   4.790   5.726   4.074  0.0696  0.1278  0.2659
  212POPC   C1A 2850   5.056   5.607   4.457  0.0315  0.1972  0.1876
  212POPC   D2A 2851   5.200   5.169   4.492 -0.1844 -0.1036 -0.1314
  212POPC   C3A 2852   4.924   4.893   4.603 -0.1075 -0.0323 -0.0929
  212POPC   C4A 2853   4.639   4.531   4.550 -0.2441 -0.1579  0.0946
  212POPC   C1B 2854   4.595   5.719   4.463  0.1257  0.1997  0.2478
  212POPC   C2B 2855   4.843   5.851   4.830 -0.1787 -0.0764  0.1622
  212POPC   C3B 2856   4.939   5.864   5.348 -0.0593  0.0167  0.0018
  212POPC   C4B 2857   5.251   5.672   5.582 -0.1396  0.3013 -0.1066
  213POPC   NC3 2858   1.376   8.028   3.634 -0.1938  0.0046 -0.0619
  213POPC   PO4 2859   0.946   7.852   3.464  0.0196 -0.0500 -0.0694
  213POPC   GL1 2860   0.739   8.035   3.890 -0.3096  0.1194  0.0839
  213POPC   GL2 2861   0.978   8.168   4.024  0.0932  0.1513  0.2532
  213POPC   C1A 2862   0.572   7.814   4.171 -0.3300  0.1012 -0.0627
  213POPC   D2A 2863   0.724   8.057   4.480  0.2085 -0.1020 -0.2600
  213POPC   C3A 2864   1.053   7.958   4.732  0.0835  0.0610  0.2803
  213POPC   C4A 2865   1.356   8.120   4.944 -0.0150 -0.0566 -0.0157
  213POPC   C1B 2866   1.164   7.890   4.217  0.4144  0.2229 -0.0719
  213POPC   C2B 2867   1.417   7.629   4.158  0.0152 -0.3844  0.2524
  213POPC   C3B 2868   1.864   7.729   4.182  0.2754 -0.0016  0.1386
  213POPC   C4B 2869   2.342   7.923   4.260 -0.0891  0.2509  0.0538
  214POPC   NC3 2870   9.547   8.419   3.815  0.0284  0.0779  0.2515
  214POPC   PO4 2871  10.009   8.327   3.662 -0.0513  0.0051 -0.0733
  214POPC   GL1 2872  10.031   8.339   4.036 -0.1872  0.0213  0.0556
  214POPC   GL2 2873  10.355   8.313   4.189 -0.2398 -0.1703  0.0583
  214POPC   C1A 2874   9.814   8.243   4.470 -0.1775  0.2993 -0.0213
  214POPC   D2A 2875   9.885   8.185   4.860 -0.1431  0.1546  0.0985
  214POPC   C3A 2876   9.860   7.759   4.953  0.3061  0.1423 -0.0213
  214POPC   C4A 2877   9.993   7.328   4.688 -0.3826  0.4038 -0.1125
  214POPC   C1B 2878  10.360   8.333   4.677 -0.0622 -0.1730 -0.0230
  214POPC   C2B 2879  10.263   8.221   5.171 -0.2828  0.2096 -0.0471
  214POPC   C3B 2880  10.419   8.030   5.564 -0.2023  0.1089  0.0796
  214POPC   C4B 2881  10.073   7.989   5.861 -0.2265  0.2887  0.3053
  215POPC   NC3 2882   8.352   4.285   3.445  0.0200  0.0518 -0.0894
  215POPC   PO4 2883   7.924   4.278   3.546  0.0017 -0.0173 -0.3026
  215POPC   GL1 2884   7.655   4.360   3.776 -0.1575 -0.0250  0.1352
  215POPC   GL2 2885   7.293   4.486   3.718 -0.2141  0.3863 -0.1837
  215POPC   C1A 2886   7.699   4.505   4.212  0.2745 -0.0266  0.0381
  215POPC   D2A 2887   7.858   4.521   4.609 -0.1868  0.1980  0.0776
  215POPC   C3A 2888   8.025   4.882   4.710  0.0655 -0.0929  0.4201
  215POPC   C4A 2889   7.705   5.250   4.840  0.1528 -0.1135  0.1729
  215POPC   C1B 2890   7.170   4.559   4.180 -0.0684  0.1559  0.1246
  215POPC   C2B 2891   6.838   4.626   4.573 -0.1349  0.1584 -0.2392
  215POPC   C3B 2892   6.653   4.411   4.942  0.2651  0.3283  0.1919
  215POPC   C4B 2893   6.588   4.136   5.183  0.1013 -0.0456 -0.1836
  216POPC   NC3 2894   9.424   6.596   3.766  0.0503 -0.1623  0.0770
  216POPC   PO4 2895   9.786   6.717   3.490  0.0207 -0.3164 -0.2549
  216POPC   GL1 2896   9.895   6.873   3.883  0.1137 -0.1627 -0.0402
  216POPC   GL2 2897  10.214   6.691   3.991  0.2566 -0.1811  0.0563
  216POPC   C1A 2898  10.022   6.915   4.371 -0.2384  0.0246 -0.0770
  216POPC   D2A 2899  10.130   6.796   4.781 -0.2475  0.0761 -0.0818
  216POPC   C3A 2900  10.467   7.145   4.932 -0.1152 -0.3993  0.1948
  216POPC   C4A 2901  10.754   7.462   5.175 -0.1090 -0.0078 -0.2582
  216POPC   C1B 2902  10.063   6.336   4.342 -0.0306 -0.0414 -0.2182
  216POPC   C2B 2903   9.944   6.300   4.726 -0.1488 -0.1524  0.1484
  216POPC   C3B 2904  10.084   6.357   5.051 -0.3087  0.2829 -0.0361
  216POPC   C4B 2905  10.348   6.621   5.232 -0.1879 -0.1213  0.0559
  217POPC   NC3 2906   1.213   0.397   3.781 -0.1160 -0.0590 -0.3062
  217POPC   PO4 2907   0.771   0.134   3.866  0.2211 -0.1293  0.2761
  217POPC   GL1 2908   0.914   0.194   4.314  0.0072  0.0911 -0.0601
  217POPC   GL2 2909   1.149   0.445   4.384 -0.1871 -0.1893  0.0279
  217POPC   C1A 2910   1.237   0.166   4.746 -0.0069 -0.1583 -0.0190
  217POPC   D2A 2911   1.201   0.171   5.131  0.1990 -0.1506 -0.1649
  217POPC   C3A 2912   0.763   0.069   5.326  0.1282 -0.0268  0.0057
  217POPC   C4A 2913   0.303   0.296   5.497  0.0611  0.1128 -0.0373
  217POPC   C1B 2914   0.978   0.788   4.702  0.3389  0.0206 -0.3488
  217POPC   C2B 2915   1.144   0.663   5.138  0.3137  0.0527  0.0262
  217POPC   C3B 2916   0.976   0.531   5.541 -0.0193  0.0640 -0.2239
  217POPC   C4B 2917   0.798   0.241   5.840  0.0928  0.0536  0.1018
  218POPC   NC3 2918   3.589   5.155   3.487  0.1904 -0.1300  0.1378
  218POPC   PO4 2919   3.798   4.836   3.726  0.0632  0.1705 -0.0906
  218POPC   GL1 2920   3.993   4.739   4.170 -0.2758  0.2242  0.1777
  218POPC   GL2 2921   3.789   5.014   4.450 -0.0056  0.0588 -0.0798
  218POPC   C1A 2922   4.192   4.622   4.543  0.3521 -0.0956 -0.0044
  218POPC   D2A 2923   4.256   4.492   4.896  0.3603 -0.0206 -0.1019
  218POPC   C3A 2924   4.053   4.128   5.160  0.1672 -0.1096 -0.1768
  218POPC   C4A 2925   4.039   3.762   5.426  0.0067 -0.0615 -0.2553
  218POPC   C1B 2926   3.974   5.057   4.795  0.1708  0.1247  0.0157
  218POPC   C2B 2927   4.115   4.860   5.181 -0.0477  0.1113 -0.0144
  218POPC   C3B 2928   4.240   4.620   5.489 -0.1158  0.0983 -0.2704
  218POPC   C4B 2929   4.481   4.458   5.835  0.0509  0.3160  0.3110
  219POPC   NC3 2930   8.738   2.226   3.892  0.0455 -0.0206 -0.2238
  219POPC   PO4 2931   9.200   2.182   4.017 -0.2922 -0.2270  0.2681
  219POPC   GL1 2932   9.266   2.221   4.478 -0.0770 -0.0029 -0.1783
  219POPC   GL2 2933   9.427   2.508   4.521  0.1630 -0.3307  0.0247
  219POPC   C1A 2934   9.442   2.108   4.849 -0.0185  0.1916  0.0406
  219POPC   D2A 2935   9.833   1.840   4.988  0.2361  0.2907 -0.3122
  219POPC   C3A 2936   9.762   1.365   5.019 -0.2161 -0.0557  0.1890
  219POPC   C4A 2937   9.868   1.149   4.664  0.3066  0.0739  0.0343
  219POPC   C1B 2938   9.559   2.643   4.801  0.1617 -0.0440  0.2106
  219POPC   C2B 2939   9.583   2.872   5.187  0.0326  0.1696  0.1560
  219POPC   C3B 2940   9.757   2.783   5.506 -0.2013  0.1976 -0.0641
  219POPC   C4B 2941  10.053   2.702   5.996  0.0584  0.3291  0.2924
  220POPC   NC3 2942   0.534   9.427   3.761  0.2097 -0.3260 -0.0126
  220POPC   PO4 2943   0.102   9.655   3.663  0.2327  0.1388  0.0108
  220POPC   GL1 2944   0.081   9.838   4.008  0.0830  0.2346 -0.0199
  220POPC   GL2 2945  -0.147   9.608   4.191 -0.2336  0.1397  0.1648
  220POPC   C1A 2946   0.168   9.850   4.535  0.2644 -0.0250 -0.0297
  220POPC   D2A 2947   0.089   9.644   4.936  0.1045  0.2425 -0.0109
  220POPC   C3A 2948   0.395   9.388   5.112 -0.1103  0.1636 -0.1781
  220POPC   C4A 2949   0.526   9.006   4.838 -0.1668 -0.2756  0.1208
  220POPC   C1B 2950  -0.328   9.864   4.471  0.3311  0.2742  0.0380
  220POPC   C2B 2951  -0.465   9.863   4.844 -0.0137 -0.2382  0.2780
  220POPC   C3B 2952  -0.748   9.568   5.152 -0.0029 -0.0046 -0.1832
  220POPC   C4B 2953  -0.844   9.411   5.548 -0.0243  0.1773 -0.1379
  221POPC   NC3 2954   6.233   7.429   3.027 -0.0780  0.1161 -0.1005
  221POPC   PO4 2955   6.630   7.359   3.394  0.0623 -0.1286  0.0330
  221POPC   GL1 2956   6.709   7.155   3.724 -0.0102 -0.0302  0.0687
  221POPC   GL2 2957   6.733   7.327   4.019  0.1479  0.0827  0.0949
  221POPC   C1A 2958   7.126   7.019   4.079  0.1692 -0.1081  0.2037
  221POPC   D2A 2959   7.213   6.822   4.531 -0.2253 -0.1160 -0.0478
  221POPC   C3A 2960   7.246   7.052   4.942 -0.1416 -0.1979 -0.1481
  221POPC   C4A 2961   7.305   7.406   5.229  0.0002 -0.2131 -0.3406
  221POPC   C1B 2962   6.899   7.684   4.342  0.0347 -0.0191  0.2121
  221POPC   C2B 2963   7.277   7.768   4.616 -0.0285 -0.1501  0.1490
  221POPC   C3B 2964   7.594   7.756   4.984  0.2037 -0.0691  0.0739
  221POPC   C4B 2965   7.760   7.668   5.352 -0.1126  0.1571 -0.1723
  222POPC   NC3 2966   6.717   0.036   3.762 -0.2406 -0.1289  0.3006
  222POPC   PO4 2967   6.954   0.240   3.432  0.2732  0.1369  0.1020
  222POPC   GL1 2968   7.253   0.249   3.818  0.2282 -0.1241 -0.0459
  222POPC   GL2 2969   7.300  -0.009   4.147  0.0480  0.0937  0.0068
  222POPC   C1A 2970   7.672   0.388   3.944  0.0321 -0.2313 -0.1305
  222POPC   D2A 2971   7.962   0.459   4.207  0.2392 -0.0690 -0.0274
  222POPC   C3A 2972   8.422   0.430   4.425 -0.0096 -0.0133  0.0627
  222POPC   C4A 2973   8.700   0.500   4.659 -0.0568 -0.1294  0.0888
  222POPC   C1B 2974   7.625   0.173   4.460  0.1649  0.0740  0.2508
  222POPC   C2B 2975   7.943   0.344   4.761  0.3354  0.1849 -0.2987
  222POPC   C3B 2976   8.309   0.704   4.910 -0.0615 -0.2811  0.1162
  222POPC   C4B 2977   8.781   0.921   4.976  0.0266  0.1571 -0.1396
  223POPC   NC3 2978   9.633   3.982   3.672  0.1560 -0.3017 -0.1377
  223POPC   PO4 2979   9.298   3.817   3.941 -0.0555  0.4855  0.3056
  223POPC   GL1 2980   9.619   3.826   4.145 -0.4099 -0.2150  0.3905
  223POPC   GL2 2981   9.857   4.148   4.133  0.1560  0.1176  0.1627
  223POPC   C1A 2982   9.660   3.839   4.609 -0.2381 -0.2077 -0.0826
  223POPC   D2A 2983   9.672   3.889   5.123  0.0465  0.4622 -0.0862
  223POPC   C3A 2984   9.274   3.702   5.351 -0.1822 -0.0957  0.4316
  223POPC   C4A 2985   9.192   3.480   5.660  0.0926  0.0850  0.0631
  223POPC   C1B 2986   9.935   4.226   4.472 -0.1233  0.1178  0.1712
  223POPC   C2B 2987  10.075   4.060   4.882 -0.1467  0.1055 -0.0065
  223POPC   C3B 2988  10.112   3.820   5.312 -0.0617 -0.1409  0.1160
  223POPC   C4B 2989  10.157   3.861   5.728 -0.0129  0.1501 -0.0431
  224POPC   NC3 2990   0.443   6.072   3.493  0.2181 -0.1676  0.1110
  224POPC   PO4 2991   0.441   6.207   3.884 -0.1551 -0.1102 -0.0221
  224POPC   GL1 2992   0.839   6.185   4.190 -0.0987 -0.0962  0.0349
  224POPC   GL2 2993   0.715   6.149   4.500  0.0122  0.4411  0.0523
  224POPC   C1A 2994   1.123   5.942   4.409  0.0021  0.0710  0.1535
  224POPC   D2A 2995   1.067   5.523   4.482  0.2060 -0.1908  0.0566
  224POPC   C3A 2996   0.790   5.186   4.352  0.1367 -0.1896 -0.0989
  224POPC   C4A 2997   0.474   4.893   4.309 -0.3379  0.0921 -0.1364
  224POPC   C1B 2998   1.069   6.592   4.462 -0.0803  0.1574  0.2949
  224POPC   C2B 2999   1.124   6.962   4.773  0.1432 -0.0270 -0.1432
  224POPC   C3B 3000   1.114   7.103   5.281 -0.0144  0.0073  0.3054
  224POPC   C4B 3001   0.799   7.081   5.663  0.0049 -0.0794 -0.1164
  225POPC   NC3 3002  10.634   7.252   3.310  0.1505  0.0760 -0.1323
  225POPC   PO4 3003  11.053   7.018   3.281  0.0620  0.4282  0.2567
  225POPC   GL1 3004  10.921   7.139   3.736 -0.1687  0.3380 -0.1135
  225POPC   GL2 3005  10.788   7.404   3.892 -0.1053  0.1369 -0.1742
  225POPC   C1A 3006  10.676   7.011   4.133  0.0837  0.1431 -0.1199
  225POPC   D2A 3007  10.477   6.735   4.458 -0.1665 -0.2076 -0.0737
  225POPC   C3A 3008  10.599   6.704   4.831 -0.2658  0.1684 -0.3246
  225POPC   C4A 3009  10.859   6.471   5.120  0.0253 -0.1874 -0.0416
  225POPC   C1B 3010  11.064   7.307   4.256  0.1774 -0.1171  0.1219
  225POPC   C2B 3011  10.948   7.134   4.711  0.1502  0.2955 -0.2274
  225POPC   C3B 3012  10.902   6.951   5.176  0.1837  0.1498 -0.1602
  225POPC   C4B 3013  10.705   6.736   5.572  0.3095 -0.1233  0.2141
  226POPC   NC3 3014   6.950   6.835   3.435  0.3354  0.2342  0.3757
  226POPC   PO4 3015   7.128   6.367   3.335  0.0978 -0.1271  0.1577
  226POPC   GL1 3016   7.106   6.386   3.795 -0.5246 -0.0371 -0.0218
  226POPC   GL2 3017   6.779   6.575   3.803 -0.3066 -0.1149  0.2321
  226POPC   C1A 3018   7.410   6.558   4.137 -0.0394  0.0665  0.0905
  226POPC   D2A 3019   7.595   7.007   4.226  0.2527  0.2282 -0.2570
  226POPC   C3A 3020   7.595   7.200   4.568 -0.0592 -0.1269  0.2126
  226POPC   C4A 3021   7.744   7.186   4.992 -0.3755 -0.0609 -0.2429
  226POPC   C1B 3022   6.892   6.449   4.222  0.2090 -0.2088  0.2321
  226POPC   C2B 3023   6.815   6.456   4.611  0.2128 -0.1586  0.1242
  226POPC   C3B 3024   7.023   6.494   4.978 -0.1693  0.2450 -0.3177
  226POPC   C4B 3025   7.012   6.378   5.422 -0.1479  0.1363  0.6023
  227POPC   NC3 3026   8.011   9.648   3.958  0.2401  0.0085  0.1242
  227POPC   PO4 3027   8.460   9.665   4.216 -0.1420  0.0125  0.0654
  227POPC   GL1 3028   8.119   9.541   4.434  0.2498 -0.1033  0.2813
  227POPC   GL2 3029   7.854   9.758   4.395  0.2127 -0.1334  0.0976
  227POPC   C1A 3030   8.037   9.059   4.543  0.3290  0.0114 -0.0273
  227POPC   D2A 3031   7.697   8.971   4.856 -0.1239 -0.1626 -0.1038
  227POPC   C3A 3032   7.583   8.515   4.817  0.1036 -0.3232  0.3363
  227POPC   C4A 3033   7.352   8.185   4.897  0.2542  0.4872 -0.2346
  227POPC   C1B 3034   7.955   9.769   4.836 -0.2056  0.0958  0.0040
  227POPC   C2B 3035   8.183   9.898   5.175  0.3516  0.0386  0.0666
  227POPC   C3B 3036   8.494   9.937   5.552  0.1171  0.0760  0.0089
  227POPC   C4B 3037   8.875  10.038   5.777  0.1494 -0.0060 -0.4693
  228POPC   NC3 3038   6.681   8.946   3.762  0.0926 -0.2104  0.1861
  228POPC   PO4 3039   6.196   8.789   3.982 -0.0517 -0.2297 -0.2245
  228POPC   GL1 3040   6.490   8.541   4.196 -0.2109 -0.1209 -0.1856
  228POPC   GL2 3041   6.736   8.251   4.056  0.2297 -0.2510 -0.0648
  228POPC   C1A 3042   6.693   8.696   4.514 -0.2724 -0.1218  0.1749
  228POPC   D2A 3043   6.741   8.926   4.821  0.2017  0.0788  0.1061
  228POPC   C3A 3044   6.772   8.764   5.239  0.1440 -0.6642 -0.1319
  228POPC   C4A 3045   6.770   8.609   5.676 -0.1557  0.1175  0.0023
  228POPC   C1B 3046   6.824   8.131   4.511 -0.1232 -0.2300 -0.2828
  228POPC   C2B 3047   6.729   7.892   4.860  0.0987 -0.1870 -0.1712
  228POPC   C3B 3048   7.020   7.770   5.190  0.0597 -0.0904  0.3981
  228POPC   C4B 3049   7.347   7.858   5.501  0.1532  0.0588  0.2456
  229POPC   NC3 3050   5.129   4.832   4.017 -0.1150 -0.1023 -0.1214
  229POPC   PO4 3051   5.546   4.736   3.803  0.0706 -0.0202 -0.1077
  229POPC   GL1 3052   5.564   4.690   4.248 -0.4922  0.1148  0.2615
  229POPC   GL2 3053   5.817   4.553   4.194 -0.0486  0.2057 -0.2434
  229POPC   C1A 3054   5.436   4.638   4.644  0.0899  0.4037 -0.2561
  229POPC   D2A 3055   5.423   4.591   5.049  0.2779  0.0563  0.0619
  229POPC   C3A 3056   5.131   4.277   5.302 -0.1678  0.0298  0.1056
  229POPC   C4A 3057   5.351   4.079   5.664  0.1424 -0.1322 -0.1384
  229POPC   C1B 3058   6.009   4.914   4.362  0.2353 -0.1631 -0.1424
  229POPC   C2B 3059   5.902   5.387   4.513 -0.0807  0.2871  0.0819
  229POPC   C3B 3060   5.893   5.548   4.835 -0.1416  0.2083  0.1172
  229POPC   C4B 3061   6.223   5.736   4.965 -0.1904 -0.2303  0.0270
  230POPC   NC3 3062   4.158   0.960   3.883  0.0031  0.0320 -0.0641
  230POPC   PO4 3063   4.351   0.762   4.059  0.0388 -0.2277  0.0543
  230POPC   GL1 3064   4.410   0.929   4.442  0.1207  0.0056 -0.0005
  230POPC   GL2 3065   4.303   1.219   4.317  0.4747 -0.2746  0.1580
  230POPC   C1A 3066   4.341   0.892   4.871 -0.1814 -0.0516  0.1075
  230POPC   D2A 3067   4.452   1.043   5.323 -0.0832 -0.2054  0.0509
  230POPC   C3A 3068   4.824   1.357   5.415  0.1164  0.0577  0.1151
  230POPC   C4A 3069   5.156   1.678   5.518  0.1452  0.2414 -0.1540
  230POPC   C1B 3070   4.371   1.436   4.629 -0.3989  0.0328 -0.0179
  230POPC   C2B 3071   4.353   1.672   5.047  0.2829 -0.2094 -0.1436
  230POPC   C3B 3072   4.309   1.528   5.537 -0.2782  0.0579 -0.0814
  230POPC   C4B 3073   4.607   1.546   5.813 -0.1665  0.2055 -0.2348
  231POPC   NC3 3074   8.465   4.592   3.786 -0.2300  0.0025 -0.0252
  231POPC   PO4 3075   8.307   5.020   3.969 -0.2175  0.0519  0.0108
  231POPC   GL1 3076   8.259   5.167   4.325 -0.4207 -0.1330 -0.0529
  231POPC   GL2 3077   8.503   5.004   4.639 -0.1931  0.0805 -0.0892
  231POPC   C1A 3078   8.096   5.397   4.627 -0.3242 -0.1497  0.1709
  231POPC   D2A 3079   8.130   5.284   5.062 -0.1314  0.2660  0.1950
  231POPC   C3A 3080   7.850   4.868   5.267 -0.1112 -0.0346 -0.0651
  231POPC   C4A 3081   7.611   4.705   5.406 -0.3163  0.2179 -0.1973
  231POPC   C1B 3082   8.398   4.887   5.029 -0.1740  0.1100  0.1852
  231POPC   C2B 3083   8.311   4.763   5.404 -0.0981  0.2895  0.0043
  231POPC   C3B 3084   8.289   4.407   5.765 -0.0422 -0.2174  0.0678
  231POPC   C4B 3085   8.099   4.077   5.898  0.0473 -0.1480  0.1893
  232POPC   NC3 3086   5.596   6.597   3.353 -0.0395 -0.0069  0.2429
  232POPC   PO4 3087   5.200   6.509   3.627 -0.0973  0.1615  0.1989
  232POPC   GL1 3088   5.095   6.777   3.899 -0.2898  0.2249  0.0256
  232POPC   GL2 3089   4.868   7.029   3.833  0.0394  0.0876 -0.0620
  232POPC   C1A 3090   5.256   6.775   4.325 -0.0215  0.5072 -0.0857
  232POPC   D2A 3091   5.547   6.862   4.700 -0.1301 -0.1967 -0.2441
  232POPC   C3A 3092   5.293   7.137   4.998  0.0646 -0.2579  0.1199
  232POPC   C4A 3093   5.147   7.284   5.396 -0.2589 -0.0938 -0.2833
  232POPC   C1B 3094   4.749   7.053   4.253 -0.2816  0.1316  0.0456
  232POPC   C2B 3095   4.964   7.066   4.632 -0.2105  0.3264 -0.0097
  232POPC   C3B 3096   5.020   6.601   4.823 -0.0787 -0.4176 -0.1072
  232POPC   C4B 3097   5.133   6.232   4.965  0.0404 -0.0445  0.0408
  233POPC   NC3 3098   1.739   3.814   3.648  0.0255 -0.2096 -0.1289
  233POPC   PO4 3099   1.470   4.111   3.794 -0.0417 -0.1266 -0.1898
  233POPC   GL1 3100   1.567   4.162   4.079  0.0096  0.2462  0.1137
  233POPC   GL2 3101   1.866   3.980   4.157 -0.0284  0.0760 -0.0855
  233POPC   C1A 3102   1.607   4.350   4.445 -0.0033  0.0410 -0.1385
  233POPC   D2A 3103   1.698   4.308   4.951 -0.1769 -0.0056 -0.2010
  233POPC   C3A 3104   1.892   4.673   5.038  0.1350  0.1384  0.1215
  233POPC   C4A 3105   2.185   4.773   5.325  0.2450  0.2751  0.3882
  233POPC   C1B 3106   2.090   4.102   4.540  0.0305 -0.0729 -0.0652
  233POPC   C2B 3107   2.321   4.302   4.916  0.0254 -0.1579  0.0903
  233POPC   C3B 3108   2.427   4.087   5.281 -0.2619 -0.1537  0.2332
  233POPC   C4B 3109   2.657   3.889   5.611 -0.1199  0.0413  0.0362
  234POPC   NC3 3110   3.101   8.777   3.749  0.0449  0.2559  0.0349
  234POPC   PO4 3111   3.085   9.190   3.690 -0.1858 -0.3480  0.3099
  234POPC   GL1 3112   2.922   9.070   4.101 -0.0191  0.3112 -0.2014
  234POPC   GL2 3113   3.071   9.270   4.452 -0.1065 -0.2337  0.1817
  234POPC   C1A 3114   3.124   8.779   4.474 -0.1799 -0.2020  0.0362
  234POPC   D2A 3115   3.413   8.937   4.871  0.0376 -0.1166  0.0148
  234POPC   C3A 3116   3.796   9.044   4.952  0.0024 -0.0476 -0.0007
  234POPC   C4A 3117   4.038   8.872   5.298 -0.1276 -0.1290 -0.0571
  234POPC   C1B 3118   3.018   9.331   4.854 -0.1812  0.0423 -0.1143
  234POPC   C2B 3119   2.997   9.250   5.281 -0.1006 -0.2342  0.0903
  234POPC   C3B 3120   3.211   9.280   5.702 -0.2048 -0.4110 -0.0411
  234POPC   C4B 3121   3.307   9.465   6.137 -0.0980 -0.2876 -0.0165
  235POPC   NC3 3122   4.985   7.055   3.353  0.0778  0.0098  0.3442
  235POPC   PO4 3123   5.364   7.010   3.567 -0.2792 -0.4266 -0.1790
  235POPC   GL1 3124   5.267   7.374   3.839 -0.0375  0.0070 -0.0847
  235POPC   GL2 3125   5.306   7.224   4.147  0.0701  0.1631 -0.0687
  235POPC   C1A 3126   4.907   7.553   4.152 -0.0867 -0.0810 -0.0843
  235POPC   D2A 3127   4.793   7.509   4.696 -0.2001 -0.1273 -0.0814
  235POPC   C3A 3128   5.016   7.750   4.990  0.0397 -0.3983  0.0970
  235POPC   C4A 3129   5.192   7.828   5.440  0.1494  0.2739  0.0298
  235POPC   C1B 3130   5.419   7.363   4.483  0.2317 -0.2454 -0.2068
  235POPC   C2B 3131   5.493   7.582   4.919 -0.2918 -0.0880  0.0763
  235POPC   C3B 3132   5.671   7.748   5.285 -0.0238  0.2375 -0.0994
  235POPC   C4B 3133   5.818   7.748   5.695 -0.3316  0.0912 -0.0056
  236POPC   NC3 3134   0.400   3.631   3.815  0.0536  0.0254 -0.2710
  236POPC   PO4 3135   0.781   3.493   3.819  0.1420  0.1811 -0.0479
  236POPC   GL1 3136   0.767   3.645   4.193  0.0594 -0.2295 -0.1531
  236POPC   GL2 3137   0.691   3.963   4.156  0.1411 -0.0770 -0.2212
  236POPC   C1A 3138   0.856   3.651   4.632  0.1973 -0.0867 -0.0996
  236POPC   D2A 3139   0.777   3.481   5.009  0.0214 -0.2099  0.2156
  236POPC   C3A 3140   0.520   3.249   5.329  0.0926 -0.0364 -0.1029
  236POPC   C4A 3141   0.152   3.163   5.714  0.3474  0.1027  0.0252
  236POPC   C1B 3142   0.784   4.256   4.578 -0.0221  0.0916  0.2796
  236POPC   C2B 3143   0.949   4.308   4.867 -0.0227 -0.0334  0.0872
  236POPC   C3B 3144   1.179   4.332   5.230  0.3685 -0.0393 -0.1054
  236POPC   C4B 3145   1.413   4.357   5.537  0.2642  0.3792  0.2225
  237POPC   NC3 3146   4.761   9.095   4.334 -0.0191  0.0495  0.0554
  237POPC   PO4 3147   4.459   9.138   3.941  0.2630 -0.2122 -0.1250
  237POPC   GL1 3148   4.254   9.005   4.287  0.1705  0.0023 -0.1416
  237POPC   GL2 3149   4.218   9.228   4.461  0.2702  0.1785  0.0337
  237POPC   C1A 3150   4.350   8.772   4.714  0.0974 -0.2100 -0.1259
  237POPC   D2A 3151   4.616   8.591   5.070  0.3606 -0.1191 -0.0327
  237POPC   C3A 3152   4.448   8.636   5.481 -0.2919 -0.0471 -0.0743
  237POPC   C4A 3153   4.147   8.607   5.762  0.0735 -0.0262  0.0984
  237POPC   C1B 3154   4.256   9.224   4.882  0.0260  0.2102 -0.0885
  237POPC   C2B 3155   4.491   9.120   5.137  0.0495  0.3806 -0.0001
  237POPC   C3B 3156   4.819   8.930   5.478  0.1431  0.1357  0.1392
  237POPC   C4B 3157   4.870   9.272   5.707 -0.3402 -0.4493 -0.1786
  238POPC   NC3 3158   0.774   1.267   3.615  0.1594 -0.3101  0.0632
  238POPC   PO4 3159   0.768   1.281   4.053  0.0935  0.2849 -0.1067
  238POPC   GL1 3160   0.703   1.277   4.529  0.1844 -0.0998 -0.1398
  238POPC   GL2 3161   0.610   1.534   4.637 -0.0613 -0.1803 -0.2976
  238POPC   C1A 3162   0.525   0.996   4.761  0.1461  0.0417  0.3630
  238POPC   D2A 3163   0.263   0.691   4.939 -0.0524  0.0056 -0.0648
  238POPC   C3A 3164  -0.068   0.635   5.114  0.0942  0.0694  0.1718
  238POPC   C4A 3165  -0.157   0.404   5.617  0.1358 -0.1392  0.2851
  238POPC   C1B 3166   0.639   1.738   5.050 -0.1721  0.5004 -0.1737
  238POPC   C2B 3167   0.539   2.099   5.411 -0.1490  0.3249  0.1345
  238POPC   C3B 3168   0.384   2.370   5.685  0.1301 -0.0891  0.1982
  238POPC   C4B 3169   0.824   2.459   5.768 -0.0086 -0.1618  0.0121
  239POPC   NC3 3170   1.539   7.137   3.359  0.2298 -0.1593  0.3618
  239POPC   PO4 3171   1.998   7.278   3.377 -0.5603  0.1180  0.1444
  239POPC   GL1 3172   2.123   7.279   3.831 -0.2736  0.2981  0.1530
  239POPC   GL2 3173   1.864   7.024   3.903  0.0107 -0.0794  0.0170
  239POPC   C1A 3174   2.261   7.354   4.298 -0.2084  0.0201 -0.3006
  239POPC   D2A 3175   2.131   7.652   4.595  0.1064  0.0215  0.3425
  239POPC   C3A 3176   2.330   7.671   4.937 -0.0248 -0.3265  0.0483
  239POPC   C4A 3177   2.296   7.876   5.271 -0.0964  0.2132 -0.2601
  239POPC   C1B 3178   1.779   7.242   4.257 -0.0260  0.1983  0.0382
  239POPC   C2B 3179   1.871   7.228   4.696 -0.0746  0.0957 -0.0690
  239POPC   C3B 3180   1.482   7.386   5.055 -0.0183  0.3598 -0.0654
  239POPC   C4B 3181   1.079   7.605   5.062  0.0125  0.1906 -0.0884
  240POPC   NC3 3182   1.887   8.648   3.945 -0.1819 -0.1427 -0.3074
  240POPC   PO4 3183   1.891   9.052   3.976 -0.2098 -0.3276  0.3940
  240POPC   GL1 3184   2.227   8.842   4.198  0.0880  0.2473  0.1288
  240POPC   GL2 3185   2.069   8.437   4.326 -0.1008 -0.0487  0.1009
  240POPC   C1A 3186   2.626   8.919   4.471 -0.3433  0.0937 -0.3519
  240POPC   D2A 3187   2.851   8.904   4.872  0.0953  0.1403 -0.4057
  240POPC   C3A 3188   2.862   8.588   5.130  0.0195 -0.0869  0.1706
  240POPC   C4A 3189   2.805   8.421   5.488  0.0226 -0.0822  0.0312
  240POPC   C1B 3190   2.004   8.127   4.724  0.0134 -0.0458  0.4061
  240POPC   C2B 3191   1.797   7.873   5.083  0.1340 -0.2852  0.0164
  240POPC   C3B 3192   1.468   7.873   5.434 -0.1840  0.1130  0.0945
  240POPC   C4B 3193   1.426   7.981   5.803 -0.1282  0.0056  0.0725
  241POPC   NC3 3194   3.654   7.121   3.514 -0.2185 -0.4112  0.2819
  241POPC   PO4 3195   3.612   7.580   3.582 -0.0487 -0.2927  0.3510
  241POPC   GL1 3196   3.423   7.743   3.971  0.1418  0.0663 -0.1374
  241POPC   GL2 3197   3.335   8.083   3.864  0.0860 -0.2638  0.0606
  241POPC   C1A 3198   3.377   7.686   4.480  0.0411  0.1637  0.1062
  241POPC   D2A 3199   3.273   7.735   4.880 -0.1025  0.1898 -0.0159
  241POPC   C3A 3200   2.974   7.583   5.059 -0.0251  0.0295 -0.1219
  241POPC   C4A 3201   2.681   7.468   5.367 -0.0722  0.0381 -0.2586
  241POPC   C1B 3202   3.262   8.112   4.216  0.0363 -0.4244  0.4242
  241POPC   C2B 3203   3.219   8.260   4.470  0.0891  0.0758  0.2831
  241POPC   C3B 3204   3.206   8.218   4.969  0.0782 -0.0025 -0.0708
  241POPC   C4B 3205   3.201   8.104   5.358 -0.1207 -0.1496 -0.0244
  242POPC   NC3 3206   5.936   5.128   3.382 -0.3115  0.2841  0.0489
  242POPC   PO4 3207   5.952   5.346   3.777  0.1818  0.0194 -0.2448
  242POPC   GL1 3208   6.221   5.444   4.072 -0.0101  0.0503 -0.2549
  242POPC   GL2 3209   6.278   5.785   4.118  0.1112 -0.2503  0.0010
  242POPC   C1A 3210   6.464   5.450   4.503 -0.0513  0.1633 -0.2757
  242POPC   D2A 3211   6.276   5.279   4.916 -0.1508 -0.0410 -0.1484
  242POPC   C3A 3212   5.892   5.064   4.897  0.4013 -0.0730 -0.1658
  242POPC   C4A 3213   5.545   5.206   4.842 -0.2092 -0.3678 -0.1398
  242POPC   C1B 3214   6.101   5.860   4.437 -0.0511  0.2379 -0.0987
  242POPC   C2B 3215   5.843   6.070   4.795  0.2512 -0.1345 -0.0470
  242POPC   C3B 3216   5.643   6.303   5.077 -0.0570  0.0082 -0.1470
  242POPC   C4B 3217   5.623   5.980   5.399 -0.1134 -0.0039  0.0486
  243POPC   NC3 3218   4.730   2.570   3.632 -0.0559  0.2637  0.2401
  243POPC   PO4 3219   5.158   2.410   3.768  0.3814  0.0758  0.4284
  243POPC   GL1 3220   5.137   2.441   4.140  0.0082  0.1475 -0.0017
  243POPC   GL2 3221   4.811   2.611   4.155  0.0419 -0.0976  0.0718
  243POPC   C1A 3222   5.023   2.354   4.482 -0.0780  0.1709  0.1343
  243POPC   D2A 3223   5.184   2.452   4.881 -0.3510 -0.1649  0.2108
  243POPC   C3A 3224   5.255   2.220   5.281  0.2682 -0.2637  0.0891
  243POPC   C4A 3225   5.106   2.312   5.688 -0.0699 -0.0288 -0.0619
  243POPC   C1B 3226   5.027   2.855   4.459 -0.0609 -0.0798 -0.0881
  243POPC   C2B 3227   5.096   2.966   4.903 -0.5266 -0.0918 -0.2094
  243POPC   C3B 3228   5.318   3.179   5.309  0.5240  0.0684  0.3544
  243POPC   C4B 3229   5.259   3.044   5.747 -0.3722 -0.1249 -0.0367
  244POPC   NC3 3230   5.279   4.305   3.620 -0.1636 -0.0633 -0.1266
  244POPC   PO4 3231   4.934   4.479   3.735 -0.3781  0.2820 -0.2467
  244POPC   GL1 3232   5.074   4.401   4.177 -0.0412  0.2616 -0.0877
  244POPC   GL2 3233   4.817   4.208   4.271  0.0238 -0.2581  0.1773
  244POPC   C1A 3234   5.091   4.305   4.636  0.0091  0.0074 -0.2042
  244POPC   D2A 3235   4.897   4.501   4.917  0.1156  0.0923 -0.1339
  244POPC   C3A 3236   4.605   4.243   5.200 -0.1783 -0.1047 -0.2606
  244POPC   C4A 3237   4.475   3.906   5.238  0.2057  0.1930 -0.3348
  244POPC   C1B 3238   4.665   3.727   4.397  0.2039 -0.0841 -0.0805
  244POPC   C2B 3239   4.414   3.638   4.714  0.2586  0.1081  0.0485
  244POPC   C3B 3240   4.010   3.556   4.948  0.1793 -0.2890  0.0556
  244POPC   C4B 3241   3.687   3.730   4.948 -0.0963  0.2346  0.0031
  245POPC   NC3 3242   3.307   1.605   3.294  0.1365 -0.0697  0.0316
  245POPC   PO4 3243   3.421   1.586   3.765 -0.1855 -0.1452 -0.0349
  245POPC   GL1 3244   3.321   1.676   4.211 -0.0318 -0.1933  0.0938
  245POPC   GL2 3245   3.379   1.352   4.344  0.0122 -0.1161  0.0247
  245POPC   C1A 3246   3.475   1.677   4.672 -0.0002 -0.0992 -0.0684
  245POPC   D2A 3247   3.570   1.846   5.077 -0.4070 -0.0054 -0.0821
  245POPC   C3A 3248   3.887   1.738   5.328  0.0547 -0.1915  0.3208
  245POPC   C4A 3249   4.001   1.940   5.663 -0.1137  0.3642  0.0280
  245POPC   C1B 3250   3.088   1.269   4.677  0.1063 -0.2337 -0.1972
  245POPC   C2B 3251   3.367   1.343   4.982 -0.5083  0.2306  0.0037
  245POPC   C3B 3252   3.444   1.464   5.405 -0.0074  0.1825  0.3457
  245POPC   C4B 3253   3.810   1.353   5.661 -0.0776 -0.1341  0.1355
  246POPC   NC3 3254   9.256   9.367   3.493  0.0268  0.1748 -0.0232
  246POPC   PO4 3255   8.989   9.103   3.689  0.1664 -0.0404  0.1923
  246POPC   GL1 3256   8.939   9.242   4.106  0.2033 -0.0708 -0.2372
  246POPC   GL2 3257   8.760   9.269   4.251 -0.0133  0.1647 -0.0484
  246POPC   C1A 3258   9.140   9.072   4.525  0.1854  0.0627  0.2795
  246POPC   D2A 3259   9.354   9.271   4.904 -0.2189 -0.4866  0.0827
  246POPC   C3A 3260   9.512   9.138   5.184 -0.0723  0.0019 -0.2973
  246POPC   C4A 3261   9.928   9.105   4.994  0.0102 -0.3140 -0.2950
  246POPC   C1B 3262   8.688   9.079   4.637 -0.4296  0.1850 -0.0350
  246POPC   C2B 3263   8.814   9.146   5.118  0.1821 -0.0452 -0.0276
  246POPC   C3B 3264   9.063   8.911   5.232 -0.0127 -0.0019  0.1285
  246POPC   C4B 3265   9.323   8.560   5.502  0.1997  0.0536  0.1577
  247POPC   NC3 3266   7.172   1.496   3.069 -0.0893  0.0137  0.1632
  247POPC   PO4 3267   6.956   1.103   3.100  0.2446  0.1251  0.0619
  247POPC   GL1 3268   7.285   1.238   3.449 -0.2319  0.1962  0.0112
  247POPC   GL2 3269   7.524   1.004   3.668  0.2456 -0.0571 -0.0533
  247POPC   C1A 3270   7.285   1.483   3.741 -0.2073 -0.1155 -0.0997
  247POPC   D2A 3271   7.602   1.450   3.997  0.2543  0.1073 -0.3985
  247POPC   C3A 3272   7.732   1.082   4.194 -0.2685 -0.2182 -0.0055
  247POPC   C4A 3273   8.117   0.889   4.369  0.0864  0.0628  0.0942
  247POPC   C1B 3274   7.320   0.730   4.106 -0.0854  0.1811 -0.0162
  247POPC   C2B 3275   7.128   0.429   4.387  0.2361 -0.0500  0.0009
  247POPC   C3B 3276   7.016   0.098   4.589  0.0077  0.0094  0.0753
  247POPC   C4B 3277   6.552   0.053   4.811 -0.1431  0.1595  0.5303
  248POPC   NC3 3278   6.696   8.216   3.535 -0.2100  0.0548  0.1694
  248POPC   PO4 3279   7.031   8.556   3.699  0.0084  0.3599  0.1160
  248POPC   GL1 3280   7.096   8.653   4.073  0.3394  0.0167 -0.5364
  248POPC   GL2 3281   6.976   8.878   4.152  0.1549  0.0711 -0.1292
  248POPC   C1A 3282   7.177   8.493   4.510 -0.1204 -0.1481 -0.0718
  248POPC   D2A 3283   7.000   8.534   4.906  0.1942  0.0560  0.2140
  248POPC   C3A 3284   7.028   8.297   5.231  0.2722  0.0689 -0.3503
  248POPC   C4A 3285   7.089   8.267   5.724 -0.2394  0.0665 -0.2782
  248POPC   C1B 3286   7.195   8.991   4.652  0.2629 -0.2186  0.1133
  248POPC   C2B 3287   7.208   9.017   5.015 -0.1484  0.3814  0.2466
  248POPC   C3B 3288   7.366   8.705   5.189 -0.4822  0.1334 -0.2009
  248POPC   C4B 3289   7.494   8.337   5.314  0.0031  0.1102 -0.1871
  249POPC   NC3 3290   3.209   2.869   3.701 -0.2086  0.1575  0.1534
  249POPC   PO4 3291   3.091   2.414   3.807 -0.0434  0.2374 -0.2027
  249POPC   GL1 3292   2.797   2.273   4.128 -0.3256 -0.1390  0.1003
  249POPC   GL2 3293   2.876   2.054   4.244  0.0566 -0.1178 -0.2856
  249POPC   C1A 3294   2.319   2.383   4.074  0.0239  0.0452  0.1380
  249POPC   D2A 3295   2.184   2.905   3.971  0.0575 -0.1971 -0.2106
  249POPC   C3A 3296   2.352   2.975   4.459  0.1791 -0.1313  0.0228
  249POPC   C4A 3297   2.438   3.239   4.842  0.0394  0.1270 -0.0611
  249POPC   C1B 3298   3.052   1.938   4.747 -0.1092 -0.1106 -0.5525
  249POPC   C2B 3299   3.100   1.675   5.153 -0.0129  0.0613 -0.1363
  249POPC   C3B 3300   2.829   1.533   5.518  0.4498  0.0946 -0.2046
  249POPC   C4B 3301   2.434   1.672   5.746  0.0686  0.0652 -0.0650
  250POPC   NC3 3302   3.905   5.675   3.243  0.1502 -0.0363  0.2605
  250POPC   PO4 3303   3.796   6.102   3.514  0.0583 -0.2173  0.1152
  250POPC   GL1 3304   3.821   6.139   3.928 -0.1067 -0.2378  0.1132
  250POPC   GL2 3305   3.758   5.925   4.162 -0.1629 -0.2159 -0.0902
  250POPC   C1A 3306   3.940   6.482   4.227 -0.3745 -0.1128  0.0009
  250POPC   D2A 3307   4.317   6.652   4.503  0.2462 -0.0233  0.0481
  250POPC   C3A 3308   4.611   6.347   4.759  0.1335 -0.2098  0.0535
  250POPC   C4A 3309   4.771   6.286   5.239 -0.1020 -0.1174  0.2232
  250POPC   C1B 3310   3.705   6.089   4.512  0.0743  0.0209 -0.0789
  250POPC   C2B 3311   3.745   6.253   4.955  0.1349  0.2408  0.1456
  250POPC   C3B 3312   3.678   6.639   5.269 -0.1501 -0.0826 -0.0296
  250POPC   C4B 3313   3.345   6.809   5.549  0.0858 -0.0561  0.3038
  251POPC   NC3 3314   3.398   6.367   3.751 -0.1447  0.1620 -0.2448
  251POPC   PO4 3315   3.057   6.055   3.759  0.0192 -0.4138 -0.0794
  251POPC   GL1 3316   3.207   6.068   4.172 -0.1255 -0.1197 -0.0483
  251POPC   GL2 3317   3.464   6.423   4.326  0.1389  0.0623  0.2707
  251POPC   C1A 3318   3.214   6.166   4.695  0.1846 -0.1724 -0.2199
  251POPC   D2A 3319   3.284   5.991   5.078  0.2848 -0.1661 -0.2894
  251POPC   C3A 3320   3.116   5.803   5.576 -0.2038  0.1807 -0.2413
  251POPC   C4A 3321   3.032   5.864   6.003  0.1271  0.0469 -0.2190
  251POPC   C1B 3322   3.710   6.648   4.642 -0.3019  0.1907 -0.2776
  251POPC   C2B 3323   4.107   6.598   4.948  0.2059 -0.0440 -0.1423
  251POPC   C3B 3324   4.556   6.750   5.100 -0.3517  0.2815 -0.0599
  251POPC   C4B 3325   4.812   7.096   5.143 -0.1745  0.0194  0.0815
  252POPC   NC3 3326   5.384   9.869   4.064 -0.0105  0.1103  0.0612
  252POPC   PO4 3327   5.383   9.445   4.228 -0.1328  0.0469 -0.1711
  252POPC   GL1 3328   5.437   9.590   4.612 -0.1752  0.3292  0.1720
  252POPC   GL2 3329   5.737   9.450   4.686  0.1552  0.2603  0.0578
  252POPC   C1A 3330   5.578   9.830   4.876  0.2787 -0.1701  0.2139
  252POPC   D2A 3331   5.359   9.784   5.294  0.0844 -0.0035  0.2154
  252POPC   C3A 3332   5.655   9.570   5.566  0.0777  0.5777  0.1188
  252POPC   C4A 3333   5.907   9.330   5.921 -0.2595 -0.0542 -0.0087
  252POPC   C1B 3334   5.873   9.425   5.155  0.2608 -0.1328  0.1667
  252POPC   C2B 3335   6.182   9.343   5.503  0.2684  0.0010 -0.1057
  252POPC   C3B 3336   6.488   9.191   5.683 -0.1218 -0.1856  0.1425
  252POPC   C4B 3337   6.638   8.921   6.037 -0.2951  0.0837  0.1658
  253POPC   NC3 3338   6.236   3.146   3.441  0.0529  0.0087  0.4650
  253POPC   PO4 3339   5.899   3.198   3.620  0.2545 -0.0176 -0.3821
  253POPC   GL1 3340   5.970   3.160   4.058  0.1059  0.1294 -0.2569
  253POPC   GL2 3341   6.166   3.447   4.126 -0.2367 -0.2791  0.0328
  253POPC   C1A 3342   6.399   2.978   4.235 -0.4788 -0.0359 -0.1151
  253POPC   D2A 3343   6.717   3.230   4.354  0.0709 -0.1652  0.2589
  253POPC   C3A 3344   7.121   3.106   4.594  0.1429 -0.1135  0.2308
  253POPC   C4A 3345   7.570   2.881   4.721  0.0771  0.1503  0.3113
  253POPC   C1B 3346   6.031   3.271   4.515 -0.2432 -0.0609 -0.1829
  253POPC   C2B 3347   5.859   2.949   4.676  0.3177 -0.1624 -0.2183
  253POPC   C3B 3348   5.582   2.815   5.048 -0.1748 -0.1437  0.1501
  253POPC   C4B 3349   5.204   2.707   5.328 -0.0823  0.0081 -0.0207
  254POPC   NC3 3350   2.989   1.092   4.063  0.1671  0.1474 -0.0199
  254POPC   PO4 3351   3.198   0.734   4.081  0.2251 -0.0203 -0.2311
  254POPC   GL1 3352   3.065   0.768   4.444  0.0399  0.0415 -0.4144
  254POPC   GL2 3353   3.345   0.781   4.682 -0.0262  0.0579  0.2947
  254POPC   C1A 3354   2.738   0.878   4.701  0.2258  0.1746 -0.1237
  254POPC   D2A 3355   2.266   0.648   4.953 -0.0151 -0.0501  0.2459
  254POPC   C3A 3356   2.297   0.531   5.387  0.1500  0.0623 -0.2256
  254POPC   C4A 3357   2.504   0.677   5.736  0.0615  0.3415  0.3184
  254POPC   C1B 3358   3.107   0.786   5.093  0.1266 -0.2521 -0.2032
  254POPC   C2B 3359   2.940   0.490   5.478 -0.0752 -0.1172  0.0084
  254POPC   C3B 3360   2.649   0.247   5.596  0.2295  0.1729  0.2482
  254POPC   C4B 3361   2.593  -0.141   5.806  0.0488  0.0119 -0.1610
  255POPC   NC3 3362   4.097  10.512   3.551  0.1054 -0.2995  0.1127
  255POPC   PO4 3363   4.215  10.530   4.002  0.1549 -0.5180 -0.1749
  255POPC   GL1 3364   4.187  10.312   4.356  0.0934 -0.0368  0.0445
  255POPC   GL2 3365   3.983  10.517   4.538 -0.1420  0.1091 -0.0209
  255POPC   C1A 3366   4.151   9.993   4.709 -0.2901  0.2031 -0.0875
  255POPC   D2A 3367   3.957   9.646   4.734  0.1781  0.0496 -0.1257
  255POPC   C3A 3368   3.896   9.488   5.196 -0.0286 -0.0522 -0.0935
  255POPC   C4A 3369   3.788   9.332   5.628 -0.2870  0.0486  0.1925
  255POPC   C1B 3370   3.936  10.451   4.906  0.2413  0.2352 -0.0322
  255POPC   C2B 3371   3.821  10.435   5.311 -0.0382  0.1433  0.0511
  255POPC   C3B 3372   3.813  10.813   5.604  0.1080 -0.0764  0.0703
  255POPC   C4B 3373   4.003  11.049   5.969 -0.0055  0.4717  0.0819
  256POPC   NC3 3374   7.605   6.377   3.517  0.1835  0.3388 -0.2534
  256POPC   PO4 3375   7.847   6.796   3.451  0.1398 -0.0732  0.1149
  256POPC   GL1 3376   8.053   6.565   3.858 -0.1490  0.3362  0.2582
  256POPC   GL2 3377   7.879   6.316   3.975 -0.4957 -0.3914 -0.1021
  256POPC   C1A 3378   8.152   6.613   4.312  0.0487 -0.0286  0.1013
  256POPC   D2A 3379   8.284   6.384   4.639  0.1119  0.0725 -0.1093
  256POPC   C3A 3380   8.616   6.061   4.600 -0.3704 -0.3347 -0.2353
  256POPC   C4A 3381   8.863   6.316   4.807 -0.1007  0.0034  0.1526
  256POPC   C1B 3382   7.851   6.201   4.431  0.2257  0.0200 -0.1677
  256POPC   C2B 3383   7.803   6.235   4.806 -0.2308  0.1014  0.0510
  256POPC   C3B 3384   8.004   6.397   5.159 -0.2928  0.0860  0.2556
  256POPC   C4B 3385   8.067   6.272   5.629 -0.6648  0.0410  0.0410
  257POPC   NC3 3386   9.257  10.587   3.840  0.0285 -0.1130  0.2530
  257POPC   PO4 3387   8.900  10.875   3.841  0.1415 -0.0353 -0.1652
  257POPC   GL1 3388   9.029  10.919   4.253  0.1830 -0.2397  0.3629
  257POPC   GL2 3389   9.444  10.941   4.290 -0.2179  0.1265  0.2584
  257POPC   C1A 3390   9.064  10.780   4.733  0.0752 -0.0896  0.0086
  257POPC   D2A 3391   9.179  10.864   5.206  0.2025 -0.0271  0.1223
  257POPC   C3A 3392   8.960  10.982   5.629 -0.0628  0.1896  0.1295
  257POPC   C4A 3393   8.574  11.346   5.708  0.0751 -0.0940 -0.2044
  257POPC   C1B 3394   9.587  10.813   4.724  0.0117  0.0808  0.0356
  257POPC   C2B 3395   9.575  10.630   5.064  0.3201  0.1287  0.1675
  257POPC   C3B 3396   9.716  10.548   5.439 -0.1818  0.1364  0.0645
  257POPC   C4B 3397   9.954  10.670   5.758 -0.2414  0.0444 -0.1303
  258POPC   NC3 3398   2.150   5.852   3.598 -0.0633  0.0213  0.0090
  258POPC   PO4 3399   2.150   5.426   3.794 -0.0617  0.2170  0.3484
  258POPC   GL1 3400   2.032   5.421   4.164 -0.0248  0.1256 -0.2223
  258POPC   GL2 3401   1.855   5.108   4.207 -0.2265 -0.0836  0.1051
  258POPC   C1A 3402   2.294   5.418   4.527 -0.2092 -0.2945 -0.2472
  258POPC   D2A 3403   2.486   5.360   4.854 -0.3569 -0.1984 -0.2013
  258POPC   C3A 3404   2.376   5.665   5.055 -0.1038  0.0204  0.2267
  258POPC   C4A 3405   1.940   5.721   5.258  0.2281 -0.1187  0.0333
  258POPC   C1B 3406   1.772   4.972   4.663 -0.3903 -0.2897 -0.0890
  258POPC   C2B 3407   1.933   5.223   5.013 -0.0751  0.2130  0.0481
  258POPC   C3B 3408   2.192   5.302   5.453 -0.0436 -0.0719 -0.2111
  258POPC   C4B 3409   2.463   5.067   5.689 -0.3400 -0.0613  0.1719
  259POPC   NC3 3410   3.027   1.904   3.783 -0.0838 -0.2050 -0.0907
  259POPC   PO4 3411   2.898   1.546   3.972  0.1936 -0.0545  0.2006
  259POPC   GL1 3412   2.720   1.459   4.339 -0.2076  0.0898  0.0780
  259POPC   GL2 3413   2.470   1.304   4.361  0.2432  0.0371 -0.2790
  259POPC   C1A 3414   2.598   1.643   4.718  0.0989 -0.0651 -0.1378
  259POPC   D2A 3415   2.485   1.760   5.204 -0.1298  0.1182  0.2785
  259POPC   C3A 3416   2.374   2.256   5.354 -0.0601  0.1555 -0.0724
  259POPC   C4A 3417   2.369   2.621   5.436  0.0459  0.1823  0.3130
  259POPC   C1B 3418   2.324   1.156   4.769 -0.0254 -0.1465 -0.2856
  259POPC   C2B 3419   2.165   1.218   5.163 -0.0797 -0.1754  0.2017
  259POPC   C3B 3420   1.916   1.065   5.404  0.1965 -0.0294 -0.0032
  259POPC   C4B 3421   1.961   0.783   5.742 -0.3963  0.0132  0.1080
  260POPC   NC3 3422   2.927   0.332   3.927 -0.1845 -0.0356 -0.0564
  260POPC   PO4 3423   2.728   0.599   4.135 -0.0376  0.3042 -0.0697
  260POPC   GL1 3424   2.477   0.485   4.454 -0.1902  0.4021  0.4498
  260POPC   GL2 3425   2.569   0.122   4.546 -0.1931 -0.0128  0.0164
  260POPC   C1A 3426   2.155   0.237   4.739 -0.0934  0.3388 -0.2266
  260POPC   D2A 3427   2.230   0.136   5.045 -0.1668  0.1649  0.2082
  260POPC   C3A 3428   2.584  -0.054   5.170  0.1880 -0.1166 -0.1523
  260POPC   C4A 3429   2.920   0.087   5.161  0.2441  0.2835  0.0393
  260POPC   C1B 3430   2.702  -0.281   4.778 -0.0524 -0.0186  0.1626
  260POPC   C2B 3431   2.866  -0.483   5.051  0.1121 -0.4736  0.2461
  260POPC   C3B 3432   2.886  -0.364   5.445 -0.0898  0.1196 -0.0747
  260POPC   C4B 3433   3.109   0.065   5.670 -0.0563 -0.1938  0.4473
  261POPC   NC3 3434   8.756  10.023   3.975  0.0844 -0.0201  0.0741
  261POPC   PO4 3435   8.866  10.361   3.698  0.2206 -0.3026  0.1312
  261POPC   GL1 3436   8.442  10.456   4.077 -0.4025 -0.0107  0.3190
  261POPC   GL2 3437   8.322  10.184   4.175  0.0118 -0.2071  0.3668
  261POPC   C1A 3438   8.620  10.510   4.585 -0.4022  0.0673 -0.1651
  261POPC   D2A 3439   8.492  10.213   4.923  0.2186  0.0813  0.2648
  261POPC   C3A 3440   8.360  10.398   5.352 -0.1285 -0.0538  0.4515
  261POPC   C4A 3441   7.970  10.634   5.400  0.2124  0.0538 -0.2085
  261POPC   C1B 3442   8.097  10.193   4.579  0.0227  0.0986 -0.1750
  261POPC   C2B 3443   7.901  10.494   4.926 -0.0766  0.1755 -0.0106
  261POPC   C3B 3444   7.652  10.290   5.279 -0.1487 -0.1113  0.0555
  261POPC   C4B 3445   7.602   9.924   5.586  0.0108 -0.1031 -0.3112
  262POPC   NC3 3446   5.222   8.720   3.141 -0.2513 -0.2435 -0.3807
  262POPC   PO4 3447   5.490   8.331   3.175  0.1897 -0.1448 -0.0076
  262POPC   GL1 3448   5.336   8.191   3.601 -0.0145  0.0396 -0.1317
  262POPC   GL2 3449   5.246   7.900   3.691  0.0392  0.2908  0.1197
  262POPC   C1A 3450   5.078   8.182   4.117  0.0464 -0.2090  0.4622
  262POPC   D2A 3451   4.931   7.944   4.478  0.3934 -0.1427 -0.1437
  262POPC   C3A 3452   5.045   8.240   4.875  0.4453  0.3889  0.1643
  262POPC   C4A 3453   5.084   8.282   5.308 -0.3249  0.0288 -0.2207
  262POPC   C1B 3454   5.350   7.778   4.217 -0.1332 -0.0269  0.2250
  262POPC   C2B 3455   5.456   7.989   4.700  0.0444  0.0801  0.1780
  262POPC   C3B 3456   5.530   8.166   5.057  0.0351  0.0244 -0.0523
  262POPC   C4B 3457   5.730   8.529   5.279  0.2882  0.0938  0.1725
  263POPC   NC3 3458   0.110   4.491   3.916 -0.0057  0.1663  0.0243
  263POPC   PO4 3459   0.117   4.034   3.783 -0.1302 -0.0420  0.1006
  263POPC   GL1 3460   0.179   4.063   4.177 -0.6048  0.2037 -0.0969
  263POPC   GL2 3461   0.224   3.779   4.270  0.0338 -0.1924 -0.0315
  263POPC   C1A 3462   0.294   4.313   4.583  0.1332  0.0971  0.2182
  263POPC   D2A 3463   0.488   4.443   4.918  0.3742  0.1914  0.1624
  263POPC   C3A 3464   0.461   4.867   5.159 -0.0442  0.2634 -0.0717
  263POPC   C4A 3465   0.453   4.823   5.554  0.1211  0.0243 -0.0325
  263POPC   C1B 3466   0.399   3.826   4.576 -0.2517 -0.1270 -0.0039
  263POPC   C2B 3467   0.422   3.829   4.926  0.0551  0.1094  0.4582
  263POPC   C3B 3468   0.818   3.942   5.182  0.4365  0.3124  0.1753
  263POPC   C4B 3469   1.151   3.859   5.457  0.0291  0.3080 -0.0426
  264POPC   NC3 3470   4.038   6.550   3.441 -0.1262 -0.2636 -0.2011
  264POPC   PO4 3471   4.151   6.896   3.624 -0.1228 -0.1423 -0.2614
  264POPC   GL1 3472   4.167   6.912   4.042  0.3190 -0.2292 -0.0583
  264POPC   GL2 3473   4.433   6.573   3.989  0.0708 -0.0188  0.1587
  264POPC   C1A 3474   4.129   7.178   4.501 -0.1767 -0.0238 -0.2550
  264POPC   D2A 3475   4.370   7.185   4.788 -0.0350 -0.2382  0.1689
  264POPC   C3A 3476   4.310   7.332   5.215 -0.0379 -0.0787 -0.1657
  264POPC   C4A 3477   4.592   7.596   5.333  0.0697 -0.1162 -0.1390
  264POPC   C1B 3478   4.434   6.160   4.285  0.2721  0.0126  0.0771
  264POPC   C2B 3479   4.197   6.138   4.655 -0.3038  0.1915 -0.3221
  264POPC   C3B 3480   4.310   6.044   5.064  0.0441  0.0157  0.2703
  264POPC   C4B 3481   4.236   5.795   5.467 -0.1187  0.0315 -0.0305
  265POPC   NC3 3482   4.699  10.478   3.927 -0.0371 -0.0219 -0.4721
  265POPC   PO4 3483   5.040  10.191   3.908 -0.3221 -0.0565 -0.0512
  265POPC   GL1 3484   5.283  10.337   4.373 -0.0070  0.0026  0.3770
  265POPC   GL2 3485   5.149  10.103   4.450 -0.1736 -0.0577  0.0107
  265POPC   C1A 3486   5.440  10.321   4.741  0.0348  0.0493 -0.0934
  265POPC   D2A 3487   5.402  10.243   5.223  0.1592 -0.0272  0.0424
  265POPC   C3A 3488   5.830  10.407   5.512 -0.0053  0.1960 -0.2154
  265POPC   C4A 3489   5.785  10.633   5.904  0.0104  0.4070 -0.1489
  265POPC   C1B 3490   5.095   9.909   4.820  0.2322 -0.0155  0.2260
  265POPC   C2B 3491   4.857   9.892   5.198  0.5262 -0.0358 -0.0827
  265POPC   C3B 3492   4.913  10.267   5.470 -0.0919 -0.0479  0.0442
  265POPC   C4B 3493   4.871  10.654   5.410 -0.0456 -0.0678 -0.1568
  266POPC   NC3 3494   2.536   1.202   3.872 -0.0300  0.0116 -0.0562
  266POPC   PO4 3495   2.367   1.598   4.013  0.0155 -0.0837 -0.0520
  266POPC   GL1 3496   2.179   1.931   4.288 -0.0508 -0.0258  0.1662
  266POPC   GL2 3497   2.461   2.077   4.498 -0.0117  0.2639 -0.1137
  266POPC   C1A 3498   2.010   2.058   4.657  0.0960  0.1529 -0.0529
  266POPC   D2A 3499   1.714   2.355   4.818  0.1494 -0.2563  0.4333
  266POPC   C3A 3500   1.930   2.493   5.294 -0.0620  0.1957  0.0554
  266POPC   C4A 3501   2.024   2.926   5.577 -0.0531  0.1794 -0.0752
  266POPC   C1B 3502   2.708   2.236   4.969 -0.0425 -0.1303 -0.2263
  266POPC   C2B 3503   2.841   2.111   5.354  0.1163  0.5448 -0.0991
  266POPC   C3B 3504   3.031   1.937   5.714  0.0506  0.1923 -0.1526
  266POPC   C4B 3505   2.801   1.871   6.096 -0.0626 -0.0925  0.0119
  267POPC   NC3 3506   1.151   8.866   3.268  0.1882  0.1361 -0.0298
  267POPC   PO4 3507   1.494   8.642   3.642 -0.1437  0.0410  0.0231
  267POPC   GL1 3508   1.383   8.553   4.103  0.1468  0.1662 -0.1555
  267POPC   GL2 3509   1.561   8.748   4.330  0.1958 -0.1894 -0.2810
  267POPC   C1A 3510   1.162   8.457   4.529 -0.1622 -0.0247  0.0019
  267POPC   D2A 3511   0.848   8.422   4.839 -0.0068 -0.0695 -0.0165
  267POPC   C3A 3512   0.880   8.195   5.146  0.0291 -0.0308  0.0797
  267POPC   C4A 3513   0.800   7.982   5.469 -0.2415 -0.0030 -0.0797
  267POPC   C1B 3514   1.669   8.519   4.675  0.0806 -0.0835  0.0252
  267POPC   C2B 3515   1.755   8.418   5.108 -0.2188 -0.2773  0.0217
  267POPC   C3B 3516   1.924   8.250   5.403  0.0671  0.0529  0.0487
  267POPC   C4B 3517   1.869   8.247   5.873  0.0838 -0.1782  0.1041
  268POPC   NC3 3518   8.630   7.269   3.728  0.1864  0.0998  0.1143
  268POPC   PO4 3519   9.107   7.388   3.797  0.0708 -0.0644 -0.0965
  268POPC   GL1 3520   9.426   7.445   4.092 -0.3529 -0.2177  0.0360
  268POPC   GL2 3521   9.594   7.157   4.112 -0.0431  0.1144  0.0856
  268POPC   C1A 3522   9.907   7.491   4.173 -0.0760  0.1025 -0.1051
  268POPC   D2A 3523  10.348   7.410   4.119 -0.1531 -0.0243 -0.0841
  268POPC   C3A 3524  10.537   7.381   4.480  0.1922 -0.0084  0.0269
  268POPC   C4A 3525  10.857   7.599   4.616  0.0395 -0.2659 -0.1172
  268POPC   C1B 3526   9.517   7.235   4.553  0.4115  0.1818 -0.2656
  268POPC   C2B 3527   9.553   7.292   4.962 -0.5300  0.1038 -0.1071
  268POPC   C3B 3528   9.572   7.522   5.369 -0.0506  0.0027  0.3710
  268POPC   C4B 3529   9.397   7.584   5.786 -0.2495 -0.1902 -0.3238
  269POPC   NC3 3530   4.969   5.307   3.849  0.0881  0.0075 -0.1425
  269POPC   PO4 3531   4.758   4.937   3.775 -0.1665 -0.2396  0.2685
  269POPC   GL1 3532   4.607   5.078   4.165  0.2192  0.0109  0.2987
  269POPC   GL2 3533   4.683   5.291   4.263  0.4052  0.2544 -0.1194
  269POPC   C1A 3534   4.451   4.994   4.615  0.1051  0.0754 -0.1140
  269POPC   D2A 3535   4.629   4.888   5.054  0.1237 -0.1317  0.1366
  269POPC   C3A 3536   5.066   4.962   5.076 -0.0682 -0.1271 -0.1237
  269POPC   C4A 3537   5.455   5.062   5.297 -0.0988  0.0988 -0.1609
  269POPC   C1B 3538   4.817   5.343   4.771  0.2700  0.0609 -0.0908
  269POPC   C2B 3539   4.807   5.318   5.219 -0.0900 -0.2941 -0.0946
  269POPC   C3B 3540   4.739   5.479   5.628 -0.1545 -0.2041  0.0160
  269POPC   C4B 3541   4.504   5.643   5.912  0.1279  0.2319  0.0994
  270POPC   NC3 3542   9.201   5.078   3.463 -0.0659 -0.0857 -0.0901
  270POPC   PO4 3543   9.639   5.385   3.578 -0.1981  0.0990 -0.0240
  270POPC   GL1 3544   9.568   5.453   3.924  0.0982  0.2047  0.3328
  270POPC   GL2 3545   9.396   5.121   4.032 -0.1236  0.1860  0.3039
  270POPC   C1A 3546   9.862   5.357   4.287 -0.5043  0.2981 -0.1816
  270POPC   D2A 3547   9.648   5.345   4.725 -0.2137  0.0640  0.0465
  270POPC   C3A 3548   9.432   5.501   5.004  0.2845  0.0872 -0.0641
  270POPC   C4A 3549   9.038   5.537   5.254  0.2263  0.2833  0.1015
  270POPC   C1B 3550   9.355   5.014   4.460 -0.0913  0.2534 -0.1870
  270POPC   C2B 3551   9.339   4.805   4.917 -0.1129  0.2953 -0.0648
  270POPC   C3B 3552   9.355   5.103   5.270  0.2209  0.0745  0.0063
  270POPC   C4B 3553   9.732   5.315   5.420 -0.0090 -0.0169  0.1341
  271POPC   NC3 3554   4.638   0.930   3.578 -0.1753 -0.0242 -0.0065
  271POPC   PO4 3555   4.538   1.300   3.773  0.3802 -0.1331  0.0390
  271POPC   GL1 3556   4.727   1.570   4.134 -0.0568 -0.1477  0.2278
  271POPC   GL2 3557   4.798   1.319   4.447  0.1806 -0.1044  0.1770
  271POPC   C1A 3558   4.754   1.930   4.470  0.0721  0.2747  0.1810
  271POPC   D2A 3559   4.459   2.156   4.827 -0.1536  0.0931 -0.1302
  271POPC   C3A 3560   4.304   2.100   5.322 -0.2154  0.4482 -0.0472
  271POPC   C4A 3561   4.372   2.226   5.775  0.2091  0.4386 -0.0391
  271POPC   C1B 3562   5.176   1.260   4.616 -0.1383  0.3284  0.0199
  271POPC   C2B 3563   5.263   1.096   4.921 -0.0382  0.0829 -0.1830
  271POPC   C3B 3564   5.041   0.822   5.184  0.4195  0.0606 -0.2588
  271POPC   C4B 3565   4.727   0.509   5.299  0.1366 -0.1721 -0.0389
  272POPC   NC3 3566   3.783   0.683   4.034 -0.1473 -0.4357 -0.1148
  272POPC   PO4 3567   3.403   0.356   3.939 -0.0505  0.0754 -0.0047
  272POPC   GL1 3568   3.189   0.244   4.351 -0.0196  0.0467 -0.1050
  272POPC   GL2 3569   3.049   0.014   4.419 -0.1302 -0.4288  0.0462
  272POPC   C1A 3570   3.052   0.354   4.742  0.1950  0.1853  0.2255
  272POPC   D2A 3571   2.722   0.511   5.029  0.1615  0.1299 -0.1196
  272POPC   C3A 3572   2.618   0.952   5.161  0.0705  0.0971 -0.1895
  272POPC   C4A 3573   2.747   1.286   5.066 -0.2458 -0.1882  0.1325
  272POPC   C1B 3574   3.276  -0.113   4.773 -0.1028  0.1357 -0.2833
  272POPC   C2B 3575   3.369  -0.367   5.128 -0.1743 -0.1029 -0.0617
  272POPC   C3B 3576   3.322  -0.458   5.558 -0.2970  0.0575  0.1034
  272POPC   C4B 3577   3.461  -0.260   5.876 -0.0642 -0.0161 -0.1668
  273POPC   NC3 3578   4.051   4.243   3.858 -0.0055 -0.0393  0.0207
  273POPC   PO4 3579   4.135   3.788   3.861 -0.2516 -0.1799  0.2234
  273POPC   GL1 3580   3.961   3.671   4.180 -0.1023 -0.0217 -0.0940
  273POPC   GL2 3581   4.082   3.425   4.289 -0.2791 -0.1072  0.0896
  273POPC   C1A 3582   3.538   3.692   4.422  0.2068 -0.2185 -0.1500
  273POPC   D2A 3583   3.121   3.643   4.559 -0.0811 -0.0978  0.1260
  273POPC   C3A 3584   3.132   3.728   5.002 -0.0185 -0.1915  0.3704
  273POPC   C4A 3585   3.293   3.805   5.529  0.0749 -0.2505  0.1392
  273POPC   C1B 3586   4.164   3.145   4.657  0.0361 -0.2025 -0.2470
  273POPC   C2B 3587   4.029   3.098   5.101  0.2376 -0.2322 -0.2298
  273POPC   C3B 3588   4.221   3.227   5.388 -0.1639 -0.0696 -0.0280
  273POPC   C4B 3589   4.555   3.186   5.696  0.2707  0.1692 -0.2538
  274POPC   NC3 3590   3.159   4.591   3.687  0.1227  0.0820 -0.0874
  274POPC   PO4 3591   3.095   4.994   3.469  0.1020  0.3523 -0.4126
  274POPC   GL1 3592   3.142   5.029   3.913 -0.1961 -0.1331 -0.0008
  274POPC   GL2 3593   3.449   4.787   4.089 -0.0927 -0.0032  0.2746
  274POPC   C1A 3594   3.131   5.091   4.331 -0.0182  0.0052  0.0441
  274POPC   D2A 3595   2.771   5.024   4.592  0.0352  0.2034  0.2792
  274POPC   C3A 3596   3.017   5.135   4.908  0.0358 -0.0335 -0.0217
  274POPC   C4A 3597   3.453   5.022   4.951  0.0336  0.0232  0.2061
  274POPC   C1B 3598   3.652   4.559   4.466 -0.1751  0.2264  0.1718
  274POPC   C2B 3599   3.740   4.599   4.883 -0.1310 -0.0332  0.3791
  274POPC   C3B 3600   3.691   4.571   5.359  0.3462  0.0422 -0.1288
  274POPC   C4B 3601   3.449   4.559   5.777 -0.3326  0.0942  0.2468
  275POPC   NC3 3602   5.082   0.832   3.265  0.0901  0.0707  0.1023
  275POPC   PO4 3603   5.140   0.838   3.704 -0.1588  0.1613  0.1173
  275POPC   GL1 3604   5.342   0.997   4.020 -0.0619 -0.3750 -0.4937
  275POPC   GL2 3605   5.646   0.867   4.264  0.0615 -0.2506  0.0087
  275POPC   C1A 3606   5.546   1.352   4.139 -0.0143  0.4017  0.0616
  275POPC   D2A 3607   5.659   1.806   4.251  0.0841 -0.1713  0.1344
  275POPC   C3A 3608   5.516   2.152   4.374  0.1084 -0.2435 -0.1310
  275POPC   C4A 3609   5.645   2.461   4.629 -0.2092 -0.1030 -0.0119
  275POPC   C1B 3610   5.865   1.045   4.650  0.3829 -0.1486 -0.0264
  275POPC   C2B 3611   5.792   0.973   5.106 -0.0400  0.0503  0.1613
  275POPC   C3B 3612   5.612   0.769   5.369 -0.1714  0.0818  0.0332
  275POPC   C4B 3613   5.259   0.848   5.643 -0.1904 -0.1472  0.3277
  276POPC   NC3 3614   1.970   1.864   3.789  0.1696  0.0221  0.0868
  276POPC   PO4 3615   1.853   1.420   3.764 -0.0186 -0.2298 -0.0139
  276POPC   GL1 3616   1.842   1.566   4.236  0.1777 -0.0527 -0.0572
  276POPC   GL2 3617   1.550   1.319   4.275 -0.1977  0.0290 -0.2930
  276POPC   C1A 3618   1.940   1.584   4.532 -0.1710  0.0000  0.0183
  276POPC   D2A 3619   1.991   1.641   4.958 -0.0994 -0.1935  0.0248
  276POPC   C3A 3620   1.897   1.998   5.216  0.2443  0.2126 -0.1871
  276POPC   C4A 3621   1.597   2.124   5.473  0.2139  0.3576  0.0450
  276POPC   C1B 3622   1.353   1.402   4.691 -0.0317  0.1859 -0.0650
  276POPC   C2B 3623   0.982   1.344   4.955 -0.2166 -0.2586 -0.2492
  276POPC   C3B 3624   0.618   1.252   5.238  0.2166  0.2054 -0.0154
  276POPC   C4B 3625   0.483   1.566   5.560  0.1752  0.3473 -0.0876
  277POPC   NC3 3626   4.155   9.691   4.154  0.3660  0.1049  0.0876
  277POPC   PO4 3627   4.501   9.534   4.267  0.1671 -0.2714 -0.0140
  277POPC   GL1 3628   4.477   9.688   4.661 -0.1794  0.0114  0.0010
  277POPC   GL2 3629   4.671  10.060   4.753  0.0581 -0.3257  0.2110
  277POPC   C1A 3630   4.404   9.662   5.063 -0.2001  0.0178 -0.3162
  277POPC   D2A 3631   4.531   9.638   5.513  0.4094  0.1160 -0.0140
  277POPC   C3A 3632   4.484  10.050   5.763  0.2062 -0.0987  0.1331
  277POPC   C4A 3633   4.458  10.162   6.218 -0.1314  0.0606  0.0005
  277POPC   C1B 3634   4.416  10.227   5.076 -0.2245  0.1580  0.1206
  277POPC   C2B 3635   4.306  10.545   5.410 -0.1393 -0.2689  0.2184
  277POPC   C3B 3636   4.209  10.506   5.864  0.0751  0.0325  0.0910
  277POPC   C4B 3637   3.841  10.510   6.144 -0.5428 -0.1962  0.1044
  278POPC   NC3 3638   2.911   2.767   3.302  0.3150  0.2364 -0.0685
  278POPC   PO4 3639   2.800   3.082   3.539 -0.0830  0.0474 -0.2868
  278POPC   GL1 3640   2.638   3.006   3.921 -0.1487 -0.0417  0.1535
  278POPC   GL2 3641   2.589   3.228   4.106 -0.1127 -0.0378 -0.1475
  278POPC   C1A 3642   2.714   2.739   4.262 -0.0320  0.0431  0.2383
  278POPC   D2A 3643   2.663   2.557   4.541  0.0811 -0.1596 -0.1765
  278POPC   C3A 3644   2.662   2.769   4.924 -0.2231 -0.2430  0.1342
  278POPC   C4A 3645   2.549   3.063   5.337  0.1063  0.3826  0.0887
  278POPC   C1B 3646   2.830   3.229   4.575  0.0696  0.1047 -0.1119
  278POPC   C2B 3647   2.975   3.227   4.989  0.0299 -0.0483 -0.0168
  278POPC   C3B 3648   2.812   3.508   5.313 -0.1614 -0.1447 -0.1561
  278POPC   C4B 3649   2.830   3.469   5.750  0.0243  0.0447 -0.2567
  279POPC   NC3 3650  10.116   2.643   3.519  0.2210 -0.2505  0.1044
  279POPC   PO4 3651  10.187   2.491   3.915  0.5211 -0.0465  0.0418
  279POPC   GL1 3652  10.295   2.578   4.433 -0.0523 -0.0620 -0.2146
  279POPC   GL2 3653  10.094   2.348   4.651  0.2385 -0.1497  0.0464
  279POPC   C1A 3654  10.532   2.268   4.777  0.3555  0.0574 -0.0388
  279POPC   D2A 3655  10.788   2.465   5.055 -0.0684  0.2837 -0.2711
  279POPC   C3A 3656  11.143   2.296   4.995 -0.0937  0.0919  0.2389
  279POPC   C4A 3657  11.468   2.415   5.096  0.3822 -0.0976 -0.2657
  279POPC   C1B 3658   9.920   2.316   5.054  0.5386  0.0002 -0.5666
  279POPC   C2B 3659   9.785   2.274   5.432 -0.2822  0.3762  0.1246
  279POPC   C3B 3660   9.704   2.376   5.799  0.3858 -0.1332  0.0398
  279POPC   C4B 3661   9.451   2.629   5.939  0.0505 -0.2027  0.0100
  280POPC   NC3 3662  10.117   7.936   3.359 -0.0372  0.2428  0.2737
  280POPC   PO4 3663  10.146   7.580   3.362  0.0782  0.0508 -0.4896
  280POPC   GL1 3664  10.453   7.696   3.731 -0.1461  0.0980  0.3617
  280POPC   GL2 3665  10.251   7.919   3.864 -0.0208 -0.0548  0.1649
  280POPC   C1A 3666  10.688   7.811   4.107 -0.0273 -0.0410  0.1803
  280POPC   D2A 3667  10.801   8.110   4.432 -0.0224 -0.0317 -0.2147
  280POPC   C3A 3668  10.805   8.011   4.938 -0.0068  0.0169 -0.4404
  280POPC   C4A 3669  10.978   8.067   5.334 -0.3938  0.3319 -0.0838
  280POPC   C1B 3670  10.222   7.850   4.324  0.0095 -0.0597 -0.2665
  280POPC   C2B 3671  10.349   7.798   4.721 -0.1323  0.0480 -0.0513
  280POPC   C3B 3672  10.295   7.609   5.050 -0.3470  0.1328  0.1112
  280POPC   C4B 3673  10.372   7.522   5.466  0.0563  0.2436  0.0297
  281POPC   NC3 3674   3.729   0.006   3.885  0.0053 -0.0119  0.2372
  281POPC   PO4 3675   4.009   0.310   3.763  0.1582 -0.0229  0.1812
  281POPC   GL1 3676   3.963   0.305   4.223 -0.0370 -0.3040  0.0822
  281POPC   GL2 3677   3.636   0.383   4.329  0.5039  0.1040  0.3553
  281POPC   C1A 3678   4.129   0.424   4.567 -0.0995 -0.1049  0.0632
  281POPC   D2A 3679   4.483   0.404   4.845 -0.0000  0.2431  0.0320
  281POPC   C3A 3680   4.663  -0.027   4.965  0.0336 -0.0734 -0.2383
  281POPC   C4A 3681   5.053  -0.214   5.006  0.0513  0.0382 -0.0276
  281POPC   C1B 3682   3.678   0.256   4.684  0.2149 -0.2328 -0.0393
  281POPC   C2B 3683   3.519   0.289   5.062 -0.0455 -0.2639 -0.0673
  281POPC   C3B 3684   3.595   0.532   5.370  0.0577  0.0033  0.1299
  281POPC   C4B 3685   3.993   0.812   5.557 -0.0835 -0.2758  0.0262
  282POPC   NC3 3686   7.421   3.067   3.143  0.0892  0.0445 -0.1182
  282POPC   PO4 3687   6.989   3.101   3.539 -0.2201 -0.1858  0.2439
  282POPC   GL1 3688   7.079   3.112   3.900 -0.1437  0.1217  0.2040
  282POPC   GL2 3689   7.196   3.411   4.007  0.1828  0.0317  0.1783
  282POPC   C1A 3690   7.505   2.999   4.160 -0.0010  0.0935 -0.2524
  282POPC   D2A 3691   7.956   3.002   4.395 -0.2922 -0.0141  0.2005
  282POPC   C3A 3692   8.006   3.074   4.846 -0.0120 -0.3805 -0.1016
  282POPC   C4A 3693   8.213   3.036   5.148 -0.1374  0.1906 -0.5581
  282POPC   C1B 3694   7.127   3.577   4.376 -0.0871  0.1184 -0.1014
  282POPC   C2B 3695   7.194   3.667   4.770 -0.1112  0.1918 -0.1145
  282POPC   C3B 3696   6.985   3.870   5.177  0.0226 -0.0471  0.1583
  282POPC   C4B 3697   6.908   4.330   5.441 -0.2292  0.1738 -0.3138
  283POPC   NC3 3698   2.630   5.698   3.919  0.1789  0.1834 -0.0101
  283POPC   PO4 3699   3.016   5.583   3.558 -0.1949  0.2257 -0.0110
  283POPC   GL1 3700   3.104   5.512   4.055  0.1000 -0.0132 -0.0842
  283POPC   GL2 3701   3.393   5.563   4.294 -0.2909 -0.0405 -0.1060
  283POPC   C1A 3702   2.974   5.622   4.477  0.0125  0.2747 -0.1135
  283POPC   D2A 3703   2.876   5.732   4.878  0.0477 -0.0145 -0.2237
  283POPC   C3A 3704   2.849   5.560   5.220  0.1385 -0.1162  0.1389
  283POPC   C4A 3705   2.683   5.103   5.277  0.1792  0.0529  0.1486
  283POPC   C1B 3706   3.386   5.596   4.749  0.1906  0.1158 -0.1154
  283POPC   C2B 3707   3.379   5.537   5.121 -0.1418  0.0990 -0.2717
  283POPC   C3B 3708   3.228   5.245   5.396  0.0324  0.1244 -0.1952
  283POPC   C4B 3709   2.861   5.306   5.699 -0.3169 -0.1103 -0.1659
  284POPC   NC3 3710   8.964   4.230   3.978 -0.2467  0.1125 -0.1630
  284POPC   PO4 3711   8.585   4.122   3.832 -0.1794  0.0516  0.1339
  284POPC   GL1 3712   8.577   4.396   4.233  0.2354 -0.0069  0.2174
  284POPC   GL2 3713   8.684   4.747   4.228 -0.0902 -0.2727 -0.0369
  284POPC   C1A 3714   8.379   4.478   4.630 -0.1455 -0.1628  0.0881
  284POPC   D2A 3715   8.162   4.420   5.004  0.3033  0.5212 -0.2823
  284POPC   C3A 3716   7.988   4.031   5.028 -0.2096 -0.2048  0.1616
  284POPC   C4A 3717   7.865   3.797   5.452  0.4106  0.2862  0.2930
  284POPC   C1B 3718   8.910   4.719   4.642 -0.3070  0.0594  0.0928
  284POPC   C2B 3719   8.775   4.554   5.054 -0.1513 -0.1816 -0.1191
  284POPC   C3B 3720   8.658   4.121   5.188 -0.0921  0.1551  0.2406
  284POPC   C4B 3721   8.328   4.042   5.417  0.0619 -0.0990 -0.1766
  285POPC   NC3 3722   5.948   9.734   3.528  0.0223 -0.0671 -0.1816
  285POPC   PO4 3723   6.094   9.353   3.833 -0.1915 -0.0277  0.0386
  285POPC   GL1 3724   5.954   9.189   4.268 -0.0838  0.0445  0.3545
  285POPC   GL2 3725   5.706   8.936   4.269 -0.0275  0.3189 -0.0801
  285POPC   C1A 3726   6.150   9.122   4.701 -0.0532  0.1451  0.0541
  285POPC   D2A 3727   6.361   9.009   5.100 -0.2150 -0.5907  0.1401
  285POPC   C3A 3728   6.301   8.734   5.470 -0.2831  0.1988  0.2579
  285POPC   C4A 3729   6.139   8.882   5.926 -0.0872  0.0373  0.3867
  285POPC   C1B 3730   5.628   8.977   4.709 -0.1832  0.1611 -0.2767
  285POPC   C2B 3731   5.335   9.306   5.058 -0.1194 -0.1032  0.2890
  285POPC   C3B 3732   5.297   9.266   5.388  0.0194  0.1095 -0.1983
  285POPC   C4B 3733   5.323   9.347   5.831  0.0230  0.0272  0.0791
  286POPC   NC3 3734   1.181   3.259   3.667 -0.1375  0.2141 -0.0109
  286POPC   PO4 3735   1.572   3.334   3.625  0.2535 -0.3846  0.1000
  286POPC   GL1 3736   1.493   3.577   3.997  0.1519 -0.0750 -0.4795
  286POPC   GL2 3737   1.236   3.769   4.072  0.1998 -0.2204 -0.0906
  286POPC   C1A 3738   1.677   3.577   4.359  0.1582 -0.2808  0.0393
  286POPC   D2A 3739   1.713   3.884   4.685  0.2182 -0.0437 -0.4231
  286POPC   C3A 3740   1.996   3.930   5.059 -0.0802  0.0030  0.0018
  286POPC   C4A 3741   1.962   4.256   5.502  0.0171  0.0523  0.0619
  286POPC   C1B 3742   1.215   3.954   4.495  0.0051  0.1108 -0.2802
  286POPC   C2B 3743   1.244   3.897   4.901 -0.1469  0.0515 -0.2147
  286POPC   C3B 3744   1.524   3.720   5.222 -0.0071 -0.3699 -0.1343
  286POPC   C4B 3745   1.643   3.878   5.556  0.0658  0.0201  0.3349
  287POPC   NC3 3746   0.804   7.203   3.342 -0.2216 -0.4085 -0.1481
  287POPC   PO4 3747   0.811   6.948   3.625 -0.0126 -0.2044 -0.0283
  287POPC   GL1 3748   0.749   6.919   4.029  0.1714  0.0567  0.1150
  287POPC   GL2 3749   0.489   6.687   4.121 -0.7487 -0.2821  0.2396
  287POPC   C1A 3750   0.764   7.033   4.393  0.2367 -0.1373  0.0399
  287POPC   D2A 3751   0.695   7.023   5.001 -0.4593  0.2745  0.3356
  287POPC   C3A 3752   0.600   7.319   5.284 -0.1129  0.0205  0.0184
  287POPC   C4A 3753   0.589   7.528   5.591  0.2003 -0.4841 -0.0378
  287POPC   C1B 3754   0.458   6.563   4.481  0.2920 -0.1114 -0.3954
  287POPC   C2B 3755   0.621   6.559   4.848  0.1425  0.0520  0.0701
  287POPC   C3B 3756   0.923   6.590   5.200  0.0966 -0.1725  0.0190
  287POPC   C4B 3757   1.346   6.482   5.360  0.1600 -0.3006 -0.0399
  288POPC   NC3 3758   3.706   5.215   4.010 -0.2213 -0.0771  0.2186
  288POPC   PO4 3759   4.113   5.262   4.113  0.0575 -0.2818 -0.0655
  288POPC   GL1 3760   4.155   5.497   4.469  0.1751  0.0755  0.0987
  288POPC   GL2 3761   3.849   5.617   4.494 -0.1038  0.2431  0.1582
  288POPC   C1A 3762   4.362   5.380   4.878  0.1553  0.2395  0.1843
  288POPC   D2A 3763   4.315   5.339   5.309 -0.2684  0.2246 -0.0948
  288POPC   C3A 3764   4.531   5.045   5.549  0.0009 -0.0328  0.0452
  288POPC   C4A 3765   4.802   4.645   5.445  0.0914  0.0861  0.2481
  288POPC   C1B 3766   3.902   5.777   4.905  0.1835  0.0709 -0.1142
  288POPC   C2B 3767   3.849   5.488   5.196 -0.2447 -0.0757 -0.0304
  288POPC   C3B 3768   3.718   5.166   5.372  0.0396 -0.2377 -0.0729
  288POPC   C4B 3769   3.824   4.889   5.684  0.0890 -0.2703 -0.5664
  289POPC   NC3 3770   7.037   5.830   3.563 -0.4481 -0.1694  0.2381
  289POPC   PO4 3771   6.638   6.051   3.652 -0.0319 -0.0323  0.0284
  289POPC   GL1 3772   6.967   5.974   4.005  0.0437 -0.0382  0.1988
  289POPC   GL2 3773   6.740   6.011   4.153 -0.0209  0.3229  0.0902
  289POPC   C1A 3774   7.266   6.062   4.331 -0.1522  0.1366  0.0659
  289POPC   D2A 3775   7.375   6.371   4.590 -0.1490 -0.0263 -0.0503
  289POPC   C3A 3776   7.724   6.645   4.551  0.4966 -0.0529 -0.1782
  289POPC   C4A 3777   7.955   6.726   4.797  0.0658  0.0256 -0.1509
  289POPC   C1B 3778   6.568   5.923   4.561  0.1890 -0.1363  0.0857
  289POPC   C2B 3779   6.703   5.617   4.929 -0.2057 -0.0758 -0.1931
  289POPC   C3B 3780   6.628   5.432   5.224  0.0224 -0.2964 -0.1830
  289POPC   C4B 3781   6.197   5.218   5.406 -0.0910  0.3184  0.0882
  290POPC   NC3 3782   8.275   5.962   3.685 -0.1510 -0.0066  0.0632
  290POPC   PO4 3783   7.897   5.794   3.718  0.1780 -0.2612  0.1167
  290POPC   GL1 3784   7.991   5.554   4.020  0.0382  0.0722 -0.2437
  290POPC   GL2 3785   7.835   5.193   3.952 -0.0126  0.4610 -0.0554
  290POPC   C1A 3786   7.730   5.745   4.447 -0.0326  0.0454 -0.1613
  290POPC   D2A 3787   7.535   5.802   4.787  0.1006 -0.0857 -0.2330
  290POPC   C3A 3788   7.696   5.736   5.130  0.1562 -0.0253  0.2711
  290POPC   C4A 3789   7.808   5.376   5.386  0.0491  0.0133  0.1113
  290POPC   C1B 3790   7.741   5.143   4.323  0.2188 -0.0705  0.1830
  290POPC   C2B 3791   7.451   4.932   4.378  0.0174 -0.1918  0.0008
  290POPC   C3B 3792   7.284   4.914   4.739  0.2781  0.1391  0.3052
  290POPC   C4B 3793   7.132   4.633   5.101  0.0679 -0.1478 -0.0833
  291POPC   NC3 3794   5.762   1.781   3.749 -0.0182 -0.3295  0.2601
  291POPC   PO4 3795   5.984   1.872   3.355 -0.0858  0.0745 -0.0239
  291POPC   GL1 3796   6.005   2.169   3.676 -0.2894 -0.1252  0.0779
  291POPC   GL2 3797   5.778   2.242   3.853  0.1400 -0.3913  0.2061
  291POPC   C1A 3798   6.220   2.313   4.142 -0.1794 -0.2510  0.3096
  291POPC   D2A 3799   6.363   2.521   4.477 -0.1294  0.1818 -0.1080
  291POPC   C3A 3800   6.800   2.572   4.411 -0.1557 -0.2498  0.0943
  291POPC   C4A 3801   7.225   2.648   4.449  0.0424 -0.2170 -0.0283
  291POPC   C1B 3802   5.743   2.608   4.166  0.1984  0.3269 -0.0769
  291POPC   C2B 3803   5.496   2.941   4.354 -0.2334  0.4073  0.0594
  291POPC   C3B 3804   5.459   3.276   4.589 -0.1081 -0.1298  0.2314
  291POPC   C4B 3805   5.462   3.467   4.944 -0.0365  0.0346  0.2669
  292POPC   NC3 3806   6.049   8.538   3.037 -0.0945 -0.2552 -0.2543
  292POPC   PO4 3807   6.199   8.313   3.467  0.0375  0.1634 -0.0504
  292POPC   GL1 3808   6.293   8.091   3.922  0.0345  0.2313  0.1712
  292POPC   GL2 3809   6.236   7.779   4.012  0.1583 -0.1635  0.1240
  292POPC   C1A 3810   6.280   8.133   4.419  0.5045  0.1040 -0.1754
  292POPC   D2A 3811   6.485   8.409   4.820 -0.1826  0.0735 -0.1930
  292POPC   C3A 3812   6.536   8.341   5.195  0.0913 -0.0921 -0.1664
  292POPC   C4A 3813   6.604   8.107   5.461  0.2080 -0.0207 -0.1228
  292POPC   C1B 3814   6.439   7.668   4.440  0.0766 -0.1820 -0.0735
  292POPC   C2B 3815   6.565   7.422   4.718 -0.2893 -0.1300 -0.1278
  292POPC   C3B 3816   6.288   7.397   5.053  0.1536  0.0440  0.1034
  292POPC   C4B 3817   6.356   7.636   5.327 -0.1938  0.3649 -0.1120
  293POPC   NC3 3818   3.620  10.447   3.465  0.0084 -0.2210 -0.0039
  293POPC   PO4 3819   3.395  10.097   3.804  0.5918 -0.1421 -0.0192
  293POPC   GL1 3820   3.321  10.161   4.151  0.2567  0.0186 -0.0117
  293POPC   GL2 3821   3.043  10.189   4.398 -0.2408  0.1061  0.0298
  293POPC   C1A 3822   3.662  10.056   4.514  0.1543  0.0368  0.1220
  293POPC   D2A 3823   3.655   9.942   4.952 -0.2645 -0.0345  0.2606
  293POPC   C3A 3824   4.026   9.956   5.259  0.2740  0.0237 -0.0906
  293POPC   C4A 3825   4.090   9.727   5.586 -0.1237  0.1617  0.0524
  293POPC   C1B 3826   3.187   9.972   4.763  0.0454  0.0163  0.0777
  293POPC   C2B 3827   3.147   9.802   5.226 -0.0775  0.2615 -0.0611
  293POPC   C3B 3828   3.059   9.771   5.665  0.0412 -0.1990 -0.3016
  293POPC   C4B 3829   2.970  10.161   5.904  0.0834 -0.5135  0.0936
  294POPC   NC3 3830   2.377   3.713   3.301 -0.0418 -0.1396  0.1695
  294POPC   PO4 3831   2.189   3.907   3.734 -0.2596 -0.0206  0.1746
  294POPC   GL1 3832   2.405   3.878   4.140 -0.1725 -0.1551  0.2165
  294POPC   GL2 3833   2.421   3.683   4.259 -0.0221 -0.2184 -0.2088
  294POPC   C1A 3834   2.547   3.973   4.616  0.0970  0.1888 -0.1768
  294POPC   D2A 3835   2.597   3.755   4.923  0.0580 -0.0853 -0.5988
  294POPC   C3A 3836   2.313   3.528   5.217 -0.0099  0.1592  0.1310
  294POPC   C4A 3837   2.088   3.438   5.485  0.0383  0.0082  0.0514
  294POPC   C1B 3838   2.129   3.472   4.533  0.0781  0.1974 -0.2293
  294POPC   C2B 3839   1.901   3.188   4.499  0.0154 -0.0186 -0.3450
  294POPC   C3B 3840   1.576   2.972   4.763 -0.0001 -0.0593  0.3688
  294POPC   C4B 3841   1.514   2.871   5.157  0.2562  0.0373 -0.2839
  295POPC   NC3 3842   7.875   8.082   3.524  0.1591 -0.1811 -0.3383
  295POPC   PO4 3843   7.421   8.227   3.520  0.1975  0.0732  0.1479
  295POPC   GL1 3844   7.199   8.051   3.797  0.2388  0.1641  0.0736
  295POPC   GL2 3845   7.238   7.724   3.859  0.1814 -0.4494  0.0619
  295POPC   C1A 3846   7.215   8.064   4.200 -0.0873 -0.2316 -0.0939
  295POPC   D2A 3847   7.632   8.185   4.444  0.3548  0.1671 -0.0353
  295POPC   C3A 3848   7.826   8.060   4.711 -0.2355 -0.0248  0.3115
  295POPC   C4A 3849   7.921   8.162   5.203 -0.0794  0.1765  0.1514
  295POPC   C1B 3850   7.306   7.433   4.240  0.0658 -0.0990  0.3984
  295POPC   C2B 3851   7.077   7.310   4.575  0.3622  0.3069 -0.1674
  295POPC   C3B 3852   6.735   6.950   4.699  0.0091 -0.0708  0.1130
  295POPC   C4B 3853   6.594   6.752   5.087 -0.0279 -0.1768 -0.2588
  296POPC   NC3 3854  10.002   8.818   3.678  0.1933  0.3333  0.2133
  296POPC   PO4 3855   9.855   9.268   3.638 -0.0489 -0.0313 -0.1201
  296POPC   GL1 3856   9.789   9.064   4.050 -0.1658  0.1483  0.0086
  296POPC   GL2 3857   9.416   9.205   4.155  0.3090 -0.0790 -0.2675
  296POPC   C1A 3858   9.714   9.079   4.559  0.0429  0.0790  0.0540
  296POPC   D2A 3859   9.705   8.701   4.829 -0.1213 -0.0921  0.5524
  296POPC   C3A 3860   9.784   8.687   5.296  0.0315  0.0846 -0.1103
  296POPC   C4A 3861   9.890   8.918   5.577 -0.1292 -0.0358  0.0857
  296POPC   C1B 3862   9.405   9.532   4.423  0.2724 -0.2268 -0.0272
  296POPC   C2B 3863   9.043   9.618   4.649 -0.2076 -0.1595  0.0160
  296POPC   C3B 3864   8.616   9.688   4.819  0.0751 -0.2192 -0.2967
  296POPC   C4B 3865   8.343   9.440   5.004  0.2005 -0.1104 -0.0246
  297POPC   NC3 3866   1.009   4.325   3.919 -0.3153  0.1506  0.1126
  297POPC   PO4 3867   0.896   4.729   3.830  0.0732 -0.3633  0.0141
  297POPC   GL1 3868   0.996   4.722   4.246  0.0298 -0.0402  0.1454
  297POPC   GL2 3869   1.172   4.498   4.418 -0.0570 -0.0138  0.2523
  297POPC   C1A 3870   0.793   4.753   4.675 -0.2097 -0.2787  0.1158
  297POPC   D2A 3871   0.952   4.766   5.112 -0.0066 -0.3351  0.0682
  297POPC   C3A 3872   0.722   4.438   5.416  0.0091 -0.0477  0.0120
  297POPC   C4A 3873   0.351   4.154   5.367 -0.1032 -0.4199 -0.0723
  297POPC   C1B 3874   1.392   4.689   4.739 -0.2252  0.0073 -0.1140
  297POPC   C2B 3875   1.431   4.890   5.090 -0.1156 -0.2307  0.4233
  297POPC   C3B 3876   1.673   5.001   5.357 -0.2379 -0.3940  0.0714
  297POPC   C4B 3877   1.821   5.167   5.765 -0.1252 -0.3288  0.0361
  298POPC   NC3 3878   2.724   8.082   3.404  0.0224 -0.1294 -0.2320
  298POPC   PO4 3879   2.910   8.311   3.742  0.2213 -0.1152  0.0893
  298POPC   GL1 3880   2.774   8.236   4.130 -0.1471 -0.0994  0.2639
  298POPC   GL2 3881   2.790   8.492   4.344 -0.0604  0.0903 -0.1140
  298POPC   C1A 3882   2.855   7.921   4.477 -0.2570  0.2888 -0.0026
  298POPC   D2A 3883   2.691   7.512   4.586  0.3017 -0.0321  0.0868
  298POPC   C3A 3884   2.568   7.238   4.900 -0.3971  0.0507  0.1490
  298POPC   C4A 3885   2.213   7.039   5.095 -0.3046 -0.1907 -0.1514
  298POPC   C1B 3886   2.740   8.337   4.746 -0.0771  0.2105  0.1087
  298POPC   C2B 3887   2.730   8.024   5.044 -0.2769 -0.1083 -0.1018
  298POPC   C3B 3888   2.724   7.938   5.468  0.0220 -0.3109 -0.0422
  298POPC   C4B 3889   2.708   8.060   5.955  0.0238 -0.1934 -0.1918
  299POPC   NC3 3890   2.471   7.112   3.486 -0.1054 -0.0329 -0.1496
  299POPC   PO4 3891   2.737   7.403   3.641 -0.2470  0.0593 -0.1085
  299POPC   GL1 3892   2.697   7.263   4.098 -0.0757  0.2403  0.0421
  299POPC   GL2 3893   3.064   7.345   4.352  0.0142  0.0082  0.0865
  299POPC   C1A 3894   2.582   7.000   4.489  0.0502  0.2713 -0.0664
  299POPC   D2A 3895   2.626   6.744   4.922 -0.3126  0.1373 -0.1370
  299POPC   C3A 3896   2.761   6.241   4.945 -0.0898 -0.0453  0.3643
  299POPC   C4A 3897   2.795   6.074   5.305  0.1579 -0.2353 -0.3197
  299POPC   C1B 3898   3.014   7.188   4.658 -0.2443 -0.2739 -0.1187
  299POPC   C2B 3899   3.023   6.973   5.009  0.2061 -0.0725 -0.0120
  299POPC   C3B 3900   3.109   7.181   5.328  0.3640  0.1005 -0.0102
  299POPC   C4B 3901   3.029   7.526   5.757  0.0523 -0.1811  0.0884
  300POPC   NC3 3902   3.830   1.645   4.097  0.2125 -0.2999 -0.3098
  300POPC   PO4 3903   3.778   1.160   4.150 -0.1035  0.1950  0.3172
  300POPC   GL1 3904   3.889   1.267   4.566 -0.0516  0.4170 -0.0377
  300POPC   GL2 3905   3.838   0.830   4.534 -0.2493 -0.4874  0.2441
  300POPC   C1A 3906   3.995   1.222   4.971 -0.1211  0.0208  0.0077
  300POPC   D2A 3907   3.605   0.968   5.164 -0.3288 -0.3758 -0.0160
  300POPC   C3A 3908   3.336   0.984   5.559 -0.1420  0.0793  0.0621
  300POPC   C4A 3909   2.922   1.007   5.569  0.0345 -0.0168 -0.1705
  300POPC   C1B 3910   3.891   0.679   4.911  0.0293  0.2250  0.3048
  300POPC   C2B 3911   4.097   0.388   5.245 -0.0651 -0.3306 -0.1394
  300POPC   C3B 3912   4.435   0.292   5.610  0.0600  0.0451 -0.0923
  300POPC   C4B 3913   4.921   0.414   5.826  0.3352  0.2718  0.0913
  301POPC   NC3 3914   8.689   8.684   3.428  0.1405  0.0870 -0.0163
  301POPC   PO4 3915   8.349   8.398   3.625  0.0697  0.3715  0.1595
  301POPC   GL1 3916   8.435   8.246   3.907 -0.1951 -0.1102  0.1371
  301POPC   GL2 3917   8.752   8.145   4.189  0.3663  0.1512  0.0103
  301POPC   C1A 3918   8.193   8.137   4.264  0.0818  0.3070  0.1723
  301POPC   D2A 3919   8.332   8.204   4.663 -0.1780  0.0369  0.1699
  301POPC   C3A 3920   8.252   8.488   5.006 -0.0271 -0.1288  0.3550
  301POPC   C4A 3921   8.268   8.909   5.038  0.0243 -0.1959 -0.2145
  301POPC   C1B 3922   8.846   8.163   4.546 -0.5014  0.0950  0.0774
  301POPC   C2B 3923   8.939   8.083   4.960  0.0695  0.3219  0.1785
  301POPC   C3B 3924   8.915   8.310   5.274  0.1130 -0.1853 -0.2664
  301POPC   C4B 3925   8.927   8.494   5.739  0.3796  0.1614  0.0507
  302POPC   NC3 3926   1.088   2.069   3.869 -0.1005  0.0979  0.0924
  302POPC   PO4 3927   1.436   2.260   3.702  0.0658  0.3377 -0.2390
  302POPC   GL1 3928   1.647   2.596   4.024 -0.2199  0.1334 -0.2064
  302POPC   GL2 3929   1.570   2.311   4.243 -0.0768 -0.0128 -0.2734
  302POPC   C1A 3930   1.983   2.605   4.374 -0.0457  0.2663 -0.1017
  302POPC   D2A 3931   2.186   2.662   4.840 -0.0176 -0.1849  0.0712
  302POPC   C3A 3932   1.996   3.036   5.093 -0.1240  0.1752  0.1236
  302POPC   C4A 3933   1.824   3.439   4.990  0.2448  0.2184 -0.1127
  302POPC   C1B 3934   1.509   1.906   4.493  0.1331 -0.1169  0.2115
  302POPC   C2B 3935   1.553   1.872   4.857  0.3345 -0.4507 -0.0352
  302POPC   C3B 3936   1.494   1.625   5.234  0.0058 -0.0062 -0.2622
  302POPC   C4B 3937   1.890   1.558   5.471 -0.4697  0.1267 -0.0027
  303POPC   NC3 3938   4.488   8.605   3.418 -0.2437  0.0984 -0.2309
  303POPC   PO4 3939   4.317   8.226   3.561 -0.0410 -0.0132 -0.2097
  303POPC   GL1 3940   4.424   8.373   3.947 -0.3383  0.3999  0.1229
  303POPC   GL2 3941   4.304   8.647   3.975 -0.3403 -0.1930  0.3159
  303POPC   C1A 3942   4.631   8.398   4.333 -0.2362  0.2620 -0.2821
  303POPC   D2A 3943   4.838   8.681   4.601  0.2184 -0.2447  0.0815
  303POPC   C3A 3944   4.923   8.974   4.941 -0.1251  0.2694 -0.3149
  303POPC   C4A 3945   4.846   9.422   5.123  0.2986 -0.0755  0.1199
  303POPC   C1B 3946   4.176   8.480   4.343 -0.0176 -0.1001 -0.0769
  303POPC   C2B 3947   4.130   8.282   4.765 -0.3491 -0.1916 -0.3799
  303POPC   C3B 3948   4.115   8.378   5.200  0.1255  0.1913 -0.0431
  303POPC   C4B 3949   3.802   8.395   5.494 -0.2032  0.2849  0.1922
  304POPC   NC3 3950   4.444   0.310   3.952  0.2917 -0.2216 -0.1006
  304POPC   PO4 3951   4.777   0.483   3.815  0.1607 -0.1056 -0.2845
  304POPC   GL1 3952   4.741   0.514   4.299 -0.1081  0.3575  0.1191
  304POPC   GL2 3953   4.868   0.259   4.560 -0.0106 -0.1025 -0.1328
  304POPC   C1A 3954   4.813   0.783   4.675  0.0494  0.5189 -0.3349
  304POPC   D2A 3955   4.792   1.152   4.948  0.1102  0.2526  0.0981
  304POPC   C3A 3956   4.792   1.554   4.912 -0.3454 -0.2392  0.0287
  304POPC   C4A 3957   4.933   2.027   4.958 -0.2420  0.2997  0.1167
  304POPC   C1B 3958   5.071   0.334   4.981 -0.0939  0.3188  0.0579
  304POPC   C2B 3959   5.232   0.367   5.424  0.2206 -0.0058  0.2809
  304POPC   C3B 3960   5.355  -0.081   5.621  0.2102 -0.0764  0.1743
  304POPC   C4B 3961   5.449  -0.566   5.731 -0.1119 -0.1303 -0.1320
  305POPC   NC3 3962   2.539   4.705   3.606  0.2171 -0.0224  0.3678
  305POPC   PO4 3963   2.737   4.660   3.982  0.0497  0.2520 -0.1527
  305POPC   GL1 3964   3.015   4.608   4.320 -0.0054  0.2070 -0.1089
  305POPC   GL2 3965   3.028   4.201   4.495  0.0907  0.1123  0.1188
  305POPC   C1A 3966   3.114   4.676   4.723 -0.0976 -0.0499  0.2347
  305POPC   D2A 3967   3.269   4.552   5.100 -0.0598 -0.0115  0.2311
  305POPC   C3A 3968   3.124   4.758   5.385 -0.2433 -0.0128 -0.2577
  305POPC   C4A 3969   2.967   4.753   5.818  0.1469 -0.1534 -0.0600
  305POPC   C1B 3970   2.952   4.202   4.890  0.0948  0.1989 -0.0547
  305POPC   C2B 3971   2.963   4.223   5.322 -0.1008  0.1011  0.0769
  305POPC   C3B 3972   3.016   4.209   5.776  0.1019  0.2006  0.0845
  305POPC   C4B 3973   3.068   3.867   6.062  0.0857  0.1766 -0.0163
  306POPC   NC3 3974   2.587   9.136   3.718 -0.1031  0.1138 -0.0889
  306POPC   PO4 3975   2.720   9.539   3.894 -0.0733  0.1977  0.3376
  306POPC   GL1 3976   2.493   9.330   4.144 -0.0330  0.0164 -0.1482
  306POPC   GL2 3977   2.171   9.401   4.181  0.1498  0.1718 -0.1475
  306POPC   C1A 3978   2.427   9.367   4.626 -0.1654  0.0753 -0.3431
  306POPC   D2A 3979   2.451   9.215   4.972  0.0729 -0.1803  0.0340
  306POPC   C3A 3980   2.566   8.943   5.333  0.1767 -0.0166 -0.0759
  306POPC   C4A 3981   2.193   8.773   5.435  0.1574 -0.0572 -0.0431
  306POPC   C1B 3982   1.942   9.241   4.524 -0.0793 -0.2653 -0.0524
  306POPC   C2B 3983   2.018   8.915   4.728 -0.2914  0.1319  0.1089
  306POPC   C3B 3984   2.357   8.653   4.815 -0.0616  0.1338  0.0946
  306POPC   C4B 3985   2.318   8.393   5.105  0.1980 -0.1977 -0.1125
  307POPC   NC3 3986   5.723   7.026   3.885 -0.0727  0.2354  0.1404
  307POPC   PO4 3987   5.690   7.517   3.652  0.1695 -0.0550 -0.1813
  307POPC   GL1 3988   5.820   7.535   4.052 -0.0991  0.0241  0.1471
  307POPC   GL2 3989   5.861   7.329   4.210  0.3496  0.1375 -0.4212
  307POPC   C1A 3990   5.842   7.827   4.352 -0.0881 -0.0763  0.1029
  307POPC   D2A 3991   6.074   7.804   4.770 -0.2552  0.1824 -0.1427
  307POPC   C3A 3992   6.080   8.160   5.068  0.2187 -0.1515  0.2036
  307POPC   C4A 3993   6.041   8.194   5.486 -0.1375 -0.0821  0.0932
  307POPC   C1B 3994   5.980   7.373   4.643  0.0994  0.2513 -0.1879
  307POPC   C2B 3995   5.815   7.192   4.977  0.2378  0.1906 -0.0480
  307POPC   C3B 3996   6.123   6.946   5.274 -0.1043  0.0170  0.0643
  307POPC   C4B 3997   6.134   6.453   5.335 -0.0736 -0.2942  0.0439
  308POPC   NC3 3998   3.188   7.326   3.833 -0.0818 -0.0116 -0.0870
  308POPC   PO4 3999   3.275   6.854   3.703 -0.0541  0.2117  0.2573
  308POPC   GL1 4000   3.279   6.879   4.099 -0.3775 -0.1793  0.1307
  308POPC   GL2 4001   3.006   6.877   4.309  0.1389 -0.0471  0.3137
  308POPC   C1A 4002   3.474   7.099   4.479  0.1182  0.0210 -0.0032
  308POPC   D2A 4003   3.494   7.078   4.908  0.0820  0.0719 -0.1636
  308POPC   C3A 4004   3.890   7.107   5.054  0.1753 -0.1062 -0.0303
  308POPC   C4A 4005   4.150   6.873   5.363 -0.4095 -0.2222 -0.1127
  308POPC   C1B 4006   3.206   6.690   4.589 -0.1941 -0.0815  0.0093
  308POPC   C2B 4007   3.280   6.551   5.039  0.1184 -0.1406 -0.0454
  308POPC   C3B 4008   2.873   6.588   5.380 -0.2917  0.0724  0.1900
  308POPC   C4B 4009   2.586   6.991   5.398  0.2968 -0.0341  0.1755
  309POPC   NC3 4010   1.289   5.756   3.750 -0.2608 -0.2307 -0.2827
  309POPC   PO4 4011   1.627   5.772   3.429  0.2493 -0.0967  0.0853
  309POPC   GL1 4012   1.796   5.748   3.904 -0.2401  0.0849 -0.1190
  309POPC   GL2 4013   1.577   5.892   4.137  0.0866 -0.0500 -0.0365
  309POPC   C1A 4014   2.093   5.922   4.285  0.1577  0.1284 -0.1191
  309POPC   D2A 4015   2.021   5.817   4.628  0.1029  0.0547 -0.1830
  309POPC   C3A 4016   1.649   5.884   4.903  0.3874 -0.2636  0.1771
  309POPC   C4A 4017   1.269   5.787   5.048 -0.0975 -0.0117  0.0408
  309POPC   C1B 4018   1.538   5.615   4.453  0.1483 -0.1777 -0.1647
  309POPC   C2B 4019   1.502   5.364   4.856  0.2810  0.0973  0.2325
  309POPC   C3B 4020   1.254   5.327   5.294  0.2298  0.2386  0.1397
  309POPC   C4B 4021   0.865   5.410   5.443 -0.2050  0.0654 -0.2246
  310POPC   NC3 4022  10.394  10.122   3.807 -0.1663 -0.0555 -0.0776
  310POPC   PO4 4023  10.182  10.469   3.895 -0.0868 -0.1292  0.0634
  310POPC   GL1 4024  10.149  10.318   4.290 -0.2448  0.1687 -0.0362
  310POPC   GL2 4025  10.420  10.420   4.439  0.0744  0.1747 -0.1169
  310POPC   C1A 4026   9.910  10.296   4.656 -0.2599  0.2390  0.1442
  310POPC   D2A 4027   9.690  10.081   5.121 -0.1466  0.2743  0.1635
  310POPC   C3A 4028   9.900  10.028   5.516 -0.1261 -0.1484  0.2481
  310POPC   C4A 4029  10.047  10.158   5.915 -0.0232 -0.2391 -0.0029
  310POPC   C1B 4030  10.664  10.394   4.803 -0.3594  0.1964  0.1339
  310POPC   C2B 4031  10.586  10.071   5.056  0.0036 -0.4156 -0.0796
  310POPC   C3B 4032  10.394   9.737   5.269 -0.0030  0.0746 -0.3248
  310POPC   C4B 4033  10.294   9.653   5.687  0.1739 -0.1323  0.3072
  311POPC   NC3 4034   1.362   6.219   3.369 -0.3027  0.2215 -0.2179
  311POPC   PO4 4035   1.496   6.249   3.757 -0.0477 -0.3200  0.1585
  311POPC   GL1 4036   1.551   6.465   4.180 -0.2284  0.2479  0.0995
  311POPC   GL2 4037   1.876   6.591   4.142 -0.2334 -0.1728  0.0329
  311POPC   C1A 4038   1.593   6.731   4.575 -0.2702 -0.1321 -0.0503
  311POPC   D2A 4039   1.514   6.797   4.981  0.0967  0.1228  0.4084
  311POPC   C3A 4040   1.779   6.939   5.178  0.2644  0.2197 -0.1175
  311POPC   C4A 4041   2.105   7.030   5.599  0.0597  0.2956  0.0854
  311POPC   C1B 4042   2.099   6.862   4.410  0.3030  0.0032 -0.1790
  311POPC   C2B 4043   2.117   6.620   4.773  0.0614 -0.0661 -0.2959
  311POPC   C3B 4044   1.830   6.377   5.159  0.1648  0.1922 -0.0792
  311POPC   C4B 4045   1.609   6.022   5.428 -0.0248 -0.1543 -0.1081
  312POPC   NC3 4046   9.655   2.364   4.043 -0.2267  0.2412  0.1882
  312POPC   PO4 4047   9.431   2.838   4.126 -0.2750 -0.2716  0.1918
  312POPC   GL1 4048   9.401   3.062   4.492  0.0663 -0.2525 -0.3222
  312POPC   GL2 4049   9.644   3.369   4.456 -0.2743 -0.2292  0.0881
  312POPC   C1A 4050   9.132   3.160   4.785 -0.0829  0.2017  0.1863
  312POPC   D2A 4051   9.091   3.258   5.219 -0.0377 -0.2094  0.4702
  312POPC   C3A 4052   9.165   2.882   5.526  0.1423  0.0285  0.0227
  312POPC   C4A 4053   8.896   2.654   5.643  0.0009  0.1207 -0.0236
  312POPC   C1B 4054   9.633   3.386   4.912 -0.0521  0.0558 -0.0516
  312POPC   C2B 4055   9.587   3.292   5.400 -0.3958 -0.1359 -0.0973
  312POPC   C3B 4056   9.958   3.175   5.727  0.0597  0.1462 -0.1043
  312POPC   C4B 4057  10.251   3.485   6.019  0.1314  0.0067  0.0199
  313POPC   NC3 4058  10.613   4.740   3.509  0.1692  0.1465 -0.0381
  313POPC   PO4 4059  10.377   4.523   3.677 -0.2152 -0.2007  0.1180
  313POPC   GL1 4060  10.316   4.347   4.063  0.1892 -0.0414 -0.3769
  313POPC   GL2 4061  10.370   4.028   4.107 -0.1405 -0.3530  0.0788
  313POPC   C1A 4062  10.368   4.522   4.461 -0.2524 -0.0094  0.1882
  313POPC   D2A 4063  10.307   4.464   4.826  0.0150  0.0640  0.3510
  313POPC   C3A 4064  10.674   4.504   4.991  0.2221  0.1908 -0.0511
  313POPC   C4A 4065  10.674   4.509   5.427  0.0785 -0.1369  0.1251
  313POPC   C1B 4066  10.443   4.051   4.541  0.0195  0.1663 -0.1442
  313POPC   C2B 4067  10.655   4.012   4.985  0.1245 -0.2226 -0.4716
  313POPC   C3B 4068  10.556   4.036   5.444 -0.0547 -0.1094 -0.2243
  313POPC   C4B 4069  10.661   3.823   5.822  0.1005 -0.0005  0.1069
  314POPC   NC3 4070   7.727   7.254   3.327 -0.2303 -0.1361 -0.0744
  314POPC   PO4 4071   8.231   7.278   3.413  0.2685  0.1295 -0.3425
  314POPC   GL1 4072   8.195   7.201   3.893  0.0123 -0.1325 -0.2065
  314POPC   GL2 4073   7.967   7.033   3.909  0.0220  0.4395 -0.0606
  314POPC   C1A 4074   8.236   7.209   4.308  0.1760  0.2921 -0.2402
  314POPC   D2A 4075   8.151   7.145   4.673  0.0940 -0.2222  0.2486
  314POPC   C3A 4076   8.281   7.341   5.094 -0.2042 -0.0448  0.3060
  314POPC   C4A 4077   8.390   7.222   5.527 -0.0591 -0.2151  0.0829
  314POPC   C1B 4078   7.797   7.516   4.188  0.0454 -0.0460  0.0347
  314POPC   C2B 4079   7.949   7.589   4.558  0.1988 -0.1524 -0.0686
  314POPC   C3B 4080   8.135   7.807   4.981 -0.0664 -0.0227 -0.0934
  314POPC   C4B 4081   8.475   8.060   5.111 -0.1124  0.0172 -0.0550
  315POPC   NC3 4082   2.879   3.696   4.104 -0.0207 -0.2186 -0.0727
  315POPC   PO4 4083   3.133   4.142   4.002 -0.3199  0.1464 -0.3079
  315POPC   GL1 4084   3.445   4.127   4.261  0.1050 -0.1461 -0.0664
  315POPC   GL2 4085   3.768   4.099   4.253 -0.2917  0.0809 -0.1691
  315POPC   C1A 4086   3.431   4.162   4.703  0.0299 -0.1303  0.0075
  315POPC   D2A 4087   3.574   4.166   5.108 -0.0640  0.0038 -0.0559
  315POPC   C3A 4088   3.688   4.141   5.547  0.3040 -0.1458 -0.5857
  315POPC   C4A 4089   3.597   4.096   5.925 -0.0792  0.0981  0.1939
  315POPC   C1B 4090   4.066   3.938   4.640  0.0016  0.2306 -0.1185
  315POPC   C2B 4091   4.526   4.105   4.736  0.1254  0.0124 -0.2305
  315POPC   C3B 4092   4.853   3.960   4.847 -0.0107 -0.0486 -0.0436
  315POPC   C4B 4093   5.056   3.813   5.165 -0.2307 -0.2211  0.0552
  316POPC   NC3 4094   3.557   8.524   3.573 -0.0711  0.0789  0.2875
  316POPC   PO4 4095   3.848   8.778   3.788 -0.1029  0.2215  0.0492
  316POPC   GL1 4096   3.868   8.378   3.911  0.0585 -0.0751 -0.1325
  316POPC   GL2 4097   4.024   7.989   3.931  0.5904 -0.0691 -0.0120
  316POPC   C1A 4098   3.735   8.252   4.333  0.3070 -0.1394 -0.3510
  316POPC   D2A 4099   3.707   7.986   4.697  0.0576  0.1008 -0.1602
  316POPC   C3A 4100   3.703   8.072   5.125  0.1312 -0.0122  0.3279
  316POPC   C4A 4101   3.748   7.929   5.521  0.0431 -0.3127 -0.1825
  316POPC   C1B 4102   4.275   8.005   4.310  0.0876  0.1180  0.0737
  316POPC   C2B 4103   4.557   8.029   4.735  0.5545  0.1828 -0.0042
  316POPC   C3B 4104   4.667   8.074   5.200 -0.3209 -0.2642 -0.0058
  316POPC   C4B 4105   4.669   8.227   5.586  0.1188  0.0120 -0.2354
  317POPC   NC3 4106   1.849   9.917   3.567 -0.0852  0.2084  0.0589
  317POPC   PO4 4107   1.680  10.347   3.919 -0.4447  0.2374 -0.0556
  317POPC   GL1 4108   1.606  10.292   4.348 -0.0025  0.1430  0.2759
  317POPC   GL2 4109   1.574   9.939   4.440 -0.1726  0.3849 -0.2811
  317POPC   C1A 4110   1.422  10.326   4.749 -0.1214  0.0319 -0.1870
  317POPC   D2A 4111   1.350  10.355   5.203 -0.5139  0.0872  0.0281
  317POPC   C3A 4112   1.452  10.115   5.503  0.2699  0.0418 -0.0895
  317POPC   C4A 4113   1.747  10.000   5.857  0.0371  0.0236 -0.1331
  317POPC   C1B 4114   1.566   9.523   4.710 -0.0749  0.0126  0.0619
  317POPC   C2B 4115   1.519   9.029   4.867  0.1072 -0.0621  0.0825
  317POPC   C3B 4116   1.309   8.602   5.082  0.0760 -0.0552  0.0593
  317POPC   C4B 4117   1.267   8.303   5.401  0.0471 -0.2660 -0.1518
  318POPC   NC3 4118   8.380   6.799   3.537  0.1427  0.2756 -0.2083
  318POPC   PO4 4119   8.609   6.367   3.631 -0.0157 -0.0693 -0.1100
  318POPC   GL1 4120   8.459   6.385   4.006  0.1909 -0.1389  0.1094
  318POPC   GL2 4121   8.357   6.172   4.181  0.0551  0.0926  0.1842
  318POPC   C1A 4122   8.704   6.498   4.371  0.2796 -0.0105 -0.2802
  318POPC   D2A 4123   9.109   6.652   4.457  0.0523 -0.2465  0.0054
  318POPC   C3A 4124   9.120   6.909   4.796  0.0266 -0.0525 -0.4140
  318POPC   C4A 4125   8.818   7.078   5.215  0.3312  0.0180  0.3357
  318POPC   C1B 4126   8.213   5.837   4.417  0.1422 -0.3620  0.2879
  318POPC   C2B 4127   8.112   5.847   4.797  0.1733 -0.0529 -0.0812
  318POPC   C3B 4128   8.153   5.944   5.238  0.0161 -0.3733 -0.0855
  318POPC   C4B 4129   8.207   5.683   5.627 -0.0460  0.0257 -0.1262
  319POPC   NC3 4130   0.668   8.190   3.270  0.2004  0.0712  0.1195
  319POPC   PO4 4131   0.302   8.204   3.302 -0.2093  0.1695 -0.2187
  319POPC   GL1 4132   0.329   8.327   3.739 -0.0547  0.1641  0.0114
  319POPC   GL2 4133   0.088   8.512   3.996 -0.0330  0.4796 -0.1848
  319POPC   C1A 4134   0.555   8.395   4.168 -0.2883  0.0841 -0.2066
  319POPC   D2A 4135   0.518   8.565   4.439 -0.2957 -0.0904  0.0652
  319POPC   C3A 4136   0.406   8.936   4.294 -0.0662  0.0956  0.2709
  319POPC   C4A 4137   0.162   9.323   4.491 -0.1058  0.1586 -0.0618
  319POPC   C1B 4138   0.034   8.582   4.379 -0.1207  0.0183 -0.2181
  319POPC   C2B 4139   0.133   8.533   4.814 -0.1834  0.4118  0.1965
  319POPC   C3B 4140   0.427   8.499   5.161  0.0217 -0.0042  0.4441
  319POPC   C4B 4141   0.758   8.526   5.537  0.2499  0.4083 -0.2891
  320POPC   NC3 4142   7.404   9.319   3.526  0.1715 -0.0821  0.0246
  320POPC   PO4 4143   7.047   9.235   3.847  0.0478 -0.1305  0.3768
  320POPC   GL1 4144   6.931   9.383   4.288 -0.2181  0.0684  0.2137
  320POPC   GL2 4145   6.873   9.734   4.383 -0.4669  0.1424  0.0643
  320POPC   C1A 4146   6.665   9.382   4.672 -0.1376 -0.4487  0.0806
  320POPC   D2A 4147   6.815   9.833   4.945  0.0758 -0.0442  0.1573
  320POPC   C3A 4148   6.659   9.836   5.286 -0.0464 -0.1281 -0.0122
  320POPC   C4A 4149   6.396   9.750   5.768  0.1919 -0.2318 -0.1859
  320POPC   C1B 4150   6.524   9.955   4.537  0.2975  0.1225  0.0780
  320POPC   C2B 4151   6.254  10.286   4.726 -0.1486 -0.0348 -0.0432
  320POPC   C3B 4152   5.867  10.212   5.002 -0.0199 -0.1081  0.0036
  320POPC   C4B 4153   5.801   9.989   5.329 -0.3143 -0.0942  0.1326
  321POPC   NC3 4154  10.641   2.339   4.045 -0.0305 -0.2602 -0.0029
  321POPC   PO4 4155  10.799   1.950   3.990  0.0807  0.2924 -0.1240
  321POPC   GL1 4156  10.950   2.082   4.357  0.1758 -0.1529 -0.0327
  321POPC   GL2 4157  10.997   2.431   4.423  0.0191  0.0422 -0.2046
  321POPC   C1A 4158  10.988   1.949   4.738  0.2501 -0.0306 -0.0650
  321POPC   D2A 4159  10.798   1.961   5.167  0.0147  0.4353  0.0448
  321POPC   C3A 4160  10.777   1.923   5.646 -0.0384 -0.1856 -0.0182
  321POPC   C4A 4161  10.904   1.606   6.058  0.1045 -0.0197  0.0427
  321POPC   C1B 4162  10.802   2.700   4.608  0.2110 -0.1330 -0.1307
  321POPC   C2B 4163  10.591   2.974   4.774  0.1731 -0.1809  0.0542
  321POPC   C3B 4164  10.695   3.112   5.195 -0.2430 -0.1820  0.0544
  321POPC   C4B 4165  10.492   3.499   5.535  0.0830  0.0685  0.0721
  322POPC   NC3 4166   6.271   5.686   3.511  0.0063 -0.1218 -0.0181
  322POPC   PO4 4167   6.480   5.212   3.589 -0.0204  0.0504  0.0763
  322POPC   GL1 4168   6.654   5.138   3.945 -0.0574 -0.0420  0.2233
  322POPC   GL2 4169   6.829   4.851   3.918  0.0800 -0.1266 -0.1975
  322POPC   C1A 4170   6.872   5.143   4.366 -0.1738  0.1274  0.0357
  322POPC   D2A 4171   6.775   5.140   4.737  0.2989  0.0694  0.0398
  322POPC   C3A 4172   6.923   5.074   5.041  0.0800 -0.0875  0.1024
  322POPC   C4A 4173   7.233   5.141   5.392 -0.2255 -0.0067 -0.0352
  322POPC   C1B 4174   6.472   4.848   4.291  0.0471  0.0444 -0.0545
  322POPC   C2B 4175   6.412   4.819   4.786 -0.3375  0.2499  0.0824
  322POPC   C3B 4176   6.468   4.822   5.143 -0.1061 -0.0717 -0.0996
  322POPC   C4B 4177   6.728   4.911   5.495  0.1005 -0.1319  0.2753
  323POPC   NC3 4178   6.473   6.488   3.472 -0.0526  0.2793  0.1683
  323POPC   PO4 4179   6.020   6.653   3.593 -0.1984  0.0137  0.1883
  323POPC   GL1 4180   6.329   6.838   3.800 -0.0802  0.3164  0.1344
  323POPC   GL2 4181   6.106   6.828   4.084  0.0214 -0.0037  0.1845
  323POPC   C1A 4182   6.573   6.810   4.165 -0.1480  0.0014 -0.1454
  323POPC   D2A 4183   6.365   7.123   4.359  0.0656 -0.0127 -0.0324
  323POPC   C3A 4184   6.263   6.918   4.771  0.1344  0.1513  0.0411
  323POPC   C4A 4185   6.005   6.653   4.856  0.3552 -0.1729  0.0178
  323POPC   C1B 4186   5.838   6.577   4.338  0.0180 -0.1464  0.1750
  323POPC   C2B 4187   5.473   6.285   4.544 -0.4027  0.1023 -0.0845
  323POPC   C3B 4188   5.090   6.192   4.471 -0.2527  0.0878 -0.0062
  323POPC   C4B 4189   4.830   6.428   4.336 -0.2524 -0.1856 -0.0986
  324POPC   NC3 4190   7.636   3.745   3.750 -0.0200  0.1073  0.0975
  324POPC   PO4 4191   7.919   3.402   3.748  0.0383  0.1423 -0.1019
  324POPC   GL1 4192   7.739   3.414   4.113 -0.2632 -0.0623  0.0496
  324POPC   GL2 4193   7.633   3.738   4.244  0.3426 -0.2216  0.0214
  324POPC   C1A 4194   7.550   3.369   4.566 -0.0710  0.1869  0.1190
  324POPC   D2A 4195   7.343   3.191   5.010  0.0311  0.0609 -0.0433
  324POPC   C3A 4196   6.904   3.337   4.993  0.1710 -0.0629  0.1636
  324POPC   C4A 4197   6.523   3.394   4.764  0.3096 -0.1290 -0.1166
  324POPC   C1B 4198   7.532   4.041   4.636  0.0758 -0.0957  0.4342
  324POPC   C2B 4199   7.486   3.952   5.077 -0.1497 -0.3407  0.0746
  324POPC   C3B 4200   7.386   4.100   5.391  0.2243 -0.4184  0.1708
  324POPC   C4B 4201   7.568   4.223   5.746 -0.0868  0.0212 -0.3644
  325POPC   NC3 4202   6.542   3.979   3.492 -0.2290 -0.0948  0.1360
  325POPC   PO4 4203   6.784   4.291   3.628 -0.0689  0.0853 -0.0898
  325POPC   GL1 4204   6.632   4.237   4.101  0.2249 -0.2837  0.1680
  325POPC   GL2 4205   6.477   4.279   4.445  0.1049  0.0386 -0.1088
  325POPC   C1A 4206   6.938   4.152   4.418 -0.0742  0.1991  0.0475
  325POPC   D2A 4207   7.116   4.226   4.851 -0.4034 -0.3164  0.0007
  325POPC   C3A 4208   7.626   4.430   4.983 -0.2461 -0.0865 -0.2161
  325POPC   C4A 4209   7.907   4.310   5.426 -0.0936  0.2736  0.1759
  325POPC   C1B 4210   6.087   4.312   4.681 -0.1674 -0.0072 -0.1402
  325POPC   C2B 4211   5.902   4.604   4.963 -0.2120 -0.3126 -0.2901
  325POPC   C3B 4212   5.855   4.831   5.389 -0.1852  0.3420  0.2578
  325POPC   C4B 4213   5.761   5.019   5.723 -0.0600 -0.1254 -0.1901
  326POPC   NC3 4214   3.123   3.710   3.639  0.2833  0.4143 -0.4740
  326POPC   PO4 4215   3.089   3.292   3.924 -0.2041  0.3157  0.0111
  326POPC   GL1 4216   3.280   3.250   4.324 -0.2070 -0.2182 -0.0114
  326POPC   GL2 4217   3.625   3.215   4.324 -0.4673  0.0379  0.1393
  326POPC   C1A 4218   3.453   3.334   4.772 -0.0365  0.3904  0.0438
  326POPC   D2A 4219   3.425   3.329   5.195  0.1570  0.0752 -0.0673
  326POPC   C3A 4220   3.154   3.104   5.457  0.0296 -0.3417 -0.3391
  326POPC   C4A 4221   2.830   2.970   5.835  0.4283  0.1827 -0.1219
  326POPC   C1B 4222   3.612   2.877   4.677 -0.1969  0.0643  0.0371
  326POPC   C2B 4223   3.561   2.850   5.149  0.1574  0.0140  0.2995
  326POPC   C3B 4224   3.757   2.972   5.537  0.1700  0.2522  0.0640
  326POPC   C4B 4225   3.527   3.407   5.662  0.0452 -0.0916  0.0228
  327POPC   NC3 4226   8.207   2.632   3.441  0.0898  0.3792 -0.0554
  327POPC   PO4 4227   8.623   2.532   3.491 -0.1278 -0.2474  0.2446
  327POPC   GL1 4228   8.736   2.789   3.896 -0.0980  0.3489  0.0756
  327POPC   GL2 4229   8.946   2.652   4.109 -0.0763  0.1307 -0.1698
  327POPC   C1A 4230   8.512   2.850   4.246  0.1159 -0.2354 -0.1388
  327POPC   D2A 4231   8.443   2.859   4.640 -0.0355  0.0851 -0.2499
  327POPC   C3A 4232   8.672   3.145   4.946  0.0790 -0.0639 -0.3159
  327POPC   C4A 4233   8.676   3.156   5.530  0.1971 -0.4496 -0.1347
  327POPC   C1B 4234   8.979   2.748   4.552  0.1972 -0.4469  0.1851
  327POPC   C2B 4235   9.146   2.768   5.037  0.1791 -0.5074  0.2661
  327POPC   C3B 4236   9.306   2.493   5.244 -0.0589 -0.0341  0.0163
  327POPC   C4B 4237   9.324   2.104   5.430  0.0799  0.1681  0.1035
  328POPC   NC3 4238   4.145   3.332   3.786  0.0374 -0.0747 -0.0703
  328POPC   PO4 4239   3.992   3.003   4.028  0.0022 -0.0265 -0.0692
  328POPC   GL1 4240   4.012   2.716   4.352 -0.1120  0.2040 -0.3344
  328POPC   GL2 4241   4.305   2.637   4.264 -0.1349  0.1122 -0.1765
  328POPC   C1A 4242   4.009   2.528   4.775 -0.1143  0.2237 -0.0116
  328POPC   D2A 4243   4.235   2.658   5.162 -0.2894  0.1250 -0.1216
  328POPC   C3A 4244   4.190   2.648   5.560 -0.2779 -0.1931  0.0507
  328POPC   C4A 4245   4.363   2.660   5.950 -0.3098 -0.4405  0.2033
  328POPC   C1B 4246   4.551   2.677   4.595 -0.2478  0.0020  0.0027
  328POPC   C2B 4247   4.740   2.614   4.978 -0.0214 -0.2102  0.0412
  328POPC   C3B 4248   4.738   2.454   5.301 -0.0647  0.0387 -0.3619
  328POPC   C4B 4249   4.754   1.977   5.513 -0.0712 -0.0106 -0.1735
  329POPC   NC3 4250   1.775   7.658   3.138  0.1266  0.4302 -0.0723
  329POPC   PO4 4251   1.338   7.571   3.367 -0.3549 -0.2451  0.0555
  329POPC   GL1 4252   1.203   7.443   3.714 -0.0624 -0.1970 -0.1435
  329POPC   GL2 4253   1.265   7.086   3.785 -0.0273 -0.0635 -0.0351
  329POPC   C1A 4254   0.977   7.415   4.096  0.0489  0.1659  0.0997
  329POPC   D2A 4255   0.963   7.520   4.497 -0.0416 -0.3019 -0.1122
  329POPC   C3A 4256   0.653   7.442   4.714 -0.2753  0.0128 -0.2922
  329POPC   C4A 4257   0.536   7.688   5.006 -0.2165 -0.1064  0.0603
  329POPC   C1B 4258   1.286   6.993   4.237  0.0529 -0.2607 -0.1590
  329POPC   C2B 4259   1.403   7.326   4.593 -0.0560  0.1525  0.1048
  329POPC   C3B 4260   1.587   7.777   4.656 -0.2577  0.1073 -0.0947
  329POPC   C4B 4261   1.548   8.137   4.402 -0.1163 -0.1257 -0.1961
  330POPC   NC3 4262   8.312   1.067   3.254  0.1450 -0.1836 -0.1429
  330POPC   PO4 4263   8.619   1.334   3.453 -0.0587 -0.1721  0.1173
  330POPC   GL1 4264   8.423   1.616   3.562  0.2026 -0.0665 -0.0634
  330POPC   GL2 4265   8.630   1.731   3.839  0.0466  0.3143 -0.1295
  330POPC   C1A 4266   8.141   1.772   3.927 -0.2682 -0.3697 -0.2978
  330POPC   D2A 4267   7.954   2.050   4.234  0.0915  0.4492  0.1601
  330POPC   C3A 4268   7.584   1.807   4.401  0.0399  0.0962 -0.2972
  330POPC   C4A 4269   7.225   1.708   4.269  0.0573 -0.2067  0.0957
  330POPC   C1B 4270   8.622   1.516   4.206  0.0692  0.2955  0.0752
  330POPC   C2B 4271   8.701   1.600   4.667 -0.0705  0.1464 -0.2089
  330POPC   C3B 4272   8.718   1.973   4.990 -0.0494 -0.1588 -0.0058
  330POPC   C4B 4273   8.796   2.261   5.303  0.3051  0.1183  0.4236
  331POPC   NC3 4274   5.431  10.541   3.953 -0.0041 -0.0044  0.1097
  331POPC   PO4 4275   5.740  10.244   3.839 -0.2956 -0.0337  0.0366
  331POPC   GL1 4276   6.023  10.207   4.187  0.1255 -0.0708 -0.4188
  331POPC   GL2 4277   5.862  10.131   4.491 -0.2427 -0.1490 -0.5673
  331POPC   C1A 4278   6.443  10.368   4.257  0.1774  0.1548 -0.3355
  331POPC   D2A 4279   6.674  10.703   4.254  0.2074 -0.0061 -0.2417
  331POPC   C3A 4280   6.531  11.054   4.433  0.5028 -0.2904 -0.0819
  331POPC   C4A 4281   6.316  11.548   4.405 -0.1103  0.1156 -0.0417
  331POPC   C1B 4282   6.092   9.768   4.779  0.1618  0.0531  0.1004
  331POPC   C2B 4283   6.355   9.504   5.096 -0.0672  0.0879 -0.4333
  331POPC   C3B 4284   6.747   9.302   5.187 -0.0410 -0.0977 -0.0294
  331POPC   C4B 4285   7.002   9.108   5.526  0.1947  0.1727 -0.1856
  332POPC   NC3 4286   9.457   7.145   3.616  0.2566  0.2178 -0.3137
  332POPC   PO4 4287   9.163   6.907   3.974  0.1156 -0.2339  0.0695
  332POPC   GL1 4288   9.011   7.178   4.298 -0.1670  0.1353 -0.3590
  332POPC   GL2 4289   8.768   7.339   4.202  0.1216 -0.1891  0.0708
  332POPC   C1A 4290   8.953   7.348   4.768  0.0089  0.2378 -0.0957
  332POPC   D2A 4291   8.661   7.593   4.794 -0.2135 -0.1846  0.2928
  332POPC   C3A 4292   8.498   7.768   4.429 -0.0452  0.1261 -0.2705
  332POPC   C4A 4293   8.243   7.703   4.044 -0.1405 -0.2358 -0.6181
  332POPC   C1B 4294   8.647   7.003   4.608 -0.0738 -0.2309  0.1279
  332POPC   C2B 4295   8.452   6.810   5.002  0.0909  0.1629 -0.1482
  332POPC   C3B 4296   8.075   6.846   5.356  0.1917  0.0540 -0.0623
  332POPC   C4B 4297   7.908   7.214   5.509  0.0580 -0.1797 -0.1835
  333POPC   NC3 4298   2.966   6.522   3.511  0.0207 -0.1644 -0.0505
  333POPC   PO4 4299   2.579   6.210   3.734  0.1441  0.2804  0.1161
  333POPC   GL1 4300   2.664   6.110   4.241  0.1926 -0.1183  0.0559
  333POPC   GL2 4301   2.772   6.450   4.505  0.2162 -0.1522 -0.0939
  333POPC   C1A 4302   2.519   5.918   4.621  0.2713  0.0386  0.1752
  333POPC   D2A 4303   2.267   6.151   4.977 -0.1757 -0.2549  0.3816
  333POPC   C3A 4304   2.250   6.075   5.407 -0.2002 -0.0108 -0.1394
  333POPC   C4A 4305   1.894   6.401   5.641 -0.1072 -0.0036  0.1245
  333POPC   C1B 4306   2.296   6.329   4.431 -0.1934  0.1627 -0.1001
  333POPC   C2B 4307   1.877   6.307   4.521  0.1156 -0.2079 -0.1670
  333POPC   C3B 4308   1.432   6.274   4.615  0.3524  0.4433 -0.2241
  333POPC   C4B 4309   1.098   6.297   4.803  0.0181  0.1728 -0.0547
  334POPC   NC3 4310   5.326   4.367   2.835  0.2284  0.3537  0.1488
  334POPC   PO4 4311   5.519   4.072   3.224  0.0773 -0.1396 -0.1860
  334POPC   GL1 4312   5.461   3.829   3.635 -0.0762 -0.1658  0.1832
  334POPC   GL2 4313   5.589   3.975   3.880 -0.0495 -0.1738 -0.0811
  334POPC   C1A 4314   5.214   3.790   4.066 -0.0174 -0.0427  0.2561
  334POPC   D2A 4315   5.205   3.760   4.485  0.1796  0.1491 -0.2900
  334POPC   C3A 4316   4.935   3.436   4.816  0.2776  0.2092 -0.1241
  334POPC   C4A 4317   4.667   3.475   5.302 -0.4288  0.0129  0.2434
  334POPC   C1B 4318   5.558   4.105   4.322  0.1105 -0.0868 -0.0195
  334POPC   C2B 4319   5.506   4.050   4.879 -0.1074  0.3577  0.5167
  334POPC   C3B 4320   5.559   3.784   5.262  0.3968  0.0112 -0.0177
  334POPC   C4B 4321   5.687   3.480   5.544 -0.2359  0.2626 -0.1081
  335POPC   NC3 4322   0.717   2.177   3.457 -0.0125  0.2574  0.1386
  335POPC   PO4 4323   0.589   2.235   3.853 -0.1093  0.1360 -0.2055
  335POPC   GL1 4324   0.812   2.449   4.184 -0.0703 -0.0220 -0.1797
  335POPC   GL2 4325   1.105   2.491   4.191 -0.0958  0.1986  0.0600
  335POPC   C1A 4326   0.788   2.611   4.584  0.2992 -0.0024  0.1455
  335POPC   D2A 4327   0.995   2.853   4.898 -0.5357 -0.2381  0.0600
  335POPC   C3A 4328   0.988   2.963   5.239  0.0025  0.0298  0.2926
  335POPC   C4A 4329   0.940   3.315   5.649 -0.1216 -0.2849 -0.3078
  335POPC   C1B 4330   1.298   2.757   4.429  0.1624 -0.0998 -0.1356
  335POPC   C2B 4331   1.332   3.140   4.383  0.5408  0.0498  0.1102
  335POPC   C3B 4332   1.333   3.441   4.689  0.0797  0.2448 -0.0528
  335POPC   C4B 4333   1.239   3.353   5.143  0.1397  0.0119  0.3377
  336POPC   NC3 4334  10.178   6.513   3.561 -0.2748  0.2224  0.0668
  336POPC   PO4 4335   9.877   6.319   3.756 -0.0022  0.0631 -0.2953
  336POPC   GL1 4336   9.612   6.312   4.146 -0.0618  0.2551 -0.0882
  336POPC   GL2 4337   9.662   5.999   4.139  0.1459 -0.1222  0.0593
  336POPC   C1A 4338   9.615   6.636   4.487 -0.2504  0.2872  0.0235
  336POPC   D2A 4339   9.625   6.779   4.889  0.0719 -0.1610 -0.0160
  336POPC   C3A 4340   9.394   6.899   5.250 -0.2519  0.2267  0.0034
  336POPC   C4A 4341   9.246   7.185   5.505 -0.1602  0.4520 -0.4386
  336POPC   C1B 4342   9.646   5.827   4.514  0.1927  0.0923  0.3081
  336POPC   C2B 4343   9.751   5.912   4.927  0.1286 -0.2950  0.0665
  336POPC   C3B 4344   9.535   5.940   5.255 -0.0885 -0.2227  0.1026
  336POPC   C4B 4345   9.084   6.057   5.415 -0.0240  0.3161 -0.0528
  337POPC   NC3 4346   0.267   1.024   4.154  0.1095  0.0694  0.2204
  337POPC   PO4 4347   0.058   0.674   4.176 -0.0043  0.1676 -0.0830
  337POPC   GL1 4348  -0.007   0.530   4.513 -0.1681  0.5132  0.0676
  337POPC   GL2 4349  -0.396   0.533   4.597  0.3824 -0.1803 -0.0937
  337POPC   C1A 4350   0.023   0.233   4.816 -0.1614  0.3041  0.0314
  337POPC   D2A 4351  -0.083   0.084   5.240 -0.1907  0.1671 -0.0193
  337POPC   C3A 4352  -0.553   0.158   5.353  0.1914 -0.1526  0.0660
  337POPC   C4A 4353  -0.933   0.415   5.227  0.0834  0.0099  0.1481
  337POPC   C1B 4354  -0.529   0.624   4.977 -0.2192 -0.0159 -0.2276
  337POPC   C2B 4355  -0.662   0.748   5.470  0.1435  0.1309  0.0850
  337POPC   C3B 4356  -0.705   0.615   5.850  0.0126  0.4119  0.0455
  337POPC   C4B 4357  -0.615   0.788   6.251  0.2015 -0.0476 -0.0784
  338POPC   NC3 4358   7.736   5.417   3.357 -0.0410  0.0634 -0.1701
  338POPC   PO4 4359   7.457   5.499   3.655  0.0012  0.0964  0.1121
  338POPC   GL1 4360   7.335   5.585   4.071 -0.0975  0.2211 -0.0216
  338POPC   GL2 4361   7.114   5.433   4.094  0.1824 -0.1502  0.1878
  338POPC   C1A 4362   7.338   5.379   4.543  0.1510 -0.3260  0.2669
  338POPC   D2A 4363   7.220   5.479   5.057  0.1018  0.4229 -0.0072
  338POPC   C3A 4364   7.160   5.841   5.335  0.2054  0.2369 -0.1358
  338POPC   C4A 4365   7.242   6.076   5.719 -0.0318  0.0772 -0.1823
  338POPC   C1B 4366   6.941   5.676   4.469  0.2778  0.2059 -0.3082
  338POPC   C2B 4367   7.017   6.041   4.900 -0.0264  0.2351 -0.0312
  338POPC   C3B 4368   7.406   6.193   5.100  0.0939  0.1489  0.0913
  338POPC   C4B 4369   7.528   6.614   5.087 -0.3246 -0.1097 -0.0334
  339POPC   NC3 4370   5.819   3.636   3.391  0.1433  0.2408 -0.0694
  339POPC   PO4 4371   6.264   3.592   3.594  0.2185 -0.0098 -0.2046
  339POPC   GL1 4372   6.416   3.794   3.937 -0.0161 -0.1338 -0.1366
  339POPC   GL2 4373   6.158   4.043   4.069 -0.2962  0.3406  0.0317
  339POPC   C1A 4374   6.620   3.763   4.247 -0.1120 -0.1292 -0.3900
  339POPC   D2A 4375   6.728   3.821   4.723 -0.0781  0.0252  0.1594
  339POPC   C3A 4376   6.564   3.666   5.146  0.2072  0.0046  0.0825
  339POPC   C4A 4377   6.459   3.260   5.232 -0.3427  0.0323  0.2924
  339POPC   C1B 4378   6.212   3.841   4.524 -0.2899 -0.0934  0.0210
  339POPC   C2B 4379   6.207   3.882   4.912 -0.0237 -0.1173 -0.1113
  339POPC   C3B 4380   6.104   4.189   5.195  0.1581  0.2013 -0.0552
  339POPC   C4B 4381   5.690   4.257   5.369 -0.1143 -0.1423  0.1112
  340POPC   NC3 4382   0.425  10.418   3.837  0.2645  0.1954  0.1964
  340POPC   PO4 4383   0.077  10.366   4.081  0.2150 -0.1266  0.1969
  340POPC   GL1 4384   0.254  10.676   4.368 -0.1803  0.2397 -0.3326
  340POPC   GL2 4385   0.547  10.572   4.335  0.2348 -0.1449  0.0066
  340POPC   C1A 4386   0.448  11.024   4.494 -0.2369  0.0008  0.0910
  340POPC   D2A 4387   0.703  11.046   4.946  0.1776 -0.0569 -0.3949
  340POPC   C3A 4388   0.565  11.335   5.313  0.0711  0.1559 -0.0141
  340POPC   C4A 4389   0.247  11.569   5.597 -0.2776 -0.2305  0.0586
  340POPC   C1B 4390   0.457  10.545   4.791  0.2818 -0.1213  0.4294
  340POPC   C2B 4391   0.305  10.433   5.223 -0.0824  0.1795  0.1121
  340POPC   C3B 4392   0.467  10.439   5.653  0.0813  0.1222  0.1057
  340POPC   C4B 4393   0.592  10.546   6.153  0.0206  0.0468 -0.4110
  341POPC   NC3 4394   9.850   5.855   3.654  0.1061 -0.2330 -0.3713
  341POPC   PO4 4395  10.290   5.999   3.547 -0.6759  0.3398  0.1034
  341POPC   GL1 4396  10.316   6.202   3.998 -0.1990 -0.1357  0.1252
  341POPC   GL2 4397  10.153   5.888   4.128  0.2036 -0.0867  0.0741
  341POPC   C1A 4398  10.497   6.131   4.405  0.1313 -0.0266  0.1182
  341POPC   D2A 4399  10.657   6.141   4.807  0.1515  0.3764 -0.1322
  341POPC   C3A 4400  10.872   5.893   5.137 -0.0292  0.3385 -0.1523
  341POPC   C4A 4401  11.200   6.168   5.302  0.1986 -0.2219  0.3843
  341POPC   C1B 4402  10.141   5.803   4.545  0.0180 -0.0541 -0.2286
  341POPC   C2B 4403  10.276   5.799   4.897  0.0613  0.1724  0.1442
  341POPC   C3B 4404  10.432   6.075   5.231 -0.2563  0.2353  0.0263
  341POPC   C4B 4405  10.567   6.201   5.525  0.3681 -0.0480 -0.1583
  342W        W 4406   7.685  10.587   3.667 -0.2089  0.0117  0.1292
  343W        W 4407   1.757   7.377  10.859 -0.0887  0.2410  0.2577
  344W        W 4408   7.709   0.655   9.856 -0.0909  0.2360  0.1581
  345W        W 4409   9.928   1.918   3.122  0.2819 -0.0372  0.0496
  346W        W 4410   5.861   4.655   9.483  0.1678 -0.3580  0.1895
  347W        W 4411  10.287   9.957  10.471 -0.2066  0.0432  0.0500
  348W        W 4412   2.947   3.212   0.668 -0.3572  0.5750  0.0849
  349W        W 4413   2.154   7.699   8.761  0.0411  0.1883  0.0370
  350W        W 4414   7.261   2.204   1.158  0.0474 -0.0072  0.1417
  351W        W 4415   7.931   2.299  10.198 -0.3380  0.0375 -0.1993
  352W        W 4416   7.782   4.508   2.295  0.0616  0.0081  0.2957
  353W        W 4417   6.830   2.332   8.830 -0.0974 -0.1527  0.1199
  354W        W 4418   7.120   9.843   8.591 -0.2698  0.0729  0.2754
  355W        W 4419   6.778   0.802   0.108  0.2444  0.0376  0.2727
  356W        W 4420   2.956   1.797   2.496 -0.2842 -0.0543 -0.2235
  357W        W 4421   6.113   1.621   9.958 -0.0216  0.1241  0.0720
  358W        W 4422   5.832   8.090   9.926 -0.0848  0.1565  0.0469
  359W        W 4423   5.313   7.621   8.094  0.2505  0.0665 -0.1120
  360W        W 4424  10.346   6.530   8.722 -0.0166  0.1002  0.2341
  361W        W 4425   4.433   0.538   0.175 -0.1589 -0.0679 -0.0888
  362W        W 4426   1.511   4.067   2.242 -0.0940  0.2986 -0.2621
  363W        W 4427   3.353   9.430   1.276  0.0015  0.0997  0.2943
  364W        W 4428   1.317   4.926  10.621  0.3559  0.1543  0.0936
  365W        W 4429   5.048   8.057   0.975  0.0200 -0.1993 -0.3715
  366W        W 4430   9.603   5.494  10.636  0.2179 -0.0095 -0.1286
  367W        W 4431   6.236   6.368   2.697 -0.0497  0.2499 -0.0941
  368W        W 4432   4.482   0.737   8.823  0.2473  0.4248 -0.0875
  369W        W 4433   3.080   6.117   7.753  0.1321  0.2221  0.0627
  370W        W 4434   1.285   6.367   0.210  0.1994 -0.0379  0.3242
  371W        W 4435   5.095   7.741   0.633  0.0481  0.3247 -0.0291
  372W        W 4436   9.893   0.891   4.023 -0.1931  0.2633 -0.3638
  373W        W 4437   0.143   9.311   2.296  0.2901  0.1338 -0.1218
  374W        W 4438   8.458   0.392   8.755 -0.1419 -0.0196  0.1723
  375W        W 4439   5.488   9.226   1.261  0.0302 -0.0125 -0.0798
  376W        W 4440   7.727   6.950  10.478 -0.0657 -0.2825  0.0316
  377W        W 4441   2.660   7.553   8.708  0.2114 -0.1735  0.0222
  378W        W 4442   4.467   0.756   8.016 -0.1036 -0.2202 -0.0457
  379W        W 4443   2.243   8.436   1.295  0.2778  0.2688  0.0720
  380W        W 4444  10.469  10.280   0.199 -0.0123 -0.0568  0.1192
  381W        W 4445   8.912   9.423  11.080 -0.1115 -0.4436 -0.3161
  382W        W 4446   5.110   4.177   2.203  0.0701  0.1688  0.3904
  383W        W 4447   1.681   5.480   2.756  0.0866  0.0815 -0.0710
  384W        W 4448   8.291   7.311   1.734  0.0435  0.1617  0.0316
  385W        W 4449   9.415   8.224  11.083 -0.1692  0.0089 -0.1576
  386W        W 4450   6.685   4.706   0.450 -0.1705  0.4014 -0.1469
  387W        W 4451   9.934   9.206   8.706 -0.2787 -0.1562  0.2158
  388W        W 4452   2.812   6.935   3.767 -0.0127 -0.0242  0.0083
  389W        W 4453   4.866   4.884   8.682  0.2369  0.0678 -0.1247
  390W        W 4454   4.418   9.946   1.211 -0.3024 -0.1122  0.0003
  391W        W 4455  10.563  10.523   0.680  0.2589 -0.1278 -0.0515
  392W        W 4456   5.305   4.141  11.271 -0.2031 -0.0600  0.1036
  393W        W 4457   0.806   2.349   0.033  0.1873 -0.3549  0.1070
  394W        W 4458   7.964  10.501  10.064  0.2389  0.0675  0.2805
  395W        W 4459   4.510   0.197   9.655 -0.0524  0.0723 -0.0424
  396W        W 4460   2.717  10.599   3.692 -0.3529  0.1496 -0.2063
  397W        W 4461   1.574   6.928   1.532 -0.0178  0.1055 -0.2534
  398W        W 4462   6.229   1.520  10.866  0.0292 -0.0632  0.2036
  399W        W 4463   1.532   2.169   8.112  0.0983 -0.0993  0.0605
  400W        W 4464   3.433   8.545   4.055  0.0160 -0.2753 -0.1803
  401W        W 4465   9.920   8.086  11.060  0.2434 -0.1806 -0.0345
  402W        W 4466   5.317  10.348   2.224  0.1391  0.0114 -0.0383
  403W        W 4467   9.488  10.632   2.969  0.0391 -0.2325  0.1895
  404W        W 4468   2.153   3.640  10.355  0.2399  0.1369 -0.1739
  405W        W 4469   2.394   1.621   1.831  0.0075 -0.2587  0.0600
  406W        W 4470   0.397   9.373   0.761  0.2006  0.0710 -0.1290
  407W        W 4471   9.435   3.022  11.071 -0.0069  0.1744 -0.3244
  408W        W 4472   3.627   4.007   2.119  0.1664 -0.0062 -0.0989
  409W        W 4473   6.020   2.726   3.437  0.1320  0.0698 -0.0121
  410W        W 4474   7.911   8.798   4.045 -0.2289 -0.1288  0.2940
  411W        W 4475   6.470  10.141   2.465 -0.5263  0.1004 -0.0865
  412W        W 4476   7.565   2.470  10.476 -0.2927 -0.0321  0.0598
  413W        W 4477   4.404   0.578  10.127  0.2794 -0.1738 -0.2175
  414W        W 4478   4.968   9.561   3.995 -0.1666  0.0569  0.3194
  415W        W 4479   6.585   3.637  10.738 -0.0959 -0.1413  0.1449
  416W        W 4480  10.186   9.439  11.007  0.0218  0.3250 -0.3583
  417W        W 4481   9.091   0.644   3.474  0.2125 -0.1124  0.2715
  418W        W 4482   4.006   1.957   8.081 -0.0364 -0.1154  0.1969
  419W        W 4483   4.491   2.813   8.275  0.1647 -0.1495  0.0515
  420W        W 4484   7.750   4.091   3.074 -0.1897  0.2131  0.3095
  421W        W 4485   5.809   3.729   9.815 -0.0508  0.0629 -0.1859
  422W        W 4486   1.642   4.727   9.194  0.1169 -0.1032  0.2309
  423W        W 4487   5.988   5.544   9.258 -0.3024  0.1178 -0.0717
  424W        W 4488   6.305   9.687   2.587 -0.2946  0.1564 -0.2952
  425W        W 4489   3.687   7.973  11.233  0.1084 -0.0234  0.1014
  426W        W 4490   4.545   2.755  10.876  0.1845  0.2697  0.1976
  427W        W 4491   3.264   8.405   8.402  0.1089 -0.1665 -0.1178
  428W        W 4492   8.318   1.887   0.627  0.0679  0.3321 -0.0716
  429W        W 4493   6.367   6.208  11.163 -0.1163  0.0631 -0.3394
  430W        W 4494   2.820   2.179   8.584  0.1573  0.1766  0.0130
  431W        W 4495   5.761   3.037   0.771 -0.2809 -0.0080  0.2077
  432W        W 4496   1.258   9.306   0.092  0.1011 -0.0672 -0.1516
  433W        W 4497   6.400   2.087   9.008 -0.0017  0.3092  0.4092
  434W        W 4498   6.046   4.954   7.946 -0.1123  0.1888  0.1969
  435W        W 4499   9.972   1.304   0.208  0.1532 -0.0771 -0.0793
  436W        W 4500   1.490   8.918   8.906 -0.0980  0.2379  0.1134
  437W        W 4501   9.524   5.063  10.239 -0.0287  0.2506 -0.1064
  438W        W 4502  10.577   9.254  11.483  0.1165  0.0419 -0.0696
  439W        W 4503   0.253   0.333   8.496  0.1432 -0.0227  0.0709
  440W        W 4504   4.682   5.205   1.699  0.1482  0.2512 -0.2659
  441W        W 4505   4.578   9.371  10.334  0.0704 -0.0446 -0.0954
  442W        W 4506   2.035   6.232  10.115  0.2950 -0.0116 -0.0863
  443W        W 4507   7.624   5.296   1.294 -0.3211  0.1552  0.1410
  444W        W 4508   5.772   3.779  10.782 -0.0483  0.2788  0.0187
  445W        W 4509   2.502   6.593   3.385 -0.1606  0.0529 -0.2669
  446W        W 4510  10.134   4.056   3.681 -0.3008 -0.0768 -0.1294
  447W        W 4511   0.618   9.166  10.332 -0.3442 -0.3837 -0.1262
  448W        W 4512   9.588   7.288   9.778  0.3172  0.0327 -0.1632
  449W        W 4513   3.016  10.417  11.477  0.1994  0.0960  0.1794
  450W        W 4514   5.265   6.794   0.160 -0.1409  0.0806  0.0940
  451W        W 4515   2.320   8.119   1.750  0.0450 -0.3617  0.3591
  452W        W 4516   2.642   4.091   0.105  0.0932 -0.0563  0.2156
  453W        W 4517   9.090   1.135   8.155 -0.1857  0.1145 -0.2674
  454W        W 4518   2.999   9.050   7.400 -0.2775 -0.0586 -0.2181
  455W        W 4519   0.915   5.111   2.463 -0.0159 -0.0037  0.0702
  456W        W 4520   0.084   2.850   9.901 -0.0521  0.0935  0.2283
  457W        W 4521   7.418   6.019   3.852 -0.0617 -0.0548 -0.0754
  458W        W 4522   3.828   6.493   0.441  0.2258 -0.0496 -0.0240
  459W        W 4523   6.258   1.082   0.303 -0.3086 -0.1805  0.3844
  460W        W 4524   9.158   0.727  10.505  0.1882 -0.0339  0.1450
  461W        W 4525   0.022   7.493   2.146 -0.1575 -0.2452 -0.1854
  462W        W 4526   9.207  10.571   9.259  0.2050  0.0707 -0.0200
  463W        W 4527   0.965   7.128   2.024  0.1883 -0.1395  0.2175
  464W        W 4528   2.890   7.534   0.643  0.2450 -0.3250 -0.1524
  465W        W 4529   4.529   9.744   3.800 -0.0430 -0.1968 -0.1933
  466W        W 4530   5.344   5.219   8.599  0.0083  0.1438  0.0938
  467W        W 4531   0.597   8.445  11.297 -0.0923 -0.3070 -0.1372
  468W        W 4532   7.020   6.829   0.287  0.0607 -0.1806  0.1933
  469W        W 4533   6.255   0.913   2.599 -0.1241  0.0044  0.2151
  470W        W 4534   8.595   8.993   1.682 -0.1754 -0.3611 -0.0974
  471W        W 4535   6.835   4.149   8.365 -0.0496  0.4406 -0.1598
  472W        W 4536   5.131   8.568  10.569 -0.3053  0.0351 -0.0177
  473W        W 4537   3.091   3.055  10.337  0.2107  0.1649 -0.3292
  474W        W 4538   7.613   6.224   0.944 -0.0895 -0.2036  0.1375
  475W        W 4539   4.714   1.303   3.242 -0.0595  0.2786 -0.0489
  476W        W 4540  10.377   8.334   3.096 -0.2806 -0.0908  0.0438
  477W        W 4541   9.671   4.256  10.627 -0.1056  0.1754  0.0476
  478W        W 4542   2.437   6.147   9.896 -0.1201  0.0859  0.2509
  479W        W 4543   3.769   4.053  11.074 -0.1370 -0.0312 -0.2203
  480W        W 4544  10.594   4.093   1.158  0.2061  0.0082  0.0220
  481W        W 4545   4.391   2.494   2.733 -0.0350  0.2219  0.1170
  482W        W 4546   2.555   0.360   9.744  0.0769  0.0885 -0.2657
  483W        W 4547   0.714   9.051   0.561 -0.1629  0.0285  0.0630
  484W        W 4548  10.109   5.628  10.998 -0.1431 -0.1799 -0.0559
  485W        W 4549   4.520   4.330   0.631 -0.0862 -0.1274 -0.0985
  486W        W 4550   1.752   0.986   2.200 -0.1253 -0.3757 -0.1069
  487W        W 4551   7.029   4.178  11.446 -0.1638 -0.0520  0.3006
  488W        W 4552   0.804   5.539   7.745  0.1531  0.3000 -0.0323
  489W        W 4553   3.277  10.451   9.957  0.0392  0.3159  0.3238
  490W        W 4554   8.320   5.890   2.811  0.1130  0.0315 -0.0713
  491W        W 4555   7.891   6.711   0.171 -0.2761 -0.3445  0.4478
  492W        W 4556   2.245   0.903   4.151 -0.1795  0.0536 -0.3037
  493W        W 4557   1.089   5.372   9.656  0.0795 -0.2116 -0.1844
  494W        W 4558   2.705   4.334   2.770 -0.2866 -0.2430 -0.1448
  495W        W 4559   9.726   1.647  11.423  0.2682 -0.0110  0.0623
  496W        W 4560   7.728   1.970   9.771  0.2703 -0.1811 -0.3189
  497W        W 4561   4.471   1.789   8.027  0.4164  0.0296 -0.1329
  498W        W 4562   8.448   2.908   3.040 -0.1333 -0.0408  0.2767
  499W        W 4563   0.607   3.857   2.150  0.1528 -0.5193 -0.1421
  500W        W 4564   9.670   0.280   7.948 -0.2223 -0.2647  0.0954
  501W        W 4565   8.226   0.138   9.424  0.0408  0.0680 -0.0438
  502W        W 4566   5.977   9.338   1.678  0.2226  0.2055  0.2203
  503W        W 4567   2.380   4.265   8.443 -0.2872  0.0662  0.3047
  504W        W 4568   6.179   3.442  10.043 -0.3754 -0.3924 -0.0075
  505W        W 4569   5.225   6.354   6.854  0.0052 -0.3995  0.1241
  506W        W 4570   4.310   9.622  10.007  0.0952  0.0303  0.1623
  507W        W 4571   2.526   5.731  10.874 -0.0145  0.2887 -0.3561
  508W        W 4572   5.424   4.148   0.964 -0.2090 -0.1109  0.1793
  509W        W 4573   6.594   6.980   0.811 -0.0860  0.1773  0.2356
  510W        W 4574   3.459   1.128   3.248  0.0152  0.0656  0.1606
  511W        W 4575   6.992   0.901   9.433  0.1055  0.0772  0.0827
  512W        W 4576   3.919   6.663   9.872  0.2804  0.2967  0.1518
  513W        W 4577   7.040   5.743   0.377 -0.1160  0.1199  0.1401
  514W        W 4578   4.706   9.674   9.070 -0.3329  0.0583  0.0359
  515W        W 4579   9.051   4.272   0.425 -0.0038  0.2312  0.0895
  516W        W 4580   1.424   7.501  11.208  0.3947 -0.0347 -0.3201
  517W        W 4581   2.206   3.997  11.323 -0.2156  0.0761 -0.1167
  518W        W 4582   2.618   6.495   8.159 -0.1761 -0.0551 -0.3335
  519W        W 4583   6.860   7.103   3.018 -0.0005 -0.0763 -0.2074
  520W        W 4584   8.175   9.479   3.500  0.2118  0.1947 -0.1361
  521W        W 4585   5.976   5.394   0.103  0.2106 -0.2401  0.3540
  522W        W 4586   4.109   9.467   9.119  0.0097 -0.0820 -0.0846
  523W        W 4587   1.344   2.566  10.222  0.1184  0.0938  0.0152
  524W        W 4588   9.626   5.738   3.228  0.0365  0.0313 -0.0806
  525W        W 4589   8.688   3.184   8.559  0.2254 -0.1622  0.3181
  526W        W 4590   2.080   1.819  10.982  0.0810  0.2577  0.2521
  527W        W 4591   6.558   0.674  10.628 -0.2179  0.0710  0.1648
  528W        W 4592   6.501  10.427   9.602 -0.2396  0.3070 -0.0002
  529W        W 4593   6.155   9.070   0.265 -0.2964  0.0376  0.2103
  530W        W 4594   7.324   1.929   0.279  0.1285 -0.0800 -0.0166
  531W        W 4595   1.867   3.954  10.634 -0.0769 -0.0838  0.1192
  532W        W 4596   6.159   3.129   9.130 -0.1477 -0.2516 -0.0776
  533W        W 4597   0.854   2.479   8.317  0.3006 -0.0364  0.0657
  534W        W 4598   9.779   8.482  10.742  0.1607  0.2029  0.0239
  535W        W 4599   8.605   6.888   8.246  0.3822  0.0496  0.3230
  536W        W 4600   4.611   3.780   0.504 -0.2124  0.0192  0.0662
  537W        W 4601   6.639   1.584  10.260 -0.0400 -0.2161 -0.1565
  538W        W 4602   0.564   3.528   0.013  0.0997  0.0676 -0.3349
  539W        W 4603   8.028   7.722  11.282 -0.3440 -0.3473  0.0293
  540W        W 4604   2.741   2.218   0.870  0.0150  0.0663  0.1638
  541W        W 4605   1.213   8.494  10.107 -0.0301  0.2022 -0.1093
  542W        W 4606   1.143   7.720  10.162  0.0294  0.1161 -0.0146
  543W        W 4607   4.295   9.828   0.362 -0.4334 -0.1972 -0.3577
  544W        W 4608   5.908   7.472   0.398 -0.0928 -0.0796  0.0375
  545W        W 4609   9.723   4.438   2.276 -0.0173 -0.2261  0.1916
  546W        W 4610   0.593   2.065   2.560  0.0047 -0.0582  0.0453
  547W        W 4611   9.079  10.314   9.758  0.2348  0.0895  0.1139
  548W        W 4612  10.023   2.957  10.250  0.1260  0.0079  0.2030
  549W        W 4613   2.005   9.966  10.111 -0.0313 -0.0104 -0.0995
  550W        W 4614   5.223   0.232   0.357  0.5706 -0.0478  0.0380
  551W        W 4615   9.914   7.345   3.744  0.1272  0.0987 -0.1677
  552W        W 4616  10.454   5.598   0.891  0.0992  0.1097 -0.2753
  553W        W 4617   9.634   4.114   0.004  0.2968  0.1007 -0.1273
  554W        W 4618  10.512   9.757  10.880 -0.1108 -0.1086  0.2504
  555W        W 4619   4.467   5.100  11.420  0.1491  0.0576 -0.0687
  556W        W 4620   9.157   3.842   0.106  0.3342  0.2247  0.1997
  557W        W 4621   2.876   7.045  11.217  0.0600  0.1411 -0.1581
  558W        W 4622   2.063   5.360  10.295 -0.2114  0.1158 -0.2329
  559W        W 4623   4.523   9.793   8.660  0.0178  0.3556  0.3348
  560W        W 4624   4.115   5.760   2.791  0.0826  0.2718 -0.2550
  561W        W 4625   6.519   3.685   0.536 -0.1457 -0.2540  0.1561
  562W        W 4626   1.332   2.369   2.822 -0.2460  0.0868  0.0525
  563W        W 4627  10.537   2.599  10.982  0.1844  0.0548  0.1444
  564W        W 4628   6.567   3.287   1.009  0.0332  0.0153 -0.0083
  565W        W 4629   2.254   2.767   1.168  0.0242 -0.0610  0.0048
  566W        W 4630   6.435   2.984  10.052  0.0307 -0.0054  0.3232
  567W        W 4631   4.078   0.914   2.420  0.1027 -0.1624 -0.1114
  568W        W 4632   7.700   2.846   0.323 -0.0627 -0.0994 -0.3945
  569W        W 4633   3.316   3.301   3.383 -0.0273 -0.2247  0.0845
  570W        W 4634   1.513   9.863   8.974 -0.1322 -0.0240  0.1691
  571W        W 4635   8.588   7.500  10.077 -0.2259 -0.0622  0.0467
  572W        W 4636   8.862   4.432   7.156  0.2023  0.0630  0.0128
  573W        W 4637   4.285   5.626   7.653 -0.0600  0.2925  0.0223
  574W        W 4638   8.412  10.625   1.020  0.4015  0.4561  0.1387
  575W        W 4639   8.316   7.873   3.542 -0.4397  0.0859 -0.0357
  576W        W 4640   2.548   4.868   1.691  0.0595 -0.4752  0.0722
  577W        W 4641   9.676   3.056  10.618 -0.0234 -0.0702 -0.3253
  578W        W 4642   3.312   5.288   8.029 -0.2791 -0.0624  0.5410
  579W        W 4643   4.066   6.873   2.590 -0.0988  0.1466 -0.1028
  580W        W 4644   8.770   1.198  10.112 -0.1115  0.0490  0.4558
  581W        W 4645   8.420   6.730   0.546  0.0753  0.1095  0.0916
  582W        W 4646   5.805   9.798   9.382 -0.2208 -0.1017 -0.0244
  583W        W 4647   5.706   1.558   8.238  0.1891  0.0919 -0.1282
  584W        W 4648   2.651   6.341  10.294  0.2673 -0.6367 -0.2311
  585W        W 4649   4.705   4.833   0.260 -0.0187 -0.0834  0.1714
  586W        W 4650   4.407  10.646   8.210  0.2108 -0.4400  0.0357
  587W        W 4651   3.180   6.006   1.522 -0.0710 -0.2368 -0.1167
  588W        W 4652   4.301   2.145   9.431  0.0778  0.0091  0.2937
  589W        W 4653   1.217   2.251  10.665  0.1926  0.0974 -0.0014
  590W        W 4654   0.019   1.145   0.325 -0.2588 -0.2054 -0.2163
  591W        W 4655   6.908   6.142   2.104  0.0035  0.2299  0.3017
  592W        W 4656   0.301   7.822   3.698 -0.0537  0.1164 -0.0794
  593W        W 4657   2.531  10.005   1.055 -0.0791  0.1433  0.1137
  594W        W 4658   5.355   6.322   1.274 -0.2973  0.0404  0.0952
  595W        W 4659   6.050   9.993   2.313  0.2933 -0.2098 -0.0840
  596W        W 4660   4.943   6.540   1.008 -0.2763  0.0381 -0.0941
  597W        W 4661   3.519   5.385  10.073 -0.0281  0.3426  0.0653
  598W        W 4662   9.146   6.927  10.420  0.4821 -0.2061  0.0757
  599W        W 4663   3.795   9.857   3.517 -0.2298  0.1120  0.0568
  600W        W 4664   7.303   5.722  10.647  0.3019  0.0098  0.2176
  601W        W 4665   2.703   5.151   3.692  0.0335  0.1426  0.3927
  602W        W 4666   5.439   6.597  11.253 -0.1549 -0.1438 -0.2161
  603W        W 4667   7.782   4.755  10.911 -0.0799 -0.2776 -0.2313
  604W        W 4668   3.736   3.123   9.026  0.3782  0.1247 -0.0440
  605W        W 4669   9.390   9.172   2.219 -0.0108 -0.0207 -0.2728
  606W        W 4670   9.470   1.970   1.317  0.2552 -0.1466  0.1699
  607W        W 4671   6.028   2.629   2.223 -0.3963  0.0732  0.1654
  608W        W 4672   1.076   8.217   1.065  0.1927 -0.1281  0.1921
  609W        W 4673   5.750   0.741   8.923 -0.2451 -0.0316  0.1293
  610W        W 4674   7.690   5.871   8.722 -0.1402 -0.2038  0.1179
  611W        W 4675   8.801   0.341   3.086 -0.1858  0.1401 -0.3270
  612W        W 4676   0.926   8.489   3.034 -0.0525  0.3884  0.1512
  613W        W 4677   2.300   0.400   8.841  0.0082 -0.1282 -0.0409
  614W        W 4678   2.786   2.437   1.847  0.4120 -0.2433  0.0508
  615W        W 4679   3.770   6.691   3.870 -0.0533 -0.1443 -0.1575
  616W        W 4680   8.017   4.948   2.425 -0.1039  0.0671 -0.0295
  617W        W 4681   0.427   4.685   1.816  0.0248 -0.0962 -0.2281
  618W        W 4682   2.938   7.787   3.985  0.0217 -0.0317 -0.1932
  619W        W 4683   7.062   1.882  10.004 -0.1329  0.1364 -0.1626
  620W        W 4684   1.042   1.296   9.517 -0.1029  0.2195 -0.0987
  621W        W 4685   0.379   1.709   2.867  0.0550  0.1717  0.0906
  622W        W 4686   5.121   4.015   9.313  0.1689  0.0836 -0.1626
  623W        W 4687  10.198   5.949   1.750  0.1122  0.0540  0.0271
  624W        W 4688   0.548   1.709   3.364  0.1615 -0.0563 -0.1641
  625W        W 4689  10.557   7.524   8.953 -0.1730  0.0855 -0.0368
  626W        W 4690   8.659   3.712   0.284  0.4048 -0.2543  0.0025
  627W        W 4691   6.729   7.104   2.442  0.0536 -0.0451 -0.0546
  628W        W 4692   9.368   9.518  10.439 -0.0189  0.1503  0.0064
  629W        W 4693   4.390   8.952   0.390 -0.0712  0.1105 -0.0231
  630W        W 4694   7.893  10.334   9.056  0.0829  0.2140 -0.2997
  631W        W 4695   8.426   8.787   8.380 -0.3267 -0.1758 -0.0912
  632W        W 4696   8.336   8.205   7.511 -0.3716 -0.1979 -0.0235
  633W        W 4697   9.942   3.530   8.707 -0.1330  0.1571  0.2258
  634W        W 4698   1.205   1.414   0.967 -0.1800 -0.4571 -0.2345
  635W        W 4699   2.128   5.551   8.406 -0.3269  0.1077 -0.0631
  636W        W 4700   5.198   3.480   2.627  0.1963 -0.1793  0.3353
  637W        W 4701   3.867   9.030  11.411  0.3977 -0.1308  0.1080
  638W        W 4702   8.889   0.216   1.088 -0.0398  0.0532 -0.0034
  639W        W 4703   0.861   0.127   0.755  0.0155 -0.1617 -0.2028
  640W        W 4704   0.046   0.442   2.215 -0.1270 -0.2111  0.0416
  641W        W 4705   3.012   0.368   8.209  0.2104  0.2211  0.2583
  642W        W 4706   2.328  10.542   0.398 -0.1417 -0.0526 -0.1703
  643W        W 4707   9.508   8.848  11.014  0.2481 -0.0231  0.0346
  644W        W 4708  10.203   1.183   2.814 -0.1010 -0.1590 -0.2770
  645W        W 4709  10.508   3.599   2.826  0.0918  0.1598 -0.0660
  646W        W 4710   0.290   2.479   9.523  0.0730  0.0033 -0.0006
  647W        W 4711   9.888   3.763   2.782  0.0082  0.0129  0.3530
  648W        W 4712   2.440   6.235   0.008  0.0644  0.2690 -0.1410
  649W        W 4713   0.008   7.037   0.591  0.0043 -0.1677  0.0836
  650W        W 4714   4.624   9.076   2.637 -0.1391  0.0488 -0.2161
  651W        W 4715   9.528   3.033   0.896 -0.1015  0.0649 -0.1045
  652W        W 4716   4.804   2.679   9.269  0.1945 -0.2575  0.1059
  653W        W 4717   8.858   4.366   3.368 -0.3948  0.3561  0.2327
  654W        W 4718   0.891   0.470  11.446 -0.1668 -0.1989 -0.0965
  655W        W 4719   8.393   0.430   1.311 -0.1921 -0.0261 -0.1951
  656W        W 4720   0.113   3.021  10.819  0.0854  0.2651  0.0726
  657W        W 4721   9.179   2.178  10.525 -0.2079 -0.0133  0.1155
  658W        W 4722   9.317   0.275   1.620 -0.0048 -0.0668  0.0073
  659W        W 4723   8.815   4.589   0.181  0.0377  0.1713  0.0127
  660W        W 4724   4.685   7.900   3.864 -0.0212  0.1771 -0.0124
  661W        W 4725   8.965   5.335   3.098 -0.1354 -0.2190  0.2050
  662W        W 4726   0.286   0.403   7.575  0.0383 -0.1388 -0.2460
  663W        W 4727   4.602   7.016   0.277  0.1018  0.0415 -0.2017
  664W        W 4728   1.497   1.654   9.545  0.1389 -0.1519 -0.1857
  665W        W 4729   2.553   8.762   9.039  0.3148 -0.1854 -0.1766
  666W        W 4730   8.416  10.581  10.351 -0.1301 -0.0020  0.0390
  667W        W 4731   2.488   1.524  10.931 -0.3726  0.0822  0.0825
  668W        W 4732   5.796   2.429   9.679 -0.4746  0.1497  0.0336
  669W        W 4733   4.701   7.287   1.248 -0.0616 -0.0457 -0.0908
  670W        W 4734   7.246   7.422   2.964  0.1578  0.1934 -0.1571
  671W        W 4735   6.288   9.517   0.548 -0.1426  0.2827 -0.0444
  672W        W 4736   9.969   4.086   0.870 -0.0460 -0.1758 -0.0270
  673W        W 4737   2.086   1.982  10.214  0.4583  0.0692 -0.0455
  674W        W 4738   2.976   9.281   7.832 -0.0764 -0.1840 -0.0810
  675W        W 4739  10.649   5.922   7.219 -0.0646 -0.2467 -0.0806
  676W        W 4740  10.602   9.245   1.002 -0.0577 -0.1687 -0.3456
  677W        W 4741   4.193   3.752   1.222  0.1916  0.0550  0.2234
  678W        W 4742   0.036   2.217   8.023 -0.0706 -0.0062 -0.0609
  679W        W 4743   7.868   9.116   3.301  0.1288 -0.0808  0.1903
  680W        W 4744   7.208   0.099   9.549  0.0328 -0.3452 -0.1617
  681W        W 4745   0.173   5.848   1.662  0.1580  0.2245  0.0652
  682W        W 4746   4.153   9.548   3.570  0.0081 -0.1675  0.1026
  683W        W 4747  10.217   4.514   7.888  0.0569 -0.3609 -0.0575
  684W        W 4748   4.743  10.229  11.163 -0.0375 -0.2455 -0.0787
  685W        W 4749   9.701   4.129   1.834 -0.0150  0.1549 -0.1556
  686W        W 4750   4.687   2.280   3.121  0.1567  0.0143 -0.0808
  687W        W 4751   6.525   4.303  10.419 -0.0128  0.1033 -0.2434
  688W        W 4752   4.802   1.560   8.985  0.0863 -0.0831  0.0931
  689W        W 4753   0.542   4.199   9.345 -0.2538  0.1980 -0.0675
  690W        W 4754   8.660  10.110  10.521  0.0502 -0.0786 -0.0675
  691W        W 4755   4.917  10.577   8.071 -0.0195 -0.1939  0.0473
  692W        W 4756   8.397   4.950   1.378 -0.1112  0.2652 -0.0435
  693W        W 4757   7.332   9.572   2.238  0.1267 -0.1140  0.0883
  694W        W 4758   4.266   3.329   8.333 -0.1582 -0.2262  0.1877
  695W        W 4759   1.904   0.586  11.392  0.3288 -0.0867  0.0988
  696W        W 4760   9.547   7.754   7.009  0.1981 -0.0400  0.0872
  697W        W 4761   2.152   6.727   9.717 -0.0523 -0.0290  0.4302
  698W        W 4762  10.349   7.282   8.450 -0.1100  0.2056 -0.2996
  699W        W 4763   2.378   2.323   8.351 -0.0388  0.0321  0.1125
  700W        W 4764   8.478   9.030   8.792  0.2116  0.6984  0.0405
  701W        W 4765   6.128   3.811   2.584 -0.0033 -0.0869 -0.0198
  702W        W 4766   5.122   7.709   8.946 -0.0946  0.2043 -0.0375
  703W        W 4767  10.294   8.576   1.547 -0.0812 -0.0274  0.2701
  704W        W 4768   6.655   4.871   9.780  0.2246  0.2428 -0.0523
  705W        W 4769   7.843   9.264   1.262 -0.1839 -0.0338 -0.0187
  706W        W 4770   5.271   1.810  10.485  0.1950 -0.0261 -0.1057
  707W        W 4771  10.056   3.932  10.366 -0.2312 -0.3551  0.2594
  708W        W 4772   5.233   7.821   2.367  0.2334 -0.0484  0.2058
  709W        W 4773   8.855   9.884   8.304  0.0851 -0.0771  0.0328
  710W        W 4774   0.859   0.983   8.557  0.1715  0.0065  0.1191
  711W        W 4775   8.276   8.825   7.871  0.3224 -0.3342 -0.2530
  712W        W 4776   9.867   3.240   9.216 -0.1362  0.3771 -0.2905
  713W        W 4777   2.583   1.620   0.743  0.3252 -0.2584 -0.1962
  714W        W 4778   5.302   6.273   3.070 -0.3457 -0.1334  0.2244
  715W        W 4779   9.720   2.707   0.471 -0.0783 -0.2248  0.1976
  716W        W 4780   4.389   8.275   3.031 -0.3127  0.0381  0.3104
  717W        W 4781   2.043   1.327  10.919  0.0647 -0.1623 -0.2885
  718W        W 4782   5.779   7.046   0.604 -0.0707 -0.0535 -0.0102
  719W        W 4783   4.122   3.164  10.808  0.1263 -0.1394  0.0366
  720W        W 4784   1.870   6.292   3.277 -0.1104  0.2213 -0.0986
  721W        W 4785   2.265   8.364   2.587  0.0350 -0.3091  0.3199
  722W        W 4786   3.039   6.966   0.514  0.0694 -0.2430 -0.2000
  723W        W 4787   0.479  10.473   2.934  0.0591 -0.2102 -0.0054
  724W        W 4788   3.999   9.482   2.025 -0.1887  0.3612  0.1192
  725W        W 4789   4.917   7.418   1.852  0.0972 -0.0454  0.0228
  726W        W 4790   1.346   9.525   9.412  0.4137 -0.1067 -0.1132
  727W        W 4791   0.033   0.161   8.006  0.1179  0.0150 -0.5401
  728W        W 4792   7.932   3.844   8.111 -0.0265 -0.2379  0.2946
  729W        W 4793   3.925   1.598   0.662 -0.0288 -0.0992 -0.1499
  730W        W 4794   9.083   9.318   8.719  0.1016 -0.2880 -0.1201
  731W        W 4795   7.061   0.521   1.294  0.2150 -0.3191 -0.0681
  732W        W 4796   5.054   4.674   9.159 -0.0181  0.0799 -0.0596
  733W        W 4797   6.823   5.561   1.794 -0.1305  0.3623  0.1114
  734W        W 4798   0.169   5.140   8.447  0.3662 -0.3045 -0.0301
  735W        W 4799   2.160   6.434   7.926  0.2385  0.1269  0.1489
  736W        W 4800   6.782   9.634   2.951  0.2740 -0.0335 -0.3925
  737W        W 4801   9.084   5.621   8.728 -0.1887 -0.2100 -0.0927
  738W        W 4802  10.643   9.775   2.072  0.2093  0.2644 -0.0690
  739W        W 4803   2.911   8.638   8.708 -0.0971 -0.1235  0.1269
  740W        W 4804   7.723   7.508   7.742  0.2568  0.2219 -0.2287
  741W        W 4805   1.737   3.099   2.451 -0.0270 -0.0285 -0.0516
  742W        W 4806   1.089   5.520   0.435 -0.0995 -0.2156  0.1866
  743W        W 4807   8.794   0.730   8.349  0.2562 -0.2090 -0.1909
  744W        W 4808   7.555   6.274   9.547  0.0457  0.0520 -0.0650
  745W        W 4809   3.959   1.872   2.225 -0.1298  0.0842 -0.0715
  746W        W 4810   5.042  10.037   8.900 -0.2750  0.1294  0.1816
  747W        W 4811   3.697   0.167   0.288 -0.0896 -0.0983 -0.1903
  748W        W 4812   3.485   4.575   2.092  0.0300 -0.0449  0.1166
  749W        W 4813   3.014   3.417   1.504  0.1981 -0.0507 -0.0944
  750W        W 4814   3.821   8.150  10.287 -0.2139  0.2489 -0.3632
  751W        W 4815  10.626   4.976   3.015  0.0210  0.3759  0.1657
  752W        W 4816   4.802   8.958   0.065 -0.0859 -0.0759  0.4796
  753W        W 4817   5.734   9.765  10.495 -0.0155 -0.3720  0.0267
  754W        W 4818   5.477   7.766   1.644 -0.1507 -0.0714 -0.3237
  755W        W 4819   5.278   6.218   4.053  0.2670 -0.1182 -0.2853
  756W        W 4820   4.565   7.787   1.588  0.1854  0.2669 -0.0060
  757W        W 4821   1.071   9.861   0.083  0.1969  0.1746 -0.2819
  758W        W 4822   4.101   2.760  10.465 -0.1005 -0.2488 -0.0796
  759W        W 4823   4.432   6.537   0.447  0.1161 -0.1123 -0.1125
  760W        W 4824   5.754   8.864   9.299 -0.2780  0.1864  0.0566
  761W        W 4825   4.676   5.838   0.501 -0.1436 -0.0665 -0.1880
  762W        W 4826   4.339   3.753  10.588 -0.0434  0.2242  0.0014
  763W        W 4827  10.441   6.190   2.249 -0.0337  0.3334  0.1866
  764W        W 4828   1.064   5.300   4.003 -0.1286 -0.4250  0.1538
  765W        W 4829   4.089   6.504  10.961 -0.1872  0.1060 -0.1591
  766W        W 4830   0.277   4.864  10.449  0.1044 -0.3244 -0.0211
  767W        W 4831   1.730   5.024   8.167  0.0370 -0.1829  0.1157
  768W        W 4832   2.398  10.420   8.298  0.1704  0.0055  0.1592
  769W        W 4833   6.319   7.622   2.110  0.2193  0.0045  0.2576
  770W        W 4834   4.779   6.492   8.258 -0.0120 -0.0988  0.1801
  771W        W 4835   1.615   3.206   1.741 -0.0374 -0.1471  0.0998
  772W        W 4836   8.028   2.124   3.110  0.2625 -0.1354  0.2644
  773W        W 4837   6.120   0.789  10.432  0.0119  0.3277  0.0654
  774W        W 4838   5.483   9.607   0.931 -0.0433  0.3804 -0.1750
  775W        W 4839   4.482   8.145   1.228  0.2194 -0.1122  0.3134
  776W        W 4840   0.354   5.478   8.106 -0.1568 -0.1648 -0.2302
  777W        W 4841   3.276   9.912   1.532 -0.1323  0.0767 -0.0877
  778W        W 4842   2.431   4.920   0.922 -0.2442 -0.2232  0.5744
  779W        W 4843   0.254   2.743  11.258  0.2379  0.0714  0.2262
  780W        W 4844   8.238   5.356   2.975  0.3176 -0.2868  0.0614
  781W        W 4845   1.498   8.438   8.784  0.0251 -0.3554 -0.2204
  782W        W 4846   8.520   8.218   1.156  0.1350  0.0433  0.0370
  783W        W 4847   9.263   1.421   8.973 -0.0685  0.0070  0.2099
  784W        W 4848   8.364   5.003   0.789 -0.1239 -0.5510  0.0780
  785W        W 4849  10.411   9.326   1.799  0.0734  0.3293 -0.0114
  786W        W 4850   5.111   2.736   8.649 -0.3568  0.0034 -0.1829
  787W        W 4851   4.030   2.536   9.930  0.0417  0.0959  0.1147
  788W        W 4852   8.525   5.399   1.191 -0.1397 -0.0312 -0.0007
  789W        W 4853   7.714   4.616   2.752  0.1070 -0.1061  0.1386
  790W        W 4854   3.562   8.675   1.979  0.3818  0.0753 -0.0919
  791W        W 4855  10.443   5.496   1.563 -0.2183 -0.0426  0.0584
  792W        W 4856   7.337   3.182   2.118 -0.0302 -0.1839  0.0971
  793W        W 4857   5.772   3.169   3.066  0.2387 -0.1185 -0.0605
  794W        W 4858   8.035   4.364   9.626 -0.1310  0.0232 -0.6062
  795W        W 4859   7.406   8.366   1.311  0.3861 -0.0913  0.1944
  796W        W 4860   1.763   6.122  10.714 -0.1069  0.0123 -0.1175
  797W        W 4861   1.371   9.288   0.905  0.0530  0.3565 -0.0941
  798W        W 4862   2.798   5.675   8.755  0.2028  0.2927 -0.2034
  799W        W 4863   4.652   5.114   9.094 -0.0265 -0.2283 -0.0648
  800W        W 4864   7.793   6.620   1.226  0.0723  0.2465  0.0964
  801W        W 4865   0.406   9.467  11.390 -0.2010 -0.2893 -0.0941
  802W        W 4866   7.941   8.144   1.179 -0.1239 -0.3143 -0.1638
  803W        W 4867   0.958   3.469   3.257 -0.1244  0.0466 -0.0804
  804W        W 4868   9.725   2.919   2.655  0.3809  0.0471 -0.1518
  805W        W 4869   8.413   4.804   3.341  0.1772  0.2247  0.0672
  806W        W 4870   9.019   9.880   3.549 -0.1065 -0.0338  0.0078
  807W        W 4871   8.807   9.465   0.887  0.0560 -0.2606 -0.5233
  808W        W 4872   9.087   8.549   8.042  0.0961  0.3992 -0.1439
  809W        W 4873   8.706   0.373  10.470  0.2051  0.2625 -0.0097
  810W        W 4874   7.528   9.815   1.857  0.0753 -0.2994 -0.0129
  811W        W 4875   2.530   4.475   8.886  0.2526 -0.2924  0.2622
  812W        W 4876   7.136   6.558   2.374 -0.0125 -0.2290  0.2384
  813W        W 4877  10.051   2.324  11.122 -0.1742  0.2431  0.1752
  814W        W 4878   7.985   0.693   1.385  0.1456 -0.0172  0.0288
  815W        W 4879   5.639   5.196  10.696  0.3338  0.0193 -0.1069
  816W        W 4880   1.796   2.004   1.267 -0.2095 -0.3678 -0.0718
  817W        W 4881   2.920   3.832   9.166 -0.1162 -0.0132 -0.0274
  818W        W 4882   2.506   3.172   2.540  0.0449 -0.0014  0.1301
  819W        W 4883   8.727   9.529   1.874  0.1716 -0.2391  0.0736
  820W        W 4884   4.518   3.137  11.195 -0.0159 -0.3817 -0.3376
  821W        W 4885   6.095   1.372   2.794 -0.1622 -0.0591  0.1952
  822W        W 4886  10.477   7.262  10.214 -0.4534 -0.4704 -0.1291
  823W        W 4887   5.291   0.706   9.181  0.0383  0.2001  0.0873
  824W        W 4888   1.482   0.495   3.321  0.2292 -0.0780  0.0994
  825W        W 4889   3.706   9.918   8.352  0.0105 -0.0717 -0.2279
  826W        W 4890   8.662   7.016   1.478  0.2541 -0.2014 -0.4265
  827W        W 4891   0.913   4.282  10.531  0.3785  0.2607 -0.1274
  828W        W 4892   7.736   8.748  10.565 -0.0925 -0.1008  0.0254
  829W        W 4893   1.347  10.337   7.302 -0.0303 -0.2229 -0.0294
  830W        W 4894   0.453   9.381   1.791 -0.1924 -0.0385  0.0045
  831W        W 4895   1.029   8.942   7.561  0.0564 -0.0394 -0.0311
  832W        W 4896  10.023   4.497   7.429 -0.2339 -0.1943  0.6588
  833W        W 4897   6.917   0.372  10.279  0.0554  0.2438  0.0133
  834W        W 4898   1.913   5.782  11.217  0.2002 -0.0286 -0.0657
  835W        W 4899   3.285   0.350   2.589 -0.0925 -0.1234 -0.0636
  836W        W 4900   4.245   9.934   9.398 -0.1330  0.1033  0.3021
  837W        W 4901   8.380   9.811   8.185  0.2039  0.0647  0.0841
  838W        W 4902   3.485   7.417   9.945  0.2390 -0.3228 -0.0213
  839W        W 4903   9.332   8.950   8.114 -0.1110 -0.0360 -0.1246
  840W        W 4904   2.393   0.782   2.375 -0.1677  0.0562  0.3655
  841W        W 4905   0.087   6.705  10.165 -0.2606  0.0751 -0.0377
  842W        W 4906   7.318   4.238   8.568 -0.0177  0.2813  0.1266
  843W        W 4907  10.100   8.398   1.080  0.1899  0.1040 -0.1220
  844W        W 4908   9.954   0.808  10.985  0.0187 -0.1458  0.3399
  845W        W 4909   3.623   9.628   9.172 -0.0367  0.4263  0.0259
  846W        W 4910   7.703  10.539  11.502 -0.0537 -0.1332  0.2475
  847W        W 4911   5.204   9.925   2.551 -0.1331  0.0717 -0.1620
  848W        W 4912   7.859   1.514   9.700  0.0336  0.1341  0.0253
  849W        W 4913   1.091   6.157   9.273 -0.0536  0.1630  0.1116
  850W        W 4914   3.345   9.514  10.244 -0.1107 -0.1839 -0.0107
  851W        W 4915   9.386   0.462   0.215 -0.0559 -0.2404 -0.2341
  852W        W 4916   9.019   4.544   9.524  0.1583  0.0659 -0.0884
  853W        W 4917   7.461   1.602   9.990 -0.0385 -0.0481 -0.3241
  854W        W 4918  10.561   1.661   0.492  0.2282  0.5118  0.3179
  855W        W 4919   8.641   3.770   8.925  0.0311  0.1110 -0.0759
  856W        W 4920   7.564   6.210   7.574  0.2769  0.0859  0.0552
  857W        W 4921   1.238   1.644   9.111 -0.3816  0.0766 -0.0927
  858W        W 4922  10.273   7.956  10.064 -0.0512 -0.1522 -0.2857
  859W        W 4923   3.843  10.191  10.676  0.0334  0.0569 -0.2214
  860W        W 4924   9.923   0.029  11.395 -0.0242  0.0455 -0.0219
  861W        W 4925   2.046   3.149   2.802 -0.1982  0.3190 -0.3761
  862W        W 4926   3.846   9.761   2.891  0.3090 -0.0956 -0.0752
  863W        W 4927   9.168   2.395  10.058  0.0178  0.0124  0.3056
  864W        W 4928   6.291   2.340   9.446 -0.2915 -0.0274 -0.0268
  865W        W 4929   0.658   9.693   9.660 -0.1857 -0.2494  0.1197
  866W        W 4930  10.239   1.046   1.397  0.2284  0.0666  0.0188
  867W        W 4931   5.223   5.809  10.235 -0.0179 -0.0675 -0.0239
  868W        W 4932   2.213   4.481   2.691 -0.2633  0.1445  0.0362
  869W        W 4933   1.027   0.011   8.710 -0.1872  0.1894  0.2877
  870W        W 4934   2.783   9.520   0.022 -0.2335  0.1395 -0.1208
  871W        W 4935   7.351   7.216   9.625 -0.1313  0.3602  0.0728
  872W        W 4936   7.402   5.297   8.037 -0.1708  0.1711  0.1032
  873W        W 4937   7.790   5.020  10.490  0.0974  0.1805 -0.2259
  874W        W 4938   7.954   7.199   2.186 -0.0787  0.0185  0.2175
  875W        W 4939   6.616   8.940   8.648  0.3556  0.0062  0.2288
  876W        W 4940   9.663   9.854  11.396 -0.0730  0.2819  0.3789
  877W        W 4941   0.020   9.759   2.612 -0.2805 -0.1336 -0.1888
  878W        W 4942   1.294   8.588   9.255  0.0463 -0.2108  0.1083
  879W        W 4943   2.619   2.399  10.516  0.1444  0.2336  0.0707
  880W        W 4944   7.586   7.509   1.352 -0.1849 -0.3250  0.1495
  881W        W 4945   0.771   0.705   7.697 -0.2268  0.0905  0.2495
  882W        W 4946   8.889   2.690   0.139 -0.4493  0.0660 -0.2777
  883W        W 4947   5.648   5.039   2.243  0.1136  0.1688  0.1623
  884W        W 4948   2.283   1.849   0.227 -0.0234 -0.0348 -0.3125
  885W        W 4949   5.912   3.840  10.267 -0.1866  0.1324  0.0425
  886W        W 4950   0.234   1.649  11.159 -0.0651  0.0647 -0.0591
  887W        W 4951   9.884   7.171   9.416 -0.1553 -0.0041  0.0590
  888W        W 4952   2.273   6.662   0.141 -0.1149 -0.0022 -0.4080
  889W        W 4953   2.963   5.170   8.832  0.0247  0.1070  0.3985
  890W        W 4954   5.625   3.681   1.700  0.1062  0.0495 -0.1196
  891W        W 4955   1.067   0.123   0.305 -0.2423  0.0090  0.1248
  892W        W 4956   7.880   6.645  10.915  0.0037 -0.1544  0.0501
  893W        W 4957   7.916   9.487   3.003  0.2365  0.2039 -0.2904
  894W        W 4958   3.394  10.383   1.629  0.1145 -0.0824 -0.2142
  895W        W 4959  10.410   6.923  11.119  0.1161  0.0922 -0.1423
  896W        W 4960   4.185   8.681   9.608  0.1863 -0.0681 -0.0310
  897W        W 4961   2.104   8.983   8.059  0.2606 -0.0715  0.0183
  898W        W 4962   3.279   2.757   2.352  0.0040  0.3205 -0.2699
  899W        W 4963   9.642   5.519   8.789 -0.0694 -0.0619 -0.3550
  900W        W 4964   4.262   2.694   9.487  0.0398 -0.1512 -0.0981
  901W        W 4965   7.536   5.353   0.605 -0.0027 -0.4274 -0.0002
  902W        W 4966   5.703  10.023   0.456  0.0185  0.0312 -0.2872
  903W        W 4967   5.023   9.890   8.344 -0.0083 -0.0960 -0.0731
  904W        W 4968   5.260   8.719   0.019 -0.2930 -0.0839  0.1463
  905W        W 4969   8.632   9.070   9.236 -0.2148 -0.2102  0.1852
  906W        W 4970   4.631   1.771   9.447 -0.0447  0.3905  0.3923
  907W        W 4971   6.666   7.715  10.785  0.3273 -0.2958 -0.1326
  908W        W 4972   6.906   1.242   1.979  0.1149 -0.1699  0.2399
  909W        W 4973   4.642   7.859   9.178  0.0335  0.2469 -0.1773
  910W        W 4974   5.122   1.408   3.792 -0.0879 -0.1367  0.1848
  911W        W 4975  10.072   1.780   2.109  0.0107  0.0967 -0.1661
  912W        W 4976   3.847   7.130   8.578 -0.2766 -0.2273 -0.0714
  913W        W 4977   6.140   8.651   9.032  0.1657 -0.1038  0.3940
  914W        W 4978   4.015   4.868   3.258  0.2980 -0.2345 -0.2187
  915W        W 4979   8.566   4.363   8.713  0.0400 -0.1972 -0.2580
  916W        W 4980   7.870   6.250   8.429 -0.2378  0.0581 -0.0661
  917W        W 4981   3.557   9.235   2.225  0.0092 -0.1791 -0.0971
  918W        W 4982   8.101   7.011   8.951  0.2304  0.2037 -0.0040
  919W        W 4983   4.366   3.356   9.865 -0.0697  0.0583 -0.2749
  920W        W 4984   2.574   3.560   2.278 -0.2874  0.1094 -0.3519
  921W        W 4985  10.318   0.113   9.865 -0.0257 -0.3725 -0.0268
  922W        W 4986   1.191   2.679   0.273  0.2281 -0.2259  0.2483
  923W        W 4987   7.587   3.608   2.153  0.1562 -0.0744 -0.2107
  924W        W 4988   0.830   3.286  10.088  0.0861  0.0533  0.1021
  925W        W 4989   8.049   3.626   9.143 -0.0251 -0.0476 -0.3021
  926W        W 4990   1.183   2.142   3.303 -0.2282  0.1947 -0.1091
  927W        W 4991   1.077   3.845   3.620 -0.0471  0.0850  0.0568
  928W        W 4992   1.325   8.843   2.815  0.0716 -0.1355  0.0697
  929W        W 4993   6.483   9.275   3.411  0.0668 -0.0878  0.1069
  930W        W 4994   9.173   4.323   0.922 -0.1400  0.0254 -0.3007
  931W        W 4995   5.903   4.538   3.496  0.2585  0.1258 -0.1926
  932W        W 4996   2.140   4.101   1.484 -0.1689 -0.0693  0.1092
  933W        W 4997   6.663   5.714   8.586 -0.0224  0.0487  0.0730
  934W        W 4998   9.131   7.300   3.288  0.0441 -0.0750 -0.0695
  935W        W 4999   4.250   5.462  11.147  0.1099 -0.2709 -0.0964
  936W        W 5000   5.371   4.515   9.619  0.1770  0.2309  0.1227
  937W        W 5001   6.418   8.157  10.787 -0.1662  0.0369 -0.3824
  938W        W 5002   3.788   4.781   0.874 -0.2735  0.0093 -0.1277
  939W        W 5003   5.888   8.363   8.558 -0.0981 -0.1172  0.2061
  940W        W 5004  10.609   2.535   3.200 -0.1523 -0.0819  0.0169
  941W        W 5005   3.127   0.134   9.438  0.0469  0.0115 -0.1078
  942W        W 5006   1.101   2.296   0.759  0.0914  0.1979  0.2408
  943W        W 5007   5.546   6.962  10.947  0.0715 -0.3541  0.2878
  944W        W 5008   8.902  10.417   0.897 -0.1385  0.1710  0.0615
  945W        W 5009   6.340  10.624   9.162 -0.4031  0.0326 -0.2585
  946W        W 5010   4.626   3.625   2.634  0.0043  0.3479 -0.1327
  947W        W 5011   5.265   7.502   3.330  0.1299  0.5222  0.0303
  948W        W 5012   0.238   7.013   1.165  0.3189  0.1540 -0.0141
  949W        W 5013   0.812   7.305   8.327  0.1307  0.0166 -0.1503
  950W        W 5014   2.022   1.426  10.450  0.3916  0.2519 -0.1625
  951W        W 5015   7.767   8.505   3.025  0.1839 -0.2331 -0.1268
  952W        W 5016   5.580   7.858   2.808  0.0158 -0.0713  0.4130
  953W        W 5017   3.178   2.746   0.776 -0.0133  0.1641  0.0692
  954W        W 5018  10.536   4.512   9.285  0.2758 -0.0244 -0.0266
  955W        W 5019   2.905   6.251   0.719  0.0328  0.0254 -0.3205
  956W        W 5020  10.038   0.165  10.868 -0.2029  0.0820 -0.0433
  957W        W 5021   3.733   5.476   2.539  0.0485  0.2118 -0.0780
  958W        W 5022   1.639   0.044   9.312 -0.2143  0.1206  0.0489
  959W        W 5023   7.810   5.340   2.720 -0.4513  0.0799  0.1669
  960W        W 5024   2.207   7.877   0.594  0.3317 -0.0824  0.0251
  961W        W 5025   4.362   2.338   2.196  0.1498 -0.0793 -0.1006
  962W        W 5026   8.242   2.615   0.082 -0.2237  0.1216 -0.1891
  963W        W 5027   7.099   7.072   9.174 -0.1807 -0.4549 -0.2936
  964W        W 5028   5.617   0.780  10.084 -0.1428  0.0545 -0.1527
  965W        W 5029   8.838   3.009  10.903 -0.1011  0.2079  0.2602
  966W        W 5030   7.784   4.362   9.184  0.2757  0.1387  0.0827
  967W        W 5031   0.311   9.274   1.353  0.1556 -0.0648  0.1019
  968W        W 5032   8.973   4.880   8.525 -0.0264 -0.0979  0.2412
  969W        W 5033   7.535   2.786   9.984 -0.3183 -0.0527  0.1538
  970W        W 5034   5.834   9.509   0.327 -0.1555 -0.0447  0.2153
  971W        W 5035   7.286   9.716   9.430 -0.0475  0.0644 -0.1199
  972W        W 5036   3.200   2.998  11.215  0.0117  0.0209 -0.1602
  973W        W 5037   8.655   2.935   0.859 -0.0599 -0.0875 -0.2381
  974W        W 5038   9.804   4.330  10.145  0.0079 -0.0780  0.2817
  975W        W 5039   7.652   1.857   2.405  0.0695 -0.1430  0.0308
  976W        W 5040   0.251   6.461   9.695  0.0009  0.0721 -0.1088
  977W        W 5041   8.853   3.749   2.199  0.2592  0.2646 -0.0961
  978W        W 5042   3.293   6.795   3.138 -0.2510  0.2148 -0.0443
  979W        W 5043   9.025   1.230   0.558 -0.1787  0.3091 -0.0368
  980W        W 5044   3.622   3.670   8.111  0.0002 -0.3304  0.2345
  981W        W 5045   5.781   4.167   9.543  0.1161  0.4819 -0.0243
  982W        W 5046   1.795   8.565   7.901 -0.0788 -0.0335  0.2607
  983W        W 5047   3.108   6.348  10.441 -0.2101 -0.1040  0.1820
  984W        W 5048   2.254   9.155   0.062  0.0888 -0.2175  0.1794
  985W        W 5049   9.591   8.914   1.096 -0.3081  0.0213 -0.2482
  986W        W 5050   6.708   4.353   9.836  0.0258 -0.1098 -0.1111
  987W        W 5051   6.103   0.352   2.957 -0.3049  0.0480  0.2169
  988W        W 5052   4.092   8.931   0.849 -0.2384  0.1138  0.2473
  989W        W 5053   7.324   8.368   2.766  0.0912 -0.0529 -0.0021
  990W        W 5054   0.461   6.422   9.240 -0.4251 -0.0556  0.0899
  991W        W 5055   5.637   0.141   1.721  0.0710  0.1281  0.0740
  992W        W 5056   5.242   3.029  10.418  0.1877  0.3248  0.1384
  993W        W 5057   2.027   8.384   8.282 -0.0730 -0.2273  0.3959
  994W        W 5058   9.882   0.536   3.535 -0.1128  0.0487 -0.0451
  995W        W 5059   2.550   2.877   2.118 -0.3364  0.1320  0.3454
  996W        W 5060   3.196   5.467   0.794 -0.2819 -0.2762 -0.1577
  997W        W 5061   9.262   2.020   0.854 -0.4204  0.1845  0.0096
  998W        W 5062   9.719   0.273   1.375 -0.2038  0.0315  0.1840
  999W        W 5063   9.708   9.060   0.308  0.0142 -0.3001 -0.3347
 1000W        W 5064   9.359   1.916   0.207  0.2210 -0.1079  0.0728
 1001W        W 5065   5.052   4.240  10.263 -0.1308 -0.1321 -0.4187
 1002W        W 5066   8.004  10.127   0.185  0.1973 -0.1090 -0.2920
 1003W        W 5067   5.184   2.893   1.370  0.1744 -0.0464  0.0944
 1004W        W 5068   5.112   7.313   0.243 -0.1829  0.1344 -0.3828
 1005W        W 5069   0.296  10.505  10.914 -0.0704  0.3007 -0.0841
 1006W        W 5070  10.067   6.142  11.011  0.0614  0.4572  0.3099
 1007W        W 5071   2.532   2.694   9.799 -0.2126 -0.1058 -0.0390
 1008W        W 5072   3.244   0.694   3.481  0.0680  0.0528 -0.2885
 1009W        W 5073   5.408   5.841   7.779 -0.0933  0.2859  0.0278
 1010W        W 5074   7.821   9.678   0.960  0.0613  0.0600  0.0467
 1011W        W 5075   5.551   0.871   3.322 -0.2532 -0.0869 -0.1291
 1012W        W 5076   7.415  10.318   1.971  0.2369 -0.1832  0.1821
 1013W        W 5077   8.476   8.817  10.208 -0.2909  0.1327  0.0105
 1014W        W 5078   5.502   0.105   2.293 -0.1570  0.0948  0.0400
 1015W        W 5079   4.831   7.513   3.566  0.0660  0.0771  0.0361
 1016W        W 5080   9.330   2.667   2.274  0.0835  0.0950  0.1605
 1017W        W 5081   3.890   8.359  10.890 -0.2769  0.0752  0.2911
 1018W        W 5082   5.701   4.661   8.206  0.0885 -0.0461  0.2502
 1019W        W 5083   8.983   5.330   9.448 -0.0942 -0.0100  0.0523
 1020W        W 5084   0.165   9.868   8.665  0.0248 -0.1057  0.3459
 1021W        W 5085   0.620   0.289   2.548  0.0191  0.1624  0.1033
 1022W        W 5086   8.956   8.117  10.826 -0.0983 -0.2458  0.5463
 1023W        W 5087   8.121   4.628   8.794 -0.0965  0.0918  0.0736
 1024W        W 5088   6.980  10.028   3.243 -0.0660  0.2296 -0.0845
 1025W        W 5089  10.153   5.413   1.957  0.1693  0.1718 -0.0401
 1026W        W 5090   5.483   7.348   9.123 -0.2910 -0.1902 -0.0924
 1027W        W 5091   2.723  10.282   2.673  0.0453 -0.0576 -0.0431
 1028W        W 5092   7.752   5.894   9.230  0.0578 -0.0290 -0.0618
 1029W        W 5093   3.957   9.863   8.834  0.0826 -0.1162  0.1583
 1030W        W 5094   9.943   7.321   8.918  0.3939  0.2348 -0.0145
 1031W        W 5095   5.536   9.677   7.655 -0.0216  0.2004  0.0635
 1032W        W 5096  10.387   0.228   2.504 -0.2055  0.1481  0.2505
 1033W        W 5097   9.842   0.919   2.393 -0.0737 -0.3768 -0.1273
 1034W        W 5098   7.090   3.126   0.198 -0.2236  0.4983 -0.2956
 1035W        W 5099   4.700  10.183   9.239 -0.1182 -0.3565 -0.0320
 1036W        W 5100   5.126   0.672   8.272 -0.0541 -0.0072 -0.3022
 1037W        W 5101  10.455   9.440  10.180 -0.1111 -0.0719  0.4431
 1038W        W 5102   5.942   3.928   3.020  0.1283 -0.0974  0.0925
 1039W        W 5103   3.268   1.936   8.764 -0.0878  0.0672  0.0641
 1040W        W 5104   2.514   3.162   0.961  0.0449 -0.1131 -0.2727
 1041W        W 5105   0.229  10.384   8.154  0.2027 -0.1595 -0.2694
 1042W        W 5106  10.138   8.342   8.606  0.0433 -0.1061  0.1607
 1043W        W 5107   4.788   2.130  10.497 -0.1202 -0.2785  0.0830
 1044W        W 5108   3.831   3.225   8.154 -0.2077  0.0826  0.2053
 1045W        W 5109   7.054   7.682   7.959 -0.1456 -0.0796 -0.0569
 1046W        W 5110   0.812   4.478   8.621  0.4319  0.0574  0.3528
 1047W        W 5111   5.619   2.138   2.029  0.2272 -0.3680  0.1869
 1048W        W 5112   1.590   0.303   7.921 -0.2079  0.0111 -0.0673
 1049W        W 5113   4.176   0.966  10.447 -0.0242 -0.0293 -0.3828
 1050W        W 5114   6.969   9.400  10.942 -0.0189  0.2468  0.1391
 1051W        W 5115   0.915  10.290   0.150 -0.2600  0.0473  0.1058
 1052W        W 5116   6.256   1.813   2.611 -0.0296  0.3784  0.0659
 1053W        W 5117  10.434   3.592   9.522 -0.0819  0.0421  0.1200
 1054W        W 5118   7.201   4.024   1.183  0.4021  0.0804  0.0376
 1055W        W 5119  10.182   9.655   2.298 -0.0115  0.1715  0.0319
 1056W        W 5120   6.006   0.370   8.041 -0.0812 -0.2392 -0.2499
 1057W        W 5121   8.024   0.773  10.183 -0.0469 -0.1470 -0.1908
 1058W        W 5122   2.403   1.494   8.932 -0.3221  0.1450  0.2786
 1059W        W 5123   9.167   0.953   1.390  0.2837 -0.1547  0.1804
 1060W        W 5124   0.154   8.427   0.669 -0.0409 -0.3447 -0.1218
 1061W        W 5125   1.544   1.505  11.064  0.0763 -0.0468  0.1307
 1062W        W 5126   9.266   7.708  11.235 -0.0864 -0.1601  0.1933
 1063W        W 5127  10.504  10.635   2.050 -0.0739 -0.2352 -0.0207
 1064W        W 5128   6.019  10.619   2.368  0.0258 -0.1988  0.2481
 1065W        W 5129   2.564   1.868   1.223 -0.2145 -0.0039  0.0655
 1066W        W 5130   7.937   7.089   0.565  0.2100  0.2133  0.1354
 1067W        W 5131   6.415   6.259  10.325  0.0337  0.1422 -0.1213
 1068W        W 5132   7.221   6.702  10.290 -0.1288 -0.1780  0.1414
 1069W        W 5133   3.229   5.351  11.379 -0.1032  0.0520 -0.0514
 1070W        W 5134   9.825   4.513   8.618  0.2501  0.2878 -0.3902
 1071W        W 5135  10.534   1.581   9.457  0.2204 -0.0234 -0.0559
 1072W        W 5136   9.380   5.726   0.049 -0.1038  0.2752 -0.2108
 1073W        W 5137   2.377   2.129   1.696 -0.1545  0.1658 -0.1409
 1074W        W 5138   5.908   3.754   2.139  0.1312  0.0542  0.0309
 1075W        W 5139   1.222   6.453   9.678  0.0068 -0.0397  0.0682
 1076W        W 5140   2.071   6.246   3.847 -0.1480  0.0513 -0.0425
 1077W        W 5141   7.736   3.976   1.034  0.0976  0.0243  0.1030
 1078W        W 5142   4.734   5.038   9.925 -0.1884  0.3326  0.1683
 1079W        W 5143   4.550   5.098  10.368  0.0863  0.0161 -0.0894
 1080W        W 5144   3.701   3.605   2.811  0.0237 -0.0983 -0.0623
 1081W        W 5145   4.214   4.889   0.358 -0.0770  0.2060 -0.2376
 1082W        W 5146   6.573   9.494  10.143 -0.1040  0.1323  0.0751
 1083W        W 5147   7.929   0.962   8.983 -0.1207 -0.1938  0.4450
 1084W        W 5148  10.351   0.824   2.241  0.0050 -0.4459 -0.1109
 1085W        W 5149   4.686   7.520   0.508  0.1223  0.2574 -0.0087
 1086W        W 5150   1.672   4.667  10.927 -0.0383  0.0429 -0.1854
 1087W        W 5151   5.226   9.049   4.501 -0.0548  0.0637  0.1063
 1088W        W 5152   2.202   6.430  10.570  0.0445  0.2978 -0.0877
 1089W        W 5153   5.906   5.406   1.371  0.0463 -0.1690 -0.1556
 1090W        W 5154  10.386   1.755   3.752 -0.1512 -0.3896  0.2164
 1091W        W 5155   7.542   1.417   2.697  0.3650 -0.0983 -0.2907
 1092W        W 5156   9.931   3.731  11.364  0.1450 -0.0215  0.1495
 1093W        W 5157   3.954  10.606   9.131 -0.2388 -0.3208 -0.2428
 1094W        W 5158   7.577   3.928   9.045  0.2703  0.1318 -0.3525
 1095W        W 5159   3.524   4.890  11.335 -0.0870  0.2924 -0.0382
 1096W        W 5160   3.400   7.117   0.957 -0.1815 -0.4019 -0.2963
 1097W        W 5161   8.991   9.385   8.064  0.2090 -0.1143 -0.1580
 1098W        W 5162   9.997   1.914   8.768 -0.0262 -0.0798 -0.2081
 1099W        W 5163   1.479   2.284   2.074 -0.0187 -0.1185 -0.1940
 1100W        W 5164   0.383   5.457  10.991  0.0572  0.0314  0.2514
 1101W        W 5165   0.109   7.272   0.091  0.1657  0.0682 -0.0956
 1102W        W 5166   5.409   8.910  10.157 -0.4121  0.3150 -0.0037
 1103W        W 5167   7.027   3.598   3.591 -0.0375  0.1998 -0.0670
 1104W        W 5168   1.564   2.970  10.949  0.1710 -0.0575 -0.0097
 1105W        W 5169   9.810   5.331  11.218  0.3714 -0.1470 -0.0902
 1106W        W 5170   6.281   7.863   1.143 -0.2438  0.0502  0.2139
 1107W        W 5171   2.843   6.907   9.488 -0.1121 -0.0948  0.2520
 1108W        W 5172   2.505   4.441  10.579 -0.0786  0.1144  0.0505
 1109W        W 5173   6.276   2.330  10.487  0.1009  0.0483 -0.2653
 1110W        W 5174   8.274  10.527   0.102 -0.3846  0.0473 -0.0553
 1111W        W 5175   4.509   7.183   1.701 -0.3196  0.0532 -0.1611
 1112W        W 5176   5.143   5.125   2.338  0.1825 -0.2660 -0.0424
 1113W        W 5177   6.233   9.929   8.590 -0.0369 -0.0433  0.1387
 1114W        W 5178   1.119  10.404   8.232 -0.0823 -0.0527 -0.0445
 1115W        W 5179   5.148   0.267  11.215 -0.2200  0.1077  0.0296
 1116W        W 5180   5.968   2.475   0.546 -0.0349 -0.0707  0.1486
 1117W        W 5181   6.203   0.091   0.667 -0.0331 -0.0587  0.0857
 1118W        W 5182   5.854   4.990   0.979  0.2606 -0.3811  0.1905
 1119W        W 5183   7.299   0.009   8.379  0.0417 -0.2969 -0.4440
 1120W        W 5184   6.335   2.899   1.438 -0.2385 -0.0916  0.1366
 1121W        W 5185   6.139   2.300   3.177  0.0754  0.0120 -0.4718
 1122W        W 5186   3.801   3.935   9.188  0.0460  0.1258 -0.0594
 1123W        W 5187   8.018   3.090  11.454  0.0300 -0.0598 -0.1896
 1124W        W 5188   9.388   6.155   7.918  0.0357  0.0152  0.4875
 1125W        W 5189  10.084   3.057   0.544 -0.0287 -0.2459 -0.0985
 1126W        W 5190   7.793   5.614   8.212 -0.0415 -0.2225  0.1333
 1127W        W 5191   8.316   9.942   3.649 -0.0025  0.2095  0.0439
 1128W        W 5192  10.331   2.216   3.575 -0.1216 -0.1644 -0.1364
 1129W        W 5193   4.391   3.129   1.834  0.2254  0.0410 -0.0897
 1130W        W 5194   8.153   2.502   0.543 -0.1488  0.0009 -0.0721
 1131W        W 5195   4.463   3.317   8.788 -0.0642  0.1691 -0.2156
 1132W        W 5196   5.416   2.150   2.570  0.2937  0.2419  0.6095
 1133W        W 5197   1.127   3.776   2.513 -0.3239 -0.3224  0.3505
 1134W        W 5198   8.631   1.540   0.781  0.3106  0.0257  0.0651
 1135W        W 5199  10.662   3.263   2.388 -0.0610 -0.0994  0.2216
 1136W        W 5200   6.742   4.608   2.544  0.1672 -0.1072 -0.0878
 1137W        W 5201   9.050   9.143  10.678  0.0532  0.0966  0.1100
 1138W        W 5202   8.592   9.506   8.979  0.0987 -0.0733  0.0124
 1139W        W 5203   8.323   7.229   9.358  0.1699 -0.0056  0.2508
 1140W        W 5204   8.989  10.614   2.174  0.1534  0.1434 -0.1217
 1141W        W 5205   1.998   7.424   0.637  0.1551 -0.0790 -0.0710
 1142W        W 5206   1.603   0.066   8.790  0.1179 -0.1706 -0.0231
 1143W        W 5207   5.246   1.276   3.324 -0.0459 -0.2381  0.0411
 1144W        W 5208   3.396   1.376   2.310 -0.2471  0.0858 -0.1656
 1145W        W 5209   9.573   6.344  10.837 -0.0319  0.2404 -0.2856
 1146W        W 5210   8.600   1.550   0.254  0.0255 -0.0701 -0.0955
 1147W        W 5211   2.721   8.965   0.851  0.2044 -0.1353  0.2177
 1148W        W 5212   4.743   5.661   1.421 -0.1079  0.0965  0.0130
 1149W        W 5213  10.372   5.695   9.305 -0.1785 -0.2185  0.0475
 1150W        W 5214   0.607   6.806   8.929 -0.2111  0.1540  0.2124
 1151W        W 5215   3.987   5.114   8.444  0.0867 -0.0080  0.0105
 1152W        W 5216   7.046   8.921   0.076 -0.2387 -0.0103 -0.0386
 1153W        W 5217   9.029  10.251   0.428 -0.1423 -0.0869  0.0041
 1154W        W 5218   2.906  10.358  10.686  0.0439 -0.0720 -0.0407
 1155W        W 5219   1.742   6.537   9.348  0.0618 -0.1034 -0.0834
 1156W        W 5220   5.513   8.211   1.076 -0.1095 -0.1665 -0.0490
 1157W        W 5221   6.038   4.167   9.062 -0.0378  0.1498 -0.2868
 1158W        W 5222   0.688   4.108   3.240  0.0164 -0.0524  0.1836
 1159W        W 5223   9.472   5.109   2.299 -0.0948 -0.4270  0.2268
 1160W        W 5224   2.627   9.951   2.295  0.1767 -0.0857  0.0050
 1161W        W 5225   7.276   8.290   0.626 -0.0332  0.1619 -0.1559
 1162W        W 5226   2.469   4.672   2.168  0.3132  0.2761  0.1203
 1163W        W 5227  10.480   3.955   3.338 -0.2009 -0.1466 -0.1626
 1164W        W 5228   0.003   6.511   0.448  0.1051  0.2910 -0.0386
 1165W        W 5229   4.195   5.153   8.999  0.2355  0.0891 -0.1089
 1166W        W 5230   5.722   1.224   9.149  0.3293  0.0491 -0.0216
 1167W        W 5231   4.904   1.376   2.391 -0.0034  0.0743  0.2231
 1168W        W 5232   6.868   2.877   1.928 -0.0391 -0.1778 -0.1683
 1169W        W 5233   5.002   2.369   8.975 -0.1047 -0.0487 -0.1331
 1170W        W 5234   3.010   0.182   8.911 -0.0994 -0.4358  0.0074
 1171W        W 5235   8.271  10.078   1.127 -0.2573 -0.1125  0.3020
 1172W        W 5236   6.555  10.355   0.189 -0.0245  0.1568 -0.0793
 1173W        W 5237   9.587   3.794  10.967 -0.2442 -0.1845  0.1104
 1174W        W 5238   0.890   6.384   8.263  0.2501 -0.0309 -0.0227
 1175W        W 5239   7.196   2.108   8.466 -0.0368  0.0906  0.1083
 1176W        W 5240   7.432   2.400   0.291 -0.0277 -0.0405  0.0178
 1177W        W 5241   5.481   9.295   8.680  0.2402 -0.0922  0.1292
 1178W        W 5242   3.241   4.649  10.726  0.1312 -0.0140  0.0132
 1179W        W 5243   3.416   5.902   8.104  0.0599 -0.2866 -0.1172
 1180W        W 5244   9.392   2.462   7.934  0.1671 -0.2027 -0.0917
 1181W        W 5245   0.265   7.114   9.096  0.0568  0.0646  0.1592
 1182W        W 5246   9.299   4.379   7.919  0.0116 -0.0255 -0.0181
 1183W        W 5247   7.658   4.287   8.214 -0.3735  0.1750  0.1562
 1184W        W 5248   5.889   3.957   8.598 -0.0122 -0.0325  0.1840
 1185W        W 5249   2.023   3.113  10.559 -0.2632  0.0447 -0.1676
 1186W        W 5250   9.777   6.572   2.919 -0.0972 -0.3787 -0.2089
 1187W        W 5251   9.341   0.297   9.830 -0.1288 -0.0142  0.1984
 1188W        W 5252   5.497   4.624   0.742  0.1479 -0.0723  0.1626
 1189W        W 5253   1.917   1.443   9.107 -0.1509 -0.0649  0.1230
 1190W        W 5254   2.996   5.563  10.853 -0.1549  0.1596 -0.0551
 1191W        W 5255   0.662   4.584  10.162 -0.0716 -0.1647  0.0948
 1192W        W 5256   7.182   5.965   9.715  0.1142  0.2434 -0.2470
 1193W        W 5257   7.769   4.618   0.274  0.2297 -0.1377 -0.0470
 1194W        W 5258   4.254   0.066   0.299 -0.2211 -0.0371  0.1808
 1195W        W 5259   1.900   6.452   1.646  0.1337  0.0603  0.3897
 1196W        W 5260   6.551  10.467   3.328 -0.0628  0.1997 -0.0153
 1197W        W 5261   5.468   9.595  11.472  0.2745  0.3037 -0.1928
 1198W        W 5262   8.392   4.377   2.479 -0.1902  0.1162 -0.0691
 1199W        W 5263   2.986   1.009   0.240 -0.1089  0.2612 -0.1514
 1200W        W 5264   4.478   5.127   8.332 -0.4342  0.0774  0.2258
 1201W        W 5265   7.078   2.420  10.906  0.0927  0.5114 -0.1690
 1202W        W 5266   9.409   8.916   2.670  0.2639  0.3347 -0.0610
 1203W        W 5267   1.200   3.538   9.361  0.4461  0.0683 -0.3376
 1204W        W 5268   4.721   6.650   7.687  0.0647  0.1085 -0.0022
 1205W        W 5269   8.047   7.405  10.351 -0.1326  0.0632 -0.3331
 1206W        W 5270   9.893   5.183   9.544 -0.3603  0.5341 -0.3742
 1207W        W 5271  10.450   6.430  11.488 -0.0623 -0.0418  0.1682
 1208W        W 5272   0.355   0.326  10.666  0.0023 -0.2636 -0.2940
 1209W        W 5273   7.562   7.075   0.986  0.0396  0.0522 -0.0342
 1210W        W 5274   3.234   7.850   1.462  0.2092  0.0529 -0.3274
 1211W        W 5275   7.355   0.928   0.865  0.0764  0.2109 -0.2173
 1212W        W 5276   3.790   1.440   9.842 -0.0094  0.1636  0.1638
 1213W        W 5277   0.641   5.544   0.159  0.2021 -0.0130  0.2503
 1214W        W 5278   4.720   7.509   3.041 -0.0117 -0.1482  0.0391
 1215W        W 5279   0.251   5.767   1.041  0.0672 -0.0891 -0.0989
 1216W        W 5280   7.696   5.998   1.823 -0.0224  0.1341  0.0765
 1217W        W 5281  10.408   8.804  11.109 -0.0787  0.1592 -0.2668
 1218W        W 5282   7.371   6.728   9.443  0.2407 -0.0503 -0.2240
 1219W        W 5283   5.666   0.851  10.745 -0.2689 -0.0321 -0.3882
 1220W        W 5284   7.460   1.756   3.348  0.0262  0.0777  0.3761
 1221W        W 5285   8.209  10.328   2.767 -0.1916  0.0483 -0.1438
 1222W        W 5286  10.399   2.157   7.571  0.1656  0.2234  0.0580
 1223W        W 5287   2.453   5.372   0.620  0.0915  0.0443  0.1517
 1224W        W 5288   5.603   0.758   1.129 -0.1402 -0.0986 -0.0509
 1225W        W 5289   7.617   7.762   0.080 -0.0397 -0.4426 -0.2387
 1226W        W 5290   1.537  10.133   8.131 -0.0407  0.1245  0.1573
 1227W        W 5291   7.426   8.739   0.389 -0.3332  0.1211  0.0253
 1228W        W 5292   2.140   1.617   1.208 -0.2528  0.2668 -0.0651
 1229W        W 5293   3.500   0.819   1.566 -0.1536  0.0482 -0.3368
 1230W        W 5294   9.556   1.182   1.861 -0.2509  0.2307  0.1331
 1231W        W 5295   8.230   1.808   2.211  0.3174  0.2274  0.1305
 1232W        W 5296   4.668   5.938   9.440  0.0651  0.0454 -0.0776
 1233W        W 5297   4.896   1.461   8.121 -0.0380  0.0774  0.3725
 1234W        W 5298   1.320   9.764   3.489  0.2926 -0.1847  0.1452
 1235W        W 5299   1.033   2.525   9.605  0.1073  0.0018 -0.2769
 1236W        W 5300   4.270   4.869   3.725  0.2701  0.2353 -0.3169
 1237W        W 5301   9.865   4.733  10.454 -0.1120 -0.2957 -0.0876
 1238W        W 5302   7.779   7.422   8.727 -0.3188  0.0059  0.1822
 1239W        W 5303   8.796   5.749   8.261 -0.1399  0.3058 -0.0401
 1240W        W 5304   9.676   4.902  10.914 -0.3006 -0.2778 -0.5238
 1241W        W 5305   5.312   6.921   9.203 -0.2992  0.1430  0.1116
 1242W        W 5306   8.999   6.313   7.652  0.1811 -0.3416  0.0720
 1243W        W 5307  10.587   5.571   4.293  0.1642 -0.2016 -0.3969
 1244W        W 5308   0.245   3.044   0.238  0.1472 -0.0808  0.1232
 1245W        W 5309   3.254   6.857   9.003  0.2853 -0.4893 -0.1798
 1246W        W 5310   5.296   9.429   2.678  0.0717 -0.3500 -0.3194
 1247W        W 5311   1.765   0.735   8.184 -0.0424  0.2460 -0.2092
 1248W        W 5312   1.754   0.503   3.712  0.0914 -0.2427 -0.0974
 1249W        W 5313   6.429   3.743   7.498 -0.0765  0.0242 -0.0412
 1250W        W 5314   1.817   6.706   3.556  0.3539 -0.0214 -0.0350
 1251W        W 5315   2.250  10.435   2.499 -0.1241 -0.0495  0.0571
 1252W        W 5316  10.141   3.799  10.838  0.3897  0.2114  0.0214
 1253W        W 5317   5.338   1.193   2.358  0.0268 -0.2071  0.4277
 1254W        W 5318   2.383   3.140   3.196  0.3787 -0.0474 -0.2041
 1255W        W 5319   7.179   6.010   2.496  0.1454  0.2530 -0.3505
 1256W        W 5320   7.979   1.057  11.513  0.1559 -0.3430 -0.2764
 1257W        W 5321   0.204   8.718   9.801 -0.0000  0.3282  0.1819
 1258W        W 5322  10.040   5.555   7.989 -0.0600  0.2230  0.0728
 1259W        W 5323   8.156   2.625   9.351  0.1338  0.1856  0.0405
 1260W        W 5324   0.474   3.601   8.416  0.0318 -0.1431 -0.2048
 1261W        W 5325   7.351   6.353   8.509 -0.4028  0.0809 -0.3469
 1262W        W 5326   4.090  10.001  10.283 -0.1596  0.1076  0.1432
 1263W        W 5327   3.059   7.693   9.024  0.1760  0.2731 -0.1479
 1264W        W 5328   6.091   9.488  11.395 -0.1656  0.1043  0.0767
 1265W        W 5329   8.192   2.531   8.417  0.0295 -0.2956  0.0970
 1266W        W 5330   7.365   6.867   3.666  0.1910 -0.0016  0.2831
 1267W        W 5331   0.300   7.190  10.287  0.0988  0.1402 -0.0418
 1268W        W 5332   9.556   9.018   1.687  0.2838 -0.0662 -0.0570
 1269W        W 5333   6.044   9.860   1.726  0.0212 -0.2850  0.2551
 1270W        W 5334   7.058   8.333   1.660 -0.0914 -0.0329 -0.2173
 1271W        W 5335   5.851   8.921   1.480  0.0853  0.1157  0.1178
 1272W        W 5336   5.232   1.409   1.884  0.1098  0.1892  0.1188
 1273W        W 5337   0.559   4.119   9.876 -0.1172 -0.1641 -0.2650
 1274W        W 5338   0.656   8.195   2.350  0.0777 -0.1970  0.0933
 1275W        W 5339   2.533   0.953   1.545 -0.1756 -0.0757  0.0287
 1276W        W 5340   8.152   0.378   2.148 -0.1696  0.1141  0.0803
 1277W        W 5341   0.899   5.894   2.668 -0.1238 -0.1425 -0.0084
 1278W        W 5342   0.039   2.709   1.449  0.0349 -0.1608  0.3557
 1279W        W 5343   3.617   3.220  10.974  0.2158  0.0591  0.0488
 1280W        W 5344   6.535   5.610  11.029  0.1134 -0.1371 -0.2050
 1281W        W 5345   1.137   2.792  10.806 -0.2209  0.1080  0.2510
 1282W        W 5346   6.888   1.741   0.067 -0.2785  0.0654  0.0626
 1283W        W 5347   6.118   9.763  10.894  0.3455  0.0134 -0.0022
 1284W        W 5348   6.950   8.322   0.216 -0.0050 -0.0684 -0.0421
 1285W        W 5349   7.644   2.037   8.750 -0.0996 -0.2180 -0.0296
 1286W        W 5350   8.269   1.291  10.090  0.0414  0.0815 -0.2336
 1287W        W 5351   3.707   1.034   1.986  0.2069 -0.5379 -0.0409
 1288W        W 5352  10.609  10.443   2.699  0.1444 -0.0278  0.4345
 1289W        W 5353   2.489   1.749  11.356 -0.0146  0.1591  0.2902
 1290W        W 5354   7.479   1.005  10.784 -0.0612  0.1433  0.1460
 1291W        W 5355   1.836   4.203   3.120  0.0515 -0.2949 -0.1869
 1292W        W 5356   3.862   0.453   1.715  0.0157 -0.0805  0.3095
 1293W        W 5357   6.325   4.922   0.718 -0.0782 -0.1631 -0.1770
 1294W        W 5358   8.760   5.846   2.336  0.0103  0.1668 -0.0494
 1295W        W 5359   2.718   0.442   3.429  0.0923  0.0218  0.2395
 1296W        W 5360   9.734   0.501   0.706  0.0624 -0.1770 -0.2390
 1297W        W 5361   9.013   3.365   3.185 -0.1352  0.0187 -0.0594
 1298W        W 5362   7.749   8.297  10.247  0.0594 -0.1426 -0.1803
 1299W        W 5363   4.197   9.032   8.386 -0.0740 -0.0882  0.1280
 1300W        W 5364   8.319   2.169   8.090 -0.2002  0.4451  0.1348
 1301W        W 5365   0.167   5.378   0.332  0.0786 -0.0796 -0.2576
 1302W        W 5366   1.824   8.138   3.922 -0.2076  0.2134  0.1961
 1303W        W 5367   2.772  10.670   3.200 -0.3152 -0.2536  0.2218
 1304W        W 5368   9.566   4.571   1.694  0.0114 -0.0938  0.2083
 1305W        W 5369  10.174   4.716   3.249  0.1022 -0.0073 -0.0675
 1306W        W 5370   2.951   4.827   2.918 -0.0731  0.1633  0.1734
 1307W        W 5371  10.257   9.080   9.131 -0.0047 -0.0107 -0.2727
 1308W        W 5372   0.549   0.397   0.403  0.0322  0.1182  0.3065
 1309W        W 5373   8.466   1.971  10.963 -0.1064 -0.1454 -0.0903
 1310W        W 5374   0.346   3.654   8.943  0.2292  0.2308  0.0920
 1311W        W 5375   1.884   3.983   9.488  0.0500 -0.3693  0.0461
 1312W        W 5376   2.609   6.995   0.162 -0.4633  0.1864  0.0926
 1313W        W 5377   8.323   8.709   1.404  0.1228  0.1445 -0.0243
 1314W        W 5378   5.629   6.505   3.858 -0.1157  0.3120 -0.0639
 1315W        W 5379   8.181   6.012   8.781 -0.0739 -0.2318  0.1609
 1316W        W 5380   3.168   6.214  11.354 -0.0072  0.0241  0.2359
 1317W        W 5381   2.095   8.718   3.506  0.7569 -0.0999  0.0060
 1318W        W 5382   0.237   5.915  10.446  0.2969 -0.1163 -0.0443
 1319W        W 5383   8.746   0.395   2.036 -0.1177 -0.0076 -0.2166
 1320W        W 5384   1.533   9.909   3.017 -0.2582  0.4884 -0.3398
 1321W        W 5385   5.194   9.211   0.839  0.1151 -0.1332  0.2647
 1322W        W 5386   3.659   0.265   9.405 -0.0277 -0.2104 -0.1274
 1323W        W 5387   0.802   4.611   9.691 -0.0519 -0.0197  0.3373
 1324W        W 5388   1.925   4.639  10.518  0.2207  0.1121  0.4225
 1325W        W 5389   4.568   4.170  10.597 -0.0426  0.0914 -0.1778
 1326W        W 5390   4.345   1.550   2.388 -0.1631  0.2477  0.0569
 1327W        W 5391   6.514   8.700   2.741  0.1013 -0.3010 -0.0014
 1328W        W 5392   9.093   3.329   0.285 -0.2925  0.1923  0.1332
 1329W        W 5393   0.312   3.539  10.877 -0.0842  0.0743 -0.1509
 1330W        W 5394   8.115   2.963   0.882  0.0299  0.1363  0.2430
 1331W        W 5395   9.880  10.619   9.875  0.0798  0.1559 -0.1853
 1332W        W 5396   8.799   3.571  11.355  0.1323 -0.0433  0.0511
 1333W        W 5397   5.133   1.885  10.000 -0.2096 -0.0755 -0.1181
 1334W        W 5398   0.321   8.790   1.392 -0.0533  0.2604  0.1273
 1335W        W 5399   3.448   6.184   9.747  0.3205  0.0402  0.1881
 1336W        W 5400   3.577   7.466   7.710 -0.1172  0.2081  0.3842
 1337W        W 5401   5.036   1.371   8.584  0.1285 -0.3329 -0.1800
 1338W        W 5402  10.267   5.441   8.418  0.1031 -0.0578 -0.1613
 1339W        W 5403   9.082   6.612  11.457 -0.0538 -0.0795  0.0918
 1340W        W 5404   8.199   8.365   9.510  0.1424  0.2903 -0.3126
 1341W        W 5405   8.042   0.036   0.562 -0.0090 -0.0641  0.2845
 1342W        W 5406   1.088   7.373   1.003 -0.2355  0.0398  0.2530
 1343W        W 5407   1.335   8.166   7.213 -0.0710 -0.0823  0.1626
 1344W        W 5408   5.909   7.701   1.391  0.2843 -0.1069  0.2324
 1345W        W 5409   8.791   4.192   9.205 -0.0704  0.0142  0.2292
 1346W        W 5410   7.043   3.201   9.999 -0.0098 -0.1625 -0.1169
 1347W        W 5411  10.637   8.523   1.151  0.3248  0.0763  0.1612
 1348W        W 5412   4.917   8.689   4.069 -0.4011 -0.0900  0.0349
 1349W        W 5413   7.228   7.726  10.449 -0.1372  0.0280  0.1440
 1350W        W 5414   8.304   2.835   2.223 -0.1058 -0.0479 -0.0400
 1351W        W 5415   8.475  10.056   0.276 -0.0311  0.2242  0.0929
 1352W        W 5416   0.573   5.045   8.196  0.0554 -0.2358  0.2063
 1353W        W 5417   5.597   5.536   8.916  0.2725 -0.1347 -0.2299
 1354W        W 5418   8.407   2.464   1.005  0.0041 -0.2652  0.3503
 1355W        W 5419   7.764   8.933   0.799  0.1963  0.1849 -0.2934
 1356W        W 5420   4.137   0.822  11.363  0.0134  0.2197  0.0079
 1357W        W 5421   6.144   6.739   0.714 -0.0203 -0.1354 -0.2525
 1358W        W 5422   2.408   6.941   9.214  0.0849 -0.2100  0.1723
 1359W        W 5423   7.027   9.221   0.423  0.3634 -0.0586 -0.0103
 1360W        W 5424   3.020   4.734   1.972 -0.1758  0.0872  0.1399
 1361W        W 5425   3.011   6.107   8.325  0.2423  0.3435  0.1500
 1362W        W 5426   8.133   7.644   6.594  0.1591  0.1717 -0.0703
 1363W        W 5427   0.265   7.957   0.896  0.2826 -0.1006  0.2259
 1364W        W 5428   1.840   6.755   1.160 -0.3204 -0.3059  0.1291
 1365W        W 5429   3.645   6.931  10.179 -0.1821  0.1238 -0.2082
 1366W        W 5430   0.398   0.531   1.152 -0.2780 -0.1640  0.2365
 1367W        W 5431   3.383   8.139  10.712 -0.2106 -0.0410 -0.2399
 1368W        W 5432   7.523   4.173   0.099  0.1504  0.0906 -0.3233
 1369W        W 5433   3.558   1.611   1.898  0.1607 -0.1812 -0.1765
 1370W        W 5434   1.987   5.506   8.925 -0.1454 -0.0953 -0.0864
 1371W        W 5435   3.176   7.319   3.291 -0.0711 -0.0957 -0.1309
 1372W        W 5436   1.738   5.846  10.287 -0.0955 -0.0558  0.0015
 1373W        W 5437   0.989  10.575   2.775  0.1178 -0.0299 -0.0714
 1374W        W 5438   9.281   8.550  10.711  0.0288  0.5091 -0.1126
 1375W        W 5439   7.248   7.773   8.621  0.0080  0.3886 -0.0872
 1376W        W 5440   7.420   9.299   0.754  0.0016  0.1355  0.0627
 1377W        W 5441   7.452   8.910   8.814 -0.1431 -0.2075  0.0583
 1378W        W 5442   8.605   8.383   2.879  0.0867 -0.1312  0.4170
 1379W        W 5443   6.822   2.839  11.188  0.3108 -0.1409  0.0104
 1380W        W 5444  10.229   6.956   9.804  0.3298  0.0633  0.1697
 1381W        W 5445   1.576   6.334   2.028 -0.0125  0.0772 -0.1503
 1382W        W 5446   6.128   6.617  11.208 -0.1626  0.1079 -0.4200
 1383W        W 5447   8.702   3.120   2.631  0.0609 -0.0894 -0.1248
 1384W        W 5448   9.836   6.321   8.255  0.2853 -0.1341 -0.0055
 1385W        W 5449   7.604  10.381   0.525  0.2884  0.1542 -0.2082
 1386W        W 5450   1.909   1.431   3.187  0.1979 -0.0020  0.0321
 1387W        W 5451   0.177   1.783  10.648 -0.0809  0.0813 -0.0429
 1388W        W 5452   1.167   9.152   1.771 -0.0753  0.1783 -0.1100
 1389W        W 5453   4.241   3.620   1.705  0.0448  0.1560 -0.0428
 1390W        W 5454   8.237   8.943  10.928  0.2678  0.1991  0.1641
 1391W        W 5455   4.368  10.501   1.272 -0.0343  0.1180 -0.2758
 1392W        W 5456   6.165   0.243   1.373  0.3012 -0.2487  0.1917
 1393W        W 5457   3.897   5.808   9.324  0.2237  0.1359 -0.3002
 1394W        W 5458   5.663  10.371  11.102  0.0689 -0.2008 -0.2030
 1395W        W 5459   0.438   8.607   8.927 -0.0423  0.1321  0.0102
 1396W        W 5460   0.659   6.883  10.087 -0.2171 -0.0051 -0.0270
 1397W        W 5461   0.476   1.060   8.979  0.3114  0.2782  0.0818
 1398W        W 5462   3.004   3.053   8.602  0.1704 -0.2550  0.2072
 1399W        W 5463   2.013   6.459  11.277 -0.0605 -0.1840 -0.1206
 1400W        W 5464   8.019   1.083  10.995 -0.1135  0.1699 -0.1908
 1401W        W 5465   1.148   5.296   0.915  0.1838  0.1876 -0.1691
 1402W        W 5466   1.295   8.044   3.144 -0.0913 -0.2732 -0.1816
 1403W        W 5467   0.057   4.408  10.594 -0.1241  0.0996  0.0157
 1404W        W 5468   7.142   4.562   9.785 -0.1100 -0.0372  0.1786
 1405W        W 5469   4.071   8.216   0.872  0.1448  0.0113  0.0395
 1406W        W 5470  10.451   2.769   0.396 -0.0797  0.0323  0.2636
 1407W        W 5471   7.935   8.295   8.607  0.3143 -0.1869  0.0911
 1408W        W 5472   5.713   6.965   9.534 -0.0164 -0.1993  0.3276
 1409W        W 5473   2.177   5.381  10.857  0.3659 -0.0085 -0.0139
 1410W        W 5474   5.611   4.161  10.051  0.2461 -0.2956  0.3300
 1411W        W 5475   5.739   2.125   2.917 -0.1966  0.0255  0.0602
 1412W        W 5476   4.652   6.154   0.114 -0.0063 -0.0381 -0.2386
 1413W        W 5477   5.750   7.985   3.875  0.6147  0.0554  0.0927
 1414W        W 5478   3.436   7.872   2.680 -0.0073 -0.0217  0.1039
 1415W        W 5479  10.366   0.842   3.857 -0.1731 -0.2937 -0.1695
 1416W        W 5480   5.395   8.208   2.035 -0.1428 -0.1882  0.0750
 1417W        W 5481   8.061   9.158  10.543 -0.1380 -0.3065 -0.3393
 1418W        W 5482   9.337  10.096   3.856  0.1806  0.1148  0.0393
 1419W        W 5483   5.196   8.805   0.477 -0.0218 -0.0420  0.1321
 1420W        W 5484   3.968   4.624   9.017  0.2310 -0.1691  0.0398
 1421W        W 5485   1.585   2.018   0.803  0.4958 -0.0926  0.0304
 1422W        W 5486   6.310   7.359   1.683  0.1409  0.2679  0.1613
 1423W        W 5487  10.643   7.181   7.668 -0.1620 -0.0433 -0.1016
 1424W        W 5488   5.549   9.360  10.160  0.0646 -0.0045 -0.1708
 1425W        W 5489   1.053   9.654   3.011 -0.2496  0.1413 -0.0397
 1426W        W 5490  10.063   3.402  10.505  0.3336  0.2509  0.2315
 1427W        W 5491   5.204  10.302   3.441  0.0975 -0.0670 -0.0831
 1428W        W 5492   7.143  10.636   0.835  0.4139 -0.0829  0.1439
 1429W        W 5493   6.148   1.871   9.444 -0.1646  0.1467 -0.0057
 1430W        W 5494   3.809   8.855   3.213  0.1330 -0.0183 -0.1011
 1431W        W 5495   1.339   5.860   9.999 -0.0971 -0.0747 -0.0530
 1432W        W 5496   6.566   2.711   8.512 -0.0900 -0.1560  0.0659
 1433W        W 5497   0.766   4.966  10.568 -0.0472  0.2125  0.0703
 1434W        W 5498   9.777   8.906   8.282 -0.0107 -0.1689  0.0881
 1435W        W 5499   6.401   9.990   3.023 -0.2237 -0.0574 -0.0886
 1436W        W 5500  10.246   1.658   2.580  0.0422 -0.0694 -0.5431
 1437W        W 5501   7.241   8.938  10.850  0.1281  0.1020  0.2966
 1438W        W 5502   7.829   7.750   2.313  0.1711 -0.1238 -0.1562
 1439W        W 5503   1.341   5.555  11.077 -0.1355 -0.0995  0.1094
 1440W        W 5504   2.574   1.286   9.895  0.0876 -0.2560 -0.1839
 1441W        W 5505   0.787   0.488   8.337  0.1341 -0.1641 -0.2645
 1442W        W 5506   2.227   2.872   8.352  0.0099  0.0819 -0.2010
 1443W        W 5507  10.302  10.068   9.419 -0.0598 -0.1579  0.1300
 1444W        W 5508   9.627   7.967   1.984  0.2243  0.0719  0.0399
 1445W        W 5509   5.170   4.639   8.356  0.2527  0.2696 -0.0734
 1446W        W 5510   2.795   9.868   1.800  0.1338  0.3349  0.1351
 1447W        W 5511   3.334   3.300   1.061 -0.0536  0.0638  0.3734
 1448W        W 5512   5.909   7.058   2.799  0.0373 -0.1566 -0.5295
 1449W        W 5513   2.176   7.987   9.236  0.2039  0.0408  0.3253
 1450W        W 5514   8.608   1.583   2.483 -0.4106  0.0356 -0.0285
 1451W        W 5515   4.545   4.669   1.360  0.1650  0.3724 -0.1184
 1452W        W 5516   3.167   4.929   0.207  0.1557  0.0737 -0.0435
 1453W        W 5517   4.116   1.923   0.228 -0.0289 -0.1107  0.0046
 1454W        W 5518   8.280   4.462  10.089 -0.2374  0.2636 -0.2174
 1455W        W 5519   6.127  10.260   8.003  0.1498 -0.1358  0.2327
 1456W        W 5520   2.305   1.527   3.503 -0.4121 -0.3777  0.2045
 1457W        W 5521   3.850   2.317   9.464  0.2222 -0.0630 -0.1558
 1458W        W 5522   4.501   4.459   8.297  0.2952  0.0844 -0.0177
 1459W        W 5523   1.133   3.360   2.802  0.0937  0.1573  0.0815
 1460W        W 5524   4.855   7.414  10.474 -0.2356  0.4889  0.2089
 1461W        W 5525   8.940   7.291   1.050 -0.4285 -0.0981  0.2386
 1462W        W 5526   2.114   0.567   7.883  0.0378 -0.2524 -0.0921
 1463W        W 5527   3.026   4.423   1.475 -0.2636  0.0923  0.1079
 1464W        W 5528   3.062   4.929   1.414 -0.0368 -0.0846  0.3559
 1465W        W 5529   6.318   4.414   9.537 -0.2473 -0.0576 -0.1752
 1466W        W 5530   1.142   3.220  10.981 -0.3036  0.0759  0.0817
 1467W        W 5531   5.903   8.778   7.861  0.0759  0.0757  0.1606
 1468W        W 5532   2.819   2.252   3.387  0.2007  0.1471 -0.3155
 1469W        W 5533   9.393   7.164   2.209 -0.0130 -0.4599  0.0253
 1470W        W 5534   0.288   7.495   1.722 -0.1446  0.0304 -0.4010
 1471W        W 5535   2.351   5.537   2.927 -0.0123  0.2007 -0.0560
 1472W        W 5536   9.585   5.825  11.041  0.0844  0.2113  0.4980
 1473W        W 5537   6.769   8.434   2.095 -0.1968 -0.2237 -0.0778
 1474W        W 5538   7.331   8.836   8.082 -0.0104 -0.2208 -0.3774
 1475W        W 5539   7.390   4.162   2.014 -0.3744  0.1147  0.0905
 1476W        W 5540   6.632   6.510   1.820  0.0042 -0.1185  0.1160
 1477W        W 5541   4.318   1.621   9.089 -0.1456  0.1072  0.2831
 1478W        W 5542   2.212   8.658  10.452  0.2059  0.0394 -0.1170
 1479W        W 5543   8.000   4.147   2.112 -0.1222  0.2435  0.1345
 1480W        W 5544   3.558  10.038  10.263 -0.2029 -0.2220  0.1080
 1481W        W 5545   3.944   7.644   8.498  0.1572  0.0985 -0.0530
 1482W        W 5546   0.678   7.464   9.427  0.1571  0.0480 -0.2084
 1483W        W 5547   8.950   5.244   0.953 -0.4358  0.0895 -0.1392
 1484W        W 5548   4.692   8.796  10.438  0.1302 -0.0886 -0.2932
 1485W        W 5549   8.892   7.960   2.632 -0.3758 -0.1302  0.1439
 1486W        W 5550   0.398   6.279   0.770 -0.1579  0.0247  0.1535
 1487W        W 5551   0.822   9.643   1.652  0.1028 -0.2113  0.0072
 1488W        W 5552   9.867   5.768   9.179  0.0458 -0.0130  0.0444
 1489W        W 5553   1.247   8.420   7.684  0.2598  0.1601  0.1333
 1490W        W 5554   9.884  10.385  10.336 -0.1185 -0.2800  0.3227
 1491W        W 5555  10.440   1.942   2.995  0.2262 -0.0236  0.0953
 1492W        W 5556   7.583   0.548   1.252  0.0218  0.5090 -0.0355
 1493W        W 5557  10.229   7.277   0.576 -0.2052 -0.3385 -0.0245
 1494W        W 5558   0.185   0.646  11.088  0.0267 -0.1434 -0.2748
 1495W        W 5559   0.467   2.793   8.392  0.1792 -0.0542 -0.1237
 1496W        W 5560   5.294  10.285   0.410 -0.2133 -0.1675 -0.0075
 1497W        W 5561   5.101   5.322   1.439  0.3286  0.5161 -0.2993
 1498W        W 5562   4.882   0.505   2.806 -0.1417  0.1656 -0.0434
 1499W        W 5563   2.327   7.432   9.204 -0.1593  0.0965  0.2789
 1500W        W 5564   5.612   2.505   0.103 -0.2658 -0.0141  0.1265
 1501W        W 5565   2.825   3.694  10.791  0.2938 -0.0274  0.2543
 1502W        W 5566   5.890   5.982   7.988  0.1074  0.1434  0.2500
 1503W        W 5567   7.234   7.495   7.522  0.0233 -0.2023  0.1795
 1504W        W 5568   4.703   1.760   0.515 -0.0718 -0.2216 -0.2292
 1505W        W 5569   7.701   1.896   9.266  0.1304 -0.0196 -0.0113
 1506W        W 5570   9.075   2.868   1.216  0.1705  0.2019 -0.1257
 1507W        W 5571   4.806   5.662   9.837 -0.3138  0.0120  0.0271
 1508W        W 5572   6.419   2.248  11.262  0.1269  0.0836 -0.0277
 1509W        W 5573   8.721   7.786   3.835  0.0169 -0.1468 -0.2220
 1510W        W 5574   0.970   0.876   3.797  0.0517  0.3921  0.1077
 1511W        W 5575   4.350   3.560   9.261 -0.3279  0.0612  0.2345
 1512W        W 5576   0.494   7.500   2.751 -0.4822 -0.1434 -0.0777
 1513W        W 5577   3.308   2.873   8.986 -0.0030 -0.0270  0.1829
 1514W        W 5578   0.731   1.555   8.155  0.0802 -0.1623  0.2806
 1515W        W 5579   8.172   1.908   9.988 -0.0520 -0.0110 -0.0553
 1516W        W 5580   0.617   5.522   9.686  0.0821  0.0032  0.0569
 1517W        W 5581   3.594   2.844   2.013 -0.2631  0.2895 -0.1615
 1518W        W 5582   2.869   1.680  10.018  0.3376 -0.0581  0.0784
 1519W        W 5583   1.729   3.159   3.185 -0.0526  0.3695  0.2521
 1520W        W 5584   6.803   4.028   9.493 -0.2239 -0.1177 -0.0850
 1521W        W 5585   2.677   3.891  11.200 -0.2096  0.0624  0.0106
 1522W        W 5586   0.885   9.338   9.175  0.1412 -0.1639 -0.1796
 1523W        W 5587   4.684   1.883   2.382 -0.3584  0.2055  0.4000
 1524W        W 5588   5.429   7.673   1.090 -0.2169  0.5152 -0.1245
 1525W        W 5589  10.034   1.948  10.122  0.0378  0.0511  0.0446
 1526W        W 5590   3.811  10.173   4.074  0.2084 -0.1666  0.1001
 1527W        W 5591   2.239   5.399   1.831 -0.2426  0.0007 -0.2235
 1528W        W 5592   5.425   8.139   8.806 -0.1092 -0.0627  0.1695
 1529W        W 5593   0.519   7.001   9.525  0.0082 -0.0264 -0.2841
 1530W        W 5594   2.503   5.425  10.488 -0.2723 -0.2046 -0.0309
 1531W        W 5595   3.046   9.584   8.978  0.1545 -0.3257  0.1219
 1532W        W 5596   3.248   0.555  10.227 -0.1028 -0.1704 -0.1479
 1533W        W 5597   7.909   6.274   9.861 -0.0936 -0.1581  0.1341
 1534W        W 5598   3.839   2.577   2.971 -0.0502  0.0667  0.2156
 1535W        W 5599  10.385   3.345   8.504  0.2248  0.0011 -0.3607
 1536W        W 5600   9.443   3.539   0.601 -0.4597  0.3350  0.0444
 1537W        W 5601   2.302   6.924   2.097  0.2382  0.0166  0.2485
 1538W        W 5602  10.669   9.254  11.005  0.2475  0.1322  0.1140
 1539W        W 5603   9.621   7.763   1.512  0.3456 -0.1906  0.0264
 1540W        W 5604   4.575   4.923   0.716 -0.1233  0.2189  0.0905
 1541W        W 5605   2.945   8.754   7.840 -0.0194  0.1698  0.1649
 1542W        W 5606   8.677   5.227   2.687  0.3336 -0.0107  0.2263
 1543W        W 5607   0.871   7.844   9.121  0.0479  0.2619  0.0194
 1544W        W 5608  10.297   5.743   8.831  0.0626  0.1265 -0.2340
 1545W        W 5609   4.308   1.366   9.549 -0.1046 -0.0074  0.2173
 1546W        W 5610   4.003   2.055   8.979  0.1522 -0.0752 -0.2636
 1547W        W 5611   9.378   4.309  11.018  0.2307  0.1950 -0.4604
 1548W        W 5612   9.204   0.232  10.382  0.1733  0.0859  0.0432
 1549W        W 5613   2.229   4.752  10.076  0.1375  0.0198 -0.0293
 1550W        W 5614   2.466   1.582   2.390  0.1028  0.4317 -0.1928
 1551W        W 5615   2.505   5.031   2.736  0.1596  0.0760 -0.1247
 1552W        W 5616   5.251   5.569   8.207 -0.3024  0.0381 -0.0291
 1553W        W 5617   5.298   9.171  11.165  0.2364  0.4411  0.0077
 1554W        W 5618   9.775   0.672  10.080 -0.1721 -0.3048 -0.1267
 1555W        W 5619   8.855   3.642   7.807 -0.1402  0.4359 -0.0970
 1556W        W 5620   2.928  10.353   1.393 -0.2257  0.0909  0.3030
 1557W        W 5621   9.183   5.258   7.799  0.1650  0.0572  0.0183
 1558W        W 5622   8.748   2.188  10.069 -0.0435  0.1117 -0.1505
 1559W        W 5623   4.898  10.563   9.489 -0.1829 -0.2197  0.2347
 1560W        W 5624   0.338   1.169   9.475 -0.0020 -0.0343 -0.1319
 1561W        W 5625   0.385   7.685   0.482 -0.2810 -0.0554 -0.2647
 1562W        W 5626   5.792   3.663   9.284 -0.0937  0.2471  0.1278
 1563W        W 5627   5.080   6.458   9.057 -0.3350  0.0368 -0.3392
 1564W        W 5628   5.387   6.270   0.082 -0.0743 -0.1451  0.1924
 1565W        W 5629   1.823   9.834   4.052  0.3003 -0.2472  0.3232
 1566W        W 5630   6.309   4.567  10.041  0.0263 -0.1043 -0.2646
 1567W        W 5631   9.840   0.435   2.226 -0.1714  0.1213  0.1829
 1568W        W 5632   1.639   5.454   8.472  0.2180  0.0117 -0.0946
 1569W        W 5633   9.941   2.413   7.966  0.0235  0.3075  0.2524
 1570W        W 5634   3.541   8.198   0.156 -0.5407 -0.1120 -0.0471
 1571W        W 5635   9.745   6.491   0.642 -0.1266 -0.0680  0.1276
 1572W        W 5636   8.586   5.627   3.249  0.0219  0.0150 -0.0474
 1573W        W 5637   3.496   4.185   0.752 -0.1860 -0.4230  0.1965
 1574W        W 5638   6.201   1.322   9.361  0.1445  0.0326  0.0405
 1575W        W 5639   6.022   3.050  10.888  0.6159 -0.1715 -0.1107
 1576W        W 5640   1.730   4.563   2.728  0.1607  0.2333 -0.2823
 1577W        W 5641   8.927   9.695  10.639  0.1843 -0.2131 -0.1803
 1578W        W 5642   5.285   9.671   9.864  0.2006 -0.0931  0.0069
 1579W        W 5643   9.058   8.097   0.842 -0.0148  0.1365 -0.1526
 1580W        W 5644   6.573   2.813   1.029 -0.3079 -0.1044 -0.2284
 1581W        W 5645   8.499   6.315   1.868 -0.0440 -0.2157 -0.4657
 1582W        W 5646   8.571   2.802   8.085  0.1370  0.2800 -0.1299
 1583W        W 5647   9.542   2.099  10.197  0.1253  0.0677 -0.2480
 1584W        W 5648   6.700   1.580   2.373 -0.2302 -0.0435 -0.1536
 1585W        W 5649   8.261   8.212  11.392  0.1633  0.0732  0.3978
 1586W        W 5650   5.361   3.254   8.448 -0.4986  0.2708  0.1900
 1587W        W 5651   9.823   0.784  11.492  0.3036  0.1600 -0.1206
 1588W        W 5652   0.201  10.081   2.964 -0.0651  0.1997 -0.0477
 1589W        W 5653   9.416  10.284   8.692 -0.3012 -0.3348  0.3029
 1590W        W 5654   0.910   4.385   1.133  0.0064  0.1201  0.2091
 1591W        W 5655   7.189   1.297   9.148 -0.1135 -0.0875  0.0228
 1592W        W 5656   1.438   5.450  10.404  0.1616 -0.1128  0.1583
 1593W        W 5657   8.976   6.743   9.628 -0.1012 -0.1323 -0.0394
 1594W        W 5658   6.147   3.815   1.695 -0.1544 -0.0493  0.0223
 1595W        W 5659  10.431   8.299   1.993  0.1857  0.1680 -0.1124
 1596W        W 5660   3.317   4.941  10.247 -0.3914  0.0071  0.0219
 1597W        W 5661   1.337   1.262   2.324  0.0748 -0.0354 -0.2041
 1598W        W 5662   3.402   7.670  10.823  0.0374  0.1691  0.2365
 1599W        W 5663   3.795   9.352   3.275  0.1368 -0.0385 -0.0821
 1600W        W 5664   4.435   2.874  10.067  0.2803 -0.2039 -0.1424
 1601W        W 5665   1.001   4.240   2.370  0.1332 -0.0597 -0.2230
 1602W        W 5666   5.202   2.108   1.227 -0.0420 -0.1463  0.1168
 1603W        W 5667   6.634   4.136   1.678  0.1334 -0.1079 -0.1105
 1604W        W 5668   5.167   2.349   3.145 -0.3482 -0.0924  0.5097
 1605W        W 5669   2.741   0.805   3.709  0.2514  0.1831  0.1642
 1606W        W 5670  10.143   1.250   9.311  0.0144 -0.1204 -0.0009
 1607W        W 5671   6.755   1.295  11.201  0.1962  0.0596 -0.0324
 1608W        W 5672   3.256   3.744  10.962 -0.2514 -0.0610 -0.1062
 1609W        W 5673   1.129   7.526   8.628  0.2389  0.0227  0.2669
 1610W        W 5674   5.371   2.435   1.577 -0.0531  0.2517  0.0173
 1611W        W 5675   1.909   2.553  11.086  0.0754  0.0515 -0.1132
 1612W        W 5676   3.652   1.952   3.070 -0.2840 -0.1617  0.0481
 1613W        W 5677   7.354   9.367   3.015  0.0942 -0.0296  0.1572
 1614W        W 5678   8.874   8.705   8.882 -0.0312  0.1442 -0.2001
 1615W        W 5679   1.738   2.831   3.578  0.0223  0.2609  0.0085
 1616W        W 5680   3.862   1.419   8.407 -0.1017 -0.1695  0.0699
 1617W        W 5681   2.070   9.134  10.638  0.0599 -0.1629  0.0819
 1618W        W 5682   1.666   3.526  10.631  0.1163  0.0994 -0.0914
 1619W        W 5683   2.541   0.814   9.133  0.0528 -0.0641 -0.3148
 1620W        W 5684   3.190   8.632  11.495  0.0914 -0.0587  0.2404
 1621W        W 5685   5.484   9.887   3.516 -0.0734  0.0108 -0.2091
 1622W        W 5686   4.893   8.871   3.516 -0.1026  0.2432 -0.1279
 1623W        W 5687   1.870   9.318   9.586 -0.0704 -0.2025 -0.1955
 1624W        W 5688   2.373   3.893   9.295 -0.1114 -0.2577  0.1187
 1625W        W 5689   4.602   3.827   9.583 -0.1238 -0.0980  0.0562
 1626W        W 5690   0.311   3.203   8.683 -0.2195  0.1800  0.0558
 1627W        W 5691   3.717   4.609   8.570 -0.2744 -0.1158  0.0491
 1628W        W 5692   6.579  10.597   1.653 -0.0676 -0.0770 -0.3708
 1629W        W 5693   3.977   9.213   0.387  0.0043 -0.1449  0.1291
 1630W        W 5694   3.725   2.442  10.871  0.1309  0.0689 -0.2602
 1631W        W 5695   3.623   1.418   1.053 -0.0549  0.1442 -0.1144
 1632W        W 5696   1.164   5.025   3.500 -0.0081 -0.1874 -0.1564
 1633W        W 5697   2.149   9.119   2.827  0.1376 -0.2257 -0.0175
 1634W        W 5698   5.471   5.219   3.116 -0.0433 -0.0486  0.0702
 1635W        W 5699   9.601  10.011  10.535  0.0225  0.1943 -0.3226
 1636W        W 5700   7.517   2.324   1.609 -0.1071 -0.0734  0.2031
 1637W        W 5701   9.660   2.850   1.364 -0.0617 -0.3005  0.1657
 1638W        W 5702   8.465   5.890   0.384 -0.1193 -0.0194 -0.0060
 1639W        W 5703   2.297   4.365   3.934 -0.2398  0.1983 -0.2905
 1640W        W 5704   5.842   1.430   0.124  0.2972  0.2290 -0.0208
 1641W        W 5705   0.358   4.731   0.063  0.2674 -0.0550 -0.0957
 1642W        W 5706   5.283   4.943   0.263 -0.1510 -0.0617 -0.0731
 1643W        W 5707   7.308   4.025   3.496 -0.0540 -0.0054  0.3229
 1644W        W 5708   4.089   7.165  10.184 -0.2858  0.1154 -0.2536
 1645W        W 5709   7.070  10.080   9.088  0.3201  0.1735 -0.1023
 1646W        W 5710   5.129   0.341   9.479 -0.0945 -0.1859  0.1352
 1647W        W 5711   5.658   1.518   0.587 -0.2950  0.0846  0.3102
 1648W        W 5712   9.806   7.826   2.441 -0.1376  0.3885 -0.0559
 1649W        W 5713   2.452   8.635   9.857  0.2328 -0.0711  0.2595
 1650W        W 5714   0.167   4.342   3.376  0.0252  0.0727  0.1339
 1651W        W 5715   6.105   8.642   0.555  0.2023  0.0073  0.2483
 1652W        W 5716   1.873   8.276   0.974 -0.3118 -0.3456 -0.2588
 1653W        W 5717   4.890   8.389   3.175  0.1091 -0.1633  0.2547
 1654W        W 5718   1.704  10.588   8.327  0.1004  0.1247 -0.0007
 1655W        W 5719   5.699   6.621   9.978  0.1362  0.0957 -0.0784
 1656W        W 5720   1.328   3.920  11.411  0.2240  0.1561 -0.3016
 1657W        W 5721   1.804   8.681  10.158  0.2641 -0.2729  0.0841
 1658W        W 5722   6.758   1.319   0.806 -0.0641 -0.2064  0.0095
 1659W        W 5723   4.936   7.038  11.343  0.1959  0.1535 -0.0120
 1660W        W 5724   0.326   5.565   2.052  0.0181 -0.1113 -0.0407
 1661W        W 5725   9.457   0.062  11.448  0.1526  0.4018  0.2744
 1662W        W 5726   5.699   1.756  10.182  0.1169 -0.1031 -0.8310
 1663W        W 5727   0.296   2.874   1.827 -0.1881 -0.3590  0.0159
 1664W        W 5728   4.702   6.632   3.555  0.0892 -0.2756 -0.1121
 1665W        W 5729   8.080   9.274   8.525  0.2789  0.2636 -0.0668
 1666W        W 5730   4.153   7.562   1.774 -0.1003 -0.0262  0.1628
 1667W        W 5731   0.812   5.887   2.204 -0.1045 -0.1026 -0.1173
 1668W        W 5732   5.853   8.992   9.907 -0.0509 -0.0177 -0.0370
 1669W        W 5733   5.821   3.356   0.353 -0.1586 -0.1144  0.3647
 1670W        W 5734   2.190   6.112   1.870  0.3773  0.2794  0.2063
 1671W        W 5735   6.702   9.697   0.424 -0.0368 -0.0503  0.0787
 1672W        W 5736   3.231  10.583   8.024 -0.1540 -0.2403 -0.0573
 1673W        W 5737   3.952   9.553   9.611  0.2714 -0.2590 -0.1326
 1674W        W 5738   8.841   7.601   2.246 -0.1419 -0.7831  0.0906
 1675W        W 5739   7.767   9.293   9.010  0.0305 -0.2925 -0.1044
 1676W        W 5740   9.382   5.613  10.161 -0.1276 -0.2081 -0.0623
 1677W        W 5741   4.330  10.519   7.324 -0.0356 -0.0445  0.0758
 1678W        W 5742   5.164   8.705   9.496  0.1567  0.3022 -0.0599
 1679W        W 5743   1.626   7.557  10.400 -0.0545 -0.1033  0.0945
 1680W        W 5744   1.961   3.693   3.047 -0.1609  0.1226  0.1218
 1681W        W 5745   9.150  10.345   1.745 -0.4329  0.1994 -0.4416
 1682W        W 5746   2.055   7.651   9.598  0.3436  0.1280 -0.1238
 1683W        W 5747   8.873   9.693   0.389  0.1303  0.2206 -0.0469
 1684W        W 5748   7.414   4.567   8.977 -0.0118  0.1263 -0.2646
 1685W        W 5749   4.573   3.761   8.508 -0.3753  0.2056 -0.0346
 1686W        W 5750  10.355   5.182  10.952 -0.1665  0.2327  0.1488
 1687W        W 5751   7.884   2.879  10.331  0.0416 -0.0552  0.1240
 1688W        W 5752   0.671   9.071   1.050  0.0189  0.0425 -0.2700
 1689W        W 5753   6.158   1.199   3.339 -0.0094  0.0822 -0.3368
 1690W        W 5754   3.390   3.655   2.379  0.5095 -0.1276 -0.2131
 1691W        W 5755   1.807   2.396  10.021  0.1601  0.1063  0.1164
 1692W        W 5756   3.525   4.273   1.522 -0.1872 -0.2012  0.1114
 1693W        W 5757   5.015   6.031  10.612  0.1386  0.1660  0.4276
 1694W        W 5758   7.787   7.543   1.838 -0.0791  0.2467  0.2480
 1695W        W 5759   4.084   8.168   1.593  0.1172  0.0426 -0.2018
 1696W        W 5760   8.797   5.434  10.933  0.0886  0.2113  0.0936
 1697W        W 5761   3.494   5.918  10.156 -0.2669 -0.0791  0.1458
 1698W        W 5762   6.975   4.938   0.032  0.1693  0.0389 -0.0456
 1699W        W 5763   5.975   0.095   9.586 -0.0379 -0.0427  0.1399
 1700W        W 5764   1.311   3.955  10.338 -0.0970  0.2675  0.3206
 1701W        W 5765   5.113  10.624  10.541 -0.1032  0.0604  0.1462
 1702W        W 5766   2.492  10.564   9.565  0.0471  0.4184  0.0810
 1703W        W 5767   4.856   3.811  10.823 -0.1372  0.0432 -0.0641
 1704W        W 5768   2.118   6.404   7.025 -0.0396 -0.0650  0.3354
 1705W        W 5769   2.241   6.140  10.995  0.0008 -0.0357 -0.1210
 1706W        W 5770   0.419   3.578   9.447  0.1628  0.3451 -0.0702
 1707W        W 5771  10.509   0.326   8.819 -0.1777  0.2720 -0.0137
 1708W        W 5772   4.394  10.310   0.017  0.0616 -0.2373  0.0144
 1709W        W 5773   1.612   6.198   9.647 -0.1315 -0.0715 -0.0225
 1710W        W 5774   7.869   1.625  11.373 -0.1232  0.0959  0.0889
 1711W        W 5775   9.847  10.260   0.736 -0.0380  0.2258  0.0229
 1712W        W 5776   7.006   0.171  11.211  0.1186  0.0449  0.3052
 1713W        W 5777   4.626   4.709  10.736  0.1000 -0.2272  0.4226
 1714W        W 5778   8.785  10.625  10.703 -0.3534  0.0110  0.0525
 1715W        W 5779   6.640  10.071   1.534 -0.1719  0.1430 -0.0485
 1716W        W 5780   6.117   5.785   0.452 -0.3246 -0.0995 -0.2443
 1717W        W 5781   0.425   2.915   9.419 -0.2086  0.1341  0.0471
 1718W        W 5782   1.502   4.405  10.306 -0.1770  0.3368  0.0726
 1719W        W 5783   7.990  10.347   9.574 -0.2475  0.1006  0.2441
 1720W        W 5784   1.594  10.010   2.368  0.2438  0.2591 -0.2691
 1721W        W 5785   3.989   0.699   0.281  0.4257 -0.4100  0.1217
 1722W        W 5786   6.576   8.281   3.015 -0.4105 -0.4010 -0.0508
 1723W        W 5787   4.566   4.096   3.724  0.0760  0.0419 -0.0147
 1724W        W 5788   5.138   4.892   3.490 -0.0935 -0.0573 -0.1489
 1725W        W 5789   4.106   7.516   9.010  0.2255  0.0872 -0.0423
 1726W        W 5790   9.320   3.726   9.496 -0.4377 -0.0140  0.0659
 1727W        W 5791   6.527   1.735  11.193 -0.2653  0.0969 -0.1161
 1728W        W 5792   6.295   6.293   0.639  0.2590  0.1969  0.0879
 1729W        W 5793   6.696   1.680   1.805  0.1936 -0.1029  0.2973
 1730W        W 5794   0.223   7.318   8.610  0.3676  0.1287 -0.0771
 1731W        W 5795   0.274   9.262   8.485  0.2784  0.2820 -0.2537
 1732W        W 5796   6.532   0.967   8.242 -0.2341 -0.0690 -0.0097
 1733W        W 5797   6.256   7.922   8.496 -0.4207 -0.1838  0.0024
 1734W        W 5798   8.686   5.765   9.538  0.1999  0.1019 -0.0075
 1735W        W 5799   9.199   1.828   2.276 -0.2101  0.1061  0.0807
 1736W        W 5800   3.795   0.056  10.950 -0.2168  0.3779 -0.0839
 1737W        W 5801   0.758   6.134  10.520 -0.0394  0.0952  0.1227
 1738W        W 5802   2.002   5.754   0.629  0.0409 -0.0384 -0.2391
 1739W        W 5803   8.078   8.296   8.006 -0.0120  0.2243 -0.0788
 1740W        W 5804   0.631   2.299   9.266 -0.3098 -0.1617 -0.1197
 1741W        W 5805   8.430   0.342   0.741 -0.1630 -0.4406  0.2586
 1742W        W 5806   7.254   1.301  10.448  0.0726 -0.0612  0.3518
 1743W        W 5807   9.439   1.625   3.299 -0.1183 -0.2645 -0.0721
 1744W        W 5808   1.595   1.824   3.395 -0.1319  0.1056  0.3015
 1745W        W 5809   7.611   1.168   8.224  0.2575  0.2551 -0.0200
 1746W        W 5810   7.445   8.498  10.941  0.2713  0.2403 -0.3702
 1747W        W 5811   5.679   0.283  11.151  0.1572 -0.0197  0.0464
 1748W        W 5812   5.696   8.876   3.284  0.1508 -0.0955  0.1188
 1749W        W 5813   5.666   2.096  10.611  0.1481  0.0089 -0.0659
 1750W        W 5814   9.282   9.428   0.557  0.1355 -0.1369 -0.0080
 1751W        W 5815   5.024   7.731   1.363 -0.0389  0.1574  0.0945
 1752W        W 5816   2.817   7.552   2.501 -0.0787  0.0632 -0.0920
 1753W        W 5817   9.587   5.662   7.984 -0.0412  0.0648  0.2322
 1754W        W 5818   9.169  10.392   2.617  0.1034 -0.1050 -0.2940
 1755W        W 5819   2.422   4.879   0.426  0.1657  0.0350 -0.1570
 1756W        W 5820   1.630   9.432   3.800  0.0727  0.0148 -0.1090
 1757W        W 5821   9.115   2.541   3.629 -0.0887 -0.0377 -0.0675
 1758W        W 5822   3.909   7.824  10.752  0.0344  0.0913  0.1396
 1759W        W 5823   6.591   7.384   0.448  0.1421  0.0062  0.2627
 1760W        W 5824   3.715   4.151   3.106 -0.1780 -0.1515 -0.1103
 1761W        W 5825   6.987   7.971   2.881  0.0372 -0.1963 -0.1522
 1762W        W 5826   6.776   6.658   8.087 -0.1791 -0.3147  0.2714
 1763W        W 5827   4.102   5.672   0.622  0.1211  0.1168  0.1314
 1764W        W 5828   9.897   6.007   7.859 -0.0928 -0.3589  0.1136
 1765W        W 5829   1.368   0.011  10.885 -0.2045 -0.1070  0.0662
 1766W        W 5830   2.859   1.165   9.522 -0.1098  0.0669  0.1048
 1767W        W 5831   9.380   5.797   2.214  0.1737  0.0681  0.2166
 1768W        W 5832   1.934   8.155   8.745  0.0690  0.0122 -0.0090
 1769W        W 5833   1.353   9.013   0.504 -0.0805 -0.2656 -0.1869
 1770W        W 5834   2.006   5.463   3.291  0.0240  0.1885 -0.1029
 1771W        W 5835  10.659   1.256   8.572  0.0713  0.0784  0.0390
 1772W        W 5836   9.726   9.747   0.889  0.2679 -0.3273 -0.3520
 1773W        W 5837   2.596   3.319   9.883  0.0814  0.2043  0.2436
 1774W        W 5838   4.489   7.298   9.269  0.6290 -0.2356 -0.0271
 1775W        W 5839   6.068   8.558   0.079 -0.1382  0.2337 -0.1593
 1776W        W 5840   6.069  10.435   1.514  0.2009  0.3928  0.0450
 1777W        W 5841  10.457   6.071  10.585 -0.4200  0.0017 -0.0298
 1778W        W 5842   9.238   5.317   8.336 -0.0090 -0.0059 -0.1662
 1779W        W 5843   2.705   7.748   0.047 -0.4502 -0.1424  0.3107
 1780W        W 5844   8.759   8.323   7.198 -0.0643 -0.4654  0.1483
 1781W        W 5845   6.126   2.073   1.897 -0.2848  0.1072  0.0498
 1782W        W 5846   8.572   8.419   7.969 -0.0345 -0.2758  0.0065
 1783W        W 5847  10.075   6.972   2.707  0.1011 -0.1221  0.0419
 1784W        W 5848   7.945   3.485   9.680  0.2773 -0.0641  0.1598
 1785W        W 5849   0.550  10.431   1.365  0.0857  0.1265  0.0190
 1786W        W 5850   6.300   0.646  11.510 -0.0154 -0.1427  0.0868
 1787W        W 5851   9.295   0.630  11.183 -0.1122  0.1311 -0.1432
 1788W        W 5852   2.559   5.610   3.388 -0.1113  0.2024 -0.1702
 1789W        W 5853  10.553  10.603   3.636  0.2816 -0.0677 -0.3625
 1790W        W 5854   3.662   7.041   2.163  0.1931  0.1254  0.2947
 1791W        W 5855   3.077   0.859  11.222  0.2539  0.0053  0.1034
 1792W        W 5856   6.295   3.586   8.425  0.2730  0.2455  0.0564
 1793W        W 5857   5.142   9.923  11.138  0.2577 -0.2588 -0.0570
 1794W        W 5858   3.385   4.558   1.112  0.0249 -0.0166 -0.2795
 1795W        W 5859   9.917   2.992   3.950 -0.0941  0.1338  0.1870
 1796W        W 5860   2.435   7.471   0.333 -0.0546 -0.1426  0.1395
 1797W        W 5861   3.419   1.033   3.778 -0.1118 -0.2235 -0.1062
 1798W        W 5862   6.312   9.546   2.088  0.0963 -0.0737 -0.1071
 1799W        W 5863  10.101   9.041   1.091  0.0098  0.1107  0.1305
 1800W        W 5864   2.935   1.411   2.965  0.4099  0.1152  0.1020
 1801W        W 5865   8.028   7.743  10.770  0.1555 -0.2454 -0.3672
 1802W        W 5866   6.643   2.423   3.139  0.1293 -0.2273  0.0287
 1803W        W 5867  10.516   9.368   3.218  0.0411 -0.2306 -0.1575
 1804W        W 5868   9.855   2.229   3.515  0.0435  0.1040  0.0510
 1805W        W 5869   5.665   5.793   8.482  0.1156  0.0175 -0.0476
 1806W        W 5870   4.560  10.429   7.741 -0.1576  0.0869  0.3870
 1807W        W 5871   1.166   2.842   0.830 -0.3379 -0.0796 -0.0663
 1808W        W 5872   6.347   0.081   9.968  0.0441  0.0533  0.0479
 1809W        W 5873   9.234   2.354  11.496 -0.1760  0.0396 -0.3458
 1810W        W 5874   6.632   2.187  10.160  0.0810 -0.0077 -0.1423
 1811W        W 5875   7.393   6.826   3.132  0.0597 -0.2150 -0.1449
 1812W        W 5876   3.706   5.522   2.008 -0.0911 -0.0234  0.1908
 1813W        W 5877   8.817   4.466   8.251 -0.1232 -0.3584 -0.1662
 1814W        W 5878   0.348   7.798  10.810  0.2080  0.0281 -0.4109
 1815W        W 5879   9.143   8.500   2.573  0.0132 -0.0449  0.1228
 1816W        W 5880   6.134  10.375  10.270  0.3287 -0.2445  0.1312
 1817W        W 5881   4.662   7.792   2.120  0.2242 -0.2122 -0.0325
 1818W        W 5882   5.734   3.738  11.458 -0.1461 -0.1001 -0.0375
 1819W        W 5883   6.044  10.509   3.212 -0.0137  0.0176  0.2137
 1820W        W 5884  10.025  10.184  11.412  0.2545  0.0244 -0.3176
 1821W        W 5885   3.190   9.797   3.491  0.1761  0.1648 -0.1007
 1822W        W 5886   4.170   1.119   8.966 -0.2333  0.2751  0.1819
 1823W        W 5887   9.702   9.798   1.589 -0.0435 -0.1336  0.0793
 1824W        W 5888   0.236   5.278   0.898  0.0208 -0.0167  0.0206
 1825W        W 5889   1.033   3.700   0.218 -0.2001  0.0699 -0.0510
 1826W        W 5890   3.992  10.591   2.093  0.0362  0.1778  0.0933
 1827W        W 5891   1.450   5.121   2.440  0.2664 -0.1296  0.1868
 1828W        W 5892   2.960   6.155   9.973 -0.1730 -0.0613  0.2301
 1829W        W 5893   2.768   0.235   1.241  0.0879 -0.2969 -0.1418
 1830W        W 5894  10.487   3.195   1.266 -0.0553 -0.3503 -0.1702
 1831W        W 5895   8.045   1.435   8.174 -0.1029  0.0418  0.0837
 1832W        W 5896   9.065   3.051  11.375 -0.2515  0.1449 -0.2308
 1833W        W 5897   5.606   3.463  10.370 -0.0933  0.0433 -0.1446
 1834W        W 5898   9.159   2.038   8.039 -0.4178 -0.0228  0.1585
 1835W        W 5899   9.271   4.843   1.317  0.1044 -0.1652 -0.0192
 1836W        W 5900   8.403   1.799   3.081  0.3035  0.1573  0.2587
 1837W        W 5901   6.141   7.683  10.496  0.0832 -0.0985 -0.3995
 1838W        W 5902   0.121  10.169   3.500  0.1113  0.0252  0.2006
 1839W        W 5903   8.223   4.057   8.977 -0.3078 -0.0495 -0.0351
 1840W        W 5904  10.057  10.656   0.458 -0.2973  0.2983 -0.1908
 1841W        W 5905   8.654   4.763   9.920  0.1004 -0.1553  0.1398
 1842W        W 5906   3.723   7.691   3.042 -0.1317 -0.1329 -0.0805
 1843W        W 5907   5.737   4.363   7.783  0.0941  0.2889 -0.1546
 1844W        W 5908   0.502   8.431   2.798 -0.1321  0.2859  0.0964
 1845W        W 5909   9.296   5.675   0.919  0.2353  0.0389 -0.0973
 1846W        W 5910   5.735   1.607  10.693 -0.2198  0.0155  0.0289
 1847W        W 5911  10.652   0.765   2.812  0.0458  0.2720  0.0773
 1848W        W 5912   6.004   1.961   1.145 -0.1017 -0.3039  0.0320
 1849W        W 5913   1.287   3.487   9.965  0.0652  0.5175 -0.0334
 1850W        W 5914   6.385   5.471   1.536  0.4221 -0.0379 -0.2330
 1851W        W 5915   1.898   7.673   2.650 -0.3598 -0.1512 -0.0635
 1852W        W 5916   8.111   3.685  10.760  0.1104  0.0098  0.0049
 1853W        W 5917   8.566   6.609   0.070 -0.1924 -0.1885  0.6065
 1854W        W 5918   1.511   7.951   1.020 -0.0603 -0.1701 -0.2774
 1855W        W 5919   8.322   2.578   2.661 -0.0712 -0.3379  0.0111
 1856W        W 5920   2.292   3.884   8.775  0.0908 -0.3391  0.1385
 1857W        W 5921   6.182   3.416   9.547 -0.2128 -0.2180  0.1758
 1858W        W 5922   5.241   0.357   1.964 -0.2801 -0.2621 -0.0645
 1859W        W 5923   2.385   1.097  10.622  0.0333 -0.2787  0.2111
 1860W        W 5924   7.470   7.194   1.878  0.2081 -0.1870 -0.0103
 1861W        W 5925   3.955   8.967   2.096 -0.0601  0.2232  0.1985
 1862W        W 5926   4.881   8.374   3.668 -0.2156  0.0006  0.0147
 1863W        W 5927   7.672   8.417   0.859 -0.0427 -0.3163  0.0230
 1864W        W 5928   3.443   6.360   8.404 -0.3418  0.1750 -0.0387
 1865W        W 5929   7.358   0.577  10.419 -0.3274 -0.0956  0.1234
 1866W        W 5930   1.176   3.741   7.778  0.1555  0.2177  0.0719
 1867W        W 5931  10.041   9.538   3.240  0.2235  0.2952  0.0600
 1868W        W 5932   2.390  10.253   1.998 -0.1862  0.0810 -0.1443
 1869W        W 5933   1.590   3.015   0.426 -0.0795 -0.0242  0.0614
 1870W        W 5934   6.311   7.284  10.773 -0.0835 -0.0000 -0.0027
 1871W        W 5935   0.973   7.137   9.209  0.0021  0.2406 -0.1256
 1872W        W 5936  10.069   7.714   0.206 -0.0471 -0.4781  0.0739
 1873W        W 5937   7.794  10.253   1.097 -0.3563 -0.1550 -0.1585
 1874W        W 5938   3.839   5.322   0.993 -0.4162  0.1621  0.1421
 1875W        W 5939   3.006   4.824   9.857  0.1366 -0.1859 -0.0081
 1876W        W 5940   7.512   2.473   0.762  0.1843 -0.1203  0.2030
 1877W        W 5941   3.643   6.299   0.890  0.1256 -0.2669  0.0828
 1878W        W 5942   6.186   9.448  10.493 -0.1201  0.0746  0.1152
 1879W        W 5943   3.965   0.351   1.213 -0.3256 -0.0646  0.1884
 1880W        W 5944   4.656   3.726   1.021  0.0834 -0.3198 -0.0924
 1881W        W 5945   0.703   5.111   1.135  0.5486  0.3345  0.0446
 1882W        W 5946   6.924   7.534   9.046 -0.0769  0.1491 -0.1238
 1883W        W 5947   5.099   1.347  10.281  0.1266 -0.0142  0.2163
 1884W        W 5948   3.001   1.248   8.307 -0.1853  0.1430  0.1193
 1885W        W 5949   9.362   6.112   0.695 -0.0752  0.2201 -0.0411
 1886W        W 5950   8.139   6.307   1.100 -0.0027  0.0321  0.3396
 1887W        W 5951   1.809   7.260   8.206  0.0997 -0.0745 -0.0575
 1888W        W 5952   7.943   9.135  11.491  0.2031  0.0210  0.0046
 1889W        W 5953   3.750   0.398  11.352 -0.1408  0.4651  0.0297
 1890W        W 5954   4.044   5.303   3.597  0.5255  0.2444 -0.1033
 1891W        W 5955   9.541   8.702   7.763  0.1351 -0.3753 -0.3936
 1892W        W 5956   1.472  10.267   8.649 -0.0810  0.0612 -0.2233
 1893W        W 5957   8.497   4.924   2.361 -0.1137 -0.0959  0.0110
 1894W        W 5958   4.101   9.528   8.471  0.1119  0.2969 -0.1255
 1895W        W 5959   6.912   6.379  11.057 -0.2552  0.0618  0.0362
 1896W        W 5960   7.685   6.451   8.903  0.1668  0.3753  0.1273
 1897W        W 5961   5.988   0.515   0.977  0.0546  0.1381  0.1266
 1898W        W 5962   8.222   9.192   4.068 -0.2069  0.0621  0.3386
 1899W        W 5963   9.242   3.091   8.512 -0.0049  0.2742 -0.3136
 1900W        W 5964   4.197   7.031  10.932 -0.1869 -0.2788  0.0954
 1901W        W 5965   4.317   0.871   9.388  0.0457  0.1071  0.2413
 1902W        W 5966   7.159   4.461   0.322 -0.1606 -0.1209  0.1582
 1903W        W 5967   9.104   9.895   2.592 -0.3244  0.1764 -0.1876
 1904W        W 5968   3.640   8.834   0.233 -0.1013  0.2005 -0.0254
 1905W        W 5969   2.967   3.019   9.813 -0.1596  0.2218  0.2864
 1906W        W 5970   0.156   1.177   1.481 -0.0605  0.0413 -0.1257
 1907W        W 5971   9.646   6.098   7.392  0.3618  0.2448 -0.4084
 1908W        W 5972   7.403   9.290  11.182  0.0690  0.0977 -0.1618
 1909W        W 5973   3.557   5.244   0.219 -0.5115 -0.0938 -0.1823
 1910W        W 5974   6.159   8.136   2.157 -0.0976  0.1714  0.0011
 1911W        W 5975   1.724   5.124  10.717 -0.0223  0.0322 -0.2204
 1912W        W 5976   8.491   4.098   2.047  0.2307 -0.4698 -0.0313
 1913W        W 5977   4.824   3.752  11.422 -0.1580 -0.3549 -0.1527
 1914W        W 5978   4.274   6.026  10.825  0.0427  0.0969 -0.0233
 1915W        W 5979   6.352   7.913   7.757 -0.0860 -0.1576 -0.0176
 1916W        W 5980   7.696   3.202   0.835 -0.0619 -0.2656  0.0511
 1917W        W 5981   7.208   6.619   8.948  0.0187 -0.2620  0.2405
 1918W        W 5982   0.037   5.184   2.096  0.4984 -0.0500  0.2147
 1919W        W 5983   4.887   8.027   9.639  0.2625 -0.2691 -0.1163
 1920W        W 5984   3.936   8.583  10.059 -0.1500  0.1658 -0.2303
 1921W        W 5985   0.562   5.111   3.885  0.2068  0.2785 -0.0072
 1922W        W 5986   9.842   2.729   4.346 -0.2739 -0.0054 -0.2022
 1923W        W 5987   9.820   6.252   1.324  0.0504 -0.1314 -0.1071
 1924W        W 5988  10.605   8.717  10.533  0.4436 -0.1235 -0.1034
 1925W        W 5989   5.720   4.512   1.195  0.2145 -0.0385 -0.0431
 1926W        W 5990   1.298   2.807   8.217 -0.0096 -0.0034 -0.2201
 1927W        W 5991   5.382   8.655   7.909  0.1539 -0.1053  0.2942
 1928W        W 5992   5.994   2.869   0.251  0.1492  0.1184 -0.1507
 1929W        W 5993   6.847   9.639   1.340 -0.2614  0.3397  0.1134
 1930W        W 5994   0.633   6.781  11.393  0.1113  0.0262  0.0998
 1931W        W 5995   5.211   5.740   8.655  0.2837 -0.0451  0.0014
 1932W        W 5996   4.440   1.993   2.830 -0.1403  0.0031  0.0537
 1933W        W 5997   1.132   2.118  11.231 -0.2268  0.0904 -0.0465
 1934W        W 5998   6.204  10.631   8.332  0.1043  0.3132  0.1491
 1935W        W 5999   3.587   7.210   3.045  0.1609 -0.0552  0.1707
 1936W        W 6000   3.229   2.366   0.139  0.3396 -0.0140  0.2914
 1937W        W 6001   8.169   4.078  10.506  0.0547  0.1511  0.0321
 1938W        W 6002   1.329   4.088   0.413 -0.3027 -0.1707  0.1462
 1939W        W 6003   1.702   8.052   2.351 -0.1965 -0.0529 -0.1009
 1940W        W 6004   6.107   9.310   9.526  0.0530  0.2320  0.2077
 1941W        W 6005  10.457   4.092  11.068  0.0295 -0.1764  0.1950
 1942W        W 6006   2.474   0.292   8.404 -0.0213  0.1459 -0.1277
 1943W        W 6007   3.229   7.232  10.880 -0.3542  0.1761 -0.1578
 1944W        W 6008   3.931   0.137   8.180  0.0336 -0.2135 -0.3219
 1945W        W 6009   8.385   3.476   1.458  0.2672  0.1823  0.0562
 1946W        W 6010   8.406   2.419   9.794  0.0549 -0.0705  0.1321
 1947W        W 6011   1.762   8.374   9.162 -0.2529  0.0782  0.3835
 1948W        W 6012   1.948   8.119   0.202 -0.0944  0.0374  0.2537
 1949W        W 6013   6.580  10.198   8.349 -0.1009  0.1499 -0.2661
 1950W        W 6014  10.471   9.283   8.625 -0.0211 -0.1720  0.1314
 1951W        W 6015   2.797   3.989   3.249 -0.1214 -0.2659 -0.1551
 1952W        W 6016   7.267   0.225   2.822  0.1508  0.1440  0.1216
 1953W        W 6017   4.229   6.818   8.426  0.2827  0.3491  0.0400
 1954W        W 6018   0.348  10.476   9.417 -0.0065  0.3116 -0.1563
 1955W        W 6019   1.253   5.263   0.038  0.4475  0.0008  0.6362
 1956W        W 6020   3.237   1.079   2.685 -0.0461  0.1439  0.0837
 1957W        W 6021   2.919   4.223  10.769  0.1277  0.1080 -0.1849
 1958W        W 6022   1.666   4.830  11.406  0.1218 -0.4176  0.0487
 1959W        W 6023   5.251   9.302   7.376  0.1493 -0.2801 -0.2553
 1960W        W 6024   0.516   7.789   7.787 -0.1130  0.1394  0.1918
 1961W        W 6025   5.418   3.219   3.405  0.0583  0.0004  0.0183
 1962W        W 6026   7.765   3.658   0.657 -0.2199  0.0162 -0.3350
 1963W        W 6027   9.035   7.265  10.910 -0.0178  0.0243 -0.2655
 1964W        W 6028   5.292   7.308   1.482  0.2431  0.1682  0.0164
 1965W        W 6029   1.260   6.730   2.151  0.1063 -0.0941 -0.0940
 1966W        W 6030   0.182   8.837   3.660  0.0957 -0.2163  0.0736
 1967W        W 6031   4.391   6.436   7.993  0.4556  0.3614  0.0567
 1968W        W 6032   6.750   0.502   9.168 -0.1067 -0.0385  0.2136
 1969W        W 6033   7.784   4.191  10.764  0.1956  0.0909  0.2121
 1970W        W 6034   2.855   0.858  10.433 -0.0287 -0.1537 -0.0974
 1971W        W 6035   0.674   1.126   2.272 -0.0083 -0.1795  0.2569
 1972W        W 6036   8.346   9.424   9.456  0.2226  0.0861  0.1918
 1973W        W 6037   0.751   3.952   8.688  0.0753 -0.1730 -0.1334
 1974W        W 6038   9.578   0.106   3.498  0.0127  0.0455  0.0339
 1975W        W 6039   1.217   7.257   9.975 -0.1430  0.2347 -0.1223
 1976W        W 6040   0.524   7.450   1.275 -0.1640  0.1833  0.0150
 1977W        W 6041   7.724   9.427   2.572  0.1026 -0.1939  0.2264
 1978W        W 6042   8.009   3.496   1.086 -0.2150 -0.0946  0.0174
 1979W        W 6043   6.595   0.705   8.630  0.3790  0.2255  0.1523
 1980W        W 6044   9.002   1.573   9.735  0.1919 -0.2338 -0.1535
 1981W        W 6045   4.504   6.461  10.657 -0.6236  0.2329 -0.0260
 1982W        W 6046   7.290   0.525   9.474  0.2596 -0.2343 -0.0162
 1983W        W 6047   0.807   7.850   2.025 -0.0022  0.5938 -0.0395
 1984W        W 6048   8.761   7.833   8.655  0.2621  0.0981 -0.3024
 1985W        W 6049   9.891   9.678   2.786 -0.0083 -0.0408 -0.3147
 1986W        W 6050   9.159   2.222   2.583  0.0091 -0.3471  0.0075
 1987W        W 6051   8.284   4.851   2.827  0.2171  0.0348  0.3090
 1988W        W 6052  10.275   7.291   1.911  0.0979 -0.1315 -0.1649
 1989W        W 6053   2.331   8.673   1.724  0.2545 -0.3545 -0.0859
 1990W        W 6054   6.612   4.618   1.481 -0.5914 -0.0217 -0.1534
 1991W        W 6055   5.486  10.116   9.736  0.0023 -0.1434 -0.1322
 1992W        W 6056   9.847   9.991   2.041 -0.2348 -0.2348  0.0755
 1993W        W 6057   4.671   8.505   9.403  0.1328  0.1215  0.1230
 1994W        W 6058   2.395   1.751   9.772  0.0091 -0.0553  0.2157
 1995W        W 6059   9.521   4.630   9.479  0.0483  0.1446  0.0636
 1996W        W 6060   7.418  10.117   0.153  0.0200  0.0388 -0.2119
 1997W        W 6061   7.071   2.771   8.563 -0.1553 -0.2473  0.0588
 1998W        W 6062   9.287   5.732   9.157 -0.4481 -0.1542 -0.0919
 1999W        W 6063  10.490  10.363  10.236 -0.2240  0.3103  0.0404
 2000W        W 6064  10.419   5.127   1.165 -0.3284 -0.3339  0.0882
 2001W        W 6065   8.426   8.931   2.223  0.2133 -0.0477  0.0887
 2002W        W 6066   8.756   1.604  11.087  0.1800  0.0049 -0.2835
 2003W        W 6067   3.421   3.765   9.819  0.3017 -0.0640  0.0760
 2004W        W 6068   2.346   2.434   2.223 -0.2182 -0.1660 -0.2825
 2005W        W 6069   5.542   9.256   7.849  0.0681  0.0765  0.4467
 2006W        W 6070   0.883   5.509  11.246  0.0457 -0.0166  0.0141
 2007W        W 6071   2.242   8.088  10.563  0.1713  0.1509 -0.0417
 2008W        W 6072   0.175   1.084  11.394  0.0996  0.3009 -0.2382
 2009W        W 6073   3.188   1.077   1.311  0.0057  0.1094 -0.0213
 2010W        W 6074   9.209   0.935   9.140 -0.0770 -0.0678 -0.0980
 2011W        W 6075   8.825   2.016   4.408  0.0903  0.1039  0.2313
 2012W        W 6076   7.893   2.136   2.007  0.0216 -0.2637 -0.1031
 2013W        W 6077   4.125   6.986   9.275  0.2963  0.1802  0.0453
 2014W        W 6078   7.807   2.295   8.110  0.0083  0.1592  0.2003
 2015W        W 6079   0.774   8.900   0.037  0.3168 -0.5144  0.0633
 2016W        W 6080   4.835   7.930  10.112  0.2156  0.3282 -0.1779
 2017W        W 6081   4.613   3.274   0.552  0.0732  0.2723  0.2253
 2018W        W 6082   5.439   1.628  11.408 -0.0357 -0.3297 -0.1200
 2019W        W 6083  10.538   4.193   8.879 -0.1537  0.0422 -0.2100
 2020W        W 6084   5.128   6.614  10.869 -0.0771 -0.2047 -0.1204
 2021W        W 6085   5.008   5.171  11.484 -0.0567 -0.0026 -0.0621
 2022W        W 6086   0.363  10.669   2.154 -0.3584 -0.1839  0.0994
 2023W        W 6087  10.037   5.949   2.297  0.2235  0.2208 -0.2449
 2024W        W 6088   3.776   5.589  11.473 -0.4630  0.1621 -0.0260
 2025W        W 6089   7.579   9.781  10.344 -0.2731 -0.1219  0.1631
 2026W        W 6090   8.065   5.334   1.063  0.0438 -0.2740 -0.3484
 2027W        W 6091   9.371   6.950   9.461  0.1536 -0.1698 -0.2553
 2028W        W 6092   3.634  10.220   7.199  0.3002 -0.2943 -0.0824
 2029W        W 6093   0.259   5.543   9.087 -0.1780  0.0114 -0.0378
 2030W        W 6094   6.368   5.722  10.571  0.0037 -0.0127  0.1434
 2031W        W 6095   6.733   2.553  10.529  0.1452 -0.0352  0.1300
 2032W        W 6096   1.973   5.645   1.391 -0.1882 -0.2663 -0.3353
 2033W        W 6097   5.664   9.063   0.692  0.0768 -0.1657 -0.0157
 2034W        W 6098   9.616   0.193   9.402  0.0577  0.1607  0.0018
 2035W        W 6099   1.354   6.282   1.021 -0.1158 -0.2903 -0.0576
 2036W        W 6100   2.700   6.200   1.615 -0.2994  0.1128 -0.0994
 2037W        W 6101   6.019   6.877  10.776  0.1550  0.1860  0.4136
 2038W        W 6102   6.717   1.850   2.860 -0.0743  0.2387 -0.1221
 2039W        W 6103  10.491   3.794   1.560 -0.1514  0.0273  0.1683
 2040W        W 6104   4.921   8.248   2.259 -0.1478 -0.0063  0.3324
 2041W        W 6105   9.695   2.572   8.786 -0.0708 -0.1250 -0.1225
 2042W        W 6106   1.819   2.661  10.540  0.0805 -0.3545 -0.1023
 2043W        W 6107   5.174   7.387  10.102  0.2010 -0.0586 -0.0014
 2044W        W 6108   5.026   3.999   9.780 -0.3072  0.0829 -0.1098
 2045W        W 6109   9.851   5.464   2.327 -0.1529 -0.0157  0.0622
 2046W        W 6110   0.046   6.428   8.278  0.4069 -0.0767  0.0274
 2047W        W 6111   0.118   8.344   1.600  0.0042  0.1589 -0.0324
 2048W        W 6112   4.332   0.432   0.655 -0.3315 -0.0058 -0.1555
 2049W        W 6113   9.392   8.832   9.552  0.2204 -0.2568  0.1107
 2050W        W 6114   3.358   5.023   2.256  0.0019 -0.0193 -0.1038
 2051W        W 6115   5.850   5.627  10.875  0.2427  0.3612 -0.5153
 2052W        W 6116   1.626   8.069   7.811 -0.1119 -0.0986  0.2749
 2053W        W 6117  10.462   8.132   0.864  0.0110 -0.0339  0.1807
 2054W        W 6118   9.134   8.447   0.460 -0.0871  0.2445  0.1095
 2055W        W 6119   7.785   4.664  10.065 -0.2005 -0.1449 -0.1495
 2056W        W 6120   0.038   7.700  10.234  0.0930  0.1180  0.0693
 2057W        W 6121   9.698   1.745   0.949 -0.3230  0.1360 -0.1564
 2058W        W 6122   1.467   9.023   1.395 -0.0173  0.0352 -0.1364
 2059W        W 6123   4.447   3.597   3.449 -0.0969 -0.1311  0.1465
 2060W        W 6124  10.411   8.427   9.058  0.0407  0.0316 -0.0111
 2061W        W 6125   9.670   6.057   2.824 -0.1823  0.4816  0.1555
 2062W        W 6126   2.793   4.528   0.365 -0.0586 -0.4806 -0.2752
 2063W        W 6127  10.263   8.352  10.856 -0.0662 -0.4823  0.2150
 2064W        W 6128   1.325   7.480   9.101 -0.1923  0.1513  0.1271
 2065W        W 6129   6.610   6.665   2.361  0.0081  0.1273 -0.1836
 2066W        W 6130  10.146   2.124   2.501 -0.2120  0.4285 -0.1900
 2067W        W 6131   7.206   0.803  11.321 -0.0439 -0.0443  0.0245
 2068W        W 6132   2.199   0.137   2.102 -0.0191 -0.0273  0.2390
 2069W        W 6133   0.575   0.381   7.160  0.0522  0.2617  0.2415
 2070W        W 6134  10.490   0.510   3.567 -0.0739 -0.0049  0.3202
 2071W        W 6135   1.853   7.615   0.223  0.3604 -0.1134  0.1280
 2072W        W 6136   9.924   8.580   3.220  0.1554  0.4560 -0.5044
 2073W        W 6137  10.408   3.887   0.070 -0.0532  0.0614  0.1630
 2074W        W 6138   7.555   6.851   2.301 -0.1972  0.1431 -0.2031
 2075W        W 6139   3.428   0.005  11.424  0.2759 -0.1133  0.0910
 2076W        W 6140   9.353   5.852   8.344  0.3769 -0.2637 -0.3839
 2077W        W 6141   8.222   1.142   2.477 -0.3813 -0.1317  0.0475
 2078W        W 6142   8.600   2.882   9.822 -0.0753 -0.1646 -0.0328
 2079W        W 6143   4.739   4.973   2.580 -0.0237  0.0670  0.0674
 2080W        W 6144   8.520   5.247   9.729  0.2616  0.1455  0.0044
 2081W        W 6145   0.659   1.887   8.837  0.0679 -0.0892 -0.1286
 2082W        W 6146   3.937   0.147   3.122  0.2016  0.1871  0.2435
 2083W        W 6147   5.657   5.097   9.712  0.0201 -0.1004 -0.0460
 2084W        W 6148   8.907   9.009   2.469 -0.1942  0.1222  0.2066
 2085W        W 6149   8.881   7.375  11.429  0.1190 -0.0135 -0.0261
 2086W        W 6150   8.440   0.247   9.971 -0.1991 -0.2642 -0.0511
 2087W        W 6151   9.326   8.385   8.627  0.2273 -0.3312 -0.1616
 2088W        W 6152   8.564   9.976   9.811  0.3286  0.1977  0.0814
 2089W        W 6153   2.427   0.578  10.644 -0.2577 -0.1150  0.1557
 2090W        W 6154   8.295   6.521   8.725  0.1507  0.3371  0.0721
 2091W        W 6155   3.712   6.324   2.797 -0.3568  0.0445 -0.1189
 2092W        W 6156   5.453  10.001   8.642  0.0041  0.1651 -0.1106
 2093W        W 6157   8.437   0.164   1.738  0.0509  0.2868  0.0916
 2094W        W 6158   2.700   1.264  11.455  0.2818  0.0008 -0.0516
 2095W        W 6159   8.228   9.614   0.123 -0.0097  0.0033  0.2071
 2096W        W 6160   1.035   4.238  10.034  0.4905 -0.0415 -0.1078
 2097W        W 6161   8.478   2.162   0.259 -0.3399 -0.2249 -0.0211
 2098W        W 6162   6.706  10.316  11.242 -0.1461  0.5134 -0.2891
 2099W        W 6163   7.989  10.308   3.275  0.2590 -0.0263 -0.1362
 2100W        W 6164   9.891   4.806   8.193  0.2092  0.0670 -0.1313
 2101W        W 6165   0.123   7.994   9.814 -0.2354  0.0753 -0.0076
 2102W        W 6166   4.530   1.045   2.567 -0.2232  0.1945 -0.0340
 2103W        W 6167   3.760   0.614   8.389  0.1871 -0.1883  0.2275
 2104W        W 6168   7.237   2.621  11.394  0.0625 -0.4044 -0.2323
 2105W        W 6169   7.127   1.225  11.524 -0.1846 -0.0955 -0.2681
 2106W        W 6170   9.655   3.684   9.101 -0.2530  0.0291 -0.0851
 2107W        W 6171   0.404   6.750   0.770 -0.2963 -0.0663  0.1201
 2108W        W 6172   6.630   0.431   1.704  0.0316 -0.0114 -0.1144
 2109W        W 6173   4.597   4.172  10.000  0.2217  0.0672 -0.1023
 2110W        W 6174   3.501   6.938   0.306 -0.2287 -0.3769 -0.1091
 2111W        W 6175   3.916   0.691   9.041  0.0255  0.0563  0.4567
 2112W        W 6176   1.546   5.490   0.600  0.3247 -0.1086  0.1129
 2113W        W 6177   2.386   6.635   1.215 -0.0221  0.3422 -0.1486
 2114W        W 6178   3.436   0.558   2.035  0.2165 -0.0338  0.1092
 2115W        W 6179   0.615   5.899   9.248  0.2295  0.1820 -0.1220
 2116W        W 6180   6.652   9.208   2.726  0.0552  0.0105  0.1865
 2117W        W 6181   9.304   3.735   2.924  0.0130 -0.0536  0.1306
 2118W        W 6182   5.316   2.578   2.762  0.1277  0.0832  0.2593
 2119W        W 6183   5.039   9.268   1.730 -0.2499 -0.0005 -0.1156
 2120W        W 6184   4.367   1.348   0.664  0.0228 -0.0893  0.0079
 2121W        W 6185   7.932   4.865   1.553  0.0857  0.0246  0.0028
 2122W        W 6186   5.424   6.220   8.169 -0.3368  0.1501 -0.2189
 2123W        W 6187   4.235   3.429   0.850  0.1079 -0.2323  0.0457
 2124W        W 6188   0.266   6.360  11.349 -0.4980  0.1867  0.0393
 2125W        W 6189   2.816  10.534  10.120  0.0495 -0.1989 -0.0086
 2126W        W 6190   5.833   9.306  10.879 -0.0790 -0.2469 -0.2765
 2127W        W 6191   6.519   6.665   8.681 -0.0438 -0.2119  0.0063
 2128W        W 6192   8.078   5.811   3.235 -0.1454 -0.2451 -0.0239
 2129W        W 6193   1.886   4.100   2.585  0.0969  0.0209 -0.0767
 2130W        W 6194   0.812   0.329  10.464  0.2701 -0.0206  0.3778
 2131W        W 6195   7.652   5.815  10.184 -0.1335  0.2556  0.0481
 2132W        W 6196   1.190   3.067   9.027 -0.0114  0.0064 -0.0330
 2133W        W 6197   8.332   7.784   0.925 -0.3523  0.1593 -0.1007
 2134W        W 6198   4.367   7.958   9.891  0.1622  0.0320 -0.3541
 2135W        W 6199   9.361   4.100   2.488  0.1630  0.1433 -0.2894
 2136W        W 6200  10.591   3.138   0.745 -0.2417  0.1055 -0.1063
 2137W        W 6201   7.187   2.787   2.363  0.4221  0.0354 -0.0985
 2138W        W 6202   3.505   3.697   3.965 -0.2428 -0.1913 -0.2102
 2139W        W 6203   7.562  10.178   8.598 -0.1317  0.0642 -0.3479
 2140W        W 6204   2.649   4.343   9.445  0.2751  0.1099  0.1263
 2141W        W 6205   1.150   5.500   8.568 -0.2337 -0.2301  0.0935
 2142W        W 6206   2.598   1.274   1.092  0.0042  0.1027 -0.0283
 2143W        W 6207   7.146   2.622   3.205  0.0352 -0.0535  0.1904
 2144W        W 6208   9.262   2.728  10.623 -0.1976 -0.0665  0.0160
 2145W        W 6209   1.314   0.327  10.519  0.1843  0.1417  0.3135
 2146W        W 6210  10.015   1.369   1.109 -0.0421  0.0674 -0.0993
 2147W        W 6211   2.900   5.861   2.435 -0.2039 -0.0457 -0.1522
 2148W        W 6212   0.276   2.087   2.146  0.2562 -0.0543  0.2325
 2149W        W 6213   5.732   8.381   9.124 -0.0807 -0.2194  0.1862
 2150W        W 6214   0.999   6.777   1.648  0.1915  0.2219 -0.0218
 2151W        W 6215   3.836   2.211   0.613  0.0138  0.0832 -0.0893
 2152W        W 6216   2.278   8.390   0.729  0.1951  0.2904 -0.2242
 2153W        W 6217   0.981   2.607   3.401  0.1375 -0.0643 -0.0029
 2154W        W 6218   0.506   2.046   1.637  0.0173 -0.1867  0.0073
 2155W        W 6219  10.264   0.357   0.879 -0.2279  0.0073 -0.0319
 2156W        W 6220   1.959   1.800   1.686 -0.1923 -0.0074 -0.1459
 2157W        W 6221   1.083   7.743   1.349  0.1785 -0.0455  0.0745
 2158W        W 6222   6.560   7.798   9.468  0.1219  0.1871  0.0907
 2159W        W 6223   7.948   8.615  11.413 -0.0115  0.1310  0.0916
 2160W        W 6224  10.073   2.766   0.054  0.1017 -0.1737 -0.1462
 2161W        W 6225   2.030   6.490   2.219 -0.0376  0.1309 -0.0633
 2162W        W 6226   6.338   6.863   7.894  0.0090  0.4137 -0.0685
 2163W        W 6227   8.467   4.564   7.930 -0.0275  0.0803  0.2418
 2164W        W 6228   6.212   4.027  10.782 -0.1929 -0.0917 -0.1994
 2165W        W 6229   5.102   3.807   0.312  0.0069  0.0350 -0.2461
 2166W        W 6230   8.827   8.388  10.248 -0.4255  0.1415  0.1323
 2167W        W 6231   5.308   0.352  10.311  0.2399 -0.6562 -0.0967
 2168W        W 6232   2.014   3.314   0.370 -0.3165 -0.0569  0.0237
 2169W        W 6233   3.237   5.329   2.690 -0.1104 -0.1880 -0.1656
 2170W        W 6234   1.920   5.877   2.956  0.1070 -0.0226  0.3052
 2171W        W 6235   9.261   3.274   9.114 -0.0848 -0.1052  0.0416
 2172W        W 6236   9.366   4.806   8.188  0.0410 -0.2154  0.0228
 2173W        W 6237   0.918   6.870   8.115 -0.3318 -0.1211 -0.0817
 2174W        W 6238   5.158   7.600   2.872 -0.0672 -0.1484 -0.4377
 2175W        W 6239   8.227   3.957   0.783 -0.1004  0.1268  0.3157
 2176W        W 6240   0.736   3.111   1.620 -0.1551  0.1677 -0.1691
 2177W        W 6241   4.377   0.549   2.574  0.0618 -0.2003 -0.2132
 2178W        W 6242   5.101   6.930  10.348  0.0217 -0.3660 -0.0680
 2179W        W 6243   4.214   2.435   8.595  0.1665  0.2972 -0.0767
 2180W        W 6244   2.463   4.347  11.050  0.0072 -0.1298 -0.2338
 2181W        W 6245   2.734   8.505   9.422  0.0476 -0.2940 -0.2423
 2182W        W 6246   4.217   1.082   3.339  0.1472  0.1062 -0.1436
 2183W        W 6247  10.499   7.902   2.374  0.2999  0.0623  0.0014
 2184W        W 6248   6.004   1.957   0.590  0.0277 -0.2359 -0.1897
 2185W        W 6249   2.083   6.112   1.297  0.3697 -0.1708 -0.1419
 2186W        W 6250   0.909  10.131   1.559  0.0733  0.0110 -0.0823
 2187W        W 6251   2.809   5.693   0.678  0.0289 -0.0606  0.0781
 2188W        W 6252  10.519   5.489   2.958  0.1352 -0.1068  0.0577
 2189W        W 6253   0.672   9.755   8.764 -0.1740  0.1938 -0.2154
 2190W        W 6254   5.056   1.230   0.880  0.1039  0.3145  0.1344
 2191W        W 6255   3.638   4.724   0.384 -0.0967  0.3027 -0.1039
 2192W        W 6256   6.466   4.543   2.079  0.0906  0.1639 -0.3666
 2193W        W 6257   6.269   9.932  10.365  0.0404  0.0162 -0.0688
 2194W        W 6258   0.084   7.327  11.100  0.0307  0.0813 -0.2518
 2195W        W 6259   1.967   8.744   8.789 -0.2152 -0.0633  0.0497
 2196W        W 6260   2.853   9.261   1.211  0.0899  0.0833  0.0618
 2197W        W 6261   5.906   7.706   7.487 -0.1294  0.2073 -0.1994
 2198W        W 6262   6.614   8.133   1.420  0.1765  0.0616  0.0281
 2199W        W 6263   1.211   7.441  10.548  0.0334  0.1245 -0.2771
 2200W        W 6264   4.675   5.814  10.961  0.4940 -0.1799 -0.3461
 2201W        W 6265   1.428   0.266  11.308  0.3520 -0.0768  0.0411
 2202W        W 6266   1.012   4.251   0.008  0.2210 -0.2791 -0.0175
 2203W        W 6267   0.336   9.081   0.185  0.0093 -0.1286  0.1842
 2204W        W 6268   3.545   5.925   8.671 -0.0609  0.1427  0.0799
 2205W        W 6269  10.015   3.734   1.836 -0.1441  0.4120 -0.0673
 2206W        W 6270   4.175   6.108   0.392  0.0197 -0.1589  0.1410
 2207W        W 6271   8.217   2.974   3.836 -0.0203 -0.1371  0.1246
 2208W        W 6272   1.139  10.438   2.266 -0.2626 -0.1669  0.1339
 2209W        W 6273   2.909   0.685   2.567 -0.0950  0.0708  0.0404
 2210W        W 6274  10.296   2.117   9.655  0.0911 -0.1202 -0.1123
 2211W        W 6275  10.252   0.793   3.106 -0.1711  0.1898 -0.1256
 2212W        W 6276   2.966   7.431   1.109  0.0906 -0.1996  0.2283
 2213W        W 6277   8.391   8.528   1.884 -0.0555 -0.1161 -0.0371
 2214W        W 6278   9.752   9.356   1.311  0.2334 -0.1125  0.0656
 2215W        W 6279   5.398   1.414   2.823  0.1413 -0.2182 -0.2105
 2216W        W 6280   8.717   4.509   2.075  0.1199 -0.1471 -0.3194
 2217W        W 6281   7.808   0.264  11.063 -0.4378  0.1167  0.0950
 2218W        W 6282   3.755   9.041   9.314 -0.0828  0.0574  0.0327
 2219W        W 6283   4.559   5.706   1.882  0.0276 -0.0588  0.1979
 2220W        W 6284   0.819   0.268   1.320  0.0332 -0.0457 -0.1175
 2221W        W 6285   3.961   2.211   2.608 -0.0635 -0.0521  0.0877
 2222W        W 6286   6.525   2.629   2.365  0.1519  0.2361 -0.0767
 2223W        W 6287   0.612   5.496   2.618 -0.3465  0.0871  0.3250
 2224W        W 6288   9.289   6.185   0.173 -0.0575 -0.0060 -0.0638
 2225W        W 6289  10.229   5.951   1.216  0.0839 -0.1274 -0.1463
 2226W        W 6290   1.088   4.760  11.482 -0.1220  0.0628 -0.2006
 2227W        W 6291   3.609   2.721  10.358  0.1430 -0.1037  0.0719
 2228W        W 6292   2.063  10.505   1.679 -0.0067  0.0958 -0.1418
 2229W        W 6293   8.624   4.090  10.725  0.2126  0.1017  0.0412
 2230W        W 6294   0.779   5.412   3.145 -0.2371  0.0084 -0.0758
 2231W        W 6295   1.473   9.562   1.366  0.1640  0.1785 -0.1209
 2232W        W 6296  10.602   2.951   4.176  0.1251 -0.2235 -0.2605
 2233W        W 6297   8.716   0.663   0.340 -0.2574  0.0840  0.0409
 2234W        W 6298   9.090   3.881  11.138  0.1015  0.1756  0.1447
 2235W        W 6299   0.299   3.394   0.520 -0.0358 -0.1793 -0.1436
 2236W        W 6300   4.350   5.477   8.671 -0.0122 -0.1814 -0.0138
 2237W        W 6301   5.410   0.681   0.300 -0.5402  0.1957 -0.1054
 2238W        W 6302   1.704   9.250   8.001 -0.0526 -0.3224  0.2068
 2239W        W 6303   4.485   7.468   7.819 -0.1726  0.0233 -0.2181
 2240W        W 6304   6.846   8.416   1.051 -0.3518 -0.0436 -0.0264
 2241W        W 6305  10.495   2.665   0.892 -0.0645  0.1021  0.2309
 2242W        W 6306   7.004   0.897  10.678 -0.0698 -0.0451  0.2411
 2243W        W 6307   2.439   8.399  10.853  0.1305  0.2996  0.0523
 2244W        W 6308   3.046   3.484  10.098 -0.1942  0.3484 -0.1116
 2245W        W 6309   9.303   7.654   1.146 -0.1805  0.0628 -0.1308
 2246W        W 6310   7.044   5.619   8.289 -0.1811 -0.0863 -0.0110
 2247W        W 6311   4.227   5.528   0.178 -0.1019  0.1190 -0.2848
 2248W        W 6312   2.653   9.122   1.681  0.0661  0.0558 -0.0438
 2249W        W 6313   7.035  10.523   3.073  0.2511 -0.1409 -0.0327
 2250W        W 6314   7.933   9.083   2.213  0.1794 -0.1440 -0.1959
 2251W        W 6315   9.944   2.321   8.493 -0.1405 -0.0955 -0.0036
 2252W        W 6316   5.365   0.585   1.534 -0.0757  0.1380 -0.1054
 2253W        W 6317   7.675   1.025   1.624  0.0833 -0.1942 -0.0542
 2254W        W 6318  10.309   1.535   8.323 -0.0120  0.0386  0.0438
 2255W        W 6319   1.426   7.864  10.777 -0.0452 -0.1886 -0.0932
 2256W        W 6320  10.417   1.987   9.165  0.0400 -0.0982  0.0903
 2257W        W 6321   8.267   4.403   7.411 -0.2443  0.2494 -0.3126
 2258W        W 6322   4.336   3.241   1.338  0.1878 -0.1888 -0.3530
 2259W        W 6323   7.551   3.664   3.260 -0.3168 -0.2992 -0.0551
 2260W        W 6324   8.591  10.167   3.302 -0.2327 -0.3376 -0.0619
 2261W        W 6325   9.967   7.032  11.352 -0.1414 -0.2883  0.1229
 2262W        W 6326   2.035   0.126   9.725  0.1854  0.2591  0.1731
 2263W        W 6327   7.488   5.004   2.421  0.1382  0.2654  0.3233
 2264W        W 6328   0.776   7.525   1.679 -0.0100  0.1425  0.0554
 2265W        W 6329   2.093   2.796   2.296  0.0134 -0.3207  0.1690
 2266W        W 6330   8.665   5.480   7.805 -0.0859 -0.0622 -0.0536
 2267W        W 6331   9.952   8.437   1.988  0.2001  0.0152 -0.0682
 2268W        W 6332   3.184  10.592   3.964 -0.2967  0.1073 -0.2469
 2269W        W 6333   3.517   5.679   3.781  0.2252  0.1845 -0.2391
 2270W        W 6334   8.500   3.479   2.908  0.1753 -0.0316  0.1148
 2271W        W 6335   9.139   1.915   9.229  0.2668  0.2007  0.0925
 2272W        W 6336   9.065   2.474   0.925  0.0475 -0.1556  0.0870
 2273W        W 6337  10.451   4.582   7.126 -0.1443  0.0836  0.0754
 2274W        W 6338   6.848   4.904   1.826  0.1264  0.0997  0.1577
 2275W        W 6339   7.790  10.444   2.454 -0.1158  0.2035  0.1477
 2276W        W 6340   1.039   8.613   0.401 -0.0956 -0.0575  0.2441
 2277W        W 6341   5.522   3.271   1.316 -0.3340 -0.0149  0.0537
 2278W        W 6342   4.191   7.731   1.288 -0.2703  0.0572  0.2612
 2279W        W 6343   2.830   2.535   8.978  0.0637  0.2145 -0.0643
 2280W        W 6344   2.294   6.755   3.870 -0.2296 -0.2608  0.1532
 2281W        W 6345   7.460   5.442   8.521  0.1996 -0.0068  0.1265
 2282W        W 6346   8.733   8.311   9.757  0.4292 -0.2217  0.1071
 2283W        W 6347   5.949   6.061   9.034 -0.0161 -0.1139  0.1653
 2284W        W 6348   0.082   5.688   8.577 -0.2457  0.2110  0.0841
 2285W        W 6349   4.195   4.096   9.600 -0.1886 -0.1102 -0.1861
 2286W        W 6350   0.382   9.550  10.112  0.1378  0.0351 -0.1030
 2287W        W 6351   2.132   2.271  10.735  0.3062 -0.0750 -0.0189
 2288W        W 6352   4.571   5.571   2.746  0.1617 -0.3999  0.2217
 2289W        W 6353   9.704  10.129   2.563  0.0476 -0.3409 -0.0769
 2290W        W 6354   8.020   7.741   8.104  0.0796 -0.0768  0.3073
 2291W        W 6355   7.815   0.144   9.736  0.2713 -0.1491  0.3451
 2292W        W 6356   8.741   2.445   0.548 -0.3191  0.1174 -0.4711
 2293W        W 6357   6.313   6.801   1.606  0.0535 -0.1275  0.3550
 2294W        W 6358   9.906   7.643   9.914  0.2914 -0.0631  0.0310
 2295W        W 6359   4.669   1.592   1.018  0.1855  0.1913 -0.1630
 2296W        W 6360   7.153   3.620   9.526  0.2919 -0.0396 -0.1971
 2297W        W 6361   9.845   9.862  10.964 -0.2247  0.0576 -0.2324
 2298W        W 6362  10.322   2.421   8.842  0.0060  0.2444 -0.1687
 2299W        W 6363  10.657   5.653   3.466 -0.0557  0.0734  0.0379
 2300W        W 6364   9.537   2.779  11.502 -0.0417  0.2612 -0.1074
 2301W        W 6365   4.830   1.006   8.952  0.0050  0.3694  0.0773
 2302W        W 6366   9.882   3.573   0.842  0.0623  0.0775  0.0296
 2303W        W 6367  10.474   0.688   9.216 -0.3667  0.2391 -0.0420
 2304W        W 6368   4.697   3.540   1.792  0.1654 -0.2676 -0.0723
 2305W        W 6369   8.881   5.144   1.460 -0.0258  0.1775 -0.0258
 2306W        W 6370   7.932   6.608   0.720 -0.2639  0.0225  0.0210
 2307W        W 6371   9.130   6.181   8.826  0.0454 -0.0522 -0.3396
 2308W        W 6372   7.832   3.916   9.455  0.1233  0.1820 -0.0821
 2309W        W 6373   2.113   6.221   9.508  0.1541  0.0875  0.0465
 2310W        W 6374   7.078  10.499  10.791  0.0119 -0.1286 -0.0549
 2311W        W 6375   9.027   4.062   9.748 -0.2382  0.1865 -0.1293
 2312W        W 6376   3.922   3.037   1.053 -0.2297 -0.0143 -0.1576
 2313W        W 6377   6.325   9.888   0.212  0.0316 -0.0138  0.0673
 2314W        W 6378   9.562   2.535  11.049 -0.0513 -0.1654  0.0035
 2315W        W 6379   8.307   2.337   2.203 -0.0999  0.1494  0.0229
 2316W        W 6380   6.078   4.861   3.861 -0.2509 -0.1196  0.0117
 2317W        W 6381   1.692   2.814   2.053 -0.0420 -0.2681  0.1176
 2318W        W 6382   8.478   0.773   7.904 -0.1465  0.3639 -0.1270
 2319W        W 6383   3.178   7.049   2.482  0.1092 -0.0518  0.1091
 2320W        W 6384   7.928   5.044   0.504 -0.1820  0.2916 -0.1667
 2321W        W 6385   1.552   3.400   8.984 -0.0644 -0.1052 -0.2366
 2322W        W 6386   4.640   8.482   1.574  0.1193 -0.0475  0.0876
 2323W        W 6387  10.130   4.887   3.802  0.3669 -0.0249 -0.1402
 2324W        W 6388   6.478   0.819   3.043  0.3185 -0.0437 -0.0631
 2325W        W 6389  10.454   0.034   7.506 -0.2829 -0.0558 -0.2769
 2326W        W 6390   9.588   0.543  10.640 -0.2955  0.4046  0.1503
 2327W        W 6391   4.525   9.474   0.105 -0.1020 -0.0727  0.1582
 2328W        W 6392   9.301   2.468   1.375 -0.0953  0.1699 -0.1841
 2329W        W 6393   8.510   3.446   0.843  0.0386 -0.2432  0.0213
 2330W        W 6394   4.866   6.559  11.492 -0.0126 -0.1023  0.3131
 2331W        W 6395  10.018   1.780   0.445  0.0454 -0.1822  0.1349
 2332W        W 6396   1.712   2.173   2.469  0.1956 -0.0436 -0.1830
 2333W        W 6397   8.651  10.358   1.347  0.1202  0.0892 -0.0136
 2334W        W 6398   1.591  10.667   1.852 -0.2204 -0.1064 -0.0097
 2335W        W 6399   6.306   4.903   0.180  0.3867  0.2316  0.4347
 2336W        W 6400  10.016   6.217   3.194 -0.0524  0.3340 -0.0480
 2337W        W 6401   5.134   2.750   1.906 -0.1254 -0.2144 -0.1339
 2338W        W 6402   4.925  10.250   0.831 -0.2510  0.0040  0.2118
 2339W        W 6403   6.252   3.039   2.552 -0.0813  0.2601 -0.0949
 2340W        W 6404   8.639   9.526   3.751 -0.3052 -0.0488  0.0636
 2341W        W 6405   6.494   8.536  10.265 -0.2877 -0.2603 -0.2833
 2342W        W 6406   0.804   0.960   1.443  0.0376 -0.3757  0.1216
 2343W        W 6407   3.720   9.856   1.855 -0.2835  0.0600  0.0900
 2344W        W 6408   0.061   1.639   3.377  0.0696 -0.2333 -0.0363
 2345W        W 6409   2.795   3.159   0.155  0.0293 -0.3608  0.0399
 2346W        W 6410   2.573   0.659   3.019  0.1330 -0.3360 -0.2053
 2347W        W 6411   9.708   6.017   0.359 -0.0189  0.3629  0.1479
 2348W        W 6412   8.927   0.767   9.581 -0.1348 -0.2312  0.0006
 2349W        W 6413   6.197   7.728  11.050  0.0740  0.1140  0.0008
 2350W        W 6414   7.697   3.277  10.639  0.0389 -0.1182 -0.2225
 2351W        W 6415   4.145   8.139   7.702  0.2471 -0.0132  0.2655
 2352W        W 6416   3.477   1.459   2.823 -0.2292  0.1373 -0.2255
 2353W        W 6417   3.203   4.725   8.744  0.0531  0.2095  0.1759
 2354W        W 6418   6.660   7.715   3.761  0.0297  0.1523 -0.0489
 2355W        W 6419   4.897   0.327   0.737  0.1094 -0.0792  0.0432
 2356W        W 6420   5.732   0.580   1.998  0.1361 -0.0727 -0.0464
 2357W        W 6421   2.672   9.968   0.125 -0.4111 -0.2866  0.1210
 2358W        W 6422   5.673   6.007   9.496 -0.0378 -0.2945 -0.1304
 2359W        W 6423   7.285   8.294  10.385 -0.1917  0.2884 -0.3108
 2360W        W 6424   2.151   4.525   1.742  0.1866  0.2614  0.1587
 2361W        W 6425   3.434   8.423  10.044 -0.1603 -0.2345 -0.3250
 2362W        W 6426   7.246   7.299   8.758  0.1425 -0.1079  0.0559
 2363W        W 6427   7.242  10.028  10.057 -0.2214 -0.0268 -0.1723
 2364W        W 6428   6.420   5.311   8.353 -0.1097  0.1032 -0.0750
 2365W        W 6429   0.144   0.134   9.866 -0.0168  0.1867 -0.0728
 2366W        W 6430   9.481   8.097   9.256  0.1305 -0.2043 -0.0138
 2367W        W 6431   7.960   0.195   3.315 -0.1918 -0.1106  0.0955
 2368W        W 6432   9.023   2.405   9.093 -0.3148  0.1814 -0.4123
 2369W        W 6433   5.509   2.951   0.254  0.1110 -0.1289  0.1731
 2370W        W 6434   6.987   3.866   3.966 -0.1758 -0.2812 -0.3436
 2371W        W 6435   9.618   8.408   0.441  0.1994  0.1576  0.1296
 2372W        W 6436   6.567   5.717   0.306  0.0195 -0.0633  0.2301
 2373W        W 6437   6.101   6.135  10.709  0.2942 -0.0052 -0.3166
 2374W        W 6438   9.681   7.669  10.659  0.0585  0.2243 -0.2891
 2375W        W 6439   6.537   9.231   9.726  0.1127  0.0524 -0.1404
 2376W        W 6440   4.369   5.982   1.430  0.1370 -0.3828  0.0210
 2377W        W 6441   4.043   0.040   1.606 -0.0980  0.2389  0.1472
 2378W        W 6442   1.357   1.566   0.515  0.0972 -0.1206  0.1992
 2379W        W 6443   2.159   3.036  10.087  0.3467  0.2594  0.0785
 2380W        W 6444   0.305   5.927   9.638 -0.2452  0.1399 -0.2170
 2381W        W 6445   7.057   0.196   8.934 -0.2280  0.0233  0.0875
 2382W        W 6446   7.178   1.763   2.594 -0.0979 -0.0086 -0.1730
 2383W        W 6447  10.331   9.539   9.463 -0.0300  0.0380  0.1693
 2384W        W 6448  10.429   2.211  10.696 -0.2632 -0.0073  0.4450
 2385W        W 6449   3.357   2.102   8.322 -0.3065 -0.3950  0.2152
 2386W        W 6450   6.579   8.644  10.817 -0.0644 -0.2993 -0.0855
 2387W        W 6451   7.674  10.323  10.386  0.2378  0.0281 -0.0275
 2388W        W 6452   0.617  10.609   3.398 -0.0427 -0.0196  0.1863
 2389W        W 6453   5.232   9.871   1.303  0.0176  0.0707  0.4148
 2390W        W 6454   4.008   4.956   9.523  0.3287  0.1684  0.0014
 2391W        W 6455   5.638   7.042   8.792  0.3633  0.2696  0.1850
 2392W        W 6456   4.787   6.671   8.725 -0.3102  0.1363 -0.0866
 2393W        W 6457   1.688   1.571   0.962  0.0023 -0.0779 -0.0052
 2394W        W 6458   5.913   4.027   1.046  0.3247  0.1659  0.3982
 2395W        W 6459   2.976   4.990   8.341  0.0564  0.2450 -0.1815
 2396W        W 6460   5.584   7.128   9.998  0.3109  0.1371  0.0764
 2397W        W 6461   8.700   7.564   9.128  0.0778  0.4965 -0.1296
 2398W        W 6462   4.697   0.172  10.390 -0.0984  0.2082 -0.0117
 2399W        W 6463   5.932   9.985   2.992 -0.0353  0.0941 -0.0251
 2400W        W 6464   3.941  10.214   2.475 -0.0548  0.0559 -0.2838
 2401W        W 6465   7.533   8.770   1.799 -0.0350 -0.0753  0.1375
 2402W        W 6466   9.208   3.106   2.760  0.0873 -0.1165 -0.1402
 2403W        W 6467   7.024   5.143  10.065 -0.3659  0.1213 -0.2225
 2404W        W 6468   6.968   7.806   3.402  0.1303 -0.0599  0.0279
 2405W        W 6469   7.547   1.938   0.683 -0.1266 -0.1522  0.0566
 2406W        W 6470   5.548   8.633   2.806  0.0658 -0.1397 -0.0931
 2407W        W 6471  10.414   8.877  10.056  0.1042  0.0308 -0.2580
 2408W        W 6472   9.704   5.532   0.606  0.1818 -0.0905 -0.0517
 2409W        W 6473   2.257   4.914   3.953 -0.0996  0.0132 -0.0629
 2410W        W 6474   0.304   5.846   2.530  0.0383  0.1747  0.0616
 2411W        W 6475   5.769  10.574   9.987 -0.0868  0.0044  0.2661
 2412W        W 6476   3.955   6.802  10.545  0.1754  0.2796 -0.2059
 2413W        W 6477   1.849   9.012  11.236  0.0701 -0.1775 -0.1450
 2414W        W 6478   3.777   7.344   0.053  0.0546 -0.0256  0.2001
 2415W        W 6479  10.571   7.667   0.409 -0.0013  0.0215  0.1633
 2416W        W 6480   8.850   0.146   9.661  0.0817 -0.2745 -0.0377
 2417W        W 6481   3.864   3.437   3.336 -0.1360  0.1253 -0.0378
 2418W        W 6482   3.825   1.061   2.918 -0.0660  0.0968 -0.4308
 2419W        W 6483   9.898   8.140   1.583  0.0054  0.1966 -0.1892
 2420W        W 6484   0.129   4.246  11.509 -0.1904  0.1959  0.0799
 2421W        W 6485   4.357   8.997  11.377  0.3880  0.2222  0.2203
 2422W        W 6486   0.483   9.696   8.243 -0.1535 -0.3440 -0.1897
 2423W        W 6487   4.211   5.652   2.323 -0.3058 -0.5101  0.1961
 2424W        W 6488   6.612   8.791   9.801  0.0173  0.1596  0.1615
 2425W        W 6489   0.981   4.464   3.376 -0.1983 -0.2421  0.0745
 2426W        W 6490   0.730   1.158   7.526  0.1145  0.2038 -0.1727
 2427W        W 6491   7.368   8.088   9.953 -0.1253 -0.1024  0.1096
 2428W        W 6492   5.489   2.741   9.993  0.1779 -0.0115  0.1284
 2429W        W 6493   5.923   5.338   1.872  0.1994 -0.2011  0.0721
 2430W        W 6494   7.360   1.779   1.444 -0.1259  0.0931  0.1268
 2431W        W 6495   4.394   5.932   8.041 -0.2754 -0.1222  0.0493
 2432W        W 6496   6.752   7.896   1.876  0.1119  0.1007 -0.3556
 2433W        W 6497   9.176   2.063   1.804 -0.1725 -0.1300 -0.1821
 2434W        W 6498   0.664  10.340   2.461 -0.0411  0.0605  0.0871
 2435W        W 6499   3.717   6.037  10.602 -0.3144  0.0630  0.1596
 2436W        W 6500   3.386   7.901   9.784 -0.2701 -0.0719  0.0777
 2437W        W 6501  10.378   0.250   3.000  0.1388  0.0397 -0.0531
 2438W        W 6502   4.457   4.911   7.402 -0.0411  0.1413  0.0924
 2439W        W 6503   0.638   2.409   2.003 -0.0503 -0.2066  0.1518
 2440W        W 6504   0.919   6.891   0.754  0.1117 -0.2323 -0.4490
 2441W        W 6505   6.916   7.437   9.601  0.0177 -0.0448  0.0914
 2442W        W 6506   4.347   0.225   2.207 -0.1092 -0.0538  0.1941
 2443W        W 6507   1.414   9.158   8.371 -0.0408  0.0217  0.3233
 2444W        W 6508   6.493   2.665   0.042 -0.4125 -0.0357  0.1453
 2445W        W 6509   9.181   0.657   0.627  0.1180 -0.1540 -0.0537
 2446W        W 6510   0.691   0.775   2.841 -0.2158  0.0184  0.2832
 2447W        W 6511   1.692   3.579   9.679  0.1685  0.0821 -0.0883
 2448W        W 6512   7.688   8.895  11.056 -0.1411  0.2177 -0.0929
 2449W        W 6513   8.038   8.791   0.385 -0.1440  0.3467 -0.1231
 2450W        W 6514   5.906   3.597   1.298  0.2548  0.0469  0.2223
 2451W        W 6515   1.642   4.901  10.191  0.0187  0.0069 -0.3541
 2452W        W 6516   0.419   0.999   1.046 -0.1110 -0.2372 -0.1920
 2453W        W 6517   4.158   0.758   1.001  0.2236 -0.0879 -0.1888
 2454W        W 6518   5.892   6.815   1.154  0.0015  0.1790  0.1675
 2455W        W 6519   7.983   4.167   0.389 -0.2926  0.2113 -0.1651
 2456W        W 6520  10.358   2.553   1.790 -0.1535 -0.0379  0.0054
 2457W        W 6521   0.769  10.622   9.075  0.0461 -0.2376 -0.0908
 2458W        W 6522  10.552   9.905  10.012 -0.0663 -0.1670  0.1408
 2459W        W 6523   9.648   7.001   0.656 -0.0698  0.0214 -0.5045
 2460W        W 6524   1.527   0.137   9.756 -0.0542  0.1208 -0.1394
 2461W        W 6525   9.592   6.061   8.802 -0.0818 -0.1025 -0.2111
 2462W        W 6526   7.076   8.021   2.225 -0.1591  0.0892 -0.2369
 2463W        W 6527   2.576   2.182  10.036  0.2293  0.1903  0.0513
 2464W        W 6528   6.208   6.354   0.135  0.1877 -0.4405  0.0023
 2465W        W 6529   1.503   5.506   1.764 -0.1879 -0.1149 -0.1802
 2466W        W 6530   9.722   4.868   9.098  0.3105 -0.1453 -0.1641
 2467W        W 6531   1.250   2.763   3.808  0.2155 -0.1898  0.3599
 2468W        W 6532   2.103   2.147   2.743 -0.0844  0.0784 -0.2000
 2469W        W 6533   3.562   8.984   0.661  0.1552 -0.1650  0.1126
 2470W        W 6534   2.297   5.704   9.479 -0.1959  0.0039  0.1243
 2471W        W 6535   5.482   0.901   2.818  0.1391  0.1395  0.0137
 2472W        W 6536   5.930   4.173   2.334 -0.3162 -0.0006 -0.3002
 2473W        W 6537   0.910   5.904   3.309 -0.0556 -0.0556 -0.0099
 2474W        W 6538   1.824   7.180   2.508 -0.1031  0.1467 -0.0317
 2475W        W 6539   0.521   7.227   7.833 -0.0894 -0.3116  0.1636
 2476W        W 6540   1.340   5.035   8.512  0.3598 -0.1746 -0.2308
 2477W        W 6541   0.986   4.388   2.861  0.0409  0.2401 -0.0327
 2478W        W 6542   6.968   4.734   1.216 -0.1482 -0.0341  0.2165
 2479W        W 6543  10.034   6.210   8.942 -0.1548 -0.0671  0.1457
 2480W        W 6544   1.812   9.546  11.052  0.1985 -0.1327 -0.1190
 2481W        W 6545   3.814  10.132   9.254  0.0626  0.2432  0.0984
 2482W        W 6546   9.973   5.507   1.454  0.2556  0.1141  0.0470
 2483W        W 6547   2.579   2.643   7.924 -0.0867  0.2415 -0.3871
 2484W        W 6548  10.089   0.562  10.503  0.0482 -0.1588  0.1168
 2485W        W 6549   3.217   2.581   1.333 -0.3366 -0.1273  0.0134
 2486W        W 6550  10.147   4.835   0.321  0.3912 -0.0827 -0.0969
 2487W        W 6551   8.412   9.472   1.516 -0.1239 -0.1551  0.5156
 2488W        W 6552   9.218   5.342   0.561  0.3471 -0.0839 -0.1134
 2489W        W 6553  10.398   8.268   0.377 -0.2188 -0.0192  0.2865
 2490W        W 6554   0.582   7.332  10.723 -0.1229  0.0688  0.1702
 2491W        W 6555   0.019   2.314   9.899 -0.1200 -0.0836 -0.1477
 2492W        W 6556   2.130   4.944   1.936  0.1508  0.1426 -0.0954
 2493W        W 6557   4.638   6.743   1.913 -0.0889 -0.0587 -0.1368
 2494W        W 6558   1.608   6.080   0.434 -0.0946  0.4365  0.3223
 2495W        W 6559   2.050   8.846   7.520  0.1203  0.0309 -0.4434
 2496W        W 6560   9.271   4.670   3.163 -0.0397  0.2368  0.1870
 2497W        W 6561   6.564  10.000   0.823 -0.3325  0.0460 -0.1278
 2498W        W 6562   8.325   3.940   9.448 -0.0894  0.2930  0.0602
 2499W        W 6563   8.937   1.155  10.689 -0.0859 -0.0889 -0.0075
 2500W        W 6564   9.902   6.310   1.896  0.2593  0.4227 -0.4387
 2501W        W 6565   6.414   9.559   1.563 -0.0602 -0.1392 -0.2120
 2502W        W 6566  10.096   7.312  10.906  0.1482 -0.0029  0.1082
 2503W        W 6567  10.419   3.014  11.337 -0.1743 -0.1721  0.4103
 2504W        W 6568  10.528   7.799   1.823  0.3661 -0.1735  0.0459
 2505W        W 6569   3.027   0.281   9.892 -0.3397 -0.0127  0.2292
 2506W        W 6570   0.837   4.863   3.119  0.2733 -0.1249  0.0413
 2507W        W 6571   7.610   5.110   9.914  0.0478 -0.0539  0.3141
 2508W        W 6572   6.309   1.231  11.364 -0.1021 -0.2245 -0.3033
 2509W        W 6573   3.935  10.134   0.960  0.1236  0.2855  0.1771
 2510W        W 6574   2.581   5.668   0.233  0.1071  0.2165 -0.0862
 2511W        W 6575   3.553   5.824   2.856 -0.0903 -0.2093 -0.1216
 2512W        W 6576   8.759   5.694   2.775  0.1316  0.1215 -0.1473
 2513W        W 6577   3.455   4.129  10.675  0.0186  0.0337 -0.3855
 2514W        W 6578  10.100   7.912   1.983 -0.2291  0.1587 -0.2658
 2515W        W 6579   3.862   4.380  11.446  0.3005 -0.1388  0.0114
 2516W        W 6580   0.886   7.304   0.421 -0.3652 -0.0352 -0.4399
 2517W        W 6581   1.774   8.477   0.476  0.1359  0.2421  0.1003
 2518W        W 6582   3.668   5.014  10.602  0.3236  0.0522  0.0031
 2519W        W 6583  10.107   8.467   9.906 -0.0174  0.3688 -0.2417
 2520W        W 6584   9.360   0.986   0.948  0.0713 -0.1848 -0.0962
 2521W        W 6585   7.540   5.230  11.251 -0.0874 -0.1887 -0.0512
 2522W        W 6586   3.953   2.560   9.001  0.0062  0.0518  0.1506
 2523W        W 6587   1.732   1.125   0.758  0.1166  0.0556 -0.3564
 2524W        W 6588   2.194   0.763   1.852 -0.0187 -0.0692 -0.1950
 2525W        W 6589   3.185   0.174   3.520  0.1759  0.0695 -0.1219
 2526W        W 6590   6.675   6.625   7.129 -0.0066 -0.2019 -0.0846
 2527W        W 6591  10.298   5.535  10.368  0.4067  0.2384 -0.0134
 2528W        W 6592   6.105   8.034   3.046  0.2067  0.2885 -0.0565
 2529W        W 6593   6.862   0.911   1.092 -0.0684  0.1682 -0.2223
 2530W        W 6594   4.538   0.546  11.141 -0.1069  0.1388  0.4310
 2531W        W 6595  10.219   9.550   0.827 -0.0694  0.4214 -0.2527
 2532W        W 6596   7.577   4.237   9.824 -0.0109  0.1588  0.0319
 2533W        W 6597   9.203  10.016   9.402  0.4088 -0.0035  0.2283
 2534W        W 6598   9.817   1.259   3.177 -0.0978  0.0049  0.0962
 2535W        W 6599   4.807   7.907   2.686  0.3263  0.0476  0.1488
 2536W        W 6600   8.543   6.995   9.743  0.0099  0.0243  0.0472
 2537W        W 6601   4.707   4.307   9.446  0.0141 -0.0398 -0.6254
 2538W        W 6602   6.417   0.750   1.349  0.1181  0.0957 -0.0656
 2539W        W 6603   4.704   1.189  10.613  0.1809  0.0713  0.2991
 2540W        W 6604   4.959   6.965   1.517  0.1977 -0.1678  0.0464
 2541W        W 6605   6.274  10.132   9.244  0.4905  0.2269 -0.2816
 2542W        W 6606   7.232   7.288   3.430 -0.2266  0.1800  0.1274
 2543W        W 6607   0.025   6.317   3.643  0.3486 -0.5670 -0.1676
 2544W        W 6608   8.799   9.144   7.433 -0.1439 -0.0812  0.0523
 2545W        W 6609  10.407   0.577   9.723 -0.1477 -0.3434  0.3075
 2546W        W 6610   6.274   5.342   3.067 -0.1682  0.1487  0.0862
 2547W        W 6611   6.005   6.434   9.557 -0.0905 -0.0610 -0.6072
 2548W        W 6612   6.112   4.142   9.900  0.2122 -0.1185  0.3307
 2549W        W 6613   3.191   2.559   8.546  0.3417 -0.0677  0.0706
 2550W        W 6614   0.225   2.133  10.972  0.1858 -0.2236 -0.0005
 2551W        W 6615   9.482   0.726   9.637  0.3123 -0.1969  0.1738
 2552W        W 6616   2.469   8.338   8.788  0.0995 -0.0623 -0.0612
 2553W        W 6617   4.995   6.167   8.619 -0.1683 -0.4962 -0.1495
 2554W        W 6618   6.804   9.697   2.429 -0.1905 -0.0895  0.2043
 2555W        W 6619   0.311   9.026  10.710 -0.0089  0.4015  0.0882
 2556W        W 6620  10.419  10.031   0.703 -0.0219  0.0813  0.2112
 2557W        W 6621   1.553   3.555   0.351 -0.0212  0.1214 -0.2996
 2558W        W 6622   4.038   5.859   8.485 -0.0665  0.1042  0.2702
 2559W        W 6623   2.717   0.326  10.261  0.1385 -0.0239 -0.0935
 2560W        W 6624   7.505   2.096  11.376  0.3962  0.1349 -0.1448
 2561W        W 6625   7.308   1.005   2.165 -0.0477  0.0129  0.2241
 2562W        W 6626   1.957   5.441   7.913 -0.1003 -0.0018 -0.0457
 2563W        W 6627   3.448   4.762   1.651  0.2684 -0.0696 -0.0678
 2564W        W 6628   2.248   4.304   0.358  0.0655  0.1632 -0.1186
 2565W        W 6629   1.898   1.559   0.407 -0.0296  0.1120 -0.1816
 2566W        W 6630   5.210   3.680   0.866  0.0610  0.4216  0.1763
 2567W        W 6631   8.122   1.417   0.305  0.2965  0.0609 -0.0794
 2568W        W 6632   8.603   9.704   3.285  0.1507  0.0447 -0.2174
 2569W        W 6633  10.342   6.545  10.756 -0.0536  0.1572 -0.3035
 2570W        W 6634   2.381   9.160   9.730 -0.4030  0.0093 -0.0693
 2571W        W 6635   4.516   4.775   7.909 -0.1194  0.0959  0.0306
 2572W        W 6636   9.305   4.529   8.885  0.3314  0.3022 -0.0720
 2573W        W 6637   9.427   1.220   4.378 -0.0995  0.0435 -0.0880
 2574W        W 6638   9.198   9.186   0.986  0.2859 -0.0310  0.2563
 2575W        W 6639   6.150  10.399   8.755  0.2720  0.5444 -0.0144
 2576W        W 6640   0.929   3.421   2.049  0.0597 -0.0539 -0.2035
 2577W        W 6641   7.899   2.638   3.009  0.6053 -0.0861  0.1624
 2578W        W 6642  10.363   7.054   1.003  0.0628 -0.1894  0.0837
 2579W        W 6643   7.915   5.966   0.078  0.1992 -0.0607  0.1366
 2580W        W 6644   2.595   3.599   2.805 -0.1590  0.2275 -0.1001
 2581W        W 6645   3.137   9.969   2.378 -0.0056 -0.2880 -0.1088
 2582W        W 6646   6.449   6.269   8.201 -0.1988  0.3668  0.7000
 2583W        W 6647   6.655   6.129   3.169 -0.0220  0.0562 -0.0835
 2584W        W 6648  10.546   5.722   2.041 -0.0298 -0.2351 -0.1876
 2585W        W 6649   6.486   9.448   7.741 -0.1340  0.3102 -0.0141
 2586W        W 6650   0.114   5.382   9.579 -0.2531 -0.3581 -0.1304
 2587W        W 6651   4.308   1.518  10.006 -0.3525  0.0346 -0.0041
 2588W        W 6652   8.769   0.186   8.396 -0.5058  0.2371  0.0641
 2589W        W 6653   0.786   6.649   3.184 -0.1398  0.0795  0.3388
 2590W        W 6654   1.779   9.492  10.113 -0.0386 -0.1575  0.1677
 2591W        W 6655   0.986   6.926   9.676  0.1655 -0.2165 -0.3404
 2592W        W 6656   4.725   0.783   9.651  0.2558  0.2256 -0.4173
 2593W        W 6657   6.938   9.521   9.082 -0.3685  0.0669 -0.0696
 2594W        W 6658   8.130   7.563   9.876  0.0830 -0.0774  0.0695
 2595W        W 6659   5.831   8.069   1.785  0.2119 -0.0993  0.0043
 2596W        W 6660   5.634   6.575   9.030  0.0983 -0.0040  0.3969
 2597W        W 6661   6.502   9.105   9.195  0.2747 -0.2284  0.5242
 2598W        W 6662   8.303   9.325   2.483  0.0962 -0.0587 -0.0985
 2599W        W 6663   9.565   7.124   8.460 -0.0070 -0.4122  0.2272
 2600W        W 6664   0.351   5.957  10.942  0.0287  0.0892 -0.1867
 2601W        W 6665   5.485   2.633  11.065  0.2438 -0.2233  0.0546
 2602W        W 6666   2.663   7.747   1.549  0.1066 -0.0681  0.0589
 2603W        W 6667   0.577   6.536   0.318  0.0507  0.0680  0.1565
 2604W        W 6668   6.829   6.659   1.323 -0.0895 -0.1021  0.2007
 2605W        W 6669   2.675   0.063   8.000  0.3721 -0.2730 -0.0898
 2606W        W 6670   6.821   3.003   1.433 -0.0549  0.0451 -0.3350
 2607W        W 6671   4.890   8.771   9.057  0.1006  0.4467  0.0593
 2608W        W 6672   0.323   3.609  10.221  0.1393  0.1817 -0.0566
 2609W        W 6673  10.041   4.131   0.262  0.0100  0.0352  0.3367
 2610W        W 6674   9.779   5.567   7.549  0.2061  0.0280 -0.1734
 2611W        W 6675   4.411   5.440  10.062  0.3598  0.4461 -0.1502
 2612W        W 6676   7.103   7.860   1.414  0.2662 -0.0719  0.2701
 2613W        W 6677   6.510  10.320  10.799  0.0996  0.0991  0.3614
 2614W        W 6678   4.835   3.089   1.629 -0.2413  0.0137  0.3206
 2615W        W 6679   4.937   1.627  11.340  0.0672 -0.0532  0.0977
 2616W        W 6680   9.346   6.090   1.191 -0.1962 -0.0847 -0.1144
 2617W        W 6681   4.274   1.298   2.868  0.0923  0.1654  0.1556
 2618W        W 6682   0.041   0.185  11.161 -0.1394  0.3251 -0.1360
 2619W        W 6683   4.299   0.159  11.274 -0.2350 -0.1011  0.0963
 2620W        W 6684   2.656   9.219   9.199  0.1843 -0.0785 -0.0262
 2621W        W 6685   8.403   2.960   0.378 -0.1707 -0.0564 -0.4286
 2622W        W 6686   1.423   8.398   0.790 -0.0957 -0.3048  0.0597
 2623W        W 6687  10.382   6.739   1.958 -0.1795 -0.2046 -0.0518
 2624W        W 6688   8.012   3.808   3.434 -0.1665 -0.1904  0.0057
 2625W        W 6689   8.708   8.946  11.138 -0.1821 -0.1669 -0.3101
 2626W        W 6690   2.382   6.929   3.059 -0.2942 -0.0386  0.1045
 2627W        W 6691   1.410   5.680   2.314 -0.1078 -0.1486  0.0710
 2628W        W 6692  10.212  10.059   2.661 -0.2211  0.2424 -0.1302
 2629W        W 6693   1.976   1.244   1.663 -0.2548  0.0525  0.1540
 2630W        W 6694   2.344   0.358   0.132 -0.1975 -0.2194  0.2499
 2631W        W 6695   1.104   6.096   1.431 -0.4286 -0.1842 -0.1616
 2632W        W 6696   3.750   4.585  10.879  0.1436 -0.5164  0.1827
 2633W        W 6697   8.737  10.364   9.433 -0.4446 -0.1629  0.0696
 2634W        W 6698   8.399   9.294   8.045 -0.0768 -0.1138  0.2559
 2635W        W 6699   9.067  10.362   8.397 -0.2191 -0.0906 -0.1233
 2636W        W 6700   1.656   8.199  10.110 -0.1678  0.0469  0.0874
 2637W        W 6701  10.305   9.454   1.344 -0.0129 -0.1238 -0.2685
 2638W        W 6702   7.000   0.180   1.888  0.1117  0.1582  0.1195
 2639W        W 6703   7.647   9.984   2.343 -0.0199 -0.1995  0.2146
 2640W        W 6704   2.838  10.167   8.290  0.0370 -0.1221 -0.5516
 2641W        W 6705   3.236   5.884  10.580  0.1676 -0.0306 -0.1617
 2642W        W 6706   1.710   0.820   1.681 -0.0148  0.0397 -0.3634
 2643W        W 6707   2.111   6.911   1.614  0.2329  0.3906 -0.0189
 2644W        W 6708   3.975   0.020   9.683  0.1716  0.0790 -0.1135
 2645W        W 6709   9.405   4.839  11.349 -0.0723  0.0215  0.0516
 2646W        W 6710   8.658   8.081   2.054  0.0931 -0.1583  0.0931
 2647W        W 6711   8.357   4.504   9.200  0.0583  0.0460 -0.3284
 2648W        W 6712   2.753   9.939   0.607 -0.0798  0.1630 -0.3097
 2649W        W 6713   3.417   5.124   8.506  0.3972 -0.2846 -0.0013
 2650W        W 6714   3.316  10.322   7.577  0.1212  0.3701  0.2958
 2651W        W 6715   7.330  10.300   2.714  0.2543 -0.3818 -0.1112
 2652W        W 6716   5.399   6.234   9.942  0.0771 -0.1605 -0.0557
 2653W        W 6717   9.449   2.306   9.401  0.0861  0.0047 -0.3460
 2654W        W 6718   7.946   8.732   8.276  0.0054 -0.0868 -0.2021
 2655W        W 6719   1.013   8.315   1.965 -0.1357  0.0300  0.0540
 2656W        W 6720   4.467   8.185   2.420 -0.3542  0.0975 -0.2687
 2657W        W 6721   3.864   9.519  10.199  0.0666 -0.0629 -0.3761
 2658W        W 6722   9.074  10.163   3.057  0.2333 -0.1137  0.2648
 2659W        W 6723   6.798   3.080   0.618  0.1957  0.2155  0.0155
 2660W        W 6724  10.631   8.324   2.666  0.1605 -0.2148 -0.0745
 2661W        W 6725   5.226   1.543   1.224 -0.1401  0.1460 -0.2565
 2662W        W 6726   9.003   1.554   3.096  0.2382  0.1488 -0.0466
 2663W        W 6727   1.197   0.817  10.699 -0.0093 -0.2273  0.0045
 2664W        W 6728   9.313   6.480   8.358 -0.2067 -0.0809 -0.1231
 2665W        W 6729   8.533   1.333   2.909 -0.0975  0.4058  0.0599
 2666W        W 6730   5.492   5.307   2.610 -0.1468 -0.1380 -0.1799
 2667W        W 6731   4.860   9.407  11.239  0.0366  0.3481 -0.0069
 2668W        W 6732   4.297   0.066  10.781  0.2245 -0.1533 -0.1471
 2669W        W 6733   0.506   3.322   3.349  0.5447  0.0949  0.0817
 2670W        W 6734   0.766   4.549   0.362 -0.1821  0.1269  0.1464
 2671W        W 6735   9.532   1.618  10.005  0.1313  0.3471 -0.2096
 2672W        W 6736   8.239   6.450   2.815 -0.3010  0.0313 -0.2220
 2673W        W 6737   2.035   2.818   9.609 -0.1168  0.1573  0.2345
 2674W        W 6738   0.049   1.017   4.613  0.1883  0.3398 -0.2839
 2675W        W 6739   8.308   3.358   8.844  0.2154  0.3779  0.2171
 2676W        W 6740   3.612   0.293   3.478 -0.0911 -0.0102 -0.1356
 2677W        W 6741  10.059   0.809   0.425 -0.0859 -0.4722  0.0615
 2678W        W 6742   0.816   3.806  10.234 -0.0877 -0.1688  0.3442
 2679W        W 6743   9.025   6.917   2.871  0.1074  0.0160 -0.0323
 2680W        W 6744   1.925   4.816   1.156  0.0097 -0.1732  0.2230
 2681W        W 6745  10.020   8.104  10.517  0.2690  0.1761  0.0204
 2682W        W 6746   0.335   7.777   2.405  0.2276  0.2524 -0.1065
 2683W        W 6747   6.447   6.538  10.771  0.1316  0.2642  0.2055
 2684W        W 6748   0.172   2.391   8.492 -0.0065 -0.3253  0.1090
 2685W        W 6749   4.837   7.538   8.299 -0.1414 -0.2617  0.0090
 2686W        W 6750   7.326   2.479   2.797  0.0393 -0.2281  0.0314
 2687W        W 6751   4.420   2.467   9.069 -0.0264 -0.1398  0.3486
 2688W        W 6752  10.023   5.367   0.983 -0.1047 -0.1246 -0.2439
 2689W        W 6753   7.620   5.176   9.359 -0.4410  0.1828 -0.0248
 2690W        W 6754   8.433   9.312  11.254 -0.1772 -0.3000  0.1385
 2691W        W 6755   4.646   6.791  10.963  0.2233 -0.2570 -0.0687
 2692W        W 6756   2.887   1.248   2.392  0.0267  0.0634  0.0205
 2693W        W 6757   7.612   1.778   1.866 -0.0447 -0.3768 -0.1869
 2694W        W 6758   2.185   7.754   1.431 -0.0532  0.1051  0.1934
 2695W        W 6759   3.876   4.104   8.060 -0.1404  0.0963 -0.1661
 2696W        W 6760   1.678   0.125  10.233  0.1677  0.3301  0.1157
 2697W        W 6761   2.198   9.042   9.280  0.0145  0.1071 -0.1407
 2698W        W 6762   0.845   8.348   9.264 -0.1568  0.1562 -0.3531
 2699W        W 6763   8.439   0.012   3.314 -0.0835  0.1555  0.2138
 2700W        W 6764   9.087   8.405   9.428  0.1030 -0.2904 -0.1600
 2701W        W 6765   5.193   1.914   1.704  0.2053 -0.0188  0.2118
 2702W        W 6766   5.089   8.257   1.470  0.1531  0.1840 -0.0179
 2703W        W 6767   6.497   2.198   8.460 -0.2292  0.0012  0.1620
 2704W        W 6768   1.116   5.914   0.748 -0.0728 -0.0108  0.1366
 2705W        W 6769   2.832   7.903   1.108 -0.1880  0.0468 -0.0067
 2706W        W 6770   0.209   2.299   8.984 -0.0109 -0.1641  0.0607
 2707W        W 6771   6.574   7.685   8.170 -0.1390  0.0273  0.0890
 2708W        W 6772   2.983   5.854   1.965 -0.2512  0.0635 -0.2191
 2709W        W 6773   0.415   0.055   0.966 -0.1132  0.1337  0.1647
 2710W        W 6774  10.242   9.816   1.673  0.1252 -0.1085 -0.0062
 2711W        W 6775   6.002   4.299  10.397 -0.2254  0.3061 -0.2501
 2712W        W 6776   6.821   2.819   9.819  0.0019  0.0598  0.0981
 2713W        W 6777   5.996   9.815   7.829 -0.2146 -0.0209 -0.1070
 2714W        W 6778   2.907   4.424  11.389 -0.1334  0.1114  0.2199
 2715W        W 6779   9.565  10.329  11.110 -0.4071 -0.5328  0.1670
 2716W        W 6780   6.300   7.600   0.092 -0.0508  0.0180  0.0093
 2717W        W 6781   9.054   3.786   0.602  0.3151  0.3337 -0.2166
 2718W        W 6782   1.771   3.834   8.870  0.0181  0.0143 -0.0330
 2719W        W 6783   1.037   0.383  10.972 -0.1552 -0.3957  0.1200
 2720W        W 6784   8.702   8.465   2.398  0.0297 -0.0218  0.1264
 2721W        W 6785   3.946   5.828   1.107  0.0450  0.0203 -0.1282
 2722W        W 6786   4.203   4.053  11.286 -0.2472 -0.1193  0.1569
 2723W        W 6787   1.937  10.385   3.429  0.2596  0.1918  0.0534
 2724W        W 6788   3.620   7.681   8.936 -0.3636  0.2027  0.1527
 2725W        W 6789   2.236   9.124   2.048 -0.1727 -0.1297 -0.2297
 2726W        W 6790   9.564   8.088   3.333  0.2829 -0.0203  0.2280
 2727W        W 6791   4.894   3.459   9.767  0.0041 -0.0926  0.0488
 2728W        W 6792   6.531   8.366   8.671 -0.0528  0.1227 -0.2073
 2729W        W 6793   8.322   1.838   1.176 -0.1314  0.0298 -0.0377
 2730W        W 6794   3.501  10.238   0.633 -0.0186  0.0936  0.0362
 2731W        W 6795   5.763   8.860   8.717  0.3610 -0.2043  0.0198
 2732W        W 6796   7.862   1.458   2.197 -0.2445  0.1623  0.0635
 2733W        W 6797   6.117   2.666   0.966  0.1056 -0.2569 -0.0549
 2734W        W 6798   1.651   4.112   7.985  0.0158  0.4219 -0.1031
 2735W        W 6799   2.725   4.848  10.323  0.1153  0.1481 -0.5322
 2736W        W 6800   9.691   1.870   2.585 -0.0104 -0.2617  0.0865
 2737W        W 6801   7.056   9.207   1.132 -0.0141 -0.2915 -0.0097
 2738W        W 6802   9.755   9.571   0.269  0.2682 -0.0113 -0.1228
 2739W        W 6803   1.654   1.686   2.440 -0.0796  0.0985  0.0196
 2740W        W 6804   9.487   5.455   2.711 -0.0095  0.1973  0.1146
 2741W        W 6805   9.350   4.978   1.814 -0.2316 -0.1532 -0.0938
 2742W        W 6806   3.215   7.206  10.373  0.0891  0.0910  0.0911
 2743W        W 6807   4.629   2.503   9.824 -0.1889  0.1276  0.1503
 2744W        W 6808   7.894   1.564   0.740 -0.0977  0.1159 -0.0244
 2745W        W 6809   4.373   6.691   9.573 -0.2498 -0.1086  0.3189
 2746W        W 6810   1.701   1.249   2.666  0.1990 -0.1584 -0.2656
 2747W        W 6811   1.597   5.385   9.858 -0.1759  0.2948 -0.4271
 2748W        W 6812   7.190   6.978   2.669 -0.0410 -0.3767  0.2269
 2749W        W 6813   1.425   0.224   1.436  0.2278  0.1370  0.0053
 2750W        W 6814   2.437   0.855   9.676 -0.1716  0.1438  0.0262
 2751W        W 6815   9.260   1.352  10.387 -0.2489  0.1544 -0.0278
 2752W        W 6816  10.649   6.919   8.427  0.1861  0.0208 -0.0055
 2753W        W 6817   9.902   0.392   9.714  0.0884  0.0814 -0.0121
 2754W        W 6818   8.758   4.053   0.840  0.1424 -0.2496  0.1502
 2755W        W 6819   7.098   8.219   8.178 -0.0176  0.1998 -0.2520
 2756W        W 6820   3.013   2.624   7.636 -0.2453 -0.0400  0.0101
 2757W        W 6821   3.932   2.915   3.466 -0.0277  0.0392  0.4510
 2758W        W 6822   4.549   6.317  11.123  0.2007 -0.0501 -0.1487
 2759W        W 6823   2.702   8.415   0.971  0.2332 -0.2070 -0.2552
 2760W        W 6824  10.458   2.439  11.448 -0.0383  0.1447  0.2876
 2761W        W 6825   1.591   7.293   1.143 -0.2390  0.2210 -0.0192
 2762W        W 6826   5.196   1.842   8.913  0.0519  0.1890 -0.1451
 2763W        W 6827   1.899   1.110   8.538  0.2018 -0.0423  0.1414
 2764W        W 6828   9.871   4.341  11.070 -0.2001 -0.3296  0.3440
 2765W        W 6829   6.151   5.055   9.941 -0.3445  0.4163 -0.1782
 2766W        W 6830   2.142   1.002   3.527  0.1696 -0.2349  0.0360
 2767W        W 6831   3.935   6.867  11.318 -0.0513  0.2038  0.0006
 2768W        W 6832   8.634   2.338   2.972 -0.2569 -0.0507 -0.0295
 2769W        W 6833   0.491   6.669   2.754  0.2752  0.2240 -0.1857
 2770W        W 6834   0.937   1.812   0.662 -0.2203 -0.4200 -0.2976
 2771W        W 6835   2.949   8.290   9.038 -0.0157  0.1712 -0.3298
 2772W        W 6836   7.750   5.790   9.685  0.4367 -0.0917 -0.1109
 2773W        W 6837   2.136   7.150   1.156  0.0740  0.1063  0.3051
 2774W        W 6838   3.113   2.001   9.731 -0.0010 -0.2290 -0.1043
 2775W        W 6839   5.819   6.298   0.552 -0.1069 -0.2477  0.1493
 2776W        W 6840   5.938   2.574   2.722  0.0751  0.0942 -0.0366
 2777W        W 6841   5.916   7.663   0.864  0.2399 -0.3863  0.3733
 2778W        W 6842   7.705   4.736   9.563  0.0242  0.2077  0.2010
 2779W        W 6843   9.198   1.540   1.632 -0.1031 -0.0417  0.0281
 2780W        W 6844   1.421   4.556   8.248 -0.1875 -0.0858  0.2243
 2781W        W 6845   2.180   9.298   1.611  0.0142  0.1441 -0.1350
 2782W        W 6846   0.562   4.025   0.057 -0.2238  0.2996  0.3368
 2783W        W 6847   5.554   5.834   2.603 -0.2306 -0.0976  0.3060
 2784W        W 6848   5.569   3.883   0.470 -0.3305  0.3401  0.2355
 2785W        W 6849   2.909   1.222  10.832  0.2326  0.0333 -0.2217
 2786W        W 6850   7.459   4.160  11.134  0.0099  0.1833 -0.0233
 2787W        W 6851   8.924   8.961   8.407 -0.0064 -0.0507  0.0148
 2788W        W 6852   1.481   1.227   1.804  0.0644 -0.1213 -0.1870
 2789W        W 6853   6.365   1.604   3.128 -0.0804 -0.1359 -0.2034
 2790W        W 6854   5.332   7.333  11.251 -0.0458 -0.1566  0.6022
 2791W        W 6855   1.876   2.855   7.400 -0.5455 -0.1545  0.0133
 2792W        W 6856   6.272   9.580   4.326 -0.1058  0.0034 -0.1548
 2793W        W 6857   9.508   1.385   1.276 -0.1400  0.0376  0.1890
 2794W        W 6858   3.247   9.576   2.048 -0.0398 -0.3048 -0.1390
 2795W        W 6859   0.309   4.318   0.419 -0.3655 -0.2532 -0.2813
 2796W        W 6860  10.327   0.901   0.028 -0.1336  0.0292  0.0061
 2797W        W 6861   9.349   4.256   1.396 -0.1093  0.3441 -0.1433
 2798W        W 6862   7.482   9.242   0.217 -0.1763 -0.2277 -0.0148
 2799W        W 6863   4.141  10.263   7.896  0.3137  0.1362  0.0475
 2800W        W 6864   3.848   7.372  10.971 -0.0505 -0.2243 -0.1199
 2801W        W 6865   7.236   1.379   8.513 -0.1408 -0.1666  0.1224
 2802W        W 6866   1.305   0.097   0.913 -0.2087 -0.1516 -0.2346
 2803W        W 6867   2.611  10.417   4.188 -0.1910  0.0620 -0.0781
 2804W        W 6868   6.611   3.476   3.296  0.0563  0.1274  0.2164
 2805W        W 6869   8.204   5.203   2.017 -0.0278 -0.1333 -0.2835
 2806W        W 6870   5.028   6.147  11.083  0.0717 -0.1400 -0.1253
 2807W        W 6871   2.584  10.510   0.872  0.1800 -0.0484  0.1878
 2808W        W 6872   4.898   7.442   2.472 -0.0483 -0.4154  0.0301
 2809W        W 6873   8.391   8.812   9.719 -0.1906  0.2637 -0.0188
 2810W        W 6874   9.590   6.474   9.156 -0.0433 -0.0503  0.3228
 2811W        W 6875   5.061   0.931   1.921 -0.2458  0.1402  0.0498
 2812W        W 6876   1.961   1.598   8.647  0.2268  0.2693 -0.0472
 2813W        W 6877   0.791   9.670  10.420 -0.1846  0.2197 -0.2914
 2814W        W 6878   4.656   0.470   1.940  0.1574  0.1336  0.0506
 2815W        W 6879   7.262   6.695   7.783 -0.2316  0.0893  0.2852
 2816W        W 6880   3.020   2.474   9.955  0.0369 -0.1881 -0.2533
 2817W        W 6881   5.976   3.309   1.742 -0.1240 -0.1281  0.0068
 2818W        W 6882   4.667   7.692   0.953  0.0728 -0.2393 -0.0556
 2819W        W 6883   4.449   6.251   9.907  0.1148  0.3060 -0.1441
 2820W        W 6884  10.370   6.601   2.519 -0.2336 -0.0439 -0.0458
 2821W        W 6885   6.984   2.134   0.584 -0.0939 -0.2083  0.1329
 2822W        W 6886   4.398   0.320   3.094  0.3035  0.1083 -0.0964
 2823W        W 6887   4.428   8.539   0.745 -0.2075  0.1920 -0.5079
 2824W        W 6888   5.035   0.023   3.632 -0.1552  0.1134  0.0344
 2825W        W 6889   1.669   1.999   9.078 -0.1912  0.1132  0.2888
 2826W        W 6890   7.065  10.271   9.630  0.2382 -0.2318  0.3356
 2827W        W 6891   7.608   0.060   0.968 -0.0754  0.2351  0.1206
 2828W        W 6892   3.946   4.059  10.549  0.2284  0.0012 -0.0674
 2829W        W 6893   9.555   8.557  10.275  0.0214  0.0022 -0.0736
 2830W        W 6894   7.686  10.143  11.270 -0.0221  0.4283  0.2948
 2831W        W 6895   0.397   2.541   2.415  0.2825 -0.0242 -0.0055
 2832W        W 6896   0.717   3.588   0.666  0.0209 -0.0263  0.0013
 2833W        W 6897   5.779   3.298   2.188 -0.1311  0.0979 -0.0976
 2834W        W 6898   8.191   6.246  11.313  0.0056  0.2844 -0.2028
 2835W        W 6899   0.741   3.407   2.535  0.0153  0.0631 -0.0453
 2836W        W 6900   7.377   3.691  11.399 -0.1200  0.1273 -0.0166
 2837W        W 6901   3.628   4.460  10.366  0.2620  0.0720  0.0812
 2838W        W 6902   1.243   5.061   7.430  0.1682 -0.1177  0.1277
 2839W        W 6903   7.603   8.062   3.076 -0.0029 -0.4989  0.1853
 2840W        W 6904   7.085   3.657   2.137  0.0011 -0.2474  0.0177
 2841W        W 6905   2.892   9.733   1.081 -0.3693 -0.0489 -0.1741
 2842W        W 6906   5.088   7.032   2.315  0.0645  0.3149 -0.0244
 2843W        W 6907   7.588   6.455   8.072 -0.3809 -0.2175 -0.3023
 2844W        W 6908   4.332   5.582  10.668 -0.0083  0.0133  0.2776
 2845W        W 6909   2.715   5.464   2.588 -0.1339 -0.0555  0.0943
 2846W        W 6910   4.170   8.576   1.225 -0.3116 -0.0786 -0.0114
 2847W        W 6911   2.043   5.117   9.298  0.1576  0.0612 -0.1219
 2848W        W 6912   9.996   1.753   9.211 -0.2442  0.0896 -0.3411
 2849W        W 6913   4.015   2.071   9.893 -0.3024 -0.2306  0.5486
 2850W        W 6914   8.580   6.320   9.084 -0.1650  0.2087 -0.2584
 2851W        W 6915  10.266   5.963  11.398 -0.2959 -0.0711 -0.1623
 2852W        W 6916   4.580   8.653   2.147  0.2370 -0.0071  0.0709
 2853W        W 6917   0.513   4.337   2.210  0.1434 -0.0440  0.0145
 2854W        W 6918   3.271   8.389   9.526 -0.0001 -0.5776  0.1154
 2855W        W 6919   1.910   2.027   8.419 -0.0457  0.3106 -0.1031
 2856W        W 6920   1.157   0.935   9.944  0.0815  0.2376  0.2227
 2857W        W 6921   0.158   1.660   8.197 -0.0503 -0.1883 -0.1030
 2858W        W 6922   1.631   0.332   2.859  0.0920  0.2055 -0.2039
 2859W        W 6923   1.695  10.245   1.422  0.4783  0.0026 -0.0146
 2860W        W 6924   3.256   2.475   1.854 -0.0685 -0.0063  0.0755
 2861W        W 6925   8.270   8.335  10.026 -0.0508 -0.2800  0.2100
 2862W        W 6926   5.934   2.675   9.270  0.0066 -0.0649  0.2359
 2863W        W 6927   8.702  10.057   4.478 -0.4421 -0.0603  0.1079
 2864W        W 6928   9.512   8.439   2.971 -0.0894 -0.0453  0.2616
 2865W        W 6929   2.429   4.584  11.512  0.2012  0.0307 -0.0761
 2866W        W 6930   3.095   7.379   7.966 -0.1611 -0.1115  0.0116
 2867W        W 6931   9.578   9.868   9.106  0.2264 -0.3638  0.2000
 2868W        W 6932   4.105   6.917   0.270 -0.1909 -0.2461  0.1969
 2869W        W 6933   7.765   5.757   0.983 -0.1062 -0.3348 -0.0784
 2870W        W 6934   4.199   9.329   2.966 -0.0229 -0.0440  0.2502
 2871W        W 6935   0.219   0.787  10.516  0.0908 -0.2834  0.0032
 2872W        W 6936   7.930   8.535   2.182 -0.3140 -0.1356  0.0479
 2873W        W 6937   7.759   1.535   8.928  0.3159 -0.0774 -0.1439
 2874W        W 6938  10.311   0.490  11.298  0.0811 -0.0841  0.1492
 2875W        W 6939   8.916   7.131   2.423  0.1250  0.0178 -0.0077
 2876W        W 6940  10.324   0.951   4.329 -0.1368  0.1319  0.1192
 2877W        W 6941   8.828   6.722   1.949  0.1217 -0.2578 -0.3251
 2878W        W 6942   2.193   2.472  10.257  0.2675 -0.0108 -0.0821
 2879W        W 6943   4.273   9.157   9.632  0.1482 -0.3848  0.1196
 2880W        W 6944   8.203   6.363   0.328  0.2920 -0.2712 -0.2453
 2881W        W 6945   4.666   3.892   9.008 -0.2011  0.0025  0.1351
 2882W        W 6946   5.143   5.290   7.748 -0.2582  0.1311  0.2522
 2883W        W 6947   4.007   7.568   9.933  0.2603  0.2134 -0.1247
 2884W        W 6948   5.006   5.483   1.916 -0.2134 -0.1958  0.2820
 2885W        W 6949   5.081   8.137  10.892 -0.0962 -0.0563 -0.0339
 2886W        W 6950   9.618   9.645   2.327  0.1393  0.1006 -0.1100
 2887W        W 6951   5.230   8.317  10.106 -0.1213  0.2127 -0.1891
 2888W        W 6952   1.980   9.616   2.757  0.2161  0.0907 -0.0271
 2889W        W 6953   7.421   0.111  10.527 -0.3951  0.1828 -0.1285
 2890W        W 6954   0.659   3.594   1.644 -0.0039 -0.3431 -0.3522
 2891W        W 6955   8.491   0.903   1.249 -0.2440 -0.1370  0.0629
 2892W        W 6956   8.536   9.751   2.324 -0.0805  0.0554 -0.1244
 2893W        W 6957   7.902   1.514   1.218  0.0195 -0.4000 -0.1568
 2894W        W 6958   8.930   1.273   2.655 -0.2866  0.0854 -0.1828
 2895W        W 6959   6.450   1.236   1.230  0.1139  0.1016 -0.1586
 2896W        W 6960   5.645   6.613   2.883  0.2305 -0.1490  0.2474
 2897W        W 6961   6.781   0.939   1.601  0.2849  0.0915  0.2696
 2898W        W 6962   2.810   6.477   9.074 -0.2240 -0.0037  0.0996
 2899W        W 6963   2.165   5.911  10.519 -0.1332 -0.2619  0.0935
 2900W        W 6964   5.809   1.052   2.420 -0.1647 -0.0397  0.0622
 2901W        W 6965   7.331   9.355   7.983 -0.1640 -0.2269 -0.0591
 2902W        W 6966   9.385  10.275   0.885 -0.1374  0.4604  0.0679
 2903W        W 6967   6.714   0.261   0.513 -0.2127  0.1677  0.0743
 2904W        W 6968   0.306   0.802   8.626  0.0131 -0.0620  0.2449
 2905W        W 6969   7.900   0.671  10.672 -0.1324  0.0626 -0.0096
 2906W        W 6970   5.664   0.467   9.400 -0.4830  0.1164 -0.0249
 2907W        W 6971   6.705   5.994   9.528 -0.1894 -0.1474 -0.0320
 2908W        W 6972   4.395   2.974   0.920  0.2870 -0.0744 -0.2022
 2909W        W 6973   7.983   7.586   0.583  0.4834  0.1891 -0.0802
 2910W        W 6974   8.310   6.424   8.174  0.3615 -0.1660  0.0060
 2911W        W 6975   4.498   8.207   1.928  0.2518  0.2395 -0.1455
 2912W        W 6976   9.616   0.800   8.618 -0.1325 -0.0145 -0.4279
 2913W        W 6977   5.155   7.093   8.753 -0.4289  0.1554 -0.1816
 2914W        W 6978   6.781   7.918   1.004 -0.0734 -0.2302 -0.0979
 2915W        W 6979   7.788  10.113   2.849  0.2965  0.0746  0.0462
 2916W        W 6980   5.419   7.291  10.491 -0.1832 -0.1688  0.1444
 2917W        W 6981   1.586   3.634   2.671 -0.0915  0.2078 -0.0580
 2918W        W 6982   1.263   3.799   8.898 -0.0904  0.2807  0.1790
 2919W        W 6983   1.758   8.545   2.585 -0.0132 -0.1472 -0.2897
 2920W        W 6984   6.234   8.509   1.798 -0.0520  0.0434 -0.1536
 2921W        W 6985   9.643   5.478   1.918  0.0094  0.1321  0.1215
 2922W        W 6986   7.297   2.424   8.951 -0.0157  0.3026 -0.2271
 2923W        W 6987   8.142   1.582  10.884 -0.1774  0.2657  0.1880
 2924W        W 6988   0.926   0.677   2.336 -0.1170 -0.1957  0.3286
 2925W        W 6989   3.353   7.280   8.742  0.2149  0.0539  0.0163
 2926W        W 6990   9.130   3.254  10.556  0.0502 -0.0507 -0.0989
 2927W        W 6991   6.247   7.098   8.870  0.3248 -0.1424  0.1321
 2928W        W 6992   6.970   2.649   0.837 -0.1248  0.2078  0.2159
 2929W        W 6993   4.919   3.333   0.160 -0.1066 -0.2760 -0.3687
 2930W        W 6994   7.175   4.852   3.005 -0.1183 -0.3235 -0.0562
 2931W        W 6995   1.057   8.850  11.158 -0.0633 -0.2197 -0.0944
 2932W        W 6996   2.714   6.886   1.721 -0.1674  0.3086 -0.0488
 2933W        W 6997   2.157   4.567   9.505 -0.3077  0.0097 -0.2904
 2934W        W 6998   5.604   3.184   9.475  0.1655  0.0809 -0.1091
 2935W        W 6999   9.369   3.483   3.496 -0.1359 -0.1318 -0.0943
 2936W        W 7000   4.378  10.246   1.657  0.1821  0.0817  0.1701
 2937W        W 7001   2.870   3.544   8.617 -0.3076  0.0159 -0.0017
 2938W        W 7002  10.095   0.068   3.468  0.3245 -0.1821 -0.0187
 2939W        W 7003   7.755   6.595   2.931 -0.1816 -0.1323 -0.0639
 2940W        W 7004   3.012   3.770   2.081  0.1131 -0.2347  0.4367
 2941W        W 7005   5.092   3.125   9.458  0.1898  0.1299 -0.1765
 2942W        W 7006   4.305   7.162   9.670  0.1079  0.2822 -0.0804
 2943W        W 7007   8.564   5.717  11.350 -0.0316 -0.1883  0.0516
 2944W        W 7008  10.052   0.520   2.681 -0.1905 -0.0284 -0.1136
 2945W        W 7009  10.010   1.275  10.649 -0.0306 -0.3906  0.0655
 2946W        W 7010   1.094  10.342   0.699  0.1017 -0.1438  0.0558
 2947W        W 7011   0.939   5.883   9.683 -0.1884  0.0310 -0.1955
 2948W        W 7012   6.229   9.052   3.049  0.1847 -0.0932  0.0812
 2949W        W 7013   5.944   4.761   3.051  0.1979  0.0087  0.1951
 2950W        W 7014   9.590   6.731  10.504 -0.2996 -0.1012  0.1596
 2951W        W 7015   6.484   3.364   1.511 -0.3602 -0.2405 -0.0163
 2952W        W 7016   3.574   1.632  10.721 -0.0486 -0.4364 -0.0008
 2953W        W 7017   4.100   3.062   0.519 -0.0405  0.0861 -0.2466
 2954W        W 7018   0.659   8.587   0.816 -0.1090  0.2721  0.2777
 2955W        W 7019   0.035   6.262   2.659  0.1234  0.1152 -0.0921
 2956W        W 7020   6.868   8.329   9.931  0.0151  0.0008 -0.0376
 2957W        W 7021   5.368   4.704  11.191 -0.0610  0.2542  0.3833
 2958W        W 7022   1.728   6.358   8.313 -0.1549 -0.1344  0.1750
 2959W        W 7023   1.209   6.013   7.875  0.1514 -0.1333  0.2503
 2960W        W 7024   5.631   6.591   1.574 -0.0302 -0.0208 -0.0693
 2961W        W 7025   0.595   8.935   2.889  0.5191  0.4692  0.1377
 2962W        W 7026   4.564   3.962   1.555 -0.1583  0.2632  0.1917
 2963W        W 7027  10.315   8.697   2.739 -0.0531 -0.2287  0.2309
 2964W        W 7028   9.403   7.995   2.747  0.1637 -0.2674  0.0822
 2965W        W 7029   3.267   3.981  10.231 -0.1870  0.1784 -0.3848
 2966W        W 7030   0.655   6.283   2.447 -0.0665 -0.2945 -0.0695
 2967W        W 7031  10.596   1.152   9.052 -0.1895  0.2235 -0.1333
 2968W        W 7032   1.854   6.925   3.049  0.1698  0.0478  0.2945
 2969W        W 7033   8.832   5.039   0.505  0.5895  0.0105 -0.0190
 2970W        W 7034   0.721   9.037   8.541  0.0152  0.0369  0.2490
 2971W        W 7035   8.020   6.853   2.565  0.1972 -0.1588 -0.1451
 2972W        W 7036   0.661   2.376   8.784  0.0867  0.1833 -0.0834
 2973W        W 7037   7.778   1.777   0.288  0.0198 -0.2149  0.2043
 2974W        W 7038   2.254   1.416   8.318 -0.0064  0.0144  0.0692
 2975W        W 7039   0.978  10.008   2.102  0.0065 -0.3687 -0.3515
 2976W        W 7040   5.094   4.273   8.861  0.0201 -0.1588 -0.0943
 2977W        W 7041   7.689   7.795  10.187 -0.1935 -0.0205  0.3046
 2978W        W 7042   9.900   8.721   0.747 -0.1312 -0.1488  0.1659
 2979W        W 7043   4.143   8.638   0.100  0.2536 -0.1897  0.1979
 2980W        W 7044   6.444   2.040   3.489  0.0267  0.0958  0.0963
 2981W        W 7045   7.995   0.325  11.510 -0.0475 -0.1708  0.4029
 2982W        W 7046   4.130   6.155   3.122  0.1645 -0.0529 -0.1086
 2983W        W 7047   8.119   0.679   2.583  0.3081  0.1685 -0.0343
 2984W        W 7048   9.647   3.102   2.141  0.1237  0.2673  0.0564
 2985W        W 7049   5.314   8.552   2.373  0.0040 -0.3857  0.0785
 2986W        W 7050   9.192  10.340  10.611 -0.0451 -0.0870 -0.1502
 2987W        W 7051   3.331  10.055  10.735  0.0444 -0.0524 -0.0610
 2988W        W 7052   6.249   3.893   9.511 -0.1302  0.1267 -0.0860
 2989W        W 7053  10.085   0.390   4.010 -0.2808  0.0201 -0.0334
 2990W        W 7054   4.625   4.005   3.072  0.0293 -0.0474 -0.1348
 2991W        W 7055   9.757   5.864   1.033  0.1362 -0.1159  0.1332
 2992W        W 7056   9.301   9.435   2.687  0.1954 -0.1652 -0.0013
 2993W        W 7057   5.770   4.871   0.010  0.0526 -0.4365  0.0294
 2994W        W 7058   5.881   9.991   8.945 -0.1289 -0.0326  0.2500
 2995W        W 7059   0.884   3.826  10.742  0.2351 -0.0448  0.3990
 2996W        W 7060   4.257   1.944   0.820  0.2547  0.1205 -0.1964
 2997W        W 7061   3.376   2.349   9.530  0.0403 -0.0968  0.2876
 2998W        W 7062   8.249   8.575   7.062  0.0068 -0.0191 -0.0414
 2999W        W 7063   1.131   4.173   8.431 -0.1240  0.3276  0.1000
 3000W        W 7064   1.315   7.109   8.314  0.1942 -0.1006  0.1981
 3001W        W 7065   0.798  10.624  10.821 -0.0679  0.1053 -0.1539
 3002W        W 7066   3.631   0.030   2.455 -0.0224  0.0987 -0.1044
 3003W        W 7067   8.698   4.955  10.820  0.1480 -0.1028  0.1752
 3004W        W 7068   2.461   8.136   0.236  0.2730 -0.1900  0.1406
 3005W        W 7069   3.374   0.371  11.012 -0.3077 -0.0202 -0.2484
 3006W        W 7070   3.995   8.523   9.129  0.1096 -0.0744 -0.2819
 3007W        W 7071   4.185   0.358   9.285 -0.0577  0.3633 -0.2508
 3008W        W 7072   4.268   7.828   0.623  0.2909  0.0450 -0.1146
 3009W        W 7073   9.316   6.791   3.255 -0.3642  0.0701 -0.0944
 3010W        W 7074   9.152   9.020   9.186  0.0609 -0.0702  0.0404
 3011W        W 7075   5.365  10.413   1.248  0.0589  0.2522  0.0536
 3012W        W 7076   1.280   4.412   1.847 -0.2114  0.0676 -0.0849
 3013W        W 7077  10.616   4.530   1.526 -0.0963  0.2768 -0.0998
 3014W        W 7078  10.121   1.299   2.303 -0.2113  0.0531  0.0369
 3015W        W 7079   3.474  10.082   2.684 -0.1286 -0.0808 -0.1756
 3016W        W 7080   4.626   3.957   2.069 -0.0967  0.0531  0.1073
 3017W        W 7081   9.089   2.920   0.565  0.0364  0.2312 -0.2954
 3018W        W 7082   1.791   9.905   1.787  0.1347  0.2689 -0.1758
 3019W        W 7083  10.459  10.185  11.174 -0.1749  0.0958  0.1576
 3020W        W 7084   9.967   8.913   2.105 -0.2490 -0.2799  0.0893
 3021W        W 7085   2.049   5.117   0.671  0.2121 -0.0035 -0.1958
 3022W        W 7086   5.206   0.565  10.784  0.0736  0.3170  0.1917
 3023W        W 7087   6.618   6.569  11.416  0.4125  0.0753  0.0251
 3024W        W 7088   3.333   1.059   9.394 -0.1075  0.0300 -0.1345
 3025W        W 7089   9.207   7.696  10.691 -0.0799 -0.3242 -0.2020
 3026W        W 7090   3.888   0.436   2.712  0.1596 -0.1011 -0.3820
 3027W        W 7091   8.468   8.825   0.029  0.0249  0.0935  0.2158
 3028W        W 7092   2.013   8.449   2.128 -0.0778  0.0564  0.1653
 3029W        W 7093   3.713   2.746   9.375  0.3014 -0.0473 -0.1241
 3030W        W 7094   9.758  10.026   7.287 -0.0440  0.1735 -0.1826
 3031W        W 7095  10.327   8.160   7.677 -0.1093 -0.2236 -0.4249
 3032W        W 7096   2.980   0.441   2.115 -0.0194  0.3908  0.0457
 3033W        W 7097   9.460   9.856   2.952 -0.2991 -0.0155  0.2219
 3034W        W 7098   3.878   4.951   7.453 -0.1927 -0.2249  0.0200
 3035W        W 7099   5.326   7.862  11.278 -0.2933  0.1513  0.1879
 3036W        W 7100   3.794   7.626   9.492 -0.2394  0.0289  0.2813
 3037W        W 7101   8.754   8.935   7.919 -0.0418 -0.0767 -0.1046
 3038W        W 7102   5.791   7.590  11.271 -0.2373 -0.0372  0.1071
 3039W        W 7103   6.265   8.981   7.562  0.3559 -0.1363 -0.1552
 3040W        W 7104   3.520   1.091   8.204  0.1454 -0.3199 -0.2632
 3041W        W 7105   0.688   7.798   8.650 -0.0812  0.0140  0.1982
 3042W        W 7106   0.783   3.797   9.170 -0.0349  0.0924 -0.0254
 3043W        W 7107  10.347   7.071   3.700  0.1992  0.0993  0.2120
 3044W        W 7108   4.680   7.983   3.339 -0.1073  0.0317  0.0558
 3045W        W 7109   9.320   8.919   8.714  0.0886 -0.3698 -0.0159
 3046W        W 7110   4.680   7.469  11.451  0.0886 -0.0403 -0.0326
 3047W        W 7111   7.182   7.504   1.017  0.2361  0.1708  0.2029
 3048W        W 7112   7.909   5.001   3.102 -0.1784  0.1690  0.0604
 3049W        W 7113   5.332   4.318   0.417  0.3670  0.1356 -0.2374
 3050W        W 7114   9.880   0.278   3.095  0.2131  0.0273  0.2345
 3051W        W 7115   2.062   5.902   0.110 -0.0596  0.2220 -0.1009
 3052W        W 7116   8.931   5.025  11.297  0.4518  0.2516 -0.0418
 3053W        W 7117   6.317   8.522   1.075  0.2494  0.1052 -0.2659
 3054W        W 7118   7.471  10.276   3.246 -0.0164 -0.2823 -0.2693
 3055W        W 7119   6.889   3.341   1.819  0.0895 -0.0264 -0.2993
 3056W        W 7120   7.211   1.517   0.552  0.0100  0.0217  0.0727
 3057W        W 7121   8.949   6.440   0.427  0.3447  0.2183 -0.3229
 3058W        W 7122   6.921   6.439   9.370  0.2501  0.0336  0.1038
 3059W        W 7123   9.688   5.172   7.866  0.2295  0.0471 -0.2451
 3060W        W 7124  10.366   6.962   0.183 -0.1172 -0.3181  0.3071
 3061W        W 7125   6.624   3.319   3.851  0.0499 -0.0428 -0.1247
 3062W        W 7126   1.511   6.267  10.178 -0.2301 -0.0633  0.1618
 3063W        W 7127   1.539   2.492   9.633  0.1997  0.1654  0.0811
 3064W        W 7128   3.753   2.106   4.428 -0.0254 -0.1905 -0.0233
 3065W        W 7129   5.161  10.583   1.669 -0.1666 -0.2427 -0.0098
 3066W        W 7130   6.477   9.069   8.108  0.2353 -0.1398  0.0428
 3067W        W 7131   1.913   9.156   8.533  0.1603  0.0900 -0.1977
 3068W        W 7132   3.877   3.528   0.267 -0.0576 -0.0663 -0.1055
 3069W        W 7133   9.865   8.279   7.822 -0.1714 -0.4421 -0.2332
 3070W        W 7134   3.017   1.190   3.538 -0.0727 -0.4593 -0.2299
 3071W        W 7135   7.969   4.847   1.033  0.0642  0.3422 -0.0413
 3072W        W 7136   6.284   0.590   0.477 -0.0977 -0.0537  0.0258
 3073W        W 7137   0.865   7.999   2.835  0.1455  0.1644 -0.2594
 3074W        W 7138   5.281   1.239  10.809 -0.3152  0.2824 -0.0543
 3075W        W 7139   8.781   9.485   9.655 -0.3205  0.0156 -0.3998
 3076W        W 7140   3.839   9.672   1.276 -0.0962  0.3494  0.0455
 3077W        W 7141   5.199   1.682   0.342  0.2097 -0.0489  0.0368
 3078W        W 7142   0.146   5.810   3.871 -0.1738  0.0539 -0.3028
 3079W        W 7143   8.438   8.000   1.594 -0.1892 -0.0219  0.0252
 3080W        W 7144   1.566   1.006   3.518 -0.0645 -0.0292  0.3385
 3081W        W 7145   6.308   1.622   0.156 -0.0900 -0.1405  0.1247
 3082W        W 7146  10.571   4.887  11.392  0.3645 -0.3737  0.1303
 3083W        W 7147   1.716   6.677   0.161 -0.0371  0.5471 -0.1512
 3084W        W 7148   1.384   5.038   1.376 -0.0116  0.2644 -0.2861
 3085W        W 7149   0.746   6.946   1.211 -0.1606 -0.0747  0.3043
 3086W        W 7150   7.483   1.076   8.780  0.0788 -0.0154 -0.0160
 3087W        W 7151   5.015   8.204   9.110 -0.0536  0.1217 -0.0810
 3088W        W 7152   8.509   5.572   8.669 -0.4476  0.3091  0.0812
 3089W        W 7153   4.314   9.064   3.389 -0.3374  0.1420  0.0560
 3090W        W 7154   1.777   6.941  11.289 -0.0496  0.0679  0.0169
 3091W        W 7155   7.349  10.468   9.062 -0.0740 -0.1657  0.0004
 3092W        W 7156   0.309   5.185   7.679 -0.0477  0.1750  0.2073
 3093W        W 7157   8.042   1.023   8.473  0.1237 -0.2378  0.2197
 3094W        W 7158   1.370   1.069   0.383  0.2030  0.2984 -0.2253
 3095W        W 7159   8.226   4.075  11.500 -0.1243 -0.1595 -0.3238
 3096W        W 7160   3.895   2.304  10.350  0.2071 -0.2474 -0.1961
 3097W        W 7161  10.193   7.486   2.345 -0.0577 -0.2087  0.1334
 3098W        W 7162   1.289   0.741   9.199  0.0866 -0.0551 -0.1249
 3099W        W 7163   5.111   5.279   9.007 -0.1541  0.1477 -0.0439
 3100W        W 7164   6.754   4.132   0.504  0.1260  0.5232  0.1085
 3101W        W 7165   8.856  10.640   0.131  0.1709 -0.1355  0.0778
 3102W        W 7166   2.967   5.364   2.164  0.2602  0.0200 -0.3033
 3103W        W 7167   8.994   9.870   1.663 -0.0261 -0.0157  0.0506
 3104W        W 7168   0.672   7.856   9.914  0.1180 -0.0445 -0.0017
 3105W        W 7169   8.775   6.225   2.654 -0.1001  0.1393  0.2298
 3106W        W 7170   7.134   9.250   2.530 -0.0842 -0.1662 -0.3198
 3107W        W 7171   6.703   4.467   7.888 -0.1067  0.0041 -0.0272
 3108W        W 7172   1.163   5.888  10.527  0.1625 -0.2014 -0.0013
 3109W        W 7173   8.155   8.517   2.671  0.3491 -0.0500 -0.2219
 3110W        W 7174   7.141   8.675   9.595 -0.2288  0.0193 -0.2675
 3111W        W 7175   6.770   8.824   2.342  0.0638 -0.0002 -0.2704
 3112W        W 7176  10.009   9.088   1.618 -0.4479 -0.0477  0.0125
 3113W        W 7177   5.783   6.897   7.853 -0.0600  0.0419  0.1145
 3114W        W 7178   9.968   8.076   0.582 -0.1873 -0.0101 -0.1483
 3115W        W 7179   3.664   0.235   8.829 -0.0493  0.4738  0.0192
 3116W        W 7180   3.879  10.206   1.515  0.1324 -0.1964  0.2817
 3117W        W 7181   6.565   1.706   1.121  0.0098 -0.0446 -0.0728
 3118W        W 7182   8.679   2.609   8.691 -0.0613  0.2184  0.0507
 3119W        W 7183   4.425   0.108   4.402 -0.0475  0.1135 -0.1190
 3120W        W 7184   9.107   8.743   1.533 -0.0454  0.1877  0.1750
 3121W        W 7185   5.570   8.458  10.678 -0.1397 -0.0424 -0.3214
 3122W        W 7186   2.097  10.216   1.088 -0.2595 -0.1547  0.1261
 3123W        W 7187   8.367   7.238   0.750  0.1355  0.1485 -0.1173
 3124W        W 7188   6.059   4.499   0.886  0.1729  0.1233  0.0715
 3125W        W 7189   8.612   9.893   2.823 -0.0703  0.2258 -0.2595
 3126W        W 7190   4.811   2.229   9.449  0.1698  0.2854 -0.0719
 3127W        W 7191   9.414  10.594   0.398  0.1227 -0.0564 -0.1208
 3128W        W 7192   7.662   0.111   9.280 -0.1165  0.2225  0.1134
 3129W        W 7193   7.832   5.450   7.353 -0.2509 -0.0493 -0.0770
 3130W        W 7194   8.655   6.577   3.104  0.0864  0.2129 -0.0148
 3131W        W 7195   2.371   5.651  10.041  0.1147 -0.1309 -0.0131
 3132W        W 7196   3.703   8.287   8.159 -0.1070 -0.2257 -0.0450
 3133W        W 7197   4.225   5.219   2.577 -0.1988 -0.2731  0.0446
 3134W        W 7198   8.345   5.086   8.735 -0.2432 -0.1524 -0.0256
 3135W        W 7199   6.849   5.416  10.521  0.0785 -0.2046 -0.2278
 3136W        W 7200   0.725   6.070   7.901  0.5273  0.0545 -0.0223
 3137W        W 7201   0.239   8.429   9.366  0.0452 -0.0344  0.0340
 3138W        W 7202   1.137   0.062   3.410  0.2219 -0.1290  0.0130
 3139W        W 7203  10.325   6.492   9.901 -0.0222 -0.3427  0.4032
 3140W        W 7204   0.412   4.162  10.333  0.0774  0.0756  0.0495
 3141W        W 7205   5.643   9.375   9.663 -0.1854  0.2481  0.0525
 3142W        W 7206   8.618   9.377   8.467 -0.0888 -0.0664 -0.1918
 3143W        W 7207   8.700   5.376   2.206  0.0703  0.2619  0.1571
 3144W        W 7208   1.455   0.704   0.808  0.2062 -0.3587  0.0678
 3145W        W 7209   1.880   4.337   3.589 -0.0598 -0.0458  0.0219
 3146W        W 7210   3.378   4.426   0.101 -0.3629  0.0895 -0.2071
 3147W        W 7211   7.223   3.771   7.545 -0.0457 -0.0833  0.0272
 3148W        W 7212   0.762   3.943   1.272  0.0869 -0.1986 -0.2452
 3149W        W 7213   3.810   3.640  10.802  0.1518 -0.1711  0.1344
 3150W        W 7214   0.912   1.715   1.595 -0.0742  0.1825  0.1019
 3151W        W 7215   0.826   1.599   7.648 -0.1665  0.1243  0.0758
 3152W        W 7216   0.801   9.491   0.260 -0.0307  0.2571 -0.1580
 3153W        W 7217  10.442  10.394   7.896 -0.3440 -0.1468 -0.2107
 3154W        W 7218   9.444   9.365  10.930 -0.2105 -0.4930  0.1168
 3155W        W 7219   1.359   8.636  11.492 -0.2125 -0.2100  0.0600
 3156W        W 7220   3.209   4.196   2.919 -0.0328  0.0371 -0.0944
 3157W        W 7221   5.023   4.817   1.589  0.1167 -0.4118 -0.4169
 3158W        W 7222   6.460   0.322   9.539 -0.1607  0.3348  0.0490
 3159W        W 7223   5.939   7.986   8.922  0.0602  0.2228 -0.0604
 3160W        W 7224   1.893  10.369   2.156  0.0221  0.1427 -0.1776
 3161W        W 7225   2.419   7.671   3.836  0.0334 -0.0370 -0.2391
 3162W        W 7226   6.777   5.724   1.278 -0.0668  0.0884 -0.2025
 3163W        W 7227   0.709   5.070   9.459 -0.1622  0.2440 -0.0750
 3164W        W 7228   1.950   2.463   0.772 -0.2125  0.3892 -0.4238
 3165W        W 7229   6.690   4.966   8.663  0.2824 -0.2600 -0.3009
 3166W        W 7230   0.209   6.772  11.109 -0.2967 -0.1450 -0.0159
 3167W        W 7231   2.996   4.959   9.316  0.4594 -0.2526  0.1400
 3168W        W 7232   2.934   2.945   1.709 -0.3943 -0.0760 -0.2748
 3169W        W 7233   7.874   2.332   2.565  0.2418 -0.1602  0.1053
 3170W        W 7234   2.447   5.800   1.540 -0.1999 -0.1458 -0.1644
 3171W        W 7235   1.973  10.142  10.582  0.0068  0.3016 -0.0399
 3172W        W 7236   7.763   0.557   1.823 -0.1329 -0.2789  0.2498
 3173W        W 7237  10.551   3.243   1.916  0.2093  0.1227  0.0291
 3174W        W 7238   4.483   6.723   3.114  0.1254  0.0278  0.0618
 3175W        W 7239   2.638   8.178  11.290 -0.0524  0.0380 -0.0668
 3176W        W 7240   0.705   6.358   9.637 -0.2539 -0.0902 -0.1587
 3177W        W 7241   6.776   7.809   9.913  0.0164 -0.0060 -0.1732
 3178W        W 7242   2.687   5.246  10.050 -0.0496  0.2206 -0.2661
 3179W        W 7243   6.435   2.917   9.447 -0.1071  0.1179 -0.0918
 3180W        W 7244   5.153   7.947   3.197 -0.0030 -0.0777 -0.2038
 3181W        W 7245   6.383   4.097   0.853 -0.4902 -0.0990  0.0266
 3182W        W 7246   3.633   8.109   1.161  0.0058  0.3851 -0.0217
 3183W        W 7247   7.899   2.596   1.111 -0.1380  0.0677 -0.0906
 3184W        W 7248   8.683   9.918   9.334 -0.0018  0.0738  0.2135
 3185W        W 7249   3.576   1.885   9.739 -0.1481  0.0982 -0.2349
 3186W        W 7250   8.868   1.162   1.004 -0.0507 -0.0025 -0.1341
 3187W        W 7251  10.027   5.225  10.611 -0.1312 -0.0644 -0.0939
 3188W        W 7252   7.167  10.465  10.284 -0.0428  0.1875  0.0363
 3189W        W 7253   7.287   3.986  10.569  0.1217  0.0175 -0.0036
 3190W        W 7254   9.248   5.861   1.738  0.0634 -0.0264  0.2507
 3191W        W 7255   1.496   1.393   0.079 -0.1320  0.3139  0.0582
 3192W        W 7256   3.095   8.683   1.133 -0.2063 -0.0205 -0.2693
 3193W        W 7257   0.451   7.968   9.481 -0.3010 -0.1963  0.0557
 3194W        W 7258   7.137   0.940   8.362 -0.0422  0.1011  0.0111
 3195W        W 7259   3.894  10.533  11.482 -0.3051 -0.1156  0.0410
 3196W        W 7260   9.040   3.292   0.829 -0.0973  0.2738  0.0833
 3197W        W 7261   2.170   7.990   2.232  0.1415 -0.1249  0.1637
 3198W        W 7262   5.189   6.458   7.332  0.2326  0.0255 -0.3796
 3199W        W 7263   8.314   7.385   7.908  0.0084 -0.0320  0.0681
 3200W        W 7264   4.664   5.795   8.496  0.2820 -0.1129  0.1141
 3201W        W 7265   1.016   4.254   9.074 -0.0585 -0.2146 -0.2278
 3202W        W 7266   5.875   7.233   8.257  0.3067 -0.1182 -0.0554
 3203W        W 7267   8.324   9.557   1.010  0.3965 -0.1371 -0.0362
 3204W        W 7268   1.398   6.984   9.396  0.1167 -0.1279 -0.3564
 3205W        W 7269   6.575   3.178   0.157  0.0344 -0.0001  0.1305
 3206W        W 7270   8.769   4.122  11.469  0.0199 -0.0895 -0.2001
 3207W        W 7271   2.830   4.035   8.645 -0.1340  0.0606  0.1151
 3208W        W 7272   2.763   6.521   0.315 -0.1092 -0.0095 -0.2539
 3209W        W 7273   0.524   2.559  10.557 -0.1359 -0.3131  0.1865
 3210W        W 7274   3.304  10.071   8.025 -0.0753 -0.1843 -0.1203
 3211W        W 7275  10.288   4.910   2.200  0.1369 -0.2005  0.3870
 3212W        W 7276   1.462   1.667   1.473 -0.1043 -0.1906 -0.1267
 3213W        W 7277   2.533  10.037  10.133 -0.2869 -0.2478 -0.0914
 3214W        W 7278  10.459   7.936   0.005 -0.1133  0.0263  0.0299
 3215W        W 7279   4.646   2.680   1.909  0.0612 -0.1402  0.1527
 3216W        W 7280   8.688   9.841   1.289 -0.1549 -0.0295 -0.0584
 3217W        W 7281   7.864   7.367   9.205 -0.0047 -0.0242 -0.1605
 3218W        W 7282   3.741   3.703   0.803 -0.0558  0.0697 -0.1326
 3219W        W 7283   7.612   6.958   9.028  0.3648 -0.0514  0.1941
 3220W        W 7284   2.195   1.022   8.880 -0.0696  0.0484  0.0776
 3221W        W 7285   0.398   1.177   2.714 -0.1415 -0.2323 -0.1073
 3222W        W 7286   1.462   1.803   8.591 -0.1586 -0.1410  0.3692
 3223W        W 7287   9.619   7.555   3.374  0.0176 -0.0002 -0.0702
 3224W        W 7288   6.739   5.341   7.792 -0.2531 -0.0767  0.2363
 3225W        W 7289   9.168   7.337   0.410 -0.1476 -0.0889  0.1824
 3226W        W 7290  10.105   2.384   3.123  0.0837 -0.1627  0.2670
 3227W        W 7291  10.033   5.861   7.111 -0.2615  0.0922 -0.0108
 3228W        W 7292   9.846   6.578  10.091 -0.2421  0.1191  0.1893
 3229W        W 7293   9.241   4.081  10.246 -0.1402  0.1441  0.2385
 3230W        W 7294   4.326   9.077  10.646  0.1202 -0.2194  0.0463
 3231W        W 7295   3.724   1.264   1.517  0.2563 -0.2076  0.0710
 3232W        W 7296   8.469   5.427   9.186  0.1156  0.0077 -0.2052
 3233W        W 7297   1.165   5.017   0.461 -0.1012  0.1574  0.0953
 3234W        W 7298   6.585   8.845   0.217  0.0693 -0.0254 -0.2380
 3235W        W 7299   0.729   1.899   0.167 -0.2404 -0.1105 -0.1021
 3236W        W 7300   4.135   4.009   3.361  0.0997 -0.3149 -0.1768
 3237W        W 7301   2.008   4.272   8.975 -0.1789 -0.2189  0.1046
 3238W        W 7302   0.724   8.750  10.663 -0.5309 -0.1764  0.0747
 3239W        W 7303   8.173   4.920  10.249 -0.1324 -0.1119 -0.1367
 3240W        W 7304   5.030   0.118   4.114  0.1716 -0.0865 -0.1164
 3241W        W 7305   1.547   2.979   8.709  0.1730 -0.1542  0.1467
 3242W        W 7306  10.442   2.249   2.145  0.0626  0.1887 -0.1252
 3243W        W 7307   0.671   0.010   9.918 -0.1757 -0.2019 -0.0147
 3244W        W 7308   7.522   8.409   3.959 -0.1748 -0.0623  0.1259
 3245W        W 7309   2.331   9.550  10.279  0.0137  0.0272  0.3230
 3246W        W 7310   8.288   8.843   3.193  0.2440  0.0797  0.0074
 3247W        W 7311   1.760   1.648  10.091  0.0991  0.1672  0.0038
 3248W        W 7312   4.318   4.571   9.732 -0.1971  0.1489  0.1607
 3249W        W 7313   2.410   7.151   0.695  0.1036  0.3966 -0.2697
 3250W        W 7314  10.060   4.598   1.824 -0.1479 -0.0474  0.1101
 3251W        W 7315   3.145   2.544  10.470  0.3117  0.2257  0.0178
 3252W        W 7316   9.813   9.418   1.907  0.2175  0.0716 -0.0602
 3253W        W 7317   4.298   4.221   9.136 -0.1763  0.0616  0.0871
 3254W        W 7318   8.722   3.238  10.205  0.0517 -0.0564 -0.2345
 3255W        W 7319   7.263   8.235   7.169 -0.1941  0.0647 -0.4770
 3256W        W 7320   3.761   7.218   1.731 -0.1809  0.3296  0.1112
 3257W        W 7321   3.477   2.366   0.994 -0.1087 -0.2208  0.2443
 3258W        W 7322  10.469   0.008   8.408 -0.2884 -0.0969  0.1074
 3259W        W 7323   0.156   1.859   1.105  0.1829  0.2150 -0.0014
 3260W        W 7324   5.695   4.107   1.476 -0.1379 -0.2326 -0.0147
 3261W        W 7325   2.794   4.302   2.232  0.0301  0.1509 -0.0789
 3262W        W 7326   0.834   6.965  10.930 -0.1539 -0.0591 -0.0422
 3263W        W 7327   3.208   1.526   0.562 -0.2452 -0.0536  0.1570
 3264W        W 7328   7.292   8.757  10.137 -0.0980  0.1331 -0.2642
 3265W        W 7329   6.089   6.657   3.091  0.1596  0.0738  0.0055
 3266W        W 7330   9.968   2.855  11.137  0.2108  0.1786  0.2199
 3267W        W 7331   8.794   7.889  10.335  0.2550 -0.1871 -0.0205
 3268W        W 7332   9.167  10.048  11.425  0.2140  0.1253 -0.1699
 3269W        W 7333   0.244   7.958   2.864 -0.0213  0.4198  0.1208
 3270W        W 7334   4.995   2.696   2.410 -0.0470  0.0006  0.0696
 3271W        W 7335   8.214   5.784   1.913  0.0318  0.1611 -0.2693
 3272W        W 7336   9.066   4.067   1.849 -0.2532  0.2196 -0.1357
 3273W        W 7337   5.059   9.826   2.070  0.1527  0.2552 -0.2169
 3274W        W 7338   4.071   4.707   8.197 -0.0675 -0.1682 -0.2734
 3275W        W 7339   3.347   7.137  11.357  0.2851 -0.4493 -0.3087
 3276W        W 7340   9.853   9.192   2.655 -0.1532  0.2952  0.3586
 3277W        W 7341  10.482   3.466  11.043  0.0635 -0.3694 -0.1930
 3278W        W 7342   7.121   5.331   1.420 -0.0728 -0.2742 -0.1855
 3279W        W 7343   6.218   8.841   3.477  0.1969 -0.0659 -0.1122
 3280W        W 7344   8.682   8.080   9.295  0.0749 -0.2229  0.2795
 3281W        W 7345   9.023   7.779   0.129 -0.4796 -0.0047  0.0152
 3282W        W 7346   3.589   9.531   8.676  0.0574 -0.0005  0.1392
 3283W        W 7347   6.933   8.725   0.541  0.1076  0.1290  0.0338
 3284W        W 7348   3.057   0.165   1.695  0.1989  0.0258  0.0803
 3285W        W 7349   1.800   6.785   7.874 -0.1026 -0.2555 -0.2003
 3286W        W 7350   7.432   8.756   3.296  0.2926  0.0287 -0.0524
 3287W        W 7351   3.928   4.682   1.366 -0.3982  0.2870 -0.1853
 3288W        W 7352   4.272   4.596   0.907  0.0345  0.1686 -0.0076
 3289W        W 7353   2.868   0.776   9.928  0.0680 -0.1426  0.2697
 3290W        W 7354   2.206   4.219   7.869 -0.0326 -0.4729 -0.2913
 3291W        W 7355   7.162  10.072   2.324  0.0976 -0.0334  0.0838
 3292W        W 7356   3.259   4.246   8.500  0.2296 -0.2505 -0.0224
 3293W        W 7357   0.427   3.024  10.280 -0.0282 -0.1639 -0.0578
 3294W        W 7358   0.121   2.675   8.030  0.2999  0.0192 -0.0271
 3295W        W 7359   9.330   9.592   1.299  0.1117  0.1912  0.0745
 3296W        W 7360   8.483   6.550   2.351  0.1329 -0.0797 -0.3284
 3297W        W 7361   2.200   2.317   9.653  0.1137  0.2980 -0.0511
 3298W        W 7362   0.938   6.598   7.212  0.0094  0.2092 -0.2584
 3299W        W 7363   5.798   4.301   0.545 -0.0188 -0.3252  0.0027
 3300W        W 7364   1.325   9.292   3.404 -0.0403 -0.0355  0.0923
 3301W        W 7365   0.004   4.773   2.506 -0.5190  0.3581  0.0449
 3302W        W 7366   2.711   7.534   9.464  0.2134 -0.3683 -0.1128
 3303W        W 7367   7.688   8.158  11.274  0.0657  0.4558 -0.1856
 3304W        W 7368   8.042   8.975   1.697  0.4125  0.2063  0.4196
 3305W        W 7369   4.887   9.057   3.063  0.2197 -0.2425 -0.0427
 3306W        W 7370   0.549   6.735  10.561 -0.1053 -0.1651 -0.1170
 3307W        W 7371   0.971   8.562   2.488  0.1815  0.2228 -0.0447
 3308W        W 7372   8.839   3.757   9.369 -0.1405  0.1825  0.1454
 3309W        W 7373   6.097   8.663  10.670 -0.0912  0.1771  0.2749
 3310W        W 7374   6.609   9.883   1.996  0.0422 -0.1893 -0.2311
 3311W        W 7375   8.531   6.121   3.202 -0.1639 -0.1643 -0.2818
 3312W        W 7376   6.001   1.480   1.129  0.1020  0.0580 -0.0395
 3313W        W 7377   6.528   7.279   9.365  0.0604  0.2391  0.0294
 3314W        W 7378   5.566   9.932   2.115 -0.1679  0.1375 -0.2090
 3315W        W 7379   6.295   4.323   0.368  0.1949  0.0113  0.1998
 3316W        W 7380   6.427   8.085   0.137  0.3630 -0.0325 -0.2157
 3317W        W 7381   1.490   5.586   8.993 -0.2777 -0.1471 -0.0110
 3318W        W 7382   2.773   0.153   0.229 -0.1630  0.0893  0.0261
 3319W        W 7383   3.879   5.252   2.961 -0.2740 -0.1493  0.1103
 3320W        W 7384   0.118   6.013   9.217  0.1947 -0.0752  0.2994
 3321W        W 7385   5.814   4.638   9.966 -0.4041 -0.2986 -0.2384
 3322W        W 7386   9.187   8.092  10.024  0.0771 -0.0212  0.0421
 3323W        W 7387   2.173   6.040   8.257  0.4938 -0.1509  0.3055
 3324W        W 7388   5.284   6.388  10.423  0.1654  0.2422 -0.1804
 3325W        W 7389  10.316  10.160   2.134 -0.0341 -0.0187  0.2034
 3326W        W 7390   2.463   7.556   1.020  0.2760 -0.2970 -0.0779
 3327W        W 7391  10.057   5.135   2.929 -0.1865  0.0230 -0.1733
 3328W        W 7392   7.100   6.546   9.823 -0.2597 -0.1251  0.2626
 3329W        W 7393   6.195   1.080   8.879  0.3618 -0.0633  0.0681
 3330W        W 7394  10.478  10.087   8.330 -0.0847 -0.2008 -0.0598
 3331W        W 7395   8.235   3.431  10.046 -0.3378  0.2269 -0.0571
 3332W        W 7396   8.298   8.018   8.394 -0.0649  0.2052  0.1874
 3333W        W 7397   1.437   9.363   2.802  0.0527 -0.0911 -0.0442
 3334W        W 7398   2.386   3.451  10.760  0.3663  0.2787  0.1596
 3335W        W 7399   8.920   1.875   0.502  0.0289  0.0004  0.1929
 3336W        W 7400   2.832   0.640   0.533  0.0144  0.2257  0.1642
 3337W        W 7401   8.750   7.661  11.032 -0.1242 -0.0002  0.0731
 3338W        W 7402   7.930   7.090   1.498  0.2424  0.1582  0.0763
 3339W        W 7403   0.143  10.246   2.172  0.2694  0.0384 -0.0279
 3340W        W 7404   5.824   5.821  10.461 -0.3242 -0.1322  0.0077
 3341W        W 7405   4.993   1.089   2.830 -0.1168 -0.1924  0.2567
 3342W        W 7406   3.927   5.244   0.536  0.1241  0.1066  0.1153
 3343W        W 7407   4.606   6.211   3.237  0.2586  0.0508  0.1483
 3344W        W 7408   1.930   7.721   1.000  0.1084 -0.1515 -0.0391
 3345W        W 7409   9.210   4.553   2.238  0.3500 -0.2726  0.1199
 3346W        W 7410   6.585  10.167   8.855 -0.0728  0.1869  0.0396
 3347W        W 7411   6.490   4.964   2.797  0.1713 -0.0212  0.2966
 3348W        W 7412   8.761   6.638   8.638 -0.1857 -0.0998 -0.0357
 3349W        W 7413   1.321   8.285   2.718 -0.1328  0.3781 -0.0524
 3350W        W 7414   6.923   4.357   2.099  0.0108  0.1430 -0.1895
 3351W        W 7415   4.754   9.158   8.253 -0.0699  0.1516  0.0656
 3352W        W 7416   8.916   4.819   7.879 -0.0675 -0.2550 -0.2503
 3353W        W 7417   0.077   8.376   8.588 -0.2426 -0.0469  0.1217
 3354W        W 7418  10.028   1.576   9.706  0.0038  0.0203  0.1317
 3355W        W 7419  10.088  10.545   2.815 -0.1758 -0.1949 -0.1531
 3356W        W 7420   2.853   2.669   0.353  0.3199  0.0314 -0.0703
 3357W        W 7421   0.400   8.311   1.177 -0.0192  0.3244  0.0151
 3358W        W 7422   3.886   5.595   8.892 -0.0114  0.1298  0.0864
 3359W        W 7423   0.653   1.920  11.161 -0.0315 -0.1122  0.1295
 3360W        W 7424   7.386   3.101  10.323  0.0534 -0.3682 -0.1402
 3361W        W 7425   8.464   8.477   8.766  0.1823 -0.0120  0.0240
 3362W        W 7426   0.274   7.517   9.862 -0.1594  0.0439 -0.0103
 3363W        W 7427   2.895   8.971   3.303  0.1184  0.0815  0.1105
 3364W        W 7428   6.239   8.297   2.616 -0.2284 -0.1979 -0.1246
 3365W        W 7429   2.226   3.781   0.343 -0.1930 -0.1115 -0.0621
 3366W        W 7430   0.836   5.749   1.722 -0.1486 -0.2305  0.0602
 3367W        W 7431   3.620   7.367   2.563  0.0643 -0.0698  0.0525
 3368W        W 7432   3.976   2.185   3.963 -0.2990  0.0145 -0.2710
 3369W        W 7433   1.899   5.033   2.875  0.1645 -0.1779  0.0057
 3370W        W 7434   8.673   3.178   0.061  0.0325 -0.0938 -0.0608
 3371W        W 7435   4.227  10.036   3.327  0.0679 -0.2910 -0.3326
 3372W        W 7436   7.988   2.930  10.950  0.0612  0.0166  0.3209
 3373W        W 7437   2.714   7.157  10.738 -0.1676  0.0530  0.1009
 3374W        W 7438   3.849   4.913   2.089 -0.1911  0.2427  0.1974
 3375W        W 7439   9.785   6.713   9.613  0.1062 -0.0331  0.5097
 3376W        W 7440   9.256   5.284   0.061 -0.2347  0.3755  0.3648
 3377W        W 7441   4.940  10.619   3.139 -0.0174  0.2069  0.1838
 3378W        W 7442   9.860   1.095   9.773 -0.2244 -0.1235 -0.2756
 3379W        W 7443   0.020   4.206   8.119 -0.1880  0.0147  0.2436
 3380W        W 7444   5.416   2.721   7.873  0.2583 -0.0232 -0.0301
 3381W        W 7445   6.687   3.451  11.277  0.3759  0.3862 -0.0694
 3382W        W 7446   0.927   0.688   0.409 -0.2193  0.0724 -0.1924
 3383W        W 7447  10.382   8.079   1.381  0.1686 -0.3585  0.4076
 3384W        W 7448   0.343   9.154   3.323  0.3698 -0.1190  0.0667
 3385W        W 7449   6.974   8.945   9.025 -0.2968 -0.0729 -0.1517
 3386W        W 7450   3.906   3.599   2.347  0.0838 -0.0156  0.0180
 3387W        W 7451   9.423  10.519  10.105  0.2563 -0.1090 -0.0283
 3388W        W 7452   7.656   0.725   0.196  0.1840 -0.0850  0.0518
 3389W        W 7453   4.597   1.069  11.491 -0.4075  0.3940  0.3300
 3390W        W 7454   3.357  10.309   8.464  0.2868 -0.1433 -0.1605
 3391W        W 7455   3.099   4.163   0.405 -0.1165 -0.4128 -0.2034
 3392W        W 7456   4.904   9.767   0.052  0.0619 -0.0530  0.0218
 3393W        W 7457   6.625   1.721   0.546  0.1853  0.0539 -0.1815
 3394W        W 7458   2.887   2.775  10.841 -0.3653 -0.1454  0.0908
 3395W        W 7459  10.249   1.471   3.248  0.2121  0.0585 -0.1965
 3396W        W 7460   1.587  10.055  10.874  0.0462  0.0415  0.0148
 3397W        W 7461   9.923   8.806   9.531 -0.2838  0.1087 -0.2233
 3398W        W 7462   0.680   0.812  10.715 -0.0951 -0.1458 -0.0235
 3399W        W 7463   0.288   4.480   9.644  0.3048  0.1594  0.0242
 3400W        W 7464   3.274   6.659   0.880  0.0940  0.3622 -0.1058
 3401W        W 7465   1.395   4.403  11.267 -0.0234 -0.1115 -0.1094
 3402W        W 7466   4.890   0.070   2.273 -0.2148 -0.2053  0.0352
 3403W        W 7467  10.422   3.024   9.505  0.1690 -0.0817 -0.0350
 3404W        W 7468   6.299   7.671   8.991 -0.1505  0.2616 -0.1880
 3405W        W 7469   6.755   9.185   1.545  0.2822  0.0580 -0.0228
 3406W        W 7470   8.768   7.448   2.841 -0.0841  0.3166  0.1129
 3407W        W 7471   1.929   7.808  10.901 -0.1962  0.1565  0.0874
 3408W        W 7472   3.765   5.191  11.023  0.0642  0.0427  0.0461
 3409W        W 7473   0.438   4.357   1.329  0.1166  0.0311 -0.1038
 3410W        W 7474   4.974   7.284   9.187  0.0569  0.0304 -0.2058
 3411W        W 7475   9.002   4.412  10.588  0.0180 -0.0311 -0.2913
 3412W        W 7476   0.594  10.425   0.514 -0.0846  0.0048  0.3902
 3413W        W 7477   9.863   2.569   2.247 -0.1960 -0.0619 -0.0740
 3414W        W 7478   4.604   6.287   0.817  0.0834 -0.4122  0.2085
 3415W        W 7479   9.492   8.924   3.212  0.2392  0.2811  0.2198
 3416W        W 7480   9.092   1.320   2.107 -0.4077  0.0031  0.2004
 3417W        W 7481   1.619   9.877   9.793  0.2241 -0.2130  0.0915
 3418W        W 7482  10.105   9.911   1.213 -0.1805 -0.0319  0.0229
 3419W        W 7483   8.848   8.367   8.506  0.1700 -0.0569 -0.0147
 3420W        W 7484   8.873   5.257   8.938  0.1419 -0.0206  0.2824
 3421W        W 7485   5.845   9.917  10.059 -0.1098  0.1309 -0.2308
 3422W        W 7486   0.267   3.257  11.287 -0.0476  0.0186 -0.0732
 3423W        W 7487   9.540   1.470   2.263  0.1182 -0.3577  0.0473
 3424W        W 7488   8.252   4.824  10.896  0.2075  0.1983 -0.1749
 3425W        W 7489   9.084   9.551   2.188  0.0503 -0.1362  0.0530
 3426W        W 7490   1.584   7.724   1.452  0.2615 -0.0317 -0.3526
 3427W        W 7491   6.420   2.635  10.940 -0.1636  0.1890 -0.1663
 3428W        W 7492   9.798  10.310   1.249 -0.1995  0.0287 -0.2240
 3429W        W 7493   7.462   6.372   1.469  0.1647  0.0899 -0.1750
 3430W        W 7494   2.624   9.569   7.604  0.2383  0.0734  0.1055
 3431W        W 7495   8.907   6.310   1.548  0.0253  0.0866  0.1107
 3432W        W 7496   5.348   4.133   8.058  0.0355  0.0798  0.1385
 3433W        W 7497   3.813   9.366  11.025 -0.1461  0.1939  0.1470
 3434W        W 7498   0.629   2.916  10.951 -0.0921  0.0903  0.3206
 3435W        W 7499   5.629   4.714  10.502 -0.1460 -0.2513 -0.0669
 3436W        W 7500   8.995   2.093   8.683 -0.0933 -0.2068 -0.2780
 3437W        W 7501   0.428   6.977   8.257  0.0176  0.2079 -0.1456
 3438W        W 7502   9.751   4.588   0.052  0.4687 -0.1133 -0.0266
 3439W        W 7503   6.241   0.775   2.128  0.1746 -0.2393  0.0615
 3440W        W 7504   8.498   0.825   2.184 -0.0067 -0.0764 -0.1624
 3441W        W 7505   6.631   3.281  10.352 -0.0873  0.2878  0.1545
 3442W        W 7506   0.246   8.249   0.232  0.1200  0.0978 -0.1217
 3443W        W 7507   3.463   2.885   7.658 -0.1170  0.1983  0.0809
 3444W        W 7508   9.158   0.734   2.869  0.3543 -0.0625 -0.0387
 3445W        W 7509   0.582   3.670   2.991 -0.0116 -0.1130 -0.0101
 3446W        W 7510   2.114   1.901   0.785 -0.0634  0.1345 -0.2312
 3447W        W 7511   1.009   9.137   2.606 -0.3339 -0.0447  0.0899
 3448W        W 7512   9.036   7.262   8.732 -0.0082 -0.1501  0.3066
 3449W        W 7513   5.623   1.733   2.534  0.1213  0.0971  0.1098
 3450W        W 7514   4.038   5.716  10.248 -0.2505  0.0063  0.1284
 3451W        W 7515   7.517   5.885   3.393 -0.4949 -0.0989 -0.0456
 3452W        W 7516   6.880   4.281  10.760 -0.0136  0.1972 -0.3473
 3453W        W 7517   0.098   7.380   8.140  0.1878 -0.0548  0.3416
 3454W        W 7518   2.984   6.516   4.002 -0.0774 -0.0202 -0.4112
 3455W        W 7519   6.211   5.852   1.184  0.1628 -0.0846  0.0870
 3456W        W 7520   5.886   2.158   9.167  0.4464  0.0364  0.1855
 3457W        W 7521   9.383   7.923   0.540  0.1271 -0.1589  0.2419
 3458W        W 7522   4.342   1.913   1.345  0.1427  0.0869  0.1805
 3459W        W 7523  10.211   0.084  10.351  0.1257  0.1028 -0.1607
 3460W        W 7524   4.465   4.689   9.244  0.2445 -0.0171  0.1375
 3461W        W 7525   9.188   9.965   4.313  0.1012 -0.0037 -0.1890
 3462W        W 7526   3.294   3.517  10.515 -0.0796  0.1672 -0.0330
 3463W        W 7527  10.264   7.729   0.838  0.1872 -0.1387 -0.2101
 3464W        W 7528   6.050   0.648   1.666  0.2235 -0.3759  0.2097
 3465W        W 7529   5.781   1.101   8.589 -0.4272  0.1851  0.1082
 3466W        W 7530   4.409   9.021   9.181  0.1929 -0.1121  0.0635
 3467W        W 7531   2.546   3.922   8.185 -0.3361 -0.0767 -0.1810
 3468W        W 7532   4.096   0.001   2.680  0.3287  0.1466  0.0577
 3469W        W 7533   3.672   2.626  11.393  0.3194 -0.1562  0.3030
 3470W        W 7534   6.754   2.318   1.132  0.3171 -0.1421 -0.1315
 3471W        W 7535   1.507   0.633   0.223  0.0152 -0.1535  0.0759
 3472W        W 7536   5.270   3.090   2.225 -0.2456  0.2612  0.2186
 3473W        W 7537   5.952   9.861   0.837  0.0709  0.0995 -0.3742
 3474W        W 7538   8.753   1.062   1.739 -0.0277 -0.2478  0.2581
 3475W        W 7539   4.344   4.789   8.655  0.2254 -0.0790  0.0182
 3476W        W 7540   7.093   9.672  10.493 -0.1307  0.0176  0.1346
 3477W        W 7541   5.602  10.248  10.335  0.0027  0.0405  0.0054
 3478W        W 7542   4.691   2.696   0.596  0.1769  0.2135 -0.2534
 3479W        W 7543   3.612   2.664   0.514 -0.1417 -0.0364  0.0743
 3480W        W 7544   1.957  10.094   8.520 -0.1711  0.0733  0.1377
 3481W        W 7545   6.819   6.155   8.453 -0.0449 -0.0111  0.0758
 3482W        W 7546   1.282   7.722   1.891  0.2237  0.0730  0.3269
 3483W        W 7547  10.531   1.174   3.466 -0.0907  0.3192  0.0405
 3484W        W 7548   3.497   9.321   0.175 -0.2744 -0.1212  0.2981
 3485W        W 7549   9.113   3.948   3.506 -0.1538  0.0175  0.0755
 3486W        W 7550   8.719   9.018   1.105 -0.2458  0.1978 -0.1026
 3487W        W 7551   2.034   3.507   4.040  0.3554  0.2270  0.2840
 3488W        W 7552   2.607   6.664   7.664 -0.1526  0.2399  0.1947
 3489W        W 7553   6.249   3.525   7.920  0.0281 -0.0756  0.1656
 3490W        W 7554   1.438   7.083   8.893  0.1144 -0.1695 -0.0124
 3491W        W 7555   0.302   0.641   9.159  0.1106 -0.2151  0.2981
 3492W        W 7556   0.269   6.163   0.236  0.0806  0.0202  0.0770
 3493W        W 7557   9.488   5.984  10.487 -0.0346  0.2997  0.2247
 3494W        W 7558   9.239   6.832   8.774 -0.1107  0.3829  0.0306
 3495W        W 7559   2.433   1.199   2.065  0.3255 -0.2189  0.2237
 3496W        W 7560   7.139   7.886   9.532 -0.0321  0.0186 -0.1389
 3497W        W 7561   3.334   5.246   1.742 -0.0660 -0.2310  0.0329
 3498W        W 7562   6.809   8.122   7.786 -0.2598 -0.0172 -0.1615
 3499W        W 7563   5.656   1.513   1.491 -0.1706  0.2638  0.2567
 3500W        W 7564   5.696   1.343   3.161 -0.1459  0.4621 -0.0019
 3501W        W 7565   1.076   3.866   1.978 -0.1025 -0.1798  0.2424
 3502W        W 7566   4.065   0.863   1.462  0.1488  0.0357 -0.1657
 3503W        W 7567   2.631   2.101   9.556  0.0123 -0.1828  0.0530
 3504W        W 7568   4.241  10.230   8.967  0.0301 -0.2950 -0.0897
 3505W        W 7569   4.295   8.654   2.506  0.0830  0.1880  0.3027
 3506W        W 7570   8.249   7.406   2.919  0.2177  0.1476 -0.0557
 3507W        W 7571   3.209   2.233   0.595  0.1071  0.5757 -0.0347
 3508W        W 7572   6.327   4.770   3.342 -0.1772 -0.3846 -0.2573
 3509W        W 7573   6.514   9.734   3.450  0.2561  0.0030 -0.0725
 3510W        W 7574   0.824   8.587   1.298  0.1080  0.0872 -0.0855
 3511W        W 7575   8.721   9.752  11.375  0.0024 -0.2474 -0.1183
 3512W        W 7576   3.388   6.418   1.332 -0.3504  0.2872  0.0698
 3513W        W 7577   4.751   5.240  10.956  0.0376 -0.2863  0.4153
 3514W        W 7578   1.039   6.628   2.630 -0.1978  0.3677  0.3025
 3515W        W 7579   8.441   7.353   2.478  0.1208 -0.3779  0.1648
 3516W        W 7580   1.063   5.386   2.081  0.0962 -0.0479 -0.2705
 3517W        W 7581   0.764  10.179   9.401 -0.0329 -0.0071  0.3993
 3518W        W 7582   7.329   4.893   1.579  0.2836 -0.0361 -0.0734
 3519W        W 7583   8.831   6.219   9.803  0.0501 -0.2370  0.1757
 3520W        W 7584   2.506   3.854   1.847 -0.0950  0.1327 -0.1904
 3521W        W 7585   8.985  10.153   8.913 -0.0485 -0.3980  0.1700
 3522W        W 7586   8.807   6.346   8.163  0.2026 -0.1537  0.1590
 3523W        W 7587   4.216   5.771   9.682  0.4239  0.1912 -0.2498
 3524W        W 7588   0.890   3.148   9.496 -0.3332  0.0401  0.0235
 3525W        W 7589   5.553   2.974   1.797  0.0652  0.0530  0.0626
 3526W        W 7590   2.177   8.943   0.778 -0.2767  0.2253 -0.1548
 3527W        W 7591   0.583   8.760   9.419  0.0108 -0.1033  0.1288
 3528W        W 7592   6.517   2.131   0.278 -0.1360  0.1534 -0.0565
 3529W        W 7593   1.665   2.053  10.481 -0.0529 -0.1310 -0.0183
 3530W        W 7594   3.069  10.347   0.850 -0.0941  0.1807 -0.0878
 3531W        W 7595   3.590   4.312   3.825 -0.3183  0.0676  0.1273
 3532W        W 7596   1.300   1.472  10.049 -0.2821  0.0815 -0.0663
 3533W        W 7597   1.804   5.911   8.615 -0.0238 -0.0782  0.0576
 3534W        W 7598   0.756   4.318   1.728 -0.0344  0.2212 -0.1115
 3535W        W 7599   8.371   0.689   1.733  0.0642  0.1477 -0.1000
 3536W        W 7600   8.529   9.296   0.516  0.1127 -0.1436 -0.0001
 3537W        W 7601  10.073   0.322   9.240  0.0488 -0.0754  0.0435
 3538W        W 7602   2.235   4.888  11.029 -0.1219  0.2123  0.3381
 3539W        W 7603   2.907   5.032   0.602 -0.0557 -0.1866 -0.2764
 3540W        W 7604   9.987   1.447   1.659  0.2168 -0.2165  0.2120
 3541W        W 7605  10.361  10.019   8.891 -0.0664 -0.0536 -0.0388
 3542W        W 7606   0.329   1.592   2.366  0.0194  0.0939  0.2179
 3543W        W 7607   1.842   4.562   7.922 -0.1383 -0.1949  0.3056
 3544W        W 7608   4.771   1.578   1.957 -0.1402 -0.1260  0.1410
 3545W        W 7609   1.945  10.114   2.781  0.0579  0.2326  0.2530
 3546W        W 7610   4.474   9.311   8.744 -0.0923 -0.2259 -0.1556
 3547W        W 7611   4.090   5.758   3.791 -0.0178 -0.2710  0.1165
 3548W        W 7612   1.004   6.954  10.460  0.3040  0.1117 -0.2814
 3549W        W 7613   4.071   6.683   7.668  0.0431 -0.1489  0.0625
 3550W        W 7614   0.021   9.318   9.111  0.3120 -0.1519 -0.0521
 3551W        W 7615  10.028   1.228  11.203 -0.0715  0.1465  0.2937
 3552W        W 7616   0.634   0.799  11.246  0.0845  0.0463  0.1113
 3553W        W 7617   9.915   3.222  11.450  0.0728  0.4155 -0.1290
 3554W        W 7618   5.800   8.988  10.449 -0.2312  0.2081  0.0417
 3555W        W 7619  10.031   5.690   2.774  0.0619 -0.0743  0.0321
 3556W        W 7620   3.631   6.274   7.799  0.0961 -0.1614  0.1943
 3557W        W 7621   8.557  10.342   8.304  0.2878  0.1553  0.1023
 3558W        W 7622   9.545   4.918   8.633 -0.1558  0.0040  0.1803
 3559W        W 7623  10.413   7.040   8.909  0.0232  0.1078  0.0130
 3560W        W 7624   3.345   8.602  11.015 -0.0207 -0.3699 -0.0393
 3561W        W 7625   7.974   2.098   0.925  0.0261  0.0339  0.1724
 3562W        W 7626   2.673   6.702   9.954 -0.0008  0.0659  0.0031
 3563W        W 7627   5.797   9.630   2.630  0.0342 -0.1686 -0.0153
 3564W        W 7628  10.038   0.598   1.484 -0.1051 -0.1629  0.1450
 3565W        W 7629   3.437   2.074  10.578 -0.1611 -0.0637 -0.2096
 3566W        W 7630   1.381   6.460   1.616  0.0201  0.1313 -0.2380
 3567W        W 7631   2.288   6.396   9.069  0.2564 -0.3757  0.0717
 3568W        W 7632   4.754  10.607   0.460  0.1536 -0.1594  0.1047
 3569W        W 7633  10.131  10.185   9.829  0.4053  0.3638 -0.2193
 3570W        W 7634   3.068   5.473   0.313 -0.1468  0.2690 -0.0659
 3571W        W 7635   6.249   9.665   9.143  0.0120 -0.0140 -0.0698
 3572W        W 7636   1.941   5.851   9.815  0.1052 -0.1132  0.2503
 3573W        W 7637   4.858   7.024   7.958  0.1302 -0.3197  0.0349
 3574W        W 7638   7.486   1.843  10.932 -0.2488 -0.2856  0.0832
 3575W        W 7639   4.880   9.354   3.569 -0.0467 -0.1809  0.0625
 3576W        W 7640   4.663   9.808   0.769 -0.1148  0.0684  0.1776
 3577W        W 7641   8.032   9.478  10.997  0.0446 -0.2863 -0.3021
 3578W        W 7642  10.188   9.713  11.475  0.0560 -0.3132 -0.3668
 3579W        W 7643   3.683   6.043   0.297  0.0565 -0.1928 -0.2424
 3580W        W 7644   3.000   1.997  10.327  0.0857 -0.1301  0.1986
 3581W        W 7645   9.570   8.453   8.166 -0.0582 -0.0012 -0.1133
 3582W        W 7646   1.982   6.858   0.660  0.0405  0.3011 -0.2344
 3583W        W 7647   9.576   2.437   0.913  0.1247  0.3161 -0.0619
 3584W        W 7648   2.720   7.064   8.022  0.1009 -0.3134  0.0740
 3585W        W 7649   7.826   6.983  11.286  0.3575  0.1210  0.1004
 3586W        W 7650   9.392   0.557   7.587  0.0529 -0.3579  0.1439
 3587W        W 7651   5.347   3.685  11.025 -0.1972 -0.2195  0.0454
 3588W        W 7652   1.909   0.342   1.618 -0.1285 -0.0047 -0.0915
 3589W        W 7653   9.022   7.456   8.274  0.2136  0.1839  0.2375
 3590W        W 7654   3.648   0.836   1.087  0.0424  0.2030  0.2233
 3591W        W 7655   5.655   7.935   8.444 -0.0491  0.0746 -0.0410
 3592W        W 7656   2.393   3.483   8.498 -0.0550 -0.4641  0.0130
 3593W        W 7657   6.414   8.156   9.789  0.2382  0.1525  0.2438
 3594W        W 7658   9.177   3.371   2.272  0.0455  0.0808  0.4128
 3595W        W 7659   2.399   3.952   2.505 -0.2030 -0.0826  0.0417
 3596W        W 7660   3.436   8.942   8.593 -0.0110 -0.0743 -0.1092
 3597W        W 7661   2.903   8.051   8.556  0.1647 -0.0977  0.0561
 3598W        W 7662   7.518   3.536   1.234 -0.0643 -0.0940 -0.2234
 3599W        W 7663   1.086  10.584  11.270  0.3732  0.2739  0.0526
 3600W        W 7664   4.423   3.466   0.158  0.0139 -0.1784  0.1354
 3601W        W 7665   9.388   1.587   0.575  0.2259 -0.1936 -0.2450
 3602W        W 7666   6.207   0.979   0.813 -0.0011  0.0626  0.0698
 3603W        W 7667   7.210   2.646   9.590 -0.0733 -0.2510  0.0700
 3604W        W 7668   3.758   4.762  10.005 -0.2014 -0.0134 -0.4534
 3605W        W 7669   2.203   0.512   9.361  0.0046 -0.1204 -0.0434
 3606W        W 7670   6.104   5.237  11.137 -0.0284 -0.0468 -0.2169
 3607W        W 7671   8.249   8.570  10.549  0.1412  0.1566  0.0239
 3608W        W 7672   7.599   4.006   1.520  0.0316 -0.2126 -0.1446
 3609W        W 7673  10.081  10.534   9.404 -0.1919  0.4922  0.0911
 3610W        W 7674   7.536   6.821   9.884 -0.2540  0.1304  0.0060
 3611W        W 7675   2.788   6.807   0.865  0.1540  0.0685 -0.2059
 3612W        W 7676   2.634   9.385  10.666  0.0321 -0.1299 -0.0025
 3613W        W 7677   7.095  10.596   0.234  0.0345  0.0680 -0.3036
 3614W        W 7678   9.040   0.083   3.386 -0.2326 -0.0970 -0.2075
 3615W        W 7679   3.839   3.064   2.976  0.3703 -0.2258  0.4196
 3616W        W 7680   2.380   1.265   9.368 -0.1421  0.0755  0.0185
 3617W        W 7681   9.631   1.425  10.973 -0.2379 -0.0986 -0.0001
 3618W        W 7682   6.790   7.398   1.965  0.0577  0.1881  0.1255
 3619W        W 7683   7.226   7.219  10.451  0.0001  0.0510  0.1580
 3620W        W 7684   6.801   5.042   0.854  0.1470 -0.3538  0.2301
 3621W        W 7685   6.235   3.517   0.067  0.2768 -0.0284  0.1447
 3622W        W 7686   1.470   2.179   1.604 -0.1031 -0.2808  0.4089
 3623W        W 7687   9.994   3.409   2.245  0.0093 -0.3967 -0.0890
 3624W        W 7688   9.756   4.654   3.054  0.3253 -0.0852 -0.0543
 3625W        W 7689   5.234   8.589   0.925  0.0941  0.2037  0.0635
 3626W        W 7690   9.922   8.380   9.230 -0.0028  0.0635 -0.0612
 3627W        W 7691   5.641   9.193   2.941  0.0632 -0.0041  0.5404
 3628W        W 7692   8.391   2.071   2.648  0.0049  0.0431 -0.1784
 3629W        W 7693   5.905   2.152   2.421  0.0581 -0.2287  0.3271
 3630W        W 7694   3.524  10.424   9.520  0.2635 -0.0301  0.2547
 3631W        W 7695   5.334   9.018  10.658 -0.0931  0.2531  0.1587
 3632W        W 7696   7.196   8.034  11.403  0.0084 -0.0421 -0.0158
 3633W        W 7697   2.460   7.578   9.949 -0.3175  0.0629  0.3850
 3634W        W 7698   8.180   5.724  10.875  0.2507 -0.0137 -0.0768
 3635W        W 7699   7.563   5.730   2.866  0.3483  0.2008  0.2449
 3636W        W 7700   3.666   2.576   1.582 -0.2512 -0.4495  0.3974
 3637W        W 7701   0.263   9.998  11.078 -0.1074  0.0023 -0.0261
 3638W        W 7702   6.121   4.771   1.348  0.4041 -0.1522 -0.0875
 3639W        W 7703   2.816   8.581   0.505  0.0922 -0.3381 -0.1189
 3640W        W 7704   1.152   2.544   8.700  0.0937 -0.0832  0.2410
 3641W        W 7705   4.472   7.528  10.134  0.0563 -0.4590  0.1454
 3642W        W 7706   2.181   1.324   0.788 -0.0916 -0.0014  0.2668
 3643W        W 7707   4.260   7.820   2.988  0.3339 -0.0776  0.2574
 3644W        W 7708   1.120   8.127   9.791 -0.3284 -0.1300  0.0309
 3645W        W 7709   9.230   2.634   8.662 -0.0951  0.0982 -0.0672
 3646W        W 7710   4.647   7.314  10.983 -0.0956  0.1743  0.0480
 3647W        W 7711   5.549   1.694   9.210 -0.1202 -0.0197 -0.0219
 3648W        W 7712   1.508   1.518  10.558  0.0687 -0.0655 -0.3180
 3649W        W 7713   8.029   8.763   8.754 -0.1029  0.1478  0.0366
 3650W        W 7714   6.637   0.974   9.086 -0.0518  0.3671  0.1302
 3651W        W 7715  10.498  10.550  10.739 -0.3569 -0.0201 -0.3347
 3652W        W 7716   8.332   7.672   2.089 -0.1639 -0.0311  0.0279
 3653W        W 7717   4.686   2.099   0.047 -0.0425  0.0045 -0.0654
 3654W        W 7718   9.600   8.275   2.371  0.2394 -0.1608  0.0704
 3655W        W 7719   2.366   0.811   0.363 -0.0523  0.4182 -0.2782
 3656W        W 7720   7.922   4.980  11.379  0.0740 -0.1544  0.1591
 3657W        W 7721   1.610   8.015   8.374 -0.2605 -0.1834  0.3690
 3658W        W 7722   1.248   8.707  10.574  0.1025 -0.3463 -0.1396
 3659W        W 7723   9.479   4.173   3.222 -0.1267 -0.1724  0.2427
 3660W        W 7724   6.326   9.079   1.371 -0.3589 -0.3984 -0.0586
 3661W        W 7725   6.277   4.301   3.241  0.0891  0.0343 -0.0862
 3662W        W 7726   8.897   9.315  10.209  0.1281  0.0826  0.0121
 3663W        W 7727   6.677   7.509  10.354 -0.0891 -0.2538  0.2452
 3664W        W 7728   1.054   4.834   0.972 -0.0719 -0.0296 -0.1600
 3665W        W 7729   0.522   0.316  11.151  0.2468  0.2810 -0.2771
 3666W        W 7730   1.365   0.262   2.407 -0.2843  0.0903  0.2578
 3667W        W 7731   1.361   4.407   9.726 -0.2849 -0.1220 -0.2620
 3668W        W 7732   6.009   2.688   8.381 -0.1919  0.2178 -0.0744
 3669W        W 7733   6.050   1.135   3.878 -0.0476  0.0259  0.1188
 3670W        W 7734   1.998   6.414   0.439 -0.0780 -0.0501  0.1188
 3671W        W 7735  10.022   0.778   9.426  0.2941  0.1045 -0.0517
 3672W        W 7736   4.922   0.835   0.386 -0.2785 -0.2422  0.1607
 3673W        W 7737   3.023   1.631  11.156 -0.0403 -0.0970 -0.1690
 3674W        W 7738   1.797   8.913   2.108 -0.1054  0.2712 -0.0830
 3675W        W 7739   8.165   6.956  10.115  0.1797  0.2630 -0.0260
 3676W        W 7740   8.812  10.138   2.306 -0.2075  0.3419 -0.1614
 3677W        W 7741  10.616   5.141  10.124 -0.0454  0.1900  0.1878
 3678W        W 7742   5.457   7.817   7.660 -0.0414  0.0461 -0.2601
 3679W        W 7743   5.773   5.670   3.346 -0.2133 -0.0427 -0.1280
 3680W        W 7744   5.063   6.525   1.726 -0.1973  0.1760 -0.0824
 3681W        W 7745   0.509  10.540  10.342 -0.0141 -0.4005 -0.0450
 3682W        W 7746   4.752   3.271  10.214  0.1846 -0.1732 -0.2374
 3683W        W 7747   1.517   1.350   8.749  0.0049 -0.1828 -0.2745
 3684W        W 7748   5.333   0.601   2.384 -0.1270 -0.1909 -0.3004
 3685W        W 7749   7.967   9.653   2.112  0.1144  0.1789  0.0393
 3686W        W 7750   3.298   9.713   0.799 -0.1076  0.0040 -0.4496
 3687W        W 7751   9.596   2.555   1.796  0.1171  0.1667  0.1789
 3688W        W 7752   1.747   4.043  11.148 -0.0134  0.0705 -0.1923
 3689W        W 7753   7.023   3.887   1.618 -0.1838  0.1389 -0.0935
 3690W        W 7754   2.069   5.426   0.230  0.0077 -0.0463 -0.0410
 3691W        W 7755   4.964   3.373   3.612  0.2079 -0.3014  0.0271
 3692W        W 7756   1.115   1.867   2.398 -0.0186  0.0668  0.1598
 3693W        W 7757   1.128   1.099   4.394  0.3070  0.1329  0.1207
 3694W        W 7758   5.289   4.412   1.506  0.0292  0.2639 -0.1517
 3695W        W 7759  10.293   4.637  10.919 -0.0367 -0.1776 -0.1011
 3696W        W 7760   4.274   5.040  10.812  0.1221 -0.1427 -0.1075
 3697W        W 7761   2.369   7.324   1.756 -0.2212 -0.0933  0.0703
 3698W        W 7762   9.060   8.224   3.059  0.4605  0.1020 -0.1088
 3699W        W 7763   3.004   8.822   9.150 -0.0844  0.0561  0.1640
 3700W        W 7764   6.210  10.276  11.218  0.1105 -0.0611  0.1300
 3701W        W 7765  10.024   0.829   0.965 -0.4752 -0.0534  0.0325
 3702W        W 7766   2.577   1.063   2.749  0.1582 -0.1920 -0.5162
 3703W        W 7767   2.574   4.394   4.365 -0.0393 -0.1199  0.0477
 3704W        W 7768   6.785   1.307   8.727 -0.0584  0.2041 -0.0855
 3705W        W 7769   6.175   6.693  10.293 -0.1687 -0.1972 -0.0595
 3706W        W 7770   3.798   0.538   0.721 -0.0290 -0.2867 -0.0476
 3707W        W 7771   4.891   3.510   9.239  0.1948 -0.1046  0.0712
 3708W        W 7772   9.401   8.812   0.640 -0.0070 -0.5410 -0.3959
 3709W        W 7773   5.336   0.800  11.178 -0.1682  0.3037  0.1652
 3710W        W 7774   1.177   4.726  10.149  0.0803  0.0874  0.1416
 3711W        W 7775   5.364   5.653  10.722 -0.1077  0.0094 -0.0244
 3712W        W 7776   9.675   9.419   9.989  0.2914  0.1545 -0.1854
 3713W        W 7777   1.931   0.646  10.459  0.1534 -0.3631 -0.0648
 3714W        W 7778   9.962   6.216   9.476 -0.0702  0.0145 -0.2472
 3715W        W 7779   2.044   3.204   3.572 -0.1961 -0.0555 -0.1280
 3716W        W 7780   8.285   0.570   9.152 -0.0568  0.0890  0.3810
 3717W        W 7781   5.662   2.401   1.100  0.0084  0.0918  0.1982
 3718W        W 7782   1.855   7.379   9.044  0.0490  0.2572 -0.0829
 3719W        W 7783   5.414   5.382   1.043  0.0728 -0.1137  0.2435
 3720W        W 7784   7.549   0.203   0.387 -0.2460 -0.2319  0.0174
 3721W        W 7785   0.183   7.867   1.407 -0.0843  0.2577 -0.0727
 3722W        W 7786   6.210   1.578   3.746  0.0164  0.0046 -0.1724
 3723W        W 7787   0.559   5.530   1.373  0.2252  0.3119 -0.2305
 3724W        W 7788   0.504   9.658   9.204  0.0987 -0.1816  0.2372
 3725W        W 7789   0.046   1.988   2.567  0.2366  0.0298 -0.3637
 3726W        W 7790   2.357   1.370   0.278 -0.1753  0.1613  0.0644
 3727W        W 7791   9.232   6.690   7.860  0.2213 -0.1349 -0.3145
 3728W        W 7792   7.509   7.693   3.424  0.1726  0.0477  0.0872
 3729W        W 7793   1.669   4.439   0.660  0.0669 -0.3745  0.0921
 3730W        W 7794   0.524   4.207   8.292 -0.1303  0.3129  0.1313
 3731W        W 7795   7.469   6.290  10.119  0.1407  0.0536 -0.2168
 3732W        W 7796   9.173   3.879  10.670 -0.0857  0.2349 -0.1272
 3733W        W 7797   0.739   2.581   0.959 -0.0897 -0.1231  0.0413
 3734W        W 7798   9.582   4.137   8.871  0.0912  0.1787 -0.1532
 3735W        W 7799   7.577   3.006   8.448 -0.3681 -0.0246 -0.0801
 3736W        W 7800   7.806   1.061   0.559  0.4053 -0.0169  0.0447
 3737W        W 7801   3.066   7.544   8.443 -0.2932  0.0060  0.2917
 3738W        W 7802   3.232   9.824   8.504 -0.0781 -0.2990  0.2618
 3739W        W 7803   2.192   5.244   9.740  0.2678  0.0994 -0.3613
 3740W        W 7804   9.880   0.024   0.974  0.1494  0.1605  0.1027
 3741W        W 7805   6.524   5.034  10.787  0.3028 -0.2649 -0.0822
 3742W        W 7806   1.489   3.803   8.472  0.0559 -0.1332 -0.0563
 3743W        W 7807   4.588   4.615  10.221  0.5419  0.0878  0.0509
 3744W        W 7808   8.339   6.813  11.131  0.2964  0.3504  0.0294
 3745W        W 7809   9.282   8.553   3.408  0.3517 -0.0375  0.3193
 3746W        W 7810   6.193   8.982  11.259 -0.2366 -0.1063  0.0369
 3747W        W 7811   5.917   1.688  11.210 -0.1701  0.2203 -0.3982
 3748W        W 7812   1.241   5.028   2.877 -0.0659  0.1083 -0.1930
 3749W        W 7813   4.083   3.774   8.331  0.3170 -0.0970  0.0755
 3750W        W 7814   0.154   0.283   2.770  0.0425 -0.0443 -0.0921
 3751W        W 7815   5.286   7.854   9.952  0.1360  0.1067  0.0796
 3752W        W 7816   8.033   1.928   8.421  0.2576  0.0578 -0.1997
 3753W        W 7817   3.390   3.726   3.184  0.1818 -0.0663  0.0216
 3754W        W 7818   3.957   5.141  11.490 -0.2060  0.1748 -0.0854
 3755W        W 7819   5.573   2.192   3.398 -0.2095 -0.2719  0.1241
 3756W        W 7820   4.804  10.459   4.435  0.2031  0.1392  0.2223
 3757W        W 7821   8.513   4.190   0.413  0.0853  0.1998 -0.3724
 3758W        W 7822   3.845   6.130   1.513  0.0505  0.2197  0.2165
 3759W        W 7823   3.454   2.374   2.689  0.0310 -0.5039  0.1668
 3760W        W 7824   4.598   5.766   3.479 -0.0624 -0.0785 -0.2105
 3761W        W 7825   5.859   5.418   8.193 -0.0036  0.2794  0.1784
 3762W        W 7826   4.519   9.398   1.511 -0.1020  0.0276 -0.1374
 3763W        W 7827   8.082   5.427  10.241  0.0432  0.0011 -0.3011
 3764W        W 7828   3.187   4.218   1.885  0.5107  0.0350 -0.3628
 3765W        W 7829   5.237   9.443   8.233 -0.3507  0.0621 -0.2592
 3766W        W 7830   5.362   8.197   9.552  0.2932 -0.0007  0.2118
 3767W        W 7831   7.920   3.915  11.176 -0.2132 -0.0873 -0.1554
 3768W        W 7832   2.034   3.666  10.985  0.1491 -0.2092  0.0384
 3769W        W 7833   4.319   6.688  10.182  0.1758  0.1831  0.0669
 3770W        W 7834   7.191   5.058   9.102  0.3464 -0.2124  0.2777
 3771W        W 7835   4.396   9.974  10.744 -0.1748 -0.0604 -0.0278
 3772W        W 7836   1.890  10.341   7.417 -0.1684  0.0013 -0.0819
 3773W        W 7837   1.492   1.944  11.492 -0.1489  0.0323 -0.1946
 3774W        W 7838   0.809   9.695   3.466 -0.1102 -0.2927  0.2102
 3775W        W 7839   1.820   9.319   1.136 -0.0871 -0.0555  0.0268
 3776W        W 7840   8.038   1.158  10.511  0.0190 -0.2029  0.0722
 3777W        W 7841   1.383   3.082  10.393 -0.2604  0.4594  0.1581
 3778W        W 7842   7.858   8.289   0.205  0.0622 -0.1582  0.0342
 3779W        W 7843   4.947   9.561   4.492 -0.3223  0.3461  0.0318
 3780W        W 7844  10.298   3.048  10.802 -0.0974 -0.1799 -0.0959
 3781W        W 7845   1.588   3.516   8.057  0.0904 -0.2269 -0.1486
 3782W        W 7846   2.442   3.607   1.379  0.2759 -0.1555  0.0660
 3783W        W 7847   9.505   4.511   0.517 -0.0835  0.0723 -0.2429
 3784W        W 7848   8.481   6.008   1.477 -0.1063 -0.1232 -0.2481
 3785W        W 7849   7.395   4.692  11.315  0.1036  0.0003  0.0125
 3786W        W 7850   2.906  10.650   8.457 -0.0846  0.0628 -0.1177
 3787W        W 7851   3.002   0.917   3.135  0.2176  0.0188 -0.1763
 3788W        W 7852   8.161   6.407   7.664  0.0038  0.0083 -0.2116
 3789W        W 7853   8.949   3.580   2.646  0.0813 -0.3934 -0.1260
 3790W        W 7854   0.514   4.524   2.985  0.2415  0.0942  0.0142
 3791W        W 7855   1.547   6.569  10.541 -0.1434 -0.1594 -0.2141
 3792W        W 7856   4.922   6.500   0.461 -0.1687  0.2238 -0.0274
 3793W        W 7857   7.820   6.080  10.804  0.0442 -0.1490  0.2690
 3794W        W 7858   6.813   2.258   9.699  0.1351  0.0259  0.1309
 3795W        W 7859   9.461   8.967   3.685 -0.0175  0.0051 -0.1636
 3796W        W 7860   5.706   6.509  10.822  0.1132 -0.3489 -0.1910
 3797W        W 7861   3.393   8.075   3.304 -0.0742  0.1381 -0.1842
 3798W        W 7862   4.063   6.900   3.084  0.0469  0.0550 -0.0148
 3799W        W 7863   3.322   6.649   2.262 -0.1875 -0.3466 -0.1982
 3800W        W 7864  10.192  10.624   8.861 -0.1549 -0.0103  0.1199
 3801W        W 7865   5.966   4.814   8.983 -0.0992  0.0339 -0.3289
 3802W        W 7866   5.595  10.603  10.680  0.1106  0.4987  0.0745
 3803W        W 7867   9.705   5.891   1.630 -0.2111  0.0903  0.2960
 3804W        W 7868   3.636   5.894   7.396 -0.0688 -0.2143 -0.2134
 3805W        W 7869   4.739   2.094   1.874 -0.1834  0.0547 -0.1111
 3806W        W 7870   6.125   4.664   2.461  0.1295 -0.1164  0.1414
 3807W        W 7871   6.482   9.073   4.250 -0.1218 -0.1540  0.3040
 3808W        W 7872  10.637   0.229   9.404  0.3997  0.2352  0.2302
 3809W        W 7873   8.173   8.966   3.645 -0.1952  0.0647  0.1479
 3810W        W 7874   4.237   4.955  10.069 -0.0368 -0.0257 -0.0613
 3811W        W 7875   5.034   2.880   9.931  0.1849 -0.1709 -0.1188
 3812W        W 7876   1.906   8.645  10.906 -0.2600 -0.2004 -0.1571
 3813W        W 7877   8.717   7.625   1.766  0.1704 -0.0656  0.0614
 3814W        W 7878   3.987   4.550   2.477 -0.0194  0.0977  0.5504
 3815W        W 7879   9.276   1.666   2.739  0.0145  0.3428  0.0916
 3816W        W 7880   7.117   5.569  11.061  0.1395 -0.2094  0.1387
 3817W        W 7881   9.506  10.416   2.196  0.0238 -0.0660  0.1328
 3818W        W 7882   9.281   2.648   2.859 -0.1935  0.0615 -0.0764
 3819W        W 7883   2.273  10.448   9.990  0.3476  0.3205  0.4714
 3820W        W 7884   6.036   6.421   7.993 -0.0475  0.0358 -0.2035
 3821W        W 7885   9.383   6.433   9.636 -0.2143 -0.0402  0.1389
 3822W        W 7886   6.954   5.084  11.097  0.2367  0.3164  0.2424
 3823W        W 7887   0.638   9.595   1.190 -0.1578 -0.0322 -0.1633
 3824W        W 7888   6.998   2.627   0.352  0.0924 -0.0252  0.1234
 3825W        W 7889   1.651   2.895   9.942 -0.1059  0.1282  0.3182
 3826W        W 7890   7.099   6.206   0.536 -0.1164  0.0025 -0.1010
 3827W        W 7891   4.930   5.069   8.075  0.2932  0.1955  0.0045
 3828W        W 7892   1.121   9.879   8.524 -0.4143  0.0294  0.3364
 3829W        W 7893   7.992   8.598   7.525  0.4317 -0.1138 -0.1759
 3830W        W 7894   7.416   2.245  10.039 -0.0608  0.0826 -0.0850
 3831W        W 7895   7.378   9.740  11.011 -0.0983 -0.2228  0.2633
 3832W        W 7896   4.583   3.613   3.914 -0.3577  0.4434  0.2366
 3833W        W 7897   3.956   6.170   9.942  0.1919  0.0486 -0.2142
 3834W        W 7898   1.231   8.154   1.563  0.1947 -0.0186  0.2660
 3835W        W 7899   8.229   3.282  10.511  0.5416  0.1882  0.1526
 3836W        W 7900   3.134   9.211   0.777  0.1526 -0.0037  0.0466
 3837W        W 7901   4.532   7.152   3.428 -0.0293 -0.0728 -0.0431
 3838W        W 7902   8.590   7.221  10.720 -0.1328 -0.0172  0.2930
 3839W        W 7903   6.820   7.127   8.726  0.1867  0.0559  0.0301
 3840W        W 7904   1.856   0.496   2.126  0.2325 -0.0016  0.2552
 3841W        W 7905   1.871   9.787   0.478  0.0931  0.3709 -0.0239
 3842W        W 7906   1.589   5.622   0.089 -0.1822  0.1588  0.0137
 3843W        W 7907   5.466   5.095   8.082 -0.1375  0.3695 -0.0483
 3844W        W 7908   4.193   5.294   7.298  0.0224  0.2648  0.1003
 3845W        W 7909   1.991   0.967   9.445  0.1852 -0.1351 -0.0204
 3846W        W 7910   1.987   1.477  11.413 -0.2681  0.2503 -0.2375
 3847W        W 7911   9.884   6.392   7.099 -0.3561  0.1274 -0.1538
 3848W        W 7912   6.879   8.680   8.258  0.0458  0.1041 -0.0604
 3849W        W 7913   2.492   5.174   2.220 -0.0450 -0.4362 -0.3402
 3850W        W 7914   7.003   8.616  11.185 -0.1969 -0.0116 -0.0261
 3851W        W 7915   3.910   4.164   1.105  0.0406 -0.0008  0.0757
 3852W        W 7916   0.810   8.228  10.244 -0.1336 -0.3772 -0.1772
 3853W        W 7917   5.518   3.151  10.868 -0.1226  0.0074  0.0608
 3854W        W 7918   4.340   5.533   9.253  0.1322 -0.1554  0.3546
 3855W        W 7919   3.680   6.548   9.342 -0.0612 -0.2802  0.0787
 3856W        W 7920   1.197   7.904   0.584  0.2070  0.0329  0.1081
 3857W        W 7921   1.174  10.109  11.219  0.3174  0.0642 -0.0656
 3858W        W 7922   4.698   7.007   8.404 -0.1563  0.0264 -0.1157
 3859W        W 7923   1.233   5.922   1.911  0.1883 -0.0552  0.0169
 3860W        W 7924   3.590   1.863   0.369 -0.2784  0.0403  0.5159
 3861W        W 7925  10.105   7.698   1.508 -0.0111  0.0518  0.1476
 3862W        W 7926   3.892   1.341   3.696  0.1053 -0.1685 -0.0410
 3863W        W 7927   2.550   4.348   0.742  0.1447  0.0166  0.2647
 3864W        W 7928   7.982   5.938   7.393 -0.3254  0.0112  0.1128
 3865W        W 7929   1.668   0.867   8.917 -0.3105  0.1921  0.2310
 3866W        W 7930   8.166   3.981   1.650  0.0795 -0.4016 -0.0246
 3867W        W 7931   3.426   5.854   0.994 -0.0858 -0.0983  0.1086
 3868W        W 7932   0.127   5.444  10.556 -0.0965  0.0716  0.0478
 3869W        W 7933   4.557   9.339   0.885  0.6361 -0.1592 -0.2290
 3870W        W 7934   7.526   2.911   2.674 -0.0686  0.1249 -0.1885
 3871W        W 7935   7.700   0.962   2.463 -0.0743 -0.4599  0.0067
 3872W        W 7936   4.886   4.446   7.991  0.1593 -0.3223  0.0126
 3873W        W 7937   4.450   6.255   8.540  0.1334  0.0964  0.1455
 3874W        W 7938  10.122   3.303   1.561  0.0532 -0.1737 -0.2289
 3875W        W 7939  10.575   5.877   8.144 -0.1321  0.0247 -0.1645
 3876W        W 7940   5.062   2.388  10.093 -0.0446  0.0066  0.0786
 3877W        W 7941   3.234   2.914   2.874 -0.0274 -0.3535  0.0941
 3878W        W 7942   8.731   3.104   3.495 -0.2293  0.2161 -0.0548
 3879W        W 7943   2.552   5.210   4.164 -0.3164 -0.0748 -0.5014
 3880W        W 7944  10.654  10.313   9.735  0.1404  0.0016 -0.0022
 3881W        W 7945   4.926   5.504   0.964  0.0400 -0.2110  0.1044
 3882W        W 7946   7.789   0.604   9.306  0.3169  0.1777  0.2177
 3883W        W 7947   5.900   5.550   2.861 -0.1620  0.2525  0.0241
 3884W        W 7948   2.066   2.729   3.239  0.4880 -0.0945 -0.1952
 3885W        W 7949   3.526   5.508  10.539  0.0674  0.1045  0.0435
 3886W        W 7950   4.744   4.535   2.853  0.0436 -0.3268  0.1269
 3887W        W 7951   9.306   0.529   1.178 -0.3711 -0.0223  0.0137
 3888W        W 7952   5.706   7.283   1.161 -0.1878 -0.1968 -0.3281
 3889W        W 7953   6.578   1.106   2.286  0.1635  0.1893  0.0813
 3890W        W 7954  10.073   9.681   9.923 -0.0190  0.2516  0.1471
 3891W        W 7955   7.145  10.500   3.565  0.2542  0.1668 -0.2737
 3892W        W 7956   3.338   5.445   3.171 -0.1806  0.1884 -0.0783
 3893W        W 7957   5.470   7.326   2.556  0.0442  0.0201  0.4217
 3894W        W 7958   4.753   0.152   0.005  0.1279  0.0056  0.2001
 3895W        W 7959  10.411   7.078   2.341  0.1351 -0.3501  0.0725
 3896W        W 7960   6.961   9.948  10.931 -0.0940 -0.0856  0.0353
 3897W        W 7961  10.395  10.372   3.231  0.2445 -0.2293 -0.0891
 3898W        W 7962   9.482   5.298   9.211  0.2347  0.2043  0.0071
 3899W        W 7963   0.339   2.885   7.669  0.3626 -0.3692  0.0325
 3900W        W 7964   6.300  10.308   1.979  0.2936  0.0742  0.0780
 3901W        W 7965   2.164   5.494   2.402 -0.1760 -0.0443  0.2216
 3902W        W 7966   7.243   5.439   2.450 -0.3196 -0.0735 -0.0593
 3903W        W 7967   8.122   9.699   9.929  0.3972 -0.2422  0.2971
 3904W        W 7968   2.725   7.279  10.221  0.1986  0.1353 -0.0660
 3905W        W 7969  10.535   0.526  10.198 -0.0732 -0.0759 -0.2886
 3906W        W 7970   5.849   6.290   1.080  0.2890  0.1024 -0.0895
 3907W        W 7971   7.974   1.811   3.493 -0.1001 -0.4886 -0.4152
 3908W        W 7972   2.361   2.844  10.814  0.1778 -0.2635  0.0582
 3909W        W 7973   3.943   3.021  10.019 -0.0960  0.0641  0.0002
 3910W        W 7974   5.387   3.241   9.934  0.0552 -0.2047 -0.2046
 3911W        W 7975  10.021   1.046   3.581  0.0839  0.1436 -0.0074
 3912W        W 7976   8.515   3.356   3.994  0.1608 -0.1129 -0.1446
 3913W        W 7977   1.938   1.181   7.968 -0.0195 -0.2519 -0.0249
 3914W        W 7978   4.943   8.984   2.236  0.0230 -0.0705  0.0861
 3915W        W 7979   3.476   1.883   0.902 -0.1035  0.0266  0.0109
 3916W        W 7980   2.647   2.038   2.158  0.2848  0.1141 -0.1913
 3917W        W 7981   4.991  10.372   2.642  0.0897  0.0301  0.1814
 3918W        W 7982   1.744   0.531   1.144 -0.3176 -0.2642  0.1659
 3919W        W 7983   9.453   0.452   3.153  0.2251 -0.1212  0.1311
 3920W        W 7984   1.756   5.880   1.987  0.1029 -0.1536  0.0792
 3921W        W 7985  10.609   5.245   8.878  0.0124 -0.0702  0.1400
 3922W        W 7986  10.453   2.254   1.248 -0.6892  0.0178  0.0437
 3923W        W 7987   5.730   7.458   3.039 -0.1395  0.0064  0.0709
 3924W        W 7988  10.647   6.948  10.639 -0.1128  0.0219 -0.1725
 3925W        W 7989   1.263   6.690   3.479  0.1402 -0.1901 -0.0434
 3926W        W 7990   2.536   1.813   2.890 -0.2553 -0.0282  0.0621
 3927W        W 7991  10.530  10.409   9.149  0.3008 -0.1590  0.0645
 3928W        W 7992   8.121   9.759   2.668  0.2371 -0.2640 -0.0612
 3929W        W 7993   1.300   9.644   1.880  0.1178 -0.1354 -0.0299
 3930W        W 7994   3.842   6.178   9.025 -0.1000  0.1344 -0.2041
 3931W        W 7995   0.475   9.748   2.408 -0.2076 -0.0400 -0.0729
 3932W        W 7996   3.336   3.795   8.951  0.1179 -0.2601  0.1881
 3933W        W 7997   8.740   6.990   0.294 -0.1113  0.1807 -0.0716
 3934W        W 7998   2.332   9.201   1.150 -0.0086 -0.0227 -0.0339
 3935W        W 7999   7.850   3.568   1.627  0.0620  0.0181  0.0387
 3936W        W 8000   9.443   7.573  10.230  0.2023  0.0698 -0.1754
 3937W        W 8001   3.686   7.636   2.088 -0.0073  0.0217  0.0149
 3938W        W 8002   0.216  10.389  11.433 -0.0002  0.0581 -0.3628
 3939W        W 8003   4.918   1.245   1.503 -0.0183  0.0693  0.1787
 3940W        W 8004   5.108   2.291   2.175  0.2403  0.0245  0.1451
 3941W        W 8005   5.691   8.797   0.316  0.1528  0.0239 -0.0126
 3942W        W 8006  10.635   2.660   3.712  0.0678  0.0597 -0.1400
 3943W        W 8007   8.374   9.909   1.746 -0.2149 -0.2416 -0.2753
 3944W        W 8008   2.662   6.506   2.913  0.0080  0.0116  0.1342
 3945W        W 8009   2.408   8.062   7.908  0.0551 -0.0697 -0.1797
 3946W        W 8010   9.625   3.338   1.700 -0.4187  0.0967  0.1149
 3947W        W 8011   8.400   4.015   1.197  0.2028 -0.2245 -0.0211
 3948W        W 8012   7.221   5.406   3.129  0.0489  0.0454 -0.1703
 3949W        W 8013   8.583   5.661  10.499 -0.0206  0.0657  0.1568
 3950W        W 8014   3.172   0.400   0.065  0.1530 -0.0698 -0.0634
 3951W        W 8015   5.914   9.261   3.367 -0.0645 -0.4020 -0.0947
 3952W        W 8016   5.597  10.441   8.887  0.1856  0.2230  0.1475
 3953W        W 8017   9.287   0.979  10.022 -0.1467  0.2215  0.2088
 3954W        W 8018   9.414   0.263   8.402  0.2671  0.0367  0.0470
 3955W        W 8019   1.403   9.185   2.204 -0.0115  0.0300 -0.0727
 3956W        W 8020   1.132   1.298   1.447 -0.0325  0.3737 -0.0122
 3957W        W 8021   2.377  10.051   9.607 -0.0309 -0.0227  0.0320
 3958W        W 8022   4.726   1.554   2.796 -0.1899 -0.0778  0.0382
 3959W        W 8023   3.879   1.348   2.449  0.0671  0.0906  0.0969
 3960W        W 8024   5.032   5.664   2.406  0.3885  0.2724  0.2989
 3961W        W 8025   6.920   5.127   8.260  0.0513  0.1458 -0.2575
 3962W        W 8026   1.137   1.123   8.964  0.0159  0.1549  0.0688
 3963W        W 8027   1.690   9.362   9.046 -0.3182  0.2433  0.1444
 3964W        W 8028   7.443   0.275   3.307 -0.0494  0.1406  0.2920
 3965W        W 8029   6.761   5.165   3.158 -0.2928  0.2428 -0.4239
 3966W        W 8030   6.198   0.363  11.160 -0.3039 -0.2189  0.1336
 3967W        W 8031   3.729   4.980   2.600  0.1546  0.2070 -0.2834
 3968W        W 8032   9.294   6.831  10.875  0.1319 -0.1771  0.2461
 3969W        W 8033   5.510   6.238   8.699 -0.0638 -0.1366  0.2572
 3970W        W 8034   4.103   1.063   9.877  0.0968  0.3498 -0.1563
 3971W        W 8035   8.590   9.176   3.409 -0.0639  0.1688 -0.2345
 3972W        W 8036   4.744   4.823   1.987  0.1940  0.0303  0.1939
 3973W        W 8037   7.602   6.305   0.197  0.1516  0.2562 -0.2669
 3974W        W 8038   3.762   9.744   2.359  0.0727 -0.2324 -0.0246
 3975W        W 8039   4.202   9.754   1.636  0.1406  0.1563  0.0794
 3976W        W 8040   6.381   3.025   8.167  0.0807 -0.2168  0.1067
 3977W        W 8041   2.762   1.665   3.361  0.1875  0.0330 -0.3163
 3978W        W 8042   0.444   6.595   8.539  0.1089  0.0116  0.3536
 3979W        W 8043   3.492   2.746   9.832 -0.0513  0.3628  0.1530
 3980W        W 8044   1.766   3.369  10.184  0.1949 -0.3421  0.1476
 3981W        W 8045  10.428   7.569   9.777  0.3089 -0.1376  0.1037
 3982W        W 8046   8.780   7.596   0.721 -0.1466  0.1849  0.0099
 3983W        W 8047   5.410  10.119  11.510 -0.0250  0.2178  0.0669
 3984W        W 8048   7.045   9.912   1.776  0.3829 -0.2270 -0.2047
 3985W        W 8049   4.102   1.340   1.127  0.1147  0.1450  0.1730
 3986W        W 8050   6.677   7.597   1.430  0.0785  0.0664 -0.2219
 3987W        W 8051   2.587   3.129   8.145  0.0992 -0.2254  0.1308
 3988W        W 8052   7.186   5.772   0.880 -0.0455  0.2476  0.1366
 3989W        W 8053   4.986   8.931   1.391  0.0096  0.2551  0.0549
 3990W        W 8054   9.717   0.419  11.136 -0.2412 -0.2251 -0.1758
 3991W        W 8055   9.893   2.290   9.112  0.1172  0.0293  0.2864
 3992W        W 8056   1.983   6.860  10.847  0.3496  0.2791 -0.2032
 3993W        W 8057   6.358   4.063   2.132 -0.0402 -0.3027 -0.0814
 3994W        W 8058   8.147   2.042   9.463 -0.1667 -0.0269 -0.1656
 3995W        W 8059  10.470   3.628  10.137  0.0516 -0.2203  0.2576
 3996W        W 8060   5.422   5.106   1.816 -0.0179 -0.2585  0.1055
 3997W        W 8061   3.204   9.927   0.330 -0.0234 -0.1775  0.0109
 3998W        W 8062   6.076   2.055  10.904  0.0062 -0.2229 -0.1484
 3999W        W 8063   3.422  10.195   1.139  0.0480  0.1526 -0.1187
 4000W        W 8064   9.938   3.371  10.957  0.0650  0.0476 -0.3550
 4001W        W 8065   8.827   6.186   0.014  0.0977  0.1314  0.0656
 4002W        W 8066   1.547   1.753   1.974  0.2005  0.1980  0.1017
 4003W        W 8067  10.567   5.990   3.047  0.0541 -0.0036  0.6074
 4004W        W 8068   7.310   1.576   9.515 -0.0856 -0.2046  0.0463
 4005W        W 8069   9.510   0.518   2.538 -0.1537 -0.1816  0.3670
 4006W        W 8070   5.174   4.942  10.820 -0.1242  0.0921  0.1407
 4007W        W 8071   8.490   8.524  11.102 -0.0018 -0.3338 -0.0808
 4008W        W 8072   5.000   4.367   3.221  0.2299 -0.2705  0.0656
 4009W        W 8073   1.559   7.297   2.895  0.0381 -0.1906  0.1757
 4010W        W 8074  10.007   9.183  10.241 -0.0792 -0.0305  0.0700
 4011W        W 8075   8.572   3.830   9.852 -0.1235 -0.1447  0.0540
 4012W        W 8076   4.640   0.239   7.795  0.2171 -0.0302 -0.3016
 4013W        W 8077   4.131   3.970   1.994  0.0425 -0.2511  0.2438
 4014W        W 8078   3.444   0.638   9.757  0.0076 -0.2573 -0.1337
 4015W        W 8079   0.436   1.260   0.567 -0.0181  0.1403  0.0903
 4016W        W 8080   1.616   2.296   8.698 -0.1478 -0.2140  0.1542
 4017W        W 8081   3.565   0.781   2.451  0.2292  0.0741 -0.1455
 4018W        W 8082   1.241   5.480   3.283 -0.2577 -0.0394 -0.2623
 4019W        W 8083   2.947   2.575   9.458 -0.1019  0.0618  0.1496
 4020W        W 8084  10.067   6.580  11.197  0.4167  0.0197 -0.0124
 4021W        W 8085   8.085   0.919   9.629 -0.3835 -0.1862 -0.0928
 4022W        W 8086   1.371   4.982   1.947 -0.2156 -0.2879  0.2254
 4023W        W 8087   3.611   8.601  10.512  0.4128 -0.0719 -0.0699
 4024W        W 8088   5.676   8.238   2.508  0.0865 -0.0857 -0.0239
 4025W        W 8089   0.893   2.846  10.357 -0.2407 -0.0021  0.0498
 4026W        W 8090   5.479   8.238   0.158 -0.3947 -0.2028 -0.2720
 4027W        W 8091   1.615   1.144   1.265  0.2546  0.0030 -0.0286
 4028W        W 8092   6.207   9.228   8.784 -0.1856 -0.1633 -0.2078
 4029W        W 8093   8.622   6.894   4.041 -0.2381 -0.3732 -0.0182
 4030W        W 8094   7.245   0.687   1.743 -0.0849  0.2541  0.0118
 4031W        W 8095   8.824   8.166   7.671 -0.5844  0.0345  0.0673
 4032W        W 8096   2.367   0.410  11.101 -0.1112 -0.1926 -0.0402
 4033W        W 8097   1.886   0.168  11.129 -0.0105 -0.0325  0.2163
 4034W        W 8098   7.230   9.709   0.370 -0.0354  0.1338  0.0750
 4035W        W 8099   2.301   8.665  11.215 -0.1257  0.1042 -0.0788
 4036W        W 8100   3.871   6.743   8.109 -0.0674 -0.0054  0.1905
 4037W        W 8101  10.367   9.081   7.390 -0.2141  0.0781 -0.0413
 4038W        W 8102   4.804   9.045  10.839 -0.0301 -0.1481 -0.1179
 4039W        W 8103   6.637  10.456   0.696  0.1106  0.2216 -0.0664
 4040W        W 8104   4.044   7.782  11.499  0.4237  0.1110  0.0992
 4041W        W 8105   7.814   3.000   1.436  0.1151 -0.0608  0.2634
 4042W        W 8106   2.286   4.988  10.518 -0.2720 -0.1980 -0.1116
 4043W        W 8107   6.284   4.933   1.764 -0.3278 -0.0362 -0.1954
 4044W        W 8108   1.005   1.789  10.325  0.3066  0.1788  0.0652
 4045W        W 8109   5.624   7.570   9.682 -0.0037 -0.3263  0.0035
 4046W        W 8110   5.091   8.217   0.480  0.0003  0.0645  0.2084
 4047W        W 8111   1.692   9.368   1.776 -0.1128 -0.2745 -0.0838
 4048W        W 8112   7.436   6.351   2.057  0.0618 -0.0191 -0.0877
 4049W        W 8113   0.347  10.038  10.002  0.3726 -0.0058  0.2279
 4050W        W 8114   4.263   1.909  10.343 -0.0771  0.3738 -0.0045
 4051W        W 8115   2.898   3.014   1.207 -0.2559  0.0983  0.1497
 4052W        W 8116   0.950   7.507   2.431  0.0745 -0.1627  0.0714
 4053W        W 8117   1.481   2.863   2.881 -0.1929  0.1701  0.1703
 4054W        W 8118   7.800   6.123   2.929  0.1680 -0.0490 -0.2268
 4055W        W 8119   3.337   6.421   0.424  0.1318 -0.1375  0.0862
 4056W        W 8120   2.837   3.089   9.312  0.0460 -0.1525  0.0523
 4057W        W 8121   5.554  10.235   7.681 -0.1203 -0.0470  0.2581
 4058W        W 8122  10.525   7.162   6.817  0.0469  0.0679  0.5150
 4059W        W 8123   6.085   3.405  10.568  0.0902  0.0180  0.0307
 4060W        W 8124   9.991   0.930   8.982 -0.1165 -0.1735  0.1619
 4061W        W 8125   1.033   8.409  10.974  0.0054 -0.0081  0.1592
 4062W        W 8126   5.167   5.932   1.472 -0.1878  0.0084 -0.1868
 4063W        W 8127   3.591   3.228   0.608  0.0197 -0.0108 -0.0679
 4064W        W 8128   1.103   2.742   1.354 -0.1751  0.2472 -0.0388
 4065W        W 8129   9.743   3.453   7.819  0.0345  0.1735 -0.0939
 4066W        W 8130   5.756   4.305  10.888  0.2986 -0.0759 -0.3228
 4067W        W 8131   9.013   4.822  10.314  0.1514 -0.1536 -0.0901
 4068W        W 8132   6.434   2.157   0.809  0.3824  0.0291  0.0969
 4069W        W 8133   9.369   4.553   2.695  0.0620  0.2035 -0.0321
 4070W        W 8134   1.356   1.342   3.220 -0.1586 -0.2516  0.2496
 4071W        W 8135  10.479   2.086   0.261 -0.0884 -0.1552 -0.0343
 4072W        W 8136   3.766   9.820   0.505  0.2145 -0.1530 -0.2591
 4073W        W 8137   7.390   7.849   2.565 -0.0211  0.0810  0.1400
 4074W        W 8138   2.501   1.917  10.429 -0.2526  0.2979 -0.0243
 4075W        W 8139   1.095   2.627   1.914  0.3003 -0.0945  0.0732
 4076W        W 8140   4.694   7.394   8.751 -0.1618  0.1024  0.0071
 4077W        W 8141   2.577   1.164   8.591 -0.2339 -0.0178  0.1296
 4078W        W 8142   6.528   7.828   3.223  0.1136 -0.1363  0.0047
 4079W        W 8143   4.360   2.261  10.791 -0.1529 -0.5311  0.0635
 4080W        W 8144   2.561   1.987  10.916 -0.2170 -0.2350  0.0412
 4081W        W 8145   7.411   6.595   7.275 -0.1569 -0.1818  0.0972
 4082W        W 8146   0.298   3.235   2.909  0.1544 -0.1578 -0.1051
 4083W        W 8147   0.147   3.206   3.752  0.0449  0.1425 -0.1576
 4084W        W 8148   4.220   4.285   2.880  0.1163  0.2462 -0.0138
 4085W        W 8149   2.224   1.027  11.474  0.0136  0.0017  0.0951
 4086W        W 8150   0.269   1.267   3.196  0.1055  0.0073 -0.0589
 4087W        W 8151   9.878   7.151  10.181  0.1687 -0.3173 -0.5905
 4088W        W 8152   8.139   0.658   0.357 -0.2200  0.2619 -0.1310
 4089W        W 8153   1.499   8.303  11.139 -0.0364 -0.5929 -0.0777
 4090W        W 8154   2.787   3.128   2.917  0.0033  0.1809  0.0361
 4091W        W 8155   6.732   8.078  11.224 -0.2290 -0.1452  0.2947
 4092W        W 8156   1.785   5.326   2.134  0.1418 -0.0668  0.0290
 4093W        W 8157   4.896   5.443   9.413  0.3454 -0.2948 -0.0538
 4094W        W 8158   5.713   5.314  10.173 -0.1627 -0.3165  0.0620
 4095W        W 8159   3.504   4.810   9.225  0.0733  0.1112  0.1671
 4096W        W 8160   7.463   7.371   2.387  0.1248 -0.1101 -0.0826
 4097W        W 8161   8.177  10.433   3.690 -0.3091  0.0915 -0.1712
 4098W        W 8162   9.565   3.451   2.531  0.0235 -0.1947 -0.0020
 4099W        W 8163   3.731   1.650  11.275 -0.0927 -0.2265  0.0382
 4100W        W 8164   1.092  10.450   1.244 -0.0939 -0.1160 -0.0943
 4101W        W 8165   3.186   7.448   2.765 -0.0174 -0.2678  0.0073
 4102W        W 8166   6.316   5.574   2.032 -0.5182  0.0516 -0.2496
 4103W        W 8167   7.488   4.492   1.209  0.0782  0.0975 -0.1948
 4104W        W 8168   0.794   7.940  10.655  0.2090  0.0390  0.0584
 4105W        W 8169   4.758   3.782  10.266 -0.1126 -0.0539 -0.0317
 4106W        W 8170   2.849   2.113  11.313  0.1480 -0.1368 -0.1487
 4107W        W 8171   4.667  10.333   8.697  0.0859 -0.0894  0.2353
 4108W        W 8172   3.948   9.270   3.955  0.3056 -0.0258  0.0252
 4109W        W 8173   6.026   8.055   0.404 -0.0437  0.0194  0.0490
 4110W        W 8174   1.840   5.180   1.588 -0.3279 -0.1049  0.3342
 4111W        W 8175   0.959   3.220   1.183 -0.0992  0.0785 -0.2200
 4112W        W 8176   8.027   9.840   9.454 -0.1966  0.0681  0.2579
 4113W        W 8177   3.409  10.479  10.473 -0.4012 -0.2774 -0.0608
 4114W        W 8178   2.561   8.961  10.279 -0.0099 -0.3021 -0.1044
 4115W        W 8179   9.024   7.106   9.927  0.2177 -0.2215  0.0885
 4116W        W 8180   9.387   8.566   9.078  0.4351  0.0331 -0.2158
 4117W        W 8181   1.897   8.164   9.656 -0.1025 -0.1432 -0.1164
 4118W        W 8182   0.173  10.095   0.463  0.1575 -0.0007  0.4683
 4119W        W 8183   5.419   5.277  11.131 -0.1525  0.2246  0.0925
 4120W        W 8184   3.287   0.519   8.646 -0.0868  0.1056 -0.2372
 4121W        W 8185   7.313   0.187   1.553 -0.0518  0.1924  0.1337
 4122W        W 8186   6.987   8.826   1.908  0.1444 -0.1520  0.0306
 4123W        W 8187   3.491   0.347   1.405 -0.1841 -0.0996 -0.3049
 4124W        W 8188   8.879   2.933   2.092  0.1259  0.1299 -0.1284
 4125W        W 8189   8.962   2.915   8.934  0.1283  0.0049 -0.2513
 4126W        W 8190   6.440   1.216   1.763  0.2885 -0.1741 -0.0041
 4127W        W 8191   5.994   4.459   8.596 -0.1991  0.0965 -0.2264
 4128W        W 8192   1.009   6.411  11.318 -0.2040  0.2108  0.0009
 4129W        W 8193   4.947   3.346  11.164  0.0272 -0.1524  0.1565
 4130W        W 8194   8.215   4.341  10.946 -0.0193  0.0676  0.1278
 4131W        W 8195   8.722   3.863   3.137 -0.3846 -0.0615 -0.4994
 4132W        W 8196   8.550   7.164   8.852 -0.0227  0.1453  0.0944
 4133W        W 8197   8.621   7.071   3.175  0.2623 -0.0783  0.1527
 4134W        W 8198   4.408   2.379  10.248  0.3858  0.0506  0.0404
 4135W        W 8199   1.847   8.146   2.835 -0.0572 -0.1325 -0.1254
 4136W        W 8200  10.392   3.042   3.461  0.1044  0.1944 -0.1558
 4137W        W 8201   6.734   3.468   2.776 -0.1975  0.0316  0.1514
 4138W        W 8202   1.171   0.494   2.896  0.0420 -0.0382 -0.0522
 4139W        W 8203   6.731   7.046   1.635 -0.3411  0.0929  0.0249
 4140W        W 8204   0.551   8.175   8.277  0.2558 -0.2332 -0.2552
 4141W        W 8205   1.068   1.666   3.431  0.0383 -0.1675 -0.2150
 4142W        W 8206   7.043   9.898  11.443 -0.0125  0.1431 -0.1402
 4143W        W 8207   5.976   8.965   2.015 -0.0372 -0.0410  0.0743
 4144W        W 8208   4.491  10.458   2.329  0.4686 -0.0184  0.0914
 4145W        W 8209   5.365   6.883   1.917 -0.1714 -0.1766  0.0473
 4146W        W 8210   5.225   0.106   2.688 -0.1047  0.1042  0.1011
 4147W        W 8211   0.577   4.551  10.792 -0.0224 -0.1025  0.1362
 4148W        W 8212   2.565   4.066   1.133 -0.0461  0.1913  0.3296
 4149W        W 8213   7.797  10.632   8.650  0.0707  0.1396 -0.0266
 4150W        W 8214  10.615   2.685   2.272  0.2402 -0.1849 -0.1753
 4151W        W 8215   9.775   4.922   2.611  0.0750  0.1401 -0.1640
 4152W        W 8216   3.098   6.901   1.324 -0.6290 -0.0422  0.3811
 4153W        W 8217   6.184   4.298   1.342  0.0523 -0.0753  0.0234
 4154W        W 8218   4.716   8.276  10.482 -0.1484 -0.1764  0.4524
 4155W        W 8219   5.804   6.066   2.997 -0.0986  0.0596  0.2530
 4156W        W 8220   9.175   0.616   8.748 -0.0876 -0.1119  0.0216
 4157W        W 8221   6.124   4.804  10.514  0.0544  0.0127 -0.0928
 4158W        W 8222   5.030   2.546   1.032 -0.0043  0.1846 -0.0374
 4159W        W 8223   0.579   9.449  10.765  0.1069 -0.1392  0.0672
 4160W        W 8224   9.520   2.215   2.169 -0.2360  0.0360  0.0091
 4161W        W 8225   3.361   6.407   8.995  0.1752 -0.0043  0.4246
 4162W        W 8226   6.447   7.047   7.388  0.0169 -0.4526 -0.1757
 4163W        W 8227   5.481   2.912   9.041  0.1681 -0.0997 -0.2728
 4164W        W 8228   8.314   5.130   0.154  0.3493 -0.1816 -0.1256
 4165W        W 8229   2.134   9.594   0.867 -0.0141  0.1504  0.0075
 4166W        W 8230   6.680   5.635   3.320 -0.0981  0.0796  0.0427
 4167W        W 8231   5.820   4.340   2.802  0.1509  0.2571  0.3289
 4168W        W 8232   0.979   5.545  10.106  0.0865 -0.0067  0.4101
 4169W        W 8233   2.781   6.178  10.885  0.0007  0.2392 -0.1925
 4170W        W 8234   2.821   8.973   9.599 -0.3119  0.0212  0.1859
 4171W        W 8235   5.641   5.731   9.873  0.0046 -0.2392  0.0637
 4172W        W 8236   7.710   5.031   8.924  0.1438 -0.0840  0.2381
 4173W        W 8237   4.061   8.019   8.899  0.1363 -0.0474  0.1028
 4174W        W 8238   1.471   3.547   3.197  0.1926 -0.2576  0.2410
 4175W        W 8239   1.857   3.653  11.504 -0.2680  0.2641  0.1877
 4176W        W 8240   2.013   0.036   0.738 -0.0031 -0.1776 -0.2942
 4177W        W 8241   7.766   0.266  10.167  0.1552 -0.0446 -0.2352
 4178W        W 8242   1.562   1.082  10.254 -0.2137 -0.1267 -0.1492
 4179W        W 8243   6.890   5.172   7.318  0.2328 -0.0949  0.0298
 4180W        W 8244   2.608   2.863  10.304 -0.2424 -0.0503 -0.0266
 4181W        W 8245   6.478   0.784   9.557 -0.0752  0.3043  0.0995
 4182W        W 8246   7.630   5.700  11.121  0.0539  0.0716  0.2100
 4183W        W 8247   3.438   5.696  11.023  0.2080 -0.1611 -0.0897
 4184W        W 8248   4.184   0.157  10.097 -0.3665  0.3982  0.0221
 4185W        W 8249   7.125   7.502  11.338  0.1847 -0.5093 -0.0811
 4186W        W 8250   0.699   8.029   1.491 -0.2212  0.1552  0.0795
 4187W        W 8251   7.469  10.483   9.915 -0.4290 -0.0274 -0.2735
 4188W        W 8252   9.569   2.685   3.643 -0.0814 -0.0469 -0.0874
 4189W        W 8253   1.844   4.867   9.702  0.0845  0.1052  0.0084
 4190W        W 8254   2.915   1.039   8.950 -0.2027 -0.2771  0.0865
 4191W        W 8255   4.897   3.580   3.098 -0.1176  0.1931 -0.0675
 4192W        W 8256  10.099   4.970   8.690 -0.1037 -0.0865  0.1975
 4193W        W 8257   8.490   7.880   7.892 -0.5022 -0.0409  0.0713
 4194W        W 8258   6.799   6.811   7.615 -0.2777 -0.2759 -0.1406
 4195W        W 8259   0.850   5.063  10.040  0.0818  0.3063 -0.2330
 4196W        W 8260   6.571   0.135  10.937  0.2518  0.0676  0.3920
 4197W        W 8261   0.254   2.513   0.286  0.0032 -0.0510 -0.1209
 4198W        W 8262   4.204   1.082   0.275 -0.0738 -0.0224  0.2436
 4199W        W 8263   9.010   5.881   0.473  0.1115 -0.0396 -0.2835
 4200W        W 8264   1.393  10.188   1.858  0.0331 -0.2084 -0.0236
 4201W        W 8265   2.384   3.496  11.472 -0.0920  0.1229  0.0552
 4202W        W 8266   8.531   7.854   2.988 -0.3008  0.0372  0.1426
 4203W        W 8267   7.028   2.549   1.490  0.1783  0.1081  0.0112
 4204W        W 8268   1.746   8.289  10.628  0.0133 -0.0991  0.2724
 4205W        W 8269   2.211   3.275   2.106 -0.1376  0.2778  0.1193
 4206W        W 8270   6.934   2.260   0.057  0.3238 -0.0227  0.0734
 4207W        W 8271  10.456   0.462   8.298  0.1381 -0.3186 -0.1565
 4208W        W 8272   9.732   0.219  10.278 -0.0484  0.2540 -0.1211
 4209W        W 8273   5.928   8.752   2.502 -0.3420 -0.0662 -0.2893
 4210W        W 8274   7.848   2.299   3.663  0.0017  0.1570 -0.0011
 4211W        W 8275   1.843   9.811   9.356  0.0333  0.2302  0.2489
 4212W        W 8276   3.219   8.089  11.226  0.1622 -0.0286 -0.1038
 4213W        W 8277   9.670   2.079   0.575 -0.0223 -0.1544 -0.0986
 4214W        W 8278   8.267   4.620   0.309  0.0602  0.1486  0.1761
 4215W        W 8279   5.131   1.691   9.446  0.2142  0.0946 -0.2298
 4216W        W 8280   2.459   6.080   0.514  0.0790  0.2080  0.1862
 4217W        W 8281   0.506   7.669   8.229  0.1625 -0.0504 -0.2925
 4218W        W 8282   2.018   1.005   7.062  0.2158 -0.3130 -0.1394
 4219W        W 8283   7.724   2.551   8.597 -0.3223 -0.1881 -0.0736
 4220W        W 8284   7.270   8.530   2.230 -0.2043 -0.2376  0.1361
 4221W        W 8285   9.302   1.964   9.748  0.2193  0.1500 -0.2983
 4222W        W 8286   6.998   3.906   3.099 -0.2427 -0.2042 -0.0122
 4223W        W 8287   9.355   7.005   7.456  0.0656  0.0258 -0.0450
 4224W        W 8288   0.919   4.180  11.063 -0.1564 -0.0770  0.0412
 4225W        W 8289  10.474   1.287   1.859 -0.3330  0.1425 -0.0413
 4226W        W 8290   1.859   1.955   9.571 -0.0075 -0.1329  0.0986
 4227W        W 8291   6.561   9.313   0.093 -0.0988  0.2157  0.3493
 4228W        W 8292   0.089   7.439   0.845 -0.1147 -0.1719 -0.1254
 4229W        W 8293   2.358  10.266   3.742  0.0165  0.0064  0.1690
 4230W        W 8294   9.243   4.064   4.397 -0.1115 -0.0590 -0.2191
 4231W        W 8295   0.654   4.671   9.182  0.1003 -0.1485  0.0276
 4232W        W 8296   4.159   3.799   8.824  0.1091  0.0986 -0.0839
 4233W        W 8297   8.269  10.167   2.333 -0.2178  0.1160 -0.0323
 4234W        W 8298   2.577   6.053   2.780 -0.2421  0.0864  0.1151
 4235W        W 8299   0.809   5.720   8.245  0.2202 -0.1140  0.0029
 4236W        W 8300   5.083   3.870   1.766 -0.0727 -0.1084  0.1025
 4237W        W 8301   7.818   8.507   9.106  0.2471 -0.2629  0.1664
 4238W        W 8302   1.554   7.039  10.309 -0.1467 -0.0801 -0.1915
 4239W        W 8303   9.525   9.310   8.397  0.2989  0.1560  0.3463
 4240W        W 8304   3.124  10.488   2.385 -0.2314  0.0033 -0.1511
 4241W        W 8305   1.371   6.612   8.117  0.4682  0.1042  0.2364
 4242W        W 8306   3.043   9.287   9.883  0.1133  0.1470 -0.1809
 4243W        W 8307   8.202   6.856  10.610 -0.1283 -0.1329  0.0920
 4244W        W 8308   6.904  10.117   2.785  0.5316  0.1542  0.0879
 4245W        W 8309   3.934   6.393   8.591  0.4876 -0.0174 -0.2295
 4246W        W 8310   9.065   7.903   9.534  0.0447  0.0788 -0.2509
 4247W        W 8311   3.530   7.456   8.247  0.0220  0.2247  0.2392
 4248W        W 8312   7.360   2.593   8.148 -0.2825  0.2436 -0.0870
 4249W        W 8313   6.536   6.694   0.333  0.1674 -0.0515 -0.3479
 4250W        W 8314   9.297   7.650   2.381 -0.2118 -0.1573 -0.0579
 4251W        W 8315   7.031   0.602   3.067  0.1200 -0.2809  0.4846
 4252W        W 8316   3.120   9.335   9.420  0.3054 -0.2459  0.2095
 4253W        W 8317  10.052   5.758   9.670 -0.1917 -0.0695 -0.0231
 4254W        W 8318   7.211   3.269   8.599  0.1105  0.1572  0.1065
 4255W        W 8319   6.853   0.674   2.073  0.2942  0.1602  0.0270
 4256W        W 8320   0.948   3.468   8.801 -0.2248  0.1671  0.0717
 4257W        W 8321   8.492   1.405  10.509  0.1858 -0.0169  0.0530
 4258W        W 8322   8.958   8.602   1.969  0.0541 -0.1563 -0.1631
 4259W        W 8323   3.901   7.236   8.068 -0.1861  0.0252 -0.2539
 4260W        W 8324   7.781   3.405   8.782  0.1615  0.0741 -0.1139
 4261W        W 8325   1.808   4.187   8.468 -0.1609 -0.3342 -0.0281
 4262W        W 8326   9.148   3.464   1.812  0.0235 -0.4264 -0.0692
 4263W        W 8327   8.903   9.340   1.458 -0.1396  0.2700 -0.0758
 4264W        W 8328   3.693  10.048   7.730  0.1479  0.1711 -0.0604
 4265W        W 8329   7.291   6.103   9.177 -0.2381 -0.1700  0.0712
 4266W        W 8330   3.133   6.674   7.661 -0.0704  0.0376  0.2840
 4267W        W 8331   0.968   4.670   2.136  0.0946 -0.1071 -0.1850
 4268W        W 8332   0.110   8.007   7.471 -0.0302  0.3327 -0.0728
 4269W        W 8333   2.358   2.320   0.550 -0.2876  0.1870 -0.2731
 4270W        W 8334   2.337   4.101   2.968 -0.0892  0.1248 -0.0275
 4271W        W 8335   9.739   5.163   0.133 -0.3464 -0.3077  0.2798
 4272W        W 8336   8.545  10.332   1.952 -0.0415  0.3778 -0.1092
 4273W        W 8337   8.248   9.081   0.922  0.0741 -0.2161  0.0155
 4274W        W 8338   6.905   2.360   8.222  0.0551 -0.0784  0.1143
 4275W        W 8339   8.897   0.066   1.616  0.0181  0.1050  0.1755
 4276W        W 8340   5.462   9.829   2.989  0.1378 -0.1765  0.3578
 4277W        W 8341   5.344   9.435   2.129 -0.0038  0.0548  0.1103
 4278W        W 8342   8.449   7.962   2.482  0.1624  0.0400  0.0420
 4279W        W 8343   2.298   0.524   3.721  0.2378  0.0117  0.0806
 4280W        W 8344   8.743   1.851  10.576 -0.0733  0.0181 -0.2854
 4281W        W 8345  10.202   1.438  10.185 -0.1540 -0.1064 -0.1650
 4282W        W 8346   2.384   3.942  10.762  0.2968 -0.1606 -0.0894
 4283W        W 8347   8.618   5.941  10.890  0.0299  0.4546 -0.0579
 4284W        W 8348   5.218   3.384   1.813 -0.3731  0.1468 -0.1495
 4285W        W 8349   2.724   8.362   2.979  0.0854  0.0542  0.1529
 4286W        W 8350   9.327   9.859   8.097  0.0158 -0.3221 -0.0211
 4287W        W 8351   2.630   5.208  10.948  0.1430 -0.1910 -0.1099
 4288W        W 8352   5.571   2.480   8.882  0.0488  0.1548  0.0333
 4289W        W 8353   9.531   8.415   0.970  0.0168  0.0873  0.0622
 4290W        W 8354   0.033   9.202   9.692  0.2893 -0.2780 -0.0554
 4291W        W 8355   7.427   2.328   2.305  0.0196  0.1377  0.0446
 4292W        W 8356   8.046   6.387   1.604 -0.1092  0.2873  0.0619
 4293W        W 8357   3.193   7.510   2.056 -0.0620  0.3153  0.1573
 4294W        W 8358   2.081   2.617   8.749  0.0966 -0.3390 -0.0890
 4295W        W 8359   0.811   3.151   0.189 -0.3418 -0.0894  0.0377
 4296W        W 8360   9.024   8.164   8.906 -0.0711  0.0384  0.1077
 4297W        W 8361   0.148   3.852   0.353 -0.2278 -0.1532 -0.1298
 4298W        W 8362   9.541  10.358   9.639 -0.0745 -0.0260  0.1966
 4299W        W 8363   3.558   9.896   9.627  0.0924 -0.0621 -0.0830
 4300W        W 8364   7.067   8.268   8.705 -0.1332 -0.0720 -0.0725
 4301W        W 8365   0.323   1.785   0.664 -0.4376 -0.1840 -0.2513
 4302W        W 8366  10.429   8.265   8.152  0.4138 -0.0189  0.1063
 4303W        W 8367   5.498   5.575   1.612 -0.4171  0.0594  0.0472
 4304W        W 8368   7.962   6.468  10.421 -0.0303  0.0220  0.0734
 4305W        W 8369   8.555   2.813  11.223  0.0197  0.1807 -0.1076
 4306W        W 8370   6.194   5.819  11.458 -0.1175  0.0696  0.1802
 4307W        W 8371   3.282   8.326   1.457 -0.0906  0.1239  0.2818
 4308W        W 8372   7.229   6.768   8.263  0.1185 -0.0009  0.0999
 4309W        W 8373   6.936   4.567  11.160 -0.0342  0.3389  0.0972
 4310W        W 8374   9.811   0.190   7.482  0.2622 -0.1120  0.0060
 4311W        W 8375   7.248   7.569   9.970  0.1457 -0.1752 -0.0665
 4312W        W 8376   3.942   0.639   7.941 -0.0593  0.4032 -0.0195
 4313W        W 8377   9.054   2.596  11.081 -0.2154  0.3433  0.1455
 4314W        W 8378   5.383   0.453   3.126  0.4247 -0.1273  0.1288
 4315W        W 8379   6.163   5.887   9.517 -0.1885  0.0287 -0.0538
 4316W        W 8380   0.880   5.927  10.948 -0.1711 -0.1984  0.0856
 4317W        W 8381   1.708   3.090   4.036  0.1328 -0.0472  0.0735
 4318W        W 8382   8.693   6.098   8.625  0.4083 -0.1420 -0.0646
 4319W        W 8383   0.155   2.986   3.301  0.1856 -0.1930  0.0782
 4320W        W 8384   0.605   2.010  10.581  0.1327  0.0733 -0.1531
 4321W        W 8385   4.627   5.974   2.334 -0.1542  0.0321  0.0972
 4322W        W 8386   1.855   9.466   0.062 -0.1650  0.0607  0.0846
 4323W        W 8387   7.143   7.032   0.715 -0.0816 -0.0517  0.2643
 4324W        W 8388   8.990   3.620  10.176 -0.1026  0.0884  0.1451
 4325W        W 8389   1.045   8.951  10.190  0.0991 -0.0139  0.2382
 4326W        W 8390   5.578   1.053   0.012  0.1473 -0.1038 -0.2251
 4327W        W 8391  10.224   4.421  11.410 -0.0562 -0.1359 -0.2150
 4328W        W 8392   3.447   8.898   8.022  0.1019 -0.1160  0.2775
 4329W        W 8393   9.040   6.632   2.431  0.0889 -0.3369 -0.0837
 4330W        W 8394   2.138   1.199   2.497  0.2586 -0.3390 -0.1297
 4331W        W 8395   3.475   0.123   8.403 -0.1380  0.2650 -0.1944
 4332W        W 8396   4.998  10.397   0.025  0.4430 -0.1495  0.1411
 4333W        W 8397   0.826   1.385  10.081 -0.1675  0.0362  0.1586
 4334W        W 8398   8.858   0.545   1.470  0.0246  0.1683 -0.1246
 4335W        W 8399   2.617   0.254   9.240  0.2399  0.0165 -0.1365
 4336W        W 8400   1.892   9.760   8.087  0.2164 -0.1402 -0.1077
 4337W        W 8401   8.557   0.364   2.622  0.1149  0.2966  0.2102
 4338W        W 8402   0.113   9.967   9.220 -0.2795  0.3145  0.1231
 4339W        W 8403   1.098   9.829   1.164  0.3427 -0.0016 -0.0100
 4340W        W 8404   3.272   9.544  11.157  0.2775  0.0609  0.0490
 4341W        W 8405   9.506   9.346   8.958 -0.0081  0.0237 -0.1006
 4342W        W 8406   2.833   1.886   1.679 -0.0861 -0.0323 -0.2533
 4343W        W 8407   1.037  10.626   1.743  0.1284  0.1850 -0.2356
 4344W        W 8408   3.118   6.711   0.070 -0.1068 -0.6012 -0.2538
 4345W        W 8409   1.489   8.988   9.884  0.1367  0.0228 -0.1264
 4346W        W 8410   1.436   2.406   1.152  0.1670  0.4640 -0.1560
 4347W        W 8411   7.354   9.505   9.940 -0.0171  0.2046 -0.0025
 4348W        W 8412  10.111   8.651   8.068 -0.0718  0.2401 -0.1323
 4349W        W 8413   7.931   1.536   3.114 -0.0126  0.3014 -0.1898
 4350W        W 8414   9.471   7.604   8.151  0.0442  0.1157  0.0421
 4351W        W 8415   6.637   0.671  11.162 -0.2416 -0.1453 -0.0589
 4352W        W 8416   4.342   9.435  11.059 -0.1419  0.1308  0.1082
 4353W        W 8417   6.808   6.588   2.991 -0.1212 -0.1935  0.1696
 4354W        W 8418   0.792   9.226   3.197  0.2358  0.0151  0.0042
 4355W        W 8419   7.531   3.081  11.437 -0.5253  0.2389 -0.0575
 4356W        W 8420   9.927   0.594   8.237  0.0598  0.2918 -0.3583
 4357W        W 8421  10.205   2.808   1.386  0.1167 -0.2482  0.1821
 4358W        W 8422   2.282   2.247   1.110 -0.3114 -0.0587 -0.0627
 4359W        W 8423   4.624   6.805   2.450 -0.2476 -0.4040 -0.4254
 4360W        W 8424   4.146  10.314  11.052 -0.0347  0.0641  0.0123
 4361W        W 8425   1.993   1.477   9.646  0.0294 -0.1266 -0.5761
 4362W        W 8426  10.038   2.653  10.661  0.0520 -0.3123  0.1124
 4363W        W 8427   7.703   9.350   1.717 -0.0142 -0.2575  0.0038
 4364W        W 8428   0.062   3.970   9.312  0.0153  0.0920  0.1817
 4365W        W 8429   7.951   7.376   0.134  0.0334 -0.1944  0.1953
 4366W        W 8430   0.987   7.522   3.009 -0.1219  0.0318  0.0949
 4367W        W 8431   5.982   7.811   8.049  0.0281  0.0447 -0.2024
 4368W        W 8432   3.616   6.848   1.333  0.0709  0.0670  0.0377
 4369W        W 8433   4.264   9.390   7.381  0.0551 -0.0754  0.1959
 4370W        W 8434   9.205   2.967   1.652  0.1891  0.1555  0.0431
 4371W        W 8435   5.967   2.625  11.234 -0.1036 -0.2095  0.1928
 4372W        W 8436   4.365   7.672   2.510  0.0801 -0.4989  0.1828
 4373W        W 8437   6.358   2.566   8.978  0.4168  0.1852 -0.0459
 4374W        W 8438   7.976   7.380   1.055  0.0657  0.2178  0.2501
 4375W        W 8439   1.760  10.389  11.200 -0.2119  0.2980 -0.0182
 4376W        W 8440   9.471   6.654   2.124  0.0830  0.1780  0.0957
 4377W        W 8441   8.220   3.700   2.025 -0.1797 -0.2619 -0.1256
 4378W        W 8442   8.006   8.376  10.967 -0.3320  0.2255 -0.0300
 4379W        W 8443   2.976   1.696  10.676  0.1724  0.2278  0.1878
 4380W        W 8444   8.112   9.776   8.905  0.0999 -0.5733  0.2284
 4381W        W 8445   1.976   8.704   9.720  0.1569  0.0234 -0.0748
 4382W        W 8446   2.676   1.063   0.643  0.1823 -0.2679  0.0643
 4383W        W 8447   6.764   7.869   8.694 -0.1200 -0.1686  0.5055
 4384W        W 8448   0.216   1.041   2.021  0.0548  0.0479 -0.2760
 4385W        W 8449   1.737  10.362  10.039  0.0048 -0.0740  0.0504
 4386W        W 8450   8.859   5.684   1.430 -0.1150  0.1374  0.0483
 4387W        W 8451   8.652   1.837   8.930  0.0470 -0.0741  0.1254
 4388W        W 8452   1.088   0.186   7.998 -0.3215  0.1928  0.5155
 4389W        W 8453   3.963   3.136   9.464 -0.1191 -0.0668  0.4409
 4390W        W 8454   1.967   4.717   0.401 -0.1648  0.1331 -0.3239
 4391W        W 8455   8.412   1.365   1.988  0.2903  0.2375  0.0008
 4392W        W 8456   6.155   9.076   0.885  0.0325 -0.5665 -0.1455
 4393W        W 8457   4.779   2.087   0.983  0.3360 -0.0082 -0.0930
 4394W        W 8458   4.987   1.850   3.185 -0.1510 -0.0674 -0.0501
 4395W        W 8459   7.020   3.663   0.287  0.1907 -0.1501 -0.0000
 4396W        W 8460   8.878   8.321   1.426  0.0709 -0.0660  0.1468
 4397W        W 8461  10.289   4.483   1.049  0.2979  0.0791 -0.4493
 4398W        W 8462   8.929   6.594  10.164  0.1793 -0.2184  0.0505
 4399W        W 8463   7.625   3.427   2.678 -0.1424  0.2411  0.2181
 4400W        W 8464   7.987   6.793   8.416  0.0811  0.2244  0.0747
 4401W        W 8465   1.726   7.961   0.596  0.0579 -0.2282  0.0832
 4402W        W 8466   5.119   5.774   0.174  0.1434  0.2640 -0.0602
 4403W        W 8467   0.177   9.199   2.756 -0.0476  0.2393  0.2244
 4404W        W 8468  10.066  10.360  10.916  0.0051  0.1796 -0.0610
 4405W        W 8469   3.236   0.541   1.012  0.2031 -0.2678  0.1541
 4406W        W 8470   2.644   0.147  10.712  0.4529 -0.0228  0.0272
 4407W        W 8471   1.487   4.902   0.766 -0.2286 -0.2775 -0.1654
 4408W        W 8472   7.364  10.089  10.664  0.2631  0.4664 -0.1042
 4409W        W 8473   2.649   9.472   0.775  0.0982  0.2892 -0.2618
 4410W        W 8474   6.649   1.132  10.437 -0.2507  0.0262 -0.2109
 4411W        W 8475   8.872  10.605  10.185  0.1018 -0.0118 -0.1119
 4412W        W 8476   8.649   8.596   9.353  0.1655  0.3886  0.0951
 4413W        W 8477   7.114   3.530   9.019 -0.1217  0.0844  0.0934
 4414W        W 8478   2.380   2.918   0.375  0.1713 -0.2924 -0.0352
 4415W        W 8479   7.582  10.126   9.488  0.0567 -0.0327  0.3274
 4416W        W 8480   5.829   8.722   1.005  0.1295  0.1201 -0.0547
 4417W        W 8481   2.478   4.541   1.267  0.1549 -0.1134  0.1257
 4418W        W 8482   0.842   9.929   0.513  0.2090  0.0989 -0.3286
 4419W        W 8483   7.896   8.491   1.633  0.0299  0.1841 -0.3780
 4420W        W 8484   2.261   0.523   1.297 -0.2985  0.1131 -0.0988
 4421W        W 8485   6.237   0.052   0.005  0.0599  0.0650  0.2356
 4422W        W 8486   0.630   0.298   3.036  0.0808 -0.3241 -0.0706
 4423W        W 8487   4.076   2.694   1.914  0.3673  0.2553 -0.2390
 4424W        W 8488  10.281   5.359   9.760  0.1627 -0.2348 -0.1792
 4425W        W 8489   8.086   7.694   1.433 -0.0427 -0.0254 -0.0534
 4426W        W 8490   9.866   8.658   2.558 -0.1231  0.0320  0.3114
 4427W        W 8491   0.889   8.823   2.087  0.1126 -0.1376 -0.0320
 4428W        W 8492   7.158   5.980   3.037 -0.0385  0.2761 -0.3430
 4429W        W 8493   0.881   4.938   8.561 -0.1501 -0.1208 -0.1149
 4430W        W 8494   4.522   7.250   2.197 -0.0872  0.0012 -0.0956
 4431W        W 8495   0.925   6.370   1.951 -0.0454 -0.2906 -0.1538
 4432W        W 8496   2.057   3.014   0.750  0.0381 -0.0117  0.0024
 4433W        W 8497  10.455   9.908   3.225 -0.1758 -0.0122 -0.1411
 4434W        W 8498   4.711   0.418   8.261 -0.3037  0.0900  0.3247
 4435W        W 8499  10.314   4.093   2.747 -0.0064  0.1395  0.1415
 4436W        W 8500   3.459   7.004   7.956 -0.3404 -0.3820 -0.2312
 4437W        W 8501   2.513   3.385   0.543 -0.2935  0.2039  0.0286
 4438W        W 8502   2.673   5.347   9.486 -0.1868 -0.0437  0.1282
 4439W        W 8503   0.826   9.076   8.021  0.0243  0.4238  0.1773
 4440W        W 8504   0.301   5.584   3.018  0.0284  0.1783 -0.2449
 4441W        W 8505  10.128   7.532  10.372 -0.0739  0.1270 -0.0815
 4442W        W 8506   1.253   9.470  10.202 -0.0565 -0.0609  0.3828
 4443W        W 8507   1.562   9.753   0.870  0.0886 -0.0185 -0.0011
 4444W        W 8508   0.572   0.277   9.455 -0.3234 -0.1072 -0.0794
 4445W        W 8509   9.451   8.133   0.049  0.0284 -0.0381 -0.3774
 4446W        W 8510   5.201   0.196   8.475 -0.1588  0.2746  0.0587
 4447W        W 8511   4.322   0.965  10.919 -0.3593  0.0303 -0.0836
 4448W        W 8512   4.627  10.163   8.157  0.1870  0.1587  0.3222
 4449W        W 8513   9.159   5.895   3.129  0.0526  0.1824  0.1188
 4450W        W 8514   1.844   3.465   8.569 -0.1330 -0.1567 -0.5379
 4451W        W 8515   3.584   2.354   2.196  0.1692 -0.0747  0.1867
 4452W        W 8516   6.955   2.399   2.068 -0.0554 -0.1180  0.1794
 4453W        W 8517   9.753   0.103   2.577  0.0850 -0.0204  0.1690
 4454W        W 8518   2.565   0.923  11.045  0.2602  0.2164  0.0675
 4455W        W 8519   6.154  10.281   0.504  0.0750 -0.4661  0.2210
 4456W        W 8520   0.928   9.300   9.777  0.0473 -0.0737 -0.0688
 4457W        W 8521   6.199  10.176   3.549  0.0082 -0.0528  0.1283
 4458W        W 8522   3.803   8.892  10.931  0.2807 -0.1471  0.1977
 4459W        W 8523   1.640   5.125   3.316  0.0954  0.3040 -0.1447
 4460W        W 8524   3.623   8.118   0.668  0.2804 -0.2713  0.1837
 4461W        W 8525   8.377   4.605  11.352 -0.0929  0.3620 -0.1007
 4462W        W 8526   7.696   2.851   9.437  0.2641  0.0664  0.1507
 4463W        W 8527   2.262   5.039   3.364 -0.0799 -0.0096 -0.2490
 4464W        W 8528   4.823   8.624   2.617 -0.0618 -0.2296  0.2932
 4465W        W 8529   3.238   1.214   1.801 -0.0104 -0.3287  0.1849
 4466W        W 8530   8.272   8.018   8.923  0.1666  0.1472  0.0447
 4467W        W 8531   8.745   8.256  11.508  0.0585 -0.1836 -0.2623
 4468W        W 8532   1.134   9.033   9.425 -0.1381 -0.1859 -0.1136
 4469W        W 8533   7.431   6.578  10.802 -0.1168  0.0603  0.0617
 4470W        W 8534   2.315   9.236  11.087 -0.0860  0.1133  0.0360
 4471W        W 8535   6.482   5.538   9.528  0.0227  0.0969 -0.1194
 4472W        W 8536   1.114   0.270  10.018 -0.1941  0.0615 -0.1617
 4473W        W 8537  10.359   1.898   4.233 -0.0255  0.0744  0.5414
 4474W        W 8538   5.248   6.121   0.512 -0.2246  0.2983 -0.3401
 4475W        W 8539   2.252   2.810  11.411 -0.1459 -0.1264 -0.1868
 4476W        W 8540   7.070   1.822   2.070 -0.2346  0.3666 -0.0527
 4477W        W 8541   9.099   5.410   2.458 -0.4015 -0.1681  0.2931
 4478W        W 8542   1.382   8.021   9.378  0.1956 -0.1998 -0.2777
 4479W        W 8543   8.383   8.390   0.327 -0.0995 -0.2964  0.1556
 4480W        W 8544   3.949   3.611   9.615 -0.0477 -0.1729  0.0457
 4481W        W 8545  10.642   1.249   2.434  0.3294 -0.0974 -0.1887
 4482W        W 8546   8.586   8.878   3.872  0.0943  0.0842 -0.1078
 4483W        W 8547   3.940   3.029   1.601 -0.1092 -0.3148 -0.0128
 4484W        W 8548   1.489   9.072  10.907  0.3521  0.1373  0.1504
 4485W        W 8549   0.904   9.145   3.670 -0.3795 -0.3022  0.4301
 4486W        W 8550   8.473   3.420   9.587  0.2585 -0.0758  0.1389
 4487W        W 8551   1.474   8.460   1.308 -0.0722 -0.0068  0.1374
 4488W        W 8552   2.026   3.511   1.662 -0.1950 -0.1019 -0.1168
 4489W        W 8553   4.200   4.320   1.496  0.0252  0.0748 -0.4452
 4490W        W 8554   0.308   7.443   6.823  0.0464  0.1381  0.0483
 4491W        W 8555   4.691   6.196   9.034 -0.0378  0.1578 -0.0082
 4492W        W 8556   6.891   2.046   1.557  0.0246 -0.1589  0.2861
 4493W        W 8557   6.081   7.812   2.558  0.1458  0.0496  0.0278
 4494W        W 8558   9.887   4.460   3.607 -0.2503  0.2317  0.1098
 4495W        W 8559   5.574   8.056  10.363  0.0398 -0.0099 -0.0341
 4496W        W 8560   4.071   0.690   3.053 -0.0184 -0.1213 -0.2246
 4497W        W 8561   6.840   2.689   9.179  0.0540  0.0028 -0.1189
 4498W        W 8562   6.726   8.021  10.380 -0.2744  0.0079 -0.1206
 4499W        W 8563   4.360   4.822   2.262 -0.2935 -0.2523  0.2751
 4500W        W 8564   7.443   8.612  11.451  0.3957 -0.1646 -0.0136
 4501W        W 8565   6.501   5.432  10.126 -0.1275  0.0521  0.1896
 4502W        W 8566   3.795   4.071   2.604 -0.2421 -0.0695  0.0755
 4503W        W 8567   2.855   1.606   8.802 -0.0040  0.4128  0.1014
 4504W        W 8568   5.015   2.168   0.520 -0.0527  0.0274  0.1418
 4505W        W 8569   4.939   1.614  10.818 -0.2765 -0.1268 -0.2074
 4506W        W 8570   7.963   0.509   8.758 -0.1313 -0.0904 -0.0788
 4507W        W 8571   5.264   6.708   7.989 -0.1618  0.1457  0.0521
 4508W        W 8572  10.178   7.636   9.293 -0.2407  0.0930 -0.3155
 4509W        W 8573   9.282   9.721   9.940  0.2947 -0.1107  0.0041
 4510W        W 8574   4.076   8.159   0.334 -0.1764  0.0438 -0.1179
 4511W        W 8575   1.569   3.537   2.197 -0.1170  0.0794  0.0019
 4512W        W 8576   0.924   1.221   7.074 -0.0420 -0.0324 -0.2110
 4513W        W 8577   9.399  10.559   1.289  0.0398  0.2019  0.1332
 4514W        W 8578   8.359   6.345  10.870  0.0376 -0.0949 -0.2632
 4515W        W 8579   6.447  10.407   1.135 -0.1046  0.0861  0.0799
 4516W        W 8580   5.168   0.965   9.910 -0.1418  0.0957 -0.2293
 4517W        W 8581   9.643   7.347   7.310 -0.1103 -0.5579 -0.3774
 4518W        W 8582   5.501   4.266   8.496 -0.0957  0.2879  0.2157
 4519W        W 8583   4.136   6.989   1.362  0.1193  0.1553  0.1530
 4520W        W 8584   2.813   5.825  11.257  0.1630 -0.0495  0.0736
 4521W        W 8585   5.118   6.252   7.738 -0.1955  0.1198  0.0664
 4522W        W 8586   3.873  10.487  10.313  0.0025 -0.0750  0.0061
 4523W        W 8587   5.847  10.196   8.423  0.0859  0.1060  0.3340
 4524W        W 8588   3.458   5.931   9.201  0.0585 -0.2201  0.2031
 4525W        W 8589   3.610   0.167   9.996  0.1990 -0.0690  0.0374
 4526W        W 8590   2.733   9.079  11.336  0.1265 -0.1323  0.0870
 4527W        W 8591   6.931   5.063   2.626  0.1281  0.0246 -0.2523
 4528W        W 8592   0.872   6.391   8.838 -0.0844 -0.1387  0.0000
 4529W        W 8593   0.297   1.621   0.141 -0.2078 -0.0552 -0.2371
 4530W        W 8594   7.990   4.345   1.339 -0.2649 -0.0360 -0.0563
 4531W        W 8595   8.055   5.585   0.442 -0.0789  0.2108 -0.1400
 4532W        W 8596   1.719   6.041   9.204  0.2297  0.2042 -0.5648
 4533W        W 8597   8.640   7.582   9.610  0.0011  0.0846  0.0592
 4534W        W 8598   7.594   1.661   8.356  0.0524 -0.1715 -0.0147
 4535W        W 8599   3.073   4.828   7.889  0.1534  0.0754  0.1350
 4536W        W 8600   4.388   2.838   2.295  0.1442 -0.0667  0.1787
 4537W        W 8601  10.104   2.353   0.416  0.0055 -0.0076  0.2052
 4538W        W 8602   7.242   9.033   7.566  0.0058 -0.1452  0.0881
 4539W        W 8603   8.878   6.770   3.529 -0.0688 -0.2457  0.0230
 4540W        W 8604   3.543   0.910   0.238  0.0481  0.0308  0.0466
 4541W        W 8605   2.342   7.427   2.420 -0.4954 -0.0927  0.3337
 4542W        W 8606   3.774   1.183  10.346 -0.0125  0.1524 -0.0837
 4543W        W 8607   7.756   7.570   2.768 -0.0213  0.1642 -0.1913
 4544W        W 8608   6.718   7.555   2.868  0.0364  0.1853  0.3210
 4545W        W 8609   0.362   6.104   2.092  0.2843 -0.1020 -0.0887
 4546W        W 8610   5.985   9.468   1.194 -0.0493 -0.0407 -0.0190
 4547W        W 8611   9.704   1.172  10.261  0.3522 -0.0767  0.1427
 4548W        W 8612   9.675   0.895   1.303  0.0286 -0.0774 -0.3083
 4549W        W 8613   6.735  10.651  10.465  0.0910 -0.0400 -0.4763
 4550W        W 8614   0.641   8.739   3.429  0.0639 -0.1553 -0.2146
 4551W        W 8615   0.632  10.128   8.430 -0.0512  0.0432 -0.1438
 4552W        W 8616  10.400   8.731   9.587  0.1228 -0.0822  0.1334
 4553W        W 8617   3.787   9.348   0.889  0.3863 -0.1566 -0.3014
 4554W        W 8618   3.967  10.312   0.425  0.0319 -0.0805 -0.1199
 4555W        W 8619   7.419   7.048  10.910  0.0871  0.1232 -0.1475
 4556W        W 8620   4.851   0.918  10.989  0.0024  0.0107  0.1837
 4557W        W 8621   5.195   8.956   2.678  0.2527  0.1322  0.2671
 4558W        W 8622   5.736   8.829  10.985  0.0932  0.0880 -0.1291
 4559W        W 8623   9.599   1.318   3.785 -0.1789 -0.1298 -0.1954
 4560W        W 8624   0.674   3.102   0.718 -0.0711  0.1357 -0.0946
 4561W        W 8625   8.985   8.792   0.141  0.0169  0.0426 -0.1097
 4562W        W 8626   7.486   0.982   3.024 -0.1443 -0.0144  0.0820
 4563W        W 8627   2.802   2.145   0.322  0.0819 -0.1578  0.3517
 4564W        W 8628   2.896   8.145   1.876  0.3998 -0.0643 -0.0090
 4565W        W 8629   8.135   3.035   8.483 -0.1525 -0.1945  0.2495
 4566W        W 8630   2.889   4.741   1.008 -0.1742 -0.1733  0.4598
 4567W        W 8631   9.730   8.627   8.671 -0.0896  0.1662  0.1668
 4568W        W 8632   2.402   2.324   3.114  0.0386  0.1107  0.2517
 4569W        W 8633   3.607   6.382  10.262 -0.3875  0.2077  0.0536
 4570W        W 8634   4.837   5.043   1.152  0.0092  0.2821 -0.2666
 4571W        W 8635   3.202   8.197   0.948 -0.1413  0.0233 -0.1642
 4572W        W 8636   4.486   0.006   9.125  0.0701  0.0176 -0.0274
 4573W        W 8637   0.962   3.745   8.297  0.3446  0.1754 -0.0640
 4574W        W 8638   7.648   8.531   9.785 -0.0354 -0.1689 -0.0127
 4575W        W 8639   2.582   9.802   9.149 -0.0375  0.4681 -0.0489
 4576W        W 8640   8.288  10.294  10.791 -0.1162 -0.0227  0.1244
 4577W        W 8641   5.441   8.487   8.386 -0.0639  0.2477 -0.0914
 4578W        W 8642   1.765   3.034  11.480 -0.0019  0.3093  0.1331
 4579W        W 8643   1.733   6.245   7.807  0.0992 -0.2906 -0.2063
 4580W        W 8644   7.739   0.655   3.409  0.1146  0.2979  0.0950
 4581W        W 8645   9.520   1.163  11.507 -0.2150 -0.2389  0.2573
 4582W        W 8646   8.926   1.532   8.659 -0.1361  0.3416 -0.2401
 4583W        W 8647   5.154   2.923   3.841 -0.1922 -0.2260 -0.1111
 4584W        W 8648  10.594   5.730  10.925 -0.1632  0.0460  0.1389
 4585W        W 8649   9.204   1.617  11.265 -0.1115 -0.3756 -0.2102
 4586W        W 8650   7.534   3.735  10.892 -0.3442  0.1305 -0.0564
 4587W        W 8651   5.971   5.071   2.703 -0.2446  0.1907 -0.1660
 4588W        W 8652   3.531   9.423   9.735  0.2004  0.1094  0.0376
 4589W        W 8653   1.967   2.398   1.510 -0.0150  0.3958 -0.1633
 4590W        W 8654   6.853   0.788   2.608  0.1172  0.3505 -0.0161
 4591W        W 8655   7.264  10.057   3.657 -0.1975 -0.2965  0.3759
 4592W        W 8656   1.325   6.805  11.378  0.1724 -0.1345  0.0152
 4593W        W 8657   7.264   6.629   1.033  0.1397 -0.0334 -0.2851
 4594W        W 8658   8.514   0.798   9.930 -0.0648  0.1117 -0.4939
 4595W        W 8659   7.620   5.438   1.783  0.1323 -0.1330 -0.0963
 4596W        W 8660   4.268   8.939   7.610 -0.3260 -0.3858 -0.0337
 4597W        W 8661   4.280   3.939   2.496  0.2740 -0.0235  0.0326
 4598W        W 8662   0.280   4.849   1.224  0.2390  0.1208 -0.3416
 4599W        W 8663   6.516   8.353   0.522 -0.0146 -0.3578 -0.1328
 4600W        W 8664   9.027   8.602   0.953 -0.1625 -0.1831 -0.1029
 4601W        W 8665   1.786   2.954   9.181  0.0982  0.0277  0.1781
 4602W        W 8666   1.539   7.245   0.069 -0.1648 -0.3855  0.0964
 4603W        W 8667   8.400   2.201  10.381 -0.0764  0.3257  0.1001
 4604W        W 8668   9.024   8.385   3.753  0.1333 -0.1538 -0.0184
 4605W        W 8669   3.820   5.820   7.847  0.0610  0.0343  0.0885
 4606W        W 8670   1.022   0.998   1.953  0.2593  0.0667  0.1151
 4607W        W 8671   0.684   5.178   0.641 -0.1720 -0.0884  0.3010
 4608W        W 8672  10.544   6.097   0.756 -0.0697  0.2341  0.2765
 4609W        W 8673   1.870   2.620   2.682  0.1996  0.0630 -0.1505
 4610W        W 8674  10.610   7.430  10.663 -0.0229 -0.3036  0.0753
 4611W        W 8675   7.453   0.332  11.411 -0.0646 -0.1721 -0.1572
 4612W        W 8676   3.104   3.506   2.845 -0.1622  0.0581  0.0380
 4613W        W 8677   6.105   0.735   3.431  0.3297  0.3526  0.0531
 4614W        W 8678   8.875   1.036   8.724  0.0342 -0.2108  0.3122
 4615W        W 8679   9.494   0.899   3.464 -0.3339  0.0435  0.0007
 4616W        W 8680   7.558   8.123   2.050  0.1498 -0.1378  0.1619
 4617W        W 8681   8.544   4.431   2.934 -0.1993  0.0926 -0.0756
 4618W        W 8682   0.468   5.029   8.890  0.2791 -0.0210  0.1118
 4619W        W 8683   4.188   3.705   2.951  0.1347 -0.2247 -0.0923
 4620W        W 8684   2.631   9.230   8.235 -0.0171 -0.1914 -0.4275
 4621W        W 8685   5.456   5.380   4.132  0.1004  0.2314  0.3183
 4622W        W 8686   0.611   7.920  11.204  0.0519  0.0684  0.0886
 4623W        W 8687  10.233   4.347  10.551  0.0928 -0.0650  0.0370
 4624W        W 8688   3.198   9.087   1.944  0.2338  0.0079  0.2251
 4625W        W 8689   1.663   9.964   0.026 -0.0822  0.1470 -0.2805
 4626W        W 8690   1.481  10.412  10.470  0.0467 -0.3369 -0.0419
 4627W        W 8691   4.312  10.504   3.119 -0.1492  0.2080  0.1038
 4628W        W 8692   0.213   2.227  10.369 -0.2062 -0.2001 -0.1068
 4629W        W 8693   0.073   1.395   0.962  0.0177  0.0796  0.1330
 4630W        W 8694   4.821   0.983   4.084  0.3047 -0.2143 -0.2601
 4631W        W 8695   3.804   0.704  10.183 -0.0903 -0.1628  0.1199
 4632W        W 8696   6.391   5.277   8.980  0.1359 -0.0178  0.0160
 4633W        W 8697   5.166   2.167  11.409  0.0098  0.1494 -0.1832
 4634W        W 8698   5.042   0.575   8.777  0.0092  0.0272  0.0091
 4635W        W 8699   7.829   5.382   2.254 -0.0354 -0.1659 -0.0041
 4636W        W 8700  10.482   1.032   9.619 -0.3133  0.0738 -0.2539
 4637W        W 8701   3.697   2.152  11.410 -0.0561 -0.1678 -0.0733
 4638W        W 8702   5.185   5.938   9.531  0.2167 -0.2090  0.1603
 4639W        W 8703   8.081   7.224   8.360 -0.3273  0.0565  0.0863
 4640W        W 8704   9.647   0.618   1.781 -0.1557 -0.2160 -0.1573
 4641W        W 8705   7.163   0.471   0.786 -0.3686  0.0791  0.0124
 4642W        W 8706   0.722   1.999   1.090  0.0869 -0.1114  0.0014
 4643W        W 8707   5.812   6.034   2.149 -0.2162  0.1393  0.2755
 4644W        W 8708   4.597   2.788   8.749 -0.2659 -0.3292  0.1109
 4645W        W 8709   5.827   6.668   0.164 -0.0243  0.3076  0.0155
 4646W        W 8710  10.492   8.772   2.012  0.2150 -0.4349 -0.0086
 4647W        W 8711   8.960  10.415   4.208 -0.0612  0.0823  0.1492
 4648W        W 8712   6.668   2.049  10.760  0.2587  0.3092  0.1557
 4649W        W 8713  10.434   4.980   0.700 -0.1312 -0.3356 -0.0717
 4650W        W 8714   7.191   9.230   9.449 -0.2634  0.4933 -0.1756
 4651W        W 8715   0.556   2.217   0.593  0.1694  0.0035  0.0461
 4652W        W 8716   1.562   3.795   1.742 -0.4248 -0.0840  0.0664
 4653W        W 8717   1.026   5.081   9.046  0.1010  0.0571  0.1649
 4654W        W 8718  10.656   7.987   9.197  0.0512  0.0372  0.1496
 4655W        W 8719   7.296   5.233  10.571  0.4479 -0.0945  0.1191
 4656W        W 8720   0.930   9.456   8.409 -0.0178 -0.4478  0.0879
 4657W        W 8721   3.649   7.214   4.030  0.2256  0.1345 -0.1630
 4658W        W 8722   6.429   9.911   3.945 -0.0670 -0.2504  0.2087
 4659W        W 8723   7.561   1.337   0.244  0.1583  0.0936  0.2030
 4660W        W 8724   3.085   9.056   0.309  0.2396 -0.0251 -0.2113
 4661W        W 8725   9.428   4.588  10.359 -0.3233 -0.0442  0.0701
 4662W        W 8726   1.085   2.125   8.944 -0.1174  0.1050  0.1100
 4663W        W 8727   5.202   8.260   2.777 -0.0541 -0.1932  0.0185
 4664W        W 8728   3.226   1.877   0.044  0.0427 -0.4026  0.3235
 4665W        W 8729   1.593   6.508   0.687 -0.1213  0.0743  0.1882
 4666W        W 8730   1.795   4.116   0.146  0.0175 -0.0194  0.3231
 4667W        W 8731  10.094   2.205   0.907  0.0463 -0.1816  0.0653
 4668W        W 8732   9.116   6.804   1.337  0.2908  0.2105  0.0676
 4669W        W 8733   1.687   7.498   3.792  0.1034  0.2571 -0.0530
 4670W        W 8734  10.168   5.038   7.793 -0.5786 -0.2762  0.0307
 4671W        W 8735   1.544   8.329   1.913  0.2933  0.1063  0.0006
 4672W        W 8736   5.264   1.831   2.178  0.2062  0.0573 -0.0511
 4673W        W 8737   9.194   9.624   3.973 -0.0756 -0.2985 -0.0379
 4674W        W 8738   1.063   0.905   3.241 -0.1972 -0.1598 -0.2135
 4675W        W 8739   3.077   2.049   1.189 -0.3223 -0.2635 -0.1290
 4676W        W 8740   1.271   2.089   9.441  0.0913  0.0741 -0.2309
 4677W        W 8741   7.223   5.223   2.013 -0.0332 -0.0907  0.2418
 4678W        W 8742   4.674   7.960  11.189  0.1692  0.1425  0.1671
 4679W        W 8743   2.408   6.893  10.354 -0.2163  0.0805  0.2377
 4680W        W 8744   1.501   7.440   9.538  0.0661 -0.0738 -0.1710
 4681W        W 8745   5.959  10.165  10.709  0.4554 -0.0410 -0.1292
 4682W        W 8746   0.312   3.834   3.357  0.0356  0.1913 -0.1234
 4683W        W 8747   9.977   4.907   0.835  0.0025  0.0554  0.1724
 4684W        W 8748   7.143   2.069   3.066  0.1932 -0.2132 -0.0860
 4685W        W 8749   6.068   7.186  11.206  0.1855 -0.7057 -0.1280
 4686W        W 8750   2.948   0.201   0.705 -0.0477 -0.1879  0.1119
 4687W        W 8751   6.274   2.818   3.016 -0.2512 -0.0393  0.1050
 4688W        W 8752   4.832   3.245   0.970 -0.1542 -0.0188 -0.0881
 4689W        W 8753   5.394   9.680   9.098  0.0803 -0.0192  0.2040
 4690W        W 8754   1.182   8.689   1.654 -0.0921 -0.1858 -0.0319
 4691W        W 8755   0.101   6.164   1.297 -0.0936 -0.2586 -0.0638
 4692W        W 8756   1.976   2.933   1.570 -0.0709 -0.2429  0.3197
 4693W        W 8757   9.659  10.356   1.764  0.1787  0.0218  0.2496
 4694W        W 8758   6.396   3.050   1.898  0.3644  0.1090 -0.1569
 4695W        W 8759   1.585   0.155   4.065 -0.1134  0.2753  0.1030
 4696W        W 8760  10.436   6.467   3.032  0.1903 -0.1105  0.2853
 4697W        W 8761   1.067   8.411   3.533  0.0122 -0.0249 -0.1166
 4698W        W 8762   1.082   1.615  11.342  0.2260  0.1749 -0.1187
 4699W        W 8763   4.052   7.345   2.295 -0.0512  0.1807 -0.2227
 4700W        W 8764   8.626   4.920   9.416 -0.1126 -0.3977  0.5249
 4701W        W 8765   3.705   8.051   9.321 -0.2870 -0.3238  0.2346
 4702W        W 8766   6.986   0.391  10.759  0.2328  0.0898 -0.1813
 4703W        W 8767   2.418   8.152   9.639  0.2159 -0.0967 -0.0808
 4704W        W 8768   8.807   0.987   3.152 -0.2184  0.0771  0.3204
 4705W        W 8769   3.675  10.363   8.116 -0.0180 -0.2444  0.1339
 4706W        W 8770   9.993   2.214   1.842 -0.1039 -0.1008 -0.0686
 4707W        W 8771   1.798   7.340   9.947 -0.2463 -0.1453 -0.0802
 4708W        W 8772   2.054   9.095  10.134  0.1245  0.0336  0.2504
 4709W        W 8773   4.501   9.359   7.841 -0.1469  0.1277  0.0678
 4710W        W 8774   2.606   8.783   1.314  0.1214  0.0318  0.2350
 4711W        W 8775   9.918   3.166   1.098  0.1572  0.0565  0.0956
 4712W        W 8776  10.656   7.363   1.371  0.2127  0.1723  0.0928
 4713W        W 8777   5.614   8.433   0.623 -0.0002 -0.2184  0.0823
 4714W        W 8778   5.705   2.145  11.283 -0.1174 -0.1945  0.1901
 4715W        W 8779   6.679   6.856   9.142 -0.1168 -0.1985  0.1287
 4716W        W 8780   1.130   7.888  11.250  0.1211  0.0400  0.1622
 4717W        W 8781   3.847   5.960   2.447  0.0309 -0.1272  0.0136
 4718W        W 8782   0.785   1.466   9.053 -0.0550 -0.0970 -0.2529
 4719W        W 8783   1.824   5.551   9.401 -0.1086 -0.2192  0.2299
 4720W        W 8784   7.148   5.747   7.792  0.0021 -0.1075 -0.0779
 4721W        W 8785   2.637   5.347   8.349 -0.1717  0.0697  0.0571
 4722W        W 8786   9.624   7.931   3.831  0.0981 -0.1019 -0.2277
 4723W        W 8787   0.572  10.125  10.642  0.2454  0.2962 -0.1159
 4724W        W 8788   0.930   1.133  11.050  0.1786 -0.2011  0.1624
 4725W        W 8789   9.448   6.818   9.965 -0.0414 -0.0882  0.0329
 4726W        W 8790   2.688   9.645   8.648 -0.0077 -0.1001  0.1805
 4727W        W 8791  10.431   4.786  10.450 -0.1374  0.0367 -0.0475
 4728W        W 8792   7.214   3.136   1.056 -0.0758 -0.0931  0.2018
 4729W        W 8793  10.331   1.220   0.719  0.4060 -0.0622 -0.0916
 4730W        W 8794   4.095   1.374   1.998 -0.4173  0.1517  0.2025
 4731W        W 8795   1.156   3.483  10.489  0.0008  0.1132 -0.1586
 4732W        W 8796   5.570   4.350   9.121 -0.0332  0.2761 -0.2206
 4733W        W 8797   6.223   5.756   8.285 -0.0942  0.1844 -0.0035
 4734W        W 8798   8.548   1.020   0.621  0.2196  0.0314 -0.0445
 4735W        W 8799   3.123  10.022  11.236  0.2751 -0.1777  0.3333
 4736W        W 8800   7.739   4.923   1.978 -0.1620  0.0691  0.1279
 4737W        W 8801   4.780   4.201   0.254  0.1862  0.0955  0.1754
 4738W        W 8802   6.075   3.162   1.127  0.0710 -0.0565 -0.0283
 4739W        W 8803  10.209   0.941  10.065 -0.3681  0.5210 -0.1632
 4740W        W 8804   2.463   2.066   3.730 -0.1073  0.2946  0.2338
 4741W        W 8805   4.794   9.462   9.914 -0.3380 -0.0764  0.0066
 4742W        W 8806   4.102   7.932   2.129  0.2061 -0.0216  0.1282
 4743W        W 8807   9.799   7.982   1.072 -0.1806  0.2285  0.2890
 4744W        W 8808   3.349   3.424   8.604  0.0873  0.0182  0.0004
 4745W        W 8809   5.727   1.654   2.060 -0.0297  0.0940 -0.1336
 4746W        W 8810   9.561   0.893   0.455  0.2362 -0.0715  0.3347
 4747W        W 8811   7.295   2.111   9.419 -0.0068 -0.1435  0.0237
 4748W        W 8812   0.170   2.129   3.534 -0.2047 -0.0726  0.4532
 4749W        W 8813   3.506  10.238   0.149 -0.2779  0.1892  0.2103
 4750W        W 8814   9.359   1.829   8.470  0.0643 -0.0260  0.0947
 4751W        W 8815   0.826   3.668   9.760  0.0611  0.1107  0.2854
 4752W        W 8816   2.446   7.579   3.283 -0.1048 -0.0400  0.0101
 4753W        W 8817   2.999   5.617  10.154 -0.0517  0.1606  0.1217
 4754W        W 8818   8.153   1.395   9.180 -0.0768 -0.3741  0.3430
 4755W        W 8819  10.176   9.212   8.243 -0.0802 -0.0268 -0.2738
 4756W        W 8820   0.179   4.067   2.916 -0.0817  0.0921 -0.1843
 4757W        W 8821   5.847   0.727  11.271  0.1829  0.0561  0.0131
 4758W        W 8822   1.276   6.437   8.576  0.3596 -0.1737 -0.4227
 4759W        W 8823   4.341  10.403   9.514 -0.0287  0.0570  0.0883
 4760W        W 8824  10.495  10.173   1.444 -0.1560  0.0375 -0.0002
 4761W        W 8825   7.560   7.844   0.612 -0.0137  0.1426  0.1429
 4762W        W 8826  10.263   3.656   1.128  0.0351 -0.3123 -0.1912
 4763W        W 8827   8.399   2.807  10.717 -0.0929 -0.0554 -0.1313
 4764W        W 8828   2.976   7.331   0.131 -0.2337 -0.1320  0.0648
 4765W        W 8829   9.107   6.171   9.320  0.0155  0.3263 -0.2340
 4766W        W 8830   2.294   6.307   7.465 -0.0521  0.1483 -0.0904
 4767W        W 8831   9.245   1.709  10.753 -0.2213 -0.0026 -0.0317
 4768W        W 8832   8.986   4.727   3.777 -0.0930  0.2033  0.1662
 4769W        W 8833   4.309   0.631   3.519  0.1375  0.1086  0.5048
 4770W        W 8834   3.332   0.788  10.680 -0.2847 -0.3673 -0.1884
 4771W        W 8835  10.170   6.946   3.237 -0.2001 -0.0319  0.1919
 4772W        W 8836   7.380   4.541  10.743  0.2097  0.0767 -0.2185
 4773W        W 8837   4.752   0.938   8.451 -0.0106 -0.0402 -0.2307
 4774W        W 8838   2.069   9.690   1.364 -0.2841  0.1900 -0.1085
 4775W        W 8839   6.986   9.585   0.826 -0.1397 -0.1045 -0.1937
 4776W        W 8840   2.087   9.755   8.895 -0.2961  0.1587  0.2297
 4777W        W 8841   1.143   0.509   9.594  0.0198 -0.1869  0.1243
 4778W        W 8842   6.525   5.390  11.460 -0.0228 -0.0528  0.1070
 4779W        W 8843  10.035   7.775   7.804  0.4483  0.0612  0.3353
 4780W        W 8844   2.839   4.830   2.448  0.1564 -0.0383  0.1581
 4781W        W 8845   1.154   2.890   9.928  0.1365  0.1924  0.0454
 4782W        W 8846   8.691   4.130  10.199 -0.5008  0.0126  0.0870
 4783W        W 8847   0.617   5.962  11.349  0.0057  0.1052  0.1657
 4784W        W 8848   8.517   8.878   2.731  0.2647 -0.0458 -0.2325
 4785W        W 8849   8.556   5.424   1.690  0.1364  0.0085 -0.1623
 4786W        W 8850   8.024   3.669   2.498 -0.2076  0.1295  0.0382
 4787W        W 8851   9.917   2.503   9.540 -0.3767  0.2026  0.1678
 4788W        W 8852   8.102  10.544   2.016  0.2545 -0.1318 -0.0026
 4789W        W 8853   4.516   8.392   8.904 -0.0065  0.3083 -0.1537
 4790W        W 8854   9.748   2.311   0.053 -0.1561 -0.1068 -0.1935
 4791W        W 8855   6.282   3.111   0.595  0.0911  0.4466  0.0823
 4792W        W 8856   1.035  10.601  10.375 -0.2662 -0.2922 -0.0425
 4793W        W 8857   8.401   7.974   9.717 -0.0509 -0.1793  0.0364
 4794W        W 8858   9.752   1.672  10.466 -0.1180  0.0710 -0.1569
 4795W        W 8859   1.194   3.177   7.949 -0.0454 -0.0531  0.1115
 4796W        W 8860   5.007   2.926  10.881  0.0373  0.0039  0.1843
 4797W        W 8861   3.323   5.815   0.039 -0.0247  0.3391  0.2092
 4798W        W 8862   7.007   9.068   9.893 -0.2240  0.3374  0.2433
 4799W        W 8863   0.050   9.693   1.599 -0.0640  0.2044  0.3912
 4800W        W 8864   1.494   0.545  10.047 -0.1848 -0.0830 -0.1748
 4801W        W 8865   5.084   5.042   0.732 -0.0182 -0.0023  0.0998
 4802W        W 8866   8.818   0.822  11.173  0.0265 -0.1057  0.0162
 4803W        W 8867   7.880   4.466  11.327 -0.0065 -0.0189 -0.1279
 4804W        W 8868   9.166   5.017   2.715  0.1476  0.2864 -0.0806
 4805W        W 8869   7.981   8.980   2.771  0.0329 -0.0250  0.1667
 4806W        W 8870   2.355   2.648   1.702 -0.0725  0.1306  0.1138
 4807W        W 8871   6.278   6.315   2.209  0.0087  0.2198  0.2153
 4808W        W 8872   0.034   4.214   2.343 -0.0059 -0.3872 -0.1081
 4809W        W 8873   7.382   6.970   1.425  0.0314 -0.0177 -0.0239
 4810W        W 8874   2.320   9.156   3.304 -0.1377  0.3310 -0.0625
 4811W        W 8875   2.579   4.813   9.622 -0.1153 -0.2081 -0.1871
 4812W        W 8876   2.691   9.600   9.626 -0.1056  0.2222 -0.0169
 4813W        W 8877   7.837   4.172   8.713  0.1583  0.1315  0.2124
 4814W        W 8878   4.300   1.783   3.877  0.3275 -0.1265  0.0340
 4815W        W 8879   0.762   2.680   0.466 -0.1102  0.0100 -0.3427
 4816W        W 8880   2.348   5.535  11.316 -0.2249  0.0883  0.3793
 4817W        W 8881   2.749   1.180   7.626 -0.1412 -0.1482 -0.1732
 4818W        W 8882   8.817   1.933   3.369  0.1115 -0.2083  0.0322
 4819W        W 8883   4.499   9.677   8.201  0.1745  0.1216 -0.1029
 4820W        W 8884   2.747   5.247   3.101  0.1349 -0.1711  0.0949
 4821W        W 8885   2.879   7.237   9.034 -0.0736 -0.1011 -0.1759
 4822W        W 8886   7.425   4.802   8.109 -0.3866  0.2096  0.1722
 4823W        W 8887  10.592   9.779   1.087  0.0478 -0.1776  0.1475
 4824W        W 8888   7.003   5.376   8.753 -0.2561 -0.4184 -0.1365
 4825W        W 8889   9.371   6.355  10.164 -0.0129  0.1857 -0.1220
 4826W        W 8890   7.389   3.960   0.687  0.1296 -0.2894 -0.1369
 4827W        W 8891   4.203  10.013   2.077  0.2285 -0.0267  0.1363
 4828W        W 8892   2.499   3.034   8.763 -0.0642 -0.1242 -0.0931
 4829W        W 8893   4.345   8.813   2.985 -0.0980 -0.0966  0.1201
 4830W        W 8894   4.202   0.743   1.965  0.1422  0.0333 -0.1229
 4831W        W 8895   6.106   6.786   2.488  0.3033 -0.2714  0.0403
 4832W        W 8896   6.439   2.499   1.852  0.3451 -0.0603  0.1209
 4833W        W 8897   0.273   0.772   0.654 -0.2587 -0.2387  0.2446
 4834W        W 8898   3.471   0.074   0.751 -0.1272 -0.0308  0.1945
 4835W        W 8899   2.822  10.261   9.279 -0.1077 -0.1603  0.4246
 4836W        W 8900  10.276  10.427   1.055 -0.1856  0.2234  0.1179
 4837W        W 8901   6.277   7.710  10.038  0.2176 -0.0668 -0.0664
 4838W        W 8902   7.474   3.267   9.758  0.0105  0.0060 -0.0805
 4839W        W 8903   2.348  10.480  10.472  0.0063  0.1840  0.1080
 4840W        W 8904  10.120   6.434   1.003  0.0617 -0.0235 -0.1537
 4841W        W 8905   8.686   0.858   2.706  0.0431  0.0170 -0.1874
 4842W        W 8906   9.724   2.345   2.674 -0.0890  0.0746  0.0735
 4843W        W 8907   5.898   2.550  10.754  0.1015  0.0258  0.1471
 4844W        W 8908   3.358   9.584   2.589  0.4695  0.1148 -0.2453
 4845W        W 8909   8.776   1.709   2.020  0.1711  0.2888 -0.1503
 4846W        W 8910   2.173   4.268   2.173 -0.1745 -0.1438  0.1233
 4847W        W 8911   6.637   8.663   1.524  0.0296  0.2650 -0.1592
 4848W        W 8912   4.640   0.060   2.786 -0.0078  0.0157  0.0704
 4849W        W 8913   4.721  10.029   2.404  0.3030  0.2849  0.4890
 4850W        W 8914   9.343   0.197  10.932  0.3361 -0.3689 -0.0508
 4851W        W 8915   8.836   4.835   3.061  0.2785 -0.0247 -0.1918
 4852W        W 8916   7.295   5.013   0.992  0.1508  0.0781 -0.2543
 4853W        W 8917  10.368   5.204   3.373 -0.3437  0.1607  0.0969
 4854W        W 8918   3.587   5.665   1.504  0.2141 -0.0361  0.2979
 4855W        W 8919   8.665   0.138   9.197 -0.0640  0.3070 -0.0255
 4856W        W 8920   2.873   7.125   8.539 -0.2117 -0.2624  0.4556
 4857W        W 8921   3.812   6.475   2.250  0.0746  0.1833 -0.1235
 4858W        W 8922   7.004   8.226  10.810 -0.2905  0.1629  0.0239
 4859W        W 8923   9.759   4.121   9.356  0.2688  0.0812 -0.2414
 4860W        W 8924   9.251   7.077  11.443 -0.2972 -0.1330  0.4932
 4861W        W 8925   0.130   0.051   3.249  0.0570  0.4140  0.0135
 4862W        W 8926   2.606   5.827   8.341  0.4295 -0.0824 -0.0577
 4863W        W 8927   0.525   6.572   7.905 -0.1551  0.1820 -0.2274
 4864W        W 8928   2.598   1.186   3.282  0.0175  0.2517  0.0816
 4865W        W 8929   5.595   2.764   3.681  0.0827 -0.1802  0.1604
 4866W        W 8930   0.596   1.309  11.331  0.1997 -0.3499  0.2073
 4867W        W 8931   3.000   8.722  10.011  0.1239  0.1492 -0.0108
 4868W        W 8932   0.786   0.181   7.591  0.0410 -0.1902  0.1277
 4869W        W 8933   3.370   7.674   0.009 -0.0233 -0.2874 -0.0080
 4870W        W 8934   2.217   5.943   8.888  0.2587 -0.1261  0.0161
 4871W        W 8935   8.537   4.323   9.688 -0.1623 -0.4498  0.1648
 4872W        W 8936   4.509   6.015  10.367 -0.2360 -0.1259 -0.2424
 4873W        W 8937   3.267   2.918   0.221 -0.2855 -0.1524  0.1180
 4874W        W 8938   8.555   6.241   0.736 -0.3401 -0.0127  0.1959
 4875W        W 8939   1.687   8.734   8.364  0.1701  0.1689  0.1472
 4876W        W 8940   0.580   4.235   3.725  0.0184  0.0732 -0.0683
 4877W        W 8941   0.313   2.159   2.950 -0.1636  0.0534 -0.0507
 4878W        W 8942   9.500   0.999  10.783 -0.2041 -0.0927 -0.1605
 4879W        W 8943   3.033   3.466  11.314 -0.1686 -0.0514  0.0334
 4880W        W 8944   6.705   4.490   3.029  0.3425 -0.2233  0.2426
 4881W        W 8945   1.603   6.345   2.863 -0.0539  0.0022 -0.3315
 4882W        W 8946   2.589   0.384   1.765 -0.0202  0.0627  0.0157
 4883W        W 8947   1.703   3.039   8.213  0.2012 -0.0438 -0.1500
 4884W        W 8948   9.657   1.145   9.285  0.2211 -0.2313 -0.4439
 4885W        W 8949   8.503   7.564   8.350  0.0252 -0.0256 -0.3274
 4886W        W 8950   7.840   8.004   7.610  0.2183  0.0711  0.1048
 4887W        W 8951   2.189   0.244  10.214 -0.1184  0.1505 -0.1906
 4888W        W 8952  10.046   1.757   7.648 -0.0585 -0.1059 -0.1897
 4889W        W 8953  10.614   6.942   2.913 -0.0443 -0.3883 -0.2020
 4890W        W 8954   5.472   5.375   0.115 -0.2866 -0.1362 -0.0129
 4891W        W 8955   2.095   4.338   0.949  0.3490  0.0865  0.0990
 4892W        W 8956   2.532   8.401   2.105  0.1038  0.1869  0.0577
 4893W        W 8957   6.846   8.366   2.595  0.0044  0.0430 -0.2598
 4894W        W 8958   3.323   4.202   2.417 -0.1429  0.2694  0.0062
 4895W        W 8959   7.960   7.605   3.685 -0.0960 -0.0763  0.1287
 4896W        W 8960   9.737   9.664   8.686  0.1614 -0.1156 -0.1250
 4897W        W 8961   4.879   9.502   2.421  0.0391  0.2606 -0.0682
 4898W        W 8962  10.130  10.305   1.705  0.0145 -0.2586  0.2314
 4899W        W 8963   8.148   5.016   9.232  0.0335 -0.1959  0.0843
 4900W        W 8964   9.964   8.197   2.893  0.3479 -0.1148  0.1943
 4901W        W 8965   4.244   7.402  10.589 -0.0795 -0.1336 -0.1012
 4902W        W 8966   4.274   0.435   8.416  0.2802 -0.1209  0.1493
 4903W        W 8967   3.786   1.355   0.204 -0.2002  0.0258 -0.3499
 4904W        W 8968   1.836   4.358   9.901 -0.0397 -0.0256  0.0040
 4905W        W 8969   6.276   3.377   2.890 -0.1039 -0.0947 -0.1490
 4906W        W 8970   4.830   1.493   9.885  0.2467  0.1018  0.5112
 4907W        W 8971   4.281   2.649   3.767 -0.0591  0.3697 -0.0978
 4908W        W 8972   6.954   4.822  10.589 -0.1538  0.1424 -0.4163
 4909W        W 8973  10.564   6.184  11.047  0.1001  0.0378 -0.1236
 4910W        W 8974   0.379   4.955   9.894 -0.0784 -0.0468  0.1216
 4911W        W 8975   9.007   9.109   1.903 -0.0812  0.0839 -0.4251
 4912W        W 8976   3.722   8.573   9.597 -0.1863 -0.2111  0.0646
 4913W        W 8977   5.578   4.765   8.678 -0.0269  0.0489  0.1807
 4914W        W 8978   0.687   2.390  11.084  0.1383  0.1153  0.0366
 4915W        W 8979   7.459   5.016   3.736 -0.0031 -0.1959  0.3177
 4916W        W 8980   1.419   4.627   3.111  0.0453 -0.0260  0.1690
 4917W        W 8981   0.586   1.562   9.674 -0.1457 -0.2565  0.0531
 4918W        W 8982   8.604   7.988   0.446  0.0919 -0.0541 -0.1842
 4919W        W 8983   2.676   3.391  10.386 -0.0456  0.0716 -0.4411
 4920W        W 8984   6.159   1.861  10.413 -0.0614 -0.1419 -0.2020
 4921W        W 8985   8.357   0.636  11.414 -0.0119 -0.1739 -0.0407
 4922W        W 8986   3.802   7.111   9.634 -0.0274  0.1038  0.0932
 4923W        W 8987   7.965  10.626  10.571 -0.2141 -0.3344 -0.0264
 4924W        W 8988   9.208   6.191  11.170 -0.2626  0.0686  0.1319
 4925W        W 8989   5.500   1.456   8.760  0.2796 -0.0739 -0.3961
 4926W        W 8990   5.785  10.663   2.750 -0.0479 -0.1948  0.1082
 4927W        W 8991   7.369  10.001   0.789  0.3143 -0.0470 -0.1369
 4928W        W 8992   0.119   3.747   1.942 -0.1525  0.2721  0.2146
 4929W        W 8993  10.318   4.389   8.402  0.1400 -0.4287  0.2301
 4930W        W 8994   5.378   6.469   9.466  0.2415  0.0026  0.0602
 4931W        W 8995   7.942   9.817   1.445 -0.1628  0.4567 -0.3499
 4932W        W 8996   4.035   4.703  10.487  0.1464  0.0771  0.0502
 4933W        W 8997   3.331   3.785   1.651 -0.0037 -0.0085 -0.1543
 4934W        W 8998  10.620   7.773   3.224  0.0493  0.3219 -0.2291
 4935W        W 8999   7.832   9.351  10.075  0.0241 -0.0197  0.1240
 4936W        W 9000   2.122   4.788   8.945 -0.0095  0.0891  0.1142
 4937W        W 9001   4.754   6.409   2.796  0.0041 -0.0117  0.1866
 4938W        W 9002   5.673   3.543   0.834 -0.1548  0.0154  0.1907
 4939W        W 9003   5.436   7.042   8.365  0.2054  0.1657  0.1963
 4940W        W 9004   5.930   8.407   1.408  0.0285 -0.1881 -0.0988
 4941W        W 9005   2.356   6.088   3.221  0.0509 -0.0184 -0.1404
 4942W        W 9006   6.836  10.129  10.467  0.1269 -0.2011 -0.2805
 4943W        W 9007   5.731   1.904   0.208  0.1229 -0.1285 -0.4097
 4944W        W 9008   9.618   2.776   9.201  0.0599 -0.2855 -0.0687
 4945W        W 9009   2.830   0.237  11.244 -0.1286 -0.0537 -0.1176
 4946W        W 9010   6.069   4.334   1.854 -0.0602 -0.0584  0.0766
 4947W        W 9011   1.753   5.265  11.197  0.0097 -0.0643 -0.1718
 4948W        W 9012   9.151   2.796   9.384 -0.0193 -0.0961  0.1499
 4949W        W 9013   7.282   8.505   9.033 -0.2307  0.0884 -0.1093
 4950W        W 9014   1.357   8.400   8.198 -0.0902  0.1331 -0.0362
 4951W        W 9015   4.715   0.500   9.166 -0.0012 -0.0995 -0.3478
 4952W        W 9016   4.798   2.728  10.438  0.0380 -0.0994  0.4212
 4953W        W 9017   2.782   9.644  11.094 -0.1389  0.1310  0.1207
 4954W        W 9018   1.630   1.462   8.277  0.0778 -0.1065 -0.1553
 4955W        W 9019   5.557   6.797   2.430  0.0214 -0.1088 -0.5329
 4956W        W 9020   5.264   5.245  10.383 -0.2428  0.0239  0.3920
 4957W        W 9021  10.665   5.720  10.039 -0.3399  0.1475  0.2113
 4958W        W 9022   0.351   1.192  10.894 -0.0639 -0.2250 -0.1381
 4959W        W 9023   8.486   4.535  10.507  0.0869  0.2833 -0.2698
 4960W        W 9024   6.529   3.918   0.070 -0.1256 -0.1247 -0.1428
 4961W        W 9025   6.734   7.357   7.787 -0.2458  0.0269 -0.1467
 4962W        W 9026   8.765   4.538   0.688 -0.3137  0.0907 -0.2134
 4963W        W 9027   2.556   8.807   2.992 -0.0867 -0.1681  0.0904
 4964W        W 9028   7.043   7.352   0.271  0.0440  0.1894 -0.3894
 4965W        W 9029   0.412   0.442  10.162  0.0893 -0.2523 -0.0808
 4966W        W 9030   4.471   8.939   1.284  0.1952  0.0206 -0.1291
 4967W        W 9031   1.585   0.050   3.566  0.1732 -0.0346 -0.0137
 4968W        W 9032   6.703   6.222   0.225 -0.1300  0.0043  0.2038
 4969W        W 9033   9.761  10.006   7.786 -0.0153 -0.0730 -0.1470
 4970W        W 9034   4.302   2.960   9.109  0.0459 -0.2787 -0.0910
 4971W        W 9035   8.647   9.951   0.744  0.2748 -0.0867  0.1355
 4972W        W 9036   3.118   8.519   3.317  0.2656 -0.1468  0.2532
 4973W        W 9037   0.168   4.555  10.127  0.2565  0.3089  0.1075
 4974W        W 9038   6.060   6.312   1.549  0.1787  0.0155 -0.0727
 4975W        W 9039   5.883   7.525   1.879  0.0374  0.1612 -0.0062
 4976W        W 9040   9.860   3.772   1.360  0.0751 -0.2176  0.1292
 4977W        W 9041   1.142   5.823  11.491 -0.0803 -0.2164 -0.3024
 4978W        W 9042   7.406   1.382   1.055  0.0616  0.2673  0.0366
 4979W        W 9043   8.094   5.356   1.530  0.0935 -0.2620  0.0564
 4980W        W 9044   6.745   1.393   9.487  0.2160  0.2586 -0.1695
 4981W        W 9045   2.660   8.679   3.920  0.0488 -0.1493 -0.3933
 4982W        W 9046   3.831   7.282   0.549 -0.0106 -0.4302  0.2092
 4983W        W 9047   1.532   2.668   1.580  0.1184  0.0666  0.1800
 4984W        W 9048   5.659   0.002   8.445  0.2561  0.3966  0.0460
 4985W        W 9049   3.358   5.520   8.887 -0.2667 -0.1349  0.1477
 4986W        W 9050   2.845   9.570   2.580  0.2592  0.1896  0.2750
 4987W        W 9051   1.426   2.483  11.065 -0.0067  0.5572 -0.1042
 4988W        W 9052   4.808   8.894   0.803 -0.0376  0.0164  0.1578
 4989W        W 9053   3.876   9.117   8.784 -0.2591 -0.1027 -0.2977
 4990W        W 9054   0.897   6.647   9.273  0.0079 -0.2684  0.0487
 4991W        W 9055   2.580   7.696   2.018 -0.1190 -0.2027 -0.3949
 4992W        W 9056   5.013   7.925   1.826 -0.1586  0.2205 -0.1100
 4993W        W 9057   4.397   3.499   2.186  0.0933 -0.0111  0.1645
 4994W        W 9058   7.962   0.204   1.535  0.1061 -0.0764 -0.1591
 4995W        W 9059  10.445   1.406  11.491  0.1156 -0.2071 -0.0870
 4996W        W 9060   8.521   6.905   2.704 -0.1008 -0.1963 -0.1131
 4997W        W 9061   5.432   5.357   3.620 -0.0331  0.0137 -0.0295
 4998W        W 9062   9.057   5.744  11.213 -0.0088  0.4825 -0.1969
 4999W        W 9063   3.585   0.327  10.541  0.1035  0.1219 -0.0330
 5000W        W 9064   2.611   6.459   9.512 -0.0187  0.0507 -0.0055
 5001W        W 9065   7.469   9.800   3.196  0.2573 -0.0969  0.2986
 5002W        W 9066   9.712   3.065   8.757 -0.0934  0.1324  0.0383
 5003W        W 9067   2.939   2.338   8.134  0.0676 -0.4888  0.1003
 5004W        W 9068   9.319   8.055   8.003  0.1976 -0.1077 -0.1372
 5005W        W 9069   7.300   1.781   8.948 -0.0328  0.1876  0.1410
 5006W        W 9070   1.592   0.547  10.889 -0.0235  0.0190 -0.1308
 5007W        W 9071   3.887  10.273   2.993 -0.2411  0.0464 -0.1026
 5008W        W 9072   6.824   5.964  10.782  0.1650  0.0806  0.3612
 5009W        W 9073   9.584   0.622   9.138 -0.2068  0.0682  0.4324
 5010W        W 9074   5.145   4.584   1.104  0.0074 -0.2089  0.0719
 5011W        W 9075   5.025  10.535   8.991 -0.2650 -0.0210  0.1868
 5012W        W 9076   6.069   8.448  11.107 -0.0145 -0.1947  0.0878
 5013W        W 9077   8.135   0.164   2.815 -0.2723 -0.0556 -0.1272
 5014W        W 9078   9.224   7.421   9.453 -0.1937  0.0580 -0.4154
 5015W        W 9079   2.845   3.478   3.290 -0.0704  0.2282 -0.0201
 5016W        W 9080  10.196   7.140   1.459 -0.1160  0.2393 -0.0156
 5017W        W 9081  10.311   5.281   2.487  0.1082  0.0401  0.2797
 5018W        W 9082   4.544   3.732   7.610  0.0265 -0.0438  0.2198
 5019W        W 9083   1.221   6.768  10.082  0.3135  0.0638  0.0998
 5020W        W 9084   7.028   4.490  10.264  0.2989  0.2528  0.3369
 5021W        W 9085   8.448   7.008   2.118 -0.1877 -0.1722 -0.1007
 5022W        W 9086   0.994   4.128   9.567 -0.2687  0.0899  0.0479
 5023W        W 9087   0.043   0.302   0.768  0.1122  0.2528  0.5306
 5024W        W 9088   2.654   8.482  10.286 -0.0307  0.1002  0.2339
 5025W        W 9089   3.198   7.843   0.403 -0.0263 -0.0832  0.2444
 5026W        W 9090   1.824   7.861   1.847 -0.0370 -0.0434  0.2049
 5027W        W 9091   9.518   7.840   9.688 -0.0213  0.3356 -0.1609
 5028W        W 9092   5.146   7.851  10.501 -0.1164 -0.3123 -0.1997
 5029W        W 9093   0.440   1.568   1.380 -0.3449 -0.1126  0.1414
 5030W        W 9094   1.311   2.590   9.218 -0.0246  0.1512  0.3958
 5031W        W 9095   3.152   8.320   2.663  0.0104  0.3921  0.2790
 5032W        W 9096   5.011   6.662   3.105  0.4572  0.1606 -0.0463
 5033W        W 9097   8.501   7.458   0.294 -0.3653  0.2287  0.0328
 5034W        W 9098   8.237   8.277   3.170 -0.2279 -0.1513  0.0668
 5035W        W 9099   6.103   5.575   9.903  0.0387 -0.0473 -0.1290
 5036W        W 9100   9.828   9.325   9.403 -0.1199  0.1849  0.0185
 5037W        W 9101   5.955   0.447  10.746  0.0474 -0.2562 -0.1104
 5038W        W 9102   2.508   7.763  10.997  0.1836  0.0837  0.0077
 5039W        W 9103   3.467   8.514   3.014 -0.3841  0.0174  0.2502
 5040W        W 9104   7.260   5.736   1.982 -0.2729 -0.2907 -0.1508
 5041W        W 9105   4.253   9.656   2.417 -0.4753  0.0240 -0.2229
 5042W        W 9106   5.847   7.211   2.251 -0.0376 -0.3212 -0.0048
 5043W        W 9107   1.227   9.643  10.786 -0.3177  0.1928 -0.2818
 5044W        W 9108   7.117   6.337  11.525 -0.2103  0.1295 -0.0121
 5045W        W 9109  10.311   1.691   0.905  0.0511 -0.1376  0.1165
 5046W        W 9110   5.447  10.104   0.880  0.4066 -0.1334  0.0647
 5047W        W 9111   1.379   6.846   1.038 -0.2001 -0.2099  0.1788
 5048W        W 9112  10.587   4.488   2.977  0.0714  0.2530  0.0233
 5049W        W 9113   5.372   9.294   0.332 -0.1206 -0.1638  0.0726
 5050W        W 9114   8.155   9.881   3.162 -0.1693  0.1345 -0.3889
 5051W        W 9115   4.614   0.615  10.614 -0.0048 -0.0535 -0.5682
 5052W        W 9116   3.155   4.499   9.487  0.0244  0.0857 -0.2576
 5053W        W 9117   7.387   1.617  11.395  0.0393  0.1419  0.0077
 5054W        W 9118   8.302   5.372   8.213 -0.3556  0.0922 -0.3042
 5055W        W 9119   6.998   4.179   2.695 -0.0086  0.2493  0.0779
 5056W        W 9120   6.708   1.512  10.755 -0.1342  0.0433  0.0642
 5057W        W 9121   4.372   7.007   7.960 -0.1381  0.1799  0.0207
 5058W        W 9122   1.339   4.354   7.677  0.2036  0.1026 -0.2819
 5059W        W 9123   2.345   0.314   2.730  0.2563  0.2401  0.0980
 5060W        W 9124   9.753   6.527   7.740 -0.0024 -0.1659  0.1620
 5061W        W 9125   5.566  10.582   3.460  0.0002 -0.2187  0.2226
 5062W        W 9126   0.415   4.085   0.828 -0.0474  0.2718  0.0461
 5063W        W 9127   4.634   5.366   2.254 -0.1323 -0.0956  0.0130
 5064W        W 9128   5.649   9.875  11.065  0.1295 -0.0057 -0.0924
 5065W        W 9129  10.340   7.857   2.836 -0.0376  0.0633 -0.2645
 5066W        W 9130   1.150   3.527   1.544 -0.1001  0.6273 -0.3003
 5067W        W 9131   0.820   1.850   9.354 -0.1011  0.0286 -0.1435
 5068W        W 9132   1.731   7.061   7.420  0.1012  0.2886 -0.0011
 5069W        W 9133   3.589   6.784   2.664  0.1816 -0.0472 -0.2879
 5070W        W 9134  10.063   0.967   1.860 -0.2399  0.0023 -0.0102
 5071W        W 9135   5.252   6.192   2.496  0.0031  0.1577  0.3034
 5072W        W 9136   0.414   8.116   8.923 -0.5288  0.2067 -0.3338
 5073W        W 9137   8.717   8.100   3.417 -0.4054 -0.2218  0.1831
 5074W        W 9138   5.505   9.041   1.781 -0.0298 -0.0603 -0.2028
 5075W        W 9139   5.801   9.294   9.055 -0.1335 -0.0868  0.0041
 5076W        W 9140   0.572  10.065   3.299 -0.2467  0.2246 -0.4336
 5077W        W 9141   9.991   6.344  10.524 -0.1131  0.1164 -0.3515
 5078W        W 9142   6.207   4.558  11.286  0.3046 -0.3615  0.1990
 5079W        W 9143   5.404   3.710   2.196 -0.1537 -0.0302 -0.1155
 5080W        W 9144   2.377   9.191   8.750  0.1001  0.0126  0.2795
 5081W        W 9145   1.728   5.329   1.097  0.0277 -0.1670  0.6372
 5082W        W 9146   7.571   4.642   0.765 -0.1029 -0.1311 -0.1397
 5083W        W 9147   2.863   0.572   9.453  0.0705  0.1905  0.3216
 5084W        W 9148   5.554   4.233   1.944  0.0557  0.0057  0.0271
 5085W        W 9149  10.363   4.987   1.686 -0.0835 -0.0479 -0.0382
 5086W        W 9150   8.193   9.764   0.597  0.0821  0.2205  0.1293
 5087W        W 9151   5.497   7.667   0.174 -0.2945  0.2029 -0.0499
 5088W        W 9152   6.808   5.241   0.384 -0.1821  0.2164  0.1126
 5089W        W 9153   3.678   3.463   1.359  0.0617  0.0080  0.0918
 5090W        W 9154   6.520   4.539   8.508 -0.0353  0.2111  0.1447
 5091W        W 9155   7.894   7.159   9.660  0.2382 -0.0743 -0.2144
 5092W        W 9156   0.197  10.406   1.664  0.0988 -0.0170 -0.2434
 5093W        W 9157   1.192   7.295   1.496 -0.0252  0.0533 -0.0771
 5094W        W 9158   2.106   1.615   2.744 -0.0020 -0.0432 -0.0156
 5095W        W 9159   2.510   9.416   2.931 -0.0175 -0.0374 -0.2294
 5096W        W 9160   6.870   0.003   9.944 -0.1632 -0.2055  0.0703
 5097W        W 9161   9.891   6.839  10.829 -0.0203  0.0424  0.1244
 5098W        W 9162   1.282   4.905   7.890 -0.1583 -0.0032 -0.1371
 5099W        W 9163   2.564   3.495   8.990  0.1256  0.0143 -0.1627
 5100W        W 9164   9.248   1.214   9.586 -0.1085  0.0641 -0.0806
 5101W        W 9165   6.282   9.940   1.218 -0.2167 -0.0466 -0.4640
 5102W        W 9166  10.351   2.502   8.305  0.2570 -0.0361 -0.0631
 5103W        W 9167   5.912   8.075  11.337  0.0888  0.2661 -0.0194
 5104W        W 9168   9.092   2.351   3.197  0.0619 -0.0475  0.1715
 5105W        W 9169   3.167   7.699   7.537  0.0010 -0.1296 -0.2429
 5106W        W 9170   1.177   4.073   1.443  0.0452  0.2989 -0.3323
 5107W        W 9171   9.351   8.284   7.582  0.1285 -0.1873  0.0603
 5108W        W 9172   7.238   1.002   1.369  0.2528  0.3522 -0.2191
 5109W        W 9173   3.362   0.476   0.493  0.0814 -0.4128  0.2163
 5110W        W 9174   6.277   5.400   7.879  0.0982 -0.3372  0.4131
 5111W        W 9175   2.233   7.788  11.511  0.1060 -0.2249 -0.3956
 5112W        W 9176   8.524   8.697   7.497  0.1154  0.2400 -0.3132
 5113W        W 9177   2.331   3.341   9.458  0.3134  0.0669 -0.3500
 5114W        W 9178   2.736   1.378  10.367 -0.0058  0.2213 -0.2940
 5115W        W 9179   0.771   7.753   0.879  0.4980 -0.2024  0.1289
 5116W        W 9180  10.659   9.220   0.499  0.2572 -0.0189  0.1641
 5117W        W 9181   3.972  10.039   0.031  0.1831  0.0295 -0.0092
 5118W        W 9182   0.314   9.607   0.333 -0.2751 -0.0479 -0.1188
 5119W        W 9183   9.911   7.424   1.108 -0.1817 -0.1207  0.2038
 5120W        W 9184   7.656   1.494  10.651 -0.0631  0.1509  0.2327
 5121W        W 9185   8.724   2.437  10.758 -0.0657  0.2131  0.0932
 5122W        W 9186   3.702   3.743  10.270  0.1054 -0.0670  0.4421
 5123W        W 9187   2.834  10.200   9.752  0.1588 -0.0490 -0.2174
 5124W        W 9188   5.020   9.624   3.148 -0.0021 -0.3258 -0.1068
 5125W        W 9189   3.715   3.871   3.564 -0.1003  0.0133 -0.1987
 5126W        W 9190   3.944   8.381   3.211  0.0258 -0.0337 -0.2801
 5127W        W 9191   4.212   3.925   0.731  0.1244  0.0005 -0.2138
 5128W        W 9192   7.131   5.405   0.020  0.1865  0.0898 -0.1140
 5129W        W 9193   3.226  10.590   0.368  0.0720  0.1303  0.1016
 5130W        W 9194   4.840   2.359   1.490  0.0793  0.1175  0.1487
 5131W        W 9195   4.603   1.959   9.940 -0.0444  0.0145 -0.0093
 5132W        W 9196  10.166   6.833   7.720 -0.0713  0.0487  0.0002
 5133W        W 9197   6.095   4.087  11.359 -0.1262 -0.2082 -0.0953
 5134W        W 9198   2.596  10.567   1.664 -0.1390  0.0481 -0.1316
 5135W        W 9199   1.620   6.139  11.433  0.1158 -0.0765  0.2487
 5136W        W 9200   0.898   1.391   0.249  0.0437 -0.1213 -0.0381
 5137W        W 9201   9.821   1.315   0.688  0.2206  0.0563  0.1631
 5138W        W 9202   5.461   7.397   0.599 -0.2816  0.2121 -0.1001
 5139W        W 9203   4.009   5.354   9.840  0.3227  0.0252  0.0850
 5140W        W 9204   5.305   1.161   0.415 -0.3004  0.1795  0.1658
 5141W        W 9205   0.726   5.073   0.092 -0.0736 -0.1950 -0.0110
 5142W        W 9206   2.006   8.861   1.290 -0.0737 -0.1474  0.0163
 5143W        W 9207   6.802   3.799   0.904  0.4437 -0.0877 -0.1261
 5144W        W 9208   1.441   9.464   4.252  0.0449 -0.1779  0.3171
 5145W        W 9209  10.455   6.916   7.252  0.0558 -0.1130 -0.2902
 5146W        W 9210   5.220   2.279  10.756  0.1164  0.1372  0.1490
 5147W        W 9211   8.716   2.123   0.950 -0.0625  0.2151 -0.4792
 5148W        W 9212   0.707   1.761   2.110  0.1819 -0.0754 -0.0689
 5149W        W 9213   1.546   8.477   3.077  0.0712  0.1866 -0.3148
 5150W        W 9214   3.434   8.645   9.101 -0.0476 -0.1393 -0.0156
 5151W        W 9215   1.165   0.661   8.048  0.3190  0.0088  0.4986
 5152W        W 9216   5.723   7.091   1.660  0.0821  0.2030  0.2775
 5153W        W 9217  10.318   9.642   8.022 -0.1197  0.1110 -0.0407
 5154W        W 9218   9.300   9.845  10.976  0.0407  0.0753 -0.0884
 5155W        W 9219   4.789   7.479   9.759  0.1345 -0.0426 -0.1712
 5156W        W 9220   8.833   4.631   2.548 -0.2673  0.1318  0.1290
 5157W        W 9221   4.568  10.650   1.772 -0.1736  0.1880  0.4594
 5158W        W 9222   1.290   4.141   3.261 -0.0129 -0.3321  0.0136
 5159W        W 9223   2.712   4.041   3.751 -0.0481 -0.3902  0.3110
 5160W        W 9224   8.949   8.926   3.114  0.1033 -0.2123 -0.1664
 5161W        W 9225   0.967   4.707   1.493  0.1053  0.0435 -0.0541
 5162W        W 9226   7.586  10.180   7.861 -0.2582 -0.0357  0.1689
 5163W        W 9227   2.289  10.493  10.964 -0.0190  0.0195 -0.0146
 5164W        W 9228   5.466   4.634   3.252 -0.2087 -0.2637 -0.1788
 5165W        W 9229   9.746   8.899   9.971 -0.0065 -0.0444  0.2743
 5166W        W 9230   6.267   6.791   9.856  0.1467 -0.2537  0.3539
 5167W        W 9231   1.120   9.858   9.796 -0.1350  0.2235  0.3505
 5168W        W 9232   3.429   9.998   8.915 -0.1261  0.1423  0.1096
 5169W        W 9233   0.537   7.309  11.346 -0.2022 -0.0461  0.0228
 5170W        W 9234   3.370   8.893   1.517 -0.3620  0.1083 -0.2114
 5171W        W 9235   0.685   1.535  10.854  0.2877  0.0332 -0.0762
 5172W        W 9236   1.089  10.624   9.560  0.1217  0.2252 -0.2135
 5173W        W 9237   7.953   5.462   9.026 -0.4279 -0.1542 -0.1073
 5174W        W 9238   6.449   9.350  10.991  0.2491  0.0327 -0.1401
 5175W        W 9239   2.284   0.725   0.850  0.0192  0.0424 -0.3017
 5176W        W 9240   6.925   4.782   3.428  0.1415 -0.0541 -0.1597
 5177W        W 9241   8.485   9.344   7.147  0.1740  0.1358 -0.0562
 5178W        W 9242   7.490   5.074   0.210 -0.1295  0.0024 -0.0387
 5179W        W 9243   3.218   0.011   1.168  0.2108 -0.1029 -0.3021
 5180W        W 9244   5.652   6.779  10.427 -0.1406 -0.1170  0.1107
 5181W        W 9245   7.725   9.768   0.446  0.1584 -0.1483 -0.2345
 5182W        W 9246   8.561   7.804  11.429  0.1114 -0.0621 -0.2444
 5183W        W 9247   3.071   9.855   9.368  0.0106 -0.0097  0.0519
 5184W        W 9248   2.311   9.482   2.418  0.0588 -0.0958 -0.2823
 5185W        W 9249   8.089  10.213   0.695 -0.0016  0.0923  0.1194
 5186W        W 9250   0.521   9.968   0.039  0.3278 -0.0354 -0.0449
 5187W        W 9251   2.508   5.730   2.090  0.2777 -0.0170 -0.0368
 5188W        W 9252   9.465   2.023   3.003  0.1014  0.0315  0.2087
 5189W        W 9253   2.662   0.669  11.466  0.2679 -0.0379  0.0336
 5190W        W 9254   3.572   3.198   2.508 -0.0624  0.0928  0.1438
 5191W        W 9255   0.424   4.943   2.269 -0.1829 -0.0331 -0.1325
 5192W        W 9256   1.776   3.892  10.128  0.0250  0.0692  0.2010
 5193W        W 9257   0.124   2.331   1.718 -0.0062 -0.0085  0.1420
 5194W        W 9258  10.490   5.820   2.537  0.0426  0.3748  0.0828
 5195W        W 9259   6.087  10.664  10.863  0.0149  0.1323 -0.0577
 5196W        W 9260   5.852   7.393  10.815 -0.1147 -0.0550  0.1837
 5197W        W 9261   9.988   8.203   0.081  0.3233 -0.1369  0.3758
 5198W        W 9262   5.699   3.541   2.717  0.1275 -0.1673  0.0041
 5199W        W 9263   9.354   3.359   1.241  0.0002 -0.1824 -0.1297
 5200W        W 9264   2.834   6.933   3.225  0.0050  0.0361  0.0729
 5201W        W 9265   3.894   7.794   2.546  0.1857 -0.0672 -0.3686
 5202W        W 9266   2.156   8.285  10.066 -0.0601 -0.0651  0.0086
 5203W        W 9267   7.226   3.732   2.650  0.0294  0.3275 -0.0696
 5204W        W 9268   3.780   1.301   9.316  0.3396  0.1482 -0.3269
 5205W        W 9269   3.593   5.607   0.547  0.2025  0.2241  0.1507
 5206W        W 9270   4.023   9.537  11.508 -0.2285  0.5082 -0.0523
 5207W        W 9271   3.023   8.467  10.652 -0.1028 -0.2326  0.0697
 5208W        W 9272   7.295   1.367   1.706  0.0925  0.1293  0.0281
 5209W        W 9273   3.602   3.982   0.294  0.2199  0.1237 -0.2827
 5210W        W 9274   2.699   8.097   2.464  0.0975 -0.0457  0.0448
 5211W        W 9275   6.586   6.223   1.371 -0.2304 -0.2767  0.0165
 5212W        W 9276   0.798   2.850   7.936  0.0809 -0.0315  0.1150
 5213W        W 9277   4.354   1.839  11.247  0.0726  0.1958 -0.2717
 5214W        W 9278   9.215   4.804   0.810 -0.0482 -0.2784 -0.2647
 5215W        W 9279   6.785   7.766   0.149 -0.3199 -0.4765  0.1311
 5216W        W 9280   6.521   4.916  11.256 -0.1118  0.0163  0.2066
 5217W        W 9281   6.233   3.690   8.949  0.2421 -0.1280 -0.0413
 5218W        W 9282   2.698   8.258   1.441 -0.0516 -0.1639 -0.0591
 5219W        W 9283   4.487   1.768  10.781  0.2423 -0.2518  0.0042
 5220W        W 9284   7.577   8.021  10.758  0.1762  0.1541 -0.0332
 5221W        W 9285   2.734   0.727   1.049 -0.1903  0.3409  0.1291
 5222W        W 9286   7.571   7.317   3.828  0.3528  0.1350  0.0544
 5223W        W 9287   0.697   6.030   1.118 -0.0015 -0.0609 -0.1681
 5224W        W 9288   5.760   8.548   1.955 -0.1217  0.2039 -0.1504
 5225W        W 9289   7.971   4.535  10.484 -0.2059 -0.0226  0.0641
 5226W        W 9290   0.620   6.386  11.011  0.0299 -0.1049 -0.0102
 5227W        W 9291   5.864  10.385   0.067 -0.2348  0.0741 -0.0232
 5228W        W 9292   4.218   6.209   9.427 -0.1925 -0.2500 -0.0676
 5229W        W 9293   9.619  10.596  10.677 -0.1688  0.2188  0.0426
 5230W        W 9294  10.442   8.239   9.597  0.1989 -0.2575 -0.0734
 5231W        W 9295   5.633   5.852   0.707 -0.0528 -0.1560 -0.0129
 5232W        W 9296   6.487   0.461   0.931 -0.0218  0.0543  0.0395
 5233W        W 9297   7.786   0.721  11.184  0.2223  0.0869  0.3875
 5234W        W 9298   6.927   9.644   9.737  0.0536  0.3182 -0.2910
 5235W        W 9299  10.205   9.705   8.488 -0.2202  0.2024  0.0723
 5236W        W 9300   7.101   0.724   8.923 -0.3452  0.0421 -0.3126
 5237W        W 9301   4.881   9.873   3.546 -0.0811  0.3295  0.2651
 5238W        W 9302   9.449   5.510   1.355  0.1680  0.0068 -0.3752
 5239W        W 9303   5.877   9.757   4.037 -0.3252  0.2626 -0.1384
 5240W        W 9304   6.890   0.056   1.260 -0.1136 -0.3120  0.1343
 5241W        W 9305   8.489   1.709   8.378  0.0197 -0.2876 -0.3520
 5242W        W 9306   2.121   1.870   3.202  0.1761 -0.0639 -0.3397
 5243W        W 9307   7.536   7.941   1.073  0.6061 -0.2314  0.1261
 5244W        W 9308   5.654   5.823   1.215  0.0435 -0.2317  0.1505
 5245W        W 9309   8.673  10.412   2.840 -0.0569 -0.0892 -0.3815
 5246W        W 9310   8.722   3.762   1.713 -0.1940  0.3970 -0.1780
 5247W        W 9311   0.818   7.071   2.806  0.2817  0.1010 -0.4095
 5248W        W 9312   7.077   4.380   0.811  0.0643  0.2923 -0.3765
 5249W        W 9313   5.913   4.760   0.510 -0.1489 -0.0042 -0.1771
 5250W        W 9314   7.125  10.230   8.275  0.3687  0.0097  0.0932
 5251W        W 9315  10.082   3.534   8.195  0.2311  0.0176  0.3182
 5252W        W 9316   0.506   6.412  10.151  0.2478  0.1424  0.1108
 5253W        W 9317   8.260   1.284   0.977 -0.0929 -0.0339  0.1897
 5254W        W 9318   0.103   9.468  10.544  0.0850 -0.2081 -0.0228
 5255W        W 9319   0.120   5.350   2.578 -0.0771  0.3506 -0.0192
 5256W        W 9320   2.645  10.187  11.175  0.1789  0.1731 -0.0728
 5257W        W 9321   9.670   2.551   3.165 -0.3055 -0.2098  0.1905
 5258W        W 9322   6.299   5.330   0.471  0.0668 -0.0594  0.0374
 5259W        W 9323   2.783   1.672   9.385 -0.3192 -0.0465 -0.0683
 5260W        W 9324   0.701   4.679   2.540 -0.2837  0.2134  0.2076
 5261W        W 9325   0.055   5.849  11.382  0.0494  0.1352 -0.0823
 5262W        W 9326   8.812   8.612  10.680  0.0078  0.1837 -0.2409
 5263W        W 9327   6.905   5.581   2.790  0.0897 -0.2760  0.2168
 5264W        W 9328   7.444   9.098   2.152 -0.0364 -0.0482 -0.0319
 5265W        W 9329   5.736   9.145  11.470  0.0489 -0.1456  0.2659
 5266W        W 9330   2.484   6.507   1.947 -0.0864 -0.0624  0.1598
 5267W        W 9331   9.957   3.014   9.684  0.0561 -0.5496  0.4878
 5268W        W 9332   3.044  10.070  10.281  0.2931  0.0258  0.1126
 5269W        W 9333   9.557   3.556  10.502 -0.0284  0.0733  0.1519
 5270W        W 9334   6.775   3.161   8.935 -0.0936 -0.0305  0.0006
 5271W        W 9335   4.049   3.360  11.328 -0.2356  0.1865 -0.1549
 5272W        W 9336   0.312   1.373   3.761 -0.0019  0.0190  0.3257
 5273W        W 9337   8.266   5.888   8.304  0.2171 -0.2213  0.0521
 5274W        W 9338   0.648   6.844   2.294 -0.1102  0.0765  0.2710
 5275W        W 9339   1.927   0.568   0.518 -0.0112 -0.2108 -0.0426
 5276W        W 9340   6.999   5.270   3.632 -0.2525 -0.0786  0.3005
 5277W        W 9341   1.959   0.143   7.561  0.0894  0.0328  0.0625
 5278W        W 9342   8.647   7.006  10.257  0.1835 -0.2006  0.1964
 5279W        W 9343   9.439   4.312   8.404  0.3206  0.0822  0.3266
 5280W        W 9344   2.643   7.929   9.105  0.0880  0.3419  0.0660
 5281W        W 9345   6.372   4.291   2.673 -0.0363 -0.1254  0.0611
 5282W        W 9346   4.166  10.039   8.414 -0.2824  0.0163 -0.1390
 5283W        W 9347   9.108   7.370   1.519  0.2876  0.3500 -0.0029
 5284W        W 9348   0.412   3.353   2.013  0.1292  0.1597  0.2229
 5285W        W 9349  10.477   9.652   0.371  0.3451 -0.1751 -0.0049
 5286W        W 9350   3.320   3.050   9.456  0.1384 -0.3131 -0.5809
 5287W        W 9351   8.259   7.528   8.826 -0.2596 -0.4120  0.1178
 5288W        W 9352   4.423   5.163   9.566 -0.2502 -0.1127 -0.1380
 5289W        W 9353  10.473   6.025   9.666 -0.0949  0.1173  0.4051
 5290W        W 9354   2.189  10.200   0.022  0.0311  0.1221 -0.0635
 5291W        W 9355   9.574   2.745   8.359 -0.3421  0.0704  0.3345
 5292W        W 9356   9.483   5.690   7.112 -0.0828  0.1238  0.2974
 5293W        W 9357   7.582   8.902   9.370  0.0057 -0.0896 -0.0035
 5294W        W 9358   1.146   7.924   8.385 -0.0897  0.0384  0.2383
 5295W        W 9359   1.019   5.636   9.156  0.0433 -0.1171 -0.2099
 5296W        W 9360  10.318   1.475   8.865  0.4097  0.0315  0.3402
 5297W        W 9361  10.067   4.228   3.193 -0.2723 -0.3108 -0.0612
 5298W        W 9362   4.608   7.066  10.030  0.0096 -0.2333 -0.2065
 5299W        W 9363   0.678   0.807   4.270  0.1102 -0.0117  0.1166
 5300W        W 9364   2.094   3.293   9.036  0.0523  0.1638  0.1854
 5301W        W 9365   0.607   8.415   9.838 -0.2746  0.0279 -0.5407
 5302W        W 9366   6.015   5.531   0.877  0.3348 -0.1633  0.1016
 5303W        W 9367   4.826   7.017   9.588  0.4753  0.2217 -0.1999
 5304W        W 9368   7.459   9.601   1.297 -0.2026 -0.1022 -0.0949
 5305W        W 9369   7.987   5.301   7.823 -0.1069 -0.3042  0.1185
 5306W        W 9370   0.399   3.014   2.469  0.4110  0.3648  0.1589
 5307W        W 9371   5.325  10.100   1.709  0.0217 -0.1443 -0.1312
 5308W        W 9372   3.397   1.531   8.521 -0.0289 -0.0880  0.2793
 5309W        W 9373   4.672   8.114   0.674 -0.1480  0.1471 -0.2256
 5310W        W 9374   0.877   2.428   2.437 -0.0534  0.3236 -0.0274
 5311W        W 9375   6.756   9.461   8.627 -0.1372 -0.0171 -0.0236
 5312W        W 9376   6.186   9.535   3.061 -0.2995 -0.2663 -0.1023
 5313W        W 9377   2.923   3.904   2.542 -0.3564  0.5448  0.1422
 5314W        W 9378   1.613   9.108  10.416 -0.1405  0.1706  0.2646
 5315W        W 9379   8.392   7.390  11.269  0.1995  0.0005 -0.0726
 5316W        W 9380   0.168   4.453  11.075  0.0677 -0.0724 -0.0725
 5317W        W 9381   6.229   1.623   1.496 -0.1929 -0.2290 -0.1500
 5318W        W 9382   6.998  10.432   8.717 -0.1109  0.3121  0.2280
 5319W        W 9383   0.070   3.626   8.085  0.1412  0.3175  0.1406
 5320W        W 9384   4.912   6.024   8.104 -0.0694  0.0619 -0.2335
 5321W        W 9385   9.887   6.455   2.405  0.3603 -0.1027 -0.0160
 5322W        W 9386   2.099   3.543   2.514  0.0986  0.0339  0.1719
 5323W        W 9387   9.865   5.579  10.105 -0.0425  0.3185 -0.1472
 5324W        W 9388   0.051   8.791   2.456  0.1253  0.0510  0.0357
 5325W        W 9389   1.903   1.035   0.323  0.3173 -0.0835  0.0802
 5326W        W 9390   9.578   7.850   7.625 -0.1849  0.1441 -0.1036
 5327W        W 9391   9.467   8.619  11.420  0.1661  0.0863 -0.1155
 5328W        W 9392   3.340   3.268   1.907  0.2022 -0.1716  0.0758
 5329W        W 9393   5.785   9.608   8.408 -0.4963  0.2871 -0.2795
 5330W        W 9394   4.279   8.185   9.438 -0.0096  0.0756 -0.2273
 5331W        W 9395   0.210   6.406  10.743 -0.0915 -0.0153  0.4795
 5332W        W 9396   1.455   2.017   9.957 -0.3093 -0.2038 -0.0549
 5333W        W 9397   0.730   7.348   9.980  0.3396  0.2315 -0.1390
 5334W        W 9398   9.141  10.156   1.272  0.0396 -0.2285 -0.2446
 5335W        W 9399  10.184   2.688   2.662  0.1675 -0.1503  0.1199
 5336W        W 9400   2.825   4.537   8.465 -0.0220 -0.0716  0.2200
 5337W        W 9401  10.540   7.464   7.250  0.0140 -0.0312  0.1742
 5338W        W 9402   7.067   6.211   7.949 -0.0814 -0.3585  0.2685
 5339W        W 9403  10.105   5.620   3.293  0.0990  0.0385  0.1182
 5340W        W 9404   5.651  10.192   2.591  0.2584  0.0766  0.3243
 5341W        W 9405   9.533   1.999  11.076  0.1417 -0.1426  0.1337
 5342W        W 9406   7.623   6.736   1.755  0.2617 -0.2285 -0.1107
 5343W        W 9407   5.504   9.554   1.655 -0.0073  0.1048  0.0298
 5344W        W 9408   4.751   5.668   8.981  0.0297  0.0636  0.0461
 5345W        W 9409   0.242  10.268   0.980  0.1543  0.1573  0.0282
 5346W        W 9410   1.773  10.660   1.169  0.1218  0.1762  0.0404
 5347W        W 9411   6.486   0.520  10.134  0.3485 -0.0818  0.2025
 5348W        W 9412   3.788   6.813   0.816  0.0902 -0.1552  0.1868
 5349W        W 9413   5.394   3.380  11.485  0.1331  0.2630  0.2874
 5350W        W 9414   7.462   9.612   3.972  0.1797  0.0472  0.0545
 5351W        W 9415   6.614   1.276   3.494  0.3718  0.5129  0.2643
 5352W        W 9416   2.652   5.156   0.132  0.1300  0.1069  0.0059
 5353W        W 9417   7.615   0.718   8.445  0.1697  0.1273  0.2544
 5354W        W 9418   9.138   0.408   9.285 -0.1324 -0.3056  0.2095
 5355W        W 9419   8.344   7.463   7.086  0.1527  0.1094 -0.0802
 5356W        W 9420   3.284   5.104  10.917 -0.0446 -0.2107 -0.1929
 5357W        W 9421   3.786   3.536   1.853  0.1254 -0.1106  0.0661
 5358W        W 9422   2.847   8.350   8.163  0.2138 -0.4626 -0.2449
 5359W        W 9423   8.907   2.760   3.115  0.1804 -0.2311  0.0268
 5360W        W 9424   4.286   5.952  11.394  0.0698 -0.3019  0.0120
 5361W        W 9425   1.078   2.716  11.278  0.0721 -0.0738  0.2855
 5362W        W 9426   2.004   0.025   0.047  0.0892 -0.2185  0.1976
 5363W        W 9427   0.631   8.150   0.560 -0.0182  0.2047  0.1351
 5364W        W 9428   3.278   7.482   9.488  0.1458  0.2418  0.0624
 5365W        W 9429   0.245   4.172   1.772  0.1433 -0.1050  0.1467
 5366W        W 9430   9.293   7.318   2.820  0.0141 -0.2520 -0.1267
 5367W        W 9431   2.186   8.795   2.413  0.1919 -0.2967  0.0674
 5368W        W 9432   4.489   5.415   3.766 -0.0370  0.4438  0.2257
 5369W        W 9433   3.719   7.328  10.519  0.2634 -0.1232  0.3136
 5370W        W 9434   1.534   6.510  11.052  0.0304  0.2468 -0.1076
 5371W        W 9435   4.139   8.243  11.364  0.2112  0.0606 -0.1794
 5372W        W 9436   5.531   9.008   2.290 -0.0521  0.0771  0.2514
 5373W        W 9437   6.203   5.091   2.223  0.0858  0.2667  0.2263
 5374W        W 9438   3.730   1.914   8.585  0.2919 -0.1589  0.4001
 5375W        W 9439   1.897   2.462   9.297 -0.3494 -0.0215  0.0349
 5376W        W 9440  10.518   4.720   8.803 -0.2086  0.1126  0.0998
 5377W        W 9441   8.148   7.918  10.246 -0.1217  0.0632 -0.3068
 5378W        W 9442   9.102   9.839   0.871  0.3680 -0.1778 -0.1646
 5379W        W 9443   4.112   4.755  11.207 -0.0398 -0.1859 -0.1883
 5380W        W 9444   1.706   7.831   9.086  0.1471  0.1395 -0.4035
 5381W        W 9445   4.705   9.919  10.227  0.2973 -0.0713 -0.1814
 5382W        W 9446   8.571   2.157   1.815 -0.0651 -0.1079  0.0220
 5383W        W 9447   3.797   0.741   7.477 -0.0078 -0.0659  0.0645
 5384W        W 9448   0.104   6.732   1.555  0.1912 -0.1840 -0.0328
 5385W        W 9449   0.538   7.247   0.823 -0.2476  0.1769 -0.0293
 5386W        W 9450   5.560   4.804   2.761 -0.1323 -0.0570  0.0748
 5387W        W 9451   9.165   4.928   9.189  0.1130 -0.0774 -0.3231
 5388W        W 9452   9.457   7.264  10.575 -0.1878  0.1611  0.0022
 5389W        W 9453   5.561   2.668   8.415  0.0041  0.3491  0.1094
 5390W        W 9454   1.603   3.369   0.842 -0.0001 -0.4378  0.1381
 5391W        W 9455   0.134   3.857   9.786  0.1365 -0.0081  0.1057
 5392W        W 9456   3.242   1.780   7.989 -0.2136  0.3241 -0.0855
 5393W        W 9457   5.617   3.708   8.287  0.1793 -0.0909  0.0308
 5394W        W 9458   6.450   4.535  10.858 -0.2536 -0.1836 -0.2447
 5395W        W 9459   3.721   5.308   9.300 -0.0815  0.3510 -0.0937
 5396W        W 9460   2.988   9.163  10.362 -0.3245  0.0390 -0.0749
 5397W        W 9461   0.605   2.575   1.458  0.1379  0.2674  0.1061
 5398W        W 9462   0.263   7.169   2.458 -0.1131 -0.1443 -0.0873
 5399W        W 9463   3.897   0.400   2.226  0.0594 -0.1018 -0.1359
 5400W        W 9464   5.821   1.500   9.579  0.0918 -0.3443 -0.1862
 5401W        W 9465   8.208   0.007   8.952  0.0785  0.1606 -0.0430
 5402W        W 9466   7.891   8.841  10.089 -0.1769 -0.1243 -0.1919
 5403W        W 9467  10.479   4.137   0.582  0.3232  0.1545 -0.2287
 5404W        W 9468   0.459   6.079   8.755  0.0186  0.1840 -0.0305
 5405W        W 9469   1.409  10.194   9.443  0.0315  0.0832 -0.3504
 5406W        W 9470   1.298   7.677   0.148  0.5133 -0.1862  0.0902
 5407W        W 9471   7.496   6.672   0.536 -0.0567  0.0088  0.1669
 5408W        W 9472   1.427   7.770   2.776 -0.0259  0.0928 -0.1294
 5409W        W 9473   3.994   3.144   2.140  0.3065 -0.1985  0.1417
 5410W        W 9474   6.065   7.798   9.492 -0.5295  0.2626  0.2745
 5411W        W 9475   0.627   9.389   2.734 -0.2548  0.3728 -0.0304
 5412W        W 9476   4.671  10.018   4.255  0.2608 -0.1255  0.0045
 5413W        W 9477   3.329   1.609  10.171  0.0355 -0.1411 -0.0673
 5414W        W 9478   4.927   3.556   2.196  0.0584  0.0092 -0.4187
 5415W        W 9479   8.071  10.541  11.157  0.2057 -0.1125 -0.4503
 5416W        W 9480   5.335   5.979   9.078 -0.0141 -0.5456  0.1239
 5417W        W 9481   3.965   4.441   3.442 -0.0152 -0.1703  0.0329
 5418W        W 9482   4.090  10.212   6.996 -0.0616  0.2589  0.0782
 5419W        W 9483   5.352   5.722   3.067 -0.1596  0.0665  0.1995
 5420W        W 9484   3.351   9.043  11.263 -0.2830 -0.0578  0.0959
 5421W        W 9485   5.811  10.317   9.313 -0.4583 -0.0774  0.2279
 5422W        W 9486   7.567  10.483  10.939 -0.1462 -0.1546  0.3651
 5423W        W 9487   3.403   6.879   8.457  0.0959 -0.3900 -0.0765
 5424W        W 9488   4.875   9.288   0.434 -0.1440 -0.1238 -0.1584
 5425W        W 9489   2.011   5.101   8.612 -0.0732  0.0010  0.2545
 5426W        W 9490   9.017   2.503   1.865  0.0244  0.0141  0.1807
 5427W        W 9491   3.146   5.586   8.433 -0.0790  0.0756  0.0877
 5428W        W 9492   9.400   8.083  10.466  0.2759 -0.0673  0.1400
 5429W        W 9493   2.738   3.950  10.256  0.2576  0.0996 -0.0100
 5430W        W 9494   3.760   6.045  11.229 -0.1705  0.0310  0.1010
 5431W        W 9495   9.879   6.957   1.092 -0.0819 -0.0342  0.3189
 5432W        W 9496   0.385   9.971   1.344 -0.0528 -0.3835 -0.0445
 5433W        W 9497   3.383   3.458   0.178  0.5018  0.0316 -0.0699
 5434W        W 9498   5.146   3.494  10.534 -0.2475 -0.0220 -0.0527
 5435W        W 9499   1.237   3.708   0.773 -0.2539  0.0433 -0.2189
 5436W        W 9500   3.044   9.459   1.600 -0.1084  0.0852  0.1877
 5437W        W 9501   3.341   6.871   9.614 -0.1606 -0.1496  0.2118
 5438W        W 9502   8.355   2.139   3.464 -0.5090 -0.0980  0.1542
 5439W        W 9503   7.406   5.837   1.348 -0.2102 -0.4013 -0.1717
 5440W        W 9504   8.275   5.423   2.454 -0.1738  0.1178 -0.2034
 5441W        W 9505   5.617   2.668   3.175  0.1468  0.2014  0.0528
 5442W        W 9506  10.159   6.189   2.732  0.0088  0.1647 -0.2704
 5443W        W 9507   4.347   4.497   0.091  0.0920 -0.2532 -0.0830
 5444W        W 9508   5.220   0.366   1.106  0.0992  0.0023  0.0865
 5445W        W 9509   9.117   4.510   9.984  0.1061 -0.2790 -0.0674
 5446W        W 9510   3.473   9.203  10.639 -0.3280  0.0947 -0.3911
 5447W        W 9511   4.682   9.068   7.331 -0.2156 -0.0648  0.1350
 5448W        W 9512   1.054   5.368  10.709 -0.0526  0.2152 -0.2604
 5449W        W 9513   1.009   2.857   2.689 -0.1562 -0.0981  0.1602
 5450W        W 9514   9.033   4.558   1.682 -0.1150 -0.0987  0.1285
 5451W        W 9515   6.594   7.538  11.251  0.0562 -0.0469  0.0649
 5452W        W 9516   6.079   6.809   9.222  0.2012  0.1650 -0.5109
 5453W        W 9517   3.905   5.693  10.897  0.0542  0.1068  0.2821
 5454W        W 9518   7.035   7.779   0.607 -0.0252  0.0802  0.4521
 5455W        W 9519   1.530   1.832   3.961  0.1112 -0.0360  0.1630
 5456W        W 9520   7.117   2.227  10.396  0.0183 -0.2570 -0.2298
 5457W        W 9521   1.018   8.644   9.669  0.1826  0.2426  0.1519
 5458W        W 9522   0.686   1.491   0.946 -0.1980  0.2358  0.0145
 5459W        W 9523   0.006   0.026   1.231 -0.2803 -0.0604 -0.0948
 5460W        W 9524   2.052   7.799  10.131  0.1009  0.1556  0.1884
 5461W        W 9525   2.605   9.070   0.384 -0.0234 -0.0289  0.0667
 5462W        W 9526   2.764   6.530  11.313  0.0032 -0.0862  0.3178
 5463W        W 9527   5.109   1.142  11.476 -0.0872  0.0793  0.1957
 5464W        W 9528   5.874   2.496   1.736 -0.1472 -0.0333 -0.1232
 5465W        W 9529   0.913   5.900   8.742 -0.2461  0.0384  0.0729
 5466W        W 9530   8.567   1.438   1.347  0.1223  0.3929 -0.0197
 5467W        W 9531   6.744  10.103   9.938  0.0436  0.0747 -0.0367
 5468W        W 9532   2.774   0.638   8.685  0.1408 -0.1617  0.3065
 5469W        W 9533   6.114   5.636   8.780  0.0625 -0.0346 -0.0437
 5470W        W 9534   1.248   4.695   8.829  0.0847  0.2832 -0.0925
 5471W        W 9535   9.120   8.134   2.223 -0.2228 -0.2095  0.3616
 5472W        W 9536   9.038   2.090  11.107 -0.2941  0.0014 -0.1810
 5473W        W 9537   0.880   9.433  11.245  0.1053  0.0861 -0.1061
 5474W        W 9538   1.962   2.237   2.012  0.2570  0.0745 -0.0207
 5475W        W 9539   8.013   7.745   3.193 -0.1764  0.1711  0.2038
 5476W        W 9540   4.264   5.945   8.937  0.0234 -0.2463 -0.1525
 5477W        W 9541   3.804   0.973  10.802 -0.0390 -0.1434  0.1026
 5478W        W 9542   5.392   6.856   1.206  0.4360  0.1625 -0.3751
 5479W        W 9543   0.055   0.242   1.737  0.2149  0.0526  0.0288
 5480W        W 9544   6.685   3.653   8.754 -0.1751  0.3591 -0.2427
 5481W        W 9545   4.334   6.709   0.940  0.0515 -0.0957 -0.1676
 5482W        W 9546   5.764   6.336  10.366 -0.1477  0.1589  0.0260
 5483W        W 9547   8.158   3.424   0.458 -0.0615  0.3524 -0.2972
 5484W        W 9548   4.783   9.542   7.443 -0.0139  0.1905  0.1742
 5485W        W 9549   4.178   0.117   8.770  0.0324  0.0689  0.0539
 5486W        W 9550   3.125   3.323   9.025 -0.0467  0.2011  0.0619
 5487W        W 9551   7.566   2.276   3.257  0.1222  0.3564 -0.0178
 5488W        W 9552   4.833   1.324   0.431 -0.0354  0.2059  0.1490
 5489W        W 9553   2.960  10.138   8.767 -0.0194  0.1142  0.4613
 5490W        W 9554   0.140   7.083   1.941 -0.0759  0.2273  0.1352
 5491W        W 9555   3.941   2.188   1.228 -0.0566 -0.0435 -0.2110
 5492W        W 9556   5.179  10.476  11.039  0.2193 -0.3790  0.1804
 5493W        W 9557   4.303   4.045   4.225  0.2754 -0.0975  0.2416
 5494W        W 9558   1.121   8.808   1.003  0.1394 -0.3986  0.3040
 5495W        W 9559   3.331   1.372   0.055 -0.1575  0.0131 -0.0780
 5496W        W 9560  10.011  10.215   8.613 -0.3399  0.0756 -0.2080
 5497W        W 9561   8.355   3.291  10.975 -0.1346 -0.0962 -0.1103
 5498W        W 9562   8.968  10.572  11.185  0.1453 -0.4337  0.1161
 5499W        W 9563   0.631   3.225   9.101  0.1940  0.6719  0.1430
 5500W        W 9564  10.430   5.410  11.515 -0.2522  0.5834  0.0318
 5501W        W 9565   4.652  10.043   7.297 -0.0144  0.2496  0.0636
 5502W        W 9566  10.092   9.059   3.178  0.0402 -0.2237  0.0776
 5503W        W 9567   5.909   7.469   8.752  0.0781 -0.1952  0.1311
 5504W        W 9568   9.413   9.893   0.457  0.2625 -0.0876  0.1614
 5505W        W 9569   6.089   0.200   1.931  0.1694  0.1294  0.2497
 5506W        W 9570   5.176   9.159   9.768 -0.1393 -0.0343 -0.0802
 5507W        W 9571   8.547   6.540   1.359 -0.0878 -0.1958  0.2573
 5508W        W 9572   0.154   8.608  10.956  0.3754  0.0525  0.1496
 5509W        W 9573   7.261   7.209   7.940 -0.0265 -0.1241  0.1767
 5510W        W 9574   5.382   2.679   9.497 -0.3602 -0.1558  0.0700
 5511W        W 9575   2.865   6.051   0.195 -0.2634 -0.0957 -0.0362
 5512W        W 9576  10.542   0.641   0.405  0.0038  0.1168 -0.0850
 5513W        W 9577   9.026   6.579   9.162 -0.0105 -0.1433 -0.0037
 5514W        W 9578   1.076   6.292   3.002  0.4232 -0.1053 -0.1399
 5515W        W 9579   4.301   1.844   1.871  0.0469  0.4259 -0.1269
 5516W        W 9580   8.062   3.954   9.963  0.1147  0.5665  0.2590
 5517W        W 9581   1.415   4.129   2.734  0.1362  0.1218  0.3341
 5518W        W 9582   5.265   7.204   9.634 -0.0908 -0.1326  0.0735
 5519W        W 9583   2.027   0.654   9.846 -0.2609  0.2680  0.2824
 5520W        W 9584   7.324  10.087   7.395 -0.2474  0.0148  0.1753
 5521W        W 9585   1.129   9.650   2.495  0.2159 -0.0613 -0.0078
 5522W        W 9586   7.176   3.234   2.666 -0.2216  0.1517  0.0132
 5523W        W 9587   0.846   2.303  10.193 -0.4425 -0.2194 -0.0349
 5524W        W 9588   5.729  10.596   0.525 -0.1340 -0.0528  0.0209
 5525W        W 9589   4.789   3.085   2.113 -0.2769 -0.0245 -0.0918
 5526W        W 9590   2.185   8.655   0.296 -0.1587  0.0331  0.1853
 5527W        W 9591  10.472   1.845   9.979  0.1000  0.0325  0.0738
 5528W        W 9592   1.315   6.063  11.050  0.3848  0.2588  0.0193
 5529W        W 9593   6.402   2.257   2.713 -0.2476  0.1329 -0.2589
 5530W        W 9594  10.603   6.731   3.420 -0.2380  0.0635  0.0422
 5531W        W 9595   7.236  10.315  11.239  0.0298  0.2498  0.2050
 5532W        W 9596   8.367  10.222   9.079 -0.0012  0.2180 -0.3225
 5533W        W 9597   9.384   5.087   9.649 -0.0211 -0.0749  0.2765
 5534W        W 9598   4.515   4.368   2.375 -0.1895  0.0716  0.0908
 5535W        W 9599   2.494   7.362  11.347 -0.2655  0.2508  0.1673
 5536W        W 9600   3.507   9.130   2.783  0.0775 -0.0179  0.1309
 5537W        W 9601   3.340   2.534   3.341  0.1824  0.3359 -0.0149
 5538W        W 9602   4.101   5.914   1.888  0.2406 -0.0827 -0.0891
 5539W        W 9603   6.809   6.113   8.992 -0.2911 -0.2221 -0.0941
 5540W        W 9604   0.636   6.187   1.614  0.1190  0.2476 -0.0032
 5541W        W 9605   3.287   1.514   9.636 -0.3784  0.5049 -0.1205
 5542W        W 9606  10.351   3.903   8.483 -0.0860  0.0631 -0.0428
 5543W        W 9607   4.859  10.203  10.724 -0.2481  0.0665  0.1387
 5544W        W 9608   4.882   6.427   9.591  0.0676 -0.0428  0.0151
 5545W        W 9609   4.563   7.015  10.532  0.1307  0.1058 -0.0622
 5546W        W 9610   1.249   3.285   8.436 -0.1094 -0.2391 -0.3317
 5547W        W 9611   1.932   3.274   1.201  0.1865 -0.5817 -0.3371
 5548W        W 9612   0.987   6.461   7.719  0.1172  0.0599  0.2239
 5549W        W 9613  10.235   4.397   2.311  0.0493  0.0586 -0.1924
 5550W        W 9614   7.251   3.520   0.754 -0.0065  0.4893  0.2550
 5551W        W 9615   9.472   6.651   1.078 -0.4456  0.0069 -0.1215
 5552W        W 9616   9.200   8.543   9.897 -0.3856  0.0999  0.3662
 5553W        W 9617   1.713   5.821   8.124  0.0798  0.0051 -0.1112
 5554W        W 9618   6.410   6.960   3.319 -0.1702  0.1156  0.2077
 5555W        W 9619  10.011   8.695  10.345 -0.1558 -0.2326 -0.0747
 5556W        W 9620   1.679   5.640  10.776 -0.2539  0.1185  0.1342
 5557W        W 9621   8.786   5.417   0.174  0.2744 -0.0157  0.0244
 5558W        W 9622   3.964   6.193   8.134 -0.2614  0.1762 -0.0586
 5559W        W 9623   0.969   6.805   0.232  0.1557 -0.3247 -0.0497
 5560W        W 9624   4.812   8.525   1.138 -0.2054 -0.0544 -0.2777
 5561W        W 9625   9.662   8.399   9.680  0.4715  0.1155  0.2133
 5562W        W 9626   2.992   6.564   8.617 -0.1156 -0.0184 -0.1179
 5563W        W 9627   9.754   1.365   2.670 -0.1398  0.2881 -0.0102
 5564W        W 9628   9.843   9.570  10.545  0.0481  0.3534 -0.0684
 5565W        W 9629   6.412   6.408   9.209  0.0325  0.3094  0.2806
 5566W        W 9630   1.879   7.362   1.569 -0.1021  0.2193  0.0159
 5567W        W 9631   3.881   8.080   9.819  0.1253  0.2930 -0.1351
 5568W        W 9632   4.928   4.103   2.651  0.0161  0.0963  0.0015
 5569W        W 9633   8.786   2.692  10.291  0.0932  0.0254  0.3563
 5570W        W 9634  10.617   6.133   8.768 -0.0001 -0.1257 -0.0686
 5571W        W 9635   3.985   0.529  10.958  0.4367  0.0591 -0.1203
 5572W        W 9636   8.037   2.487  10.647  0.1656  0.0572 -0.0900
 5573W        W 9637   2.535   4.915   8.616  0.4732  0.0137  0.2529
 5574W        W 9638   0.171   3.819  11.315 -0.1833  0.0061  0.0192
 5575W        W 9639   5.432   7.026   3.071  0.1244  0.1541 -0.0242
 5576W        W 9640   6.676   5.801   8.040 -0.2586 -0.0352 -0.1706
 5577W        W 9641   0.309   1.611   9.200  0.0144  0.1041  0.0240
 5578W        W 9642   1.821  10.380   0.416  0.1851 -0.1538 -0.0530
 5579W        W 9643   7.731   0.552   0.691  0.2234 -0.1833 -0.0007
 5580W        W 9644   3.481   5.077   1.248 -0.3017  0.1583  0.0953
 5581W        W 9645   9.251   4.820  10.777  0.1114  0.1288  0.1142
 5582W        W 9646   4.148   3.209   2.583 -0.1229  0.0228 -0.0717
 5583W        W 9647   1.816   8.672   1.667  0.2378 -0.0851 -0.1588
 5584W        W 9648   1.816   0.426   9.016 -0.2129  0.1656 -0.1604
 5585W        W 9649   2.907   3.549   1.049 -0.1494 -0.1929  0.2242
 5586W        W 9650   4.879   0.384   9.988  0.1500  0.1241  0.0298
 5587W        W 9651   9.254   9.153   9.950 -0.1262  0.0705  0.1312
 5588W        W 9652   1.057   7.685   9.652  0.0428  0.1541  0.2460
 5589W        W 9653   6.336   4.429   3.764 -0.1785 -0.0027  0.2510
 5590W        W 9654   6.775   5.706   2.299  0.1041  0.5181 -0.3159
 5591W        W 9655   0.945   6.383   0.684  0.0241  0.2087  0.1416
 5592W        W 9656   9.161   7.720   9.028  0.1045  0.0045  0.1374
 5593W        W 9657   1.547   5.252   3.813  0.1592 -0.2152  0.0367
 5594W        W 9658   1.539   7.599   2.331 -0.0821  0.6482  0.1674
 5595W        W 9659  10.167   6.317   0.358  0.0501  0.0138 -0.1655
 5596W        W 9660   0.115   7.081   9.800 -0.1733  0.2757 -0.0409
 5597W        W 9661   4.422   2.875   0.170 -0.2143  0.0992  0.0407
 5598W        W 9662  10.129   7.805   8.737  0.0109  0.5065  0.2827
 5599W        W 9663  10.513   0.793   1.722 -0.2834 -0.0032  0.0547
 5600W        W 9664   5.662   4.660   1.729  0.0788 -0.2221 -0.0120
 5601W        W 9665   8.803   6.442  11.054  0.0274  0.0167  0.2412
 5602W        W 9666   8.783   2.491   1.379  0.1749  0.0287 -0.0072
 5603W        W 9667   0.794   9.881  11.047  0.1003 -0.0278  0.0478
 5604W        W 9668   9.690   7.647   9.241  0.0306  0.2328  0.0817
 5605W        W 9669   7.421   5.507   9.033  0.0099  0.1968  0.0963
 5606W        W 9670   1.073   9.185  10.630 -0.1151 -0.0116 -0.0073
 5607W        W 9671   5.323  10.246   9.247  0.1219  0.2148  0.0182
 5608W        W 9672   1.242   8.218  10.527 -0.3630  0.1566 -0.0919
 5609W        W 9673   8.538   2.259   9.211  0.1980 -0.4506 -0.2174
 5610W        W 9674   6.835  10.596   2.628  0.1781 -0.0457  0.1489
 5611W        W 9675  10.653   2.852   8.479  0.1609  0.0953 -0.0283
 5612W        W 9676   7.766   3.796  10.312 -0.0716  0.2050  0.1721
 5613W        W 9677   8.054   0.972   1.976  0.1078  0.0250 -0.3201
 5614W        W 9678   7.566   7.529   8.256  0.0668 -0.0225 -0.1786
 5615W        W 9679   8.413   4.779   8.368 -0.2999  0.0309 -0.0411
 5616W        W 9680   1.230  10.368  10.015 -0.3802  0.0344 -0.1656
 5617W        W 9681   3.472  10.060   3.160 -0.1645  0.0899 -0.2897
 5618W        W 9682   9.918   7.997   8.290 -0.1937  0.2372  0.3226
 5619W        W 9683   1.496  10.549   3.080  0.2184 -0.2245  0.4124
 5620W        W 9684   4.140   6.201   0.855 -0.3566 -0.1175 -0.0450
 5621W        W 9685   9.697   4.720   9.917  0.1983 -0.0872 -0.0728
 5622W        W 9686   6.574   1.817   9.733  0.0783  0.1715 -0.0973
 5623W        W 9687  10.492   2.734  10.446 -0.0148  0.1524  0.0697
 5624W        W 9688   5.417   5.520   9.411  0.0693 -0.2862  0.0917
 5625W        W 9689   2.822   3.664   0.167 -0.0750 -0.0544 -0.0090
 5626W        W 9690   2.381   8.198   3.741  0.1107 -0.2336  0.0865
 5627W        W 9691   2.866   3.530   8.012  0.2040  0.1550 -0.0155
 5628W        W 9692   2.927   4.304   8.038  0.0281  0.0877  0.1408
 5629W        W 9693   7.713   4.444   1.764 -0.1153 -0.1513 -0.2037
 5630W        W 9694   8.636   4.941   1.874 -0.2515 -0.1081  0.0480
 5631W        W 9695   5.697   5.256   0.590 -0.0207  0.4036 -0.3315
 5632W        W 9696   7.453   8.517   8.495 -0.1421 -0.1461 -0.2721
 5633W        W 9697   9.947   2.722   0.886 -0.4001  0.2654  0.3733
 5634W        W 9698   7.513   2.830  10.875  0.0361  0.1556 -0.3375
 5635W        W 9699   4.390   9.864  11.272 -0.1074 -0.1715 -0.0895
 5636W        W 9700   4.171   4.366  10.868 -0.2356  0.2616 -0.2281
 5637W        W 9701   9.783   6.842   8.140 -0.0215 -0.2219  0.1653
 5638W        W 9702   5.162  10.583  10.015 -0.0402  0.1154  0.0866
 5639W        W 9703   8.634   6.185  10.482  0.0555  0.0811  0.1199
 5640W        W 9704   6.579   9.798  11.200 -0.0521 -0.1511  0.1737
 5641W        W 9705   3.438   2.409   8.959  0.1003  0.0618 -0.1203
 5642W        W 9706   3.882   8.289   2.734 -0.1922  0.0628  0.1645
 5643W        W 9707   2.410   9.903   2.791 -0.0473  0.1323 -0.3123
 5644W        W 9708   8.286   6.799   1.698 -0.2260 -0.0381  0.0487
 5645W        W 9709   4.499   7.133   2.796 -0.2806  0.1634 -0.0833
 5646W        W 9710   9.507   3.273  10.090  0.2622  0.2881  0.0245
 5647W        W 9711   8.811   7.817   1.207  0.0641  0.1026 -0.0374
 5648W        W 9712   9.383   2.056   3.502  0.1908  0.0807  0.1002
 5649W        W 9713   2.077   3.502   0.795 -0.4231 -0.1684  0.1841
 5650W        W 9714   3.926  10.222   9.856 -0.1908 -0.0243  0.0235
 5651W        W 9715   1.192   8.752   8.522 -0.0879  0.0149 -0.0796
 5652W        W 9716   4.475   4.452   3.355  0.2447 -0.0413  0.0002
 5653W        W 9717   5.745   1.222  11.066 -0.0359  0.0674 -0.1304
 5654W        W 9718   2.774   9.426   2.089 -0.3529 -0.0586  0.2597
 5655W        W 9719   9.510   9.046  10.390 -0.1138 -0.4687 -0.0292
 5656W        W 9720   3.536   1.907   9.211 -0.2317 -0.2966 -0.0497
 5657W        W 9721   5.468  10.637   9.546 -0.0637  0.0365 -0.1023
 5658W        W 9722   6.236   7.108   0.326 -0.0047  0.0496 -0.1735
 5659W        W 9723   3.352   3.850   1.171 -0.0282 -0.0371 -0.0957
 5660W        W 9724   4.406   2.658   3.251  0.0067 -0.4309  0.0519
 5661W        W 9725   0.493   8.651   0.373  0.1600  0.0586 -0.0650
 5662W        W 9726   3.335   8.521   0.557 -0.0927  0.0583  0.0220
 5663W        W 9727   8.575   9.281  10.684  0.1454  0.0168  0.0438
 5664W        W 9728   1.358   4.271  10.761 -0.1296  0.0794 -0.1830
 5665W        W 9729   5.117   4.879   2.952  0.1565  0.3911 -0.2012
 5666W        W 9730  10.585   8.989   1.502  0.3607 -0.1526  0.0811
 5667W        W 9731  10.090   4.696   9.625  0.2745  0.1294 -0.0534
 5668W        W 9732   0.725  10.129   0.937  0.1090  0.0803 -0.0564
 5669W        W 9733   8.974   6.379   0.951 -0.3391 -0.2391  0.0200
 5670W        W 9734   1.054   9.824   9.164  0.1415 -0.3856 -0.1223
 5671W        W 9735  10.187   3.987   7.976  0.1990  0.0862 -0.0309
 5672W        W 9736   7.950   6.779   9.399 -0.0612 -0.0025  0.4196
 5673W        W 9737   8.348   1.864  11.437  0.0964  0.1837 -0.0007
 5674W        W 9738   0.625   2.126   9.737 -0.2995  0.2673 -0.0769
 5675W        W 9739   7.596   4.720   3.371  0.1792 -0.0910  0.3435
 5676W        W 9740   0.865   8.230   0.124 -0.1910  0.1310  0.1294
 5677W        W 9741   3.746   2.549   8.536 -0.1241  0.1801  0.2900
 5678W        W 9742   7.843   1.995   1.384  0.2813 -0.1513 -0.1217
 5679W        W 9743   5.161   6.645   2.656 -0.2014 -0.0346  0.0267
 5680W        W 9744   4.981   9.501   8.653  0.0752 -0.3114  0.1272
 5681W        W 9745   8.090   3.156   9.325 -0.1143  0.2493 -0.2064
 5682W        W 9746   1.607   3.395  11.158  0.0210  0.0907 -0.0993
 5683W        W 9747   2.862   9.686   8.116  0.1490  0.2099  0.4939
 5684W        W 9748   6.446   3.836   1.315 -0.0243 -0.3190  0.2860
 5685W        W 9749   4.158   5.321   1.965  0.0228 -0.0594 -0.1880
 5686W        W 9750   8.832   9.268   0.107  0.0178 -0.2692 -0.0716
 5687W        W 9751   1.289   3.179   0.014 -0.0490  0.0446 -0.1736
 5688W        W 9752   4.910  10.110   3.048 -0.3662  0.2170 -0.0211
 5689W        W 9753   5.464   2.634   0.724 -0.1309 -0.0889 -0.4845
 5690W        W 9754   6.717   5.121   1.370 -0.1270  0.0798 -0.2225
 5691W        W 9755   4.991   8.666   8.201  0.2002  0.1098 -0.0971
 5692W        W 9756   3.988   2.532   0.208 -0.3198  0.1291 -0.1448
 5693W        W 9757   8.916   1.290   0.012 -0.2650  0.2823  0.2391
 5694W        W 9758   2.075   7.315  10.403 -0.1208 -0.1500 -0.1319
 5695W        W 9759   0.051  10.358   8.701 -0.0403  0.2530  0.0954
 5696W        W 9760   9.283   4.197   9.261 -0.0458  0.1150 -0.0210
 5697W        W 9761   2.317   9.492   0.399 -0.3762  0.1228 -0.0240
 5698W        W 9762   6.662   5.592   3.865 -0.2488 -0.0902  0.3683
 5699W        W 9763   2.631   3.114  11.197  0.1599  0.3524  0.0951
 5700W        W 9764   1.665   4.206   1.375  0.5128 -0.1071 -0.1095
 5701W        W 9765   7.648   7.106   2.819  0.0583  0.0474  0.0408
 5702W        W 9766   5.021   4.337  10.768 -0.0761  0.3672  0.0884
 5703W        W 9767   6.583   6.416   9.682  0.1712  0.0023 -0.0372
 5704W        W 9768   3.416   6.760  10.578  0.1589  0.1960 -0.2866
 5705W        W 9769   7.301   6.428   2.840 -0.0731  0.0546  0.0534
 5706W        W 9770   7.368   4.818  10.260 -0.0440 -0.1051 -0.1164
 5707W        W 9771   7.698  10.468   1.603 -0.1765 -0.1263  0.0525
 5708W        W 9772   8.852   7.125   7.902  0.1042  0.0214 -0.1101
 5709W        W 9773   4.383   4.437   1.924  0.2883 -0.1163 -0.5418
 5710W        W 9774   0.433   5.378  10.163 -0.1006 -0.0175 -0.6582
 5711W        W 9775   6.449   6.912   2.805  0.0749 -0.1212 -0.0164
 5712W        W 9776   1.472   7.624   8.064  0.1207 -0.1751  0.2360
 5713W        W 9777  10.505   4.098  10.224  0.1421  0.1860 -0.2125
 5714W        W 9778   3.524   2.109   3.965 -0.0396 -0.2917  0.3164
 5715W        W 9779   4.786   2.740   2.904 -0.2842  0.0326 -0.1164
 5716W        W 9780   9.099   1.830  10.177 -0.0426 -0.0850  0.4368
 5717W        W 9781   0.817   1.484   2.549  0.1898 -0.0051  0.1200
 5718W        W 9782   9.094   0.243   2.619  0.2371  0.0790  0.2572
 5719W        W 9783   5.750  10.355   1.909  0.1345  0.0110 -0.3833
 5720W        W 9784   9.858   0.348   0.223 -0.4043 -0.0019  0.1506
 5721W        W 9785  10.029   2.961   3.085 -0.2204 -0.2996  0.1881
 5722W        W 9786   9.361   1.163   3.018 -0.0430  0.1552  0.1202
 5723W        W 9787   2.815   6.296   7.386  0.0309  0.0225  0.1142
 5724W        W 9788   9.377   9.113  11.434  0.1017 -0.0441 -0.0575
 5725W        W 9789   9.185   1.162  11.171 -0.0459  0.0776 -0.0925
 5726W        W 9790   7.986   2.173   0.035  0.1394 -0.0245 -0.0122
 5727W        W 9791   5.414   1.089   1.511 -0.0041 -0.0726  0.3065
 5728W        W 9792   2.448   9.103   7.669 -0.1523  0.0035  0.1535
 5729W        W 9793   2.795   8.030   0.654  0.2514 -0.0986  0.3576
 5730W        W 9794   9.085   7.913   1.653 -0.1370 -0.1766  0.1673
 5731W        W 9795   4.231   7.294  11.346 -0.0990 -0.0973  0.1062
 5732W        W 9796   9.382   6.905   1.725 -0.0117 -0.2131 -0.0158
 5733W        W 9797   0.742   2.990   3.123 -0.0005  0.4061  0.5511
 5734W        W 9798   0.147   3.328   9.794 -0.3967 -0.1795 -0.0758
 5735W        W 9799   5.995   0.879   9.397  0.1960 -0.2750 -0.1121
 5736W        W 9800   5.055   9.781   9.442 -0.2161  0.0299 -0.2122
 5737W        W 9801   3.448   7.792  10.324  0.2660 -0.0207 -0.0681
 5738W        W 9802   1.209   2.188   0.321 -0.0593  0.2454  0.2916
 5739W        W 9803   8.947   8.993   0.603 -0.1886 -0.1248  0.0752
 5740W        W 9804   8.974   8.531  11.149  0.1387 -0.1288  0.0069
 5741W        W 9805   0.655   8.945   9.917  0.2519  0.0081  0.1451
 5742W        W 9806   3.708   5.526   8.293 -0.1431  0.1472  0.1588
 5743W        W 9807   8.746   7.592   3.345 -0.1884  0.0071  0.2437
 5744W        W 9808   2.998   8.193   0.128 -0.0403 -0.2633 -0.1105
 5745W        W 9809   4.552   6.635   1.398  0.0869 -0.5144 -0.1442
 5746W        W 9810   9.227   4.411  11.478 -0.1060  0.0334 -0.0511
 5747W        W 9811   9.246   7.929   8.490 -0.4278 -0.1087  0.1145
 5748W        W 9812   9.805   7.596  11.226 -0.1372 -0.0341 -0.1659
 5749W        W 9813   3.651   3.268   3.816  0.1991  0.1194 -0.1544
 5750W        W 9814   4.114   6.464  11.513  0.2910 -0.2021  0.0064
 5751W        W 9815   4.385  10.246   0.762 -0.1281  0.1998 -0.0223
 5752W        W 9816   8.457   5.554   3.905  0.1087 -0.1262 -0.0539
 5753W        W 9817   4.115   9.545  10.627 -0.0533 -0.1165  0.3916
 5754W        W 9818   5.120   9.743   0.473  0.1624 -0.3247  0.0671
 5755W        W 9819   8.507   1.211  10.947 -0.2433 -0.0611  0.0698
 5756W        W 9820   0.285   2.849   0.690  0.1999 -0.1493  0.0585
 5757W        W 9821   0.761   1.273   3.087 -0.2486 -0.1886 -0.1536
 5758W        W 9822   8.295   5.791   1.031  0.5736 -0.3358  0.2012
 5759W        W 9823   8.755   4.834   1.109  0.0586 -0.1395  0.0154
 5760W        W 9824   8.852   4.156   2.459 -0.2028 -0.2625 -0.1023
 5761W        W 9825   3.459   4.591   3.284  0.0797  0.0926  0.4716
 5762W        W 9826   8.745   5.837   0.874 -0.1212 -0.1719  0.2071
 5763W        W 9827   8.144   3.789   7.644  0.1429  0.1315 -0.1280
 5764W        W 9828   9.424   6.244   2.392 -0.0645  0.2915  0.3003
 5765W        W 9829   0.218   0.559   0.063 -0.2508 -0.0455  0.0780
 5766W        W 9830  10.401   0.784   8.653 -0.1462 -0.0319 -0.2859
 5767W        W 9831   5.118   1.737   0.798  0.0412 -0.2356 -0.0925
 5768W        W 9832   1.573   2.438   0.015  0.3959  0.3581 -0.0083
 5769W        W 9833   8.564   6.401   7.308 -0.0673  0.0100  0.0813
 5770W        W 9834   0.701   9.048   7.082 -0.2225  0.0103 -0.0944
 5771W        W 9835   6.110   7.754   3.504  0.1124 -0.1084 -0.0038
 5772W        W 9836   2.227   7.199   8.598  0.2035 -0.1601 -0.2344
 5773W        W 9837   9.572   5.140   3.097  0.0308 -0.0736  0.0611
 5774W        W 9838   6.489   8.281   8.178  0.0537  0.2278  0.0823
 5775W        W 9839  10.667   6.205  10.090  0.2281 -0.2541  0.2378
 5776W        W 9840   5.374   3.607   3.119 -0.3989 -0.0084  0.3570
 5777W        W 9841   1.987  10.564   2.928  0.4204  0.2344 -0.1342
 5778W        W 9842   4.034   9.715   7.977  0.1485  0.2093 -0.2979
 5779W        W 9843   3.280   4.151   3.458 -0.0764 -0.4378 -0.1201
 5780W        W 9844   8.173   1.528   8.698 -0.3612  0.0321 -0.4121
 5781W        W 9845   1.630   7.617   8.617 -0.0723 -0.1076  0.1319
 5782W        W 9846   2.292   0.004   1.275  0.1336 -0.1592  0.0908
 5783W        W 9847   0.430   6.639   3.617  0.0348 -0.3057 -0.0636
 5784W        W 9848   2.142   6.598   8.415 -0.0664  0.1396 -0.0038
 5785W        W 9849   8.399   6.843   7.340  0.0210  0.0267 -0.0942
 5786W        W 9850   9.868   1.669   3.538 -0.0090 -0.2067  0.0350
 5787W        W 9851   4.465   1.404   1.539  0.2797  0.0436 -0.0662
 5788W        W 9852   8.856   4.321   7.708  0.0764  0.0677 -0.0054
 5789W        W 9853   5.032   7.587  10.964 -0.0844 -0.0835  0.0157
 5790W        W 9854   0.479   6.599   1.834 -0.2034 -0.2589 -0.1008
 5791W        W 9855   6.493   7.143   6.907  0.0472  0.3248 -0.1022
 5792W        W 9856   2.721   7.231   2.119  0.1613 -0.1977 -0.0659
 5793W        W 9857   7.085   1.706   1.011  0.4433  0.0184  0.0694
 5794W        W 9858   2.200   9.627   9.815 -0.1831 -0.0720 -0.2156
 5795W        W 9859   9.081   8.816  10.264 -0.0869 -0.0015  0.1553
 5796W        W 9860  10.252   6.687   8.296  0.2233 -0.2160  0.3003
 5797W        W 9861   8.332   1.387  11.366  0.1291  0.1270  0.1761
 5798W        W 9862   9.148   0.744   1.906 -0.0264 -0.1459  0.2932
 5799W        W 9863   1.627   0.518   9.502 -0.2314 -0.1858  0.0248
 5800W        W 9864   7.462   9.054   9.819 -0.0967  0.1855 -0.3101
 5801W        W 9865   4.552   0.087   3.538 -0.0431  0.1137 -0.0087
 5802W        W 9866   3.513   1.909   2.508 -0.0811  0.0608  0.3917
 5803W        W 9867  10.024   8.885  10.824 -0.1897 -0.4196 -0.2324
 5804W        W 9868   5.506   3.263   8.001 -0.0184  0.4242  0.0440
 5805W        W 9869  10.449   6.381   9.350  0.2211  0.1517 -0.1547
 5806W        W 9870   5.141   2.933  11.408 -0.0726  0.1586 -0.1635
 5807W        W 9871   2.970   3.264  10.829  0.0371  0.3985 -0.0041
 5808W        W 9872   5.832   7.041   3.359 -0.0295 -0.1110 -0.1627
 5809W        W 9873   4.963   3.985   7.772 -0.0846  0.3095 -0.1095
 5810W        W 9874   2.934   3.266   2.339 -0.3626 -0.0758 -0.1076
 5811W        W 9875   3.168   6.682  11.033 -0.0838  0.2961  0.0514
 5812W        W 9876   2.785   5.428   1.663  0.1277 -0.0959 -0.0619
 5813W        W 9877   6.833  10.567   9.258  0.0381  0.0398  0.2454
 5814W        W 9878   4.762   3.156   2.622  0.1623 -0.2332  0.2642
 5815W        W 9879   4.318   4.792   2.865  0.5429  0.0880 -0.0889
 5816W        W 9880   1.349   4.135   0.936  0.5221 -0.3845 -0.0738
 5817W        W 9881   7.298   0.331   9.964 -0.0045  0.1231  0.1205
 5818W        W 9882   1.328   1.310   3.813  0.0570  0.2091  0.1332
 5819W        W 9883   8.992   6.334   3.298 -0.1304 -0.2593  0.1615
 5820W        W 9884   5.920   2.584  10.218  0.0516  0.0747 -0.1210
 5821W        W 9885   0.723   9.009   1.627  0.0360  0.2329  0.0221
 5822W        W 9886   9.818   1.625   8.358  0.2877 -0.0289 -0.0801
 5823W        W 9887   6.854   0.549   9.783 -0.0447 -0.1152  0.2115
 5824W        W 9888   0.410   8.571  10.283 -0.2439 -0.0976  0.4286
 5825W        W 9889   1.162   0.601   8.740 -0.2546  0.2444  0.1902
 5826W        W 9890   0.431   4.758   3.516  0.0640  0.0844 -0.1763
 5827W        W 9891   3.690   3.277  10.396 -0.0381 -0.3710 -0.1269
 5828W        W 9892   5.856  10.337   0.935  0.3256  0.3563 -0.2565
 5829W        W 9893   3.104   6.604   2.686  0.0020 -0.0945  0.3124
 5830W        W 9894  10.306   9.430   2.754  0.0110 -0.1663 -0.0452
 5831W        W 9895  10.665   8.831   8.860 -0.3350  0.1678  0.1139
 5832W        W 9896   0.226  10.669   0.339 -0.0759  0.1906 -0.0639
 5833W        W 9897   5.775   3.040  10.376 -0.3086 -0.0965 -0.0582
 5834W        W 9898   5.263   5.445   9.847  0.1732 -0.4305 -0.0482
 5835W        W 9899   6.648   7.462   0.899 -0.1236  0.1243 -0.3417
 5836W        W 9900   0.139   1.784   8.738  0.0302 -0.2167  0.0447
 5837W        W 9901   4.222   8.675  11.050  0.1395  0.0841 -0.2265
 5838W        W 9902   4.641   3.345  10.688 -0.0119 -0.1628  0.0579
 5839W        W 9903   7.007   6.953   2.096  0.2030 -0.0911 -0.0437
 5840W        W 9904   2.401   9.936   8.185 -0.0588 -0.0020 -0.0893
 5841W        W 9905   2.256  10.132   0.634 -0.1205 -0.2017 -0.1587
 5842W        W 9906   2.855   6.781   2.185  0.0608 -0.0492  0.0705
 5843W        W 9907   8.922   0.438  11.453 -0.1499  0.2412 -0.1156
 5844W        W 9908   4.303   1.677   3.274 -0.2866 -0.2299 -0.1472
 5845W        W 9909   4.557   1.083   2.051  0.0079  0.4336 -0.3588
 5846W        W 9910   4.669   5.343   0.401  0.1806 -0.1650  0.0907
 5847W        W 9911   8.104   8.119   0.656 -0.0206  0.3709 -0.1956
 5848W        W 9912   6.942   8.683  10.484  0.0137 -0.1651  0.2242
 5849W        W 9913   8.949   7.072   9.182 -0.1443  0.0543  0.1185
 5850W        W 9914   3.349   7.396   0.491  0.0245  0.0026  0.0849
 5851W        W 9915   0.891   0.664   0.984 -0.0180  0.0287  0.0587
 5852W        W 9916   3.312   4.662   2.550  0.1822  0.2326 -0.0387
 5853W        W 9917   0.526   3.484   1.123 -0.0225 -0.2613  0.3541
 5854W        W 9918   6.748   4.213   1.231  0.0677 -0.1969  0.1747
 5855W        W 9919   6.958   0.861  10.118  0.2069  0.0405  0.0389
 5856W        W 9920   2.444   7.864   2.858  0.0504  0.0027  0.0049
 5857W        W 9921   7.052   9.050   3.367 -0.0118  0.2455  0.1188
 5858W        W 9922   2.948   7.681  10.002  0.0879 -0.1132  0.1838
 5859W        W 9923   5.805   5.772   3.866  0.3780 -0.1616 -0.0907
 5860W        W 9924   7.875   8.052   9.783  0.1558  0.0606 -0.2308
 5861W        W 9925   1.592   5.978   1.550 -0.1827 -0.0251  0.2303
 5862W        W 9926   9.537   3.712   2.076 -0.0291  0.2062 -0.0405
 5863W        W 9927   6.709   4.986   9.179 -0.0773  0.0598 -0.3882
 5864W        W 9928   4.572   0.870   1.616 -0.1032 -0.2295  0.1254
 5865W        W 9929   1.440   9.534   0.453  0.0043  0.1567 -0.2789
 5866W        W 9930   9.424   7.188   1.097  0.0758 -0.1229 -0.0253
 5867W        W 9931   4.748   2.547  11.438  0.0738 -0.1200 -0.1338
 5868W        W 9932   1.409  10.021   0.462 -0.1232 -0.3114 -0.0882
 5869W        W 9933   9.040  10.057  10.224  0.1343 -0.0707  0.2530
 5870W        W 9934   5.629   5.209   7.628 -0.1426 -0.0659  0.0591
 5871W        W 9935   9.732   3.750   3.251  0.1153  0.2063  0.2411
 5872W        W 9936   1.527   8.503   9.679  0.2914  0.0823 -0.1076
 5873W        W 9937   6.937   6.849  10.675 -0.4320 -0.0486 -0.0894
 5874W        W 9938   1.959   2.279   3.524 -0.0604 -0.0446  0.1789
 5875W        W 9939   6.843   2.670   2.771  0.2216  0.0005  0.4309
 5876W        W 9940   5.525   9.497   3.775  0.0182  0.0380  0.0323
 5877W        W 9941   3.365   5.040   0.756 -0.1357  0.2156 -0.0369
 5878W        W 9942   2.926   4.975  11.268 -0.2316 -0.2279  0.0035
 5879W        W 9943   4.956   3.876   3.493 -0.4092 -0.0479  0.2989
 5880W        W 9944  10.278   6.337   7.940  0.0580  0.1597 -0.1589
 5881W        W 9945   2.322   8.013   8.413 -0.2629  0.0900  0.0880
 5882W        W 9946   0.372   4.046  10.874 -0.3123  0.2945 -0.1992
 5883W        W 9947   0.096  10.073  10.523 -0.0450 -0.0451  0.0381
 5884W        W 9948   4.824   2.150  11.038  0.1065 -0.0214  0.0286
 5885W        W 9949   3.278   1.007   0.768  0.3124 -0.0136  0.1205
 5886W        W 9950   1.649   1.868   2.897 -0.4194 -0.0313 -0.0903
 5887W        W 9951   7.921   2.838   8.108  0.0072 -0.1517 -0.0457
 5888W        W 9952   9.839   9.587   8.150  0.3726  0.2505  0.1886
 5889W        W 9953   4.959   5.405   3.344  0.2137  0.1490 -0.0885
 5890W        W 9954   2.126  10.576   8.697 -0.1443  0.2314  0.0877
 5891W        W 9955   8.185   6.127   2.327  0.0040 -0.0118  0.0578
 5892W        W 9956   3.331  10.457   8.959  0.2150  0.0704 -0.0840
 5893W        W 9957   1.017   1.276  10.537 -0.0932 -0.2124  0.1471
 5894W        W 9958   4.556   1.026   1.100  0.0339 -0.1690 -0.1964
 5895W        W 9959   4.896   5.366   8.482 -0.0338  0.1910 -0.2091
 5896W        W 9960   4.923   0.625  11.441  0.0390  0.1029  0.0255
 5897W        W 9961   6.960   4.645   8.313 -0.1169  0.1599 -0.0603
 5898W        W 9962  10.277   9.961   7.621 -0.0338 -0.2214  0.1436
 5899W        W 9963   6.309   3.028  11.292  0.0673  0.1446  0.3638
 5900W        W 9964   5.632   2.954   2.568 -0.0263 -0.0728  0.1882
 5901W        W 9965   5.851   5.172   8.644  0.0117 -0.0019  0.1483
 5902W        W 9966   5.266   7.161   7.804 -0.0768 -0.1710 -0.0037
 5903W        W 9967   1.456   1.035   7.921  0.1247 -0.0619 -0.1176
 5904W        W 9968   0.805   2.934   2.142 -0.2769  0.2606 -0.0603
 5905W        W 9969  10.079   4.012   8.914 -0.0347  0.2048 -0.1817
 5906W        W 9970   8.621  10.520   8.779  0.2765 -0.0152 -0.3521
 5907W        W 9971   3.893   1.068   0.672 -0.0006  0.1540 -0.0056
 5908W        W 9972   3.475   4.996   9.701  0.0018 -0.0207 -0.1726
 5909W        W 9973   6.542   4.895   8.083 -0.0229 -0.0149 -0.3301
 5910W        W 9974   1.849   8.164   1.440  0.0021 -0.1309  0.2029
 5911W        W 9975  10.069   3.256   2.691 -0.1945 -0.0351  0.1764
 5912W        W 9976   8.794   2.186   2.272 -0.2380  0.1602 -0.1918
 5913W        W 9977   2.337   9.613  11.416  0.1017  0.1333 -0.2899
 5914W        W 9978   5.802   0.356   3.331  0.2140  0.0028  0.1012
 5915W        W 9979   5.235   9.077   3.907 -0.0322 -0.0759  0.3541
 5916W        W 9980   6.790   3.058   3.083  0.0682 -0.4307 -0.0120
 5917W        W 9981   6.342   5.423   2.587 -0.0691  0.1184  0.0105
 5918W        W 9982   9.726   0.148   1.834  0.5046  0.1250 -0.1605
 5919W        W 9983   9.931   6.823   1.724 -0.2043  0.1182 -0.1754
 5920W        W 9984   4.729  10.130   0.392  0.1048 -0.0450  0.1998
 5921W        W 9985   7.037   3.893  11.049 -0.1494  0.0059  0.0173
 5922W        W 9986   4.939   4.101   0.735 -0.0372 -0.5184 -0.1165
 5923W        W 9987   5.450   8.624   1.433 -0.0719  0.0622  0.0515
 5924W        W 9988  10.510   1.526   1.408  0.2470 -0.2583  0.2597
 5925W        W 9989   6.662   0.289   0.003 -0.2324 -0.1451 -0.2568
 5926W        W 9990   1.822   6.036   7.305 -0.3711 -0.0313 -0.0899
 5927W        W 9991   1.672   8.768   0.959  0.1694 -0.1049  0.2503
 5928W        W 9992   9.422   3.759   1.564  0.2941  0.2010  0.0480
 5929W        W 9993   1.484   7.243   1.899  0.4032  0.0408 -0.1795
 5930W        W 9994   0.900   4.124   7.983 -0.0710  0.2263 -0.2546
 5931W        W 9995   0.223   1.923   9.593  0.1406 -0.3324  0.3755
 5932W        W 9996   0.450   9.256   9.499  0.3199 -0.3271  0.0283
 5933W        W 9997   7.876   3.428  11.168  0.0666  0.1106 -0.2837
 5934W        W 9998   6.688   9.009  11.199  0.1543 -0.0065 -0.0567
 5935W        W 9999   8.607  10.280  11.363  0.1522 -0.0505 -0.0599
 5936W        W10000   0.433   2.757   8.902 -0.1197 -0.2415 -0.0216
 5937W        W10001   9.183   3.413  11.022 -0.0803 -0.0029 -0.1784
 5938W        W10002   7.232   9.405   1.704  0.2164 -0.2018 -0.2167
 5939W        W10003   9.509   2.085   8.877  0.3843  0.1960 -0.1047
 5940W        W10004   7.391   0.739   8.008  0.0484 -0.0139 -0.0894
 5941W        W10005   6.368   9.514   8.245 -0.2328 -0.0315 -0.2825
 5942W        W10006   5.434   7.505   8.585  0.2593  0.2313  0.1040
 5943W        W10007   6.557   7.030  10.468  0.1051  0.2987  0.0716
 5944W        W10008   0.219   0.904   7.584 -0.3220 -0.2456 -0.0483
 5945W        W10009   2.680  10.171   7.301  0.0286  0.2018  0.2903
 5946W        W10010   6.350   9.726   9.684  0.1187 -0.2778  0.0077
 5947W        W10011   3.353   3.033   1.503  0.2657  0.1969  0.0638
 5948W        W10012   6.955   1.362   9.989  0.2368 -0.1607 -0.1203
 5949W        W10013   3.380   1.971  11.086  0.1947  0.2273 -0.0531
 5950W        W10014   1.513   1.206   9.269  0.0313 -0.2681 -0.1879
 5951W        W10015   2.526  10.542  11.445 -0.0774 -0.0277  0.0625
 5952W        W10016   2.752   3.880   0.612  0.1195 -0.5031 -0.1411
 5953W        W10017   3.599  10.261  11.183 -0.4254 -0.4678 -0.0459
 5954W        W10018   2.272   9.510   9.342  0.1633  0.1226 -0.0707
 5955W        W10019  10.327   7.447  11.356  0.2119 -0.1511 -0.3285
 5956W        W10020   6.064   0.525   9.854 -0.2786  0.1541 -0.0089
 5957W        W10021   1.699   3.882   0.667 -0.0451 -0.0625 -0.1686
 5958W        W10022   9.467   2.283   8.388  0.1271  0.0356 -0.1217
 5959W        W10023  10.609   3.439   3.335 -0.2290  0.2531 -0.1272
 5960W        W10024   8.842   4.572  11.021 -0.1858 -0.0586 -0.0438
 5961W        W10025   5.060   2.579   0.289 -0.0951 -0.0422  0.1823
 5962W        W10026   6.183   6.833   8.362  0.1543 -0.2039  0.0579
 5963W        W10027   4.134   3.422  10.298  0.0486  0.1600  0.0684
 5964W        W10028   3.060   4.185   0.926  0.0936  0.0215  0.0124
 5965W        W10029   2.961   7.875   3.019 -0.0326  0.0353  0.1703
 5966W        W10030   1.660   1.084  10.738 -0.1534 -0.0013  0.1184
 5967W        W10031   8.077   7.217  10.938 -0.0395  0.4738  0.4949
 5968W        W10032   1.583  10.459   2.594  0.0642 -0.1750 -0.0730
 5969W        W10033   5.065   5.642  11.239 -0.0819  0.0647 -0.4720
 5970W        W10034   0.322   2.674   2.904  0.1905  0.0595 -0.3426
 5971W        W10035   8.536   6.103   7.845  0.3105 -0.0538  0.1912
 5972W        W10036   9.994   3.977   2.281  0.0071 -0.2762  0.0830
 5973W        W10037   1.940   8.456   6.974  0.0850 -0.0875  0.0139
 5974W        W10038   6.914   7.137   1.183  0.0819  0.0647  0.1078
 5975W        W10039   8.189   8.539   0.936 -0.0483  0.2309 -0.3656
 5976W        W10040   7.061  10.399   1.613  0.0462  0.0113  0.1900
 5977W        W10041   9.564   0.188   8.889  0.0173 -0.1059  0.1295
 5978W        W10042   8.189  10.382   1.514  0.0906  0.2950 -0.1036
 5979W        W10043   0.020   0.098  10.349 -0.0232  0.0706 -0.3261
 5980W        W10044   2.555   8.885  10.764  0.2445  0.1452  0.1510
 5981W        W10045   3.183   9.364   8.292  0.2329 -0.0818  0.2044
 5982W        W10046   0.375   6.016   8.274 -0.2959 -0.0150  0.1038
 5983W        W10047   9.769   4.259   2.736 -0.0769 -0.2414  0.4631
 5984W        W10048   4.246   7.426   0.292  0.1351  0.0321 -0.0353
 5985W        W10049   7.001   6.368  10.528 -0.0541  0.0071 -0.0036
 5986W        W10050   7.561   8.764   2.576  0.0022  0.0824 -0.2164
 5987W        W10051   9.068   5.354  10.507  0.1924  0.3709 -0.1327
 5988W        W10052   6.338   2.537   9.933  0.6108 -0.1512 -0.1602
 5989W        W10053   1.400   3.922   9.748  0.0236  0.0371 -0.0906
 5990W        W10054   3.618   8.690   2.517 -0.1678 -0.2301  0.2378
 5991W        W10055   6.515   1.168   9.938  0.0466  0.0302 -0.0624
 5992W        W10056   1.030   9.296   1.279 -0.2997  0.1274 -0.0556
 5993W        W10057   0.405   8.649   8.338 -0.2048  0.1750  0.1981
 5994W        W10058   2.436   0.764  10.175  0.2915  0.1187  0.0864
 5995W        W10059   5.806   6.200  11.364  0.0844 -0.2387  0.1703
 5996W        W10060   4.670   5.588  11.525  0.5292  0.2140 -0.0360
 5997W        W10061   8.062   5.402   9.545  0.2697 -0.0759 -0.0842
 5998W        W10062   3.880   1.819   3.602 -0.0051 -0.0259 -0.1147
 5999W        W10063   9.675  10.012  10.048  0.0383 -0.2936  0.0596
 6000W        W10064   5.462   6.409   2.068  0.0897 -0.0568  0.2230
 6001W        W10065   2.440   2.619   3.553  0.0840  0.0616  0.0199
 6002W        W10066   1.609   2.025  11.003  0.1457 -0.0704 -0.1143
 6003W        W10067   2.892   6.803  10.429 -0.0130 -0.0187  0.0840
 6004W        W10068   2.738   8.027  10.659  0.2464 -0.1666 -0.2229
 6005W        W10069   1.687   9.620  10.565 -0.2175 -0.1529  0.1687
 6006W        W10070   9.390   6.775   0.289 -0.0870  0.0666  0.0765
 6007W        W10071   7.442   8.249   9.427  0.2890  0.0517  0.1018
 6008W        W10072   5.326   4.870   9.997  0.0838 -0.0491 -0.0036
 6009W        W10073   4.453  10.048   9.848  0.0483 -0.0478  0.3837
 6010W        W10074   1.296   5.077  11.068  0.0971  0.1416 -0.1449
 6011W        W10075   5.502   0.995   9.538  0.0269  0.0901  0.0457
 6012W        W10076   4.750   8.937   9.618  0.0221 -0.0500  0.3197
 6013W        W10077   7.635   5.709   7.693 -0.0992  0.0985  0.0759
 6014W        W10078   7.068   1.249   2.659 -0.1992 -0.4519  0.1458
 6015W        W10079   7.892   9.441   8.019  0.0283  0.1109  0.1469
 6016W        W10080   3.998   0.044   0.708  0.0500  0.0747 -0.4450
 6017W        W10081   1.385   2.642   2.395 -0.0302  0.1095  0.1378
 6018W        W10082  10.023   4.874  11.272  0.3051 -0.0782 -0.1666
 6019W        W10083   3.977   8.427   2.233 -0.2184  0.1500  0.2896
 6020W        W10084   3.356   6.051   3.285 -0.4613 -0.1598 -0.0337
 6021W        W10085   7.511   1.934  10.449  0.0894 -0.1800  0.2128
 6022W        W10086   3.023   6.127   9.460 -0.0160 -0.0939  0.0351
 6023W        W10087   2.467   4.652   3.101 -0.1301 -0.1489 -0.1249
 6024W        W10088   1.825   9.224   0.595  0.1164  0.1492  0.1625
 6025W        W10089   6.651   8.767   3.201  0.1612 -0.0899 -0.2657
 6026W        W10090   9.818   2.457  10.006 -0.0696  0.1757  0.0362
 6027W        W10091   3.025   1.578   1.010 -0.5009  0.4093 -0.2579
 6028W        W10092   8.797   5.595  10.013 -0.2316 -0.2413  0.0066
 6029W        W10093   3.538  10.239   2.223 -0.1870  0.1286 -0.2601
 6030W        W10094   1.155   3.266   0.587  0.0037 -0.0238  0.1330
 6031W        W10095   3.223   4.601   0.601  0.2572  0.2030  0.1565
 6032W        W10096   3.402   9.571   3.104  0.0835 -0.1168  0.1181
 6033W        W10097   4.093   6.279  10.388 -0.2111  0.3618 -0.0145
 6034W        W10098   5.144   8.666  11.041  0.2580 -0.0363  0.2683
 6035W        W10099   2.873   0.584  10.867  0.1219 -0.1743  0.1942
 6036W        W10100   0.300  10.599   7.705 -0.1095 -0.0733 -0.0476
 6037W        W10101   6.052  10.278   9.717  0.2887  0.0877  0.3745
 6038W        W10102   4.227   5.534   1.405  0.0049 -0.0973  0.1648
 6039W        W10103   0.496   9.013  11.143 -0.1007  0.1033 -0.0203
 6040W        W10104   5.972   0.299   8.611  0.3730  0.1096 -0.1148
 6041W        W10105   6.951   2.228   2.570  0.0961  0.1230 -0.1915
 6042W        W10106   3.102   6.119   2.849 -0.0797 -0.0235  0.1091
 6043W        W10107   2.911   5.702   2.958  0.0531  0.2018  0.1192
 6044W        W10108   2.101   0.079   8.065  0.1852  0.0994 -0.0290
 6045W        W10109  10.657   6.302   1.802 -0.1551  0.1387  0.2836
 6046W        W10110   6.013   9.474   9.975 -0.1743 -0.0450  0.0904
 6047W        W10111  10.499   7.680   7.709 -0.2355 -0.1998  0.2105
 6048W        W10112   4.174   8.601   1.813  0.2433 -0.3642  0.2482
 6049W        W10113   3.908   1.969  10.912 -0.1531  0.0845 -0.0597
 6050W        W10114   6.207   8.134  10.300  0.0478 -0.1617 -0.1345
 6051W        W10115   0.370   7.642   9.015 -0.3587 -0.0550  0.0332
 6052W        W10116   3.723   4.564   2.877  0.1295  0.1723 -0.0199
 6053W        W10117   0.325   2.356   1.033 -0.0676 -0.1400 -0.0715
 6054W        W10118   8.472   6.774   9.271 -0.0563 -0.1270  0.2650
 6055W        W10119   0.654   5.650  10.548  0.3459  0.0654  0.2060
 6056W        W10120   6.828   7.754   7.463 -0.2549  0.3055  0.0128
 6057W        W10121   7.655   7.950   4.010  0.1431  0.1213 -0.0858
 6058W        W10122   7.378   9.802   8.183  0.2396  0.0956 -0.2656
 6059W        W10123   6.122   8.370   9.441  0.3476  0.0454 -0.0036
 6060W        W10124   4.375   6.432   2.226  0.1175  0.1253  0.0923
 6061W        W10125  10.081   1.097   8.456  0.0174  0.2871  0.0562
 6062W        W10126  10.146   2.837   8.578 -0.0988  0.2532  0.0026
 6063W        W10127   3.895   4.370   1.946 -0.1098 -0.0441  0.0086
 6064W        W10128   3.827   8.016   3.510  0.0143  0.1497  0.0396
 6065W        W10129   7.423   0.503   2.209  0.0339  0.1064  0.1709
 6066W        W10130   8.271   1.286   3.901 -0.2180  0.1568 -0.1213
 6067W        W10131   3.944   2.215   1.856  0.1531  0.0099  0.0134
 6068W        W10132   6.949   7.358   8.323 -0.0445  0.1462 -0.3903
 6069W        W10133   8.721   3.562  10.752 -0.0007  0.3622 -0.0308
 6070W        W10134  10.634   8.407  10.106 -0.0810  0.3026  0.1551
 6071W        W10135   5.119   2.795   3.358 -0.3030 -0.2447 -0.3617
 6072W        W10136   1.738   4.633   8.668 -0.3436 -0.2817 -0.0417
 6073W        W10137   3.612   9.665  10.636  0.1621 -0.0132  0.3057
 6074W        W10138   0.104   3.665   0.898 -0.1657  0.1839 -0.1079
 6075W        W10139   4.360   8.933  10.123  0.0809 -0.2343  0.0757
 6076W        W10140   7.013   3.502   1.345 -0.1454  0.2904 -0.2615
 6077W        W10141   0.627   8.560   1.732  0.0463  0.1250 -0.4715
 6078W        W10142   2.510   2.462  11.036 -0.0509  0.0422 -0.4838
 6079W        W10143   9.113   1.571   1.062 -0.1603  0.0804  0.1897
 6080W        W10144   5.534   4.941   9.211  0.0796  0.0240  0.0592
 6081W        W10145   9.425   3.420  11.437 -0.0006 -0.0446 -0.0229
 6082W        W10146   3.015   2.340   2.314  0.1017 -0.4196 -0.2509
 6083W        W10147   8.720  10.618   7.889  0.0626  0.0513 -0.0473
 6084W        W10148   1.094   6.572   3.961  0.1293 -0.2528  0.2161
 6085W        W10149   8.786  10.079  10.984  0.2794  0.1339  0.2683
 6086W        W10150   9.986   6.926   8.621  0.2432  0.1083  0.1556
 6087W        W10151   6.545   8.502  11.380  0.0325 -0.1866 -0.1041
 6088W        W10152   2.692  10.629   2.220 -0.2293 -0.3530  0.1361
 6089W        W10153   0.462   1.427   8.617  0.0116  0.0319  0.2757
 6090W        W10154  10.573   4.787   9.706  0.1627  0.0588 -0.1952
 6091W        W10155  10.306   5.392   7.456  0.0321  0.1408  0.2086
 6092W        W10156   6.496   3.181  10.808 -0.1364  0.0864 -0.0582
 6093W        W10157   1.053   7.248  11.472  0.0799  0.2352 -0.2151
 6094W        W10158   8.497   5.475   0.617  0.1538 -0.1070 -0.2092
 6095W        W10159   5.256   0.763   0.764  0.2973 -0.0476 -0.1524
 6096W        W10160   4.968   3.098   8.981 -0.1353  0.1830 -0.0452
 6097W        W10161   4.000   1.703   2.751  0.0881  0.3348 -0.0206
 6098W        W10162   2.907   9.818   2.986 -0.0164  0.2614 -0.1972
 6099W        W10163   7.507   7.322   0.555 -0.4205  0.3228  0.2919
 6100W        W10164   2.882   3.886   1.448  0.0835 -0.2084 -0.1618
 6101W        W10165   8.373   6.336   9.592 -0.0309  0.1603  0.0664
 6102W        W10166  10.104   1.937   0.000 -0.0307 -0.4131  0.0214
 6103W        W10167   2.247   0.776   8.361  0.3281  0.0260 -0.3337
 6104W        W10168  10.159   9.571   8.971 -0.1630 -0.2228  0.0322
 6105W        W10169   3.827   3.925   1.556  0.0224 -0.0540  0.0195
 6106W        W10170   0.175   0.890   3.681  0.1648  0.2084 -0.0039
 6107W        W10171   4.644   2.801   1.287 -0.4057 -0.2578 -0.0245
 6108W        W10172   4.469   4.506   4.013 -0.1951 -0.3350 -0.1452
 6109W        W10173   2.112   1.147  10.000 -0.2861  0.2006 -0.0257
 6110W        W10174   2.987   2.478   2.895  0.0759  0.0179 -0.2117
 6111W        W10175   0.455   7.645   3.232 -0.0188 -0.2920 -0.1780
 6112W        W10176   0.219   2.060  11.491 -0.0787  0.3688  0.2618
 6113W        W10177   5.859  10.639   7.865 -0.0390  0.3602  0.3167
 6114W        W10178   2.804   5.955   1.177  0.2686 -0.1697  0.0720
 6115W        W10179   1.374   7.027  10.891  0.0846 -0.0065 -0.0684
 6116W        W10180   8.347   5.760   9.924  0.1585 -0.1397 -0.0570
 6117W        W10181   7.039   2.915  10.743 -0.2024 -0.2310  0.3871
 6118W        W10182   9.818   7.516   2.037 -0.3033  0.0902  0.0942
 6119W        W10183   1.648   5.132   0.303  0.0385  0.2680  0.0297
 6120W        W10184   6.550   9.424   3.907 -0.2644 -0.1226  0.3531
 6121W        W10185   2.257   6.876   2.575  0.0698 -0.3416  0.0397
 6122W        W10186   4.919   9.483   1.224  0.0769  0.1414 -0.0558
 6123W        W10187   1.280   4.673   2.550  0.1473  0.0128  0.3046
 6124W        W10188   0.309   0.798   2.455  0.1257 -0.1511 -0.3577
 6125W        W10189   0.926   4.643   8.181 -0.0168 -0.2199 -0.0073
 6126W        W10190   1.059   6.485  10.701 -0.0778  0.0287 -0.1274
 6127W        W10191   7.990   4.766   8.077 -0.1723  0.0356  0.2413
 6128W        W10192   5.330   9.118   9.254  0.1863  0.2697  0.0292
 6129W        W10193   8.053   6.317   9.202 -0.2552 -0.1930  0.3147
 6130W        W10194   0.077   6.442   4.131  0.1823  0.0858 -0.2101
 6131W        W10195   3.390   0.061   2.035 -0.1369  0.1047 -0.0471
 6132W        W10196   3.040   9.281   2.923 -0.0399  0.0124 -0.2057
 6133W        W10197   5.174  10.090  10.188 -0.0989 -0.0290  0.0448
 6134W        W10198   3.355   1.123   9.966  0.1237  0.0930  0.1079
 6135W        W10199   9.366  10.306   3.404  0.2112  0.1973  0.4929
 6136W        W10200   2.104   3.230  11.153 -0.0538  0.1661 -0.0205
 6137W        W10201   8.267   0.583   3.139  0.1284 -0.0603 -0.2732
 6138W        W10202   5.886   9.896   0.015  0.1659 -0.1269  0.3346
 6139W        W10203   5.140   8.983   8.605  0.1090 -0.1519  0.1819
 6140W        W10204   3.792   1.805  10.286  0.1991 -0.0638  0.1681
 6141W        W10205   1.767   1.061  11.322 -0.0013  0.0661  0.0905
 6142W        W10206   1.368   9.654  11.284 -0.0725  0.2185 -0.1596
 6143W        W10207   8.002   2.629   1.723 -0.1325  0.0793  0.1448
 6144W        W10208   6.993  10.091   0.494  0.1302 -0.0474  0.4139
 6145W        W10209   8.493   0.145  11.281 -0.0018 -0.1947  0.2181
 6146W        W10210   3.805   2.732   2.485  0.2157  0.1311 -0.3299
 6147W        W10211   8.131   5.953  10.396 -0.5847  0.1227  0.2089
 6148W        W10212  10.179   0.112   1.457  0.1342  0.1861 -0.1193
 6149W        W10213   1.291  10.454   9.045 -0.0538 -0.0650  0.2087
 6150W        W10214   5.450   6.548   0.788 -0.3346 -0.0297 -0.3742
 6151W        W10215   6.214   4.528   8.098 -0.0031 -0.1280  0.2080
 6152W        W10216   1.420  10.435   0.083 -0.0926 -0.3057 -0.0776
 6153W        W10217   0.027   6.632   7.822 -0.0424  0.1474 -0.0985
 6154W        W10218   4.821  10.239   1.323  0.1743  0.0333 -0.1741
 6155W        W10219   0.276   3.843   1.384 -0.2109  0.1417  0.0275
 6156W        W10220   3.850   1.444   3.206 -0.0140 -0.1955 -0.0875
 6157W        W10221   8.751   0.662   9.050 -0.0174  0.1266 -0.0848
 6158W        W10222   6.203   8.741   8.456  0.1392  0.1273  0.2933
 6159W        W10223   8.674   1.336   9.083 -0.0167  0.0783 -0.1299
 6160W        W10224   6.021   6.619   8.762  0.0872 -0.0399 -0.5334
 6161W        W10225   2.888   6.480   1.275  0.0682  0.1168  0.4126
 6162W        W10226   4.454   2.441   0.964 -0.0974 -0.0934  0.0761
 6163W        W10227   8.403   0.666  10.890 -0.0235  0.2987 -0.0387
 6164W        W10228   3.657   9.308   1.681  0.2259  0.0693  0.0261
 6165W        W10229   2.526   6.441   2.420  0.2619 -0.1912 -0.0392
 6166W        W10230   7.059   6.039   1.622  0.1937  0.1261  0.1067
 6167W        W10231   9.775   8.166   7.325 -0.0762  0.1987  0.0818
 6168W        W10232   2.615   4.383   1.717 -0.0054 -0.2018 -0.1669
 6169W        W10233   9.580   6.663  11.270  0.1185 -0.2017 -0.3466
 6170W        W10234   0.642   7.471   3.724 -0.2580  0.0522 -0.2016
 6171W        W10235   1.333   4.907   9.737 -0.0339 -0.4765 -0.1175
 6172W        W10236  10.387   1.947   1.664  0.0319 -0.3321  0.1175
 6173W        W10237   7.110   6.611   1.743 -0.0904 -0.0704 -0.0948
 6174W        W10238   4.741   4.996   3.248 -0.2465 -0.1181 -0.1453
 6175W        W10239   0.497   7.608  10.315  0.1216 -0.1819 -0.2582
 6176W        W10240   2.671   8.651   0.064 -0.4346 -0.0603  0.0284
 6177W        W10241   4.481   5.844   0.981 -0.3077 -0.0535  0.3045
 6178W        W10242   4.160   4.347  10.141 -0.0339  0.0692 -0.1698
 6179W        W10243   5.385  10.376   2.950 -0.2729 -0.3999 -0.1397
 6180W        W10244   9.399   3.824   7.223  0.0062  0.0371 -0.0792
 6181W        W10245   2.675   7.366   2.933  0.1963  0.0922 -0.0834
 6182W        W10246   7.932   3.634   2.991 -0.2211 -0.0730  0.1099
 6183W        W10247   4.614   4.423   8.822 -0.1974  0.0728  0.0655
 6184W        W10248   6.818   0.486   4.004 -0.0176 -0.1045  0.1156
 6185W        W10249   1.542  10.282   0.965  0.2490 -0.0704  0.2018
 6186W        W10250   4.655   1.025  10.124  0.2117  0.2796 -0.1314
 6187W        W10251   1.084   2.456   7.853  0.1178 -0.1742  0.0083
 6188W        W10252   1.676   6.824   8.512 -0.0280  0.2866  0.0012
 6189W        W10253  10.490   5.769   0.362  0.3712 -0.0766  0.2189
 6190W        W10254  10.208   0.410   1.929 -0.2413 -0.0605 -0.0844
 6191W        W10255   5.267   5.548   0.580 -0.2393  0.2794 -0.3208
 6192W        W10256   3.896   1.738   1.549 -0.0406 -0.1748  0.0935
 6193W        W10257   2.664   9.909  10.641 -0.2269 -0.2381 -0.1762
 6194W        W10258   0.919   9.455   0.767  0.1247  0.0615 -0.0790
 6195W        W10259   0.140   8.880   9.341 -0.0640  0.0796  0.0728
 6196W        W10260   7.824   3.173   2.263  0.0031 -0.1511 -0.1655
 6197W        W10261   1.489   7.498   0.666  0.0174 -0.2304  0.0416
 6198W        W10262   6.226   1.557   2.165 -0.1326  0.0018 -0.3024
 6199W        W10263   4.924  10.133   9.762 -0.1660 -0.3622  0.3310
 6200W        W10264   4.788   0.075  10.935 -0.1248 -0.0172 -0.0310
 6201W        W10265   5.985   0.837   2.969  0.2317  0.0764 -0.3015
 6202W        W10266   3.508   3.509   9.325 -0.0952 -0.1624  0.0985
 6203W        W10267   0.645   4.503  11.314 -0.0457  0.0118  0.2659
 6204W        W10268   9.594   9.764   3.517 -0.3475  0.0512  0.1360
 6205W        W10269   4.056   2.634   0.760 -0.3981 -0.2197  0.1162
 6206W        W10270   1.407   8.689   2.281 -0.0557  0.1774 -0.0506
 6207W        W10271   3.953   9.822  11.043 -0.4354  0.1689 -0.1883
 6208W        W10272   7.574   3.321   0.371 -0.2581 -0.3141  0.2608
 6209W        W10273   7.065   8.358   3.205 -0.0836  0.0797 -0.0930
 6210W        W10274   2.279   8.186   3.167  0.0126  0.0727 -0.3087
 6211W        W10275   0.913   6.482   1.152  0.0270  0.2694  0.1520
 6212W        W10276   4.103   0.410  10.507 -0.0604 -0.1123 -0.0853
 6213W        W10277   2.002   3.780   1.178  0.0905 -0.2275 -0.0355
 6214W        W10278   8.146   2.441   8.879  0.0501  0.0494  0.0455
 6215W        W10279   2.653   4.486   9.949 -0.0925 -0.0889 -0.0865
 6216W        W10280   2.875   2.649  11.376  0.3226 -0.5940  0.0320
 6217W        W10281   2.667  10.051   3.367 -0.2534  0.2951  0.0053
 6218W        W10282   3.141   5.531   1.276 -0.0122 -0.1367 -0.1366
 6219W        W10283   2.823   1.670   0.230 -0.0587  0.0845  0.0544
 6220W        W10284   1.602   1.038   9.746  0.1034  0.1607 -0.1221
 6221W        W10285   5.534   6.066  10.964  0.1628 -0.0343 -0.0385
 6222W        W10286   5.224   6.609   8.507  0.0425  0.1148  0.0881
 6223W        W10287   7.027   1.934  11.152 -0.5035 -0.0584  0.1114
 6224W        W10288   4.703   9.859   1.608 -0.1540 -0.0532 -0.4108
 6225W        W10289   0.235   8.892   0.742  0.0046  0.0099  0.3701
 6226W        W10290   9.978   1.905   1.361  0.0603 -0.1136  0.1349
 6227W        W10291   1.959   1.509   2.091 -0.1060  0.3232  0.1054
 6228W        W10292   9.664   7.492   0.630  0.1346  0.0224 -0.0421
 6229W        W10293   9.275   2.365   0.463  0.1932 -0.0004 -0.0501
 6230W        W10294   3.021   0.678   1.564  0.1418  0.0071  0.3955
 6231W        W10295   1.668   5.822   0.994 -0.0903 -0.0841  0.1750
 6232W        W10296   8.410  10.426   9.841  0.0684  0.1825  0.3925
 6233W        W10297   3.564   6.475   3.312 -0.2953 -0.0044 -0.2689
 6234W        W10298   4.287   4.879   1.710  0.1311 -0.0271 -0.2263
 6235W        W10299  10.107   3.465   3.154 -0.1161  0.1573 -0.0089
 6236W        W10300   4.740   1.781   8.514 -0.1933  0.1596  0.1358
 6237W        W10301  10.519   0.380  10.761 -0.1476  0.0229  0.1394
 6238W        W10302   9.498   7.586   0.117  0.1547  0.1615 -0.0502
 6239W        W10303   9.791   5.261   8.410 -0.4176 -0.0290 -0.1150
 6240W        W10304   6.930   4.518   8.773 -0.2856  0.2127  0.0896
 6241W        W10305   1.799   2.330   3.084 -0.0529 -0.1329  0.1585
 6242W        W10306   2.984   6.092   8.851 -0.1292 -0.2440  0.4831
 6243W        W10307   6.619   4.154  11.154 -0.0273 -0.0590  0.0819
 6244W        W10308   3.129  10.430   2.906  0.0390 -0.0914 -0.1023
 6245W        W10309   7.930   1.255   3.557 -0.0476 -0.0167  0.0657
 6246W        W10310   8.480   3.699  10.375  0.1039  0.0183  0.0936
 6247W        W10311   6.655   3.307   9.759 -0.1575 -0.0056  0.0421
 6248W        W10312   3.766   4.107   9.880  0.0303  0.1750  0.3656
 6249W        W10313   0.253   5.249  11.412 -0.1378  0.3714 -0.1182
 6250W        W10314   7.202   5.830   7.331 -0.2427 -0.3110 -0.1700
 6251W        W10315   7.303   8.789   0.880 -0.2702 -0.0464  0.0206
 6252W        W10316   7.866   8.626   3.535  0.2404 -0.1633  0.0184
 6253W        W10317   2.698   6.999   2.609  0.0548  0.1279 -0.1397
 6254W        W10318   9.916   2.386   1.332 -0.1641 -0.2934  0.0846
 6255W        W10319   4.136   9.080   1.625 -0.0805  0.0155 -0.1492
 6256W        W10320   4.188   3.838  10.032  0.1724 -0.1646 -0.3160
 6257W        W10321   4.245   5.153   7.808  0.1026  0.0030  0.1401
 6258W        W10322   3.892   9.056  10.333 -0.2728  0.0377  0.1473
 6259W        W10323   5.702   2.044   1.505 -0.1655 -0.1194 -0.1241
 6260W        W10324   0.170   8.206  11.206  0.0119 -0.2561  0.3488
 6261W        W10325   8.483   3.838   2.550  0.0245 -0.2390  0.1458
 6262W        W10326   4.793   1.800   1.455 -0.0451  0.1341  0.0027
 6263W        W10327   2.705   8.626   2.546  0.0652 -0.2085 -0.0661
 6264W        W10328   6.974   9.527   3.410 -0.2840 -0.1420 -0.1448
 6265W        W10329   9.566   5.213   1.009  0.1558  0.1000  0.1215
 6266W        W10330   0.173   8.766   2.993  0.0428  0.1533  0.2116
 6267W        W10331   9.099   2.868   9.889  0.1402 -0.0269 -0.0551
 6268W        W10332  10.241   3.987   9.360 -0.0553  0.1857 -0.0143
 6269W        W10333   1.432   4.591   0.248  0.2287 -0.1201  0.3702
 6270W        W10334   1.857   8.266   3.412 -0.0875 -0.0920 -0.3904
 6271W        W10335   7.884  10.002  10.773 -0.0409  0.4384  0.0351
 6272W        W10336   2.057   4.833   2.429  0.1771 -0.1898 -0.2271
 6273W        W10337  10.166   2.985   2.246 -0.0829  0.2030 -0.2666
 6274W        W10338   0.454   1.436  10.413  0.0173  0.2889 -0.0191
 6275W        W10339   1.378   5.896   2.978 -0.0314  0.0885 -0.2547
 6276W        W10340   0.609   7.037   1.671 -0.4307  0.1714 -0.3038
 6277W        W10341   8.059  10.167   8.589  0.3258 -0.1629 -0.1213
 6278W        W10342   4.549   9.592   9.546 -0.1380  0.2488  0.1724
 6279W        W10343   5.906   5.532   2.329  0.1580 -0.0889  0.0129
 6280W        W10344   2.118   9.940   2.314 -0.0284  0.0218 -0.1262
 6281W        W10345   9.564   1.641   9.464 -0.0077  0.0973  0.1344
 6282W        W10346   6.476   9.478   1.017 -0.0412  0.0842  0.1434
 6283W        W10347   8.877   1.912   0.028 -0.1540 -0.0220 -0.2835
 6284W        W10348  10.435   7.195   9.385  0.1911 -0.0849  0.2719
 6285W        W10349   1.775   9.062   2.553  0.0751  0.0093 -0.4596
 6286W        W10350   0.636  10.325  11.223  0.1242  0.3094  0.2061
 6287W        W10351   4.945   4.520   9.846 -0.0320 -0.0862  0.1455
 6288W        W10352   9.337   9.951   2.002 -0.0768 -0.0155  0.0958
 6289W        W10353   8.134   6.378   3.340 -0.2780  0.1795  0.0267
 6290W        W10354   0.781  10.148  10.145 -0.2544  0.2392  0.0034
 6291W        W10355   1.501   8.706   7.083  0.1616 -0.1053  0.0604
 6292W        W10356   2.271   6.918   8.056 -0.2627 -0.0202  0.1589
 6293W        W10357   8.829   4.335   1.293 -0.0236  0.0700 -0.0771
 6294W        W10358   0.187   8.696  11.440  0.1338  0.0947  0.1179
 6295W        W10359   2.009   4.482  11.261  0.1144  0.0978  0.2325
 6296W        W10360   1.913   0.132  10.640 -0.1618  0.2207 -0.2189
 6297W        W10361   5.891   0.164   9.104 -0.1427  0.2299  0.0501
 6298W        W10362   8.013   0.092   7.766  0.0131 -0.2383 -0.4027
 6299W        W10363   9.720   0.810   2.881  0.0593  0.0682 -0.2339
 6300W        W10364   3.105  10.344   3.394  0.0835  0.1834 -0.0545
 6301W        W10365   2.105   1.900   2.322 -0.2026  0.1857 -0.1172
 6302W        W10366   6.214   5.889   2.477 -0.1090  0.0709  0.2573
 6303W        W10367  10.379   4.101   1.926  0.0061  0.3403  0.2731
 6304W        W10368   8.175   7.681   9.313  0.1617  0.0700  0.1753
 6305W        W10369   7.823   3.726   0.144 -0.1094 -0.0122  0.1517
 6306W        W10370   5.045   7.818   0.147  0.2126 -0.1217  0.0998
 6307W        W10371   1.661   4.678   1.584 -0.0229 -0.3639 -0.1194
 6308W        W10372   0.381   9.620   3.157 -0.2381 -0.0355  0.1537
 6309W        W10373   2.847   0.111   2.696 -0.1072  0.0619 -0.0841
 6310W        W10374   3.800   8.947   1.294  0.0910 -0.0434  0.0508
 6311W        W10375   1.618   9.666   8.499  0.3786 -0.0115  0.2408
 6312W        W10376   3.530   2.995   8.558  0.1849  0.1709 -0.0137
 6313W        W10377   7.470   7.176   0.045  0.0738 -0.0287 -0.0453
 6314W        W10378   5.151   7.657   9.494  0.2240  0.0039  0.3264
 6315W        W10379   5.950   6.103   9.966  0.0987  0.0097  0.1100
 6316W        W10380   2.293   9.940   7.577 -0.0404 -0.2508 -0.1716
 6317W        W10381   6.376   3.811  10.357 -0.2297 -0.0129  0.1221
 6318W        W10382   0.831   6.031   0.358  0.0368  0.2090  0.0426
 6319W        W10383   3.066   4.319   9.033 -0.1445  0.0957 -0.0720
 6320W        W10384   7.307   4.398   3.112  0.1053  0.1291  0.2630
 6321W        W10385   9.735   7.705   2.922  0.0044 -0.0348 -0.2370
 6322W        W10386   4.913   6.136  10.002 -0.3252  0.0884 -0.1342
 6323W        W10387   1.762   2.830   1.119  0.0404  0.1219  0.0305
 6324W        W10388   7.119   3.783   8.563 -0.0345  0.0657 -0.2217
 6325W        W10389   7.650   7.434  10.646  0.2599 -0.2436 -0.0167
 6326W        W10390   6.046   7.277   9.771  0.0016 -0.3931  0.0250
 6327W        W10391   4.166   8.587   8.665  0.0351 -0.0263 -0.0211
 6328W        W10392  10.396   3.182  10.001 -0.2151  0.1275 -0.1396
 6329W        W10393   6.094   3.985   8.115 -0.0786  0.6636 -0.0788
 6330W        W10394   3.047   0.431   3.075 -0.0309  0.1316 -0.0398
 6331W        W10395   0.254   5.190   3.343  0.4123  0.2064 -0.0115
 6332W        W10396   2.880   1.732   8.299 -0.0888  0.0598  0.2222
 6333W        W10397   0.137   6.561   8.909  0.0137  0.0341 -0.0319
 6334W        W10398   1.078   1.068   2.768 -0.2102  0.1489 -0.0553
 6335W        W10399   6.216   0.936  10.986 -0.2368 -0.2377 -0.0426
 6336W        W10400   8.175   6.863   7.937 -0.0708  0.1237 -0.0133
 6337W        W10401   7.729   1.144  10.044 -0.1692 -0.0010 -0.2948
 6338W        W10402   0.049   7.836   8.574  0.2361 -0.0212 -0.2917
 6339W        W10403   3.682   8.547  11.360 -0.0264  0.1208  0.1099
 6340W        W10404   3.523   9.619   7.977 -0.1348 -0.0039  0.2099
 6341W        W10405   2.551   9.597   1.402 -0.0603  0.1266  0.0298
 6342W        W10406   9.468   7.173   9.065 -0.1791 -0.2424  0.3377
 6343W        W10407   0.525   1.809  10.125  0.5068  0.2825 -0.0565
 6344W        W10408   5.213   6.699   9.905  0.2880 -0.2504 -0.1673
 6345W        W10409   3.343   8.956   9.602  0.2444 -0.0168  0.0580
 6346W        W10410   6.861   1.944   9.214  0.2378 -0.3712 -0.1418
 6347W        W10411   2.004   3.801   2.088 -0.0546 -0.6228 -0.1212
 6348W        W10412   0.439   6.529   1.256 -0.0546  0.0125  0.3862
 6349W        W10413   2.259   1.806   9.261  0.0357 -0.2323 -0.1666
 6350W        W10414   9.670   9.795   9.569 -0.0471  0.0753 -0.0859
 6351W        W10415   6.995   4.514   9.297  0.0321  0.0917  0.2002
 6352W        W10416   6.417   5.834   9.098 -0.1370  0.3443 -0.1641
 6353W        W10417   4.807   6.595  10.184 -0.0869 -0.1043  0.1186
 6354W        W10418   9.598   3.750   9.983 -0.0179 -0.1327 -0.2731
 6355W        W10419   4.141   8.623  10.539  0.2936  0.0009  0.1112
 6356W        W10420   4.299   6.492   9.064 -0.0020  0.4166  0.0674
 6357W        W10421   9.487   9.394   7.829  0.4323 -0.0866  0.2560
 6358W        W10422   0.829   2.767   9.191 -0.2525 -0.0713  0.0867
 6359W        W10423   3.015   9.028  10.904  0.0402  0.1540 -0.1241
 6360W        W10424   6.074   8.530   9.932 -0.0377  0.0364 -0.0627
 6361W        W10425   8.511   2.681   1.791  0.2955 -0.3282  0.0801
 6362W        W10426   3.504   8.257   2.334 -0.1374 -0.1494 -0.0692
 6363W        W10427   8.183   4.298   8.363 -0.0368  0.0750  0.0468
 6364W        W10428   3.627   6.945  10.962 -0.5036 -0.0378  0.1265
 6365W        W10429   7.820   8.732   1.261  0.3265 -0.2008 -0.2268
 6366W        W10430   4.895   9.246   9.158  0.2802 -0.0756  0.0028
 6367W        W10431   9.430   0.472   3.810  0.0969 -0.1477  0.0937
 6368W        W10432   3.195  10.508  11.029  0.0937 -0.0438 -0.1446
 6369W        W10433   5.446   2.572  10.447 -0.0416  0.0682 -0.1137
 6370W        W10434   8.879   7.944   8.175 -0.0039  0.1507 -0.0374
 6371W        W10435   5.645   1.256   3.669  0.1807 -0.2196  0.2699
 6372W        W10436  10.503   8.173   3.589  0.2016  0.0622  0.0093
 6373W        W10437   1.417   9.972  10.277  0.1920  0.2758  0.3084
 6374W        W10438   3.552   9.749  11.468  0.1974  0.1807  0.2027
 6375W        W10439   4.241   3.979   0.213  0.1678  0.3116 -0.0208
 6376W        W10440   5.518   2.559   2.240 -0.0368  0.1785 -0.1052
 6377W        W10441   5.938   7.374   9.280  0.1654 -0.0916 -0.1805
 6378W        W10442   6.779   5.877  11.341  0.2257  0.1965 -0.0579
 6379W        W10443   7.089   4.028   9.006  0.0174  0.1091 -0.3465
 6380W        W10444   9.168   0.867   0.137  0.2140 -0.0817  0.2968
 6381W        W10445   7.860   2.834   8.988  0.1146 -0.0984 -0.2920
 6382W        W10446   2.932   9.161   8.713 -0.1756 -0.1171  0.2067
 6383W        W10447   9.687   8.586   1.425  0.1794  0.1482  0.0162
 6384W        W10448   7.305   6.092  10.948  0.4411  0.2025  0.2621
 6385W        W10449   5.399   3.940  10.508  0.1042 -0.0637 -0.0032
 6386W        W10450   7.334   2.924   0.622  0.1640  0.1483 -0.1492
 6387W        W10451   7.325   5.491   9.530 -0.0024 -0.3393  0.2108
 6388W        W10452   5.561   7.945   0.588 -0.0111  0.3020  0.3774
 6389W        W10453   3.722  10.600   1.190 -0.2059 -0.2562 -0.1380
 6390W        W10454   6.386   7.437   8.539  0.1907 -0.1829 -0.1712
 6391W        W10455   6.093   2.122   9.984  0.1711  0.0691 -0.1063
 6392W        W10456   2.156   2.115   8.878  0.1080 -0.1674 -0.2711
 6393W        W10457   9.517   4.208   9.776  0.1096 -0.2634 -0.2258
 6394W        W10458   9.730   8.139  10.103 -0.1171  0.4058  0.4246
 6395W        W10459   4.154   2.190   3.139 -0.0515 -0.1639 -0.3508
 6396W        W10460   6.313   2.859  10.520  0.0561  0.1257  0.1656
 6397W        W10461   8.187   4.817   9.733 -0.0933 -0.1514 -0.0274
 6398W        W10462   6.567   3.831   9.903 -0.0731  0.0618  0.0238
 6399W        W10463   9.727   8.945   9.073  0.1297 -0.0434 -0.2137
 6400W        W10464   3.191   6.663  10.020  0.0551  0.4044 -0.0159
 6401W        W10465   3.400   8.113   8.963 -0.0975 -0.0822  0.0463
 6402W        W10466   3.839   5.194   1.607  0.0574  0.2115  0.3530
 6403W        W10467   8.163   0.257   3.820 -0.0398  0.4303  0.0676
 6404W        W10468   2.250   6.019   2.378  0.0111  0.0182  0.1452
 6405W        W10469   8.391   0.897   8.784 -0.0041 -0.0694 -0.0758
 6406W        W10470   7.688   4.683   8.526  0.1301  0.2402  0.1380
 6407W        W10471   3.538   7.955   8.470  0.0121  0.3417  0.2596
 6408W        W10472   6.683   4.473   0.030 -0.1557  0.0953 -0.0159
 6409W        W10473  10.477   1.938  11.221  0.0328  0.1823  0.0226
 6410W        W10474   2.353   2.742   2.832 -0.0989  0.2308  0.0722
 6411W        W10475   8.184   3.126   2.693 -0.1158  0.0819 -0.1717
 6412W        W10476   9.329   8.140   1.295 -0.1139 -0.1784 -0.2698
 6413W        W10477  10.162   6.039  10.159  0.3158 -0.1542 -0.1762
 6414W        W10478   8.929   2.450   9.644  0.3529 -0.0554 -0.2570
 6415W        W10479   3.977   9.215   2.547 -0.0670 -0.0214 -0.0490
 6416W        W10480   1.405   5.798   9.456  0.0231  0.1547  0.2038
 6417W        W10481   0.345   0.588   8.053 -0.3906  0.0517 -0.0701
 6418W        W10482   8.188   6.843   3.079 -0.2283 -0.0279 -0.1048
 6419W        W10483   0.471   3.567   7.385  0.2031 -0.0379  0.0499
 6420W        W10484   7.222   4.607   2.525  0.2019  0.0296 -0.2274
 6421W        W10485   9.349   7.544   1.899  0.2928  0.0066 -0.2803
 6422W        W10486   1.186   7.983   2.344 -0.0168 -0.2622  0.0004
 6423W        W10487   6.772   6.921   9.610 -0.1600  0.0596 -0.2203
 6424W        W10488   5.093   7.977   8.425 -0.0477  0.0733 -0.2107
 6425W        W10489   2.985   5.675   9.217 -0.0515 -0.3077 -0.3000
 6426W        W10490   3.195   5.932   0.512 -0.2398 -0.1870  0.2048
 6427W        W10491   0.542   4.474   4.179  0.1373 -0.0967 -0.1651
 6428W        W10492   5.720   9.942   1.325 -0.3912 -0.2009 -0.6091
 6429W        W10493  10.369   4.906   8.292  0.0871 -0.0731 -0.0769
 6430W        W10494   8.054   1.932  10.607 -0.1112 -0.0049 -0.0765
 6431W        W10495   5.744   2.849   1.346 -0.1378  0.1873 -0.2391
 6432W        W10496   0.481   7.081   0.354  0.2043  0.0418  0.1709
 6433W        W10497   2.378   4.248   3.418  0.0564 -0.0064  0.0570
 6434W        W10498   0.190   5.128   1.626  0.2584 -0.3143 -0.0879
 6435W        W10499   6.399   7.118   1.239 -0.1391 -0.0011  0.0489
 6436W        W10500   5.688   0.179   1.198  0.0778  0.2408 -0.3624
 6437W        W10501   6.555   4.551   0.950  0.0754  0.2040 -0.0662
 6438W        W10502   7.623   1.116   9.383 -0.1174 -0.0611 -0.1760
 6439W        W10503  10.026   4.487   0.661 -0.0913 -0.2029 -0.1552
 6440W        W10504   1.661   4.613   2.152 -0.1442  0.4663 -0.1029
 6441W        W10505   2.216   8.501   9.365  0.1978  0.1036 -0.1570
 6442W        W10506   3.692   8.050   7.559  0.0070 -0.1199 -0.0349
 6443W        W10507   2.085   1.024   1.205 -0.0574  0.0384 -0.1267
 6444W        W10508   4.609   3.065   9.538  0.0362  0.3474 -0.1346
 6445W        W10509   9.982   5.652   0.146  0.1808 -0.0666 -0.2226
 6446W        W10510   2.743   0.847   1.998 -0.2461  0.1269  0.1566
 6447W        W10511   5.332   4.674   7.853 -0.4379  0.0421  0.0051
 6448W        W10512   2.904   4.465   3.240 -0.0638 -0.2165  0.0152
 6449W        W10513   7.862   5.115   8.442 -0.0796 -0.1386  0.1087
 6450W        W10514   7.112   3.456   3.144  0.1452  0.2601  0.0297
 6451W        W10515   5.674   5.672  11.320 -0.0473  0.5345  0.3326
 6452W        W10516   4.811   6.144   3.818 -0.2271 -0.1473 -0.3879
 6453W        W10517   3.393   4.589   8.157  0.2412  0.2557 -0.0519
 6454W        W10518   7.678  10.615   2.929 -0.2535 -0.1499  0.0800
 6455W        W10519   3.563  10.573   4.318 -0.0830  0.1177  0.2342
 6456W        W10520   2.682   3.339   1.851 -0.1202 -0.2120 -0.1167
 6457W        W10521   1.209   3.059   3.219  0.0091  0.0528  0.0954
 6458W        W10522   3.405   9.119   4.086  0.1631 -0.4025  0.0342
 6459W        W10523   7.648   0.120   1.980 -0.2761 -0.0080  0.2103
 6460W        W10524  10.490   3.635   3.796  0.2469 -0.1798  0.0924
 6461W        W10525   3.289   1.607   1.482 -0.2042 -0.4522  0.1730
 6462W        W10526  10.052  10.130   8.144  0.1379  0.2150 -0.0911
 6463W        W10527   9.404   6.393   1.700  0.1781  0.1778  0.1400
 6464W        W10528   1.054   4.631  10.894 -0.2929  0.0440  0.0776
 6465W        W10529   9.580   7.209  11.063 -0.0944  0.1384  0.0718
 6466W        W10530   0.242   6.507   3.138 -0.1542 -0.1339 -0.1415
 6467W        W10531   1.008   6.279  10.124 -0.2286 -0.1303  0.1320
 6468W        W10532   8.139   4.614   4.188 -0.1040 -0.3713 -0.0444
 6469W        W10533   7.095   3.998   9.944  0.2248  0.0247  0.1136
 6470W        W10534   7.443   5.959   8.154 -0.2020  0.0390  0.1933
 6471W        W10535   0.264   3.311   1.525 -0.0677 -0.1679  0.1596
 6472W        W10536   3.836   9.036   9.844 -0.0291  0.0444 -0.0050
 6473W        W10537   6.786   0.796   0.595  0.2439  0.1417 -0.0458
 6474W        W10538   0.681   0.885   9.737  0.0162 -0.1803  0.0189
 6475W        W10539   9.296   9.496   1.773 -0.1584  0.5412 -0.0349
 6476W        W10540   3.684   6.635   1.758  0.1369 -0.0322  0.1700
 6477W        W10541   3.477   0.064   3.040  0.1962 -0.2933  0.1008
 6478W        W10542   8.746   4.785   8.949  0.0113  0.0294 -0.0664
 6479W        W10543   6.082   7.211  10.293  0.0063  0.1466  0.2311
 6480W        W10544   8.453   7.624  10.552 -0.2587  0.1040 -0.0035
 6481W        W10545   2.170   5.033  11.484 -0.1235  0.2118 -0.2624
 6482W        W10546   2.615   5.997   9.188 -0.0240  0.0500 -0.0098
 6483W        W10547   7.305   9.776   2.699  0.2688  0.3320  0.0122
 6484W        W10548   9.740  10.442   9.054 -0.0942  0.1337  0.1015
 6485W        W10549   5.603   6.097   1.654  0.0742 -0.0803  0.1746
 6486W        W10550   2.290  10.190   9.117 -0.0889 -0.2156 -0.1331
 6487W        W10551   1.641   6.790   9.812  0.2498 -0.2868  0.3176
 6488W        W10552   6.426   7.820   0.599 -0.0956 -0.1044  0.0985
 6489W        W10553   1.389  10.245   3.493 -0.2835 -0.3925  0.1881
 6490W        W10554   8.771   9.418   2.721 -0.0844 -0.2432  0.0339
 6491W        W10555   0.264   4.644   8.447 -0.1476 -0.1305 -0.0526
 6492W        W10556   8.354   9.323   2.986 -0.3030  0.1098 -0.1356
 6493W        W10557   1.216   1.901   1.091  0.1370  0.1993 -0.2726
 6494W        W10558   6.644   8.633   9.188  0.0631 -0.1621  0.0559
 6495W        W10559   0.844   2.920   8.668 -0.1712 -0.1320  0.0300
 6496W        W10560   7.882   1.610  10.242 -0.0665  0.0051  0.0978
 6497W        W10561   6.462   4.586   9.066  0.2587 -0.3945  0.2301
 6498W        W10562   5.659   7.085  11.487 -0.0501 -0.1540 -0.2109
 6499W        W10563   9.768   6.138  11.393 -0.2025  0.1293  0.0937
 6500W        W10564   3.467   4.994   3.006  0.2969 -0.3523  0.2509
 6501W        W10565   7.633   9.348  10.668 -0.1959 -0.0882  0.2184
 6502W        W10566   6.602   3.708   1.883  0.0584  0.1365 -0.1838
 6503W        W10567   1.356   0.986   8.427 -0.1252  0.0599  0.2079
 6504W        W10568   2.799   1.406   1.550 -0.1069 -0.1148 -0.0833
 6505W        W10569   0.643   0.396   8.842 -0.0023  0.3086 -0.1596
 6506W        W10570   0.060   4.532   0.871  0.1844 -0.0792 -0.3658
 6507W        W10571   7.992   5.849   1.428  0.1158  0.0005  0.1732
 6508W        W10572   8.488   1.033   0.145  0.0293  0.1099  0.0660
 6509W        W10573   8.134   1.939   8.965 -0.2995 -0.2035  0.3020
 6510W        W10574   9.074   6.880   0.686  0.1141 -0.0784  0.1692
 6511W        W10575   6.165   7.260   0.793  0.2061 -0.2370 -0.0751
 6512W        W10576   0.134   0.952  10.032  0.0016  0.4166  0.0730
 6513W        W10577   8.039   3.005   9.817  0.0226 -0.0302 -0.2702
 6514W        W10578   2.013   2.126  11.363 -0.1614 -0.0759  0.4257
 6515W        W10579   7.975   1.046   2.886 -0.2153 -0.4010  0.1046
 6516W        W10580   7.318   1.094   9.771  0.0565 -0.0026  0.4343
 6517W        W10581   5.766   6.350   2.489 -0.1881 -0.1829  0.4419
 6518W        W10582   7.830   8.009   9.241 -0.1203 -0.0664 -0.1575
 6519W        W10583   8.405   9.283   9.975 -0.0550 -0.0452  0.2795
 6520W        W10584   2.451   2.649   9.236  0.1878 -0.0044  0.0339
 6521W        W10585   1.812   9.487   2.276  0.2030 -0.1213  0.0317
 6522W        W10586   6.700   8.869   1.012  0.2080 -0.1452 -0.0365
 6523W        W10587   5.872   6.705   2.032  0.1256 -0.1867 -0.2035
 6524W        W10588   9.373   1.024   2.528  0.1382 -0.4853 -0.2294
 6525W        W10589   7.105   2.712  10.213  0.0201 -0.1778 -0.0118
 6526W        W10590   4.056   7.386   2.791 -0.2151  0.1245 -0.2043
 6527W        W10591  10.018  10.640   2.178  0.1399 -0.1521  0.2208
 6528W        W10592   5.370   1.830  10.964 -0.2116 -0.1660 -0.1712
 6529W        W10593   8.335   5.268  10.646 -0.2884 -0.1090  0.0061
 6530W        W10594   3.345   7.858   7.949  0.1782  0.1480  0.0535
 6531W        W10595   8.766   0.667   0.920  0.0462  0.2759 -0.0145
 6532W        W10596   8.656   2.774   9.321  0.0254  0.2066  0.0959
 6533W        W10597  10.325   3.201   8.952 -0.1765  0.0798 -0.0378
 6534W        W10598   1.298   5.994   8.370 -0.0719  0.2551 -0.3753
 6535W        W10599   7.427   0.526  10.908  0.3312  0.2763  0.1289
 6536W        W10600   7.385   3.557   1.730 -0.0672 -0.0954  0.1998
 6537W        W10601   1.868   8.549  11.407 -0.0571 -0.1500  0.0785
 6538W        W10602   2.151  10.034  11.114 -0.3539 -0.0926 -0.2239
 6539W        W10603   8.847   0.334  10.958 -0.0654  0.4475  0.0512
 6540W        W10604   3.296   2.481  11.142  0.4202 -0.0337  0.1515
 6541W        W10605   1.124   1.507   1.984  0.0847 -0.0671 -0.2215
 6542W        W10606   1.921   0.338   8.497 -0.0469 -0.3698 -0.0923
 6543W        W10607   8.215   0.360  10.397 -0.2530  0.0580  0.2024
 6544W        W10608  10.237   6.129   8.475  0.3043  0.2675 -0.1581
 6545W        W10609   5.870   5.605   7.687 -0.0423  0.0097  0.4607
 6546W        W10610   7.159   7.803  10.972  0.2339  0.0315 -0.0963
 6547W        W10611   3.100   0.214  10.575  0.3793  0.4543 -0.0770
 6548W        W10612  10.497   0.207   0.113 -0.2841 -0.1819  0.0608
 6549W        W10613   3.546   6.372  10.890 -0.0291  0.0362 -0.2344
 6550W        W10614   3.303   7.720   0.864 -0.0165 -0.0987  0.1756
 6551W        W10615   3.718   6.731   8.870  0.1573  0.0833  0.2690
 6552W        W10616   7.203   1.009   0.426 -0.2772  0.0739 -0.1125
 6553W        W10617  10.194   7.382   2.925 -0.2333 -0.0998  0.1520
 6554W        W10618   6.832   8.260   9.486 -0.1631  0.2216 -0.1666
 6555W        W10619  10.201   6.794   9.285  0.3448 -0.0665  0.0775
 6556W        W10620   4.306   1.004   7.507 -0.0739  0.0839  0.0747
 6557W        W10621   3.699   8.391   8.657  0.1094  0.2313 -0.1283
 6558W        W10622   4.685   7.013   0.835  0.0424  0.1588 -0.0485
 6559W        W10623   2.275   9.731   3.231  0.2920  0.0786  0.0522
 6560W        W10624   4.861   4.346   1.709  0.2346  0.1204 -0.3639
 6561W        W10625   6.892   7.315  10.876  0.2039  0.1503 -0.0891
 6562W        W10626  10.023   9.177  11.430  0.2431 -0.1667  0.1378
 6563W        W10627   9.704   8.119   8.757 -0.0459 -0.0595  0.0540
 6564W        W10628   0.009   6.562   1.010 -0.0786  0.5534  0.3224
 6565W        W10629   6.742   1.213   0.344 -0.0451  0.0983  0.1735
 6566W        W10630   1.414   0.368   8.369  0.3701  0.3657  0.0410
 6567W        W10631   9.341   3.863   1.027 -0.2117 -0.1640 -0.1730
 6568W        W10632   1.727   9.012   3.487 -0.0131  0.0172 -0.0137
 6569W        W10633   2.394   6.907  11.212  0.2291 -0.0837  0.1789
 6570W        W10634   9.265   5.295  11.027  0.1695 -0.0860  0.0219
 6571W        W10635   3.342   0.642   9.210  0.0533  0.1850 -0.0428
 6572W        W10636   1.839   2.130   0.307 -0.0423 -0.1624  0.2385
 6573W        W10637   2.082   8.657   2.931 -0.0841 -0.1684  0.3492
 6574W        W10638   0.679   9.963   2.818  0.1451 -0.0188 -0.1184
 6575W        W10639   7.084   7.067   9.987  0.2059  0.1654 -0.2531
 6576W        W10640   8.841   2.640   2.644  0.0301  0.3102  0.1085
 6577W        W10641   5.933   1.039   1.363  0.1396 -0.2050  0.0017
 6578W        W10642   8.066   8.028   2.746 -0.1086  0.0715 -0.2433
 6579W        W10643   4.805   6.225   1.335  0.1571 -0.0012  0.2803
 6580W        W10644   0.010   4.681   7.956 -0.1417 -0.0280  0.0942
 6581W        W10645   7.064   1.764  10.570 -0.0613  0.1863  0.1949
 6582W        W10646   5.042   0.861  10.394 -0.0733 -0.0966 -0.1044
 6583W        W10647   2.471   3.127   1.501 -0.1944 -0.0202 -0.1990
 6584W        W10648  10.558   8.788   8.267 -0.0165 -0.1569  0.2367
 6585W        W10649   4.316   2.358   1.613  0.1566  0.2588  0.0564
 6586W        W10650   5.505   2.128   0.634 -0.2776  0.0435  0.0107
 6587W        W10651   0.246   7.746  11.470  0.1411  0.4140 -0.0451
 6588W        W10652   8.045   4.493   3.111  0.1383  0.1483  0.0923
 6589W        W10653   4.348   6.226   3.710  0.5532 -0.2703  0.1975
 6590W        W10654  10.517   0.476   1.331 -0.1048 -0.2015 -0.2165
 6591W        W10655   9.759   3.134   3.466 -0.0807  0.2572  0.2379
 6592W        W10656   6.192   5.020   9.335 -0.1011  0.0413 -0.2596
 6593W        W10657   9.563   7.614   8.747  0.0838 -0.1566 -0.0573
 6594W        W10658   8.108   1.613   2.680  0.0337  0.0494  0.2032
 6595W        W10659   7.521   8.089   8.843  0.2576  0.0328 -0.2377
 6596W        W10660   2.447   7.495   8.107  0.0213  0.2645 -0.0642
 6597W        W10661  10.576   1.762   2.172  0.1179  0.0903  0.1750
 6598W        W10662   5.816   3.423   8.696 -0.3688  0.2077 -0.0806
 6599W        W10663   2.553   6.823   8.752 -0.0744 -0.3315  0.2062
 6600W        W10664   5.932   2.854   8.820 -0.0224  0.2981  0.1098
 6601W        W10665   9.000   4.031   8.122 -0.1162  0.0300  0.3031
 6602W        W10666   0.559   0.605   3.808  0.1628  0.1657 -0.2785
 6603W        W10667   4.708   2.271   8.593 -0.0799 -0.1658  0.1790
 6604W        W10668   5.725   4.419  11.429  0.2278 -0.1245 -0.0842
 6605W        W10669   9.897   0.085   8.378 -0.0973  0.2937  0.1009
 6606W        W10670   2.757   9.504   3.416 -0.1353  0.0077  0.3680
 6607W        W10671   7.031   8.006   9.082  0.2916  0.0627  0.2172
 6608W        W10672  10.433   8.683   7.711  0.0132  0.1182 -0.1014
 6609W        W10673   6.513   2.594   0.546  0.1749  0.3339  0.0769
 6610W        W10674   6.034   4.050   3.572 -0.0533 -0.0340 -0.2974
 6611W        W10675   0.631   1.290   1.776  0.2218  0.0617  0.1492
 6612W        W10676   6.383   6.137   8.719 -0.2409 -0.1042  0.3891
 6613W        W10677   5.025   8.582   1.897 -0.0562 -0.1394  0.0855
 6614W        W10678   7.159   7.400   1.524  0.0883 -0.1102  0.2291
 6615W        W10679   8.888   3.185   9.567 -0.0808  0.0886 -0.1723
 6616W        W10680   3.390   6.174   2.383 -0.4536  0.4215  0.0619
 6617W        W10681   4.641   7.783  10.712  0.1410  0.1395 -0.2675
 6618W        W10682  10.576   2.394   2.734 -0.3159 -0.0460 -0.0085
 6619W        W10683   5.372   2.195   9.312  0.0164 -0.1878  0.3069
 6620W        W10684   7.698   0.266   2.536 -0.2821 -0.0013  0.1376
 6621W        W10685   4.354   7.365   8.335 -0.0905  0.1208  0.1124
 6622W        W10686   3.391   2.074   3.454 -0.0052  0.0378 -0.2303
 6623W        W10687   0.567  10.623   8.580 -0.2586 -0.0217  0.0467
 6624W        W10688   6.376   5.675   6.884 -0.1705 -0.0121 -0.2876
 6625W        W10689   5.517   4.018   2.550 -0.0115  0.0564 -0.0403
 6626W        W10690   6.558   9.120   0.610  0.1720 -0.0936  0.1478
 6627W        W10691   6.127   1.308  10.389 -0.3139 -0.0556  0.2022
 6628W        W10692   9.808   4.347   8.045  0.1884  0.2859  0.0720
 6629W        W10693   5.695   7.848   2.209 -0.1377 -0.0829  0.2330
 6630W        W10694   9.005   0.562  10.040 -0.0818  0.1886 -0.3547
 6631W        W10695   9.846   3.622   0.306 -0.0077  0.2163  0.0001
 6632W        W10696   5.526   7.820   9.264  0.0803 -0.1717  0.1291
 6633W        W10697   6.346   7.028   2.063 -0.0091 -0.2138 -0.1800
 6634W        W10698   7.570   3.006   7.785 -0.2403 -0.0448 -0.6084
 6635W        W10699   5.042   5.363   2.852  0.0910  0.3766 -0.1840
 6636W        W10700   3.602   8.577   1.000  0.0153 -0.0690  0.0771
 6637W        W10701   9.981   5.838  10.601  0.1315 -0.4793 -0.1927
 6638W        W10702   4.103   2.925   8.637 -0.3120 -0.4800  0.0810
 6639W        W10703   5.002   7.135   2.853 -0.2459  0.1139  0.1516
 6640W        W10704   2.810   9.603  10.232 -0.0289  0.2389  0.2464
 6641W        W10705   8.244   5.852   9.408  0.1663 -0.1498  0.0402
 6642W        W10706  10.019   5.297   9.041 -0.2682  0.3235 -0.1128
 6643W        W10707   1.150   1.750  10.837 -0.1023 -0.0325 -0.0369
 6644W        W10708   5.540   2.204  10.129 -0.1477 -0.0166  0.0860
 6645W        W10709   4.955   5.918   2.850  0.3442 -0.2866  0.0361
 6646W        W10710   5.990   1.161   9.920  0.0180  0.0599  0.1388
 6647W        W10711   5.754   0.942   0.611  0.2934 -0.0463 -0.0696
 6648W        W10712   1.948   6.763  10.162  0.2141  0.2602  0.1459
 6649W        W10713   9.573   9.392   3.130 -0.1558 -0.2359 -0.0854
 6650W        W10714   2.281   0.153   3.399 -0.1298 -0.2162  0.0101
 6651W        W10715   3.193   0.946   2.185  0.0317  0.1298  0.1379
 6652W        W10716   3.293   1.248  10.537  0.0431 -0.3030  0.1122
 6653W        W10717   7.839  10.432   8.200 -0.1537 -0.1676 -0.2492
 6654W        W10718   8.604   1.679  10.138 -0.0694  0.0016  0.0031
 6655W        W10719   3.171   9.784   9.878  0.0418  0.0142  0.1022
 6656W        W10720   0.535   0.162   1.729  0.3987  0.2841  0.1440
 6657W        W10721   0.263   8.930   1.908 -0.2273 -0.1133  0.1408
 6658W        W10722   7.329  10.610   2.342  0.1161 -0.0019 -0.0464
 6659W        W10723   2.612   6.651  10.782 -0.0025 -0.2939 -0.0350
 6660W        W10724  10.051   8.699   0.191 -0.0869 -0.0234 -0.2289
 6661W        W10725   1.249   3.147   2.358  0.0819  0.2972  0.1616
 6662W        W10726   2.956   7.648  11.179 -0.0571 -0.0282 -0.1519
 6663W        W10727   5.096   2.946   0.636  0.0175 -0.2982 -0.2089
 6664W        W10728   1.297   5.652   1.270  0.3600 -0.0193 -0.0677
 6665W        W10729   3.703   3.936   8.611  0.1584 -0.1360 -0.0524
 6666W        W10730  10.460   9.146   7.859 -0.0538 -0.2160  0.0894
 6667W        W10731   4.741   6.778   9.208  0.0254  0.2207  0.2298
 6668W        W10732   0.930  10.203   8.843 -0.4160 -0.3511 -0.0117
 6669W        W10733   5.599   0.369   0.695 -0.0458 -0.1428 -0.0101
 6670W        W10734  10.309   7.718   8.250  0.1676 -0.0133 -0.1759
 6671W        W10735   7.525   4.316  10.315 -0.1904 -0.2006  0.1592
 6672W        W10736   7.712   6.332  11.262  0.1158  0.0557  0.1103
 6673W        W10737   8.053   9.622  10.484 -0.0786 -0.0101 -0.0790
 6674W        W10738   5.555   1.204  10.359  0.4483 -0.3129 -0.1825
 6675W        W10739   0.295   7.986   1.959 -0.1597  0.2591  0.1701
 6676W        W10740   8.250   2.456  11.123  0.0201 -0.1020 -0.0065
 6677W        W10741   9.414   8.673   2.194 -0.1017  0.0539 -0.0800
 6678W        W10742   7.154   4.912   0.556 -0.0861  0.2251 -0.0769
 6679W        W10743  10.122   4.221   1.469  0.1024  0.1076  0.0197
 6680W        W10744   5.018   8.293  11.412 -0.0439  0.3495 -0.0963
 6681W        W10745   5.166   6.908   0.628  0.2703 -0.1735 -0.3833
 6682W        W10746   4.721   4.246  11.194  0.0475  0.2297  0.0710
 6683W        W10747   5.367  10.116  10.731  0.5962  0.2904  0.0143
 6684W        W10748   9.066   7.613   9.950  0.0591 -0.1580 -0.2172
 6685W        W10749   7.896   5.272  10.956 -0.3531 -0.2573 -0.2859
 6686W        W10750   0.170   9.694   9.648 -0.1051 -0.1291  0.0414
 6687W        W10751   4.150   9.713   0.841 -0.0140  0.2202 -0.1198
 6688W        W10752   3.238   3.690   0.669 -0.1097  0.4371  0.3017
 6689W        W10753   0.879   9.399   2.133  0.0337 -0.1130 -0.1474
 6690W        W10754   1.052   5.362   1.571  0.1303  0.3340  0.1254
 6691W        W10755   7.982   4.800   3.655  0.1103 -0.1880 -0.2793
 6692W        W10756   2.727   5.737   9.716  0.0671 -0.1552  0.2213
 6693W        W10757   0.442   9.895   1.812 -0.0809 -0.3960 -0.1001
 6694W        W10758   3.832   0.789   3.557 -0.0852  0.3618  0.1515
 6695W        W10759   4.610   2.040   9.020  0.3367  0.3009  0.1226
 6696W        W10760   9.407   8.370   1.803  0.0877  0.2141  0.0724
 6697W        W10761   6.481   5.941   9.965 -0.0478 -0.1480 -0.0738
 6698W        W10762  10.168   9.156   9.752 -0.1008  0.0559  0.0942
 6699W        W10763   1.054   2.098   1.973  0.0962  0.1208 -0.2152
 6700W        W10764   0.382   9.369   7.894 -0.0669 -0.2194 -0.0523
 6701W        W10765  10.509   3.055   2.857 -0.1665 -0.0290  0.1576
 6702W        W10766   7.834   2.613   2.193  0.2088  0.3137 -0.1672
 6703W        W10767  10.470   2.040   8.537 -0.4307 -0.0691  0.0913
 6704W        W10768   4.310   3.194   3.091 -0.0140  0.0803  0.2528
 6705W        W10769   4.774   4.025   7.232 -0.0151  0.2717  0.2309
 6706W        W10770   6.630   9.696  10.683 -0.2332 -0.0151 -0.0523
 6707W        W10771   0.400   2.585   3.406  0.2679  0.0857  0.1361
 6708W        W10772   0.875   0.545   1.730 -0.0660  0.0347 -0.1228
 6709W        W10773   9.024   0.160   8.855  0.1602 -0.2211  0.1340
 6710W        W10774   9.183   5.567   3.492  0.1867 -0.1367  0.1478
 6711W        W10775   4.262   2.318  11.365  0.3949 -0.0436  0.1938
 6712W        W10776   0.268   0.687   9.629  0.2724  0.2974  0.1446
 6713W        W10777   7.604   1.920   2.886  0.1110  0.1487  0.2809
 6714W        W10778  10.158   4.593   2.771  0.1388 -0.0811 -0.0278
 6715W        W10779   5.563   4.524   2.376  0.2299  0.2475  0.2255
 6716W        W10780   4.642   9.758   2.819  0.1231 -0.1806 -0.0205
 6717W        W10781   0.641  10.368   1.921 -0.3768 -0.0823  0.1762
 6718W        W10782   2.959   7.350   1.642  0.1031  0.3442  0.2711
 6719W        W10783   4.839   4.773  11.171 -0.3379  0.0054  0.0546
 6720W        W10784   6.703   6.143   2.584  0.3668 -0.0568 -0.1531
 6721W        W10785   0.868   1.775   2.982 -0.1017 -0.1789 -0.3847
 6722W        W10786   8.533   9.702  10.268 -0.0398  0.0199  0.3527
 6723W        W10787   9.160   3.762   9.005  0.1004  0.1319  0.0423
 6724W        W10788   2.606   7.068   1.285  0.0769  0.0242  0.0758
 6725W        W10789   4.293   7.685  11.093 -0.0373 -0.1997 -0.0475
 6726W        W10790   3.609   3.608  11.292 -0.3418 -0.2837 -0.2007
 6727W        W10791   5.798   8.465   3.653 -0.0880 -0.1286  0.3326
 6728W        W10792   6.706   0.750   3.486  0.1756  0.3023  0.1384
 6729W        W10793   0.548   0.605   2.077  0.0427 -0.1441 -0.2227
 6730W        W10794   9.068   6.898   8.322  0.1483 -0.2022  0.2817
 6731W        W10795  10.415   5.147   9.307 -0.2290  0.2763 -0.1193
 6732W        W10796   0.429   5.010   2.789 -0.2135  0.1275 -0.0447
 6733W        W10797   8.404   1.582   9.636  0.1124  0.0803 -0.3288
 6734W        W10798   4.066   1.443  10.787 -0.0624 -0.0472  0.4499
 6735W        W10799   7.745   2.420   9.215  0.2673 -0.0870  0.0694
 6736W        W10800   0.951   8.786   8.945 -0.2382 -0.0289 -0.3742
 6737W        W10801  10.446   1.465  10.984 -0.1201  0.1323 -0.0531
 6738W        W10802   7.603   9.717   7.704 -0.2741  0.2269  0.2001
 6739W        W10803   3.631   8.142   1.887  0.0668  0.0225 -0.1687
 6740W        W10804   5.141   4.999   9.578  0.0654  0.0202  0.2653
 6741W        W10805  10.332   6.516   1.502 -0.0220  0.0207  0.3845
 6742W        W10806   7.192   5.903   8.725  0.1201 -0.1065  0.0202
 6743W        W10807   4.587   8.330   8.402 -0.2048 -0.1178 -0.2822
 6744W        W10808   9.857   7.224   0.253 -0.1375  0.2302 -0.2104
 6745W        W10809   1.161   5.497   2.773  0.1522  0.1717 -0.1865
 6746W        W10810   1.983   4.664   3.229 -0.0135  0.5145 -0.1805
 6747W        W10811   2.709   2.686   8.464  0.0861 -0.0700 -0.2221
 6748W        W10812   4.091   2.651   1.297  0.0552 -0.0315  0.0363
 6749W        W10813   1.121   9.965   7.624  0.1785  0.2025  0.1311
 6750W        W10814   4.572   0.818   3.058 -0.0384 -0.1031 -0.0472
 6751W        W10815   7.077   3.114   9.365  0.2157  0.0300  0.3163
 6752W        W10816   1.532   0.900   3.023  0.3247 -0.2548 -0.0869
 6753W        W10817   1.234  10.561   3.874 -0.0114 -0.0408 -0.1911
 6754W        W10818   4.826   0.030   1.126  0.2670 -0.2894  0.1631
 6755W        W10819   9.588   1.762   1.863 -0.3994 -0.1422  0.0738
 6756W        W10820  10.606   4.594   2.009 -0.2467  0.1048  0.0873
 6757W        W10821   9.366   7.169   7.947  0.1697 -0.2077  0.1067
 6758W        W10822   6.553   0.149   8.770 -0.0809  0.0649  0.1331
 6759W        W10823   4.122   6.900   1.905 -0.1470  0.1195 -0.3023
 6760W        W10824  10.496   3.673   8.900 -0.0098 -0.2117 -0.2293
 6761W        W10825   2.577   7.987  10.176 -0.1718  0.0394  0.1223
 6762W        W10826   5.086   7.118  10.823 -0.0470  0.0738  0.1724
 6763W        W10827   2.033   3.778   8.241  0.2652 -0.1351 -0.2113
 6764W        W10828   4.795  10.218   1.945 -0.0953  0.2920  0.1003
 6765W        W10829   2.797   3.871   9.673 -0.3434  0.3048  0.1757
 6766W        W10830   7.007   8.837   2.874 -0.1269  0.2904  0.1113
 6767W        W10831   0.157   6.124   7.798  0.2989 -0.2611  0.2043
 6768W        W10832  10.361   9.159  10.579 -0.0918 -0.0023  0.0717
 6769W        W10833   7.049   0.468   8.499  0.5648  0.4268 -0.3572
 6770W        W10834  10.288   6.758  10.325 -0.1624  0.0818  0.0932
 6771W        W10835   0.623   0.032   0.040 -0.2046 -0.0301 -0.1780
 6772W        W10836   7.726   5.539  10.592  0.0233  0.1476  0.1631
 6773W        W10837   9.609   5.040   0.562 -0.1639 -0.2266 -0.0664
 6774W        W10838   9.517   6.890   2.619  0.3369 -0.0409  0.0520
 6775W        W10839   2.439   7.651  10.536 -0.2190 -0.1956  0.1089
 6776W        W10840   8.854   1.905   2.775  0.0215  0.2246  0.0453
 6777W        W10841   7.625   7.279  10.120 -0.0728 -0.4998  0.1798
 6778W        W10842   4.179   0.929   8.440 -0.1728  0.2948 -0.3293
 6779W        W10843   1.236   9.438   8.787  0.0192 -0.1091  0.0651
 6780W        W10844   9.905   8.565  11.226  0.0535  0.0730  0.1067
 6781W        W10845   4.093   2.832  11.217 -0.0720  0.3042  0.2619
 6782W        W10846   5.263   1.869   3.725  0.3070 -0.0112 -0.0856
 6783W        W10847   1.328   6.843   2.967  0.0783 -0.0972 -0.1304
 6784W        W10848   0.801   6.876   7.586  0.1423 -0.1123 -0.1162
 6785W        W10849   2.161   7.317   2.886  0.0863 -0.0119 -0.3030
 6786W        W10850   6.579   4.059   9.056 -0.1827 -0.1440  0.0141
 6787W        W10851   1.175   3.074   1.789 -0.2762 -0.1055 -0.1780
 6788W        W10852   0.043   6.787   9.378  0.0759 -0.2193 -0.1622
 6789W        W10853   8.465   7.390   1.232 -0.3864 -0.1063 -0.0281
 6790W        W10854   5.577   1.972   9.713 -0.5349  0.0618  0.0267
 6791W        W10855   5.243   5.936   0.966  0.2893 -0.1075  0.0910
 6792W        W10856   2.964   7.627  10.458  0.0418  0.1931  0.0534
 6793W        W10857   8.225   9.972  11.214  0.2016 -0.1880  0.1876
 6794W        W10858   4.487   0.874   0.581 -0.1854  0.1320 -0.3927
 6795W        W10859   0.625   3.429  10.550  0.4445  0.4746 -0.1255
 6796W        W10860  10.478   1.002  11.082 -0.0638  0.1702  0.1248
 6797W        W10861   1.712   7.898  11.351  0.0516 -0.1830  0.1039
 6798W        W10862   8.264   3.985   2.959  0.0638  0.0653 -0.3346
 6799W        W10863   0.537   8.343  10.782 -0.1972 -0.1203 -0.1728
 6800W        W10864   5.706   7.583  10.173 -0.0528  0.0924 -0.0317
 6801W        W10865   7.430   2.740   1.279 -0.0833 -0.0624  0.1161
 6802W        W10866   0.254   3.644   2.561 -0.0906 -0.1203  0.0246
 6803W        W10867   8.490   0.531   9.557 -0.1507  0.5027 -0.2082
 6804W        W10868  10.317   9.095   2.396  0.1514 -0.1166  0.2734
 6805W        W10869   5.699   6.634   8.439 -0.1231 -0.1779  0.0626
 6806W        W10870   4.889   0.333   1.512 -0.1601 -0.1467  0.0921
 6807W        W10871   5.617   8.572   9.668  0.0084  0.1535 -0.1583
 6808W        W10872   8.006   4.434   0.783 -0.0564  0.2353 -0.2912
 6809W        W10873   7.385   1.469   2.259 -0.2401  0.0968  0.3183
 6810W        W10874   1.948  10.211   9.606  0.0760 -0.2117 -0.1211
 6811W        W10875   1.300   7.138   2.484 -0.3545  0.4060 -0.1558
 6812W        W10876   4.177  10.109   3.811  0.0001 -0.1129 -0.1155
 6813W        W10877   7.357   2.961   8.975 -0.1805 -0.3204 -0.1383
 6814W        W10878  10.201   9.161   0.520 -0.1192 -0.1217 -0.1876
 6815W        W10879   1.187   4.517   0.648  0.2037 -0.1583  0.2145
 6816W        W10880  10.112   2.766   9.173 -0.0978 -0.0401 -0.1233
 6817W        W10881   0.507   2.996   1.169  0.1550 -0.0061 -0.0061
 6818W        W10882   7.989   2.005  11.095 -0.0943 -0.2693 -0.0208
 6819W        W10883   3.462   2.217  10.103  0.2106 -0.0127 -0.0080
 6820W        W10884   3.123   8.963   2.443 -0.0479  0.2469 -0.0552
 6821W        W10885   1.968   1.762   8.014 -0.1907 -0.0015 -0.0930
 6822W        W10886   8.092   3.825   8.590 -0.0807  0.2434 -0.0130
 6823W        W10887   8.530   8.780   0.636  0.0351  0.0116 -0.1472
 6824W        W10888   2.980   2.238  10.809 -0.1210  0.0138  0.0413
 6825W        W10889   5.810   9.453   2.140 -0.0709  0.4799  0.2253
 6826W        W10890   7.689   8.209   2.488  0.3374 -0.2971  0.0203
 6827W        W10891   4.819   5.547  10.554  0.0097  0.0160 -0.2185
 6828W        W10892   6.565   0.135   2.172  0.2222 -0.0363  0.3141
 6829W        W10893   1.678   3.154   7.721 -0.2102 -0.2254  0.1139
 6830W        W10894  10.218   8.844   8.632  0.0944 -0.0922  0.0006
 6831W        W10895   8.875   7.215   1.902 -0.1507  0.2938 -0.4053
 6832W        W10896  10.446   3.769   2.364 -0.3747 -0.3149  0.1123
 6833W        W10897   7.315   4.921   8.615  0.0343  0.0311  0.2599
 6834W        W10898   3.874   1.503   8.872 -0.0318 -0.0641  0.0833
 6835W        W10899   8.030   6.014   0.676 -0.2112 -0.1711  0.2565
 6836W        W10900   7.262   3.083   1.627 -0.0153  0.5288  0.2618
 6837W        W10901   7.879   2.492   9.747  0.3934 -0.1081  0.1049
 6838W        W10902   3.836   3.456   8.653 -0.0021 -0.1138  0.3275
 6839W        W10903   7.920   9.292   0.509 -0.1429 -0.0643 -0.0507
 6840W        W10904  10.549   4.582   0.375 -0.0829  0.0383  0.1250
 6841W        W10905   3.291   1.497   9.087 -0.2243 -0.1632 -0.2329
 6842W        W10906   8.443   4.446   1.611  0.0444 -0.0048 -0.1472
 6843W        W10907   6.274   0.167  10.457  0.3187  0.2484 -0.0403
 6844W        W10908   9.696   7.141   3.038 -0.2628  0.1743  0.3714
 6845W        W10909   4.528   1.371  11.052 -0.0021  0.1402 -0.4726
 6846W        W10910   2.791   4.725  10.869 -0.2430  0.0444 -0.2142
 6847W        W10911   3.001   7.976   9.493  0.2895 -0.0368 -0.0398
 6848W        W10912   3.349   4.060   9.384 -0.1602  0.0168  0.2621
 6849W        W10913   2.699   5.896  10.431  0.0665  0.0824 -0.1213
 6850W        W10914   4.564   8.444   9.893  0.2317  0.3707  0.2338
 6851W        W10915   3.002   5.191  10.525 -0.1187  0.1686  0.1989
 6852W        W10916  10.154   5.324   0.475 -0.2674 -0.0100 -0.2368
 6853W        W10917   4.369   5.353   0.901  0.1692  0.0233  0.1249
 6854W        W10918   1.597   6.720   2.583  0.0964 -0.0717  0.2994
 6855W        W10919   4.606  10.260   3.510  0.3488 -0.1088  0.2577
 6856W        W10920   1.939   2.652   0.220 -0.1425  0.2004 -0.0386
 6857W        W10921   9.148   1.639   4.222 -0.0856 -0.1807  0.3660
 6858W        W10922   4.616  10.499   9.965 -0.0650 -0.2972 -0.3003
 6859W        W10923   3.354   4.353  11.137 -0.1079  0.0132 -0.1557
 6860W        W10924   8.764   5.190   8.224 -0.1017 -0.2455 -0.1394
 6861W        W10925   3.733   7.725   0.364 -0.1911 -0.0562  0.1990
 6862W        W10926   0.546   7.374   2.122 -0.1993  0.1183  0.0816
 6863W        W10927   1.678   9.996   7.702  0.2334 -0.0495 -0.0316
 6864W        W10928   1.047   3.855   2.997  0.1479 -0.2127 -0.1186
 6865W        W10929   4.187   5.500   8.153  0.1998 -0.0846 -0.0373
 6866W        W10930   8.887   0.200   0.551 -0.1137  0.0670 -0.4894
 6867W        W10931   9.197   5.885   9.758  0.0736 -0.1495  0.3897
 6868W        W10932   4.354   7.036   8.834  0.1282  0.0292 -0.1080
 6869W        W10933   2.452   0.302   0.700 -0.0557 -0.3259 -0.0597
 6870W        W10934   0.620   5.933  10.060  0.0701  0.1432  0.1370
 6871W        W10935   1.367   3.782  10.932 -0.1628 -0.2527  0.1559
 6872W        W10936   2.411   6.592   0.648 -0.1964  0.1351 -0.0460
 6873W        W10937   7.755   2.534  11.388  0.1869 -0.0126 -0.0700
 6874W        W10938   9.031   0.713   2.384  0.1967 -0.0295 -0.0670
 6875W        W10939   3.748   8.533   1.533  0.1448  0.2101 -0.0637
 6876W        W10940   6.383   4.040   8.560 -0.3124  0.1373  0.0707
 6877W        W10941   0.491   6.071   2.972 -0.0388 -0.1442 -0.2761
 6878W        W10942   0.361   5.819   0.566 -0.1245 -0.1824  0.0341
 6879W        W10943   0.748   5.592   0.891 -0.1970  0.1527 -0.4089
 6880W        W10944  10.549   5.316   7.965 -0.3720 -0.1878 -0.0747
 6881W        W10945   9.538   2.773  10.177 -0.1173  0.2798 -0.1864
 6882W        W10946   6.268   9.022  10.201 -0.5819 -0.1659 -0.0019
 6883W        W10947   7.137   0.487   0.287  0.2580  0.3118  0.1421
 6884W        W10948   8.834   6.899  11.129 -0.1542 -0.3644  0.0074
 6885W        W10949   6.328   5.196   1.128  0.5083  0.0313 -0.2747
 6886W        W10950   6.179   9.221   2.499  0.3028  0.0988 -0.1231
 6887W        W10951  10.344   7.814  10.863 -0.2381  0.0560 -0.2505
 6888W        W10952   6.867  10.366   2.103  0.4178 -0.0837 -0.1872
 6889W        W10953   6.572   1.261   2.822  0.0001 -0.1001  0.0434
 6890W        W10954   9.144   5.913   2.637 -0.3265 -0.2567  0.1501
 6891W        W10955   4.265   7.700   9.485  0.0268 -0.0569 -0.0114
 6892W        W10956   5.939   0.501   2.457  0.0202 -0.0246 -0.1184
 6893W        W10957   1.962   0.586   3.219 -0.0519 -0.2977  0.0381
 6894W        W10958   4.057   0.514   9.767  0.0094 -0.1026 -0.1049
 6895W        W10959   9.226   4.820   0.277 -0.1914 -0.0220 -0.0676
 6896W        W10960   7.494   0.430   8.816  0.2113  0.0060  0.2635
 6897W        W10961   0.935   9.929   8.055  0.0585  0.0276  0.1407
 6898W        W10962   7.433   9.044   1.367  0.0880  0.0349 -0.2496
 6899W        W10963   7.305   4.692   2.079  0.2594  0.0576 -0.1314
 6900W        W10964   8.761   2.011   9.589 -0.1093  0.1290 -0.1524
 6901W        W10965  10.045   9.977   0.370 -0.0990  0.2442  0.0190
 6902W        W10966   7.210   5.544  10.200 -0.4802  0.0105 -0.1376
 6903W        W10967   4.504   4.227   1.101  0.2560 -0.1898 -0.0130
 6904W        W10968   0.138   9.242   3.996  0.0370 -0.1751  0.3709
 6905W        W10969   4.592   8.779   8.602  0.1278 -0.5384  0.0574
 6906W        W10970   5.250   3.685  10.065 -0.0005 -0.1937  0.1985
 6907W        W10971   7.417   6.716  11.485  0.0976  0.0516 -0.0626
 6908W        W10972   0.261   0.225   3.888 -0.1820  0.3440 -0.1973
 6909W        W10973   4.383   9.158   2.238  0.2324 -0.1187  0.0528
 6910W        W10974   5.401   1.412   9.874  0.0806  0.2267 -0.2884
 6911W        W10975   0.880   6.364   3.568 -0.2586  0.4228  0.1449
 6912W        W10976   1.175   6.189   2.357 -0.2328 -0.1378 -0.0536
 6913W        W10977   7.548   3.749   9.797 -0.2004  0.0256 -0.1308
 6914W        W10978   5.557   1.238   1.045  0.2992 -0.0552  0.1608
 6915W        W10979   3.568   3.283   9.779 -0.2986  0.3015  0.0909
 6916W        W10980   8.169   8.851   9.281 -0.0569 -0.0902 -0.0149
 6917W        W10981   0.211   1.588   1.804 -0.1014  0.1907  0.0338
 6918W        W10982   0.087   2.757   7.201 -0.0744  0.0394 -0.0451
 6919W        W10983   6.440   9.012   1.951 -0.2974 -0.2220  0.1728
 6920W        W10984   8.576   9.914   8.683 -0.1676  0.0312  0.2622
 6921W        W10985   5.355   3.581   9.523 -0.0892  0.0678 -0.3616
 6922W        W10986   9.887   6.703   0.211  0.0199 -0.0983 -0.1358
 6923W        W10987   3.732   5.076   8.844  0.2792 -0.2765 -0.0988
 6924W        W10988   9.508   3.279   9.624  0.2643 -0.1640  0.1800
 6925W        W10989   1.685   8.914   9.329  0.1670 -0.1271  0.2522
 6926W        W10990   7.152   1.396  10.930  0.1694  0.0780  0.2163
 6927W        W10991   7.406  10.104   1.428  0.0790 -0.0704  0.0667
 6928W        W10992   9.772   7.326   7.795  0.3460 -0.2416 -0.1549
 6929W        W10993   7.539   5.889   0.560  0.0749  0.2897  0.0341
 6930W        W10994   1.282   0.730   1.340 -0.1825  0.4340 -0.0650
 6931W        W10995   5.363   3.819   1.306  0.0203  0.0542 -0.0014
 6932W        W10996   1.401   7.033   0.522 -0.0858 -0.1064 -0.0596
 6933W        W10997   0.664   5.130   1.767  0.0297 -0.2029 -0.2541
 6934W        W10998   6.254  10.571   3.807  0.1749  0.0307 -0.4061
 6935W        W10999   2.066   0.996   2.951  0.0201  0.1689 -0.0378
 6936W        W11000   6.188   3.619   0.905  0.2736  0.0272  0.2303
 6937W        W11001   0.587   0.910   3.343  0.0682  0.1812 -0.1382
 6938W        W11002   3.454   8.944  10.101  0.2680 -0.0536 -0.0189
 6939W        W11003   9.972   2.893   1.817  0.0220  0.0004 -0.1713
 6940W        W11004   1.465   4.571   1.126 -0.1310 -0.0812  0.0357
 6941W        W11005   3.637   7.200   9.174 -0.0017  0.1603 -0.2824
 6942W        W11006   8.193   7.875   0.216  0.2235  0.1755  0.2524
 6943W        W11007   6.294   3.463   2.193 -0.0736  0.3800  0.0450
 6944W        W11008   3.043   4.457  10.278 -0.0036 -0.4878  0.3400
 6945W        W11009   5.603   1.812   0.992  0.0226  0.1543  0.1562
 6946W        W11010   9.511   2.709   9.702  0.2631  0.1581  0.1168
 6947W        W11011   4.856   0.427   3.341 -0.1588  0.1412 -0.1697
 6948W        W11012   7.405   7.608   9.128  0.2302  0.0503  0.0921
 6949W        W11013   7.606   9.109   8.360 -0.1408  0.0406 -0.4766
 6950W        W11014   3.773   3.047   0.114 -0.0973 -0.1380  0.1547
 6951W        W11015   1.745   6.877   2.025  0.1664 -0.0554  0.1601
 6952W        W11016   7.573   8.050   8.281 -0.2023  0.0865  0.0260
 6953W        W11017   2.457   5.378   8.927 -0.2771  0.3296  0.0928
 6954W        W11018   1.932   7.136   9.466 -0.0473 -0.0246  0.0519
 6955W        W11019   3.803   7.719   0.869 -0.4395 -0.0235 -0.3392
 6956W        W11020   8.492   0.867  10.427  0.1801 -0.0670  0.3550
 6957W        W11021   6.848   3.936  10.374  0.2423 -0.1334  0.0248
 6958W        W11022   2.637   2.249   2.637 -0.1967 -0.0737  0.3462
 6959W        W11023   1.440   2.584   3.271 -0.1531 -0.0165  0.0659
 6960W        W11024   5.032   8.151   7.589 -0.2126 -0.1718 -0.0897
 6961W        W11025   4.226   6.414   1.725 -0.1682 -0.0283  0.1198
 6962W        W11026   1.596   7.791   9.886  0.3770 -0.1065 -0.0348
 6963W        W11027   0.338   4.332   8.932  0.0855 -0.1005  0.0436
 6964W        W11028   1.819   2.604   8.356  0.2562  0.1463  0.0059
 6965W        W11029   6.280   7.892   1.668 -0.1159  0.2989  0.0461
 6966W        W11030   6.004   8.214   0.853 -0.0530  0.1399 -0.1579
 6967W        W11031   6.656   7.147   0.019 -0.0922  0.0923  0.3731
 6968W        W11032   7.591   3.718   8.453 -0.2027 -0.0786 -0.1929
 6969W        W11033   0.275   4.887   0.542  0.0731  0.1235 -0.1293
 6970W        W11034   2.857   1.552   2.019 -0.0332  0.0015 -0.1136
 6971W        W11035   5.977   6.193   8.447  0.3144  0.0100  0.4201
 6972W        W11036   4.812   1.239   9.401 -0.0705  0.1229  0.1708
 6973W        W11037   2.547   6.339   8.615 -0.0791  0.0994  0.1130
 6974W        W11038   1.476   3.708   1.204  0.1271  0.1228  0.0491
 6975W        W11039  10.105   4.535   9.073  0.1180 -0.0587 -0.0109
 6976W        W11040   3.073   9.617  10.691 -0.4061 -0.0556 -0.0524
 6977W        W11041   9.721   6.022   9.892 -0.1798  0.4331 -0.1575
 6978W        W11042   3.044   8.906   8.318  0.0491 -0.0284 -0.1004
 6979W        W11043  10.101   5.855   0.683  0.0159 -0.0392  0.1424
 6980W        W11044   2.613  10.562   8.880  0.0242  0.0198  0.2702
 6981W        W11045   8.807   3.822   4.207 -0.2484  0.2118 -0.1456
 6982W        W11046   1.454   4.277   8.781  0.1129  0.2030  0.2367
 6983W        W11047  10.601   3.794  10.632 -0.0953 -0.0184 -0.1998
 6984W        W11048   8.193   4.640   1.991 -0.2137  0.4325  0.0114
 6985W        W11049   6.951   5.172   9.546 -0.0416  0.0898 -0.0310
 6986W        W11050   3.387   4.456   9.931 -0.0892  0.3108 -0.0945
 6987W        W11051   0.895   0.475   3.430  0.0544  0.2077 -0.2526
 6988W        W11052   6.289   8.623   2.259 -0.1796  0.1643 -0.1252
 6989W        W11053   4.099   1.323  11.296 -0.1855  0.0225 -0.2540
 6990W        W11054   4.427   3.675  11.093 -0.3275  0.0716 -0.0407
 6991W        W11055   0.296   0.065   8.976  0.0504 -0.0927  0.3052
 6992W        W11056   3.104   6.583   8.115 -0.3284  0.1432 -0.0972
 6993W        W11057   5.353   9.515  10.773  0.3871  0.4733  0.2725
 6994W        W11058   9.901   6.972   2.235  0.1485 -0.2327  0.0984
 6995W        W11059   7.179   3.276  11.122  0.2427 -0.0489 -0.1715
 6996W        W11060   9.604   3.146   0.346  0.0880 -0.2073  0.1453
 6997W        W11061   8.029   6.645   2.085 -0.2172  0.1408 -0.4265
 6998W        W11062   9.104   1.719   3.740  0.0373  0.0563  0.1184
 6999W        W11063   4.041   5.248  10.380  0.3024 -0.2880  0.2572
 7000W        W11064   9.193   4.744   7.467  0.2369 -0.2749 -0.1015
 7001W        W11065   0.195   6.589   2.248 -0.0519  0.4761  0.1942
 7002W        W11066   2.745   5.293   1.055 -0.3014 -0.0206  0.2292
 7003W        W11067   9.851   3.998   8.430 -0.1864 -0.1851  0.1493
 7004W        W11068   2.947  10.302   1.953 -0.1156 -0.0028  0.3542
 7005W        W11069   8.557  10.477   0.567 -0.2057  0.0502 -0.0022
 7006W        W11070   2.459  10.117   1.506  0.1692  0.0294  0.1908
 7007W        W11071   4.894   4.165   8.427  0.0302 -0.0254  0.3043
 7008W        W11072   9.063   9.608   3.101  0.0258  0.2937 -0.3448
 7009W        W11073   5.522   8.937   7.497 -0.0257  0.3103  0.1884
 7010W        W11074   8.776   5.825   9.077  0.0575  0.0068  0.0577
 7011W        W11075   6.180   7.314   3.701  0.0434 -0.3913 -0.3588
 7012W        W11076   1.766   4.208   1.862  0.0202 -0.1267  0.0524
 7013W        W11077   8.213   1.722   1.678 -0.1073  0.0929  0.0788
 7014W        W11078   3.700   4.961   8.015 -0.1102  0.2207 -0.1141
 7015W        W11079   7.627   2.342  10.954  0.2938  0.1250  0.1356
 7016W        W11080   2.161   9.684  10.686  0.3069 -0.1456 -0.1531
 7017W        W11081  10.050   4.791   1.326  0.1438 -0.1581 -0.1606
 7018W        W11082   4.383   0.368   1.507  0.4026  0.1663  0.1113
 7019W        W11083   2.577   1.094   8.122  0.3061  0.1912  0.0295
 7020W        W11084   1.375   9.618   8.037 -0.3965 -0.0785 -0.0611
 7021W        W11085   3.089   3.468   9.570  0.3058  0.0716 -0.3113
 7022W        W11086   0.937   7.479  11.026  0.3936  0.1175  0.0643
 7023W        W11087   3.212   1.986   1.998  0.0046  0.0688 -0.0546
 7024W        W11088   3.108   7.913   2.258  0.0846 -0.5033 -0.2814
 7025W        W11089   9.006   5.117   9.932  0.0631  0.1121 -0.0943
 7026W        W11090   7.898  10.124   1.911  0.0026 -0.0942  0.1012
 7027W        W11091   0.160   6.767   0.085 -0.2060 -0.0563 -0.0519
 7028W        W11092  10.090   5.024  10.128 -0.4718 -0.1274  0.0693
 7029W        W11093   3.056   7.148   9.875  0.1068  0.0540 -0.1390
 7030W        W11094   4.425   2.327   0.373 -0.2412  0.0701  0.2574
 7031W        W11095  10.625   3.439   0.043 -0.0152 -0.0774  0.2316
 7032W        W11096   9.475   4.016   0.485 -0.0943  0.0423 -0.2776
 7033W        W11097   1.969   0.458   4.196 -0.1922  0.3519 -0.4130
 7034W        W11098   7.773   6.393   2.477 -0.0140 -0.2198  0.1325
 7035W        W11099   6.714   5.200   2.198  0.2369 -0.4443 -0.0906
 7036W        W11100   4.605   0.516   1.103  0.0565  0.0601  0.0262
 7037W        W11101   1.731   6.008   2.476 -0.1654 -0.1269 -0.0783
 7038W        W11102   4.014   6.494   1.257  0.0811 -0.7729 -0.0707
 7039W        W11103   8.452   3.836  11.124  0.0808 -0.1307  0.0761
 7040W        W11104   7.341   0.698   2.673 -0.0672  0.0382  0.1702
 7041W        W11105   0.029   9.839  11.492  0.0568 -0.0935 -0.0206
 7042W        W11106   2.423   2.360   0.006 -0.0478 -0.0017 -0.1873
 7043W        W11107   4.496   7.993   0.134  0.2707  0.0755  0.0905
 7044W        W11108   7.770   3.364  10.153 -0.2529 -0.2266 -0.2854
 7045W        W11109   5.479   9.910   8.130  0.0902 -0.0166 -0.0240
 7046W        W11110   3.188   3.957  11.477  0.2784  0.1853  0.2364
 7047W        W11111   7.769   0.516   2.922 -0.0666 -0.0875  0.3776
 7048W        W11112   9.644  10.237   0.185  0.3056  0.2106  0.1134
 7049W        W11113   4.395   7.874   8.162 -0.0061  0.1365  0.0243
 7050W        W11114   4.762   1.700  10.322 -0.0297  0.3397  0.0297
 7051W        W11115   5.444  10.645   0.006 -0.0139  0.1190  0.0276
 7052W        W11116   3.339   5.687   2.311  0.2398  0.1307 -0.0562
 7053W        W11117   1.281   1.550   2.790 -0.1039  0.1567  0.1259
 7054W        W11118   5.176   5.988   2.047 -0.3745  0.3500  0.0678
 7055W        W11119   3.608   5.725   9.695 -0.1867 -0.1143  0.1642
 7056W        W11120   2.514   3.565   3.731 -0.0586 -0.0447  0.2930
 7057W        W11121   6.568   7.249   9.946  0.1475  0.1029 -0.0487
 7058W        W11122   8.530   1.168   8.286  0.0978  0.1314  0.0808
 7059W        W11123   0.595   4.073   2.639  0.0442  0.1348  0.2403
 7060W        W11124   1.443   5.211   9.340  0.0146  0.0267 -0.1088
 7061W        W11125   0.013   3.279  10.433  0.0252  0.2334 -0.0827
 7062W        W11126   3.563   6.528  11.498  0.0518 -0.0159 -0.1759
 7063W        W11127   9.825   2.013   9.593 -0.1354  0.1047  0.0694
 7064W        W11128   2.619   2.699   0.815  0.0128  0.2666  0.0578
 7065W        W11129   4.247   7.936  10.349  0.0548 -0.0235 -0.0282
 7066W        W11130   4.169   5.066   1.248  0.0437 -0.0828 -0.0561
 7067W        W11131   3.512   6.095   1.872  0.0509 -0.1271 -0.1206
 7068W        W11132   5.932   8.093  10.746 -0.0482 -0.0169  0.3302
 7069W        W11133   3.369   2.828  10.773  0.0075 -0.0893 -0.1503
 7070W        W11134   2.072   6.355   0.886  0.1406  0.1635 -0.1791
 7071W        W11135   0.632   0.907  10.215  0.0999 -0.1380 -0.0032
 7072W        W11136   1.824  10.267   9.082  0.1018  0.1231  0.1453
 7073W        W11137   2.175   6.425   2.825 -0.1604 -0.1420 -0.0507
 7074W        W11138  10.398   0.918  10.587 -0.2795  0.0746  0.0056
 7075W        W11139   1.508   2.501   0.591 -0.3221 -0.1620  0.0699
 7076W        W11140   2.564   8.565   3.439 -0.0329 -0.2556  0.1390
 7077W        W11141   9.888   7.469   8.417 -0.2114 -0.3481  0.1373
 7078W        W11142   6.053   3.871   0.409  0.2627 -0.2415  0.0365
 7079W        W11143   2.104   2.327   7.943 -0.1730 -0.4322  0.0053
 7080W        W11144   7.549   7.048   8.506 -0.0486  0.0578  0.0474
 7081W        W11145   6.324   5.870   2.960 -0.0669  0.3008 -0.3956
 7082W        W11146   9.254   9.556  11.519  0.0401  0.3776 -0.1149
 7083W        W11147   5.698   7.400   7.767 -0.0163  0.2216  0.0383
 7084W        W11148   0.744   2.642   7.508 -0.1998  0.0309 -0.1461
 7085W        W11149  10.608   7.464   2.718 -0.0783 -0.1475 -0.2024
 7086W        W11150   4.473   1.351   8.572  0.0071  0.1656  0.0076
 7087W        W11151   2.643  10.191   7.847  0.0702 -0.0948 -0.0625
 7088W        W11152  10.616   1.359  10.411 -0.1688 -0.2769 -0.0150
 7089W        W11153   7.477   3.276   3.580  0.1120  0.3850  0.0802
 7090W        W11154   1.193  10.153   2.689  0.0120  0.1992 -0.0282
 7091W        W11155   6.580   7.960   2.364  0.0119  0.0686  0.2365
 7092W        W11156   1.954   7.406  11.308  0.0618  0.1377  0.1100
 7093W        W11157   3.833   0.870   9.508 -0.1719 -0.1239  0.0307
 7094W        W11158   2.248   9.740   1.870  0.1232 -0.1405  0.1158
 7095W        W11159   7.184   9.168  10.410  0.2191 -0.0482  0.3152
 7096W        W11160   2.357   5.257   1.317 -0.0340  0.2605  0.3155
 7097W        W11161   3.078   8.481   2.196 -0.0668 -0.1834  0.3196
 7098W        W11162   0.194   3.990   8.575 -0.1698  0.2282 -0.1545
 7099W        W11163   6.647   9.163  10.550 -0.0459 -0.0297  0.0528
 7100W        W11164   9.741   7.344   2.544 -0.1123 -0.1822 -0.5077
 7101W        W11165   3.987   4.340   0.523 -0.0765 -0.1815 -0.2130
 7102W        W11166  10.145   8.248   2.407  0.3935  0.0573  0.2159
 7103W        W11167   6.263   0.566   9.043  0.1303  0.1081 -0.5047
 7104W        W11168   0.512   7.759   7.290 -0.0463  0.0339 -0.2017
 7105W        W11169   3.949   2.850   7.631 -0.2778 -0.0090  0.1908
 7106W        W11170   9.022   6.015  10.196 -0.0653 -0.4984 -0.2484
 7107W        W11171   4.245   6.273   2.683  0.0617  0.3168 -0.1592
 7108W        W11172  10.156   6.785   0.645 -0.0782  0.0877 -0.0854
 7109W        W11173   0.089   3.286   9.171 -0.1732  0.1985 -0.0662
 7110W        W11174   3.580   2.173   7.827  0.0744  0.1876 -0.0442
 7111W        W11175   5.820   0.318  10.309  0.5213 -0.4607 -0.0118
 7112W        W11176   7.172   3.437  10.670  0.1122 -0.3104  0.1833
 7113W        W11177   8.071   0.823   3.789  0.1030 -0.2838  0.0455
 7114W        W11178   8.768   5.831   1.872 -0.0685  0.1079  0.0634
 7115W        W11179   6.790   3.079   2.406  0.3579  0.1500 -0.0585
 7116W        W11180   2.692   2.547   1.320 -0.0325  0.0243  0.2531
 7117W        W11181   9.492   3.665   8.603  0.0389 -0.1409 -0.0713
 7118W        W11182   0.914   1.086   0.661  0.0000  0.0317 -0.0672
 7119W        W11183   7.312   3.612  10.235  0.1731  0.2736  0.0400
 7120W        W11184   6.894   1.377   1.366  0.0128  0.0179  0.1516
 7121W        W11185   6.944   5.680   9.216 -0.2551 -0.2633  0.1913
 7122W        W11186   9.810   1.397   8.839 -0.0272  0.3482  0.3873
 7123W        W11187   0.743   5.015  11.124  0.1461  0.2324 -0.0402
 7124W        W11188   0.295   8.488   2.122 -0.1532  0.0586  0.0594
 7125W        W11189   5.458   0.366   9.850 -0.0749 -0.1442  0.1878
 7126W        W11190   2.849   7.831   8.117 -0.1778 -0.2982  0.0740
 7127W        W11191   9.385   0.171   0.839  0.1486 -0.1414 -0.0845
 7128W        W11192  10.447   8.413  11.424  0.2745 -0.4074 -0.0268
 7129W        W11193   5.788   4.834  10.991 -0.0399 -0.0356  0.2241
 7130W        W11194   2.076   0.822  10.984 -0.1528  0.1363 -0.0536
 7131W        W11195   9.070   2.744   8.188  0.2037 -0.0158 -0.0691
 7132W        W11196   9.351   0.328   2.113  0.2276 -0.0541  0.2326
 7133W        W11197   6.656   3.575   9.279 -0.0049  0.0007 -0.0478
 7134W        W11198   6.160   1.467   0.627  0.0949  0.2330 -0.0377
 7135W        W11199   1.435   3.170   9.548  0.0503 -0.1926 -0.1441
 7136W        W11200   5.488   7.729  10.810 -0.0565 -0.1613  0.1123
 7137W        W11201   5.089   7.350   0.930  0.1353 -0.2452 -0.2002
 7138W        W11202   8.979   4.979   2.225 -0.0364 -0.3120  0.1149
 7139W        W11203   5.849   3.209  11.417  0.2211  0.0144 -0.2506
 7140W        W11204   8.289   7.040   0.099 -0.2442 -0.0655 -0.0528
 7141W        W11205   4.532   7.881   8.600 -0.0672 -0.0226  0.0042
 7142W        W11206   3.130   6.487   1.792  0.0247  0.3253  0.1838
 7143W        W11207   6.123   5.291  10.507 -0.1433  0.3127 -0.1264
 7144W        W11208   4.999   6.520   2.193 -0.0721 -0.0900 -0.3233
 7145W        W11209   4.834   0.740   2.360 -0.3150 -0.0463 -0.3309
 7146W        W11210   8.408   6.542  10.197 -0.1270  0.5974 -0.0828
 7147W        W11211   0.455  10.207   8.986  0.1127  0.0709  0.0474
 7148W        W11212  10.617   1.446   2.868  0.1609 -0.0420  0.1458
 7149W        W11213   8.450   0.240   0.291  0.0432  0.1760 -0.1186
 7150W        W11214   1.424   8.206   0.249  0.1871  0.0589 -0.1350
 7151W        W11215   7.941   4.147   2.611 -0.5635 -0.5456  0.2054
 7152W        W11216   0.540   5.450   8.598  0.3489 -0.0995  0.1173
 7153W        W11217   1.186   4.675   9.313 -0.0825 -0.1823  0.0996
 7154W        W11218   2.540   4.929   9.122  0.0631  0.2367 -0.0671
 7155W        W11219   5.476   4.933   1.306 -0.0796 -0.4012  0.1978
 7156W        W11220   9.611   4.557   1.063 -0.1562  0.1551  0.1367
 7157W        W11221  10.083   4.022   9.863 -0.1097 -0.0453 -0.0181
 7158W        W11222   1.254   7.998   8.862  0.2805 -0.0564  0.2284
 7159W        W11223   2.252   7.359  10.921  0.1576  0.2981  0.4412
 7160W        W11224  10.633   2.198   0.700 -0.0462 -0.0382 -0.2560
 7161W        W11225   7.082   8.745   1.384  0.0168 -0.1102 -0.0708
 7162W        W11226  10.026   1.815  11.051 -0.1372  0.4250 -0.1569
 7163W        W11227   6.979   9.415  11.433 -0.1104  0.1628 -0.0489
 7164W        W11228   5.557   8.433  11.194 -0.1641 -0.1018 -0.2626
 7165W        W11229   4.317   8.147  10.795 -0.0960 -0.0369 -0.1155
 7166W        W11230   1.308   0.784  11.180  0.3293 -0.1471 -0.3109
 7167W        W11231   8.456   8.134  10.798  0.2826 -0.3267 -0.0613
 7168W        W11232   7.311   4.167   9.425 -0.3477  0.0048  0.0224
 7169W        W11233   9.895  10.337   3.225  0.1051  0.2991 -0.1588
 7170W        W11234   7.226   0.658   3.536  0.2722  0.0029  0.4040
 7171W        W11235   3.563   0.855  11.249  0.2471  0.0114  0.4185
 7172W        W11236   8.468  10.623   2.359  0.0668 -0.0576  0.1839
 7173W        W11237   1.438   3.136   1.264 -0.1082  0.1947 -0.4197
 7174W        W11238   8.789   5.857   3.623 -0.1245 -0.0460  0.2042
 7175W        W11239   8.678   6.826   0.989 -0.0339 -0.0379 -0.3314
 7176W        W11240   0.788   2.378   2.900  0.0938 -0.1180 -0.0107
 7177W        W11241   4.108   8.124   8.430  0.1804  0.1946 -0.0919
 7178W        W11242   8.045   8.039   1.907  0.0016  0.0092  0.0982
 7179W        W11243   9.339   6.398   2.858 -0.2034 -0.2772  0.0015
 7180W        W11244   7.589   7.474  11.141  0.1682  0.2399 -0.1374
 7181W        W11245   3.991   1.729   9.487  0.3190 -0.2372 -0.0035
 7182W        W11246   5.321   3.357   0.487  0.2409 -0.1811 -0.0202
 7183W        W11247   0.152   4.938  10.945  0.2678  0.0200  0.2880
 7184W        W11248   0.059   0.960   8.121 -0.0307 -0.0365  0.0525
 7185W        W11249   9.773   9.294   0.776  0.1269 -0.0011  0.2486
 7186W        W11250   8.027   0.310   1.038 -0.0863 -0.2474 -0.0199
 7187W        W11251   3.090   7.743   3.512 -0.1160 -0.0769 -0.1181
 7188W        W11252   6.019   2.954   9.780 -0.3264 -0.2725 -0.0202
 7189W        W11253   6.534   2.099   2.223  0.1170 -0.3205  0.0408
 7190W        W11254   6.447   2.811   3.677 -0.0368  0.0605 -0.1346
 7191W        W11255   1.759   8.923   0.175 -0.3389 -0.0232 -0.1474
 7192W        W11256   8.647   5.204  10.223 -0.0292 -0.0963 -0.1517
 7193W        W11257   5.005   0.852   1.234 -0.0747 -0.1336 -0.1028
 7194W        W11258   7.092   4.403   1.624 -0.3079  0.1008 -0.0709
 7195W        W11259   9.834   5.033   1.761 -0.3032  0.0728 -0.2741
 7196W        W11260   0.555   9.047   2.345 -0.0941  0.1443  0.0845
 7197W        W11261   8.622   3.299   1.909 -0.1615  0.1690  0.1136
 7198W        W11262   7.452   4.163   2.546 -0.2490  0.3525 -0.2272
 7199W        W11263   6.554   5.524   0.848 -0.1402  0.1092  0.1242
 7200W        W11264   8.282   9.340   1.959 -0.1153  0.0660 -0.0465
 7201W        W11265   8.846   3.313   1.398 -0.0405  0.0627  0.6752
 7202W        W11266   9.573   5.569   9.631  0.1397  0.2568 -0.1714
 7203W        W11267   2.182   4.185  10.232  0.1792  0.3603  0.2590
 7204W        W11268   4.795   9.599  10.737 -0.2902  0.1986 -0.3880
 7205W        W11269   7.808   1.043   1.062  0.0352  0.0004  0.0273
 7206W        W11270   8.128   1.177   1.546 -0.0348  0.0266  0.2056
 7207W        W11271   5.377   7.460   2.033 -0.1004  0.1937  0.0111
 7208W        W11272   9.089   5.379   1.871  0.1944  0.0757 -0.0074
 7209W        W11273   7.652   5.939   2.326 -0.3477 -0.1042  0.1529
 7210W        W11274   2.359   7.188   9.729  0.1295  0.1272  0.1136
 7211W        W11275  10.004   0.441   8.775  0.0171 -0.0300  0.4267
 7212W        W11276   2.339   5.787   1.001  0.0981 -0.0143  0.2780
 7213W        W11277   8.280   2.462   3.928 -0.2503 -0.3747  0.0760
 7214W        W11278   8.823   3.748   1.222 -0.2203  0.2705 -0.0691
 7215W        W11279   0.846   8.342   8.675 -0.0219 -0.0531  0.1196
 7216W        W11280   0.816   0.829   9.280 -0.0796 -0.0047  0.0585
 7217W        W11281   8.344   0.160  10.809 -0.1817 -0.1020 -0.1934
 7218W        W11282   7.999   9.085   9.670  0.1951 -0.0059  0.2902
 7219W        W11283   3.846  10.452   8.573  0.1747  0.2169 -0.1182
 7220W        W11284   0.921   0.185   2.130  0.1088  0.1742 -0.1399
 7221W        W11285   3.415   1.264  11.072  0.0920  0.0053  0.1713
 7222W        W11286   2.824   8.608  11.121 -0.2918 -0.1127  0.1578
 7223W        W11287   5.775   1.147   1.959 -0.0196 -0.2042 -0.2451
 7224W        W11288   5.332   8.618   8.963 -0.0412 -0.2703 -0.0385
 7225W        W11289   3.686   7.711   1.540 -0.0393 -0.3479  0.1309
 7226W        W11290   1.362   6.562   9.046  0.2561 -0.1008  0.1625
 7227W        W11291   4.154   4.267   8.685  0.2954 -0.1268 -0.3572
 7228W        W11292   0.240   0.599   3.258  0.0573  0.1711 -0.0402
 7229W        W11293   5.347   9.180   3.425  0.1939  0.1302 -0.1245
 7230W        W11294   1.947   7.395   2.066  0.0398  0.2978  0.0349
 7231W        W11295   6.525   4.948  10.266 -0.2821 -0.0237 -0.2745
 7232W        W11296   5.456   5.549   2.158  0.0509  0.3110 -0.2436
 7233W        W11297   3.054   8.152  10.298 -0.0253 -0.4491  0.1803
 7234W        W11298   0.996   2.265   1.411 -0.2237 -0.1932  0.0311
 7235W        W11299   3.278   7.000   1.784  0.0487 -0.0693 -0.2448
 7236W        W11300   8.378   4.529   1.063 -0.2422  0.5243 -0.0768
 7237W        W11301   5.930   5.703   7.168 -0.0247 -0.1480  0.0733
 7238W        W11302   6.639   6.015   0.785 -0.5169 -0.0459 -0.0278
 7239W        W11303   2.319   1.458   7.802 -0.0039  0.2352  0.0107
 7240W        W11304   5.823   0.159   3.865  0.0008  0.2583  0.2637
 7241W        W11305   6.196   8.827   9.525 -0.0167 -0.2212  0.1770
 7242W        W11306   1.048  10.069  10.595  0.2744  0.0353  0.3011
 7243W        W11307   6.699   9.889   9.359  0.0427 -0.2535  0.2902
 7244W        W11308   4.245   1.871   8.611 -0.2034 -0.0654  0.0914
 7245W        W11309   2.800   2.786   2.541 -0.0872  0.1843  0.0410
 7246W        W11310   2.158   8.183  11.175  0.4164 -0.3307  0.3589
 7247W        W11311   3.556   0.602   3.074  0.3509  0.5070  0.1033
 7248W        W11312   8.464   2.959   1.334 -0.2666  0.1177  0.1906
 7249W        W11313   8.976   4.112   8.635  0.2257  0.0814  0.0209
 7250W        W11314   4.710   0.183   8.703  0.2197 -0.0419  0.0771
 7251W        W11315   4.731   6.183   1.856 -0.0681 -0.2845 -0.0498
 7252W        W11316   5.878   7.095   7.347 -0.0684 -0.0256  0.2023
 7253W        W11317   8.513   1.043   9.448  0.2199  0.1307 -0.2389
 7254W        W11318   6.166   3.513  11.085 -0.1784  0.1288 -0.2714
 7255W        W11319   2.055   7.085   0.208  0.3532 -0.4228  0.0762
 7256W        W11320   7.695   9.471   9.506  0.2082 -0.1395 -0.0532
 7257W        W11321   1.881   0.118   2.447 -0.1228 -0.1161  0.1102
 7258W        W11322   1.612   0.153   0.395  0.3719 -0.1303  0.3204
 7259W        W11323   1.022   1.461   8.568 -0.2156  0.1488 -0.0461
 7260W        W11324   9.734   7.242   1.527  0.2306 -0.0669 -0.3021
 7261W        W11325   2.866   8.268   9.878 -0.0700  0.1073 -0.5569
 7262W        W11326   2.791   3.123   7.676  0.1387  0.0520 -0.1405
 7263W        W11327   2.139   0.018   9.198 -0.0594 -0.1761 -0.0788
 7264W        W11328   4.252   7.339   0.869 -0.2384 -0.0325  0.2086
 7265W        W11329   3.395   9.184   9.006 -0.2421  0.0026 -0.0392
 7266W        W11330   9.107   4.228   2.916  0.2875  0.0131 -0.0263
 7267W        W11331   7.470   2.754   1.906 -0.1581 -0.4696  0.0861
 7268W        W11332   6.400   8.178   9.090 -0.1657  0.2174 -0.2691
 7269W        W11333   9.337   0.657   8.144  0.4258  0.1504 -0.0126
 7270W        W11334   6.857   9.305   2.028  0.2536 -0.4015 -0.2736
 7271W        W11335   4.448  10.407  10.427  0.1621  0.2011 -0.1299
 7272W        W11336   8.184   0.789   0.885 -0.2049  0.1289  0.0350
 7273W        W11337   1.896   3.682   7.726  0.0934 -0.2603 -0.1072
 7274W        W11338   1.450   4.114   9.281  0.2694  0.1305 -0.1473
 7275W        W11339   8.646   2.339  11.344 -0.1581  0.0237  0.0002
 7276W        W11340   6.824   1.733   3.331 -0.1575 -0.2796  0.0540
 7277W        W11341   0.161   9.101  10.198  0.3115  0.0007 -0.0961
 7278W        W11342   4.439   6.870  11.388  0.1266  0.1336  0.0252
 7279W        W11343   5.866   0.395   0.129 -0.0772  0.1510  0.0179
 7280W        W11344   7.770  10.073   9.968 -0.3608  0.0281  0.0084
 7281W        W11345   6.941  10.207   1.142 -0.0290 -0.0325  0.2362
 7282W        W11346   5.236  10.628   0.786 -0.0754  0.1362 -0.0165
 7283W        W11347   3.908   8.573   0.569 -0.0083  0.4122  0.3305
 7284W        W11348   0.311   0.648   1.609  0.3007  0.1459  0.0741
 7285W        W11349   8.923   7.423  10.420 -0.0146 -0.0116  0.2888
 7286W        W11350   9.264   9.780   8.573  0.1552  0.1227  0.0558
 7287W        W11351   3.178   5.364   9.640 -0.2801 -0.0379  0.1838
 7288W        W11352   8.266   3.524  11.451 -0.5726  0.0991  0.0262
 7289W        W11353   2.361  10.306   3.089  0.0595 -0.2760 -0.0291
 7290W        W11354   6.656   3.864   2.451 -0.0853  0.2199 -0.0787
 7291W        W11355   0.906   8.591   8.157  0.0644 -0.3359 -0.0530
 7292W        W11356   3.640   1.022   8.793  0.2161 -0.0413 -0.0319
 7293W        W11357   8.360   2.891   8.912 -0.2038 -0.1302  0.0525
 7294W        W11358   7.538   9.913   9.051 -0.2463  0.1796  0.1175
 7295W        W11359   0.927   3.641  11.226 -0.0268  0.2240  0.2913
 7296W        W11360   7.610   1.206  11.251 -0.0318  0.0924  0.3007
 7297W        W11361   1.056   2.064   8.463 -0.1308 -0.0656  0.0144
 7298W        W11362   4.149   9.306   1.166 -0.1838 -0.0945 -0.1936
 7299W        W11363   6.379  10.606   2.759 -0.0252 -0.0230 -0.0557
 7300W        W11364  10.381   3.547   0.504  0.0367 -0.1388  0.0452
 7301W        W11365   8.805   1.909   1.390 -0.0569 -0.0549 -0.2124
 7302W        W11366   1.340   0.559   1.962  0.0690  0.4281  0.0588
 7303W        W11367   2.329   8.005   1.057 -0.1890 -0.0496  0.1880
 7304W        W11368   0.129   7.507   9.413  0.2891 -0.1625 -0.0199
 7305W        W11369   7.014   0.328   2.400 -0.0694  0.0586 -0.1111
 7306W        W11370   6.494   3.857   2.921  0.4685  0.0896  0.0439
 7307W        W11371  10.631   2.825   9.011 -0.1443  0.1919  0.1735
 7308W        W11372   7.623   7.938   1.581  0.3557 -0.2615 -0.1405
 7309W        W11373   6.386  10.067   7.429 -0.4052 -0.3256  0.1083
 7310W        W11374   0.629   2.679   9.946 -0.0893 -0.1366  0.0529
 7311W        W11375   3.802   4.379   9.468  0.0349  0.3379  0.0434
 7312W        W11376   3.463   2.113   1.557  0.2461  0.0280  0.1480
 7313ION    NA+11377   0.547   0.969   0.213 -0.0040 -0.0939  0.1836
 7314ION    NA+11378   4.737   8.548   0.294 -0.0572  0.3169 -0.0224
 7315ION    NA+11379   9.660   4.699   7.686 -0.1041 -0.0210 -0.1553
 7316ION    NA+11380   9.119   9.665   9.088  0.1260 -0.1368  0.2037
 7317ION    NA+11381   4.588   9.603   2.065 -0.1421 -0.4644  0.1111
 7318ION    NA+11382   8.076   5.465  11.368  0.2340  0.3426  0.0076
 7319ION    NA+11383  10.282   2.625   9.909  0.1364  0.1562 -0.3023
 7320ION    NA+11384   8.998   6.256   2.107 -0.0297  0.2271  0.1687
 7321ION    NA+11385   4.563   9.602   3.280 -0.1892  0.0062 -0.3238
 7322ION    NA+11386   6.785   6.505   0.797 -0.5373  0.2879 -0.2525
 7323ION    NA+11387   8.879   8.897   9.753 -0.0536 -0.2335 -0.0203
 7324ION    NA+11388   6.907   5.944  10.211 -0.2264 -0.0392  0.0541
 7325ION    NA+11389   5.377   3.390   9.001  0.0114  0.1718  0.3062
 7326ION    NA+11390   6.163   4.872   8.431  0.0846  0.0676  0.1821
 7327ION    NA+11391   6.997   6.933  11.180 -0.0906 -0.1109 -0.0511
 7328ION    NA+11392   2.958   8.660   1.666  0.0963 -0.0746 -0.0596
 7329ION    NA+11393   4.942   2.227   2.700  0.0656  0.0009 -0.1959
 7330ION    NA+11394   2.850  10.073   3.848  0.2171 -0.0191 -0.0276
 7331ION    NA+11395   9.884   2.202  10.582 -0.4657  0.0129  0.2092
 7332ION    NA+11396   2.640   9.114   2.530  0.1730  0.2361 -0.2247
 7333ION    NA+11397   3.184   9.644   4.088  0.2773  0.1785 -0.0162
 7334ION    NA+11398   2.357   4.093   9.778  0.2636  0.0811 -0.0089
 7335ION    NA+11399   4.417   1.552   0.139  0.1489  0.0078  0.3090
 7336ION    NA+11400  10.539   4.259   9.734 -0.2209 -0.0551 -0.1600
 7337ION    NA+11401   2.850   6.031   3.278  0.0286 -0.2165 -0.0255
 7338ION    NA+11402   5.083   4.524   0.031 -0.0655 -0.3439  0.2044
 7339ION    NA+11403   6.816   0.054   8.284 -0.1655 -0.2428 -0.1170
 7340ION    NA+11404   4.034   7.200   7.576  0.1247 -0.3233  0.1897
 7341ION    NA+11405   9.094   5.875  10.718  0.1610  0.1738 -0.0576
 7342ION    NA+11406   3.354   9.004   3.282 -0.3111  0.0218  0.0665
 7343ION    NA+11407   5.009   9.161  10.271 -0.0227 -0.0336 -0.0609
 7344ION    NA+11408   6.019   5.803   1.665 -0.0805 -0.0294 -0.1043
 7345ION    NA+11409   8.997   0.648   3.989  0.2648  0.0316 -0.1212
 7346ION    NA+11410   8.458   3.409   2.347  0.2693  0.2144  0.2381
 7347ION    NA+11411   1.919   6.860   8.973  0.0849 -0.1549 -0.1232
 7348ION    NA+11412   6.985   7.535   2.433  0.2111 -0.1724  0.1289
 7349ION    NA+11413   9.685   6.561   8.675 -0.1817  0.0673 -0.0848
 7350ION    NA+11414   5.025   8.405   8.662 -0.4020  0.0958  0.1215
 7351ION    NA+11415   2.618   2.025   9.009  0.1375 -0.0042 -0.0469
 7352ION    NA+11416   0.718   7.325   8.825  0.1574  0.1099  0.1776
 7353ION    NA+11417   5.225   4.666   2.013 -0.1592 -0.3015  0.0463
 7354ION    NA+11418   9.994   3.471  10.023  0.1887 -0.1556  0.1300
 7355ION    NA+11419   8.706   6.704  10.618 -0.0390 -0.1380 -0.0938
 7356ION    NA+11420   0.167   1.465   9.947  0.1642  0.0587  0.2348
 7357ION    NA+11421   0.566   9.894   3.849 -0.0776  0.1624 -0.0360
 7358ION    NA+11422  10.293   3.985   7.453  0.0267 -0.0269 -0.2698
 7359ION    NA+11423   4.679   8.524  10.891 -0.2978  0.0392  0.2436
 7360ION    NA+11424   5.704   6.605   7.267 -0.0066  0.0088 -0.0763
 7361ION    NA+11425   7.335   9.385   8.718  0.3540 -0.3935 -0.0760
 7362ION    NA+11426   6.346   6.573   1.152 -0.2493 -0.2344  0.0968
 7363ION    NA+11427   3.816   7.356   1.188  0.2081  0.0717 -0.0650
 7364ION    NA+11428   5.578   6.371   7.716  0.0546 -0.0231  0.1800
 7365ION    NA+11429   7.309   5.884  11.464  0.2815  0.1059 -0.1924
 7366ION    NA+11430   0.562   4.637   0.842  0.0454  0.0595  0.0030
 7367ION    NA+11431   3.878   8.677   7.711 -0.0336  0.0126 -0.3030
 7368ION    NA+11432   8.240   2.246   1.446  0.0522  0.3970  0.0235
 7369ION    NA+11433   4.500   4.013   8.080  0.1909  0.0255 -0.1391
 7370ION    NA+11434   4.931   4.089   1.231 -0.3494 -0.0298 -0.0691
 7371ION    NA+11435   8.192   6.874   1.054 -0.1229 -0.0982 -0.1474
 7372ION    NA+11436   5.913   3.167   8.254  0.0863 -0.4473  0.2319
 7373ION    NA+11437   4.817   6.807   7.206 -0.3563 -0.1192  0.1321
 7374ION    NA+11438   2.059  10.233   7.957  0.0578 -0.0636 -0.0668
 7375ION    NA+11439   7.633   7.615   9.664 -0.0322 -0.1056  0.1940
 7376ION    NA+11440   0.321   1.870   7.694 -0.1803 -0.1523 -0.3161
 7377ION    NA+11441   2.497  10.089   8.667  0.4157  0.2179 -0.0582
 7378ION    NA+11442   2.876   8.087   7.653 -0.3321  0.1772  0.2277
 7379ION    NA+11443   7.579   3.489   9.317 -0.0965 -0.1561 -0.1913
 7380ION    NA+11444   5.637   7.911   3.331  0.1321 -0.0080  0.1017
 7381ION    NA+11445   1.910   0.634   2.623 -0.0035  0.2758  0.2826
 7382ION    NA+11446   1.357   6.035   8.862  0.0663 -0.2359 -0.1069
 7383ION    NA+11447   5.452   1.782   3.102 -0.5390 -0.0822  0.0896
 7384ION    NA+11448  10.391   8.736   0.700  0.0100  0.0166  0.0748
 7385ION    NA+11449   4.449   3.239   7.791 -0.2085 -0.1806 -0.3193
 7386ION    NA+11450  10.657   8.150  10.669 -0.1143  0.0951  0.1134
 7387ION    NA+11451   8.693   3.303   9.127  0.0135  0.1837  0.1548
 7388ION    NA+11452   8.426   9.729  10.812 -0.0947 -0.0672  0.1656
 7389ION    NA+11453  10.526   0.151   4.145 -0.1756 -0.0093 -0.0724
 7390ION    CL-11454   9.119   6.372  10.634  0.2691  0.1333 -0.2439
 7391ION    CL-11455   0.863   4.127   0.649  0.0597 -0.1806 -0.0808
 7392ION    CL-11456   6.521   6.938  11.063  0.1042  0.1322 -0.1460
 7393ION    CL-11457   1.012   6.930   8.712  0.3130 -0.2847  0.1203
 7394ION    CL-11458   4.994   8.705   9.991  0.4195 -0.1283 -0.0780
 7395ION    CL-11459   7.746   9.660   8.557 -0.0482 -0.0314  0.2000
 7396ION    CL-11460   5.260   3.075   2.938  0.0358  0.0660 -0.1833
 7397ION    CL-11461   2.700   8.926   2.104 -0.2607  0.0624 -0.1732
 7398ION    CL-11462   5.083   9.634  10.331 -0.0359  0.1420 -0.1459
 7399ION    CL-11463   5.475   3.854   8.828  0.2565  0.0357 -0.0209
 7400ION    CL-11464   1.852   9.461   3.235 -0.3125  0.2374 -0.0594
 7401ION    CL-11465   7.054   6.176   1.125  0.0399  0.0963 -0.2443
 7402ION    CL-11466   8.292   2.654  10.184  0.1758 -0.2061  0.0307
 7403ION    CL-11467   1.016   0.992  11.523  0.1352 -0.4369 -0.0120
 7404ION    CL-11468   6.248   2.390   1.392 -0.1739  0.2745  0.0446
 7405ION    CL-11469   9.256   9.409   9.496 -0.1964  0.2516 -0.0686
 7406ION    CL-11470   0.239   4.959   9.356 -0.2436 -0.1422 -0.1557
 7407ION    CL-11471   9.646   3.321   3.004 -0.1532 -0.2931 -0.2617
 7408ION    CL-11472   3.073   8.778   2.873  0.0784  0.0870 -0.1065
 7409ION    CL-11473  10.594   0.916   1.060  0.2722 -0.1779  0.2141
 7410ION    CL-11474   1.630   5.112   8.908 -0.0933 -0.0011 -0.0853
 7411ION    CL-11475   6.734   6.691  10.156  0.0465  0.3710 -0.0279
 7412ION    CL-11476   2.953   6.273   2.197 -0.1248 -0.2236 -0.1901
 7413ION    CL-11477   8.928   3.599   8.541  0.2595 -0.2794  0.0506
 7414ION    CL-11478   2.778  10.383   0.445 -0.0391  0.2233  0.1798
 7415ION    CL-11479   9.845   3.648   9.553 -0.1439  0.1976  0.2023
 7416ION    CL-11480   5.565   9.003   8.241 -0.0569 -0.1625 -0.2160
 7417ION    CL-11481   1.000   1.819   9.843  0.2233 -0.1338 -0.0062
 7418ION    CL-11482   4.990   3.525   1.354  0.1744  0.0462 -0.0525
 7419ION    CL-11483   8.186  10.086  10.339  0.0948  0.1256  0.1895
 7420ION    CL-11484  10.291   2.304  10.257 -0.0439 -0.3008  0.3064
 7421ION    CL-11485  10.553   8.773   0.273 -0.0428  0.0898  0.5254
 7422ION    CL-11486   5.079   4.654   2.477  0.2607 -0.2790 -0.3235
 7423ION    CL-11487   0.804   7.688   0.078  0.0150  0.1129  0.0699
 7424ION    CL-11488   1.209   0.259   9.136  0.3964 -0.1783  0.2702
 7425ION    CL-11489   1.421   0.758   2.488 -0.1383 -0.1660  0.1816
 7426ION    CL-11490   5.013   4.781  10.372  0.2495 -0.0101  0.0143
 7427ION    CL-11491   7.627   9.623  11.478 -0.0868 -0.1804  0.0193
 7428ION    CL-11492   3.396   7.334   1.393 -0.0901  0.2059 -0.1744
 7429ION    CL-11493   4.337   5.338   3.168 -0.2778  0.0844 -0.0215
 7430ION    CL-11494  10.294   4.516  10.046  0.3328  0.0609 -0.0083
 7431ION    CL-11495   9.883   5.825   8.438 -0.3025 -0.1258  0.2260
 7432ION    CL-11496   6.474   0.488   2.583 -0.0625  0.1151  0.0152
 7433ION    CL-11497   3.104   1.994   3.008  0.0402 -0.4258 -0.3063
 7434ION    CL-11498   6.075   2.276   0.151 -0.0596  0.3774  0.2533
 7435ION    CL-11499   8.422   5.192  11.184  0.3511 -0.0438 -0.1270
 7436ION    CL-11500   5.149   1.783   2.654  0.0775  0.2314 -0.2043
 7437ION    CL-11501   0.490   9.128   8.970  0.2086 -0.1487 -0.2554
 7438ION    CL-11502  10.474   2.537   9.445 -0.0665 -0.2107  0.0483
 7439ION    CL-11503   7.633   5.532   0.154 -0.1374 -0.2849  0.3089
 7440ION    CL-11504   0.323   8.094  10.273 -0.0506 -0.3580 -0.1436
 7441ION    CL-11505   3.805   8.752   8.319  0.0039  0.0437  0.1698
 7442ION    CL-11506   6.289   7.293   2.503 -0.0251  0.0255 -0.2506
 7443ION    CL-11507   5.242   1.317   9.154  0.5024 -0.1439  0.1414
 7444ION    CL-11508  10.220   1.766  10.622 -0.4280  0.0538 -0.1316
 7445ION    CL-11509   7.240   7.638   1.974  0.0254 -0.1473 -0.1017
 7446ION    CL-11510   6.251   3.164   8.648 -0.1793 -0.1896  0.0615
 7447ION    CL-11511   3.526   4.321   8.917  0.1448 -0.2760 -0.1310
 7448ION    CL-11512   3.069   2.141   9.193  0.1747  0.1635  0.0648
 7449ION    CL-11513   4.926   4.601   0.591  0.0564  0.3770 -0.3608
 7450ION    CL-11514   2.408   1.816   8.530  0.0750 -0.2149  0.0371
 7451ION    CL-11515   9.973   8.042   9.609 -0.2715  0.1246 -0.1230
 7452ION    CL-11516   1.016   1.234   7.925 -0.2011  0.0793 -0.1672
 7453ION    CL-11517   1.814   6.403   8.810 -0.3540 -0.3057 -0.6015
 7454ION    CL-11518   5.651   5.897   0.209 -0.0980 -0.1196  0.0099
 7455ION    CL-11519   2.206   9.533   8.447 -0.2673 -0.3314  0.0353
 7456ION    CL-11520   4.299  10.119   2.774 -0.1043  0.0157 -0.1359
 7457ION    CL-11521   3.442   2.611   8.092  0.1606 -0.1372 -0.0732
 7458ION    CL-11522   5.009   3.621   8.737 -0.1686 -0.1894 -0.1638
 7459ION    CL-11523   4.607   8.996   1.777  0.2135  0.2827  0.3360
 7460ION    CL-11524   4.558   8.461  11.364  0.1876 -0.1766 -0.0583
 7461ION    CL-11525   2.023   7.812   3.519 -0.2338  0.0469 -0.2314
 7462ION    CL-11526   6.487   6.052   1.842  0.3093 -0.0377  0.1529
 7463ION    CL-11527   2.124   3.635   9.836  0.1597 -0.1396  0.0568
 7464ION    CL-11528   0.078   7.931   8.073 -0.3010  0.2102 -0.0479
 7465ION    CL-11529   6.890   5.576   9.814  0.4570  0.1809  0.1908
 7466ION    CL-11530   8.101   3.121   1.832  0.3634 -0.0874  0.0893
  10.66970  10.66970  11.52681
