[ moleculetype ]
; Name            nrexcl
AU                  1

[ atoms ]
;   nr       type  resnr residue  atom    cgnr     charge       mass
     1        P5     1    AU   AUC        1         0          784
     2        P5     1    AU   AUC        2         0          784
     3        P5     1    AU   AUC        3         0          784
     4        P5     1    AU   AUC        4         0          784
     5        P5     1    AU   AUC        5         0          784
     6        P5     1    AU   AUC        6         0          784
     7        P5     1    AU   AUC        7         0          784
     8        P5     1    AU   AUC        8         0          784
     9        P5     1    AU   AUC        9         0          784
    10        P5     1    AU   AUC       10         0          784
    11        P5     1    AU   AUC       11         0          784
    12        P5     1    AU   AUC       12         0          784
    13        P5     1    AU   AUC       13         0          784
    14        P5     1    AU   AUC       14         0          784
    15        P5     1    AU   AUC       15         0          784
    16        P5     1    AU   AUC       16         0          784
    17        P5     1    AU   AUC       17         0          784
    18        P5     1    AU   AUC       18         0          784
    19        P5     1    AU   AUC       19         0          784
    20        P5     1    AU   AUC       20         0          784
    21        P5     1    AU   AUC       21         0          784
    22        P5     1    AU   AUC       22         0          784
    23        P5     1    AU   AUC       23         0          784
    24        P5     1    AU   AUC       24         0          784
    25        P5     1    AU   AUC       25         0          784
    26        P5     1    AU   AUC       26         0          784
    27        P5     1    AU   AUC       27         0          784
    28        P5     1    AU   AUC       28         0          784
    29        P5     1    AU   AUC       29         0          784
    30        P5     1    AU   AUC       30         0          784
    31        P5     1    AU   AUC       31         0          784
    32        P5     1    AU   AUC       32         0          784
    33        P5     1    AU   AUC       33         0          784
    34        P5     1    AU   AUC       34         0          784
    35        P5     1    AU   AUC       35         0          784
    36        P5     1    AU   AUC       36         0          784
    37        P5     1    AU   AUC       37         0          784
    38        P5     1    AU   AUC       38         0          784
    39        P5     1    AU   AUC       39         0          784
    40        P5     1    AU   AUC       40         0          784
    41        P5     1    AU   AUC       41         0          784
    42        P5     1    AU   AUC       42         0          784
    43        P5     1    AU   AUC       43         0          784
    44        P5     1    AU   AUC       44         0          784
    45        P5     1    AU   AUC       45         0          784
    46        P5     1    AU   AUC       46         0          784
    47        P5     1    AU   AUC       47         0          784
    48        P5     1    AU   AUC       48         0          784
    49        P5     1    AU   AUC       49         0          784
    50        P5     1    AU   AUC       50         0          784
    51        P5     1    AU   AUC       51         0          784
    52        P5     1    AU   AUC       52         0          784
    53        P5     1    AU   AUC       53         0          784
    54        P5     1    AU   AUC       54         0          784
    55        P5     1    AU   AUC       55         0          784
    56        P5     1    AU   AUSL      56         0          784
    57        P5     1    AU   AUSL      57         0          784
    58        P5     1    AU   AUL       58         0          784
    59        N0     1    AU   S         59         0           46
    60        C1     1    AU   LIG       60         0           56
    61        C1     1    AU   LIG       61         0           56
    62        C1     1    AU   LIG       62         0           56
    63        N0     1    AU   S         63         0           46
    64        C1     1    AU   LIG       64         0           56
    65        C1     1    AU   LIG       65         0           56
    66        C1     1    AU   LIG       66         0           56
    67        P5     1    AU   AUSL      67         0          784
    68        P5     1    AU   AUSL      68         0          784
    69        P5     1    AU   AUL       69         0          784
    70        N0     1    AU   S         70         0           46
    71        C1     1    AU   LIG       71         0           56
    72        C1     1    AU   LIG       72         0           56
    73        C1     1    AU   LIG       73         0           56
    74        N0     1    AU   S         74         0           46
    75        C1     1    AU   LIG       75         0           56
    76        C1     1    AU   LIG       76         0           56
    77        C1     1    AU   LIG       77         0           56
    78        P5     1    AU   AUSL      78         0          784
    79        P5     1    AU   AUSL      79         0          784
    80        P5     1    AU   AUL       80         0          784
    81        N0     1    AU   S         81         0           46
    82        C1     1    AU   LIG       82         0           56
    83        C1     1    AU   LIG       83         0           56
    84        C1     1    AU   LIG       84         0           56
    85        N0     1    AU   S         85         0           46
    86        C1     1    AU   LIG       86         0           56
    87        C1     1    AU   LIG       87         0           56
    88        C1     1    AU   LIG       88         0           56
    89        P5     1    AU   AUSL      89         0          784
    90        P5     1    AU   AUSL      90         0          784
    91        P5     1    AU   AUL       91         0          784
    92        N0     1    AU   S         92         0           46
    93        C1     1    AU   LIG       93         0           56
    94        C1     1    AU   LIG       94         0           56
    95        C1     1    AU   LIG       95         0           56
    96        N0     1    AU   S         96         0           46
    97        C1     1    AU   LIG       97         0           56
    98        C1     1    AU   LIG       98         0           56
    99        C1     1    AU   LIG       99         0           56
   100        P5     1    AU   AUSL     100         0          784
   101        P5     1    AU   AUSL     101         0          784
   102        P5     1    AU   AUL      102         0          784
   103        N0     1    AU   S        103         0           46
   104        C1     1    AU   LIG      104         0           56
   105        C1     1    AU   LIG      105         0           56
   106        C1     1    AU   LIG      106         0           56
   107        N0     1    AU   S        107         0           46
   108        C1     1    AU   LIG      108         0           56
   109        C1     1    AU   LIG      109         0           56
   110        C1     1    AU   LIG      110         0           56
   111        P5     1    AU   AUSL     111         0          784
   112        P5     1    AU   AUSL     112         0          784
   113        P5     1    AU   AUL      113         0          784
   114        N0     1    AU   S        114         0           46
   115        C1     1    AU   LIG      115         0           56
   116        C1     1    AU   LIG      116         0           56
   117        C1     1    AU   LIG      117         0           56
   118        N0     1    AU   S        118         0           46
   119        C1     1    AU   LIG      119         0           56
   120        C1     1    AU   LIG      120         0           56
   121        C1     1    AU   LIG      121         0           56
   122        P5     1    AU   AUSL     122         0          784
   123        P5     1    AU   AUSL     123         0          784
   124        P5     1    AU   AUL      124         0          784
   125        N0     1    AU   S        125         0           46
   126        C1     1    AU   LIG      126         0           56
   127        C1     1    AU   LIG      127         0           56
   128        C1     1    AU   LIG      128         0           56
   129        N0     1    AU   S        129         0           46
   130        C1     1    AU   LIG      130         0           56
   131        C1     1    AU   LIG      131         0           56
   132        C1     1    AU   LIG      132         0           56
   133        P5     1    AU   AUSL     133         0          784
   134        P5     1    AU   AUSL     134         0          784
   135        P5     1    AU   AUL      135         0          784
   136        N0     1    AU   S        136         0           46
   137        C1     1    AU   LIG      137         0           56
   138        C1     1    AU   LIG      138         0           56
   139        C1     1    AU   LIG      139         0           56
   140        N0     1    AU   S        140         0           46
   141        C1     1    AU   LIG      141         0           56
   142        C1     1    AU   LIG      142         0           56
   143        C1     1    AU   LIG      143         0           56
   144        P5     1    AU   AUSL     144         0          784
   145        P5     1    AU   AUSL     145         0          784
   146        P5     1    AU   AUL      146         0          784
   147        N0     1    AU   S        147         0           46
   148        C1     1    AU   LIG      148         0           56
   149        C1     1    AU   LIG      149         0           56
   150        C1     1    AU   LIG      150         0           56
   151        N0     1    AU   S        151         0           46
   152        C1     1    AU   LIG      152         0           56
   153        C1     1    AU   LIG      153         0           56
   154        C1     1    AU   LIG      154         0           56
   155        P5     1    AU   AUSL     155         0          784
   156        P5     1    AU   AUSL     156         0          784
   157        P5     1    AU   AUL      157         0          784
   158        N0     1    AU   S        158         0           46
   159        C1     1    AU   LIG      159         0           56
   160        C1     1    AU   LIG      160         0           56
   161        C1     1    AU   LIG      161         0           56
   162        N0     1    AU   S        162         0           46
   163        C1     1    AU   LIG      163         0           56
   164        C1     1    AU   LIG      164         0           56
   165        C1     1    AU   LIG      165         0           56
   166        P5     1    AU   AUSL     166         0          784
   167        P5     1    AU   AUSL     167         0          784
   168        P5     1    AU   AUL      168         0          784
   169        N0     1    AU   S        169         0           46
   170        C1     1    AU   LIG      170         0           56
   171        C1     1    AU   LIG      171         0           56
   172        C1     1    AU   LIG      172         0           56
   173        N0     1    AU   S        173         0           46
   174        C1     1    AU   LIG      174         0           56
   175        C1     1    AU   LIG      175         0           56
   176        C1     1    AU   LIG      176         0           56
   177        P5     1    AU   AUSL     177         0          784
   178        P5     1    AU   AUSL     178         0          784
   179        P5     1    AU   AUL      179         0          784
   180        N0     1    AU   S        180         0           46
   181        C1     1    AU   LIG      181         0           56
   182        C1     1    AU   LIG      182         0           56
   183        C1     1    AU   LIG      183         0           56
   184        N0     1    AU   S        184         0           46
   185        C1     1    AU   LIG      185         0           56
   186        C1     1    AU   LIG      186         0           56
   187        C1     1    AU   LIG      187         0           56
   188        P5     1    AU   AUSL     188         0          784
   189        P5     1    AU   AUSL     189         0          784
   190        P5     1    AU   AUL      190         0          784
   191        N0     1    AU   S        191         0           46
   192        C1     1    AU   LIG      192         0           56
   193        C1     1    AU   LIG      193         0           56
   194        C1     1    AU   LIG      194         0           56
   195        N0     1    AU   S        195         0           46
   196        C1     1    AU   LIG      196         0           56
   197        C1     1    AU   LIG      197         0           56
   198        C1     1    AU   LIG      198         0           56
   199        P5     1    AU   AUSL     199         0          784
   200        P5     1    AU   AUSL     200         0          784
   201        P5     1    AU   AUL      201         0          784
   202        N0     1    AU   S        202         0           46
   203        C1     1    AU   LIG      203         0           56
   204        C1     1    AU   LIG      204         0           56
   205        C1     1    AU   LIG      205         0           56
   206        N0     1    AU   S        206         0           46
   207        C1     1    AU   LIG      207         0           56
   208        C1     1    AU   LIG      208         0           56
   209        C1     1    AU   LIG      209         0           56
   210        P5     1    AU   AUSL     210         0          784
   211        P5     1    AU   AUSL     211         0          784
   212        P5     1    AU   AUL      212         0          784
   213        N0     1    AU   S        213         0           46
   214        C1     1    AU   LIG      214         0           56
   215        C1     1    AU   LIG      215         0           56
   216        C1     1    AU   LIG      216         0           56
   217        N0     1    AU   S        217         0           46
   218        C1     1    AU   LIG      218         0           56
   219        C1     1    AU   LIG      219         0           56
   220        C1     1    AU   LIG      220         0           56
   221        P5     1    AU   AUSL     221         0          784
   222        P5     1    AU   AUSL     222         0          784
   223        P5     1    AU   AUL      223         0          784
   224        N0     1    AU   S        224         0           46
   225        C1     1    AU   LIG      225         0           56
   226        C1     1    AU   LIG      226         0           56
   227        C1     1    AU   LIG      227         0           56
   228        N0     1    AU   S        228         0           46
   229        C1     1    AU   LIG      229         0           56
   230        C1     1    AU   LIG      230         0           56
   231        C1     1    AU   LIG      231         0           56
   232        P5     1    AU   AUSL     232         0          784
   233        P5     1    AU   AUSL     233         0          784
   234        P5     1    AU   AUL      234         0          784
   235        N0     1    AU   S        235         0           46
   236        C1     1    AU   LIG      236         0           56
   237        C1     1    AU   LIG      237         0           56
   238        C1     1    AU   LIG      238         0           56
   239        N0     1    AU   S        239         0           46
   240        C1     1    AU   LIG      240         0           56
   241        C1     1    AU   LIG      241         0           56
   242        C1     1    AU   LIG      242         0           56
   243        P5     1    AU   AUSL     243         0          784
   244        P5     1    AU   AUSL     244         0          784
   245        P5     1    AU   AUL      245         0          784
   246        N0     1    AU   S        246         0           46
   247        C1     1    AU   LIG      247         0           56
   248        C1     1    AU   LIG      248         0           56
   249        C1     1    AU   LIG      249         0           56
   250        N0     1    AU   S        250         0           46
   251        C1     1    AU   LIG      251         0           56
   252        C1     1    AU   LIG      252         0           56
   253        C1     1    AU   LIG      253         0           56
   254        P5     1    AU   AUSL     254         0          784
   255        P5     1    AU   AUSL     255         0          784
   256        P5     1    AU   AUL      256         0          784
   257        N0     1    AU   S        257         0           46
   258        C1     1    AU   LIG      258         0           56
   259        C1     1    AU   LIG      259         0           56
   260        C1     1    AU   LIG      260         0           56
   261        N0     1    AU   S        261         0           46
   262        C1     1    AU   LIG      262         0           56
   263        C1     1    AU   LIG      263         0           56
   264        C1     1    AU   LIG      264         0           56
   265        P5     1    AU   AUSL     265         0          784
   266        P5     1    AU   AUSL     266         0          784
   267        P5     1    AU   AUL      267         0          784
   268        N0     1    AU   S        268         0           46
   269        C1     1    AU   LIG      269         0           56
   270        C1     1    AU   LIG      270         0           56
   271        C1     1    AU   LIG      271         0           56
   272        N0     1    AU   S        272         0           46
   273        C1     1    AU   LIG      273         0           56
   274        C1     1    AU   LIG      274         0           56
   275        C1     1    AU   LIG      275         0           56
   276        P5     1    AU   AUSL     276         0          784
   277        P5     1    AU   AUSL     277         0          784
   278        P5     1    AU   AUL      278         0          784
   279        N0     1    AU   S        279         0           46
   280        C1     1    AU   LIG      280         0           56
   281        C1     1    AU   LIG      281         0           56
   282        C1     1    AU   LIG      282         0           56
   283        N0     1    AU   S        283         0           46
   284        C1     1    AU   LIG      284         0           56
   285        C1     1    AU   LIG      285         0           56
   286        C1     1    AU   LIG      286         0           56
   287        P5     1    AU   AUSL     287         0          784
   288        P5     1    AU   AUSL     288         0          784
   289        P5     1    AU   AUL      289         0          784
   290        N0     1    AU   S        290         0           46
   291        C1     1    AU   LIG      291         0           56
   292        C1     1    AU   LIG      292         0           56
   293        C1     1    AU   LIG      293         0           56
   294        N0     1    AU   S        294         0           46
   295        C1     1    AU   LIG      295         0           56
   296        C1     1    AU   LIG      296         0           56
   297        C1     1    AU   LIG      297         0           56
   298        P5     1    AU   AUSL     298         0          784
   299        P5     1    AU   AUSL     299         0          784
   300        P5     1    AU   AUL      300         0          784
   301        N0     1    AU   S        301         0           46
   302        C1     1    AU   LIG      302         0           56
   303        C1     1    AU   LIG      303         0           56
   304        C1     1    AU   LIG      304         0           56
   305        N0     1    AU   S        305         0           46
   306        C1     1    AU   LIG      306         0           56
   307        C1     1    AU   LIG      307         0           56
   308        C1     1    AU   LIG      308         0           56
   309        P5     1    AU   AUSL     309         0          784
   310        P5     1    AU   AUSL     310         0          784
   311        P5     1    AU   AUL      311         0          784
   312        N0     1    AU   S        312         0           46
   313        C1     1    AU   LIG      313         0           56
   314        C1     1    AU   LIG      314         0           56
   315        C1     1    AU   LIG      315         0           56
   316        N0     1    AU   S        316         0           46
   317        C1     1    AU   LIG      317         0           56
   318        C1     1    AU   LIG      318         0           56
   319        C1     1    AU   LIG      319         0           56
   320        P5     1    AU   AUSL     320         0          784
   321        P5     1    AU   AUSL     321         0          784
   322        P5     1    AU   AUL      322         0          784
   323        N0     1    AU   S        323         0           46
   324        C1     1    AU   LIG      324         0           56
   325        C1     1    AU   LIG      325         0           56
   326        C1     1    AU   LIG      326         0           56
   327        N0     1    AU   S        327         0           46
   328        C1     1    AU   LIG      328         0           56
   329        C1     1    AU   LIG      329         0           56
   330        C1     1    AU   LIG      330         0           56
   331        P5     1    AU   AUSL     331         0          784
   332        P5     1    AU   AUSL     332         0          784
   333        P5     1    AU   AUL      333         0          784
   334        N0     1    AU   S        334         0           46
   335        C1     1    AU   LIG      335         0           56
   336        C1     1    AU   LIG      336         0           56
   337        C1     1    AU   LIG      337         0           56
   338        N0     1    AU   S        338         0           46
   339        C1     1    AU   LIG      339         0           56
   340        C1     1    AU   LIG      340         0           56
   341        C1     1    AU   LIG      341         0           56
   342        P5     1    AU   AUSL     342         0          784
   343        P5     1    AU   AUSL     343         0          784
   344        P5     1    AU   AUL      344         0          784
   345        N0     1    AU   S        345         0           46
   346        C1     1    AU   LIG      346         0           56
   347        C1     1    AU   LIG      347         0           56
   348        C1     1    AU   LIG      348         0           56
   349        N0     1    AU   S        349         0           46
   350        C1     1    AU   LIG      350         0           56
   351        C1     1    AU   LIG      351         0           56
   352        C1     1    AU   LIG      352         0           56
   353        P5     1    AU   AUSL     353         0          784
   354        P5     1    AU   AUSL     354         0          784
   355        P5     1    AU   AUL      355         0          784
   356        N0     1    AU   S        356         0           46
   357        C1     1    AU   LIG      357         0           56
   358        C1     1    AU   LIG      358         0           56
   359        C1     1    AU   LIG      359         0           56
   360        N0     1    AU   S        360         0           46
   361        C1     1    AU   LIG      361         0           56
   362        C1     1    AU   LIG      362         0           56
   363        C1     1    AU   LIG      363         0           56
   364        P5     1    AU   AUSL     364         0          784
   365        P5     1    AU   AUSL     365         0          784
   366        P5     1    AU   AUL      366         0          784
   367        N0     1    AU   S        367         0           46
   368        C1     1    AU   LIG      368         0           56
   369        C1     1    AU   LIG      369         0           56
   370        C1     1    AU   LIG      370         0           56
   371        N0     1    AU   S        371         0           46
   372        C1     1    AU   LIG      372         0           56
   373        C1     1    AU   LIG      373         0           56
   374        C1     1    AU   LIG      374         0           56
   375        P5     1    AU   AUSL     375         0          784
   376        P5     1    AU   AUSL     376         0          784
   377        P5     1    AU   AUL      377         0          784
   378        N0     1    AU   S        378         0           46
   379        C1     1    AU   LIG      379         0           56
   380        C1     1    AU   LIG      380         0           56
   381        C1     1    AU   LIG      381         0           56
   382        N0     1    AU   S        382         0           46
   383        C1     1    AU   LIG      383         0           56
   384        C1     1    AU   LIG      384         0           56
   385        C1     1    AU   LIG      385         0           56

 [ bonds ]
;         i           j    funct      length   force_k
         1          2      1           0.288 3500
         1          3      1           0.288 3500
         1          4      1           0.289 3500
         1          5      1           0.289 3500
         1          6      1           0.288 3500
         1          7      1           0.288 3500
         1          8      1           0.289 3500
         1          9      1           0.289 3500
         1         10      1           0.288 3500
         1         11      1           0.288 3500
         1         12      1           0.288 3500
         1         13      1           0.288 3500
         1         15      1           0.491 3500
         1         18      1           0.491 3500
         1         21      1           0.490 3500
         1         24      1           0.491 3500
         1         27      1           0.491 3500
         1         30      1           0.491 3500
         1         32      1           0.491 3500
         1         33      1           0.490 3500
         1         34      1           0.491 3500
         1         35      1           0.490 3500
         1         36      1           0.491 3500
         1         37      1           0.491 3500
         1         38      1           0.491 3500
         1         39      1           0.491 3500
         1         40      1           0.491 3500
         1         41      1           0.491 3500
         1         42      1           0.491 3500
         1         43      1           0.491 3500
         1         44      1           0.491 3500
         1         45      1           0.491 3500
         1         46      1           0.491 3500
         1         47      1           0.491 3500
         1         48      1           0.491 3500
         1         49      1           0.491 3500
         1         50      1           0.491 3500
         1         51      1           0.491 3500
         1         52      1           0.491 3500
         1         53      1           0.491 3500
         1         54      1           0.491 3500
         1         55      1           0.491 3500
         2          3      1           0.304 3500
         2          4      1           0.491 3500
         2          6      1           0.491 3500
         2          7      1           0.303 3500
         2          8      1           0.491 3500
         2          9      1           0.304 3500
         2         10      1           0.491 3500
         2         11      1           0.490 3500
         2         12      1           0.303 3500
         2         13      1           0.302 3500
         2         14      1           0.289 3500
         2         15      1           0.289 3500
         2         30      1           0.418 3500
         2         34      1           0.288 3500
         2         35      1           0.288 3500
         2         40      1           0.288 3500
         2         41      1           0.419 3500
         2         44      1           0.289 3500
         2         45      1           0.420 3500
         2         53      1           0.418 3500
         2         55      1           0.418 3500
         2         89      1           0.458 5000
         2        101      1           0.458 5000
         2        167      1           0.458 5000
         2        177      1           0.459 5000
         2        243      1           0.459 5000
         3          5      1           0.491 3500
         3          6      1           0.491 3500
         3          7      1           0.303 3500
         3          8      1           0.491 3500
         3          9      1           0.304 3500
         3         10      1           0.303 3500
         3         11      1           0.302 3500
         3         12      1           0.491 3500
         3         13      1           0.490 3500
         3         15      1           0.289 3500
         3         16      1           0.289 3500
         3         27      1           0.418 3500
         3         32      1           0.288 3500
         3         33      1           0.288 3500
         3         40      1           0.419 3500
         3         41      1           0.288 3500
         3         44      1           0.420 3500
         3         45      1           0.289 3500
         3         49      1           0.418 3500
         3         51      1           0.418 3500
         3         56      1           0.458 5000
         3         79      1           0.458 5000
         3        178      1           0.459 5000
         3        188      1           0.459 5000
         3        233      1           0.458 5000
         4          5      1           0.304 3500
         4          6      1           0.303 3500
         4          7      1           0.491 3500
         4          8      1           0.304 3500
         4          9      1           0.492 3500
         4         10      1           0.491 3500
         4         11      1           0.491 3500
         4         12      1           0.304 3500
         4         13      1           0.303 3500
         4         17      1           0.288 3500
         4         18      1           0.288 3500
         4         30      1           0.419 3500
         4         38      1           0.288 3500
         4         39      1           0.288 3500
         4         42      1           0.288 3500
         4         43      1           0.419 3500
         4         46      1           0.289 3500
         4         47      1           0.419 3500
         4         52      1           0.418 3500
         4         54      1           0.418 3500
         4        144      1           0.458 5000
         4        156      1           0.457 5000
         4        210      1           0.458 5000
         4        222      1           0.458 5000
         4        255      1           0.458 5000
         5          6      1           0.303 3500
         5          7      1           0.491 3500
         5          8      1           0.304 3500
         5          9      1           0.492 3500
         5         10      1           0.304 3500
         5         11      1           0.303 3500
         5         12      1           0.491 3500
         5         13      1           0.491 3500
         5         18      1           0.288 3500
         5         19      1           0.288 3500
         5         27      1           0.419 3500
         5         36      1           0.288 3500
         5         37      1           0.288 3500
         5         42      1           0.419 3500
         5         43      1           0.288 3500
         5         46      1           0.419 3500
         5         47      1           0.289 3500
         5         48      1           0.418 3500
         5         50      1           0.418 3500
         5        122      1           0.458 5000
         5        134      1           0.458 5000
         5        200      1           0.457 5000
         5        221      1           0.458 5000
         5        265      1           0.458 5000
         6          7      1           0.304 3500
         6          8      1           0.491 3500
         6         10      1           0.491 3500
         6         11      1           0.303 3500
         6         12      1           0.491 3500
         6         13      1           0.303 3500
         6         18      1           0.418 3500
         6         20      1           0.288 3500
         6         21      1           0.288 3500
         6         37      1           0.419 3500
         6         39      1           0.419 3500
         6         42      1           0.288 3500
         6         43      1           0.288 3500
         6         48      1           0.288 3500
         6         49      1           0.419 3500
         6         52      1           0.288 3500
         6         53      1           0.419 3500
         6        199      1           0.458 5000
         6        211      1           0.459 5000
         6        277      1           0.459 5000
         6        287      1           0.458 5000
         6        353      1           0.458 5000
         7          9      1           0.491 3500
         7         10      1           0.491 3500
         7         11      1           0.303 3500
         7         12      1           0.491 3500
         7         13      1           0.303 3500
         7         15      1           0.418 3500
         7         21      1           0.288 3500
         7         22      1           0.288 3500
         7         33      1           0.418 3500
         7         35      1           0.418 3500
         7         40      1           0.288 3500
         7         41      1           0.288 3500
         7         48      1           0.419 3500
         7         49      1           0.288 3500
         7         52      1           0.419 3500
         7         53      1           0.288 3500
         7        166      1           0.458 5000
         7        189      1           0.458 5000
         7        288      1           0.458 5000
         7        298      1           0.458 5000
         7        343      1           0.458 5000
         8          9      1           0.304 3500
         8         10      1           0.303 3500
         8         11      1           0.491 3500
         8         12      1           0.303 3500
         8         13      1           0.491 3500
         8         18      1           0.419 3500
         8         23      1           0.288 3500
         8         24      1           0.288 3500
         8         36      1           0.419 3500
         8         38      1           0.419 3500
         8         46      1           0.288 3500
         8         47      1           0.288 3500
         8         50      1           0.288 3500
         8         51      1           0.419 3500
         8         54      1           0.288 3500
         8         55      1           0.419 3500
         8        254      1           0.458 5000
         8        266      1           0.459 5000
         8        320      1           0.458 5000
         8        332      1           0.458 5000
         8        365      1           0.459 5000
         9         10      1           0.303 3500
         9         11      1           0.491 3500
         9         12      1           0.303 3500
         9         13      1           0.491 3500
         9         15      1           0.419 3500
         9         24      1           0.288 3500
         9         25      1           0.288 3500
         9         32      1           0.418 3500
         9         34      1           0.418 3500
         9         44      1           0.288 3500
         9         45      1           0.288 3500
         9         50      1           0.419 3500
         9         51      1           0.288 3500
         9         54      1           0.419 3500
         9         55      1           0.288 3500
         9        232      1           0.458 5000
         9        244      1           0.458 5000
         9        310      1           0.458 5000
         9        331      1           0.458 5000
         9        375      1           0.458 5000
        10         11      1           0.303 3500
        10         12      1           0.490 3500
        10         24      1           0.418 3500
        10         26      1           0.289 3500
        10         27      1           0.289 3500
        10         32      1           0.288 3500
        10         33      1           0.418 3500
        10         36      1           0.289 3500
        10         37      1           0.419 3500
        10         45      1           0.418 3500
        10         47      1           0.418 3500
        10         50      1           0.288 3500
        10         51      1           0.288 3500
        10         57      1           0.459 5000
        10         67      1           0.459 5000
        10        133      1           0.459 5000
        10        309      1           0.458 5000
        10        321      1           0.459 5000
        11         13      1           0.490 3500
        11         21      1           0.418 3500
        11         27      1           0.289 3500
        11         28      1           0.289 3500
        11         32      1           0.418 3500
        11         33      1           0.288 3500
        11         36      1           0.419 3500
        11         37      1           0.289 3500
        11         41      1           0.418 3500
        11         43      1           0.418 3500
        11         48      1           0.289 3500
        11         49      1           0.289 3500
        11         68      1           0.459 5000
        11         78      1           0.459 5000
        11        123      1           0.459 5000
        11        276      1           0.459 5000
        11        299      1           0.459 5000
        12         13      1           0.303 3500
        12         24      1           0.418 3500
        12         29      1           0.289 3500
        12         30      1           0.289 3500
        12         34      1           0.288 3500
        12         35      1           0.418 3500
        12         38      1           0.289 3500
        12         39      1           0.419 3500
        12         44      1           0.418 3500
        12         46      1           0.418 3500
        12         54      1           0.288 3500
        12         55      1           0.288 3500
        12        100      1           0.459 5000
        12        112      1           0.459 5000
        12        145      1           0.459 5000
        12        364      1           0.458 5000
        12        376      1           0.459 5000
        13         21      1           0.418 3500
        13         30      1           0.289 3500
        13         31      1           0.289 3500
        13         34      1           0.418 3500
        13         35      1           0.288 3500
        13         38      1           0.419 3500
        13         39      1           0.289 3500
        13         40      1           0.418 3500
        13         42      1           0.418 3500
        13         52      1           0.289 3500
        13         53      1           0.289 3500
        13         90      1           0.459 5000
        13        111      1           0.459 5000
        13        155      1           0.459 5000
        13        342      1           0.459 5000
        13        354      1           0.459 5000
        14         15      1           0.303 3500
        14         34      1           0.304 3500
        14         35      1           0.304 3500
        14         40      1           0.303 3500
        14         44      1           0.304 3500
        14         89      1           0.289 5000
        14        101      1           0.289 5000
        14        167      1           0.288 5000
        14        177      1           0.288 5000
        14        243      1           0.288 5000
        15         16      1           0.303 3500
        15         32      1           0.491 3500
        15         33      1           0.491 3500
        15         34      1           0.491 3500
        15         35      1           0.491 3500
        15         40      1           0.303 3500
        15         41      1           0.303 3500
        15         44      1           0.304 3500
        15         45      1           0.304 3500
        15         79      1           0.493 5000
        15        101      1           0.494 5000
        15        166      1           0.419 5000
        15        167      1           0.493 5000
        15        177      1           0.288 5000
        15        178      1           0.289 5000
        15        188      1           0.288 5000
        15        232      1           0.419 5000
        15        233      1           0.494 5000
        15        243      1           0.289 5000
        16         32      1           0.304 3500
        16         33      1           0.304 3500
        16         41      1           0.303 3500
        16         45      1           0.304 3500
        16         56      1           0.289 5000
        16         79      1           0.288 5000
        16        178      1           0.288 5000
        16        188      1           0.288 5000
        16        233      1           0.289 5000
        17         18      1           0.303 3500
        17         38      1           0.303 3500
        17         39      1           0.303 3500
        17         42      1           0.303 3500
        17         46      1           0.304 3500
        17        144      1           0.289 5000
        17        156      1           0.288 5000
        17        210      1           0.288 5000
        17        222      1           0.288 5000
        17        255      1           0.289 5000
        18         19      1           0.303 3500
        18         36      1           0.491 3500
        18         37      1           0.490 3500
        18         38      1           0.491 3500
        18         39      1           0.490 3500
        18         42      1           0.303 3500
        18         43      1           0.303 3500
        18         46      1           0.304 3500
        18         47      1           0.304 3500
        18        134      1           0.494 5000
        18        156      1           0.493 5000
        18        199      1           0.419 5000
        18        200      1           0.493 5000
        18        210      1           0.288 5000
        18        221      1           0.288 5000
        18        222      1           0.289 5000
        18        254      1           0.419 5000
        18        255      1           0.494 5000
        18        265      1           0.289 5000
        19         36      1           0.303 3500
        19         37      1           0.303 3500
        19         43      1           0.303 3500
        19         47      1           0.304 3500
        19        122      1           0.289 5000
        19        134      1           0.289 5000
        19        200      1           0.288 5000
        19        221      1           0.288 5000
        19        265      1           0.288 5000
        20         21      1           0.304 3500
        20         42      1           0.303 3500
        20         43      1           0.303 3500
        20         48      1           0.303 3500
        20         52      1           0.303 3500
        20        199      1           0.288 5000
        20        211      1           0.289 5000
        20        277      1           0.289 5000
        20        287      1           0.289 5000
        20        353      1           0.289 5000
        21         22      1           0.303 3500
        21         40      1           0.491 3500
        21         41      1           0.491 3500
        21         42      1           0.491 3500
        21         43      1           0.491 3500
        21         48      1           0.303 3500
        21         49      1           0.303 3500
        21         52      1           0.303 3500
        21         53      1           0.303 3500
        21        189      1           0.494 5000
        21        211      1           0.494 5000
        21        276      1           0.419 5000
        21        277      1           0.494 5000
        21        287      1           0.289 5000
        21        288      1           0.289 5000
        21        298      1           0.289 5000
        21        342      1           0.419 5000
        21        343      1           0.494 5000
        21        353      1           0.289 5000
        22         40      1           0.303 3500
        22         41      1           0.303 3500
        22         49      1           0.302 3500
        22         53      1           0.302 3500
        22        166      1           0.289 5000
        22        189      1           0.289 5000
        22        288      1           0.288 5000
        22        298      1           0.288 5000
        22        343      1           0.289 5000
        23         24      1           0.304 3500
        23         46      1           0.303 3500
        23         47      1           0.303 3500
        23         50      1           0.303 3500
        23         54      1           0.303 3500
        23        254      1           0.288 5000
        23        266      1           0.289 5000
        23        320      1           0.289 5000
        23        332      1           0.289 5000
        23        365      1           0.289 5000
        24         25      1           0.303 3500
        24         44      1           0.491 3500
        24         45      1           0.491 3500
        24         46      1           0.491 3500
        24         47      1           0.491 3500
        24         50      1           0.303 3500
        24         51      1           0.303 3500
        24         54      1           0.303 3500
        24         55      1           0.303 3500
        24        244      1           0.494 5000
        24        266      1           0.494 5000
        24        309      1           0.419 5000
        24        310      1           0.494 5000
        24        320      1           0.289 5000
        24        331      1           0.289 5000
        24        332      1           0.289 5000
        24        364      1           0.419 5000
        24        365      1           0.494 5000
        24        375      1           0.289 5000
        25         44      1           0.303 3500
        25         45      1           0.303 3500
        25         51      1           0.303 3500
        25         55      1           0.303 3500
        25        232      1           0.289 5000
        25        244      1           0.289 5000
        25        310      1           0.289 5000
        25        331      1           0.288 5000
        25        375      1           0.288 5000
        26         27      1           0.304 3500
        26         32      1           0.303 3500
        26         36      1           0.304 3500
        26         50      1           0.304 3500
        26         51      1           0.304 3500
        26         57      1           0.289 5000
        26         67      1           0.288 5000
        26        133      1           0.289 5000
        26        309      1           0.288 5000
        26        321      1           0.289 5000
        27         28      1           0.303 3500
        27         32      1           0.303 3500
        27         33      1           0.303 3500
        27         36      1           0.304 3500
        27         37      1           0.304 3500
        27         48      1           0.491 3500
        27         49      1           0.491 3500
        27         50      1           0.491 3500
        27         51      1           0.491 3500
        27         56      1           0.419 5000
        27         57      1           0.494 5000
        27         67      1           0.288 5000
        27         68      1           0.288 5000
        27         78      1           0.288 5000
        27        122      1           0.419 5000
        27        123      1           0.494 5000
        27        133      1           0.289 5000
        27        299      1           0.494 5000
        27        321      1           0.494 5000
        28         33      1           0.303 3500
        28         37      1           0.304 3500
        28         48      1           0.304 3500
        28         49      1           0.304 3500
        28         68      1           0.289 5000
        28         78      1           0.288 5000
        28        123      1           0.289 5000
        28        276      1           0.289 5000
        28        299      1           0.289 5000
        29         30      1           0.304 3500
        29         34      1           0.303 3500
        29         38      1           0.304 3500
        29         54      1           0.304 3500
        29         55      1           0.304 3500
        29        100      1           0.288 5000
        29        112      1           0.289 5000
        29        145      1           0.289 5000
        29        364      1           0.288 5000
        29        376      1           0.289 5000
        30         31      1           0.303 3500
        30         34      1           0.303 3500
        30         35      1           0.303 3500
        30         38      1           0.304 3500
        30         39      1           0.304 3500
        30         52      1           0.491 3500
        30         53      1           0.491 3500
        30         54      1           0.491 3500
        30         55      1           0.491 3500
        30         89      1           0.419 5000
        30         90      1           0.494 5000
        30        100      1           0.288 5000
        30        111      1           0.288 5000
        30        112      1           0.289 5000
        30        144      1           0.419 5000
        30        145      1           0.494 5000
        30        155      1           0.288 5000
        30        354      1           0.494 5000
        30        376      1           0.494 5000
        31         35      1           0.303 3500
        31         39      1           0.304 3500
        31         52      1           0.304 3500
        31         53      1           0.304 3500
        31         90      1           0.289 5000
        31        111      1           0.288 5000
        31        155      1           0.289 5000
        31        342      1           0.289 5000
        31        354      1           0.289 5000
        32         33      1           0.303 3500
        32         36      1           0.491 3500
        32         41      1           0.491 3500
        32         45      1           0.303 3500
        32         50      1           0.491 3500
        32         51      1           0.303 3500
        32         56      1           0.289 5000
        32         57      1           0.289 5000
        32         67      1           0.289 5000
        32         78      1           0.419 5000
        32         79      1           0.494 5000
        32        133      1           0.494 5000
        32        178      1           0.494 5000
        32        233      1           0.289 5000
        32        309      1           0.493 5000
        32        310      1           0.419 5000
        33         37      1           0.491 3500
        33         41      1           0.303 3500
        33         45      1           0.491 3500
        33         48      1           0.491 3500
        33         49      1           0.304 3500
        33         56      1           0.288 5000
        33         67      1           0.419 5000
        33         68      1           0.494 5000
        33         78      1           0.289 5000
        33         79      1           0.289 5000
        33        188      1           0.494 5000
        33        189      1           0.419 5000
        33        233      1           0.494 5000
        33        276      1           0.494 5000
        33        299      1           0.289 5000
        34         35      1           0.303 3500
        34         38      1           0.491 3500
        34         40      1           0.491 3500
        34         44      1           0.303 3500
        34         54      1           0.491 3500
        34         55      1           0.303 3500
        34         89      1           0.289 5000
        34        100      1           0.289 5000
        34        101      1           0.289 5000
        34        111      1           0.419 5000
        34        112      1           0.494 5000
        34        167      1           0.494 5000
        34        243      1           0.494 5000
        34        244      1           0.419 5000
        34        364      1           0.493 5000
        34        376      1           0.289 5000
        35         39      1           0.491 3500
        35         40      1           0.303 3500
        35         44      1           0.491 3500
        35         52      1           0.491 3500
        35         53      1           0.304 3500
        35         89      1           0.288 5000
        35         90      1           0.289 5000
        35        100      1           0.419 5000
        35        101      1           0.494 5000
        35        111      1           0.289 5000
        35        155      1           0.494 5000
        35        167      1           0.289 5000
        35        177      1           0.494 5000
        35        342      1           0.494 5000
        35        343      1           0.419 5000
        36         37      1           0.303 3500
        36         43      1           0.490 3500
        36         47      1           0.303 3500
        36         50      1           0.303 3500
        36         51      1           0.491 3500
        36         67      1           0.494 5000
        36         68      1           0.419 5000
        36        122      1           0.288 5000
        36        133      1           0.289 5000
        36        134      1           0.288 5000
        36        200      1           0.493 5000
        36        265      1           0.493 5000
        36        266      1           0.419 5000
        36        309      1           0.494 5000
        36        321      1           0.289 5000
        37         43      1           0.303 3500
        37         47      1           0.490 3500
        37         48      1           0.304 3500
        37         49      1           0.492 3500
        37         68      1           0.289 5000
        37         78      1           0.494 5000
        37        122      1           0.288 5000
        37        123      1           0.289 5000
        37        133      1           0.419 5000
        37        134      1           0.493 5000
        37        200      1           0.288 5000
        37        221      1           0.493 5000
        37        276      1           0.495 5000
        37        277      1           0.419 5000
        38         39      1           0.303 3500
        38         42      1           0.490 3500
        38         46      1           0.303 3500
        38         54      1           0.303 3500
        38         55      1           0.491 3500
        38        100      1           0.494 5000
        38        112      1           0.289 5000
        38        144      1           0.288 5000
        38        145      1           0.289 5000
        38        155      1           0.419 5000
        38        156      1           0.493 5000
        38        222      1           0.493 5000
        38        255      1           0.288 5000
        38        364      1           0.494 5000
        38        365      1           0.419 5000
        39         42      1           0.303 3500
        39         46      1           0.490 3500
        39         52      1           0.304 3500
        39         53      1           0.492 3500
        39        111      1           0.494 5000
        39        112      1           0.419 5000
        39        144      1           0.288 5000
        39        155      1           0.289 5000
        39        156      1           0.288 5000
        39        210      1           0.493 5000
        39        211      1           0.419 5000
        39        255      1           0.493 5000
        39        342      1           0.495 5000
        39        354      1           0.289 5000
        40         41      1           0.304 3500
        40         44      1           0.491 3500
        40         49      1           0.491 3500
        40         53      1           0.303 3500
        40         89      1           0.493 5000
        40         90      1           0.418 5000
        40        166      1           0.289 5000
        40        167      1           0.288 5000
        40        177      1           0.289 5000
        40        188      1           0.419 5000
        40        189      1           0.494 5000
        40        243      1           0.494 5000
        40        288      1           0.493 5000
        40        343      1           0.289 5000
        41         45      1           0.491 3500
        41         49      1           0.303 3500
        41         53      1           0.491 3500
        41         56      1           0.493 5000
        41         79      1           0.288 5000
        41        166      1           0.289 5000
        41        177      1           0.419 5000
        41        178      1           0.494 5000
        41        188      1           0.289 5000
        41        189      1           0.289 5000
        41        298      1           0.493 5000
        41        299      1           0.418 5000
        41        343      1           0.494 5000
        42         43      1           0.304 3500
        42         46      1           0.491 3500
        42         48      1           0.491 3500
        42         52      1           0.303 3500
        42        144      1           0.493 5000
        42        156      1           0.288 5000
        42        199      1           0.289 5000
        42        210      1           0.289 5000
        42        211      1           0.289 5000
        42        221      1           0.419 5000
        42        222      1           0.494 5000
        42        277      1           0.494 5000
        42        353      1           0.493 5000
        42        354      1           0.418 5000
        43         47      1           0.491 3500
        43         48      1           0.303 3500
        43         52      1           0.491 3500
        43        122      1           0.493 5000
        43        123      1           0.418 5000
        43        199      1           0.289 5000
        43        200      1           0.288 5000
        43        210      1           0.419 5000
        43        211      1           0.494 5000
        43        221      1           0.289 5000
        43        265      1           0.494 5000
        43        277      1           0.289 5000
        43        287      1           0.493 5000
        44         45      1           0.304 3500
        44         51      1           0.490 3500
        44         55      1           0.302 3500
        44         89      1           0.494 5000
        44        101      1           0.288 5000
        44        177      1           0.494 5000
        44        178      1           0.419 5000
        44        232      1           0.288 5000
        44        243      1           0.289 5000
        44        244      1           0.289 5000
        44        310      1           0.494 5000
        44        375      1           0.493 5000
        44        376      1           0.418 5000
        45         51      1           0.302 3500
        45         55      1           0.490 3500
        45         56      1           0.494 5000
        45         57      1           0.418 5000
        45        178      1           0.289 5000
        45        188      1           0.494 5000
        45        232      1           0.288 5000
        45        233      1           0.288 5000
        45        243      1           0.419 5000
        45        244      1           0.494 5000
        45        310      1           0.289 5000
        45        331      1           0.493 5000
        46         47      1           0.304 3500
        46         50      1           0.490 3500
        46         54      1           0.302 3500
        46        144      1           0.494 5000
        46        145      1           0.418 5000
        46        210      1           0.494 5000
        46        222      1           0.289 5000
        46        254      1           0.288 5000
        46        255      1           0.288 5000
        46        265      1           0.419 5000
        46        266      1           0.494 5000
        46        332      1           0.493 5000
        46        365      1           0.289 5000
        47         50      1           0.302 3500
        47         54      1           0.490 3500
        47        122      1           0.494 5000
        47        134      1           0.288 5000
        47        221      1           0.494 5000
        47        222      1           0.419 5000
        47        254      1           0.288 5000
        47        265      1           0.289 5000
        47        266      1           0.289 5000
        47        320      1           0.493 5000
        47        321      1           0.418 5000
        47        365      1           0.494 5000
        48         49      1           0.304 3500
        48         52      1           0.490 3500
        48         68      1           0.495 5000
        48        123      1           0.289 5000
        48        199      1           0.493 5000
        48        200      1           0.418 5000
        48        276      1           0.289 5000
        48        277      1           0.289 5000
        48        287      1           0.288 5000
        48        298      1           0.419 5000
        48        299      1           0.494 5000
        48        353      1           0.493 5000
        49         53      1           0.490 3500
        49         78      1           0.495 5000
        49         79      1           0.418 5000
        49        123      1           0.494 5000
        49        166      1           0.493 5000
        49        189      1           0.288 5000
        49        276      1           0.289 5000
        49        287      1           0.419 5000
        49        288      1           0.493 5000
        49        298      1           0.288 5000
        49        299      1           0.289 5000
        50         51      1           0.304 3500
        50         54      1           0.490 3500
        50         57      1           0.494 5000
        50        133      1           0.494 5000
        50        134      1           0.418 5000
        50        254      1           0.493 5000
        50        266      1           0.289 5000
        50        309      1           0.289 5000
        50        320      1           0.289 5000
        50        321      1           0.289 5000
        50        331      1           0.419 5000
        50        332      1           0.494 5000
        51         55      1           0.490 3500
        51         57      1           0.289 5000
        51         67      1           0.494 5000
        51        232      1           0.493 5000
        51        233      1           0.418 5000
        51        309      1           0.289 5000
        51        310      1           0.288 5000
        51        320      1           0.419 5000
        51        321      1           0.494 5000
        51        331      1           0.289 5000
        51        375      1           0.494 5000
        52         53      1           0.304 3500
        52         90      1           0.494 5000
        52        155      1           0.495 5000
        52        156      1           0.418 5000
        52        199      1           0.493 5000
        52        211      1           0.289 5000
        52        287      1           0.493 5000
        52        288      1           0.419 5000
        52        342      1           0.289 5000
        52        353      1           0.288 5000
        52        354      1           0.289 5000
        53         90      1           0.289 5000
        53        111      1           0.495 5000
        53        166      1           0.493 5000
        53        167      1           0.418 5000
        53        288      1           0.288 5000
        53        298      1           0.493 5000
        53        342      1           0.289 5000
        53        343      1           0.288 5000
        53        353      1           0.419 5000
        53        354      1           0.494 5000
        54         55      1           0.304 3500
        54        112      1           0.494 5000
        54        145      1           0.289 5000
        54        254      1           0.493 5000
        54        255      1           0.418 5000
        54        320      1           0.494 5000
        54        332      1           0.289 5000
        54        364      1           0.289 5000
        54        365      1           0.289 5000
        54        375      1           0.419 5000
        54        376      1           0.494 5000
        55        100      1           0.494 5000
        55        101      1           0.418 5000
        55        145      1           0.494 5000
        55        232      1           0.493 5000
        55        244      1           0.288 5000
        55        331      1           0.494 5000
        55        332      1           0.419 5000
        55        364      1           0.289 5000
        55        375      1           0.289 5000
        55        376      1           0.289 5000
        56         58      1           0.381 5000
        56         63      1           0.274 1250
        56         80      1           0.380 5000
        57         58      1           0.380 5000
        57         59      1           0.271 1250
        57        311      1           0.380 5000
        59        239      1           0.318 1250
        59        316      1           0.310 1250
        59         60      1           0.470 1250
        60         61      1           0.470 1250
        61         62      1           0.470 1250
        63         70      1           0.321 1250
        63         81      1           0.369 1250
        63         64      1           0.470 1250
        64         65      1           0.470 1250
        65         66      1           0.470 1250
        67         69      1           0.380 5000
        67         70      1           0.266 1250
        68         69      1           0.380 5000
        68         74      1           0.278 1250
        68        124      1           0.380 5000
        70         81      1           0.402 1250
        70         71      1           0.470 1250
        71         72      1           0.470 1250
        72         73      1           0.470 1250
        74        125      1           0.326 1250
        74        140      1           0.316 1250
        74         75      1           0.470 1250
        75         76      1           0.470 1250
        76         77      1           0.470 1250
        78         80      1           0.381 5000
        78         81      1           0.267 1250
        79         80      1           0.380 5000
        79         85      1           0.267 1250
        79        190      1           0.380 5000
        81         82      1           0.470 1250
        82         83      1           0.470 1250
        83         84      1           0.470 1250
        85        191      1           0.319 1250
        85        301      1           0.315 1250
        85         86      1           0.470 1250
        86         87      1           0.470 1250
        87         88      1           0.470 1250
        89         91      1           0.380 5000
        89         92      1           0.273 1250
        89        102      1           0.381 5000
        90         91      1           0.380 5000
        90         96      1           0.276 1250
        90        344      1           0.380 5000
        92        107      1           0.321 1250
        92        118      1           0.314 1250
        92         93      1           0.470 1250
        93         94      1           0.470 1250
        94         95      1           0.470 1250
        96        169      1           0.316 1250
        96        349      1           0.323 1250
        96         97      1           0.470 1250
        97         98      1           0.470 1250
        98         99      1           0.470 1250
       100        102      1           0.381 5000
       100        107      1           0.266 1250
       100        113      1           0.380 5000
       101        102      1           0.380 5000
       101        103      1           0.280 1250
       101        245      1           0.380 5000
       103        250      1           0.315 1250
       103        382      1           0.318 1250
       103        104      1           0.470 1250
       104        105      1           0.470 1250
       105        106      1           0.470 1250
       107        118      1           0.317 1250
       107        108      1           0.470 1250
       108        109      1           0.470 1250
       109        110      1           0.470 1250
       111        113      1           0.380 5000
       111        118      1           0.279 1250
       112        113      1           0.381 5000
       112        114      1           0.267 1250
       112        146      1           0.380 5000
       114        147      1           0.307 1250
       114        162      1           0.318 1250
       114        115      1           0.470 1250
       115        116      1           0.470 1250
       116        117      1           0.470 1250
       118        119      1           0.470 1250
       119        120      1           0.470 1250
       120        121      1           0.470 1250
       122        124      1           0.380 5000
       122        125      1           0.273 1250
       122        135      1           0.381 5000
       123        124      1           0.380 5000
       123        129      1           0.267 1250
       123        278      1           0.380 5000
       125        140      1           0.307 1250
       125        126      1           0.470 1250
       126        127      1           0.470 1250
       127        128      1           0.470 1250
       129        202      1           0.321 1250
       129        279      1           0.322 1250
       129        130      1           0.470 1250
       130        131      1           0.470 1250
       131        132      1           0.470 1250
       133        135      1           0.380 5000
       133        140      1           0.267 1250
       134        135      1           0.380 5000
       134        136      1           0.274 1250
       134        267      1           0.380 5000
       136        268      1           0.292 1250
       136        327      1           0.313 1250
       136        137      1           0.470 1250
       137        138      1           0.470 1250
       138        139      1           0.470 1250
       140        141      1           0.470 1250
       141        142      1           0.470 1250
       142        143      1           0.470 1250
       144        146      1           0.381 5000
       144        147      1           0.274 1250
       144        157      1           0.380 5000
       145        146      1           0.380 5000
       145        151      1           0.278 1250
       145        366      1           0.380 5000
       147        162      1           0.326 1250
       147        148      1           0.470 1250
       148        149      1           0.470 1250
       149        150      1           0.470 1250
       151        257      1           0.313 1250
       151        367      1           0.313 1250
       151        152      1           0.470 1250
       152        153      1           0.470 1250
       153        154      1           0.470 1250
       155        157      1           0.380 5000
       155        162      1           0.277 1250
       156        157      1           0.380 5000
       156        158      1           0.274 1250
       156        212      1           0.380 5000
       158        217      1           0.343 1250
       158        360      1           0.321 1250
       158        159      1           0.470 1250
       159        160      1           0.470 1250
       160        161      1           0.470 1250
       162        163      1           0.470 1250
       163        164      1           0.470 1250
       164        165      1           0.470 1250
       166        168      1           0.380 5000
       166        173      1           0.280 1250
       166        190      1           0.380 5000
       167        168      1           0.380 5000
       167        169      1           0.267 1250
       169        349      1           0.319 1250
       169        170      1           0.470 1250
       170        171      1           0.470 1250
       171        172      1           0.470 1250
       173        180      1           0.317 1250
       173        195      1           0.317 1250
       173        174      1           0.470 1250
       174        175      1           0.470 1250
       175        176      1           0.470 1250
       177        179      1           0.379 5000
       177        180      1           0.270 1250
       178        179      1           0.380 5000
       178        184      1           0.276 1250
       178        234      1           0.380 5000
       180        195      1           0.319 1250
       180        181      1           0.470 1250
       181        182      1           0.470 1250
       182        183      1           0.470 1250
       184        235      1           0.315 1250
       184        246      1           0.315 1250
       184        185      1           0.470 1250
       185        186      1           0.470 1250
       186        187      1           0.470 1250
       188        190      1           0.380 5000
       188        195      1           0.269 1250
       189        190      1           0.380 5000
       189        191      1           0.277 1250
       189        300      1           0.380 5000
       191        301      1           0.323 1250
       191        192      1           0.470 1250
       192        193      1           0.470 1250
       193        194      1           0.470 1250
       195        196      1           0.470 1250
       196        197      1           0.470 1250
       197        198      1           0.470 1250
       199        201      1           0.380 5000
       199        206      1           0.266 1250
       199        212      1           0.380 5000
       200        201      1           0.380 5000
       200        202      1           0.273 1250
       202        279      1           0.341 1250
       202        203      1           0.470 1250
       203        204      1           0.470 1250
       204        205      1           0.470 1250
       206        213      1           0.355 1250
       206        228      1           0.356 1250
       206        207      1           0.470 1250
       207        208      1           0.470 1250
       208        209      1           0.470 1250
       210        212      1           0.380 5000
       210        213      1           0.269 1250
       210        223      1           0.380 5000
       211        212      1           0.379 5000
       211        217      1           0.275 1250
       211        355      1           0.380 5000
       213        228      1           0.393 1250
       213        214      1           0.470 1250
       214        215      1           0.470 1250
       215        216      1           0.470 1250
       217        360      1           0.323 1250
       217        218      1           0.470 1250
       218        219      1           0.470 1250
       219        220      1           0.470 1250
       221        223      1           0.380 5000
       221        228      1           0.269 1250
       222        223      1           0.381 5000
       222        224      1           0.277 1250
       222        256      1           0.380 5000
       224        261      1           0.278 1250
       224        272      1           0.241 1250
       224        225      1           0.470 1250
       225        226      1           0.470 1250
       226        227      1           0.470 1250
       228        229      1           0.470 1250
       229        230      1           0.470 1250
       230        231      1           0.470 1250
       232        234      1           0.380 5000
       232        235      1           0.266 1250
       232        245      1           0.380 5000
       233        234      1           0.380 5000
       233        239      1           0.280 1250
       235        246      1           0.316 1250
       235        236      1           0.470 1250
       236        237      1           0.470 1250
       237        238      1           0.470 1250
       239        316      1           0.315 1250
       239        240      1           0.470 1250
       240        241      1           0.470 1250
       241        242      1           0.470 1250
       243        245      1           0.380 5000
       243        246      1           0.277 1250
       244        245      1           0.380 5000
       244        250      1           0.269 1250
       244        377      1           0.380 5000
       246        247      1           0.470 1250
       247        248      1           0.470 1250
       248        249      1           0.470 1250
       250        382      1           0.310 1250
       250        251      1           0.470 1250
       251        252      1           0.470 1250
       252        253      1           0.470 1250
       254        256      1           0.380 5000
       254        261      1           0.280 1250
       254        267      1           0.380 5000
       255        256      1           0.380 5000
       255        257      1           0.275 1250
       257        367      1           0.293 1250
       257        258      1           0.470 1250
       258        259      1           0.470 1250
       259        260      1           0.470 1250
       261        272      1           0.280 1250
       261        262      1           0.470 1250
       262        263      1           0.470 1250
       263        264      1           0.470 1250
       265        267      1           0.380 5000
       265        272      1           0.277 1250
       266        267      1           0.379 5000
       266        268      1           0.269 1250
       266        322      1           0.380 5000
       268        327      1           0.313 1250
       268        269      1           0.470 1250
       269        270      1           0.470 1250
       270        271      1           0.470 1250
       272        273      1           0.470 1250
       273        274      1           0.470 1250
       274        275      1           0.470 1250
       276        278      1           0.381 5000
       276        283      1           0.269 1250
       276        300      1           0.380 5000
       277        278      1           0.380 5000
       277        279      1           0.276 1250
       279        280      1           0.470 1250
       280        281      1           0.470 1250
       281        282      1           0.470 1250
       283        290      1           0.325 1250
       283        305      1           0.328 1250
       283        284      1           0.470 1250
       284        285      1           0.470 1250
       285        286      1           0.470 1250
       287        289      1           0.381 5000
       287        290      1           0.280 1250
       288        289      1           0.381 5000
       288        294      1           0.268 1250
       288        344      1           0.380 5000
       290        305      1           0.317 1250
       290        291      1           0.470 1250
       291        292      1           0.470 1250
       292        293      1           0.470 1250
       294        345      1           0.328 1250
       294        356      1           0.317 1250
       294        295      1           0.470 1250
       295        296      1           0.470 1250
       296        297      1           0.470 1250
       298        300      1           0.380 5000
       298        305      1           0.269 1250
       299        300      1           0.380 5000
       299        301      1           0.275 1250
       301        302      1           0.470 1250
       302        303      1           0.470 1250
       303        304      1           0.470 1250
       305        306      1           0.470 1250
       306        307      1           0.470 1250
       307        308      1           0.470 1250
       309        311      1           0.380 5000
       309        312      1           0.277 1250
       309        322      1           0.381 5000
       310        311      1           0.380 5000
       310        316      1           0.269 1250
       312        323      1           0.309 1250
       312        338      1           0.306 1250
       312        313      1           0.470 1250
       313        314      1           0.470 1250
       314        315      1           0.470 1250
       316        317      1           0.470 1250
       317        318      1           0.470 1250
       318        319      1           0.470 1250
       320        322      1           0.380 5000
       320        323      1           0.266 1250
       320        333      1           0.381 5000
       321        322      1           0.380 5000
       321        327      1           0.279 1250
       323        338      1           0.317 1250
       323        324      1           0.470 1250
       324        325      1           0.470 1250
       325        326      1           0.470 1250
       327        328      1           0.470 1250
       328        329      1           0.470 1250
       329        330      1           0.470 1250
       331        333      1           0.381 5000
       331        338      1           0.277 1250
       332        333      1           0.381 5000
       332        334      1           0.266 1250
       332        366      1           0.380 5000
       334        371      1           0.311 1250
       334        378      1           0.318 1250
       334        335      1           0.470 1250
       335        336      1           0.470 1250
       336        337      1           0.470 1250
       338        339      1           0.470 1250
       339        340      1           0.470 1250
       340        341      1           0.470 1250
       342        344      1           0.380 5000
       342        345      1           0.269 1250
       342        355      1           0.381 5000
       343        344      1           0.380 5000
       343        349      1           0.276 1250
       345        356      1           0.327 1250
       345        346      1           0.470 1250
       346        347      1           0.470 1250
       347        348      1           0.470 1250
       349        350      1           0.470 1250
       350        351      1           0.470 1250
       351        352      1           0.470 1250
       353        355      1           0.380 5000
       353        356      1           0.280 1250
       354        355      1           0.380 5000
       354        360      1           0.267 1250
       356        357      1           0.470 1250
       357        358      1           0.470 1250
       358        359      1           0.470 1250
       360        361      1           0.470 1250
       361        362      1           0.470 1250
       362        363      1           0.470 1250
       364        366      1           0.381 5000
       364        371      1           0.277 1250
       364        377      1           0.380 5000
       365        366      1           0.380 5000
       365        367      1           0.268 1250
       367        368      1           0.470 1250
       368        369      1           0.470 1250
       369        370      1           0.470 1250
       371        378      1           0.306 1250
       371        372      1           0.470 1250
       372        373      1           0.470 1250
       373        374      1           0.470 1250
       375        377      1           0.380 5000
       375        378      1           0.277 1250
       376        377      1           0.380 5000
       376        382      1           0.271 1250
       378        379      1           0.470 1250
       379        380      1           0.470 1250
       380        381      1           0.470 1250
       382        383      1           0.470 1250
       383        384      1           0.470 1250
       384        385      1           0.470 1250

 [ angles ]
;  i j k     funct  angle  force.c.
    59   60   61   2    180.0  25.0
    60   61   62   2    180.0  25.0
    63   64   65   2    180.0  25.0
    64   65   66   2    180.0  25.0
    70   71   72   2    180.0  25.0
    71   72   73   2    180.0  25.0
    74   75   76   2    180.0  25.0
    75   76   77   2    180.0  25.0
    81   82   83   2    180.0  25.0
    82   83   84   2    180.0  25.0
    85   86   87   2    180.0  25.0
    86   87   88   2    180.0  25.0
    92   93   94   2    180.0  25.0
    93   94   95   2    180.0  25.0
    96   97   98   2    180.0  25.0
    97   98   99   2    180.0  25.0
   103  104  105   2    180.0  25.0
   104  105  106   2    180.0  25.0
   107  108  109   2    180.0  25.0
   108  109  110   2    180.0  25.0
   114  115  116   2    180.0  25.0
   115  116  117   2    180.0  25.0
   118  119  120   2    180.0  25.0
   119  120  121   2    180.0  25.0
   125  126  127   2    180.0  25.0
   126  127  128   2    180.0  25.0
   129  130  131   2    180.0  25.0
   130  131  132   2    180.0  25.0
   136  137  138   2    180.0  25.0
   137  138  139   2    180.0  25.0
   140  141  142   2    180.0  25.0
   141  142  143   2    180.0  25.0
   147  148  149   2    180.0  25.0
   148  149  150   2    180.0  25.0
   151  152  153   2    180.0  25.0
   152  153  154   2    180.0  25.0
   158  159  160   2    180.0  25.0
   159  160  161   2    180.0  25.0
   162  163  164   2    180.0  25.0
   163  164  165   2    180.0  25.0
   169  170  171   2    180.0  25.0
   170  171  172   2    180.0  25.0
   173  174  175   2    180.0  25.0
   174  175  176   2    180.0  25.0
   180  181  182   2    180.0  25.0
   181  182  183   2    180.0  25.0
   184  185  186   2    180.0  25.0
   185  186  187   2    180.0  25.0
   191  192  193   2    180.0  25.0
   192  193  194   2    180.0  25.0
   195  196  197   2    180.0  25.0
   196  197  198   2    180.0  25.0
   202  203  204   2    180.0  25.0
   203  204  205   2    180.0  25.0
   206  207  208   2    180.0  25.0
   207  208  209   2    180.0  25.0
   213  214  215   2    180.0  25.0
   214  215  216   2    180.0  25.0
   217  218  219   2    180.0  25.0
   218  219  220   2    180.0  25.0
   224  225  226   2    180.0  25.0
   225  226  227   2    180.0  25.0
   228  229  230   2    180.0  25.0
   229  230  231   2    180.0  25.0
   235  236  237   2    180.0  25.0
   236  237  238   2    180.0  25.0
   239  240  241   2    180.0  25.0
   240  241  242   2    180.0  25.0
   246  247  248   2    180.0  25.0
   247  248  249   2    180.0  25.0
   250  251  252   2    180.0  25.0
   251  252  253   2    180.0  25.0
   257  258  259   2    180.0  25.0
   258  259  260   2    180.0  25.0
   261  262  263   2    180.0  25.0
   262  263  264   2    180.0  25.0
   268  269  270   2    180.0  25.0
   269  270  271   2    180.0  25.0
   272  273  274   2    180.0  25.0
   273  274  275   2    180.0  25.0
   279  280  281   2    180.0  25.0
   280  281  282   2    180.0  25.0
   283  284  285   2    180.0  25.0
   284  285  286   2    180.0  25.0
   290  291  292   2    180.0  25.0
   291  292  293   2    180.0  25.0
   294  295  296   2    180.0  25.0
   295  296  297   2    180.0  25.0
   301  302  303   2    180.0  25.0
   302  303  304   2    180.0  25.0
   305  306  307   2    180.0  25.0
   306  307  308   2    180.0  25.0
   312  313  314   2    180.0  25.0
   313  314  315   2    180.0  25.0
   316  317  318   2    180.0  25.0
   317  318  319   2    180.0  25.0
   323  324  325   2    180.0  25.0
   324  325  326   2    180.0  25.0
   327  328  329   2    180.0  25.0
   328  329  330   2    180.0  25.0
   334  335  336   2    180.0  25.0
   335  336  337   2    180.0  25.0
   338  339  340   2    180.0  25.0
   339  340  341   2    180.0  25.0
   345  346  347   2    180.0  25.0
   346  347  348   2    180.0  25.0
   349  350  351   2    180.0  25.0
   350  351  352   2    180.0  25.0
   356  357  358   2    180.0  25.0
   357  358  359   2    180.0  25.0
   360  361  362   2    180.0  25.0
   361  362  363   2    180.0  25.0
   367  368  369   2    180.0  25.0
   368  369  370   2    180.0  25.0
   371  372  373   2    180.0  25.0
   372  373  374   2    180.0  25.0
   378  379  380   2    180.0  25.0
   379  380  381   2    180.0  25.0
   382  383  384   2    180.0  25.0
   383  384  385   2    180.0  25.0
