Protein in INSANE! Membrane UpperLeaflet>POPC=1.0 LowerLeaflet>POPC=1.0
12676
    1AU     AUC    1   2.702   7.031   7.039 -0.0035  0.0493 -0.0038
    1AU     AUC    2   2.444   6.891   6.999 -0.0784  0.0432  0.0125
    1AU     AUC    3   2.542   7.081   6.802  0.0739  0.0466  0.0193
    1AU     AUC    4   2.867   6.966   7.267  0.0480  0.1136 -0.0009
    1AU     AUC    5   2.955   7.160   7.064 -0.0160 -0.0136  0.0033
    1AU     AUC    6   2.708   7.241   7.247 -0.0140  0.0320 -0.0881
    1AU     AUC    7   2.454   7.186   7.077  0.0475 -0.0517  0.0018
    1AU     AUC    8   2.917   6.865   6.986  0.0024  0.0608 -0.0632
    1AU     AUC    9   2.677   6.833   6.819  0.0023  0.0023 -0.0231
    1AU     AUC   10   2.815   7.094   6.783 -0.0618 -0.0348  0.0540
    1AU     AUC   11   2.701   7.308   6.953 -0.0087 -0.0041 -0.0001
    1AU     AUC   12   2.676   6.757   7.106  0.0965 -0.0179  0.0194
    1AU     AUC   13   2.543   6.986   7.285 -0.0289 -0.0111  0.0034
    1AU     AUC   14   2.197   6.763   6.963 -0.0075  0.1460 -0.0610
    1AU     AUC   15   2.286   6.959   6.769  0.0527 -0.1026 -0.0046
    1AU     AUC   16   2.382   7.170   6.592 -0.0254 -0.0449  0.0143
    1AU     AUC   17   3.003   6.897   7.480 -0.1162  0.0150 -0.0112
    1AU     AUC   18   3.100   7.103   7.291  0.0588  0.0277  0.0006
    1AU     AUC   19   3.168   7.303   7.099  0.0343 -0.0198 -0.0169
    1AU     AUC   20   2.715   7.406   7.453 -0.0494  0.1309  0.0222
    1AU     AUC   21   2.463   7.373   7.296 -0.0108  0.0110 -0.0119
    1AU     AUC   22   2.242   7.335   7.134  0.1013 -0.0435 -0.0188
    1AU     AUC   23   3.151   6.691   6.952  0.0021  0.0467  0.0173
    1AU     AUC   24   2.898   6.675   6.771 -0.0153 -0.0623  0.0035
    1AU     AUC   25   2.630   6.632   6.615  0.0880 -0.0099 -0.0036
    1AU     AUC   26   2.978   7.144   6.550  0.1371 -0.0175  0.0032
    1AU     AUC   27   2.848   7.348   6.713 -0.0053  0.0816  0.0174
    1AU     AUC   28   2.711   7.558   6.865 -0.0038  0.0393  0.0848
    1AU     AUC   29   2.671   6.524   7.236 -0.0482  0.0381  0.0183
    1AU     AUC   30   2.520   6.711   7.345 -0.0156  0.0595  0.0487
    1AU     AUC   31   2.385   6.903   7.472  0.0020  0.0233 -0.0499
    1AU     AUC   32   2.671   7.185   6.557  0.0336  0.0377 -0.0261
    1AU     AUC   33   2.529   7.368   6.730 -0.0382  0.0038 -0.0482
    1AU     AUC   34   2.436   6.626   7.075 -0.0520  0.0102 -0.0338
    1AU     AUC   35   2.278   6.847   7.212  0.0718 -0.0037 -0.0290
    1AU     AUC   36   3.091   7.206   6.829  0.0102 -0.0286  0.0545
    1AU     AUC   37   2.960   7.432   6.984  0.0738  0.0324 -0.1060
    1AU     AUC   38   2.815   6.703   7.339 -0.0308  0.1046  0.1279
    1AU     AUC   39   2.701   6.897   7.512 -0.0195 -0.0726  0.1102
    1AU     AUC   40   2.215   7.058   7.037 -0.0081 -0.0854 -0.0731
    1AU     AUC   41   2.302   7.250   6.869  0.0859 -0.0277 -0.0009
    1AU     AUC   42   2.871   7.159   7.471 -0.0943  0.1240 -0.0416
    1AU     AUC   43   2.948   7.358   7.268  0.0606  0.0090  0.0515
    1AU     AUC   44   2.425   6.680   6.797 -0.0728 -0.0150  0.0718
    1AU     AUC   45   2.515   6.885   6.567  0.0750 -0.0326  0.0342
    1AU     AUC   46   3.077   6.804   7.222  0.0007  0.0482  0.0904
    1AU     AUC   47   3.177   7.017   7.018 -0.0092  0.0124  0.0658
    1AU     AUC   48   2.715   7.485   7.154 -0.0123 -0.1224  0.0808
    1AU     AUC   49   2.480   7.477   7.000  0.0291  0.0734  0.0264
    1AU     AUC   50   3.047   6.915   6.728  0.0198 -0.0720  0.0087
    1AU     AUC   51   2.802   6.871   6.578  0.0730  0.0530 -0.0363
    1AU     AUC   52   2.569   7.153   7.474  0.0186 -0.0601  0.0151
    1AU     AUC   53   2.324   7.119   7.328 -0.0174  0.0414 -0.0037
    1AU     AUC   54   2.920   6.595   7.073  0.0946 -0.0535 -0.0441
    1AU     AUC   55   2.681   6.547   6.918  0.0953 -0.0442  0.0315
    1AU    AUSL   56   2.464   7.361   6.449 -0.0031  0.0096  0.0018
    1AU    AUSL   57   2.842   7.035   6.321 -0.0548  0.0151  0.0284
    1AU     AUL   58   2.337   7.015   6.369 -0.0509 -0.0044 -0.0224
    1AU       S   59   2.890   6.977   5.881 -0.1507  0.1413  0.1632
    1AU     LIG   60   3.339   7.281   5.844  0.1741  0.0037 -0.2185
    1AU     LIG   61   3.615   7.600   6.060 -0.1253  0.1721  0.0309
    1AU     LIG   62   3.890   7.596   6.346 -0.1541 -0.1367  0.0279
    1AU     LIG   63   4.167   7.864   6.577 -0.0170 -0.1377 -0.1378
    1AU     LIG   64   4.524   8.142   6.499 -0.0034  0.0343 -0.0656
    1AU     LIG   65   5.033   8.263   6.553 -0.0569  0.0046  0.0270
    1AU       S   66   2.463   7.628   6.066 -0.0346 -0.2493  0.5634
    1AU     LIG   67   2.609   7.922   5.758  0.2723  0.1411  0.0838
    1AU     LIG   68   2.653   8.330   5.886  0.1864  0.0727 -0.3464
    1AU     LIG   69   2.846   8.620   6.131 -0.1334 -0.1628 -0.1682
    1AU     LIG   70   2.916   8.895   6.580  0.0633  0.0613 -0.2845
    1AU     LIG   71   2.828   9.247   6.530  0.1927 -0.1999  0.0201
    1AU     LIG   72   2.964   9.604   6.598 -0.3383  0.1921  0.4013
    1AU    AUSL   73   2.824   7.309   6.379 -0.0687  0.0659  0.0492
    1AU    AUSL   74   2.994   7.593   6.756  0.0300 -0.0027  0.0255
    1AU     AUL   75   3.143   7.325   6.398 -0.0140  0.0464 -0.0049
    1AU       S   76   2.774   7.531   6.013  0.4256  0.0410 -0.2577
    1AU     LIG   77   2.785   7.308   5.539  0.1111 -0.0385 -0.1236
    1AU     LIG   78   3.032   6.984   5.362  0.3001 -0.1902  0.0732
    1AU     LIG   79   3.342   6.759   5.615 -0.0373 -0.0509  0.0081
    1AU     LIG   80   3.273   6.287   5.747 -0.2555  0.0312  0.0316
    1AU     LIG   81   3.619   6.015   5.915  0.1850  0.1326  0.0032
    1AU     LIG   82   3.946   5.919   6.287  0.1303  0.4168  0.2568
    1AU       S   83   3.261   8.005   6.629  0.1679  0.0652  0.1656
    1AU     LIG   84   3.263   8.426   6.404 -0.1575 -0.5481 -0.1974
    1AU     LIG   85   3.273   8.822   6.165  0.1378 -0.3004  0.0209
    1AU     LIG   86   3.320   9.167   6.400 -0.3523 -0.0071  0.0981
    1AU     LIG   87   3.423   9.489   6.605 -0.2311  0.1458 -0.0919
    1AU     LIG   88   3.454   9.565   7.019  0.0651 -0.0113 -0.2414
    1AU     LIG   89   3.496   9.284   7.391  0.2792 -0.1685  0.0185
    1AU    AUSL   90   2.736   7.651   6.644  0.0037  0.0103 -0.0217
    1AU    AUSL   91   2.257   7.416   6.658 -0.0121 -0.1119  0.1383
    1AU     AUL   92   2.686   7.502   6.554  0.0097 -0.0130  0.0775
    1AU       S   93   2.674   7.917   6.253  0.1609  0.2084  0.4117
    1AU     LIG   94   2.718   8.318   6.478  0.1630  0.0768 -0.3705
    1AU     LIG   95   2.371   8.533   6.645 -0.2103 -0.4411  0.4185
    1AU     LIG   96   2.424   8.918   6.356  0.0231  0.0143 -0.2861
    1AU     LIG   97   2.336   9.262   6.346 -0.1927 -0.4201  0.0582
    1AU     LIG   98   2.115   9.388   6.606  0.0686  0.3792 -0.2554
    1AU     LIG   99   2.046   9.462   7.020 -0.3529 -0.0703  0.0769
    1AU       S  100   2.046   7.734   6.365 -0.2688  0.2180  0.0023
    1AU     LIG  101   1.645   7.965   6.294 -0.1711 -0.2733  0.2364
    1AU     LIG  102   1.325   8.104   6.541  0.0005 -0.0511  0.1734
    1AU     LIG  103   0.949   8.172   6.757  0.3731  0.2378  0.0301
    1AU     LIG  104   0.606   8.166   7.069  0.1468 -0.0054  0.4199
    1AU     LIG  105   0.145   8.270   7.074 -0.0512  0.2384  0.1003
    1AU     LIG  106  -0.029   8.578   7.377  0.0625  0.0488  0.1617
    1AU    AUSL  107   2.161   6.667   7.249  0.0183  0.0914  0.0791
    1AU    AUSL  108   2.093   6.930   7.410  0.0037  0.0107 -0.1263
    1AU     AUL  109   2.287   6.859   7.731 -0.0674 -0.0165 -0.1208
    1AU       S  110   1.888   6.222   7.416  0.2958  0.2527  0.0881
    1AU     LIG  111   1.546   6.166   7.161  0.2282 -0.2516  0.1080
    1AU     LIG  112   1.129   6.069   7.017  0.2803  0.1079 -0.0638
    1AU     LIG  113   0.680   6.103   7.074 -0.0195  0.0545  0.0528
    1AU     LIG  114   0.416   5.708   7.018  0.0130 -0.0110 -0.1369
    1AU     LIG  115   0.086   5.609   6.886 -0.0108 -0.2005  0.1209
    1AU     LIG  116  -0.204   5.672   6.542 -0.0574  0.1452 -0.0436
    1AU       S  117   1.660   6.948   7.603  0.0313 -0.0484 -0.0087
    1AU     LIG  118   1.357   6.557   7.646 -0.0637 -0.0777  0.0498
    1AU     LIG  119   1.175   6.298   7.521 -0.1454  0.2016  0.3429
    1AU     LIG  120   0.930   6.033   7.500 -0.4607  0.0175  0.0117
    1AU     LIG  121   0.627   5.773   7.468 -0.2681  0.4376  0.0930
    1AU     LIG  122   0.169   5.774   7.392  0.0268 -0.1997 -0.0170
    1AU     LIG  123  -0.225   5.838   7.173  0.4967 -0.2434  0.2489
    1AU    AUSL  124   2.371   6.448   7.262  0.0860 -0.0192 -0.0262
    1AU    AUSL  125   2.288   6.515   6.827  0.0816 -0.0005 -0.0117
    1AU     AUL  126   1.980   6.594   7.074 -0.0853  0.0460  0.0526
    1AU       S  127   1.956   6.103   6.762 -0.0830 -0.4091 -0.2619
    1AU     LIG  128   1.524   5.926   6.668  0.0504  0.1255 -0.0514
    1AU     LIG  129   1.172   5.850   6.529  0.0447  0.6162  0.0525
    1AU     LIG  130   0.823   5.644   6.720  0.2422 -0.0859 -0.3738
    1AU     LIG  131   0.786   5.147   6.963  0.0915 -0.3211 -0.3051
    1AU     LIG  132   0.704   4.700   6.876 -0.4751 -0.1556  0.2092
    1AU     LIG  133   0.971   4.418   6.658  0.0475 -0.0286 -0.2777
    1AU       S  134   2.087   6.103   7.390  0.3800  0.2136 -0.0910
    1AU     LIG  135   2.229   5.662   7.440  0.3451 -0.2575  0.1649
    1AU     LIG  136   2.061   5.338   7.620 -0.0099 -0.1535  0.1435
    1AU     LIG  137   1.904   4.972   7.537 -0.1204  0.0469 -0.2176
    1AU     LIG  138   1.519   4.890   7.749  0.1009  0.2991 -0.4521
    1AU     LIG  139   1.249   4.541   7.654 -0.0030 -0.2527  0.8789
    1AU     LIG  140   1.264   4.008   7.538  0.1392 -0.2336 -0.2646
    1AU    AUSL  141   2.338   6.644   7.454 -0.0426 -0.0177  0.0278
    1AU    AUSL  142   2.574   6.480   7.479 -0.0007 -0.0169 -0.0483
    1AU     AUL  143   2.172   6.684   7.524 -0.0811 -0.0002  0.0305
    1AU       S  144   2.680   6.149   7.818  0.1092 -0.0869 -0.0727
    1AU     LIG  145   2.672   5.651   7.642  0.0686 -0.5674 -0.2602
    1AU     LIG  146   2.738   5.172   7.611 -0.1310  0.0152  0.1589
    1AU     LIG  147   2.429   4.938   7.346 -0.3230  0.1889  0.2374
    1AU     LIG  148   2.064   4.786   7.049  0.0752 -0.0536  0.0516
    1AU     LIG  149   1.792   5.072   6.811 -0.1064  0.1206 -0.3029
    1AU     LIG  150   1.867   5.538   6.709 -0.0328 -0.2806  0.2943
    1AU       S  151   2.132   6.179   7.606 -0.1546 -0.0081  0.3448
    1AU     LIG  152   2.052   5.879   7.870  0.1733  0.0043 -0.0913
    1AU     LIG  153   1.735   5.662   7.841 -0.0837 -0.2467  0.1294
    1AU     LIG  154   1.511   5.389   7.649  0.3419  0.2186  0.1219
    1AU     LIG  155   1.402   5.108   7.213 -0.1795 -0.1542  0.2866
    1AU     LIG  156   1.566   4.654   7.195  0.1311  0.3951 -0.0352
    1AU     LIG  157   1.760   4.378   7.523 -0.0513 -0.3391  0.2231
    1AU    AUSL  158   3.220   7.512   6.894 -0.0945  0.0552 -0.0550
    1AU    AUSL  159   2.881   7.706   6.994 -0.1635  0.0176 -0.0589
    1AU     AUL  160   2.966   7.529   6.516  0.0471  0.0167 -0.0319
    1AU       S  161   3.517   7.833   6.738 -0.2117 -0.1622 -0.0241
    1AU     LIG  162   3.838   7.862   7.016 -0.0251 -0.0513  0.1448
    1AU     LIG  163   4.259   7.841   7.206  0.1925  0.2143 -0.1405
    1AU     LIG  164   4.633   7.954   7.026 -0.0831 -0.4073  0.0918
    1AU     LIG  165   4.926   8.193   7.074 -0.2715 -0.0930  0.0080
    1AU     LIG  166   5.279   8.444   6.913 -0.2046 -0.2146  0.2841
    1AU     LIG  167   5.576   8.860   6.885  0.2629 -0.1103  0.2713
    1AU       S  168   3.027   8.135   7.044  0.2657  0.0398  0.1187
    1AU     LIG  169   2.836   8.530   7.181  0.2309 -0.0315 -0.3912
    1AU     LIG  170   2.777   8.952   7.182 -0.1514  0.0501  0.3050
    1AU     LIG  171   3.111   9.233   6.923  0.2007  0.0095  0.0618
    1AU     LIG  172   3.592   9.097   6.880 -0.2557  0.0259 -0.4986
    1AU     LIG  173   4.034   9.344   6.847 -0.1773  0.0113 -0.0588
    1AU     LIG  174   4.418   9.718   6.796  0.0402  0.1745  0.4591
    1AU    AUSL  175   3.146   7.367   6.672  0.0228  0.0650  0.0155
    1AU    AUSL  176   3.371   7.110   6.935 -0.0358  0.0381 -0.0726
    1AU     AUL  177   3.400   7.293   6.567  0.0324 -0.0310 -0.0442
    1AU       S  178   3.828   7.049   6.874  0.1426 -0.0754  0.1319
    1AU     LIG  179   4.211   7.299   6.776  0.0402  0.0895  0.1482
    1AU     LIG  180   4.597   7.501   6.671 -0.0051 -0.0093  0.0282
    1AU     LIG  181   4.979   7.797   6.684 -0.1382  0.2294  0.0270
    1AU     LIG  182   5.467   7.909   6.849  0.1314  0.3050 -0.1407
    1AU     LIG  183   5.516   7.901   7.252  0.4009 -0.0380 -0.1679
    1AU     LIG  184   5.795   7.940   7.612  0.2493  0.1880 -0.0549
    1AU       S  185   3.395   7.808   6.462  0.0108 -0.1629  0.2674
    1AU     LIG  186   3.696   8.057   6.323 -0.1486 -0.1524  0.3199
    1AU     LIG  187   3.705   8.341   6.544 -0.1019  0.2303  0.0742
    1AU     LIG  188   3.569   8.792   6.531 -0.2009  0.3274 -0.0441
    1AU     LIG  189   3.773   9.044   6.230  0.0228  0.1140 -0.4775
    1AU     LIG  190   3.916   9.383   5.879  0.0871  0.0554 -0.0424
    1AU     LIG  191   4.112   9.458   5.532  0.3363 -0.1915  0.2122
    1AU    AUSL  192   2.807   6.619   7.534  0.0064 -0.0597  0.0065
    1AU    AUSL  193   2.921   6.431   7.346 -0.0455  0.0012  0.0128
    1AU     AUL  194   2.599   6.246   7.292  0.0329  0.0109 -0.1895
    1AU       S  195   2.862   6.271   7.891  0.1761 -0.1472 -0.3100
    1AU     LIG  196   3.025   5.838   7.992 -0.1749 -0.2910  0.1033
    1AU     LIG  197   3.356   5.502   7.838  0.0365 -0.2107  0.1369
    1AU     LIG  198   3.415   5.286   7.562 -0.0439 -0.2146  0.1742
    1AU     LIG  199   3.633   4.944   7.409 -0.0612  0.1109  0.2082
    1AU     LIG  200   3.825   4.621   7.563 -0.0513  0.1739  0.3579
    1AU     LIG  201   4.230   4.346   7.654 -0.2002  0.3526 -0.2939
    1AU       S  202   3.156   6.086   7.542  0.0520  0.3680  0.0781
    1AU     LIG  203   3.119   5.644   7.376  0.2041  0.1125  0.0620
    1AU     LIG  204   3.155   5.293   7.123  0.1335 -0.1550 -0.0666
    1AU     LIG  205   3.003   4.920   7.257 -0.0357  0.0860  0.3400
    1AU     LIG  206   2.930   4.486   7.334  0.0944 -0.1210 -0.0504
    1AU     LIG  207   3.131   4.092   7.240  0.3399  0.1024  0.0957
    1AU     LIG  208   3.284   3.956   6.876 -0.2836  0.0649  0.3220
    1AU    AUSL  209   2.537   6.718   7.636 -0.0236 -0.0473 -0.0056
    1AU    AUSL  210   2.858   7.037   7.715 -0.1089 -0.0717 -0.0014
    1AU     AUL  211   2.946   6.756   7.719 -0.0493  0.0879 -0.0235
    1AU       S  212   2.853   7.108   8.170  0.2987  0.0816 -0.1465
    1AU     LIG  213   3.267   7.176   8.432 -0.0882 -0.2111  0.1909
    1AU     LIG  214   3.636   6.977   8.222 -0.1354 -0.1224 -0.2178
    1AU     LIG  215   3.755   6.792   7.928 -0.0215  0.0692  0.1083
    1AU     LIG  216   4.161   6.849   7.702 -0.0708  0.2028 -0.2320
    1AU     LIG  217   4.509   7.070   7.578  0.0688 -0.1646  0.1327
    1AU     LIG  218   4.913   7.224   7.589  0.0356  0.2483  0.4060
    1AU       S  219   2.534   6.373   7.924 -0.1509 -0.0393  0.1510
    1AU     LIG  220   2.043   6.271   8.104 -0.2318  0.0934  0.1748
    1AU     LIG  221   1.611   6.151   7.824 -0.1385 -0.2651  0.1295
    1AU     LIG  222   1.378   5.853   7.561 -0.1217 -0.1534 -0.2158
    1AU     LIG  223   1.720   5.690   7.320 -0.2050 -0.1232 -0.4802
    1AU     LIG  224   2.080   5.307   7.128  0.0374 -0.0045  0.1286
    1AU     LIG  225   2.596   5.329   7.151 -0.3153 -0.0760  0.0313
    1AU    AUSL  226   2.082   7.281   6.873  0.0052  0.0844 -0.0472
    1AU    AUSL  227   2.009   6.948   7.139 -0.0206 -0.0451 -0.0017
    1AU     AUL  228   1.994   7.447   7.148  0.0466  0.0782  0.0354
    1AU       S  229   1.567   6.887   7.342 -0.2837 -0.0246 -0.5168
    1AU     LIG  230   1.089   6.968   7.384 -0.3770  0.0873 -0.1513
    1AU     LIG  231   0.697   7.073   7.681 -0.1422 -0.1383  0.3499
    1AU     LIG  232   0.349   6.826   7.595 -0.0518 -0.0053  0.1572
    1AU     LIG  233   0.031   6.559   7.574 -0.0087  0.1351 -0.2661
    1AU     LIG  234  -0.364   6.571   7.601 -0.1211  0.3474  0.2309
    1AU     LIG  235  -0.690   6.601   7.503  0.1785  0.6691  0.2615
    1AU       S  236   1.614   7.310   6.668  0.2463 -0.3994  0.0962
    1AU     LIG  237   1.198   7.300   6.887  0.1459 -0.2077  0.1984
    1AU     LIG  238   0.925   7.403   7.205  0.0028  0.3444  0.2493
    1AU     LIG  239   0.423   7.360   7.264 -0.4547 -0.1032  0.2261
    1AU     LIG  240   0.196   7.413   6.889 -0.3979 -0.0048  0.0500
    1AU     LIG  241  -0.170   7.461   6.648  0.3252  0.0534  0.3636
    1AU     LIG  242  -0.307   7.889   6.539  0.0121 -0.0126  0.0980
    1AU    AUSL  243   2.020   6.997   6.817  0.1120 -0.0132 -0.0687
    1AU    AUSL  244   2.198   6.894   6.559  0.0395  0.0080 -0.0749
    1AU     AUL  245   1.899   6.799   6.895  0.0219  0.0306  0.0239
    1AU       S  246   1.606   7.029   6.500 -0.0872 -0.3523  0.1578
    1AU     LIG  247   1.284   6.746   6.515  0.1789 -0.2199 -0.0610
    1AU     LIG  248   0.945   6.880   6.831  0.2089  0.1157  0.1507
    1AU     LIG  249   0.592   6.937   7.106  0.3661 -0.1215 -0.0415
    1AU     LIG  250   0.125   6.907   7.143 -0.0607 -0.1475  0.2345
    1AU     LIG  251  -0.248   7.222   7.054  0.0339 -0.3613  0.1499
    1AU     LIG  252  -0.642   7.283   6.860 -0.1257 -0.0625  0.2915
    1AU       S  253   1.856   6.695   6.235 -0.1924  0.0430 -0.0139
    1AU     LIG  254   1.552   6.492   6.051 -0.1886 -0.0195 -0.3479
    1AU     LIG  255   1.259   6.299   6.341  0.2532 -0.0335 -0.0403
    1AU     LIG  256   0.940   6.378   6.647  0.1064  0.2804 -0.0603
    1AU     LIG  257   0.535   6.577   6.790 -0.0868  0.2212  0.1146
    1AU     LIG  258   0.283   6.958   6.671 -0.1765 -0.0052  0.1248
    1AU     LIG  259  -0.034   7.064   6.487  0.0316 -0.0126  0.0690
    1AU    AUSL  260   2.132   7.159   6.614 -0.0749 -0.1115  0.0613
    1AU    AUSL  261   2.212   7.551   6.903  0.0570 -0.0660 -0.1722
    1AU     AUL  262   1.988   7.207   7.004 -0.0958  0.0172  0.0189
    1AU       S  263   1.968   7.750   6.631  0.2989  0.1273 -0.0550
    1AU     LIG  264   1.565   7.767   6.813 -0.0102 -0.7420 -0.0215
    1AU     LIG  265   1.197   7.779   6.963  0.0376  0.0390  0.1301
    1AU     LIG  266   0.946   7.898   7.288  0.5034  0.1145  0.0801
    1AU     LIG  267   0.706   8.064   7.673  0.2617 -0.2188 -0.2002
    1AU     LIG  268   0.575   8.299   7.995 -0.0758 -0.1251 -0.1742
    1AU     LIG  269   0.427   8.467   8.291  0.0581  0.0323 -0.3418
    1AU       S  270   1.805   7.302   6.370 -0.2246 -0.3072 -0.4002
    1AU     LIG  271   1.480   7.555   6.216 -0.1463 -0.0417  0.2163
    1AU     LIG  272   1.008   7.427   5.973  0.1006 -0.3625  0.0263
    1AU     LIG  273   0.612   7.423   6.066  0.1002 -0.2293  0.2350
    1AU     LIG  274   0.458   7.110   6.210 -0.2436  0.0380 -0.3370
    1AU     LIG  275   0.593   6.712   6.290 -0.0400 -0.0253  0.1889
    1AU     LIG  276   0.627   6.256   6.288  0.2947  0.1137  0.1391
    1AU    AUSL  277   3.045   7.474   7.420  0.0664 -0.0292 -0.0126
    1AU    AUSL  278   3.113   7.570   7.159  0.0117 -0.0897  0.0186
    1AU     AUL  279   3.418   7.392   7.156 -0.0261  0.0251  0.0130
    1AU       S  280   3.238   8.015   7.210  0.0392 -0.1627  0.0415
    1AU     LIG  281   3.551   8.299   7.149  0.4137  0.1109  0.1033
    1AU     LIG  282   3.793   8.630   7.003  0.2048  0.0093 -0.4805
    1AU     LIG  283   4.224   8.746   7.029 -0.2982 -0.2006 -0.2010
    1AU     LIG  284   4.476   9.046   6.875 -0.0509 -0.7192  0.0436
    1AU     LIG  285   4.778   9.304   6.682 -0.1264  0.0880 -0.0601
    1AU     LIG  286   4.865   9.727   6.549  0.1767  0.2206  0.1859
    1AU       S  287   3.363   7.715   7.620 -0.1875  0.0687 -0.4857
    1AU     LIG  288   3.621   8.088   7.633  0.0988 -0.2503 -0.1183
    1AU     LIG  289   3.949   8.271   7.412  0.2002  0.0757  0.3048
    1AU     LIG  290   4.178   8.257   6.906 -0.2480  0.2157 -0.0915
    1AU     LIG  291   4.185   8.541   6.586 -0.1201 -0.1813  0.0818
    1AU     LIG  292   4.470   8.630   6.210 -0.0233  0.1966 -0.0175
    1AU     LIG  293   4.784   8.313   6.100  0.0803 -0.2491  0.2270
    1AU    AUSL  294   3.056   7.217   7.565 -0.0290  0.0534 -0.0392
    1AU    AUSL  295   2.648   7.249   7.692  0.1231  0.0889  0.0190
    1AU     AUL  296   2.881   7.427   7.685  0.1085  0.0022  0.0103
    1AU       S  297   3.348   7.475   7.900 -0.4436 -0.1019 -0.1312
    1AU     LIG  298   3.475   7.822   8.075  0.0914  0.4251 -0.0121
    1AU     LIG  299   3.364   8.192   8.000  0.2270  0.0690 -0.2301
    1AU     LIG  300   3.160   8.644   8.028  0.2656  0.2117  0.1761
    1AU     LIG  301   3.075   8.845   7.675 -0.1267  0.0044  0.1365
    1AU     LIG  302   3.284   8.886   7.285  0.1184  0.4214 -0.0017
    1AU     LIG  303   3.253   8.669   6.915  0.0622  0.1246 -0.1495
    1AU       S  304   2.738   7.250   8.225 -0.0367 -0.1342  0.0469
    1AU     LIG  305   3.043   7.619   8.370  0.0483  0.5655 -0.0526
    1AU     LIG  306   2.905   7.957   8.228  0.0400 -0.2320 -0.1858
    1AU     LIG  307   2.875   8.272   7.927  0.1197 -0.0625 -0.0302
    1AU     LIG  308   2.685   8.556   7.649  0.0876  0.0011 -0.1134
    1AU     LIG  309   2.526   8.953   7.683 -0.0391 -0.1874  0.1148
    1AU     LIG  310   2.482   9.374   7.447 -0.4894  0.0442  0.0846
    1AU    AUSL  311   3.267   7.295   7.402 -0.0664 -0.0133  0.0463
    1AU    AUSL  312   3.298   6.829   7.362 -0.0684 -0.0387  0.0245
    1AU     AUL  313   3.155   6.955   7.717  0.0006  0.0190 -0.1344
    1AU       S  314   3.729   6.726   7.443  0.2764  0.1817  0.2240
    1AU     LIG  315   3.895   6.412   7.676  0.0991 -0.1001  0.1302
    1AU     LIG  316   4.096   6.011   7.649 -0.0525  0.0733 -0.6949
    1AU     LIG  317   4.325   5.730   7.646 -0.3380  0.5229  0.2941
    1AU     LIG  318   4.791   5.830   7.456 -0.4743 -0.1033  0.0853
    1AU     LIG  319   5.248   5.783   7.569  0.0655 -0.6289  0.0813
    1AU     LIG  320   5.486   5.685   7.192 -0.0514  0.1829  0.3560
    1AU       S  321   3.631   7.435   7.681 -0.0195  0.0798  0.0178
    1AU     LIG  322   4.047   7.370   7.358  0.0644 -0.0801 -0.0055
    1AU     LIG  323   4.517   7.399   7.197  0.1165 -0.1431 -0.0711
    1AU     LIG  324   4.805   7.196   7.082  0.3224  0.1202 -0.0200
    1AU     LIG  325   5.233   7.043   6.822  0.3951  0.0940 -0.0284
    1AU     LIG  326   5.645   6.896   6.778 -0.0784  0.0949  0.1523
    1AU     LIG  327   6.074   6.886   6.967 -0.2492  0.0997 -0.2425
    1AU    AUSL  328   2.348   6.636   6.575 -0.0159  0.0233  0.0057
    1AU    AUSL  329   2.586   7.131   6.342  0.0901  0.0846  0.0491
    1AU     AUL  330   2.397   6.757   6.274  0.0858  0.0223 -0.0999
    1AU       S  331   2.023   6.383   6.327 -0.2846  0.0105 -0.0370
    1AU     LIG  332   1.764   6.058   6.245  0.0938  0.2013 -0.1695
    1AU     LIG  333   1.593   5.542   6.278 -0.0433 -0.3658 -0.0840
    1AU     LIG  334   1.251   5.360   6.735  0.2590 -0.0921 -0.2056
    1AU     LIG  335   1.173   5.570   7.097  0.0927 -0.0953  0.2166
    1AU     LIG  336   1.040   5.490   7.574  0.0854 -0.3141  0.0854
    1AU     LIG  337   0.616   5.251   7.829  0.0425 -0.0807  0.0579
    1AU       S  338   2.600   7.065   5.875 -0.0204 -0.2324 -0.2923
    1AU     LIG  339   2.156   7.142   5.779 -0.0761  0.0408 -0.0864
    1AU     LIG  340   1.754   7.088   5.938 -0.0964  0.1689  0.2805
    1AU     LIG  341   1.378   7.117   6.030 -0.1131  0.0840  0.0078
    1AU     LIG  342   0.997   7.065   6.336  0.1385  0.1282 -0.1276
    1AU     LIG  343   0.664   7.256   6.686  0.1105  0.1184 -0.1793
    1AU     LIG  344   0.729   7.665   6.810  0.2646  0.4062 -0.1124
    1AU    AUSL  345   2.105   6.705   6.732  0.0037 -0.0313  0.0334
    1AU    AUSL  346   2.528   6.396   6.730  0.0584 -0.0458 -0.0437
    1AU     AUL  347   2.219   6.472   7.020 -0.0570 -0.0528 -0.0508
    1AU       S  348   1.905   6.492   6.453  0.0758 -0.0266 -0.1372
    1AU     LIG  349   1.517   6.405   6.763 -0.0721  0.0314  0.1404
    1AU     LIG  350   1.222   6.565   7.129 -0.1662 -0.1441 -0.5254
    1AU     LIG  351   0.824   6.492   7.359  0.2527 -0.4673  0.0191
    1AU     LIG  352   0.365   6.397   7.283  0.1167  0.0842 -0.0342
    1AU     LIG  353  -0.127   6.351   7.131 -0.3665 -0.0251 -0.2057
    1AU     LIG  354  -0.431   6.630   6.885 -0.0387  0.1813 -0.2575
    1AU       S  355   2.240   6.052   6.602 -0.5692 -0.2365 -0.1361
    1AU     LIG  356   2.124   5.766   6.286  0.3566  0.7879  0.0299
    1AU     LIG  357   2.203   5.318   6.160  0.0560  0.5432 -0.2757
    1AU     LIG  358   2.147   4.850   6.111 -0.2651 -0.0271 -0.2222
    1AU     LIG  359   2.492   4.754   6.201  0.1777 -0.0897  0.0647
    1AU     LIG  360   2.823   4.659   6.316 -0.2127 -0.4039 -0.6098
    1AU     LIG  361   3.275   4.589   6.437 -0.1390  0.1288  0.2882
    1AU    AUSL  362   3.351   6.874   7.091  0.0353  0.1216  0.0169
    1AU    AUSL  363   3.085   6.663   7.460  0.0100 -0.0412 -0.0322
    1AU     AUL  364   3.272   7.029   7.489  0.0032  0.0249 -0.0399
    1AU       S  365   3.339   6.340   7.707  0.0690  0.4196  0.0496
    1AU     LIG  366   3.564   5.993   7.842 -0.0284 -0.2923  0.0828
    1AU     LIG  367   3.767   5.638   7.551 -0.1834 -0.2838 -0.1446
    1AU     LIG  368   4.125   5.361   7.356  0.1833 -0.1234  0.2170
    1AU     LIG  369   4.588   5.242   7.269 -0.0370  0.0092  0.1955
    1AU     LIG  370   4.874   4.896   7.041  0.3177 -0.0628 -0.0593
    1AU     LIG  371   4.674   4.507   6.734 -0.1107  0.2490  0.4207
    1AU       S  372   3.683   6.680   7.213 -0.1476 -0.1043  0.4488
    1AU     LIG  373   4.085   6.415   7.149  0.0560 -0.0449  0.0991
    1AU     LIG  374   4.450   6.422   7.488  0.3434 -0.2151 -0.3071
    1AU     LIG  375   4.633   6.654   7.813 -0.2279  0.0648  0.1440
    1AU     LIG  376   4.767   6.438   8.093  0.0002 -0.1232  0.3781
    1AU     LIG  377   5.130   6.371   8.150 -0.1458  0.1305  0.0564
    1AU     LIG  378   5.211   6.400   8.625  0.0647 -0.0172 -0.1074
    1AU    AUSL  379   3.367   7.117   7.221  0.0188  0.0375 -0.0213
    1AU    AUSL  380   3.356   6.860   6.791  0.0107 -0.0172 -0.0108
    1AU     AUL  381   3.364   7.274   6.876  0.0113 -0.0509  0.0686
    1AU       S  382   3.721   6.747   6.709 -0.0049 -0.0608  0.1462
    1AU     LIG  383   4.165   6.685   6.657 -0.1455 -0.1624 -0.3930
    1AU     LIG  384   4.506   6.981   6.594  0.2171 -0.0807 -0.4490
    1AU     LIG  385   4.886   7.047   6.454  0.3988 -0.0208  0.2202
    1AU     LIG  386   5.232   7.230   6.313 -0.2303  0.2361  0.3509
    1AU     LIG  387   5.493   7.490   6.444 -0.0717  0.2223 -0.2858
    1AU     LIG  388   5.377   7.946   6.300 -0.0241 -0.2159 -0.0380
    1AU       S  389   3.764   6.889   7.379  0.0777 -0.1518 -0.1986
    1AU     LIG  390   4.244   6.928   7.131  0.5377 -0.1562 -0.2955
    1AU     LIG  391   4.531   6.692   7.021 -0.0915 -0.0353 -0.0598
    1AU     LIG  392   4.700   6.236   7.026 -0.0340 -0.2996  0.0694
    1AU     LIG  393   5.089   5.995   7.054  0.0332  0.2704 -0.1063
    1AU     LIG  394   5.414   5.909   6.667  0.0101  0.1520 -0.0148
    1AU     LIG  395   5.554   5.693   6.366  0.0898 -0.1578 -0.1291
    1AU    AUSL  396   2.621   7.708   7.119 -0.0118  0.0383  0.0162
    1AU    AUSL  397   2.853   7.634   7.264 -0.0208 -0.0051  0.0371
    1AU     AUL  398   2.819   7.673   7.485  0.0274 -0.0439 -0.0742
    1AU       S  399   3.003   8.055   7.206  0.0378 -0.5915  0.1268
    1AU     LIG  400   3.219   8.402   7.516  0.2982 -0.2806  0.4838
    1AU     LIG  401   3.569   8.617   7.681 -0.1633 -0.1637 -0.1032
    1AU     LIG  402   4.011   8.692   7.769 -0.2475  0.4756 -0.3400
    1AU     LIG  403   4.202   8.590   8.184 -0.0728  0.2970  0.0045
    1AU     LIG  404   4.138   8.374   8.470 -0.0507 -0.1104  0.0428
    1AU     LIG  405   4.300   8.126   8.647 -0.1972 -0.1333  0.3612
    1AU       S  406   2.481   8.190   7.168 -0.1309 -0.1602  0.2089
    1AU     LIG  407   2.310   8.604   7.282 -0.2071 -0.0604  0.3909
    1AU     LIG  408   2.128   9.000   7.308  0.0455  0.1654  0.1232
    1AU     LIG  409   1.927   9.201   7.635  0.1061  0.1225  0.0784
    1AU     LIG  410   1.908   9.131   8.040 -0.1250 -0.1802  0.2001
    1AU     LIG  411   1.875   9.120   8.530  0.1131  0.2921  0.1015
    1AU     LIG  412   2.121   8.972   8.901  0.2144 -0.3629  0.0332
    1AU    AUSL  413   2.544   7.629   7.391 -0.0049  0.0780  0.0176
    1AU    AUSL  414   2.238   7.445   7.407 -0.0231 -0.0030 -0.0102
    1AU     AUL  415   2.631   7.559   7.691 -0.0622  0.0273  0.0768
    1AU       S  416   2.326   8.035   7.482 -0.2601  0.5027 -0.0745
    1AU     LIG  417   2.202   8.140   7.904 -0.1825  0.3312 -0.3474
    1AU     LIG  418   1.953   8.353   8.186  0.0359  0.0517 -0.0865
    1AU     LIG  419   1.652   8.577   7.881  0.0569  0.2891 -0.1112
    1AU     LIG  420   1.430   8.908   8.062 -0.0941 -0.1273 -0.3044
    1AU     LIG  421   1.265   9.109   8.443  0.0602 -0.2570  0.0302
    1AU     LIG  422   1.401   9.250   8.726 -0.1897 -0.0940  0.0565
    1AU       S  423   1.933   7.708   7.579 -0.2468  0.0449 -0.2915
    1AU     LIG  424   1.821   8.173   7.647 -0.2507  0.1588 -0.0899
    1AU     LIG  425   1.786   8.628   7.405  0.2342  0.0561 -0.1908
    1AU     LIG  426   1.941   8.672   6.968  0.0449  0.2464 -0.3441
    1AU     LIG  427   2.350   8.998   6.870 -0.2409 -0.1045 -0.0825
    1AU     LIG  428   2.548   9.356   6.972  0.1305  0.4688 -0.0555
    1AU     LIG  429   2.559   9.723   6.778  0.3217 -0.0604  0.1477
    1AU    AUSL  430   2.345   7.607   7.167  0.0775  0.0175  0.0064
    1AU    AUSL  431   2.471   7.608   6.715 -0.0811 -0.0115 -0.1185
    1AU     AUL  432   2.581   7.811   6.862 -0.0437 -0.0504  0.0976
    1AU       S  433   2.231   7.911   6.514  0.2324  0.1934  0.3007
    1AU     LIG  434   1.959   8.217   6.660 -0.1043 -0.1569 -0.1066
    1AU     LIG  435   1.578   8.496   6.664 -0.0414 -0.0321 -0.2337
    1AU     LIG  436   1.167   8.603   6.763  0.0675 -0.1059  0.3506
    1AU     LIG  437   0.685   8.561   6.723 -0.0944  0.0670  0.0376
    1AU     LIG  438   0.231   8.579   6.662 -0.0664 -0.1274  0.0405
    1AU     LIG  439  -0.153   8.675   6.928 -0.1639  0.1405 -0.0984
    1AU       S  440   2.174   8.010   7.263 -0.1401 -0.5402  0.0480
    1AU     LIG  441   1.820   8.111   7.115 -0.1626  0.2732  0.2070
    1AU     LIG  442   1.459   8.341   7.125  0.5301 -0.0445  0.0274
    1AU     LIG  443   0.966   8.488   7.195  0.1969  0.3028  0.2334
    1AU     LIG  444   0.702   8.849   7.209 -0.2338 -0.0237  0.1044
    1AU     LIG  445   0.292   8.831   7.073  0.0913  0.0312 -0.2138
    1AU     LIG  446  -0.128   9.167   6.979 -0.0872  0.0962  0.0505
    1AU    AUSL  447   3.024   6.867   6.466  0.0191  0.0404  0.0149
    1AU    AUSL  448   2.649   6.843   6.369  0.0393  0.0931 -0.0897
    1AU     AUL  449   2.688   6.589   6.341  0.0068  0.0708 -0.0179
    1AU       S  450   3.287   6.645   6.127  0.3426 -0.1188 -0.5782
    1AU     LIG  451   3.671   6.876   5.959  0.3170  0.3544  0.3164
    1AU     LIG  452   4.144   6.775   5.968  0.1430 -0.1121  0.0466
    1AU     LIG  453   4.517   6.803   6.126 -0.1956 -0.1048  0.4244
    1AU     LIG  454   4.919   6.613   6.226 -0.2195  0.1334  0.1039
    1AU     LIG  455   5.286   6.723   6.469  0.1542 -0.1482 -0.0092
    1AU     LIG  456   5.614   6.405   6.740 -0.1132 -0.1741 -0.0184
    1AU       S  457   2.772   6.784   5.865  0.1104 -0.0218 -0.0856
    1AU     LIG  458   2.885   6.558   5.510  0.1151 -0.2446 -0.0436
    1AU     LIG  459   3.227   6.437   5.283  0.2309  0.3803  0.0467
    1AU     LIG  460   3.647   6.588   5.110  0.0909  0.2482  0.1925
    1AU     LIG  461   3.568   6.976   5.232 -0.2022 -0.2197 -0.0425
    1AU     LIG  462   3.259   7.371   5.206  0.0674  0.1940  0.2700
    1AU     LIG  463   2.946   7.445   5.074  0.0646 -0.0823 -0.1374
    1AU    AUSL  464   3.149   6.674   6.643 -0.0354 -0.0251 -0.0912
    1AU    AUSL  465   3.234   7.096   6.686 -0.0694  0.0515 -0.0066
    1AU     AUL  466   3.246   7.072   6.466  0.1061 -0.0292  0.0699
    1AU       S  467   3.458   6.522   6.357  0.0073  0.4528 -0.1520
    1AU     LIG  468   3.881   6.543   6.315  0.0922  0.1031  0.1727
    1AU     LIG  469   4.228   6.325   6.268 -0.3792  0.1141  0.0811
    1AU     LIG  470   4.597   6.423   6.532  0.0353 -0.3982 -0.1650
    1AU     LIG  471   4.898   6.618   6.767 -0.0996 -0.0924  0.1607
    1AU     LIG  472   5.233   6.499   7.036 -0.1095  0.1967  0.1658
    1AU     LIG  473   5.503   6.197   7.162 -0.0404  0.0941 -0.1423
    1AU       S  474   3.742   6.855   6.671  0.0769 -0.2598  0.2618
    1AU     LIG  475   4.060   7.068   6.338 -0.1314  0.0101  0.1187
    1AU     LIG  476   4.341   7.297   6.212 -0.1496 -0.1733  0.2389
    1AU     LIG  477   4.392   7.728   6.080 -0.1487  0.1579  0.2725
    1AU     LIG  478   4.049   7.876   5.835  0.2089  0.0257  0.1530
    1AU     LIG  479   3.606   8.075   5.836 -0.1028 -0.1795 -0.0304
    1AU     LIG  480   3.356   8.420   5.852  0.1732 -0.2868 -0.4737
    1AU    AUSL  481   2.903   6.626   6.517  0.0408 -0.0524  0.0219
    1AU    AUSL  482   3.081   6.466   6.823  0.0466  0.0495 -0.0755
    1AU     AUL  483   2.740   6.378   6.519  0.0002  0.0972 -0.0455
    1AU       S  484   3.424   6.213   6.787 -0.2219 -0.1400 -0.0797
    1AU     LIG  485   3.881   6.204   6.718  0.1926 -0.0230  0.0137
    1AU     LIG  486   4.290   6.038   6.773 -0.0551 -0.0451 -0.1221
    1AU     LIG  487   4.625   5.819   6.618 -0.1273  0.3174  0.1649
    1AU     LIG  488   4.984   5.587   6.565  0.0924 -0.0186 -0.0852
    1AU     LIG  489   5.164   5.216   6.456 -0.0089 -0.2962  0.1939
    1AU     LIG  490   5.615   5.172   6.275  0.1579  0.5543  0.1213
    1AU       S  491   3.198   6.440   6.262 -0.0611  0.5145 -0.2014
    1AU     LIG  492   3.140   5.985   6.124 -0.2967  0.0188 -0.2070
    1AU     LIG  493   2.900   5.711   6.440  0.4155 -0.2301 -0.3249
    1AU     LIG  494   2.936   5.455   6.693  0.0193  0.1134 -0.0784
    1AU     LIG  495   2.992   5.011   6.730 -0.3232 -0.0738  0.0522
    1AU     LIG  496   3.409   4.815   6.926 -0.0270 -0.4998  0.1508
    1AU     LIG  497   3.392   4.548   7.277 -0.3067  0.2281  0.2121
    1AU    AUSL  498   2.215   7.189   7.512 -0.0794 -0.0724  0.0397
    1AU    AUSL  499   2.053   7.204   7.277  0.0950  0.0553 -0.0249
    1AU     AUL  500   2.348   7.128   7.636  0.0209 -0.0276 -0.0510
    1AU       S  501   1.873   7.362   7.730  0.0940 -0.1944  0.3550
    1AU     LIG  502   1.445   7.284   7.994  0.1770 -0.2692 -0.0962
    1AU     LIG  503   1.200   6.997   7.919 -0.1073 -0.0058 -0.0710
    1AU     LIG  504   0.947   6.703   7.794  0.6128  0.2480  0.0669
    1AU     LIG  505   0.587   6.491   7.840  0.1308  0.1409 -0.1067
    1AU     LIG  506   0.335   6.154   7.750  0.1575 -0.0485  0.3977
    1AU     LIG  507  -0.097   6.034   7.691  0.1258  0.0695  0.3755
    1AU       S  508   1.574   7.099   7.292  0.3666  0.0976  0.4082
    1AU     LIG  509   1.504   7.517   7.353 -0.1055  0.1098  0.0617
    1AU     LIG  510   1.418   7.940   7.393  0.0914 -0.4359  0.1441
    1AU     LIG  511   1.232   8.339   7.593  0.1898  0.1224  0.0409
    1AU     LIG  512   1.314   8.766   7.519 -0.0533  0.1081  0.1772
    1AU     LIG  513   0.984   9.109   7.539 -0.1271  0.2490 -0.0673
    1AU     LIG  514   0.729   9.351   7.279 -0.3664  0.1081 -0.0315
    1AU    AUSL  515   2.439   7.396   7.574 -0.0279 -0.0188  0.0219
    1AU    AUSL  516   2.580   6.973   7.748  0.0195  0.0866  0.0310
    1AU     AUL  517   2.357   7.211   7.905 -0.0167 -0.0659 -0.0313
    1AU       S  518   2.107   7.689   7.741  0.1968  0.0691 -0.0736
    1AU     LIG  519   1.784   7.877   8.124  0.2112  0.4465 -0.0803
    1AU     LIG  520   1.523   7.630   8.484 -0.1541  0.0990 -0.0537
    1AU     LIG  521   1.237   7.339   8.454  0.0668 -0.3164 -0.0456
    1AU     LIG  522   1.223   6.862   8.423  0.0446 -0.4229 -0.0442
    1AU     LIG  523   1.326   6.511   8.157 -0.2327 -0.1801  0.0422
    1AU     LIG  524   1.059   6.230   7.971 -0.1077  0.0165  0.0064
    1AU       S  525   2.700   6.845   8.160  0.1318 -0.1182 -0.0022
    1AU     LIG  526   2.655   6.472   8.372 -0.0011 -0.1618 -0.1923
    1AU     LIG  527   2.449   6.077   8.292 -0.0593  0.1899  0.1950
    1AU     LIG  528   2.093   5.871   8.439  0.0537  0.4239 -0.3070
    1AU     LIG  529   1.685   5.868   8.286  0.2364 -0.2622 -0.2560
    1AU     LIG  530   1.256   5.792   8.069  0.0684  0.1781 -0.1413
    1AU     LIG  531   0.721   5.867   7.988  0.0301  0.1858 -0.2601
    1AU    AUSL  532   2.928   6.405   7.060  0.0132  0.0187 -0.0022
    1AU    AUSL  533   3.153   6.518   7.202  0.0077 -0.0355  0.0388
    1AU     AUL  534   2.768   6.330   7.065 -0.0321 -0.0049  0.0160
    1AU       S  535   3.435   6.261   7.389 -0.3018 -0.3346 -0.3060
    1AU     LIG  536   3.718   6.168   7.300 -0.0691  0.1365 -0.4968
    1AU     LIG  537   4.086   5.873   7.196 -0.4683 -0.0533 -0.0801
    1AU     LIG  538   4.487   5.723   7.112  0.0527  0.0115  0.2770
    1AU     LIG  539   4.971   5.556   7.090 -0.6320 -0.1226 -0.0869
    1AU     LIG  540   5.167   5.265   7.003 -0.5873 -0.1765  0.0296
    1AU     LIG  541   5.447   4.966   6.778 -0.0706  0.1199 -0.5613
    1AU       S  542   3.247   6.079   6.949  0.5826  0.1571  0.1772
    1AU     LIG  543   3.566   5.781   7.096 -0.1178 -0.0243  0.0097
    1AU     LIG  544   3.750   5.366   7.069 -0.0781  0.0755  0.1335
    1AU     LIG  545   4.079   5.221   6.900  0.0879  0.1964 -0.0597
    1AU     LIG  546   4.333   4.752   6.941 -0.2119 -0.1009  0.1435
    1AU     LIG  547   4.309   4.267   7.043  0.1173 -0.0429 -0.0655
    1AU     LIG  548   4.066   3.890   7.345 -0.0194 -0.2496 -0.1521
    1AU    AUSL  549   2.815   6.389   6.784 -0.0218  0.0872 -0.0620
    1AU    AUSL  550   2.481   6.352   7.015 -0.0560  0.0147 -0.0023
    1AU     AUL  551   2.688   6.087   6.925 -0.0364 -0.0515  0.0003
    1AU       S  552   3.168   6.124   6.661  0.1342  0.0297 -0.0686
    1AU     LIG  553   3.366   5.766   6.550  0.0569 -0.4044  0.4989
    1AU     LIG  554   3.795   5.615   6.652 -0.3614  0.0140  0.2458
    1AU     LIG  555   4.225   5.519   6.581 -0.0711  0.2222  0.2566
    1AU     LIG  556   4.530   5.451   6.302  0.1584 -0.0937 -0.0634
    1AU     LIG  557   4.604   5.219   5.915  0.0727  0.1823  0.1289
    1AU     LIG  558   4.783   5.026   5.955 -0.1512 -0.0800 -0.2359
    1AU       S  559   2.152   5.957   6.902 -0.1071 -0.1395 -0.1906
    1AU     LIG  560   2.346   5.483   6.658 -0.1166 -0.1066 -0.2886
    1AU     LIG  561   2.443   5.042   6.738  0.1233  0.5764  0.1828
    1AU     LIG  562   2.687   4.651   6.920  0.3705 -0.2856  0.0745
    1AU     LIG  563   2.463   4.296   7.194 -0.3570 -0.3807  0.3524
    1AU     LIG  564   2.299   4.488   7.533  0.0216  0.0300 -0.1807
    1AU     LIG  565   2.048   4.679   7.894 -0.0250  0.0327 -0.0149
    2POPC   NC3  566   5.070   7.692   9.685  0.0491 -0.0413  0.1362
    2POPC   PO4  567   5.495   7.444   9.369 -0.0793  0.1994  0.4613
    2POPC   GL1  568   5.527   7.415   8.933  0.1571 -0.1714  0.2935
    2POPC   GL2  569   5.841   7.556   8.762  0.1852  0.2461 -0.4027
    2POPC   C1A  570   5.325   7.450   8.593  0.3297  0.2307  0.3830
    2POPC   D2A  571   5.263   7.447   8.074  0.0208 -0.0623  0.1537
    2POPC   C3A  572   5.319   7.162   7.814 -0.0250 -0.1053 -0.0074
    2POPC   C4A  573   5.145   6.806   7.806  0.0040  0.1857  0.1819
    2POPC   C1B  574   5.807   7.497   8.336  0.1912  0.4016  0.1187
    2POPC   C2B  575   5.703   7.438   7.798 -0.1445 -0.0335 -0.0729
    2POPC   C3B  576   5.353   7.536   7.541 -0.1031  0.0256  0.0761
    2POPC   C4B  577   4.996   7.676   7.272 -0.1381 -0.2013 -0.0248
    3POPC   NC3  578   9.517   6.108   8.946  0.2983 -0.1702  0.2549
    3POPC   PO4  579   9.504   5.678   9.048 -0.1195 -0.1709  0.0148
    3POPC   GL1  580   9.543   5.635   8.567  0.2374  0.0666 -0.0919
    3POPC   GL2  581   9.414   5.518   8.278  0.0649 -0.0842 -0.0619
    3POPC   C1A  582   9.800   5.890   8.267  0.3972  0.1575  0.0320
    3POPC   D2A  583   9.880   6.305   8.083  0.4906  0.1512 -0.0554
    3POPC   C3A  584  10.310   6.484   8.049 -0.1053 -0.2241 -0.0151
    3POPC   C4A  585  10.491   6.640   8.362 -0.1796 -0.0667 -0.2230
    3POPC   C1B  586   9.400   5.413   7.897 -0.1753 -0.1344  0.3092
    3POPC   C2B  587   9.263   5.241   7.483 -0.0447 -0.0368 -0.1753
    3POPC   C3B  588   9.533   5.125   7.134 -0.2133 -0.2271 -0.0538
    3POPC   C4B  589   9.573   4.909   6.701 -0.0249 -0.0850  0.1082
    4POPC   NC3  590   6.726   6.855   8.536  0.0758 -0.1503 -0.3060
    4POPC   PO4  591   6.361   6.933   8.758 -0.1698 -0.0342 -0.3418
    4POPC   GL1  592   6.219   7.210   8.366  0.1369  0.2223 -0.1424
    4POPC   GL2  593   6.293   7.534   8.500 -0.1422  0.4036  0.0472
    4POPC   C1A  594   6.147   7.296   7.947 -0.1439 -0.1604  0.2235
    4POPC   D2A  595   6.151   7.218   7.503  0.1286 -0.3887 -0.0282
    4POPC   C3A  596   5.711   7.215   7.271 -0.0601 -0.1045  0.0182
    4POPC   C4A  597   5.504   7.451   6.985 -0.1816 -0.0068  0.1568
    4POPC   C1B  598   6.171   7.758   8.104  0.1826  0.1969 -0.1765
    4POPC   C2B  599   6.187   7.706   7.643 -0.0331 -0.2666 -0.2645
    4POPC   C3B  600   6.459   7.681   7.321  0.2287 -0.2102 -0.1311
    4POPC   C4B  601   6.826   7.559   7.174 -0.3189 -0.0488  0.0965
    5POPC   NC3  602   1.825   5.638  10.298  0.2049  0.1115  0.0888
    5POPC   PO4  603   1.887   5.754   9.900  0.0880 -0.1901 -0.0522
    5POPC   GL1  604   1.904   5.410   9.564  0.0291  0.0667 -0.2138
    5POPC   GL2  605   1.787   5.459   9.301  0.0532 -0.1104 -0.0053
    5POPC   C1A  606   2.165   5.275   9.155  0.1871 -0.0517  0.0991
    5POPC   D2A  607   2.444   5.048   8.896  0.1212 -0.4097  0.1337
    5POPC   C3A  608   2.463   4.933   8.409  0.0317 -0.2894 -0.0108
    5POPC   C4A  609   2.348   5.039   7.877  0.1062 -0.1102  0.1845
    5POPC   C1B  610   1.588   5.313   8.857  0.1430 -0.1851 -0.1541
    5POPC   C2B  611   1.536   5.417   8.429 -0.1002 -0.1158 -0.0056
    5POPC   C3B  612   1.322   5.270   8.173 -0.0434  0.2517  0.0653
    5POPC   C4B  613   0.868   5.394   8.193 -0.1540  0.0777 -0.0333
    6POPC   NC3  614   2.701   7.547   9.925  0.0053 -0.0084  0.2470
    6POPC   PO4  615   2.736   8.007  10.130 -0.3228  0.1594  0.1520
    6POPC   GL1  616   2.367   8.092   9.970 -0.0251  0.2661 -0.1382
    6POPC   GL2  617   2.360   7.781   9.716 -0.0955 -0.1872  0.5202
    6POPC   C1A  618   2.048   8.358   9.595 -0.0320  0.2434 -0.0532
    6POPC   D2A  619   2.027   8.079   9.245 -0.0149  0.0929  0.1774
    6POPC   C3A  620   2.309   7.870   8.926  0.0176  0.0456  0.1274
    6POPC   C4A  621   2.574   7.763   8.516 -0.1768  0.2875  0.2856
    6POPC   C1B  622   2.082   7.607   9.379 -0.1556  0.2863  0.2905
    6POPC   C2B  623   1.811   7.724   8.974 -0.0909  0.1912 -0.3472
    6POPC   C3B  624   1.741   8.040   8.698  0.0504 -0.0169  0.1252
    6POPC   C4B  625   1.379   8.109   8.454  0.0636 -0.3538 -0.3206
    7POPC   NC3  626   0.246   9.383   9.763  0.2077  0.1692 -0.1039
    7POPC   PO4  627   0.343   9.008   9.659  0.2194  0.0650 -0.1604
    7POPC   GL1  628   0.387   9.054   9.219  0.0023  0.4288 -0.2092
    7POPC   GL2  629   0.686   8.893   9.098 -0.4144  0.2776 -0.0437
    7POPC   C1A  630   0.266   9.331   8.923  0.2800 -0.3274  0.4069
    7POPC   D2A  631   0.012   9.613   8.755 -0.1348  0.0655  0.0925
    7POPC   C3A  632  -0.248   9.694   8.452  0.1339  0.1476 -0.0370
    7POPC   C4A  633  -0.459   9.721   8.039 -0.0035 -0.0627 -0.1252
    7POPC   C1B  634   0.881   8.912   8.742  0.2672  0.2730  0.1033
    7POPC   C2B  635   0.851   8.863   8.189 -0.0423  0.1274  0.3737
    7POPC   C3B  636   0.655   8.782   7.774 -0.1067 -0.3658 -0.1872
    7POPC   C4B  637   0.261   9.048   7.555 -0.3767  0.1443  0.2867
    8POPC   NC3  638   8.501   9.891   8.881 -0.0165 -0.1523  0.4126
    8POPC   PO4  639   8.300  10.131   8.606 -0.1144 -0.1849 -0.1003
    8POPC   GL1  640   8.575  10.073   8.305  0.0837 -0.0236  0.2372
    8POPC   GL2  641   8.662   9.837   8.339 -0.1708 -0.2498  0.0940
    8POPC   C1A  642   8.731  10.342   8.014 -0.0015  0.1129  0.0281
    8POPC   D2A  643   8.904  10.230   7.653 -0.0357  0.1582  0.0415
    8POPC   C3A  644   9.303  10.283   7.718 -0.0099 -0.3300  0.0267
    8POPC   C4A  645   9.776  10.224   7.777  0.1812 -0.1007 -0.2465
    8POPC   C1B  646   8.566   9.781   7.890 -0.2553  0.0850 -0.1657
    8POPC   C2B  647   8.388  10.035   7.541 -0.2895 -0.4902  0.0821
    8POPC   C3B  648   8.296  10.136   7.058  0.2016 -0.2217  0.1249
    8POPC   C4B  649   8.067  10.467   6.953 -0.1269 -0.0175 -0.3200
    9POPC   NC3  650   6.707   6.463   9.258 -0.0523 -0.0896 -0.2148
    9POPC   PO4  651   6.632   6.472   8.894  0.0611 -0.1748 -0.0201
    9POPC   GL1  652   6.915   6.380   8.526  0.0979  0.0467  0.0063
    9POPC   GL2  653   7.088   6.472   8.301 -0.1320  0.0274 -0.2312
    9POPC   C1A  654   6.804   6.067   8.179 -0.2314  0.2611 -0.2726
    9POPC   D2A  655   6.561   5.969   7.752 -0.0550  0.2013  0.0865
    9POPC   C3A  656   6.513   5.708   7.352  0.4847 -0.3326  0.2597
    9POPC   C4A  657   6.558   5.301   7.257  0.2492  0.0800 -0.2111
    9POPC   C1B  658   7.008   6.478   7.895  0.0325  0.0379  0.2221
    9POPC   C2B  659   6.666   6.463   7.552  0.1547 -0.3065  0.0542
    9POPC   C3B  660   6.344   6.332   7.223 -0.0549  0.2695 -0.1208
    9POPC   C4B  661   6.022   6.071   7.194  0.0078  0.0182 -0.0778
   10POPC   NC3  662   7.049   3.840   9.281 -0.0689 -0.1795  0.1547
   10POPC   PO4  663   6.541   3.736   9.089 -0.0258 -0.1949 -0.0810
   10POPC   GL1  664   6.252   3.557   8.757  0.1654 -0.1624  0.0725
   10POPC   GL2  665   6.201   3.171   8.603 -0.2132 -0.0734 -0.0830
   10POPC   C1A  666   5.967   3.701   8.360  0.0237  0.2315  0.0554
   10POPC   D2A  667   5.781   3.623   7.912  0.2131  0.0228  0.3959
   10POPC   C3A  668   5.787   3.192   7.888 -0.3195  0.3000 -0.0292
   10POPC   C4A  669   5.947   2.867   8.032  0.0537  0.2147  0.0137
   10POPC   C1B  670   6.219   3.338   8.162  0.0066  0.1609 -0.1624
   10POPC   C2B  671   6.261   3.682   7.840 -0.1732 -0.2393 -0.1365
   10POPC   C3B  672   6.045   4.073   7.738 -0.0486 -0.1200  0.0931
   10POPC   C4B  673   6.010   4.541   7.898 -0.3306 -0.0867 -0.0379
   11POPC   NC3  674   6.692   8.675   9.099  0.1928  0.1330  0.1250
   11POPC   PO4  675   6.457   8.940   9.196  0.0872 -0.1994  0.2577
   11POPC   GL1  676   6.410   8.864   8.702  0.4100  0.2655 -0.0972
   11POPC   GL2  677   6.528   8.576   8.517 -0.0708 -0.1175  0.0921
   11POPC   C1A  678   6.150   8.734   8.265 -0.0141  0.1104  0.1813
   11POPC   D2A  679   5.738   8.785   7.942 -0.0923 -0.3051 -0.3373
   11POPC   C3A  680   5.694   8.401   7.708  0.0728 -0.1848  0.0831
   11POPC   C4A  681   5.257   8.221   7.504 -0.0435 -0.0639 -0.2705
   11POPC   C1B  682   6.835   8.260   8.413 -0.1243 -0.2321  0.0472
   11POPC   C2B  683   6.681   8.078   8.017  0.0835 -0.0397  0.2320
   11POPC   C3B  684   6.745   7.695   7.728  0.0503 -0.1687 -0.1998
   11POPC   C4B  685   6.752   7.219   7.518  0.0135  0.2850  0.1835
   12POPC   NC3  686   2.935   0.317   9.884  0.2839  0.2285 -0.1332
   12POPC   PO4  687   3.169   0.503   9.600 -0.5106 -0.1970  0.2119
   12POPC   GL1  688   3.200   0.398   9.186  0.2448  0.0988 -0.0893
   12POPC   GL2  689   2.842   0.289   9.213 -0.0466 -0.0940  0.0703
   12POPC   C1A  690   3.171   0.512   8.736  0.3432  0.0720 -0.0276
   12POPC   D2A  691   3.475   0.570   8.365  0.2230 -0.4222  0.2261
   12POPC   C3A  692   3.622   0.446   7.981 -0.2411  0.0140  0.0202
   12POPC   C4A  693   3.420   0.290   7.616  0.2340 -0.1999  0.2576
   12POPC   C1B  694   2.722   0.261   8.815 -0.2124  0.1424  0.0094
   12POPC   C2B  695   2.678   0.505   8.539 -0.4048  0.2176 -0.1104
   12POPC   C3B  696   2.961   0.572   8.249  0.1101  0.0703 -0.2664
   12POPC   C4B  697   3.191   0.651   7.908 -0.0541 -0.1039 -0.1089
   13POPC   NC3  698   4.062   4.715   9.646  0.1508  0.2971  0.4273
   13POPC   PO4  699   4.163   4.216   9.624 -0.0595  0.0029  0.1849
   13POPC   GL1  700   4.320   4.346   9.267  0.0817 -0.3096 -0.0347
   13POPC   GL2  701   4.353   4.730   9.135 -0.0167  0.1672 -0.0194
   13POPC   C1A  702   4.335   4.332   8.846  0.0815  0.0906 -0.0347
   13POPC   D2A  703   4.321   4.659   8.510 -0.0631  0.0989 -0.0837
   13POPC   C3A  704   4.327   5.077   8.590  0.1436 -0.2108 -0.0211
   13POPC   C4A  705   4.603   5.341   8.798 -0.1973  0.3586 -0.2839
   13POPC   C1B  706   4.790   4.803   8.756  0.2087  0.2181 -0.1165
   13POPC   C2B  707   4.801   5.030   8.431  0.2275  0.1261  0.0905
   13POPC   C3B  708   4.806   4.992   7.977  0.1620 -0.0957 -0.0009
   13POPC   C4B  709   4.730   4.879   7.597 -0.0287  0.1212 -0.1428
   14POPC   NC3  710   8.408   6.157   8.605 -0.0686  0.3382  0.1139
   14POPC   PO4  711   8.629   5.904   8.577 -0.1645  0.2447 -0.0452
   14POPC   GL1  712   8.765   5.947   8.193  0.0464  0.1646 -0.0672
   14POPC   GL2  713   8.953   5.663   8.165 -0.0338 -0.3019  0.0777
   14POPC   C1A  714   8.595   6.156   7.836  0.7436 -0.0086 -0.1535
   14POPC   D2A  715   8.480   6.060   7.380 -0.1208 -0.0741 -0.0917
   14POPC   C3A  716   8.527   6.446   7.104  0.3053  0.1396 -0.0943
   14POPC   C4A  717   8.665   6.750   6.974  0.0559 -0.0388 -0.3101
   14POPC   C1B  718   9.025   5.822   7.733 -0.3495  0.0286 -0.1133
   14POPC   C2B  719   9.075   6.161   7.450 -0.3128 -0.0810 -0.1032
   14POPC   C3B  720   8.940   6.135   7.004  0.2329 -0.0879 -0.0000
   14POPC   C4B  721   8.703   6.175   6.677 -0.0511  0.1764  0.0376
   15POPC   NC3  722   0.154   7.937   9.483 -0.2109 -0.0864 -0.4095
   15POPC   PO4  723  -0.239   8.161   9.506 -0.2253 -0.0427 -0.2800
   15POPC   GL1  724   0.059   8.280   9.169 -0.0998 -0.0316  0.1688
   15POPC   GL2  725   0.433   8.234   9.027  0.1104  0.2208 -0.3456
   15POPC   C1A  726   0.127   8.575   8.832 -0.2615 -0.0321  0.0884
   15POPC   D2A  727   0.354   8.839   8.640  0.0983  0.0355  0.1952
   15POPC   C3A  728   0.326   8.981   8.161  0.1320  0.2993 -0.1666
   15POPC   C4A  729   0.577   9.281   7.924 -0.0284 -0.0619 -0.0140
   15POPC   C1B  730   0.724   8.449   8.745 -0.3400  0.2059 -0.1023
   15POPC   C2B  731   0.872   8.280   8.378 -0.1124  0.2713 -0.0446
   15POPC   C3B  732   1.104   8.018   8.002 -0.2548 -0.1170 -0.0344
   15POPC   C4B  733   1.357   7.745   7.845  0.0876 -0.0325  0.0475
   16POPC   NC3  734   8.455   1.689   8.796  0.1954  0.0781 -0.1197
   16POPC   PO4  735   8.901   1.779   8.806  0.3579  0.1331  0.1676
   16POPC   GL1  736   8.921   1.613   8.431  0.3369 -0.1010 -0.2136
   16POPC   GL2  737   8.547   1.476   8.397  0.0254 -0.1947  0.0648
   16POPC   C1A  738   9.078   1.670   8.012 -0.0579 -0.2089 -0.0668
   16POPC   D2A  739   9.470   1.791   7.816  0.1470  0.3728 -0.0432
   16POPC   C3A  740   9.613   2.159   7.643 -0.0621  0.0316 -0.5049
   16POPC   C4A  741   9.284   2.400   7.476  0.0464 -0.4595 -0.2668
   16POPC   C1B  742   8.608   1.480   7.925  0.0494  0.2267 -0.3790
   16POPC   C2B  743   8.799   1.543   7.581 -0.0824 -0.0359 -0.0288
   16POPC   C3B  744   8.998   1.783   7.294  0.1417 -0.2393 -0.1499
   16POPC   C4B  745   8.950   1.692   6.814 -0.1654  0.4150  0.2615
   17POPC   NC3  746   3.906   1.031   9.551  0.3029  0.2623  0.0468
   17POPC   PO4  747   4.092   1.457   9.337 -0.2816 -0.1311  0.0719
   17POPC   GL1  748   4.062   1.343   8.998 -0.0081 -0.1388 -0.1184
   17POPC   GL2  749   3.876   0.986   8.978  0.3365 -0.0444 -0.0955
   17POPC   C1A  750   3.923   1.260   8.619  0.1093 -0.0106  0.0191
   17POPC   D2A  751   3.822   1.579   8.302 -0.1333 -0.1420 -0.0071
   17POPC   C3A  752   3.644   1.372   8.015 -0.0366  0.0166  0.0514
   17POPC   C4A  753   3.556   1.080   7.826  0.1282  0.2489  0.0608
   17POPC   C1B  754   3.531   0.853   8.774 -0.1012  0.0181 -0.0726
   17POPC   C2B  755   3.425   1.099   8.352  0.2479 -0.0030 -0.0603
   17POPC   C3B  756   3.063   1.106   8.071 -0.1075  0.0610 -0.1783
   17POPC   C4B  757   3.102   1.199   7.622 -0.0675 -0.2186  0.4021
   18POPC   NC3  758   6.302   5.638   8.816 -0.1294  0.3277  0.2462
   18POPC   PO4  759   5.856   5.581   8.929  0.1810  0.1820 -0.0026
   18POPC   GL1  760   5.899   5.669   8.497 -0.1662  0.0353 -0.1033
   18POPC   GL2  761   5.800   6.063   8.521  0.1475 -0.3777 -0.0203
   18POPC   C1A  762   5.708   5.581   8.157  0.0548 -0.1149  0.0442
   18POPC   D2A  763   5.562   5.374   7.751 -0.0320  0.0351  0.0562
   18POPC   C3A  764   5.181   5.139   7.686 -0.2109  0.0109 -0.0299
   18POPC   C4A  765   4.838   5.391   7.635  0.1160  0.4243 -0.5123
   18POPC   C1B  766   5.661   6.423   8.379 -0.2901  0.0014  0.4078
   18POPC   C2B  767   5.584   6.550   7.987  0.1801 -0.3224 -0.0066
   18POPC   C3B  768   5.444   6.313   7.639 -0.0979  0.2259  0.1666
   18POPC   C4B  769   4.981   6.296   7.497 -0.0595 -0.1772 -0.0705
   19POPC   NC3  770   2.730   2.944   9.201  0.0954  0.2006  0.1801
   19POPC   PO4  771   2.309   3.035   9.034  0.3742 -0.2885  0.1134
   19POPC   GL1  772   2.672   3.182   8.747  0.0190 -0.0616  0.2693
   19POPC   GL2  773   2.740   2.857   8.724 -0.1648 -0.2258  0.2037
   19POPC   C1A  774   3.017   3.226   8.391 -0.1608  0.2539 -0.1041
   19POPC   D2A  775   3.468   3.112   8.209 -0.0061 -0.0831 -0.0494
   19POPC   C3A  776   3.546   3.147   7.763  0.0662 -0.1101  0.3497
   19POPC   C4A  777   3.346   3.214   7.315 -0.3769 -0.0768 -0.2355
   19POPC   C1B  778   2.610   2.956   8.217  0.0719 -0.0604 -0.0777
   19POPC   C2B  779   2.405   3.069   7.763 -0.3924 -0.0722 -0.1128
   19POPC   C3B  780   2.202   2.806   7.477  0.1519 -0.0608  0.1043
   19POPC   C4B  781   1.793   2.609   7.365 -0.0395  0.0870 -0.0497
   20POPC   NC3  782   8.468   0.897   9.213  0.0808 -0.4548 -0.1424
   20POPC   PO4  783   8.269   1.150   8.863  0.0395  0.0897  0.1813
   20POPC   GL1  784   7.962   1.379   8.636  0.0343  0.0419 -0.2840
   20POPC   GL2  785   7.688   1.278   8.334 -0.4882 -0.3601 -0.3555
   20POPC   C1A  786   8.017   1.672   8.365 -0.2086 -0.1586 -0.2084
   20POPC   D2A  787   7.985   2.023   8.077  0.1287 -0.1386 -0.1623
   20POPC   C3A  788   7.874   2.035   7.623  0.0556  0.3373 -0.1269
   20POPC   C4A  789   8.088   1.964   7.186 -0.1064 -0.2907 -0.3248
   20POPC   C1B  790   7.668   0.943   8.131 -0.0602 -0.3268 -0.1277
   20POPC   C2B  791   7.277   0.719   8.096  0.2353 -0.0637 -0.1926
   20POPC   C3B  792   7.159   0.337   7.942 -0.1607  0.0230 -0.1109
   20POPC   C4B  793   7.192   0.306   7.578  0.1396 -0.0701  0.1833
   21POPC   NC3  794   0.902   8.906   9.522 -0.1563 -0.0353  0.1577
   21POPC   PO4  795   0.984   9.286   9.296  0.0672  0.0367 -0.2591
   21POPC   GL1  796   0.840   9.409   8.887  0.2466 -0.0926 -0.1374
   21POPC   GL2  797   1.013   9.601   8.673  0.2380 -0.0636 -0.0987
   21POPC   C1A  798   0.629   9.313   8.527 -0.0325  0.1550 -0.0929
   21POPC   D2A  799   0.215   9.437   8.368 -0.3786 -0.2794 -0.1735
   21POPC   C3A  800   0.097   9.418   7.828  0.2628 -0.0796 -0.3696
   21POPC   C4A  801  -0.237   9.272   7.497  0.1953 -0.0259  0.0904
   21POPC   C1B  802   0.923   9.607   8.191  0.0251  0.0699  0.0563
   21POPC   C2B  803   1.019   9.642   7.636  0.0796  0.0489 -0.0677
   21POPC   C3B  804   1.362   9.928   7.381 -0.0260 -0.1615  0.0692
   21POPC   C4B  805   1.463  10.388   7.281  0.1190  0.3016 -0.5098
   22POPC   NC3  806   6.145   9.698   9.215  0.0373 -0.0585  0.5515
   22POPC   PO4  807   6.462  10.054   9.197 -0.1440  0.3074 -0.0912
   22POPC   GL1  808   6.192  10.044   8.824 -0.0612 -0.2176 -0.1099
   22POPC   GL2  809   6.130   9.727   8.644  0.0608  0.0530  0.1564
   22POPC   C1A  810   6.006  10.168   8.403  0.0405  0.1001 -0.1816
   22POPC   D2A  811   5.786  10.281   8.038  0.0602  0.0045  0.0878
   22POPC   C3A  812   5.685   9.951   7.771 -0.2144 -0.0823  0.1806
   22POPC   C4A  813   5.831   9.568   7.705  0.5312  0.1081 -0.0505
   22POPC   C1B  814   6.329   9.818   8.356 -0.1965  0.1828 -0.3092
   22POPC   C2B  815   6.236  10.028   7.924 -0.1628 -0.2784  0.1788
   22POPC   C3B  816   6.310   9.968   7.473 -0.3549 -0.1560  0.0386
   22POPC   C4B  817   6.201   9.591   7.376  0.0270  0.0929 -0.0855
   23POPC   NC3  818   2.853   9.733   9.503 -0.3444  0.0353 -0.3342
   23POPC   PO4  819   3.289   9.704   9.660  0.0327 -0.0048  0.2348
   23POPC   GL1  820   3.264   9.522   9.301 -0.2889 -0.0437 -0.0925
   23POPC   GL2  821   3.571   9.430   9.212 -0.1371 -0.0940  0.0906
   23POPC   C1A  822   2.948   9.569   8.893 -0.0695 -0.2354 -0.3114
   23POPC   D2A  823   2.858   9.323   8.447  0.1888 -0.1108  0.3414
   23POPC   C3A  824   3.228   9.242   8.186 -0.4586 -0.1325 -0.0820
   23POPC   C4A  825   3.321   9.506   7.875 -0.1192  0.0126  0.0895
   23POPC   C1B  826   3.577   8.966   9.124  0.0317 -0.2673  0.0090
   23POPC   C2B  827   3.353   8.786   8.820 -0.1073  0.1339  0.0663
   23POPC   C3B  828   3.080   8.834   8.480  0.0539 -0.1759  0.0446
   23POPC   C4B  829   2.725   8.859   8.143  0.1702 -0.1728 -0.3008
   24POPC   NC3  830   2.535   2.106   9.906  0.1961  0.0542 -0.2639
   24POPC   PO4  831   2.337   1.793   9.557 -0.1295 -0.1943 -0.1832
   24POPC   GL1  832   2.552   1.993   9.159  0.2457 -0.0008  0.2684
   24POPC   GL2  833   2.921   2.183   9.090 -0.0285  0.0118  0.0102
   24POPC   C1A  834   2.598   2.113   8.704 -0.2277  0.0904  0.2375
   24POPC   D2A  835   2.562   2.454   8.409  0.2061 -0.0019  0.4034
   24POPC   C3A  836   2.221   2.598   8.107 -0.3458  0.0138 -0.0219
   24POPC   C4A  837   1.900   2.679   7.867  0.2450 -0.0981 -0.1906
   24POPC   C1B  838   3.056   2.345   8.597  0.0352  0.4203  0.0507
   24POPC   C2B  839   3.085   2.744   8.366  0.2131  0.3979  0.2046
   24POPC   C3B  840   3.062   2.889   8.004  0.0784 -0.2363  0.1596
   24POPC   C4B  841   2.951   3.249   7.730  0.4917 -0.0292 -0.2157
   25POPC   NC3  842   4.255   9.148   9.741 -0.0745  0.3565 -0.0942
   25POPC   PO4  843   4.507   9.225   9.293  0.1176  0.1921 -0.0861
   25POPC   GL1  844   4.126   9.072   9.026  0.1680  0.1146 -0.0319
   25POPC   GL2  845   4.019   9.411   8.890 -0.0262 -0.1472 -0.0764
   25POPC   C1A  846   3.806   8.972   8.694  0.0863  0.2707  0.0945
   25POPC   D2A  847   3.589   8.987   8.416  0.0389  0.1188 -0.2616
   25POPC   C3A  848   3.712   8.576   8.171  0.0351 -0.1243 -0.3027
   25POPC   C4A  849   3.880   8.226   8.046 -0.1702  0.1150  0.0780
   25POPC   C1B  850   3.737   9.458   8.462 -0.1203  0.2390 -0.0864
   25POPC   C2B  851   3.820   9.583   8.038 -0.2293  0.0046  0.0232
   25POPC   C3B  852   4.029   9.383   7.699  0.4411  0.0324 -0.0328
   25POPC   C4B  853   3.980   9.118   7.365 -0.2006 -0.0301  0.0234
   26POPC   NC3  854   1.836   1.296   9.099 -0.0928  0.0283  0.2637
   26POPC   PO4  855   1.829   0.857   9.323 -0.1638 -0.1304  0.1703
   26POPC   GL1  856   1.809   0.779   8.988 -0.1195 -0.0599 -0.0945
   26POPC   GL2  857   1.699   0.520   8.832 -0.0615 -0.0517  0.3570
   26POPC   C1A  858   1.961   1.004   8.560  0.2841  0.1733  0.0899
   26POPC   D2A  859   1.852   1.363   8.346  0.2573  0.0646 -0.1031
   26POPC   C3A  860   2.097   1.603   8.503  0.2836 -0.1675  0.0966
   26POPC   C4A  861   2.488   1.548   8.428  0.0714  0.0303 -0.1452
   26POPC   C1B  862   1.607   0.715   8.391 -0.1857 -0.1050 -0.0855
   26POPC   C2B  863   1.468   0.943   8.100 -0.1106 -0.2202  0.1101
   26POPC   C3B  864   1.312   0.966   7.708 -0.0721  0.0190 -0.0083
   26POPC   C4B  865   1.716   0.967   7.372  0.1345 -0.1920 -0.1595
   27POPC   NC3  866   8.347   8.560   8.928  0.1354 -0.0994  0.1547
   27POPC   PO4  867   8.380   8.994   8.900  0.2786  0.4773  0.1577
   27POPC   GL1  868   8.772   8.886   8.560 -0.0331  0.3605 -0.1600
   27POPC   GL2  869   8.558   8.918   8.270 -0.1148 -0.0613 -0.0434
   27POPC   C1A  870   9.125   8.993   8.290  0.1652 -0.0094 -0.2404
   27POPC   D2A  871   9.310   8.762   7.922 -0.0153  0.1612  0.2514
   27POPC   C3A  872   9.517   8.821   7.612 -0.1117 -0.1648 -0.0505
   27POPC   C4A  873   9.702   8.899   7.231 -0.1989 -0.1451 -0.1788
   27POPC   C1B  874   8.766   8.856   7.890 -0.0772  0.0602  0.3862
   27POPC   C2B  875   8.814   8.737   7.478 -0.1100 -0.0303  0.1803
   27POPC   C3B  876   9.135   8.514   7.164  0.1635  0.1776  0.0725
   27POPC   C4B  877   9.551   8.541   6.875  0.0297  0.0645 -0.3209
   28POPC   NC3  878   6.363   4.761   8.981  0.0891 -0.0317  0.2652
   28POPC   PO4  879   6.628   5.110   8.847  0.0255 -0.0000 -0.1263
   28POPC   GL1  880   6.639   4.976   8.482 -0.1437 -0.1780  0.0982
   28POPC   GL2  881   6.666   4.660   8.517  0.2442  0.1985  0.2583
   28POPC   C1A  882   6.626   5.216   8.066  0.0876  0.0339 -0.2236
   28POPC   D2A  883   6.394   5.459   7.763  0.1489  0.1431  0.0153
   28POPC   C3A  884   5.982   5.656   7.752 -0.1321 -0.3186  0.0138
   28POPC   C4A  885   5.725   5.917   7.567  0.2518  0.2653  0.2354
   28POPC   C1B  886   6.639   4.662   8.059 -0.3724  0.2175  0.1357
   28POPC   C2B  887   6.545   4.383   7.754 -0.2110 -0.0157  0.2253
   28POPC   C3B  888   6.501   4.085   7.556  0.3348 -0.2354  0.0867
   28POPC   C4B  889   6.144   3.752   7.345  0.0478 -0.0323  0.1872
   29POPC   NC3  890   4.787   3.176   9.889 -0.0001  0.0443  0.0362
   29POPC   PO4  891   4.621   3.478   9.601  0.2887 -0.0078  0.0828
   29POPC   GL1  892   4.710   3.290   9.150  0.3167  0.2592 -0.3098
   29POPC   GL2  893   4.875   3.433   8.896 -0.2724  0.2273  0.4533
   29POPC   C1A  894   4.846   2.950   8.836 -0.0911 -0.1531 -0.1693
   29POPC   D2A  895   5.038   2.641   8.668  0.3328  0.0625 -0.1006
   29POPC   C3A  896   4.784   2.534   8.285  0.0645 -0.2085  0.1036
   29POPC   C4A  897   4.561   2.172   8.064  0.1187 -0.6262 -0.1344
   29POPC   C1B  898   5.011   3.309   8.528  0.0704 -0.0243 -0.1644
   29POPC   C2B  899   4.968   3.005   8.319 -0.1067 -0.0305 -0.0939
   29POPC   C3B  900   4.998   2.785   7.920  0.1902 -0.0324  0.0941
   29POPC   C4B  901   5.011   2.424   7.634  0.1803  0.1974 -0.1443
   30POPC   NC3  902   5.178   9.847   9.207 -0.0829  0.0837  0.3454
   30POPC   PO4  903   4.836   9.597   9.252  0.0808 -0.2716 -0.1237
   30POPC   GL1  904   4.477   9.602   8.940  0.0104 -0.3221 -0.1139
   30POPC   GL2  905   4.410   9.891   8.869 -0.1008 -0.2460 -0.0146
   30POPC   C1A  906   4.492   9.428   8.526  0.0613  0.0900  0.1744
   30POPC   D2A  907   4.921   9.242   8.397  0.2302 -0.2934 -0.3851
   30POPC   C3A  908   5.081   9.283   7.974  0.3261 -0.2182 -0.1078
   30POPC   C4A  909   4.804   9.113   7.638 -0.0840 -0.0959  0.1884
   30POPC   C1B  910   4.562   9.929   8.425 -0.0720  0.1285  0.3141
   30POPC   C2B  911   4.774   9.707   8.084 -0.0779 -0.1718  0.4489
   30POPC   C3B  912   4.680   9.661   7.663 -0.1113 -0.4704 -0.3781
   30POPC   C4B  913   4.616   9.870   7.255  0.1687  0.0934 -0.0420
   31POPC   NC3  914   4.428   7.160  10.226 -0.2737 -0.1857  0.0993
   31POPC   PO4  915   4.762   7.333   9.894 -0.3687  0.3602  0.0344
   31POPC   GL1  916   4.462   7.441   9.602  0.1939  0.2241 -0.4099
   31POPC   GL2  917   4.560   7.425   9.408 -0.1523 -0.2776 -0.2809
   31POPC   C1A  918   4.087   7.547   9.397  0.0386 -0.0081  0.0310
   31POPC   D2A  919   4.036   7.464   8.985  0.0935 -0.1365  0.2950
   31POPC   C3A  920   4.059   7.654   8.629 -0.2714  0.2834 -0.2810
   31POPC   C4A  921   3.986   7.712   8.194 -0.0925 -0.4036  0.0352
   31POPC   C1B  922   4.508   7.681   8.963  0.3584  0.0532 -0.1943
   31POPC   C2B  923   4.499   7.664   8.485  0.1730 -0.1934 -0.1978
   31POPC   C3B  924   4.560   7.640   8.072 -0.0290  0.0615  0.2591
   31POPC   C4B  925   4.485   7.518   7.703 -0.3746 -0.3170 -0.2405
   32POPC   NC3  926   0.953   5.822  10.157  0.2686  0.1793  0.3428
   32POPC   PO4  927   0.994   6.166   9.754  0.2184  0.3853  0.1663
   32POPC   GL1  928   1.294   6.288   9.425 -0.1160 -0.1129  0.3050
   32POPC   GL2  929   1.588   6.397   9.599  0.0835  0.0504  0.0154
   32POPC   C1A  930   1.189   6.093   9.036 -0.2556  0.0634 -0.4713
   32POPC   D2A  931   1.343   5.718   8.722  0.4015 -0.1641 -0.0034
   32POPC   C3A  932   1.062   5.361   8.645  0.1104 -0.2258 -0.2282
   32POPC   C4A  933   0.868   4.990   8.404 -0.1575  0.1066  0.2442
   32POPC   C1B  934   1.632   6.252   9.109  0.0427 -0.2007 -0.0312
   32POPC   C2B  935   1.978   6.268   8.855  0.2683  0.0479  0.3292
   32POPC   C3B  936   2.201   6.494   8.577 -0.0252 -0.2238 -0.1483
   32POPC   C4B  937   2.256   6.799   8.345 -0.1145 -0.2257 -0.1163
   33POPC   NC3  938   3.021   3.855   9.304  0.0967 -0.1747 -0.0308
   33POPC   PO4  939   2.441   3.972   9.349  0.3894  0.0556 -0.1931
   33POPC   GL1  940   2.444   4.305   9.030 -0.0147 -0.3050 -0.1024
   33POPC   GL2  941   2.292   4.553   9.188  0.1364  0.1140  0.2086
   33POPC   C1A  942   2.638   4.208   8.626 -0.0277 -0.2708 -0.1237
   33POPC   D2A  943   2.555   3.955   8.197  0.3545  0.0566  0.1630
   33POPC   C3A  944   2.619   4.205   7.843 -0.2266 -0.0908 -0.0493
   33POPC   C4A  945   2.699   4.071   7.536  0.1063 -0.0330 -0.3172
   33POPC   C1B  946   2.256   4.530   8.639 -0.2475  0.3371  0.1398
   33POPC   C2B  947   2.469   4.517   8.199  0.0362  0.0259 -0.2016
   33POPC   C3B  948   2.764   4.657   7.930  0.2478  0.2134  0.1665
   33POPC   C4B  949   3.124   4.862   7.782 -0.1740 -0.0733 -0.1450
   34POPC   NC3  950   1.743   3.526   9.228  0.1549  0.1196  0.1903
   34POPC   PO4  951   1.452   3.246   8.938  0.0184  0.1529  0.1785
   34POPC   GL1  952   1.568   3.269   8.608  0.0243  0.1959  0.3126
   34POPC   GL2  953   1.268   3.144   8.320  0.0236  0.0607  0.0232
   34POPC   C1A  954   1.731   3.455   8.269  0.1547 -0.0877 -0.0080
   34POPC   D2A  955   1.926   3.566   7.865  0.4317 -0.1476  0.3126
   34POPC   C3A  956   2.394   3.731   7.835 -0.0899 -0.0006 -0.3024
   34POPC   C4A  957   2.894   3.668   7.960 -0.1442  0.1433  0.1024
   34POPC   C1B  958   1.517   3.006   8.041 -0.0350 -0.3775 -0.1495
   34POPC   C2B  959   1.816   3.168   7.691 -0.3442 -0.0672  0.2663
   34POPC   C3B  960   1.645   3.508   7.441 -0.0102  0.0022  0.0052
   34POPC   C4B  961   1.720   3.868   7.291  0.0323  0.3054  0.0141
   35POPC   NC3  962   9.340   1.882   9.274  0.0042 -0.0036  0.1431
   35POPC   PO4  963   9.740   2.098   9.409  0.0872 -0.0171 -0.1176
   35POPC   GL1  964   9.716   2.138   8.973 -0.0128  0.0464 -0.3474
   35POPC   GL2  965   9.390   2.125   8.820  0.1947  0.3144  0.0972
   35POPC   C1A  966   9.778   2.179   8.549 -0.3239 -0.2689 -0.2673
   35POPC   D2A  967   9.959   2.351   8.243 -0.5376  0.0817 -0.1243
   35POPC   C3A  968   9.705   2.505   7.983  0.1452 -0.1299 -0.0242
   35POPC   C4A  969   9.688   2.710   7.543  0.2136  0.2272  0.1221
   35POPC   C1B  970   9.495   2.571   8.623  0.0922 -0.0121  0.0396
   35POPC   C2B  971   9.622   2.878   8.330 -0.2175  0.0844  0.2024
   35POPC   C3B  972   9.944   2.919   7.931  0.0480  0.2753 -0.2467
   35POPC   C4B  973  10.055   3.020   7.516 -0.2287 -0.0169 -0.0290
   36POPC   NC3  974   3.554   6.395  10.298 -0.0295  0.1603  0.1609
   36POPC   PO4  975   3.755   6.810  10.244 -0.3342 -0.3193 -0.1146
   36POPC   GL1  976   3.990   6.902   9.849 -0.3025  0.1770  0.0532
   36POPC   GL2  977   3.716   6.949   9.610 -0.0585 -0.0306 -0.1355
   36POPC   C1A  978   4.192   6.593   9.627 -0.0036 -0.0221 -0.0899
   36POPC   D2A  979   4.244   6.488   9.218  0.0687 -0.1471 -0.0633
   36POPC   C3A  980   4.226   6.732   8.834  0.0158 -0.0561  0.0842
   36POPC   C4A  981   3.938   6.656   8.430  0.2419 -0.1453 -0.1025
   36POPC   C1B  982   3.577   7.361   9.219 -0.0415  0.1133 -0.2595
   36POPC   C2B  983   3.592   7.344   8.814 -0.1698  0.1145  0.1886
   36POPC   C3B  984   3.493   7.674   8.573  0.2197  0.0382  0.2045
   36POPC   C4B  985   3.654   7.985   8.533 -0.4069 -0.1810  0.2122
   37POPC   NC3  986   1.601   2.804   8.752  0.0103 -0.0224  0.0240
   37POPC   PO4  987   1.869   2.560   8.975 -0.0510  0.0492 -0.0466
   37POPC   GL1  988   1.862   2.404   8.497  0.1006  0.2152  0.3131
   37POPC   GL2  989   1.777   2.582   8.312 -0.2024  0.2682  0.0245
   37POPC   C1A  990   2.118   2.102   8.202 -0.2129 -0.2042  0.0162
   37POPC   D2A  991   2.399   1.973   8.214  0.2771 -0.4254  0.0026
   37POPC   C3A  992   2.867   1.892   8.269  0.2998  0.1408  0.0469
   37POPC   C4A  993   3.032   1.532   8.380 -0.0232  0.0359  0.2863
   37POPC   C1B  994   1.679   2.215   8.064 -0.2172 -0.0765 -0.1106
   37POPC   C2B  995   1.468   2.455   7.786 -0.1121 -0.1897  0.1070
   37POPC   C3B  996   1.354   2.275   7.356 -0.2211 -0.2841 -0.0658
   37POPC   C4B  997   1.350   1.919   7.114  0.0800 -0.4054  0.0175
   38POPC   NC3  998   1.859   7.140  10.555  0.2221  0.2388 -0.2838
   38POPC   PO4  999   2.002   6.947  10.163  0.0872  0.1614  0.1012
   38POPC   GL1 1000   1.876   6.804   9.804  0.2886 -0.1738 -0.1511
   38POPC   GL2 1001   1.594   6.956   9.692 -0.0685  0.0794  0.1989
   38POPC   C1A 1002   2.006   6.724   9.405 -0.2031 -0.2905  0.3163
   38POPC   D2A 1003   1.960   6.810   8.917  0.1804 -0.1039 -0.2274
   38POPC   C3A 1004   2.148   7.182   8.716  0.2015 -0.1023  0.3232
   38POPC   C4A 1005   2.113   7.565   8.595  0.1054 -0.0670 -0.2439
   38POPC   C1B 1006   1.467   6.828   9.219 -0.1105  0.0197 -0.0788
   38POPC   C2B 1007   1.441   6.661   8.825  0.2896  0.0835  0.1673
   38POPC   C3B 1008   1.713   6.639   8.452  0.0146 -0.1949  0.1724
   38POPC   C4B 1009   1.715   6.805   8.085  0.2423  0.2025 -0.2827
   39POPC   NC3 1010   5.656   5.119   9.269 -0.3223  0.0146  0.1959
   39POPC   PO4 1011   5.299   5.126   9.491  0.2303 -0.1368 -0.2930
   39POPC   GL1 1012   5.189   5.049   9.026 -0.0171 -0.0389 -0.0821
   39POPC   GL2 1013   5.514   4.848   8.920 -0.2327  0.1360  0.2835
   39POPC   C1A 1014   5.161   5.255   8.707  0.1577 -0.0276  0.1069
   39POPC   D2A 1015   5.418   5.596   8.547 -0.0346 -0.0928  0.2987
   39POPC   C3A 1016   5.239   5.958   8.351  0.0745  0.0870  0.1067
   39POPC   C4A 1017   5.428   5.975   8.020 -0.2703  0.3181  0.0110
   39POPC   C1B 1018   5.268   4.791   8.597 -0.2562  0.2945  0.1795
   39POPC   C2B 1019   5.069   4.636   8.277  0.0269  0.0552 -0.2395
   39POPC   C3B 1020   5.166   4.598   7.921 -0.0219  0.2926 -0.0055
   39POPC   C4B 1021   5.128   4.660   7.415 -0.1594 -0.2886  0.1803
   40POPC   NC3 1022   2.006   8.461  10.228  0.0041 -0.0005 -0.2033
   40POPC   PO4 1023   2.177   8.870   9.964  0.0627  0.0494  0.2075
   40POPC   GL1 1024   2.414   8.644   9.654 -0.0905  0.0447  0.0253
   40POPC   GL2 1025   2.767   8.709   9.621  0.0070  0.0567 -0.2309
   40POPC   C1A 1026   2.578   8.275   9.516 -0.0495  0.2729  0.1079
   40POPC   D2A 1027   2.712   8.225   9.022 -0.1704  0.1591 -0.0949
   40POPC   C3A 1028   2.906   8.630   8.972 -0.0331 -0.2646  0.1585
   40POPC   C4A 1029   2.604   8.779   8.759  0.2595 -0.0778  0.3213
   40POPC   C1B 1030   3.042   8.288   9.402 -0.3943  0.1303  0.2184
   40POPC   C2B 1031   3.294   8.118   9.188 -0.0899  0.1328 -0.0822
   40POPC   C3B 1032   3.637   7.838   9.044  0.1115 -0.0191 -0.2994
   40POPC   C4B 1033   3.917   7.940   9.034  0.1425  0.2446  0.2559
   41POPC   NC3 1034   7.710   6.506   9.273  0.2761  0.1853  0.1404
   41POPC   PO4 1035   7.712   6.722   8.850 -0.2435 -0.0569 -0.0128
   41POPC   GL1 1036   7.970   6.906   8.497 -0.0192  0.1557 -0.0533
   41POPC   GL2 1037   7.861   7.171   8.367  0.2235 -0.0375  0.4376
   41POPC   C1A 1038   8.324   7.088   8.438  0.0841  0.2407 -0.2595
   41POPC   D2A 1039   8.655   6.973   8.134  0.1025 -0.2968  0.0717
   41POPC   C3A 1040   8.516   7.034   7.643  0.4158 -0.0235 -0.1563
   41POPC   C4A 1041   8.198   6.921   7.337  0.1069  0.1954 -0.5108
   41POPC   C1B 1042   8.128   7.083   8.023  0.1127 -0.0488  0.0279
   41POPC   C2B 1043   8.078   7.286   7.663  0.0803 -0.0495  0.1961
   41POPC   C3B 1044   8.142   7.510   7.247  0.2108 -0.0662  0.1395
   41POPC   C4B 1045   8.109   7.705   6.876 -0.0863  0.0403  0.0688
   42POPC   NC3 1046   7.444   3.495   9.249 -0.1269 -0.2365  0.3427
   42POPC   PO4 1047   7.148   3.468   8.842 -0.3774  0.0932  0.0866
   42POPC   GL1 1048   6.731   3.537   8.703  0.1629  0.5001 -0.0270
   42POPC   GL2 1049   6.679   3.256   8.595 -0.0920  0.2954  0.4359
   42POPC   C1A 1050   6.490   3.755   8.292 -0.1950 -0.2324 -0.0256
   42POPC   D2A 1051   6.243   4.112   8.165  0.1424  0.0395 -0.1430
   42POPC   C3A 1052   6.290   4.473   8.307 -0.0755  0.2908 -0.1479
   42POPC   C4A 1053   6.110   4.831   8.289  0.3899  0.0277 -0.0465
   42POPC   C1B 1054   6.744   3.287   8.214  0.0069 -0.1685  0.2557
   42POPC   C2B 1055   6.681   3.380   7.777 -0.0168  0.0992 -0.7187
   42POPC   C3B 1056   6.715   3.644   7.432  0.3450 -0.0424 -0.0919
   42POPC   C4B 1057   6.830   3.997   7.233 -0.6789  0.0525 -0.4078
   43POPC   NC3 1058   1.468   0.579   9.642  0.0145  0.2614 -0.2546
   43POPC   PO4 1059   1.149   0.338   9.427  0.2588 -0.1677  0.2418
   43POPC   GL1 1060   1.104   0.253   9.055  0.0067 -0.2490 -0.0517
   43POPC   GL2 1061   0.789   0.068   8.912 -0.0574 -0.2506  0.1424
   43POPC   C1A 1062   1.114   0.351   8.607 -0.2725 -0.0383 -0.0531
   43POPC   D2A 1063   1.236   0.314   8.230 -0.0303 -0.3283  0.3275
   43POPC   C3A 1064   0.993   0.452   7.860  0.1361 -0.2495  0.0266
   43POPC   C4A 1065   1.113   0.574   7.454 -0.1659  0.1186 -0.1340
   43POPC   C1B 1066   0.896  -0.117   8.536 -0.2435  0.2762  0.1227
   43POPC   C2B 1067   0.813  -0.043   8.090  0.1389  0.4525 -0.1968
   43POPC   C3B 1068   0.921   0.051   7.608  0.1684  0.1820  0.0244
   43POPC   C4B 1069   0.954   0.160   7.206  0.0732  0.0977 -0.1193
   44POPC   NC3 1070   6.651   1.700   9.246 -0.1944  0.1392  0.0058
   44POPC   PO4 1071   7.087   1.542   9.145 -0.5909 -0.0304  0.2281
   44POPC   GL1 1072   6.958   1.482   8.805 -0.1669  0.1506  0.1448
   44POPC   GL2 1073   6.714   1.231   8.772 -0.2065 -0.0114 -0.0448
   44POPC   C1A 1074   6.922   1.718   8.454 -0.0908 -0.1281 -0.3248
   44POPC   D2A 1075   6.665   1.571   8.048 -0.1206 -0.1189  0.2892
   44POPC   C3A 1076   7.007   1.605   7.639  0.1190  0.0866  0.0791
   44POPC   C4A 1077   6.988   1.851   7.282 -0.1919  0.0396 -0.1616
   44POPC   C1B 1078   6.739   1.153   8.325 -0.3352 -0.0520 -0.0421
   44POPC   C2B 1079   6.597   1.133   7.909 -0.1910 -0.0180  0.1131
   44POPC   C3B 1080   6.699   1.207   7.566  0.1176 -0.0634  0.0852
   44POPC   C4B 1081   7.027   1.190   7.352  0.2849  0.3500 -0.1058
   45POPC   NC3 1082   7.435   0.550   8.988 -0.0827  0.0397  0.1650
   45POPC   PO4 1083   7.025   0.466   8.776  0.1227 -0.4528  0.0657
   45POPC   GL1 1084   6.685   0.268   8.393  0.1313  0.1509  0.0316
   45POPC   GL2 1085   6.618  -0.001   8.477 -0.0411  0.2063 -0.0229
   45POPC   C1A 1086   6.573   0.198   7.990 -0.1773  0.1016  0.3604
   45POPC   D2A 1087   6.659   0.291   7.631  0.2223  0.0349 -0.3752
   45POPC   C3A 1088   6.267   0.351   7.443 -0.2232  0.0092  0.2207
   45POPC   C4A 1089   5.805   0.240   7.453  0.2114  0.4519 -0.0409
   45POPC   C1B 1090   6.800  -0.245   8.226  0.0795 -0.1693  0.0370
   45POPC   C2B 1091   7.024  -0.207   7.835  0.0550  0.2593 -0.1117
   45POPC   C3B 1092   6.964  -0.295   7.439 -0.1176 -0.0411  0.3796
   45POPC   C4B 1093   7.032  -0.193   6.977  0.2899  0.1152 -0.0395
   46POPC   NC3 1094   6.896   2.449   8.950 -0.0742 -0.0160  0.2128
   46POPC   PO4 1095   7.110   2.050   9.037  0.0428 -0.1349  0.0226
   46POPC   GL1 1096   6.674   2.021   8.832 -0.2013 -0.1303  0.1227
   46POPC   GL2 1097   6.483   2.172   8.891 -0.1694  0.0938 -0.1666
   46POPC   C1A 1098   6.569   2.139   8.329  0.1910 -0.1417 -0.0420
   46POPC   D2A 1099   6.621   2.086   7.883 -0.0044 -0.1061  0.0139
   46POPC   C3A 1100   6.440   2.365   7.542 -0.0526 -0.0528  0.2150
   46POPC   C4A 1101   6.286   2.785   7.261  0.3295  0.1250  0.1680
   46POPC   C1B 1102   6.069   1.983   8.659 -0.0108  0.1518  0.2382
   46POPC   C2B 1103   6.029   1.956   8.235 -0.1047  0.1511  0.0121
   46POPC   C3B 1104   6.205   1.776   7.896  0.1587 -0.0523  0.0472
   46POPC   C4B 1105   6.542   1.702   7.508  0.0064  0.0952  0.0737
   47POPC   NC3 1106   3.438   0.110   9.724 -0.0897  0.3024 -0.2656
   47POPC   PO4 1107   3.055   0.007   9.504 -0.1497  0.0819 -0.0571
   47POPC   GL1 1108   3.009  -0.166   9.063  0.0766 -0.1084 -0.2380
   47POPC   GL2 1109   3.208   0.010   8.845 -0.1272  0.1171  0.3445
   47POPC   C1A 1110   2.918  -0.060   8.451  0.2515  0.0663  0.0398
   47POPC   D2A 1111   2.865  -0.001   7.899  0.2550  0.1867  0.0049
   47POPC   C3A 1112   2.750  -0.275   7.609  0.1952  0.0417 -0.1168
   47POPC   C4A 1113   2.891  -0.410   7.198  0.0404 -0.0380  0.1592
   47POPC   C1B 1114   3.433   0.021   8.431 -0.1045 -0.2697 -0.1138
   47POPC   C2B 1115   3.338  -0.171   8.020 -0.1091  0.3545 -0.0372
   47POPC   C3B 1116   3.285  -0.279   7.600  0.1963 -0.0020  0.0652
   47POPC   C4B 1117   3.123   0.064   7.227 -0.1733  0.0698 -0.3513
   48POPC   NC3 1118   3.687   5.469  10.191  0.3169 -0.2848 -0.0726
   48POPC   PO4 1119   3.616   5.952  10.115 -0.2168 -0.2427 -0.1524
   48POPC   GL1 1120   3.367   5.929   9.738 -0.0452  0.0292  0.0889
   48POPC   GL2 1121   3.471   5.890   9.514 -0.0212  0.1021  0.0770
   48POPC   C1A 1122   3.208   6.297   9.631  0.0615 -0.3746  0.0053
   48POPC   D2A 1123   2.841   6.515   9.504 -0.4097  0.0789 -0.1076
   48POPC   C3A 1124   2.863   6.643   9.071  0.3221  0.0913  0.3385
   48POPC   C4A 1125   2.960   6.867   8.628  0.2461 -0.1786  0.0099
   48POPC   C1B 1126   3.659   6.339   9.332  0.0740 -0.1434  0.0037
   48POPC   C2B 1127   3.449   6.790   9.230  0.0464 -0.1122  0.3366
   48POPC   C3B 1128   3.178   7.049   8.981 -0.1486 -0.4623  0.2341
   48POPC   C4B 1129   2.789   7.363   8.801 -0.0994  0.0764  0.1550
   49POPC   NC3 1130   5.674   4.230   9.353 -0.2778 -0.2597 -0.3164
   49POPC   PO4 1131   5.917   4.640   9.149 -0.0957  0.0866  0.1004
   49POPC   GL1 1132   6.048   4.415   8.846 -0.0022 -0.1348 -0.0550
   49POPC   GL2 1133   6.120   4.090   8.830  0.2967  0.4475  0.0747
   49POPC   C1A 1134   5.760   4.582   8.550 -0.2513 -0.2385 -0.1557
   49POPC   D2A 1135   5.598   4.586   8.129  0.3453 -0.1002 -0.2046
   49POPC   C3A 1136   5.575   4.862   7.849 -0.0939  0.4070 -0.1534
   49POPC   C4A 1137   5.474   5.004   7.343 -0.0303 -0.0684 -0.0417
   49POPC   C1B 1138   6.517   4.143   8.585 -0.3304 -0.1268  0.1946
   49POPC   C2B 1139   6.731   4.220   8.239  0.2216  0.2515  0.1742
   49POPC   C3B 1140   6.834   3.928   7.908 -0.2371  0.3451 -0.2215
   49POPC   C4B 1141   7.153   3.522   7.933  0.0944 -0.0954  0.2338
   50POPC   NC3 1142   3.293   2.634   9.837  0.1515 -0.3062  0.0907
   50POPC   PO4 1143   3.089   2.575   9.339 -0.0306  0.0522 -0.1221
   50POPC   GL1 1144   3.284   2.757   9.030 -0.0707  0.1512 -0.0584
   50POPC   GL2 1145   3.497   2.445   8.889  0.0548 -0.0394  0.2076
   50POPC   C1A 1146   3.375   3.007   8.699  0.0376 -0.2114 -0.0153
   50POPC   D2A 1147   3.848   2.945   8.547 -0.1454 -0.3861 -0.2064
   50POPC   C3A 1148   3.966   3.026   8.136  0.1293  0.0529  0.0198
   50POPC   C4A 1149   4.082   2.915   7.744  0.2861 -0.1145  0.0193
   50POPC   C1B 1150   3.605   2.543   8.411  0.3235 -0.4382  0.3109
   50POPC   C2B 1151   3.580   2.692   8.046 -0.4002  0.4611 -0.1459
   50POPC   C3B 1152   3.348   2.726   7.625 -0.0624 -0.2392  0.1030
   50POPC   C4B 1153   2.961   2.806   7.491 -0.0640 -0.2711 -0.1443
   51POPC   NC3 1154   4.534   1.747   9.360 -0.0869 -0.0586  0.1807
   51POPC   PO4 1155   4.929   1.795   9.515 -0.1863  0.2024 -0.0778
   51POPC   GL1 1156   4.946   1.856   9.032 -0.2120 -0.2158  0.0847
   51POPC   GL2 1157   5.107   2.146   8.793 -0.1736 -0.1785 -0.1765
   51POPC   C1A 1158   4.952   1.720   8.665  0.4123 -0.0352  0.1553
   51POPC   D2A 1159   4.702   1.769   8.341 -0.2144  0.1518  0.1529
   51POPC   C3A 1160   4.575   1.649   7.888  0.0790  0.0487 -0.0362
   51POPC   C4A 1161   4.482   1.970   7.644  0.0743  0.1688  0.1282
   51POPC   C1B 1162   5.101   2.162   8.383  0.0421 -0.0503  0.0634
   51POPC   C2B 1163   5.320   2.195   7.937 -0.2369  0.3013  0.0284
   51POPC   C3B 1164   5.482   2.237   7.530 -0.0622 -0.1684 -0.0607
   51POPC   C4B 1165   5.527   2.289   7.120  0.1162  0.0201  0.0201
   52POPC   NC3 1166   5.552   3.080   9.529 -0.4153  0.0176 -0.1327
   52POPC   PO4 1167   5.137   3.228   9.494 -0.1535  0.3643  0.0537
   52POPC   GL1 1168   5.338   3.184   9.076 -0.0069  0.3717 -0.1656
   52POPC   GL2 1169   5.359   3.569   8.931 -0.0855 -0.1068  0.2194
   52POPC   C1A 1170   5.366   3.025   8.669  0.3094  0.0016  0.0058
   52POPC   D2A 1171   5.733   2.778   8.414 -0.1108  0.2436  0.2658
   52POPC   C3A 1172   5.739   2.383   8.164  0.3066  0.0360  0.1994
   52POPC   C4A 1173   5.905   2.198   7.818  0.2297  0.0990  0.1100
   52POPC   C1B 1174   5.458   3.693   8.525 -0.0506 -0.1445 -0.0639
   52POPC   C2B 1175   5.273   3.702   8.144 -0.0179 -0.2905  0.0479
   52POPC   C3B 1176   5.256   3.680   7.746  0.0432 -0.0536 -0.1599
   52POPC   C4B 1177   4.899   3.692   7.564 -0.0261 -0.1797  0.2640
   53POPC   NC3 1178   7.064   5.202   8.638 -0.4376  0.1921 -0.1266
   53POPC   PO4 1179   6.840   5.581   8.826 -0.1196  0.0383  0.3154
   53POPC   GL1 1180   6.651   5.497   8.434 -0.1985 -0.0394 -0.2161
   53POPC   GL2 1181   6.415   5.642   8.314  0.0831  0.3002 -0.4613
   53POPC   C1A 1182   6.932   5.599   8.036  0.2685 -0.1631 -0.0416
   53POPC   D2A 1183   7.187   5.887   7.808  0.1019  0.0464 -0.0570
   53POPC   C3A 1184   7.110   6.152   7.446  0.0688 -0.0051  0.5426
   53POPC   C4A 1185   6.906   6.232   7.140  0.1208  0.2562 -0.0611
   53POPC   C1B 1186   6.259   6.043   8.214 -0.1937  0.0745  0.2871
   53POPC   C2B 1187   6.059   6.305   7.984  0.0239  0.3852 -0.1630
   53POPC   C3B 1188   5.963   6.387   7.609 -0.1366  0.0563 -0.1529
   53POPC   C4B 1189   5.796   6.563   7.230  0.1547 -0.2282  0.1232
   54POPC   NC3 1190   5.832   8.191   9.492 -0.0018 -0.1066 -0.1506
   54POPC   PO4 1191   5.600   8.482   9.172  0.1302 -0.2500 -0.0777
   54POPC   GL1 1192   5.475   8.394   8.653 -0.1995 -0.1747 -0.3882
   54POPC   GL2 1193   5.424   8.043   8.481 -0.0175 -0.0740 -0.2003
   54POPC   C1A 1194   5.143   8.599   8.568  0.1147  0.0804  0.2303
   54POPC   D2A 1195   4.753   8.731   8.427  0.2750 -0.2076  0.1651
   54POPC   C3A 1196   4.575   8.954   8.098 -0.2319  0.3594  0.1878
   54POPC   C4A 1197   4.463   9.318   7.965 -0.0024 -0.0726  0.0998
   54POPC   C1B 1198   5.388   8.404   8.192  0.1351  0.1070 -0.1176
   54POPC   C2B 1199   4.990   8.362   8.005 -0.1748  0.1233 -0.0556
   54POPC   C3B 1200   4.675   8.557   7.773  0.0126  0.1764 -0.0761
   54POPC   C4B 1201   4.416   8.854   7.476  0.1134  0.0144  0.0914
   55POPC   NC3 1202   7.143   9.484   8.970 -0.1363  0.1150  0.1955
   55POPC   PO4 1203   6.912   9.130   8.870  0.1439 -0.0803 -0.0886
   55POPC   GL1 1204   6.695   9.270   8.544 -0.2777 -0.1403 -0.0211
   55POPC   GL2 1205   6.681   8.969   8.261  0.3845 -0.2142 -0.2026
   55POPC   C1A 1206   6.520   9.452   8.025  0.0043 -0.2078  0.0658
   55POPC   D2A 1207   6.624   9.441   7.601  0.1571 -0.3425 -0.0369
   55POPC   C3A 1208   6.568   9.075   7.317 -0.1034 -0.3139  0.0335
   55POPC   C4A 1209   6.494   8.646   7.164  0.2862  0.0644  0.0934
   55POPC   C1B 1210   6.524   8.580   8.033  0.1008 -0.2220  0.2895
   55POPC   C2B 1211   6.349   8.461   7.749  0.0637  0.0561  0.0698
   55POPC   C3B 1212   6.029   8.636   7.455 -0.2329  0.0921  0.2282
   55POPC   C4B 1213   5.623   8.781   7.369 -0.3307  0.0872  0.2250
   56POPC   NC3 1214   4.910   3.779   9.319 -0.0205  0.2073  0.2036
   56POPC   PO4 1215   5.296   4.047   9.108  0.2522  0.3694  0.2522
   56POPC   GL1 1216   5.594   4.194   8.825 -0.0087  0.0840  0.1690
   56POPC   GL2 1217   5.279   4.288   8.679 -0.1439  0.0434 -0.1825
   56POPC   C1A 1218   5.776   4.081   8.494  0.0771 -0.1484 -0.2389
   56POPC   D2A 1219   5.767   4.114   8.101  0.1162 -0.2049  0.2857
   56POPC   C3A 1220   5.496   4.204   7.806 -0.0171  0.2309  0.2309
   56POPC   C4A 1221   5.061   4.191   7.528  0.4015  0.0501 -0.1288
   56POPC   C1B 1222   5.194   4.101   8.404 -0.0259 -0.1809  0.3213
   56POPC   C2B 1223   4.928   4.127   7.987 -0.4068  0.0568 -0.1405
   56POPC   C3B 1224   4.702   4.414   7.778  0.0662 -0.1118  0.2637
   56POPC   C4B 1225   4.612   4.521   7.326 -0.3531  0.2212 -0.0088
   57POPC   NC3 1226   2.661   7.254  10.769  0.2898 -0.1508 -0.4322
   57POPC   PO4 1227   2.516   7.116  10.338  0.1673  0.2351  0.0103
   57POPC   GL1 1228   2.503   7.024   9.925  0.2751 -0.0123 -0.2095
   57POPC   GL2 1229   2.565   6.828   9.761  0.0675 -0.3730  0.0469
   57POPC   C1A 1230   2.209   7.173   9.591  0.1570 -0.4053  0.1259
   57POPC   D2A 1231   1.841   7.175   9.258  0.0718  0.0020 -0.2641
   57POPC   C3A 1232   1.548   7.408   9.349 -0.4463 -0.0862 -0.1665
   57POPC   C4A 1233   1.172   7.229   9.295 -0.0551  0.2160 -0.0915
   57POPC   C1B 1234   2.698   7.027   9.374  0.1999 -0.0096  0.1907
   57POPC   C2B 1235   3.031   7.399   9.351 -0.1215 -0.1335  0.0955
   57POPC   C3B 1236   3.103   7.680   8.986  0.0238 -0.1020 -0.0758
   57POPC   C4B 1237   2.996   7.899   8.735  0.0179  0.0781  0.1806
   58POPC   NC3 1238   6.445   3.168   9.022 -0.2474  0.1998  0.2304
   58POPC   PO4 1239   6.455   2.668   9.056 -0.2028  0.2247 -0.1779
   58POPC   GL1 1240   6.554   2.777   8.631 -0.3048 -0.0580  0.2733
   58POPC   GL2 1241   6.795   2.614   8.499 -0.2907  0.4144  0.1370
   58POPC   C1A 1242   6.470   2.873   8.244  0.5247 -0.1424  0.1234
   58POPC   D2A 1243   6.491   2.886   7.814 -0.1081 -0.0867 -0.3685
   58POPC   C3A 1244   6.731   2.805   7.405 -0.1028 -0.4675 -0.0389
   58POPC   C4A 1245   6.817   2.887   6.997 -0.1521 -0.2507  0.2403
   58POPC   C1B 1246   6.783   2.537   7.995 -0.1054  0.2474  0.2296
   58POPC   C2B 1247   7.037   2.460   7.657 -0.1140  0.1357  0.2260
   58POPC   C3B 1248   7.269   2.790   7.411 -0.1499 -0.0007 -0.1600
   58POPC   C4B 1249   7.610   2.918   7.226  0.3103 -0.1848 -0.0306
   59POPC   NC3 1250   5.702   6.934   9.200 -0.2856 -0.0295 -0.1553
   59POPC   PO4 1251   6.033   7.252   9.066 -0.0967 -0.2405 -0.0943
   59POPC   GL1 1252   5.843   7.061   8.626  0.2058  0.0507 -0.0694
   59POPC   GL2 1253   5.910   6.814   8.564 -0.0478 -0.3299  0.0564
   59POPC   C1A 1254   5.686   7.044   8.179  0.1356  0.0051 -0.3171
   59POPC   D2A 1255   5.714   6.911   7.677  0.0085 -0.1847 -0.1068
   59POPC   C3A 1256   5.304   6.910   7.351 -0.1101 -0.0413  0.0670
   59POPC   C4A 1257   4.904   6.752   7.294  0.1531 -0.2052  0.0188
   59POPC   C1B 1258   6.146   6.762   8.156 -0.1642 -0.2222 -0.1306
   59POPC   C2B 1259   6.248   6.769   7.688  0.0125 -0.0460  0.3566
   59POPC   C3B 1260   6.491   6.871   7.319 -0.1992  0.1264 -0.1937
   59POPC   C4B 1261   6.588   6.737   6.908  0.0393 -0.3614 -0.2742
   60POPC   NC3 1262   8.303   2.700   9.433 -0.2622  0.0975 -0.0337
   60POPC   PO4 1263   8.065   2.370   9.206  0.4852 -0.2452 -0.1420
   60POPC   GL1 1264   7.840   2.634   8.879  0.0682  0.0185  0.1021
   60POPC   GL2 1265   7.691   2.337   8.648 -0.3051 -0.0904 -0.1912
   60POPC   C1A 1266   7.787   2.883   8.488  0.2421  0.0520 -0.2434
   60POPC   D2A 1267   7.677   2.855   8.065  0.4910 -0.0888  0.2085
   60POPC   C3A 1268   7.487   3.103   7.902  0.1032  0.1487  0.0425
   60POPC   C4A 1269   7.499   3.269   7.645  0.1695 -0.2399  0.1718
   60POPC   C1B 1270   7.627   2.307   8.174  0.0352  0.0716 -0.1679
   60POPC   C2B 1271   7.538   2.483   7.733  0.0342 -0.0426 -0.0218
   60POPC   C3B 1272   7.867   2.492   7.427  0.0205 -0.3688  0.1161
   60POPC   C4B 1273   7.837   2.405   6.974 -0.0744  0.2148 -0.0311
   61POPC   NC3 1274   1.627   2.214   9.179  0.0825  0.4409 -0.0666
   61POPC   PO4 1275   1.224   2.351   9.003  0.0620 -0.1278 -0.3248
   61POPC   GL1 1276   1.355   2.337   8.519  0.0774 -0.1829  0.0648
   61POPC   GL2 1277   1.358   2.034   8.594 -0.0092  0.1476  0.2390
   61POPC   C1A 1278   1.171   2.499   8.198 -0.0945  0.2273  0.2164
   61POPC   D2A 1279   1.049   2.738   7.733  0.0253 -0.0118 -0.0028
   61POPC   C3A 1280   1.387   2.981   7.493 -0.1067  0.0882  0.1206
   61POPC   C4A 1281   1.730   3.103   7.143 -0.1420  0.0860 -0.0736
   61POPC   C1B 1282   1.662   1.790   8.321 -0.2632 -0.0390  0.0402
   61POPC   C2B 1283   1.886   1.715   7.982 -0.4357  0.3641 -0.0342
   61POPC   C3B 1284   2.249   1.536   7.857  0.1318 -0.1640  0.0806
   61POPC   C4B 1285   2.702   1.515   7.961 -0.2065  0.0830 -0.1955
   62POPC   NC3 1286   7.580   4.672   8.504  0.0106  0.0662 -0.0855
   62POPC   PO4 1287   7.562   5.169   8.435  0.1811 -0.2059 -0.3089
   62POPC   GL1 1288   7.544   4.969   8.096  0.1540 -0.2020 -0.0753
   62POPC   GL2 1289   7.612   4.594   8.019  0.3937  0.0543  0.0643
   62POPC   C1A 1290   7.384   4.842   7.601 -0.0887 -0.2653  0.3064
   62POPC   D2A 1291   7.573   5.057   7.229 -0.0299 -0.0240 -0.1481
   62POPC   C3A 1292   7.925   4.810   6.914  0.0602  0.0649 -0.0339
   62POPC   C4A 1293   7.807   4.472   6.744  0.2492 -0.0494  0.0236
   62POPC   C1B 1294   7.550   4.380   7.684 -0.2582  0.2894 -0.0129
   62POPC   C2B 1295   7.665   4.272   7.235  0.2586  0.2006 -0.0222
   62POPC   C3B 1296   7.635   3.963   6.980  0.1054 -0.1756 -0.1270
   62POPC   C4B 1297   7.470   3.661   6.611  0.3737 -0.3084  0.1451
   63POPC   NC3 1298   9.128   7.375   9.752 -0.0269 -0.0354 -0.1428
   63POPC   PO4 1299   9.424   7.421   9.351  0.3838  0.1527 -0.2090
   63POPC   GL1 1300   9.597   7.465   8.966 -0.3643  0.1222  0.1920
   63POPC   GL2 1301   9.432   7.635   8.764 -0.1337 -0.1685  0.1702
   63POPC   C1A 1302  10.046   7.491   8.633  0.3494  0.5618  0.0185
   63POPC   D2A 1303  10.350   7.610   8.305  0.1667  0.1197  0.0074
   63POPC   C3A 1304  10.576   7.415   8.005  0.1207 -0.0073 -0.3154
   63POPC   C4A 1305  10.834   7.574   7.643  0.0198  0.1557  0.1010
   63POPC   C1B 1306   9.511   7.568   8.394 -0.1605 -0.0659 -0.3226
   63POPC   C2B 1307   9.475   7.447   7.952  0.0998 -0.2980 -0.2651
   63POPC   C3B 1308   9.567   7.353   7.592  0.2752  0.4535  0.0968
   63POPC   C4B 1309   9.514   7.047   7.264  0.1343 -0.0575 -0.0249
   64POPC   NC3 1310   2.783   5.382   9.846  0.0047  0.2304  0.0020
   64POPC   PO4 1311   2.702   4.938   9.726 -0.0282 -0.0984 -0.0396
   64POPC   GL1 1312   2.687   4.869   9.303 -0.1608  0.1042  0.1840
   64POPC   GL2 1313   2.786   5.247   9.221  0.3152 -0.3013 -0.0234
   64POPC   C1A 1314   2.758   4.656   8.934  0.0660 -0.1119 -0.1967
   64POPC   D2A 1315   2.900   4.623   8.461 -0.3328 -0.0543 -0.1435
   64POPC   C3A 1316   3.221   4.483   8.228  0.1904  0.0608  0.1283
   64POPC   C4A 1317   3.582   4.416   8.048  0.0227  0.0768 -0.3630
   64POPC   C1B 1318   2.949   5.616   8.961 -0.1209  0.1668  0.1747
   64POPC   C2B 1319   2.889   5.853   8.532  0.3832  0.0609  0.0314
   64POPC   C3B 1320   3.137   6.178   8.414 -0.1826 -0.3480 -0.0516
   64POPC   C4B 1321   3.172   6.593   8.261  0.1127 -0.3205 -0.1109
   65POPC   NC3 1322   0.839   1.068   9.163 -0.0109 -0.1331  0.1220
   65POPC   PO4 1323   1.140   1.392   9.054  0.2391 -0.1966 -0.2458
   65POPC   GL1 1324   0.815   1.366   8.686 -0.1480  0.1025  0.1870
   65POPC   GL2 1325   0.762   1.084   8.658 -0.0661  0.2398 -0.1814
   65POPC   C1A 1326   0.586   1.746   8.361  0.0023 -0.0051 -0.0891
   65POPC   D2A 1327   0.498   1.838   7.911  0.1048 -0.0023  0.0852
   65POPC   C3A 1328   0.214   1.555   7.669 -0.0718  0.0355  0.1788
   65POPC   C4A 1329   0.318   1.311   7.326 -0.1140 -0.0846  0.0220
   65POPC   C1B 1330   0.689   1.251   8.224  0.2409 -0.3566  0.1472
   65POPC   C2B 1331   0.910   1.461   7.819  0.0685 -0.0399  0.2420
   65POPC   C3B 1332   0.899   1.938   7.590  0.1644 -0.1746 -0.2582
   65POPC   C4B 1333   1.009   2.225   7.846  0.1565 -0.0306  0.1512
   66POPC   NC3 1334   6.937  10.093   8.871  0.0060  0.3068  0.1598
   66POPC   PO4 1335   7.362   9.933   8.947 -0.2056  0.0062  0.1405
   66POPC   GL1 1336   7.310   9.774   8.613 -0.3881  0.0700 -0.1106
   66POPC   GL2 1337   7.131   9.547   8.485  0.0457 -0.4415 -0.0652
   66POPC   C1A 1338   7.304  10.079   8.222  0.2281 -0.2538 -0.0278
   66POPC   D2A 1339   7.675  10.265   7.940  0.0618 -0.2770  0.0571
   66POPC   C3A 1340   7.570  10.690   7.790  0.1938 -0.0718  0.4925
   66POPC   C4A 1341   7.470  10.935   7.490  0.4090 -0.1208 -0.0563
   66POPC   C1B 1342   7.037   9.523   8.089  0.1977 -0.0778 -0.1102
   66POPC   C2B 1343   7.194   9.503   7.627 -0.1994 -0.0369 -0.0173
   66POPC   C3B 1344   7.659   9.491   7.437 -0.0197 -0.1819 -0.0595
   66POPC   C4B 1345   7.976   9.752   7.338 -0.0279  0.1733 -0.3787
   67POPC   NC3 1346   4.238   3.715   9.735 -0.3387  0.0415  0.0083
   67POPC   PO4 1347   4.223   3.233   9.803 -0.1516  0.0444 -0.1321
   67POPC   GL1 1348   4.201   3.346   9.315 -0.2327  0.0486  0.0321
   67POPC   GL2 1349   3.953   3.598   9.105 -0.0684  0.0884 -0.2222
   67POPC   C1A 1350   4.374   3.507   8.895  0.2281  0.0446  0.0500
   67POPC   D2A 1351   4.390   3.787   8.567 -0.0104  0.3883 -0.3734
   67POPC   C3A 1352   4.348   3.585   8.172  0.0979 -0.0375 -0.2365
   67POPC   C4A 1353   4.258   3.350   7.793  0.0381 -0.0150 -0.1507
   67POPC   C1B 1354   3.933   3.422   8.621  0.0551  0.0016 -0.2947
   67POPC   C2B 1355   3.826   3.507   8.145 -0.0260  0.0419  0.2780
   67POPC   C3B 1356   3.786   3.627   7.680 -0.1656  0.0311  0.0185
   67POPC   C4B 1357   3.567   3.734   7.225 -0.2416  0.1084  0.0443
   68POPC   NC3 1358   0.581   4.434   9.610  0.1874 -0.1897  0.0974
   68POPC   PO4 1359   0.628   4.224   9.153  0.2236  0.1088 -0.2410
   68POPC   GL1 1360   0.671   4.617   8.806 -0.0801 -0.1309  0.0986
   68POPC   GL2 1361   0.455   4.933   8.744 -0.0760 -0.1349  0.2577
   68POPC   C1A 1362   0.634   4.534   8.372  0.1006  0.0535 -0.0331
   68POPC   D2A 1363   0.379   4.359   8.051 -0.1810 -0.0757 -0.3727
   68POPC   C3A 1364   0.367   4.364   7.611 -0.1467 -0.0802  0.1031
   68POPC   C4A 1365   0.123   4.389   7.236 -0.0921  0.0506 -0.1069
   68POPC   C1B 1366   0.607   5.394   8.765 -0.1275 -0.1947  0.1373
   68POPC   C2B 1367   0.757   5.802   8.567 -0.0941  0.0869  0.2945
   68POPC   C3B 1368   1.013   6.056   8.504  0.0960 -0.4790  0.2236
   68POPC   C4B 1369   1.488   6.198   8.586  0.0734 -0.2798 -0.3088
   69POPC   NC3 1370   7.100   7.892   9.151  0.2680 -0.0526  0.1335
   69POPC   PO4 1371   6.787   8.218   9.350  0.2136  0.0110 -0.1891
   69POPC   GL1 1372   6.695   8.147   8.968  0.2788 -0.0977  0.2475
   69POPC   GL2 1373   6.754   7.762   8.782 -0.1019 -0.0822 -0.2145
   69POPC   C1A 1374   6.405   8.087   8.580 -0.2932 -0.0105  0.1259
   69POPC   D2A 1375   6.152   8.272   8.220  0.2293 -0.1364 -0.2098
   69POPC   C3A 1376   5.734   8.053   8.126  0.0919 -0.1592  0.0446
   69POPC   C4A 1377   5.377   7.954   7.942 -0.2231 -0.0731  0.0642
   69POPC   C1B 1378   6.773   7.699   8.385 -0.1191 -0.2341  0.1781
   69POPC   C2B 1379   6.695   7.342   8.099  0.3922 -0.0263 -0.0479
   69POPC   C3B 1380   6.687   6.871   7.894 -0.1709  0.3071  0.1339
   69POPC   C4B 1381   6.514   6.458   8.072 -0.5305 -0.0051  0.0499
   70POPC   NC3 1382   0.620   1.968   9.896  0.0381 -0.0198 -0.2661
   70POPC   PO4 1383   0.324   1.973   9.507 -0.0416 -0.0084 -0.0456
   70POPC   GL1 1384   0.088   2.067   9.116 -0.1976  0.0838 -0.0810
   70POPC   GL2 1385   0.047   2.325   8.878  0.0724  0.0859 -0.1684
   70POPC   C1A 1386  -0.097   1.796   8.772  0.0250 -0.1806 -0.0168
   70POPC   D2A 1387  -0.052   1.851   8.361 -0.1089  0.2535 -0.1924
   70POPC   C3A 1388  -0.127   1.934   7.872  0.0865  0.1260  0.1745
   70POPC   C4A 1389  -0.127   1.871   7.444  0.0794  0.2895  0.0445
   70POPC   C1B 1390   0.277   2.203   8.445 -0.1840  0.2740  0.2660
   70POPC   C2B 1391   0.463   2.261   8.119 -0.2085  0.0873  0.1208
   70POPC   C3B 1392   0.570   2.544   7.834  0.0615  0.0823  0.0389
   70POPC   C4B 1393   0.266   2.791   7.647  0.4361 -0.0885 -0.1648
   71POPC   NC3 1394   5.781   1.283   9.251  0.1706 -0.4162  0.1316
   71POPC   PO4 1395   6.212   1.258   9.012 -0.2376 -0.0692 -0.0638
   71POPC   GL1 1396   6.016   1.293   8.647 -0.2194 -0.0223  0.2901
   71POPC   GL2 1397   5.671   1.243   8.593  0.2511  0.0840 -0.0988
   71POPC   C1A 1398   5.793   1.421   8.122  0.0299 -0.1219  0.1538
   71POPC   D2A 1399   5.703   1.256   7.781  0.2197  0.2009  0.1174
   71POPC   C3A 1400   5.623   1.441   7.277 -0.1297  0.1852 -0.0601
   71POPC   C4A 1401   5.858   1.645   6.973 -0.2973 -0.0492 -0.3082
   71POPC   C1B 1402   5.294   1.387   8.321 -0.2157 -0.0605  0.2218
   71POPC   C2B 1403   5.071   1.739   7.958 -0.2362 -0.0436 -0.1502
   71POPC   C3B 1404   4.946   1.923   7.578  0.2029 -0.4627 -0.0199
   71POPC   C4B 1405   5.047   2.110   7.190 -0.3396 -0.1855 -0.0156
   72POPC   NC3 1406   6.090   0.265   9.138 -0.1008 -0.2970 -0.1418
   72POPC   PO4 1407   5.712  -0.199   9.174 -0.2447 -0.0452 -0.2363
   72POPC   GL1 1408   5.670  -0.047   8.785  0.0875  0.0976  0.1962
   72POPC   GL2 1409   5.418  -0.280   8.755  0.2871 -0.0953  0.1364
   72POPC   C1A 1410   5.509   0.092   8.460 -0.4114 -0.1737 -0.0487
   72POPC   D2A 1411   5.335   0.456   8.181 -0.0321  0.3231 -0.0776
   72POPC   C3A 1412   5.404   0.220   7.762 -0.1058  0.0619 -0.3290
   72POPC   C4A 1413   5.288  -0.079   7.467  0.2848 -0.0019 -0.0083
   72POPC   C1B 1414   5.719  -0.556   8.446  0.1030 -0.2022 -0.0890
   72POPC   C2B 1415   5.590  -0.898   8.105 -0.2414  0.0415  0.0251
   72POPC   C3B 1416   5.469  -1.047   7.729  0.1928  0.2576 -0.2535
   72POPC   C4B 1417   5.288  -1.069   7.298  0.0426  0.0024  0.3023
   73POPC   NC3 1418   8.994   7.975   8.965  0.0281 -0.2849 -0.0815
   73POPC   PO4 1419   8.702   8.287   9.132 -0.1106  0.0429 -0.1763
   73POPC   GL1 1420   8.832   8.382   8.724 -0.6290 -0.0282  0.3350
   73POPC   GL2 1421   9.159   8.633   8.712  0.0575  0.0668 -0.1410
   73POPC   C1A 1422   8.934   8.557   8.281  0.0219  0.5462 -0.1376
   73POPC   D2A 1423   8.985   8.256   7.974 -0.4381  0.1754 -0.1413
   73POPC   C3A 1424   9.280   8.306   7.728 -0.1187 -0.2297 -0.2473
   73POPC   C4A 1425   9.619   8.409   7.350 -0.3740 -0.1005  0.0381
   73POPC   C1B 1426   9.365   8.349   8.324  0.2121  0.0883  0.2279
   73POPC   C2B 1427   9.449   7.983   8.052  0.1871 -0.1114  0.3652
   73POPC   C3B 1428   9.555   7.924   7.575  0.1549 -0.3430 -0.1411
   73POPC   C4B 1429   9.751   7.723   7.119 -0.1232  0.3360 -0.4682
   74POPC   NC3 1430   1.230   1.862   9.194  0.1435  0.0642  0.1000
   74POPC   PO4 1431   1.569   1.731   8.996  0.1040 -0.1840 -0.0760
   74POPC   GL1 1432   1.387   1.429   8.642  0.3246 -0.0547  0.0765
   74POPC   GL2 1433   1.490   1.063   8.803 -0.0121 -0.2969 -0.0663
   74POPC   C1A 1434   1.267   1.549   8.231 -0.0053 -0.3096  0.0439
   74POPC   D2A 1435   1.279   1.785   7.860  0.1872  0.3677  0.1345
   74POPC   C3A 1436   1.638   1.855   7.538  0.0528 -0.1029 -0.0647
   74POPC   C4A 1437   1.935   2.158   7.603 -0.0080 -0.3308  0.0975
   74POPC   C1B 1438   1.201   1.001   8.541  0.0896  0.2909  0.1952
   74POPC   C2B 1439   0.980   0.753   8.330  0.0081 -0.2965  0.3149
   74POPC   C3B 1440   0.735   0.399   8.274 -0.0684 -0.0060 -0.1153
   74POPC   C4B 1441   0.414   0.291   8.456  0.0804  0.3317 -0.2691
   75POPC   NC3 1442   7.670   5.825   8.547  0.1532  0.2938 -0.0823
   75POPC   PO4 1443   7.912   5.990   8.638  0.1518  0.0833  0.2147
   75POPC   GL1 1444   8.196   5.823   8.276 -0.3512  0.0260  0.0838
   75POPC   GL2 1445   8.220   6.095   8.150 -0.2710  0.2154  0.2146
   75POPC   C1A 1446   8.056   5.548   7.958 -0.0248 -0.2560 -0.0800
   75POPC   D2A 1447   7.655   5.348   7.769 -0.1634 -0.0415  0.1966
   75POPC   C3A 1448   7.275   5.292   7.697 -0.0718 -0.1444  0.0777
   75POPC   C4A 1449   6.908   5.563   7.541 -0.1248  0.0823 -0.0774
   75POPC   C1B 1450   8.025   6.075   7.759  0.0589 -0.2122 -0.1766
   75POPC   C2B 1451   7.707   5.799   7.652 -0.0272 -0.0127  0.1023
   75POPC   C3B 1452   7.510   5.710   7.364  0.1744 -0.1539 -0.3507
   75POPC   C4B 1453   7.472   5.594   6.862 -0.1300 -0.2240  0.0164
   76POPC   NC3 1454   5.245   5.852  10.175 -0.3308  0.1941  0.1830
   76POPC   PO4 1455   5.151   6.244   9.863  0.1547  0.1932  0.0663
   76POPC   GL1 1456   4.938   6.269   9.441 -0.1291 -0.1029 -0.2571
   76POPC   GL2 1457   4.748   6.450   9.266  0.2195  0.1982  0.2250
   76POPC   C1A 1458   5.015   6.058   9.027 -0.0811  0.3407 -0.2314
   76POPC   D2A 1459   4.949   5.671   8.874  0.2353  0.0670 -0.0382
   76POPC   C3A 1460   4.876   5.647   8.464  0.0401 -0.1518 -0.3120
   76POPC   C4A 1461   4.705   5.441   8.166 -0.0138 -0.0710 -0.0310
   76POPC   C1B 1462   4.586   6.329   8.862 -0.0999  0.1814  0.2104
   76POPC   C2B 1463   4.673   6.094   8.433  0.2079 -0.3419 -0.3854
   76POPC   C3B 1464   4.415   5.977   8.120 -0.0361 -0.1599  0.0115
   76POPC   C4B 1465   3.972   5.899   8.142  0.0417 -0.0508  0.1392
   77POPC   NC3 1466   6.441   3.312   9.666 -0.1725 -0.2677 -0.0281
   77POPC   PO4 1467   6.218   3.524   9.383  0.0814  0.1832 -0.4509
   77POPC   GL1 1468   5.824   3.307   9.140 -0.1396 -0.1479 -0.2033
   77POPC   GL2 1469   5.786   3.356   8.758  0.1787 -0.3439  0.0933
   77POPC   C1A 1470   5.843   2.862   8.881  0.0873  0.3406 -0.3323
   77POPC   D2A 1471   6.046   2.558   8.770 -0.1525  0.0069 -0.0065
   77POPC   C3A 1472   6.196   2.497   8.399  0.4626  0.1252 -0.0580
   77POPC   C4A 1473   6.267   2.428   8.052 -0.4473 -0.1367  0.0067
   77POPC   C1B 1474   5.716   3.297   8.380  0.1120 -0.3981  0.1935
   77POPC   C2B 1475   5.425   3.125   8.178  0.0414  0.1616 -0.3197
   77POPC   C3B 1476   5.247   3.159   7.805  0.1487  0.0165  0.1898
   77POPC   C4B 1477   5.444   3.375   7.437 -0.0038 -0.4096  0.1938
   78POPC   NC3 1478   7.199   8.525   9.079 -0.0715 -0.2194  0.0364
   78POPC   PO4 1479   7.518   8.493   8.813  0.2403 -0.1373  0.2324
   78POPC   GL1 1480   7.553   8.752   8.391  0.0419 -0.2716 -0.2213
   78POPC   GL2 1481   7.991   8.703   8.280  0.2071  0.1177 -0.1438
   78POPC   C1A 1482   7.543   8.695   7.994  0.0360  0.2217  0.6032
   78POPC   D2A 1483   7.863   8.491   7.723 -0.0471 -0.3059  0.0157
   78POPC   C3A 1484   8.104   8.427   7.356  0.1890 -0.3547  0.2359
   78POPC   C4A 1485   8.147   8.109   7.126 -0.0303 -0.0543 -0.1852
   78POPC   C1B 1486   8.192   8.835   7.923 -0.0849  0.0028  0.1622
   78POPC   C2B 1487   8.391   8.917   7.525  0.0280  0.1502  0.2369
   78POPC   C3B 1488   8.339   8.914   7.039  0.2517 -0.2292  0.0341
   78POPC   C4B 1489   8.343   8.963   6.623 -0.3884  0.0597  0.3839
   79POPC   NC3 1490   9.848   7.640   9.371 -0.2933 -0.0294 -0.0177
   79POPC   PO4 1491  10.294   7.474   9.544 -0.0754  0.0301  0.0064
   79POPC   GL1 1492  10.261   7.347   9.085 -0.3129 -0.1311 -0.2112
   79POPC   GL2 1493  10.343   7.748   8.999 -0.2313  0.1619 -0.0646
   79POPC   C1A 1494  10.459   7.111   8.775 -0.0769 -0.3225 -0.0027
   79POPC   D2A 1495  10.889   7.151   8.625  0.1913 -0.0543  0.1746
   79POPC   C3A 1496  11.230   6.980   8.883  0.0487 -0.0965  0.2144
   79POPC   C4A 1497  11.172   6.773   9.249 -0.3828  0.2133 -0.2004
   79POPC   C1B 1498  10.234   7.995   8.614  0.0594 -0.1481 -0.2294
   79POPC   C2B 1499  10.309   8.059   8.140  0.0400  0.3383 -0.2072
   79POPC   C3B 1500  10.373   7.928   7.803 -0.1572  0.2224  0.0748
   79POPC   C4B 1501  10.555   7.842   7.351  0.0763 -0.1070  0.0141
   80POPC   NC3 1502   4.893   5.851   9.790  0.0842 -0.0636 -0.4204
   80POPC   PO4 1503   4.464   5.962   9.904 -0.1816 -0.3450 -0.3637
   80POPC   GL1 1504   4.267   6.069   9.523 -0.2242 -0.2398  0.2228
   80POPC   GL2 1505   4.536   6.005   9.341  0.2278  0.3660  0.0593
   80POPC   C1A 1506   4.093   6.026   9.154 -0.0853  0.3401 -0.2454
   80POPC   D2A 1507   3.816   5.693   8.814 -0.2653 -0.0774  0.0560
   80POPC   C3A 1508   3.671   6.027   8.638 -0.1115  0.1727 -0.0031
   80POPC   C4A 1509   3.578   6.228   8.262  0.1738 -0.1437 -0.1392
   80POPC   C1B 1510   4.429   5.783   8.848  0.0295 -0.0299 -0.0219
   80POPC   C2B 1511   4.243   5.642   8.515 -0.0822 -0.0382 -0.0414
   80POPC   C3B 1512   4.186   5.442   8.157  0.3347 -0.1418 -0.1474
   80POPC   C4B 1513   4.368   5.242   7.844 -0.1483 -0.2166 -0.1438
   81POPC   NC3 1514   8.110   3.904   8.980 -0.0846 -0.0473  0.0169
   81POPC   PO4 1515   7.842   3.631   8.903 -0.2195  0.1621  0.3615
   81POPC   GL1 1516   7.896   3.546   8.396 -0.3012 -0.0753 -0.1834
   81POPC   GL2 1517   7.591   3.495   8.314 -0.1606 -0.4313 -0.1536
   81POPC   C1A 1518   8.077   3.169   8.135 -0.0055  0.0097  0.2710
   81POPC   D2A 1519   8.416   2.889   7.892  0.1701  0.2612 -0.1270
   81POPC   C3A 1520   8.379   2.639   7.598 -0.1125  0.0367  0.2357
   81POPC   C4A 1521   8.292   2.415   7.230 -0.0838  0.2526  0.0319
   81POPC   C1B 1522   7.722   3.615   7.938  0.1551 -0.1267  0.0846
   81POPC   C2B 1523   8.179   3.644   7.888 -0.1583  0.0244  0.0125
   81POPC   C3B 1524   8.490   3.827   7.625 -0.0690  0.1092 -0.0815
   81POPC   C4B 1525   8.695   3.537   7.322  0.0275  0.1120 -0.1286
   82POPC   NC3 1526   2.444   0.308   9.554 -0.0392 -0.0637 -0.0962
   82POPC   PO4 1527   2.555  -0.046   9.423  0.0756  0.0770  0.2563
   82POPC   GL1 1528   2.407  -0.030   9.045  0.0985  0.0011 -0.0274
   82POPC   GL2 1529   2.441  -0.345   8.926  0.3293  0.0931  0.0728
   82POPC   C1A 1530   2.379   0.025   8.581  0.0593  0.5528  0.2216
   82POPC   D2A 1531   2.429   0.196   8.207 -0.2733  0.1040 -0.0041
   82POPC   C3A 1532   2.623   0.482   7.883  0.1144 -0.1645 -0.2170
   82POPC   C4A 1533   2.518   0.634   7.308  0.0778 -0.3719 -0.0181
   82POPC   C1B 1534   2.548  -0.459   8.509  0.2313 -0.2147 -0.2970
   82POPC   C2B 1535   2.437  -0.326   8.100 -0.2018  0.0309 -0.0637
   82POPC   C3B 1536   2.240  -0.231   7.727 -0.1682  0.0739  0.0376
   82POPC   C4B 1537   1.845  -0.009   7.603  0.3795  0.2198 -0.1431
   83POPC   NC3 1538   9.646   5.176   9.159  0.1139 -0.0405 -0.1798
   83POPC   PO4 1539   9.958   5.363   8.806  0.1632 -0.2125  0.0886
   83POPC   GL1 1540   9.918   5.406   8.419 -0.1253  0.0172  0.2129
   83POPC   GL2 1541  10.119   5.031   8.332  0.1574  0.2121  0.3971
   83POPC   C1A 1542   9.969   5.571   7.942 -0.0079 -0.1868  0.0728
   83POPC   D2A 1543   9.690   5.711   7.575  0.0281 -0.1498  0.1248
   83POPC   C3A 1544   9.462   5.601   7.178 -0.1778 -0.3050 -0.3649
   83POPC   C4A 1545   9.128   5.314   6.854 -0.0354 -0.3054 -0.1648
   83POPC   C1B 1546  10.486   4.835   8.209  0.0228 -0.1739  0.0749
   83POPC   C2B 1547  10.733   4.780   7.928 -0.0313 -0.1849  0.1749
   83POPC   C3B 1548  11.091   4.392   7.989  0.3175 -0.0498  0.2163
   83POPC   C4B 1549  11.216   3.998   7.974 -0.1671 -0.1691 -0.4985
   84POPC   NC3 1550   3.993   5.254   9.685  0.2029  0.0258 -0.0469
   84POPC   PO4 1551   3.713   4.978   9.908  0.3770  0.0310  0.0301
   84POPC   GL1 1552   3.631   5.010   9.465  0.1659 -0.2585 -0.1059
   84POPC   GL2 1553   3.914   4.943   9.243  0.1627 -0.3833  0.0462
   84POPC   C1A 1554   3.360   5.285   9.118  0.0103  0.1972 -0.0166
   84POPC   D2A 1555   3.347   5.528   8.689  0.0975  0.0745 -0.1530
   84POPC   C3A 1556   3.099   5.385   8.297 -0.0764  0.2628 -0.1736
   84POPC   C4A 1557   2.836   5.198   8.116 -0.2067 -0.1082  0.0211
   84POPC   C1B 1558   3.982   5.180   8.958 -0.0563 -0.0599 -0.1522
   84POPC   C2B 1559   3.861   5.301   8.519 -0.1868 -0.2420 -0.2173
   84POPC   C3B 1560   3.652   5.465   8.254 -0.0826  0.0365 -0.2918
   84POPC   C4B 1561   3.427   5.784   8.277  0.0228  0.0284 -0.1578
   85POPC   NC3 1562   9.049   5.688   8.723  0.0162  0.2486  0.5213
   85POPC   PO4 1563   9.212   5.256   8.898  0.0339  0.2945  0.1847
   85POPC   GL1 1564   9.099   5.058   8.590 -0.0606 -0.4751 -0.3057
   85POPC   GL2 1565   8.877   5.247   8.416 -0.4246 -0.1107 -0.0579
   85POPC   C1A 1566   9.175   4.943   8.091  0.1595 -0.0118  0.1216
   85POPC   D2A 1567   9.324   4.770   7.675 -0.0008  0.0656  0.3155
   85POPC   C3A 1568   9.682   4.717   7.489 -0.0562  0.1260  0.0410
   85POPC   C4A 1569   9.927   4.782   7.150  0.0725  0.0959  0.1985
   85POPC   C1B 1570   8.885   5.300   7.884  0.2319 -0.4476  0.0750
   85POPC   C2B 1571   8.866   4.974   7.572 -0.3561  0.1780  0.1825
   85POPC   C3B 1572   8.997   4.920   7.193 -0.0693  0.0989 -0.0600
   85POPC   C4B 1573   9.286   4.679   7.146 -0.0937 -0.0099  0.0924
   86POPC   NC3 1574   0.704   2.976   8.839 -0.0209 -0.2271 -0.3312
   86POPC   PO4 1575   0.332   2.864   8.996 -0.1720 -0.1082  0.0236
   86POPC   GL1 1576   0.352   2.651   8.542  0.0798  0.2118 -0.0912
   86POPC   GL2 1577   0.760   2.608   8.494  0.6233 -0.1254 -0.0907
   86POPC   C1A 1578   0.172   2.700   8.143  0.5580  0.1262 -0.2317
   86POPC   D2A 1579   0.087   2.346   7.785  0.0265  0.1836  0.0542
   86POPC   C3A 1580   0.355   2.136   7.514  0.1124  0.0722  0.3202
   86POPC   C4A 1581   0.416   1.855   7.245 -0.0947  0.2238 -0.1115
   86POPC   C1B 1582   0.678   2.867   8.164  0.2345  0.3864 -0.0422
   86POPC   C2B 1583   0.501   3.157   7.889 -0.1463 -0.1150  0.2689
   86POPC   C3B 1584   0.486   3.385   7.591  0.1219  0.3365  0.2168
   86POPC   C4B 1585   0.773   3.763   7.400 -0.3501 -0.0396 -0.1129
   87POPC   NC3 1586   5.886   0.867   8.942  0.0651 -0.2124 -0.3030
   87POPC   PO4 1587   5.434   0.922   8.799 -0.2450  0.5256 -0.1396
   87POPC   GL1 1588   5.199   0.944   8.494 -0.0880  0.0279  0.1557
   87POPC   GL2 1589   4.822   1.125   8.466 -0.4100  0.0066 -0.0070
   87POPC   C1A 1590   5.316   0.939   8.110 -0.0384  0.2548  0.2088
   87POPC   D2A 1591   5.220   0.707   7.768  0.0511  0.1103  0.0072
   87POPC   C3A 1592   5.291   0.537   7.278  0.0115 -0.2672 -0.1762
   87POPC   C4A 1593   5.219   0.668   6.836  0.2810 -0.1459  0.0833
   87POPC   C1B 1594   4.848   1.279   8.132 -0.1617  0.3160 -0.0729
   87POPC   C2B 1595   5.087   1.265   7.839 -0.2473  0.1945  0.2124
   87POPC   C3B 1596   5.158   1.521   7.484  0.0370 -0.0731  0.0627
   87POPC   C4B 1597   5.403   1.819   7.111  0.0900 -0.1730  0.1441
   88POPC   NC3 1598   9.401   8.315   9.639 -0.2171 -0.0531 -0.0619
   88POPC   PO4 1599   9.690   8.596   9.444  0.1371  0.0683 -0.1942
   88POPC   GL1 1600   9.717   8.469   9.011 -0.0921 -0.1317 -0.1121
   88POPC   GL2 1601   9.448   8.155   8.767 -0.1374  0.1441  0.1425
   88POPC   C1A 1602   9.870   8.493   8.635 -0.0843  0.0924 -0.4414
   88POPC   D2A 1603  10.138   8.710   8.346 -0.0191 -0.0712 -0.1569
   88POPC   C3A 1604  10.271   8.460   7.892 -0.2616 -0.1151  0.0205
   88POPC   C4A 1605  10.584   8.402   7.517  0.0172  0.1931 -0.0234
   88POPC   C1B 1606   9.685   8.004   8.499  0.3456 -0.1204  0.1836
   88POPC   C2B 1607   9.893   7.805   8.203  0.1279 -0.0265 -0.0704
   88POPC   C3B 1608   9.887   7.665   7.881  0.0555  0.1964  0.1116
   88POPC   C4B 1609  10.072   7.504   7.510 -0.1955 -0.3103 -0.0911
   89POPC   NC3 1610   9.254   4.145   9.448  0.1667  0.1247  0.0088
   89POPC   PO4 1611   9.370   4.277   9.026  0.0815 -0.1283  0.4005
   89POPC   GL1 1612   9.595   4.546   8.683  0.4212  0.1236  0.1361
   89POPC   GL2 1613   9.392   4.649   8.498 -0.0204  0.0704  0.2455
   89POPC   C1A 1614   9.981   4.573   8.481 -0.1339 -0.1810 -0.0070
   89POPC   D2A 1615  10.083   4.531   8.090 -0.0339 -0.3882 -0.0438
   89POPC   C3A 1616  10.048   4.414   7.718  0.0316  0.1878  0.1388
   89POPC   C4A 1617   9.887   4.070   7.445 -0.2129 -0.2305  0.2179
   89POPC   C1B 1618   9.551   4.663   8.087 -0.2123  0.2792 -0.1341
   89POPC   C2B 1619   9.811   4.934   7.952  0.0427  0.0438 -0.1229
   89POPC   C3B 1620   9.766   5.219   7.679  0.0773 -0.0394 -0.3019
   89POPC   C4B 1621  10.048   5.402   7.446 -0.2033  0.0784 -0.3281
   90POPC   NC3 1622   5.932   6.302   9.511  0.1163  0.0961  0.1069
   90POPC   PO4 1623   5.476   6.436   9.476 -0.2221 -0.2261 -0.2577
   90POPC   GL1 1624   5.228   6.796   9.214  0.0220 -0.0506  0.2814
   90POPC   GL2 1625   5.396   6.872   8.865 -0.1256 -0.0987 -0.0634
   90POPC   C1A 1626   5.073   7.172   8.986  0.0417 -0.0821  0.2394
   90POPC   D2A 1627   4.803   7.314   8.654 -0.0732 -0.1391 -0.2117
   90POPC   C3A 1628   4.412   7.242   8.758  0.1124  0.2615 -0.1383
   90POPC   C4A 1629   4.017   7.122   8.545 -0.0385 -0.1707 -0.0576
   90POPC   C1B 1630   5.275   6.857   8.406  0.1011  0.1392 -0.4532
   90POPC   C2B 1631   4.886   7.121   8.187  0.1986  0.0422 -0.2160
   90POPC   C3B 1632   4.480   7.125   8.095  0.0938 -0.2836  0.0966
   90POPC   C4B 1633   4.119   7.229   8.015  0.3685 -0.3163  0.0116
   91POPC   NC3 1634   8.604   9.409   8.581  0.0310  0.0344 -0.3263
   91POPC   PO4 1635   8.148   9.162   8.458 -0.3177  0.0151 -0.0809
   91POPC   GL1 1636   8.008   9.322   8.122 -0.0336  0.1642 -0.2523
   91POPC   GL2 1637   8.171   9.639   8.109  0.2023  0.0965  0.1544
   91POPC   C1A 1638   8.255   9.367   7.738  0.1195 -0.1824 -0.0732
   91POPC   D2A 1639   8.406   9.428   7.284  0.2158 -0.0179  0.4321
   91POPC   C3A 1640   8.734   9.206   7.216 -0.0562  0.1819 -0.1335
   91POPC   C4A 1641   8.809   8.845   6.947  0.0059  0.1046  0.4178
   91POPC   C1B 1642   7.997   9.878   7.878  0.1449 -0.0468  0.1804
   91POPC   C2B 1643   7.926  10.230   7.514  0.1052  0.1442 -0.0608
   91POPC   C3B 1644   7.662  10.515   7.295 -0.3719 -0.0394 -0.1472
   91POPC   C4B 1645   7.225  10.448   7.071  0.1735  0.1686  0.0394
   92POPC   NC3 1646   6.563   5.483   9.227  0.1369 -0.2419 -0.5692
   92POPC   PO4 1647   6.131   5.187   9.120 -0.0858  0.1123 -0.0744
   92POPC   GL1 1648   5.927   5.082   8.769  0.1152 -0.2764 -0.2542
   92POPC   GL2 1649   6.182   5.196   8.603 -0.1258  0.1506  0.4481
   92POPC   C1A 1650   5.633   5.103   8.476 -0.3517  0.0793  0.3235
   92POPC   D2A 1651   5.275   5.102   8.218 -0.0900  0.4181 -0.0014
   92POPC   C3A 1652   5.192   5.502   8.012  0.0218  0.0496 -0.2789
   92POPC   C4A 1653   4.945   5.881   7.938  0.1914 -0.1233 -0.0602
   92POPC   C1B 1654   6.096   5.291   8.129 -0.1260  0.0337 -0.0584
   92POPC   C2B 1655   5.979   5.121   7.880 -0.0808 -0.0382  0.0292
   92POPC   C3B 1656   5.994   5.241   7.444 -0.0355  0.1261 -0.1362
   92POPC   C4B 1657   6.125   5.566   7.153 -0.0763  0.0071  0.1662
   93POPC   NC3 1658   9.257   3.798   8.967  0.0043 -0.1234 -0.0809
   93POPC   PO4 1659   8.951   3.531   9.174 -0.0068 -0.0404 -0.2193
   93POPC   GL1 1660   8.848   3.520   8.740 -0.2949  0.2112 -0.2203
   93POPC   GL2 1661   8.919   3.225   8.717 -0.1400  0.1397 -0.1671
   93POPC   C1A 1662   9.006   3.674   8.326 -0.1574  0.0303  0.1591
   93POPC   D2A 1663   8.886   3.637   7.917  0.2243 -0.1403 -0.0654
   93POPC   C3A 1664   8.523   3.351   7.704  0.3336  0.4253 -0.0804
   93POPC   C4A 1665   8.659   2.993   7.453 -0.1373  0.0553  0.2189
   93POPC   C1B 1666   9.102   2.877   8.367  0.2064  0.0164 -0.0134
   93POPC   C2B 1667   9.158   2.513   8.235 -0.0046  0.1146 -0.1586
   93POPC   C3B 1668   9.242   2.108   8.235  0.0512  0.1461  0.0821
   93POPC   C4B 1669   9.543   1.768   8.310 -0.1632 -0.0922  0.0570
   94POPC   NC3 1670   2.755   3.431   9.194  0.0742  0.1010  0.3870
   94POPC   PO4 1671   3.122   3.292   9.237  0.0576 -0.0675 -0.0130
   94POPC   GL1 1672   3.149   3.453   8.865 -0.3115  0.4009 -0.2924
   94POPC   GL2 1673   3.418   3.758   8.878  0.2171  0.0875  0.1527
   94POPC   C1A 1674   3.387   3.554   8.464 -0.0008  0.2450  0.0212
   94POPC   D2A 1675   3.465   3.799   8.062  0.2667 -0.1138  0.2465
   94POPC   C3A 1676   3.272   3.690   7.606 -0.3821  0.1589  0.1139
   94POPC   C4A 1677   2.984   3.575   7.221  0.6170  0.0090  0.2238
   94POPC   C1B 1678   3.156   4.036   8.623  0.0654 -0.0546  0.2068
   94POPC   C2B 1679   3.047   4.041   8.195  0.0211 -0.0390 -0.1676
   94POPC   C3B 1680   3.194   4.137   7.799 -0.1487  0.0012  0.1430
   94POPC   C4B 1681   3.624   4.081   7.568  0.0178 -0.0211  0.1056
   95POPC   NC3 1682   7.884   8.885   8.773  0.1534 -0.3462 -0.0980
   95POPC   PO4 1683   7.405   9.045   8.835  0.0357 -0.1745  0.0501
   95POPC   GL1 1684   7.633   9.240   8.507 -0.3050  0.0986  0.0894
   95POPC   GL2 1685   7.686   9.550   8.404  0.1606 -0.0054 -0.2794
   95POPC   C1A 1686   7.529   9.208   8.053 -0.3696 -0.1284  0.0800
   95POPC   D2A 1687   7.494   9.035   7.663 -0.4957 -0.0479  0.2159
   95POPC   C3A 1688   7.116   8.877   7.303  0.0596  0.0775 -0.1860
   95POPC   C4A 1689   6.859   8.965   6.905 -0.2350  0.2443 -0.0165
   95POPC   C1B 1690   7.572   9.713   8.058  0.0306 -0.1299  0.0796
   95POPC   C2B 1691   7.447   9.927   7.630 -0.0745  0.0761  0.1504
   95POPC   C3B 1692   7.514   9.970   7.246 -0.0051  0.0507  0.0305
   95POPC   C4B 1693   7.641  10.247   6.847  0.1467 -0.0372 -0.1383
   96POPC   NC3 1694   9.984   2.551   9.217 -0.2791 -0.0130  0.2756
   96POPC   PO4 1695  10.062   2.836   8.824 -0.1609  0.0870  0.0883
   96POPC   GL1 1696  10.243   3.061   8.486  0.0110  0.0379 -0.1343
   96POPC   GL2 1697  10.557   3.143   8.450 -0.1959  0.2140 -0.1196
   96POPC   C1A 1698  10.263   3.333   8.002  0.1127 -0.1362  0.2655
   96POPC   D2A 1699  10.093   3.483   7.575 -0.0190 -0.1979  0.0365
   96POPC   C3A 1700  10.384   3.422   7.197 -0.0188  0.1653  0.1054
   96POPC   C4A 1701  10.647   3.164   7.013  0.0520  0.0877 -0.0928
   96POPC   C1B 1702  10.940   3.323   8.287  0.1029 -0.3226  0.1361
   96POPC   C2B 1703  11.213   3.241   7.897 -0.2109  0.0503 -0.0275
   96POPC   C3B 1704  11.285   3.359   7.541 -0.1367  0.0172 -0.2572
   96POPC   C4B 1705  11.408   3.465   7.190  0.1738  0.0425  0.3372
   97POPC   NC3 1706   4.143   0.086   9.315  0.3454 -0.0837 -0.0385
   97POPC   PO4 1707   3.743   0.273   9.374 -0.1788  0.0125 -0.0107
   97POPC   GL1 1708   3.701   0.162   8.895 -0.4845  0.0558  0.2487
   97POPC   GL2 1709   3.769   0.455   8.885  0.2672  0.1501 -0.0387
   97POPC   C1A 1710   4.020   0.190   8.566 -0.0708  0.0536  0.3926
   97POPC   D2A 1711   4.013   0.135   8.123 -0.2653  0.1327 -0.0012
   97POPC   C3A 1712   3.762  -0.033   7.789 -0.0470 -0.1820 -0.1828
   97POPC   C4A 1713   3.743  -0.451   7.496  0.0601 -0.0042  0.1389
   97POPC   C1B 1714   3.996   0.727   8.605 -0.2597  0.1913  0.2669
   97POPC   C2B 1715   3.941   1.014   8.164  0.0874  0.2743  0.1103
   97POPC   C3B 1716   4.037   0.945   7.716 -0.2135  0.0042 -0.4207
   97POPC   C4B 1717   3.902   0.464   7.524  0.1143  0.0695  0.2402
   98POPC   NC3 1718   9.148   3.025   9.135  0.1610 -0.1243  0.1454
   98POPC   PO4 1719   9.392   3.352   8.997 -0.1107  0.0256  0.0684
   98POPC   GL1 1720   9.457   3.179   8.649  0.1110 -0.0915  0.5490
   98POPC   GL2 1721   9.790   3.245   8.688 -0.1776  0.0434  0.0100
   98POPC   C1A 1722   9.374   3.277   8.190  0.2321 -0.0129  0.0892
   98POPC   D2A 1723   9.604   3.267   7.726 -0.0856  0.0304 -0.1205
   98POPC   C3A 1724   9.655   3.198   7.318 -0.0283 -0.0339  0.0572
   98POPC   C4A 1725   9.513   2.908   6.963  0.1428  0.3699  0.2329
   98POPC   C1B 1726   9.868   3.353   8.356  0.3096  0.3171 -0.2647
   98POPC   C2B 1727   9.884   3.658   8.014  0.1751  0.0675 -0.2848
   98POPC   C3B 1728  10.258   3.949   7.932 -0.1283  0.1043  0.1336
   98POPC   C4B 1729  10.421   3.907   7.464  0.0780  0.0074 -0.0471
   99POPC   NC3 1730   9.303   9.821   8.950 -0.0073 -0.1775  0.0607
   99POPC   PO4 1731   8.925   9.744   8.790 -0.1973 -0.3007 -0.0938
   99POPC   GL1 1732   9.155   9.598   8.486  0.0486  0.0178  0.2802
   99POPC   GL2 1733   9.397   9.816   8.355  0.1742  0.2203  0.0525
   99POPC   C1A 1734   9.087   9.472   8.152  0.2129 -0.1412 -0.1301
   99POPC   D2A 1735   8.824   9.380   7.838  0.1121  0.0480  0.0340
   99POPC   C3A 1736   9.152   9.168   7.619 -0.2102 -0.1212  0.0950
   99POPC   C4A 1737   9.226   9.121   7.190  0.2225 -0.2860 -0.1545
   99POPC   C1B 1738   9.804  10.168   8.320  0.0590 -0.2285  0.0848
   99POPC   C2B 1739  10.130  10.413   8.107 -0.1881 -0.2038  0.0768
   99POPC   C3B 1740  10.322  10.846   8.114  0.3062  0.1161 -0.3050
   99POPC   C4B 1741  10.618  11.005   8.268 -0.1933  0.3238  0.0413
  100POPC   NC3 1742   8.923   7.583   9.247 -0.4969 -0.0247 -0.1531
  100POPC   PO4 1743   9.063   7.336   8.959 -0.0669 -0.2183  0.0488
  100POPC   GL1 1744   9.221   7.161   8.623  0.3741  0.2623 -0.1426
  100POPC   GL2 1745   9.118   6.954   8.333  0.2754 -0.0955  0.0048
  100POPC   C1A 1746   9.558   7.095   8.383 -0.0972  0.1664 -0.3473
  100POPC   D2A 1747   9.911   7.275   8.171 -0.1983  0.0436 -0.0312
  100POPC   C3A 1748  10.343   7.065   8.290 -0.0069  0.1511  0.2020
  100POPC   C4A 1749  10.792   6.936   8.164 -0.0876  0.0041  0.4266
  100POPC   C1B 1750   9.128   7.061   7.904 -0.0620  0.0266  0.1364
  100POPC   C2B 1751   9.075   6.967   7.476 -0.2403  0.2802 -0.0733
  100POPC   C3B 1752   9.112   6.636   7.179  0.0186 -0.0067  0.2669
  100POPC   C4B 1753   9.070   6.613   6.754  0.1890 -0.1898 -0.1196
  101POPC   NC3 1754   9.307   6.132   9.422  0.2001  0.0326  0.0708
  101POPC   PO4 1755   9.050   6.161   8.962  0.0366  0.3768  0.3472
  101POPC   GL1 1756   9.032   6.253   8.579 -0.2026  0.1316  0.2573
  101POPC   GL2 1757   9.258   6.077   8.454  0.0015 -0.2964 -0.1893
  101POPC   C1A 1758   8.794   6.504   8.212  0.0565  0.2163  0.0791
  101POPC   D2A 1759   8.374   6.546   8.046  0.3649  0.2879 -0.0837
  101POPC   C3A 1760   8.278   6.527   7.614 -0.1724 -0.1432 -0.1448
  101POPC   C4A 1761   8.030   6.391   7.308  0.1178  0.3233  0.1824
  101POPC   C1B 1762   9.247   6.116   8.081 -0.3773  0.1925  0.1743
  101POPC   C2B 1763   9.511   6.170   7.789 -0.0411  0.1085 -0.0295
  101POPC   C3B 1764   9.624   6.130   7.358 -0.3414  0.2489 -0.2855
  101POPC   C4B 1765   9.404   6.285   7.022 -0.2390  0.0316 -0.3046
  102POPC   NC3 1766   2.812   9.015   9.996  0.1203  0.0958 -0.0078
  102POPC   PO4 1767   2.487   9.438   9.797 -0.0341 -0.3739 -0.2447
  102POPC   GL1 1768   2.396   9.421   9.388 -0.2261  0.1599 -0.2296
  102POPC   GL2 1769   2.759   9.276   9.340 -0.2244  0.2579 -0.1383
  102POPC   C1A 1770   2.536   9.317   8.874 -0.1030  0.1421 -0.3644
  102POPC   D2A 1771   2.378   9.148   8.446  0.2429 -0.0312 -0.2147
  102POPC   C3A 1772   2.201   8.786   8.143 -0.1085  0.4093 -0.0895
  102POPC   C4A 1773   2.138   8.698   7.724 -0.0923  0.1675  0.1421
  102POPC   C1B 1774   2.477   8.870   9.234  0.0449 -0.3233 -0.1820
  102POPC   C2B 1775   2.329   8.517   9.158 -0.1149  0.0742  0.4383
  102POPC   C3B 1776   2.205   8.327   8.758  0.0878  0.3657 -0.1079
  102POPC   C4B 1777   2.160   8.082   8.503 -0.0297 -0.0576 -0.1652
  103POPC   NC3 1778   8.166   5.200   9.046  0.0733  0.0505 -0.2696
  103POPC   PO4 1779   7.943   4.994   8.712 -0.0253 -0.2702  0.0154
  103POPC   GL1 1780   8.190   4.842   8.306  0.0661  0.2468 -0.2215
  103POPC   GL2 1781   8.091   4.510   8.084 -0.0642 -0.0021 -0.1498
  103POPC   C1A 1782   8.009   4.993   7.926 -0.1350  0.2932  0.0619
  103POPC   D2A 1783   8.126   5.242   7.595  0.1990 -0.0950 -0.1269
  103POPC   C3A 1784   8.160   5.639   7.470  0.1959  0.3514  0.0241
  103POPC   C4A 1785   7.926   5.919   7.214 -0.1807  0.1726 -0.0795
  103POPC   C1B 1786   8.029   4.198   7.814 -0.1615  0.3296  0.2377
  103POPC   C2B 1787   7.836   3.879   7.526  0.1396  0.3501 -0.2490
  103POPC   C3B 1788   7.608   3.658   7.341 -0.2770  0.0649  0.4146
  103POPC   C4B 1789   7.348   3.478   7.102 -0.3589 -0.3603 -0.0850
  104POPC   NC3 1790   7.442   7.494   9.201 -0.0424 -0.1079  0.2376
  104POPC   PO4 1791   7.278   7.631   8.790 -0.1390 -0.0630  0.1291
  104POPC   GL1 1792   7.421   7.585   8.301  0.0959  0.3411 -0.1736
  104POPC   GL2 1793   7.748   7.722   8.111 -0.2569  0.0849 -0.0506
  104POPC   C1A 1794   7.143   7.872   8.128 -0.0853 -0.1133 -0.1039
  104POPC   D2A 1795   7.055   8.077   7.666  0.4136 -0.0291 -0.0603
  104POPC   C3A 1796   6.631   8.182   7.456  0.2074 -0.0112 -0.0599
  104POPC   C4A 1797   6.173   8.196   7.369  0.1518 -0.1059 -0.1269
  104POPC   C1B 1798   7.634   7.386   7.810 -0.1553 -0.2064 -0.2703
  104POPC   C2B 1799   7.304   7.136   7.360 -0.2410 -0.0011 -0.1323
  104POPC   C3B 1800   6.949   7.062   7.092 -0.0685  0.1258 -0.0601
  104POPC   C4B 1801   6.773   7.206   6.624 -0.4142 -0.2737 -0.0474
  105POPC   NC3 1802   3.104   4.549   9.734 -0.1314  0.4268 -0.3186
  105POPC   PO4 1803   3.407   4.585   9.395  0.3716  0.1533 -0.1104
  105POPC   GL1 1804   3.179   4.824   9.128  0.1266  0.0049  0.0493
  105POPC   GL2 1805   3.288   4.649   8.861 -0.1168 -0.2429  0.1170
  105POPC   C1A 1806   2.954   5.127   8.777  0.3842 -0.1175 -0.3098
  105POPC   D2A 1807   2.590   5.392   8.597 -0.0790 -0.0757  0.3078
  105POPC   C3A 1808   2.454   5.776   8.818  0.0914  0.5042  0.0992
  105POPC   C4A 1809   2.540   6.196   8.817 -0.1254  0.2928  0.1933
  105POPC   C1B 1810   3.385   4.915   8.375 -0.2815 -0.0874  0.1684
  105POPC   C2B 1811   3.583   4.939   7.927  0.0349 -0.0871 -0.1932
  105POPC   C3B 1812   3.969   5.064   7.746 -0.4112  0.1951  0.0278
  105POPC   C4B 1813   4.224   4.890   7.483  0.3405  0.2522 -0.0663
  106POPC   NC3 1814   9.877   7.341  10.310  0.2110  0.0116 -0.0746
  106POPC   PO4 1815  10.194   7.185   9.994  0.2086 -0.3430 -0.0777
  106POPC   GL1 1816  10.514   7.003   9.596  0.0644  0.0238  0.0303
  106POPC   GL2 1817  10.365   6.718   9.374 -0.1231  0.0468  0.1121
  106POPC   C1A 1818  10.833   7.131   9.209 -0.0138 -0.3744 -0.4412
  106POPC   D2A 1819  10.993   7.526   8.940  0.0124 -0.1572 -0.1086
  106POPC   C3A 1820  10.729   7.723   8.655  0.0536  0.2876  0.0576
  106POPC   C4A 1821  10.799   7.850   8.193  0.1404 -0.0027 -0.2289
  106POPC   C1B 1822  10.249   6.699   8.835 -0.0191 -0.0086 -0.0894
  106POPC   C2B 1823   9.970   6.756   8.399  0.0743 -0.2046  0.1385
  106POPC   C3B 1824   9.948   6.813   7.997 -0.1880 -0.0800 -0.1376
  106POPC   C4B 1825   9.929   7.030   7.550 -0.0263  0.0736  0.4048
  107POPC   NC3 1826   9.908   0.756   8.933  0.3726 -0.0155  0.0926
  107POPC   PO4 1827  10.352   0.510   9.021  0.0962  0.1367  0.1788
  107POPC   GL1 1828  10.337   0.846   8.701  0.0517  0.4495  0.2993
  107POPC   GL2 1829   9.977   0.934   8.476 -0.1099 -0.0669  0.3493
  107POPC   C1A 1830  10.439   1.235   8.475 -0.0729 -0.2332 -0.0062
  107POPC   D2A 1831  10.413   1.406   8.104 -0.0765  0.3444  0.1291
  107POPC   C3A 1832  10.708   1.134   7.755  0.2905 -0.0038  0.1648
  107POPC   C4A 1833  10.944   0.929   7.415  0.1717 -0.0237  0.4149
  107POPC   C1B 1834   9.881   0.899   8.109 -0.0631 -0.1738 -0.0520
  107POPC   C2B 1835   9.948   0.607   7.784 -0.0829  0.3736  0.2436
  107POPC   C3B 1836  10.223   0.295   7.616  0.3197  0.2335 -0.0454
  107POPC   C4B 1837  10.515   0.005   7.376  0.0171 -0.2654 -0.2623
  108POPC   NC3 1838   4.188   8.064   9.931 -0.4252 -0.1766 -0.3818
  108POPC   PO4 1839   4.209   8.412   9.692  0.0605  0.0907 -0.0740
  108POPC   GL1 1840   4.162   8.477   9.200 -0.0782  0.0838 -0.3075
  108POPC   GL2 1841   3.876   8.460   9.123  0.1665 -0.0125  0.2684
  108POPC   C1A 1842   4.371   8.627   8.830 -0.0525 -0.3107  0.0206
  108POPC   D2A 1843   4.271   8.984   8.517  0.0394 -0.1861  0.1846
  108POPC   C3A 1844   4.020   9.080   8.131 -0.0260 -0.0438  0.1761
  108POPC   C4A 1845   3.598   9.059   7.900  0.1802  0.1921  0.1579
  108POPC   C1B 1846   3.738   8.412   8.776 -0.1822  0.1506  0.2429
  108POPC   C2B 1847   3.340   8.375   8.561  0.1967  0.1913 -0.3183
  108POPC   C3B 1848   2.913   8.410   8.480 -0.1032 -0.0377 -0.0012
  108POPC   C4B 1849   2.503   8.382   8.201  0.2237  0.1475 -0.0442
  109POPC   NC3 1850   4.726   3.958   9.709 -0.1129 -0.2794  0.0892
  109POPC   PO4 1851   4.848   4.314   9.422 -0.1378  0.0580  0.0605
  109POPC   GL1 1852   4.846   4.231   9.006 -0.1619 -0.1221 -0.1069
  109POPC   GL2 1853   4.773   3.950   8.903  0.2266  0.3382  0.2321
  109POPC   C1A 1854   4.739   4.274   8.549  0.3518  0.0981  0.0653
  109POPC   D2A 1855   4.449   4.240   8.280  0.0588  0.0629  0.2700
  109POPC   C3A 1856   3.991   4.343   8.364 -0.1354 -0.1532  0.4808
  109POPC   C4A 1857   3.536   4.361   8.546  0.1692 -0.0662  0.0416
  109POPC   C1B 1858   4.811   3.732   8.398  0.2641 -0.0770 -0.1953
  109POPC   C2B 1859   4.808   3.411   8.030 -0.0622 -0.1558 -0.2649
  109POPC   C3B 1860   4.682   3.148   7.698  0.2713  0.1251  0.0932
  109POPC   C4B 1861   4.690   2.797   7.430 -0.2028 -0.0608 -0.1235
  110POPC   NC3 1862   0.847   3.832   9.075 -0.1490  0.1183 -0.1748
  110POPC   PO4 1863   1.146   3.624   9.191 -0.1906  0.2605 -0.0779
  110POPC   GL1 1864   1.299   3.701   8.807 -0.0174 -0.0885  0.1266
  110POPC   GL2 1865   1.627   3.718   8.810 -0.3029  0.0434  0.3607
  110POPC   C1A 1866   1.188   3.676   8.367  0.1532  0.2865 -0.0821
  110POPC   D2A 1867   1.339   3.618   7.943 -0.0733 -0.2892 -0.0143
  110POPC   C3A 1868   1.627   4.000   7.860  0.0709 -0.0724 -0.2467
  110POPC   C4A 1869   1.590   4.386   8.078 -0.3469 -0.1680 -0.0061
  110POPC   C1B 1870   1.654   4.013   8.419 -0.0556 -0.2377  0.0279
  110POPC   C2B 1871   1.997   4.243   8.272 -0.0296 -0.1282  0.3343
  110POPC   C3B 1872   2.128   4.141   7.870 -0.0328 -0.2490  0.2539
  110POPC   C4B 1873   2.181   4.014   7.452 -0.0220  0.0389  0.1454
  111POPC   NC3 1874   8.540   2.103   9.009  0.0816 -0.0664  0.1683
  111POPC   PO4 1875   8.532   2.514   8.985 -0.1983 -0.1244  0.4211
  111POPC   GL1 1876   8.326   2.320   8.575 -0.0279 -0.2748 -0.0575
  111POPC   GL2 1877   8.404   2.098   8.436 -0.2972 -0.0382  0.2344
  111POPC   C1A 1878   8.066   2.459   8.309 -0.3055 -0.4035  0.0054
  111POPC   D2A 1879   8.058   2.537   7.932  0.1350 -0.2632 -0.1421
  111POPC   C3A 1880   7.980   3.012   7.612 -0.1785  0.1740 -0.0754
  111POPC   C4A 1881   8.073   3.418   7.407 -0.0597 -0.2291  0.1693
  111POPC   C1B 1882   8.732   1.944   8.127  0.0845  0.1138 -0.0269
  111POPC   C2B 1883   8.931   2.204   7.835 -0.1550 -0.3299  0.1091
  111POPC   C3B 1884   8.898   2.636   7.717  0.1486  0.0180  0.2077
  111POPC   C4B 1885   9.309   2.815   7.820  0.2243 -0.2438  0.0987
  112POPC   NC3 1886   4.835   0.889   9.502 -0.0895 -0.1034 -0.0439
  112POPC   PO4 1887   4.650   0.495   9.198 -0.0187 -0.0408 -0.1953
  112POPC   GL1 1888   4.736   0.493   8.761 -0.1719  0.1155  0.2469
  112POPC   GL2 1889   4.960   0.516   8.512 -0.2115  0.1173 -0.2092
  112POPC   C1A 1890   4.537   0.301   8.407  0.0150  0.2736 -0.0929
  112POPC   D2A 1891   4.579   0.159   7.970  0.0310  0.1350 -0.0120
  112POPC   C3A 1892   4.471   0.073   7.588  0.0000 -0.0690 -0.1920
  112POPC   C4A 1893   4.099   0.025   7.421 -0.1367  0.0712  0.3703
  112POPC   C1B 1894   4.860   0.586   8.101  0.2583 -0.0831 -0.0862
  112POPC   C2B 1895   4.765   0.819   7.772  0.0398 -0.0217 -0.2447
  112POPC   C3B 1896   4.671   1.233   7.598  0.2016  0.0583  0.1707
  112POPC   C4B 1897   4.295   1.506   7.431 -0.4412  0.2767 -0.1442
  113POPC   NC3 1898   0.113   5.907   9.508 -0.0222 -0.2474  0.1534
  113POPC   PO4 1899  -0.006   5.707   9.183 -0.1646 -0.1614 -0.1271
  113POPC   GL1 1900   0.292   5.859   8.842  0.1179 -0.0431 -0.1088
  113POPC   GL2 1901   0.152   5.628   8.577 -0.0783  0.0185 -0.2082
  113POPC   C1A 1902   0.468   6.190   8.617  0.3817 -0.2245 -0.0505
  113POPC   D2A 1903   0.585   6.240   8.273  0.1138 -0.1839 -0.1220
  113POPC   C3A 1904   0.852   6.509   8.369 -0.1595 -0.2433  0.0176
  113POPC   C4A 1905   1.000   6.478   8.771  0.2115 -0.1753  0.1341
  113POPC   C1B 1906   0.322   5.378   8.236  0.3711  0.0931 -0.3226
  113POPC   C2B 1907   0.082   5.101   7.858  0.0108 -0.1132 -0.0410
  113POPC   C3B 1908   0.142   4.841   7.485  0.2359  0.0455  0.0005
  113POPC   C4B 1909   0.523   4.683   7.316 -0.3077 -0.2554  0.3279
  114POPC   NC3 1910   6.565   7.353   8.942 -0.1005 -0.2567 -0.1387
  114POPC   PO4 1911   7.000   7.232   8.750 -0.0066  0.0775 -0.0374
  114POPC   GL1 1912   7.082   7.162   8.350 -0.0613  0.1425 -0.0337
  114POPC   GL2 1913   7.345   7.048   8.227  0.1603  0.0906  0.1492
  114POPC   C1A 1914   7.128   7.380   7.974  0.0592  0.2405  0.1454
  114POPC   D2A 1915   7.179   7.583   7.506  0.2479 -0.1133  0.0599
  114POPC   C3A 1916   7.542   7.629   7.283  0.1421  0.1086  0.2503
  114POPC   C4A 1917   7.754   7.280   7.296 -0.1261 -0.0608 -0.1045
  114POPC   C1B 1918   7.178   6.913   7.861  0.0406 -0.0902  0.1994
  114POPC   C2B 1919   7.141   6.689   7.453 -0.0680  0.1769  0.1551
  114POPC   C3B 1920   7.205   6.633   6.962 -0.0690  0.0351  0.1882
  114POPC   C4B 1921   7.043   6.654   6.586 -0.2354 -0.2011 -0.3481
  115POPC   NC3 1922   4.508   2.855   9.474  0.1371 -0.0843 -0.3000
  115POPC   PO4 1923   4.302   2.524   9.329 -0.0551 -0.1875  0.0601
  115POPC   GL1 1924   4.372   2.631   8.945 -0.1440 -0.4036 -0.1653
  115POPC   GL2 1925   4.092   2.476   8.818 -0.0040  0.1983  0.0559
  115POPC   C1A 1926   4.318   3.021   8.718  0.2182 -0.2150  0.0189
  115POPC   D2A 1927   4.559   3.235   8.478  0.0100  0.0112 -0.0578
  115POPC   C3A 1928   4.503   2.957   8.154 -0.3923  0.0222  0.4134
  115POPC   C4A 1929   4.495   2.600   7.829  0.0657  0.0627 -0.0245
  115POPC   C1B 1930   4.233   2.581   8.423  0.1735 -0.2968 -0.1786
  115POPC   C2B 1931   4.035   2.473   7.999  0.2200  0.1500  0.0491
  115POPC   C3B 1932   3.697   2.336   7.729 -0.3224 -0.1199 -0.0300
  115POPC   C4B 1933   3.336   2.247   7.682 -0.2878 -0.1102 -0.1137
  116POPC   NC3 1934   0.783   8.459   9.873 -0.2286 -0.1721 -0.1137
  116POPC   PO4 1935   1.205   8.653   9.830 -0.0413 -0.1372  0.1189
  116POPC   GL1 1936   1.473   8.716   9.378 -0.0366  0.0745 -0.0071
  116POPC   GL2 1937   1.374   9.004   9.210  0.0491  0.1990  0.1844
  116POPC   C1A 1938   1.806   8.551   9.075 -0.0440  0.1744 -0.1670
  116POPC   D2A 1939   1.728   8.554   8.631  0.4372 -0.2440 -0.0609
  116POPC   C3A 1940   1.326   8.581   8.444  0.3516 -0.2049  0.0471
  116POPC   C4A 1941   1.179   8.498   8.060 -0.0384 -0.0201  0.1220
  116POPC   C1B 1942   1.327   8.787   8.919  0.1517 -0.2048  0.1447
  116POPC   C2B 1943   1.336   8.412   8.915 -0.0124  0.0193 -0.1388
  116POPC   C3B 1944   1.444   8.033   9.087  0.0276 -0.0245 -0.0408
  116POPC   C4B 1945   1.631   7.858   9.481 -0.2599 -0.2247  0.0911
  117POPC   NC3 1946   0.344   4.903   9.711  0.0579 -0.1279 -0.0389
  117POPC   PO4 1947   0.756   5.024   9.680 -0.0550 -0.0463  0.3144
  117POPC   GL1 1948   0.751   5.184   9.332 -0.1022 -0.4210 -0.0125
  117POPC   GL2 1949   0.899   5.012   8.955 -0.2209 -0.3895  0.1243
  117POPC   C1A 1950   0.920   5.643   9.056  0.0059  0.0510 -0.1778
  117POPC   D2A 1951   0.696   6.009   9.019 -0.0033 -0.3200  0.2672
  117POPC   C3A 1952   0.510   6.333   9.110  0.1343 -0.0538 -0.2088
  117POPC   C4A 1953   0.556   6.697   8.877 -0.2268 -0.0857  0.2312
  117POPC   C1B 1954   1.318   4.908   8.627 -0.2092  0.1664  0.1020
  117POPC   C2B 1955   1.275   4.789   8.173 -0.0155  0.3254 -0.4176
  117POPC   C3B 1956   1.067   5.047   7.771 -0.0321 -0.0084 -0.0467
  117POPC   C4B 1957   0.908   5.036   7.435 -0.0717  0.0836 -0.2360
  118POPC   NC3 1958   5.366   1.942   9.730 -0.0024  0.0123 -0.0001
  118POPC   PO4 1959   5.631   1.976   9.390  0.1759  0.0402 -0.1889
  118POPC   GL1 1960   5.530   2.057   8.998 -0.2448  0.0245 -0.0127
  118POPC   GL2 1961   5.509   1.829   8.736 -0.3757  0.1279  0.0738
  118POPC   C1A 1962   5.546   2.382   8.633  0.1215 -0.2573 -0.2679
  118POPC   D2A 1963   5.303   2.635   8.216  0.3129 -0.2349 -0.1104
  118POPC   C3A 1964   5.498   2.664   7.850  0.0937 -0.0378  0.0100
  118POPC   C4A 1965   5.417   2.850   7.495  0.0671  0.0102  0.3265
  118POPC   C1B 1966   5.578   1.854   8.222  0.0951 -0.1072 -0.0923
  118POPC   C2B 1967   5.548   1.700   7.737 -0.0960  0.0195 -0.0544
  118POPC   C3B 1968   5.792   1.869   7.405  0.3159 -0.0273 -0.0939
  118POPC   C4B 1969   6.143   1.983   7.303 -0.3659 -0.1943  0.0005
  119POPC   NC3 1970   7.567   2.199   9.141 -0.0323  0.1709  0.2446
  119POPC   PO4 1971   7.383   2.590   8.997  0.4044 -0.0580  0.0490
  119POPC   GL1 1972   7.301   2.569   8.581  0.0347  0.0100 -0.0437
  119POPC   GL2 1973   7.215   2.214   8.538 -0.3448  0.0471 -0.2272
  119POPC   C1A 1974   7.219   2.668   8.141  0.2183  0.1201 -0.2271
  119POPC   D2A 1975   6.974   2.969   7.897 -0.3449  0.1407  0.3783
  119POPC   C3A 1976   7.033   3.290   7.466 -0.2426  0.2496  0.0535
  119POPC   C4A 1977   6.860   3.394   7.030  0.0797  0.1354 -0.0565
  119POPC   C1B 1978   7.095   2.110   8.100 -0.2093  0.4038 -0.0392
  119POPC   C2B 1979   7.281   2.059   7.650  0.2943 -0.0833 -0.2258
  119POPC   C3B 1980   7.468   1.703   7.492  0.0796 -0.2084 -0.1841
  119POPC   C4B 1981   7.545   1.847   7.079  0.0638 -0.1564 -0.2501
  120POPC   NC3 1982   8.172   4.581   8.725  0.2328  0.2964  0.1601
  120POPC   PO4 1983   8.421   4.286   8.841  0.1671  0.0072 -0.1508
  120POPC   GL1 1984   8.526   3.934   8.517 -0.0263  0.1776  0.0706
  120POPC   GL2 1985   8.348   3.694   8.583  0.1060 -0.0048 -0.0584
  120POPC   C1A 1986   8.736   4.157   8.141 -0.1274  0.1313 -0.0513
  120POPC   D2A 1987   8.648   4.491   7.832  0.0125 -0.1078  0.0623
  120POPC   C3A 1988   8.431   4.303   7.464 -0.1763  0.0945  0.1707
  120POPC   C4A 1989   8.217   3.897   7.196  0.0785  0.0827 -0.0444
  120POPC   C1B 1990   8.019   4.017   8.325  0.0379 -0.0005 -0.0515
  120POPC   C2B 1991   7.696   4.088   8.112  0.0162  0.1015 -0.0130
  120POPC   C3B 1992   7.350   4.029   7.985  0.0833  0.2575 -0.1784
  120POPC   C4B 1993   7.267   4.006   7.494  0.0789 -0.5635 -0.0277
  121POPC   NC3 1994   3.546   8.135  10.419  0.0576  0.3348 -0.0553
  121POPC   PO4 1995   3.819   7.906  10.200  0.1195  0.0352 -0.1446
  121POPC   GL1 1996   3.656   7.815   9.753  0.3599 -0.0039  0.0371
  121POPC   GL2 1997   3.746   8.075   9.565 -0.1309  0.1836  0.0059
  121POPC   C1A 1998   3.369   7.719   9.536 -0.0769 -0.0475 -0.0364
  121POPC   D2A 1999   2.949   7.834   9.611 -0.0395 -0.1204  0.0874
  121POPC   C3A 2000   2.645   7.744   9.291 -0.0159  0.1415  0.0288
  121POPC   C4A 2001   2.402   7.346   9.087 -0.4733 -0.3431  0.1753
  121POPC   C1B 2002   3.526   8.455   9.462 -0.1968 -0.4320 -0.2419
  121POPC   C2B 2003   3.169   8.763   9.360  0.1214 -0.0674 -0.0019
  121POPC   C3B 2004   3.010   9.102   8.982  0.0514  0.2371  0.1740
  121POPC   C4B 2005   3.314   9.235   8.751  0.0751  0.0392 -0.0020
  122POPC   NC3 2006   2.115   4.304   9.640  0.0335 -0.0601  0.1007
  122POPC   PO4 2007   1.817   4.504   9.413 -0.3747  0.2184  0.0117
  122POPC   GL1 2008   1.842   4.370   9.000 -0.1902 -0.0139  0.3292
  122POPC   GL2 2009   1.712   4.491   8.661  0.0484  0.1904  0.4890
  122POPC   C1A 2010   2.020   4.044   8.731 -0.1178  0.2096 -0.0734
  122POPC   D2A 2011   2.113   3.784   8.326  0.0595  0.0804 -0.2807
  122POPC   C3A 2012   2.510   3.518   8.328  0.0976  0.0613  0.0702
  122POPC   C4A 2013   2.803   3.695   8.590 -0.2060 -0.1126 -0.0313
  122POPC   C1B 2014   1.805   4.717   8.388 -0.1862  0.2662  0.1197
  122POPC   C2B 2015   1.807   5.050   8.104 -0.3712 -0.1269  0.1269
  122POPC   C3B 2016   2.069   5.475   8.175 -0.0680  0.3500 -0.1127
  122POPC   C4B 2017   2.513   5.638   8.191  0.0768 -0.0413  0.3612
  123POPC   NC3 2018   3.991   2.159   9.135 -0.3012 -0.1414  0.1264
  123POPC   PO4 2019   3.772   1.867   8.894  0.1427 -0.1789  0.1679
  123POPC   GL1 2020   4.022   1.999   8.547 -0.0995  0.3414  0.0539
  123POPC   GL2 2021   3.873   2.166   8.474 -0.4006  0.3555 -0.3533
  123POPC   C1A 2022   4.202   1.835   8.106 -0.1077 -0.1038 -0.0944
  123POPC   D2A 2023   3.990   1.827   7.730  0.1321 -0.0860  0.2221
  123POPC   C3A 2024   3.774   1.922   7.439  0.0884  0.1526  0.1830
  123POPC   C4A 2025   3.489   1.897   7.113 -0.2641 -0.0669 -0.0190
  123POPC   C1B 2026   3.722   2.054   8.101 -0.1523  0.0342 -0.0849
  123POPC   C2B 2027   3.402   1.835   7.934  0.0582 -0.0995  0.0637
  123POPC   C3B 2028   3.426   1.618   7.575  0.1696  0.2299 -0.2136
  123POPC   C4B 2029   3.500   1.296   7.263 -0.4514 -0.1697  0.2720
  124POPC   NC3 2030   8.903   5.203   9.677  0.0332 -0.1549 -0.2890
  124POPC   PO4 2031   8.780   5.012   9.233  0.0153 -0.3947 -0.1398
  124POPC   GL1 2032   8.679   4.902   8.800 -0.2068  0.0797 -0.2409
  124POPC   GL2 2033   8.444   5.127   8.568 -0.1823 -0.0561  0.0138
  124POPC   C1A 2034   8.679   4.768   8.325 -0.0544 -0.2524 -0.2506
  124POPC   D2A 2035   8.470   4.950   7.970  0.4014 -0.1421 -0.3269
  124POPC   C3A 2036   8.332   4.806   7.590  0.2848 -0.1377 -0.1018
  124POPC   C4A 2037   7.874   4.712   7.480 -0.0397 -0.0597  0.1189
  124POPC   C1B 2038   8.481   5.422   8.229  0.2710  0.0023  0.0208
  124POPC   C2B 2039   8.506   5.601   7.842 -0.2866  0.2293 -0.0790
  124POPC   C3B 2040   8.657   5.441   7.459  0.1764 -0.0692 -0.0593
  124POPC   C4B 2041   8.925   5.702   7.260  0.2430  0.1095 -0.1651
  125POPC   NC3 2042   0.898   9.818   9.183 -0.3837  0.0223 -0.0430
  125POPC   PO4 2043   1.309   9.995   9.276 -0.2257  0.2825  0.1698
  125POPC   GL1 2044   1.348  10.046   8.873 -0.0091  0.0134  0.1389
  125POPC   GL2 2045   1.538  10.223   8.750 -0.1142  0.0400 -0.0155
  125POPC   C1A 2046   1.349   9.920   8.414 -0.1920 -0.0269 -0.1022
  125POPC   D2A 2047   1.345  10.024   7.961 -0.0649 -0.2351 -0.0148
  125POPC   C3A 2048   1.452  10.497   7.767 -0.2127  0.2892 -0.1023
  125POPC   C4A 2049   1.618  10.749   7.546 -0.0277  0.1749 -0.0817
  125POPC   C1B 2050   1.670  10.357   8.394  0.2071 -0.0137 -0.0096
  125POPC   C2B 2051   1.946  10.403   8.021 -0.1903  0.2620 -0.0833
  125POPC   C3B 2052   2.166  10.543   7.741  0.0471  0.0971 -0.1127
  125POPC   C4B 2053   2.151  10.847   7.565  0.1541  0.2418  0.1642
  126POPC   NC3 2054  10.000   9.006   9.686 -0.1678 -0.0993  0.1617
  126POPC   PO4 2055   9.691   9.163   9.586  0.0756 -0.0944  0.0208
  126POPC   GL1 2056   9.691   9.029   9.199 -0.0732 -0.3606  0.1376
  126POPC   GL2 2057   9.384   8.902   9.147  0.0315 -0.1037  0.2247
  126POPC   C1A 2058   9.950   8.966   8.852  0.2793 -0.1531  0.0202
  126POPC   D2A 2059  10.034   9.153   8.603  0.0849 -0.1034 -0.0155
  126POPC   C3A 2060   9.995   9.217   8.196 -0.1856 -0.1452  0.2435
  126POPC   C4A 2061   9.922   8.942   7.931 -0.0501  0.0912 -0.0151
  126POPC   C1B 2062   9.498   8.981   8.736 -0.0577 -0.1581 -0.1744
  126POPC   C2B 2063   9.614   8.824   8.357 -0.0251  0.1605  0.0363
  126POPC   C3B 2064   9.779   8.432   8.117  0.1116  0.2353 -0.2317
  126POPC   C4B 2065   9.854   8.219   7.841 -0.3840 -0.0308 -0.0000
  127POPC   NC3 2066   1.157   9.721   9.672 -0.0308 -0.2399 -0.0416
  127POPC   PO4 2067   1.695   9.792   9.621 -0.2060 -0.1698 -0.2270
  127POPC   GL1 2068   1.625   9.437   9.388 -0.1090  0.3229  0.0084
  127POPC   GL2 2069   1.381   9.540   9.160 -0.0761  0.0633  0.1379
  127POPC   C1A 2070   1.798   9.277   9.016  0.0609  0.0757 -0.1496
  127POPC   D2A 2071   2.097   9.485   8.762  0.3976 -0.0763 -0.0945
  127POPC   C3A 2072   2.054   9.523   8.306 -0.0368  0.4253 -0.0333
  127POPC   C4A 2073   2.319   9.366   7.992  0.0424  0.0240  0.1679
  127POPC   C1B 2074   1.601   9.643   8.759 -0.0519  0.0263  0.2891
  127POPC   C2B 2075   1.516   9.458   8.246  0.0359  0.0990  0.1696
  127POPC   C3B 2076   1.396   9.343   7.859  0.0393  0.2125 -0.1053
  127POPC   C4B 2077   1.415   9.296   7.431  0.1017 -0.1291 -0.1978
  128POPC   NC3 2078   7.824  10.028   8.552 -0.3076  0.1564  0.2348
  128POPC   PO4 2079   7.882  10.457   8.782 -0.1349 -0.2939 -0.0544
  128POPC   GL1 2080   7.935  10.433   8.309 -0.0159 -0.0678  0.3897
  128POPC   GL2 2081   7.958  10.739   8.150  0.2261  0.0584  0.1383
  128POPC   C1A 2082   8.213  10.374   7.964  0.2198 -0.0768  0.1003
  128POPC   D2A 2083   8.499  10.750   7.851  0.1847 -0.2003 -0.4885
  128POPC   C3A 2084   8.310  11.014   7.942  0.0350  0.1804  0.2634
  128POPC   C4A 2085   8.158  11.400   8.073  0.1053 -0.0740 -0.0669
  128POPC   C1B 2086   8.016  10.750   7.725 -0.4552 -0.2314  0.1882
  128POPC   C2B 2087   7.947  10.915   7.303 -0.1334  0.2426 -0.1593
  128POPC   C3B 2088   7.666  11.179   7.120  0.1003  0.0818  0.1569
  128POPC   C4B 2089   7.384  11.560   7.101 -0.1264 -0.0516 -0.3042
  129POPC   NC3 2090   9.925   7.046   9.440  0.0369  0.0083  0.0916
  129POPC   PO4 2091   9.734   6.519   9.281  0.1580 -0.1633  0.0935
  129POPC   GL1 2092   9.551   6.567   8.790  0.0591 -0.2296  0.2057
  129POPC   GL2 2093   9.811   6.379   8.677  0.0022  0.0297 -0.0697
  129POPC   C1A 2094   9.484   6.601   8.439 -0.4052  0.4389 -0.0043
  129POPC   D2A 2095   9.436   6.677   8.022 -0.0390 -0.0100 -0.0013
  129POPC   C3A 2096   9.089   6.555   7.806  0.0402  0.1510  0.0010
  129POPC   C4A 2097   8.747   6.571   7.510 -0.0186  0.0607 -0.3339
  129POPC   C1B 2098  10.177   6.308   8.519  0.0197  0.0400 -0.2308
  129POPC   C2B 2099  10.346   5.962   8.191 -0.0134  0.2350 -0.1146
  129POPC   C3B 2100  10.492   5.658   7.822  0.2005 -0.0277 -0.1830
  129POPC   C4B 2101  10.537   5.306   7.436 -0.0733 -0.2549 -0.0881
  130POPC   NC3 2102   7.917   6.384   8.381 -0.1290 -0.0472  0.0630
  130POPC   PO4 2103   7.561   6.566   8.340 -0.0420 -0.1453  0.0124
  130POPC   GL1 2104   7.584   6.644   8.025  0.2622  0.1389 -0.2876
  130POPC   GL2 2105   7.885   6.611   7.960 -0.6047  0.0313  0.1157
  130POPC   C1A 2106   7.483   6.388   7.657 -0.0244 -0.0287  0.1888
  130POPC   D2A 2107   7.556   6.334   7.255  0.0974  0.1305 -0.1971
  130POPC   C3A 2108   7.392   6.049   7.015 -0.0743 -0.0984 -0.1234
  130POPC   C4A 2109   6.934   5.747   7.070  0.0019  0.2538 -0.1938
  130POPC   C1B 2110   7.683   6.941   7.643 -0.1632  0.1234 -0.1529
  130POPC   C2B 2111   7.620   6.890   7.105  0.0772  0.1274 -0.1083
  130POPC   C3B 2112   7.727   7.109   6.743 -0.3213 -0.2867  0.3596
  130POPC   C4B 2113   7.792   7.516   6.555 -0.0150  0.1544  0.2089
  131POPC   NC3 2114   3.506   3.586   9.355 -0.1517  0.2365 -0.1161
  131POPC   PO4 2115   3.391   4.082   9.560  0.2705  0.0349 -0.0184
  131POPC   GL1 2116   3.775   4.072   9.402  0.0867 -0.1821  0.1656
  131POPC   GL2 2117   3.840   4.393   9.244  0.0385 -0.0255 -0.1573
  131POPC   C1A 2118   3.919   4.031   8.896  0.2256  0.2207 -0.0092
  131POPC   D2A 2119   3.799   3.932   8.442 -0.2009  0.3792 -0.1674
  131POPC   C3A 2120   4.012   3.977   7.990  0.2098  0.0556  0.0838
  131POPC   C4A 2121   4.489   3.906   7.837 -0.4691 -0.1346  0.0292
  131POPC   C1B 2122   3.875   4.550   8.980 -0.1270  0.2161 -0.2990
  131POPC   C2B 2123   3.831   4.763   8.713  0.0149 -0.0847  0.0442
  131POPC   C3B 2124   3.909   4.889   8.295 -0.0711  0.0641  0.0106
  131POPC   C4B 2125   4.266   4.758   7.984 -0.1837 -0.3431  0.2771
  132POPC   NC3 2126   2.754   1.639   9.418  0.0981  0.0876 -0.1653
  132POPC   PO4 2127   3.256   1.697   9.506  0.2404  0.0666  0.0608
  132POPC   GL1 2128   3.246   1.604   9.087 -0.2961 -0.1069  0.0273
  132POPC   GL2 2129   3.234   1.848   8.840  0.0774 -0.0368  0.0779
  132POPC   C1A 2130   3.245   1.296   8.826 -0.0129  0.0962 -0.1933
  132POPC   D2A 2131   3.012   1.018   8.637  0.2224 -0.1623 -0.0900
  132POPC   C3A 2132   2.584   1.091   8.523 -0.0295 -0.0063  0.1025
  132POPC   C4A 2133   2.297   1.105   8.193 -0.2589  0.1416  0.2802
  132POPC   C1B 2134   3.375   2.011   8.456  0.0443  0.0411  0.0460
  132POPC   C2B 2135   3.217   2.322   8.134  0.2811 -0.0302 -0.0085
  132POPC   C3B 2136   2.748   2.291   7.972 -0.2878  0.2864 -0.2549
  132POPC   C4B 2137   2.585   2.513   7.624 -0.0055  0.1423  0.1650
  133POPC   NC3 2138   7.438   3.916   8.658  0.0824  0.0703  0.4167
  133POPC   PO4 2139   7.279   4.331   8.712 -0.1356  0.2693  0.0449
  133POPC   GL1 2140   7.172   4.446   8.236  0.1086 -0.3502  0.3062
  133POPC   GL2 2141   7.135   4.826   8.315 -0.1077 -0.1659  0.0017
  133POPC   C1A 2142   7.051   4.410   7.850  0.2056 -0.2009 -0.1606
  133POPC   D2A 2143   7.058   4.519   7.423  0.2431  0.1372 -0.0278
  133POPC   C3A 2144   7.108   4.886   7.105  0.0949  0.3030  0.2899
  133POPC   C4A 2145   7.038   5.264   7.077 -0.2740 -0.1139 -0.2310
  133POPC   C1B 2146   7.046   4.964   8.010  0.2849 -0.3776  0.3173
  133POPC   C2B 2147   6.843   5.002   7.605  0.1279  0.1524  0.2507
  133POPC   C3B 2148   6.356   4.936   7.597  0.3166 -0.2970 -0.0679
  133POPC   C4B 2149   6.083   4.752   7.384 -0.0858 -0.0706  0.0950
  134POPC   NC3 2150   0.806   7.415  10.200  0.0219  0.0810 -0.1012
  134POPC   PO4 2151   0.904   7.689   9.752  0.2149  0.0812 -0.0707
  134POPC   GL1 2152   1.086   7.772   9.337 -0.0626  0.6062 -0.2529
  134POPC   GL2 2153   0.942   7.988   9.192 -0.1187 -0.1078 -0.0027
  134POPC   C1A 2154   1.303   7.546   8.930  0.0431 -0.1383  0.1077
  134POPC   D2A 2155   1.508   7.211   8.847 -0.2202  0.0309  0.4290
  134POPC   C3A 2156   1.669   7.134   8.538  0.0282  0.2181 -0.0667
  134POPC   C4A 2157   1.935   7.256   8.228  0.1871 -0.1217 -0.0579
  134POPC   C1B 2158   1.034   7.958   8.852 -0.0406  0.1029  0.4718
  134POPC   C2B 2159   1.000   7.772   8.497 -0.1065  0.1798 -0.1475
  134POPC   C3B 2160   0.953   7.447   8.032 -0.0257 -0.2566 -0.1067
  134POPC   C4B 2161   1.096   7.383   7.640 -0.1898  0.0111 -0.0589
  135POPC   NC3 2162   5.091   6.704   9.753  0.1320  0.1894 -0.1511
  135POPC   PO4 2163   4.814   6.854  10.121  0.2281  0.2855 -0.1059
  135POPC   GL1 2164   4.518   6.945   9.737  0.1780  0.1424  0.1437
  135POPC   GL2 2165   4.648   6.912   9.538 -0.0952 -0.0078  0.0416
  135POPC   C1A 2166   4.165   7.093   9.463 -0.1975  0.1849  0.5319
  135POPC   D2A 2167   3.913   6.898   9.132 -0.0260 -0.1593 -0.1198
  135POPC   C3A 2168   3.865   6.446   8.879  0.2070 -0.0782  0.0127
  135POPC   C4A 2169   4.164   6.184   8.586 -0.0540  0.0714 -0.1262
  135POPC   C1B 2170   4.595   6.945   9.182 -0.0650 -0.3074 -0.0355
  135POPC   C2B 2171   4.721   6.818   8.780 -0.1156 -0.3862  0.2918
  135POPC   C3B 2172   4.492   6.588   8.454 -0.0153 -0.2142 -0.0303
  135POPC   C4B 2173   4.253   6.429   8.023  0.1702 -0.0438  0.0975
  136POPC   NC3 2174   9.287   9.498   9.727 -0.0256  0.0022 -0.2344
  136POPC   PO4 2175   9.635   9.713   9.474  0.0083 -0.2399  0.0747
  136POPC   GL1 2176   9.833   9.725   9.128 -0.0725 -0.1891  0.0030
  136POPC   GL2 2177   9.765   9.470   8.886  0.1409 -0.5335 -0.0201
  136POPC   C1A 2178  10.000  10.113   8.907 -0.1528 -0.2031  0.1749
  136POPC   D2A 2179  10.101  10.493   8.637  0.1148 -0.0155 -0.0113
  136POPC   C3A 2180   9.736  10.643   8.304  0.0577  0.0833  0.0457
  136POPC   C4A 2181   9.379  10.507   8.114 -0.1276  0.2784 -0.2406
  136POPC   C1B 2182   9.582   9.323   8.429 -0.0520 -0.1256  0.0149
  136POPC   C2B 2183   9.486   9.260   8.008  0.1616 -0.0817 -0.1312
  136POPC   C3B 2184   9.525   9.496   7.566  0.0266  0.1000 -0.1590
  136POPC   C4B 2185   9.599   9.790   7.348 -0.2372  0.2585 -0.0047
  137POPC   NC3 2186   2.267   0.993   9.143  0.3219 -0.0740  0.0182
  137POPC   PO4 2187   2.174   0.539   9.191  0.0522  0.0401 -0.2111
  137POPC   GL1 2188   2.193   0.421   8.836  0.0754 -0.2411  0.1273
  137POPC   GL2 2189   1.979   0.145   8.890 -0.0315 -0.2610 -0.2266
  137POPC   C1A 2190   2.101   0.474   8.410 -0.0022 -0.1064  0.2260
  137POPC   D2A 2191   1.955   0.685   8.037 -0.0050 -0.1058  0.0492
  137POPC   C3A 2192   1.952   1.086   7.871  0.1989 -0.4681  0.4759
  137POPC   C4A 2193   1.608   1.375   7.788  0.3761 -0.0154 -0.1709
  137POPC   C1B 2194   1.963  -0.237   8.519 -0.0315 -0.1369  0.1030
  137POPC   C2B 2195   1.800  -0.283   8.153  0.0181 -0.1908  0.1893
  137POPC   C3B 2196   1.750  -0.457   7.783  0.0938  0.2583 -0.0644
  137POPC   C4B 2197   1.800  -0.541   7.369  0.2549  0.0996 -0.2105
  138POPC   NC3 2198   7.487   7.182   8.727 -0.3943  0.2380  0.1328
  138POPC   PO4 2199   7.830   7.539   8.850 -0.3159 -0.1192  0.3700
  138POPC   GL1 2200   8.120   7.596   8.424  0.1942 -0.1014 -0.0690
  138POPC   GL2 2201   8.136   7.930   8.421 -0.2874  0.0878 -0.1179
  138POPC   C1A 2202   8.354   7.520   7.962 -0.2244  0.4227  0.4200
  138POPC   D2A 2203   8.630   7.511   7.504 -0.1642  0.3325 -0.1766
  138POPC   C3A 2204   8.677   7.163   7.220 -0.0774 -0.2424  0.2175
  138POPC   C4A 2205   9.075   7.101   6.950  0.0575 -0.0055 -0.0250
  138POPC   C1B 2206   8.186   8.147   8.048 -0.1889 -0.2045 -0.0863
  138POPC   C2B 2207   8.495   8.377   7.738  0.2420 -0.1857  0.0766
  138POPC   C3B 2208   8.865   8.195   7.450 -0.0495  0.2248 -0.0561
  138POPC   C4B 2209   9.242   7.972   7.190 -0.2802 -0.0491 -0.0575
  139POPC   NC3 2210   4.742   8.282   9.216  0.1380  0.0827  0.1664
  139POPC   PO4 2211   5.157   8.156   9.298 -0.1698 -0.3732  0.1675
  139POPC   GL1 2212   5.101   8.168   8.887 -0.0684  0.2495 -0.0862
  139POPC   GL2 2213   5.047   7.832   8.674 -0.2359  0.2300 -0.2216
  139POPC   C1A 2214   4.767   8.231   8.560 -0.0563 -0.0296 -0.0367
  139POPC   D2A 2215   4.512   8.157   8.137  0.0996 -0.2244  0.1956
  139POPC   C3A 2216   4.307   8.184   7.785 -0.0118  0.1095  0.4798
  139POPC   C4A 2217   4.054   7.796   7.663  0.0977  0.0952 -0.0280
  139POPC   C1B 2218   4.917   7.848   8.240 -0.1298  0.3011  0.0588
  139POPC   C2B 2219   4.938   7.787   7.758 -0.0538 -0.0712  0.0852
  139POPC   C3B 2220   4.719   8.008   7.503  0.1565 -0.1913  0.0898
  139POPC   C4B 2221   4.497   8.343   7.293  0.0272 -0.2911 -0.3970
  140POPC   NC3 2222   8.345   7.551   8.896  0.2537 -0.1220  0.6075
  140POPC   PO4 2223   8.660   7.616   8.826  0.0145  0.0778 -0.1242
  140POPC   GL1 2224   8.697   7.885   8.460 -0.0711  0.0397  0.2069
  140POPC   GL2 2225   9.064   7.904   8.432 -0.0213  0.0619 -0.1008
  140POPC   C1A 2226   8.604   7.906   7.977  0.3444 -0.1150  0.2157
  140POPC   D2A 2227   8.351   7.935   7.532 -0.2491 -0.0321  0.0041
  140POPC   C3A 2228   7.933   7.817   7.646  0.1296  0.1041  0.4116
  140POPC   C4A 2229   7.699   8.096   7.365  0.2569 -0.1642 -0.4743
  140POPC   C1B 2230   8.980   7.582   8.097 -0.2124  0.1229 -0.3018
  140POPC   C2B 2231   9.086   7.723   7.698 -0.0114 -0.1596  0.2525
  140POPC   C3B 2232   9.125   7.451   7.270  0.1849  0.0720  0.0263
  140POPC   C4B 2233   8.998   7.565   6.785  0.2452 -0.3445 -0.0700
  141POPC   NC3 2234   0.674   0.292   9.366 -0.0397 -0.1623 -0.3041
  141POPC   PO4 2235   0.545  -0.150   9.398  0.1413 -0.2657 -0.1035
  141POPC   GL1 2236   0.367  -0.293   9.020 -0.1242  0.0628  0.1705
  141POPC   GL2 2237   0.309  -0.018   8.854 -0.1673 -0.0521 -0.4089
  141POPC   C1A 2238   0.477  -0.393   8.617 -0.1485 -0.0914 -0.0831
  141POPC   D2A 2239   0.458  -0.373   8.199  0.2077  0.0552  0.0028
  141POPC   C3A 2240   0.367  -0.018   7.903 -0.1578  0.0018  0.1347
  141POPC   C4A 2241   0.522   0.337   7.839 -0.0827 -0.0987  0.1035
  141POPC   C1B 2242   0.063  -0.132   8.480 -0.2606  0.1048  0.3236
  141POPC   C2B 2243  -0.046  -0.268   7.997 -0.3271 -0.0373  0.1195
  141POPC   C3B 2244  -0.179  -0.400   7.641 -0.0623 -0.0117  0.3722
  141POPC   C4B 2245  -0.189  -0.037   7.348  0.1091  0.1156  0.3394
  142POPC   NC3 2246   1.236   5.028   9.713  0.1447  0.0133  0.1792
  142POPC   PO4 2247   1.673   4.965   9.720 -0.0138  0.1728 -0.3927
  142POPC   GL1 2248   1.749   4.942   9.232  0.0675 -0.0073  0.0557
  142POPC   GL2 2249   1.461   4.790   9.086 -0.1485  0.1583 -0.3972
  142POPC   C1A 2250   1.995   4.870   8.797 -0.2687 -0.0667  0.0726
  142POPC   D2A 2251   2.047   5.166   8.546  0.1508 -0.1340  0.1305
  142POPC   C3A 2252   2.053   5.489   8.764  0.0979  0.0452 -0.0866
  142POPC   C4A 2253   1.817   5.790   8.822 -0.2273  0.0415  0.1976
  142POPC   C1B 2254   1.143   4.477   8.778 -0.1773 -0.1779 -0.3513
  142POPC   C2B 2255   1.065   4.223   8.471 -0.1543 -0.0010  0.3388
  142POPC   C3B 2256   0.683   4.037   8.292 -0.3056 -0.2254 -0.1310
  142POPC   C4B 2257   0.299   4.073   8.485  0.1088  0.1130  0.1217
  143POPC   NC3 2258   9.178   0.396   9.444  0.0891 -0.0533  0.2157
  143POPC   PO4 2259   9.080   0.760   9.260  0.1441 -0.2549 -0.1349
  143POPC   GL1 2260   9.268   0.879   8.856  0.1074  0.1675 -0.2183
  143POPC   GL2 2261   9.489   0.883   8.655  0.0911  0.2157  0.3532
  143POPC   C1A 2262   9.037   1.065   8.545  0.0779 -0.0445 -0.0443
  143POPC   D2A 2263   8.617   1.023   8.326  0.0481  0.0525 -0.0591
  143POPC   C3A 2264   8.779   1.016   7.896 -0.1357  0.3154 -0.1928
  143POPC   C4A 2265   8.967   1.075   7.539 -0.0122  0.1370  0.0084
  143POPC   C1B 2266   9.353   0.790   8.237  0.1428 -0.0003  0.0785
  143POPC   C2B 2267   9.455   0.770   7.855  0.1364 -0.0339  0.0875
  143POPC   C3B 2268   9.716   1.023   7.584 -0.4011 -0.2590  0.1204
  143POPC   C4B 2269  10.025   1.338   7.410  0.2025 -0.0059  0.2480
  144POPC   NC3 2270   9.299   1.401   9.246  0.2256  0.0275 -0.1193
  144POPC   PO4 2271   9.661   1.172   9.145  0.2147  0.2742 -0.0237
  144POPC   GL1 2272   9.630   1.341   8.775 -0.0326 -0.0127 -0.0601
  144POPC   GL2 2273   9.334   1.430   8.761  0.0295  0.1352 -0.1909
  144POPC   C1A 2274   9.917   1.403   8.287 -0.1955 -0.1184 -0.2949
  144POPC   D2A 2275   9.945   1.431   7.911  0.2027  0.0912  0.0281
  144POPC   C3A 2276  10.214   1.063   7.815  0.2125 -0.1460 -0.0446
  144POPC   C4A 2277  10.432   0.754   7.558 -0.0854  0.1237  0.0470
  144POPC   C1B 2278   9.424   1.287   8.347 -0.2480  0.1725 -0.3255
  144POPC   C2B 2279   9.411   1.254   7.945  0.2989 -0.0241  0.0468
  144POPC   C3B 2280   9.401   1.431   7.495 -0.0223  0.0460  0.2346
  144POPC   C4B 2281   9.193   1.302   7.116 -0.0996 -0.1913  0.0263
  145POPC   NC3 2282   8.747   0.144   8.785 -0.0778  0.0635 -0.1051
  145POPC   PO4 2283   9.096   0.397   8.949 -0.0821  0.3513 -0.0328
  145POPC   GL1 2284   9.153   0.414   8.544  0.2840  0.1661  0.0046
  145POPC   GL2 2285   9.050   0.041   8.405  0.0126 -0.0818  0.0400
  145POPC   C1A 2286   8.916   0.590   8.139  0.0705  0.0214 -0.1588
  145POPC   D2A 2287   9.064   0.547   7.688 -0.2083 -0.1699 -0.0969
  145POPC   C3A 2288   8.777   0.636   7.447 -0.1509  0.2844 -0.0953
  145POPC   C4A 2289   8.333   0.397   7.367  0.0718  0.1246 -0.0218
  145POPC   C1B 2290   9.102  -0.156   8.092  0.0759  0.0407  0.0870
  145POPC   C2B 2291   9.255  -0.393   7.815  0.0675 -0.2265  0.1135
  145POPC   C3B 2292   9.025  -0.441   7.506 -0.1701  0.1211 -0.2342
  145POPC   C4B 2293   9.166  -0.560   7.102  0.0235  0.1326 -0.5763
  146POPC   NC3 2294   5.671   0.224   9.397  0.0800  0.1939 -0.0488
  146POPC   PO4 2295   5.653   0.491   9.120  0.0034 -0.1675 -0.2206
  146POPC   GL1 2296   5.771   0.488   8.631 -0.1358  0.0734 -0.0927
  146POPC   GL2 2297   6.155   0.410   8.534  0.0019 -0.4097 -0.1405
  146POPC   C1A 2298   5.745   0.738   8.291 -0.4404  0.3711 -0.0289
  146POPC   D2A 2299   5.719   0.596   7.901 -0.0083 -0.1492 -0.0607
  146POPC   C3A 2300   5.858   0.799   7.548 -0.0931 -0.2814 -0.1354
  146POPC   C4A 2301   5.798   0.639   7.138  0.1050 -0.0647 -0.1857
  146POPC   C1B 2302   6.201   0.460   8.045 -0.1902 -0.0697  0.0377
  146POPC   C2B 2303   6.400   0.747   7.707 -0.5450 -0.1773 -0.0145
  146POPC   C3B 2304   6.403   0.829   7.251 -0.0985 -0.1396  0.0214
  146POPC   C4B 2305   6.535   0.642   6.918 -0.1628 -0.1887  0.3241
  147POPC   NC3 2306   5.454   8.964   8.936 -0.1613  0.2212  0.2483
  147POPC   PO4 2307   5.884   8.979   8.976 -0.1261 -0.0558  0.0873
  147POPC   GL1 2308   5.848   9.044   8.595 -0.0254  0.2421 -0.1886
  147POPC   GL2 2309   5.493   8.894   8.431 -0.1441  0.0169 -0.2048
  147POPC   C1A 2310   6.149   9.225   8.351 -0.0444 -0.0390  0.1429
  147POPC   D2A 2311   6.098   9.206   7.955  0.2432 -0.1539  0.1316
  147POPC   C3A 2312   6.432   8.991   7.786  0.0763 -0.1509  0.2705
  147POPC   C4A 2313   6.921   9.090   7.799 -0.1821 -0.1499 -0.4045
  147POPC   C1B 2314   5.188   8.822   8.085  0.1948  0.1261  0.0486
  147POPC   C2B 2315   5.142   8.767   7.583  0.4016  0.1084 -0.1065
  147POPC   C3B 2316   4.899   8.778   7.185 -0.4238  0.0584  0.0816
  147POPC   C4B 2317   5.097   8.951   6.809 -0.0329 -0.2413  0.1495
  148POPC   NC3 2318   2.926   5.855  10.550 -0.1309 -0.2355 -0.0140
  148POPC   PO4 2319   2.695   5.828  10.186  0.0556  0.1381  0.6278
  148POPC   GL1 2320   2.887   5.832   9.702 -0.1836 -0.1753  0.1627
  148POPC   GL2 2321   3.050   5.600   9.440 -0.1607 -0.1383  0.2473
  148POPC   C1A 2322   2.965   6.024   9.289  0.1843 -0.1068 -0.2162
  148POPC   D2A 2323   3.262   5.990   8.914 -0.2177  0.2288 -0.0034
  148POPC   C3A 2324   3.352   6.440   8.853  0.0389 -0.2193 -0.1427
  148POPC   C4A 2325   3.516   6.854   8.690 -0.2581 -0.0435  0.3760
  148POPC   C1B 2326   2.589   5.734   9.299  0.1620 -0.0164  0.1210
  148POPC   C2B 2327   2.376   6.065   9.255 -0.2984  0.1315 -0.1377
  148POPC   C3B 2328   2.415   6.506   9.176 -0.0876 -0.1254 -0.1246
  148POPC   C4B 2329   2.467   6.864   8.833 -0.1816  0.1775  0.1952
  149POPC   NC3 2330   6.789   0.718   9.182  0.1191  0.0215 -0.1183
  149POPC   PO4 2331   6.303   0.738   9.269 -0.1075  0.1156 -0.0715
  149POPC   GL1 2332   6.378   0.826   8.823 -0.2327 -0.2117 -0.1570
  149POPC   GL2 2333   6.630   0.756   8.597 -0.2312 -0.3703  0.1608
  149POPC   C1A 2334   6.248   1.025   8.317  0.1518  0.0575 -0.1224
  149POPC   D2A 2335   6.094   1.025   7.950  0.0122  0.1142  0.0780
  149POPC   C3A 2336   6.225   1.335   7.648 -0.1886 -0.0178  0.0408
  149POPC   C4A 2337   6.187   1.463   7.285 -0.0742  0.1163 -0.1566
  149POPC   C1B 2338   6.752   0.651   8.130  0.4371 -0.0588  0.1029
  149POPC   C2B 2339   6.899   0.760   7.686  0.3307  0.1256  0.2165
  149POPC   C3B 2340   6.908   0.640   7.256  0.3524  0.0439 -0.0555
  149POPC   C4B 2341   7.248   0.741   6.959 -0.0384  0.2767 -0.4002
  150POPC   NC3 2342   5.340   1.582   9.267  0.2967 -0.1017 -0.0253
  150POPC   PO4 2343   4.933   1.382   9.284 -0.0296 -0.3159  0.1136
  150POPC   GL1 2344   4.601   1.296   8.926 -0.2383 -0.1071  0.4182
  150POPC   GL2 2345   4.394   0.939   8.759  0.0919 -0.1550  0.0675
  150POPC   C1A 2346   4.396   1.384   8.436 -0.0363  0.1316 -0.2975
  150POPC   D2A 2347   4.399   1.204   8.050  0.0001  0.2466  0.2224
  150POPC   C3A 2348   4.173   1.392   7.909  0.0470 -0.1464 -0.0646
  150POPC   C4A 2349   3.871   1.371   7.556 -0.2039 -0.3460 -0.0612
  150POPC   C1B 2350   4.417   0.823   8.344 -0.0439 -0.0603  0.0155
  150POPC   C2B 2351   4.322   0.617   7.947  0.0849 -0.3838 -0.2747
  150POPC   C3B 2352   4.429   0.598   7.527  0.1138  0.1211  0.1485
  150POPC   C4B 2353   4.792   0.741   7.271  0.1921 -0.0037  0.2973
  151POPC   NC3 2354   7.931   1.376   9.125  0.2911 -0.0009 -0.0263
  151POPC   PO4 2355   7.674   1.649   9.232  0.1347 -0.1278  0.2712
  151POPC   GL1 2356   7.538   1.639   8.854  0.1887  0.0563  0.2457
  151POPC   GL2 2357   7.419   1.289   8.746  0.3032 -0.3769  0.2086
  151POPC   C1A 2358   7.468   1.800   8.477 -0.0703  0.2366  0.2052
  151POPC   D2A 2359   7.473   1.754   8.017 -0.1269 -0.3432  0.3112
  151POPC   C3A 2360   7.838   1.573   7.851 -0.1552  0.0810  0.2396
  151POPC   C4A 2361   7.864   1.511   7.323  0.0391  0.5441  0.2934
  151POPC   C1B 2362   7.227   1.340   8.426  0.0778 -0.1050  0.1708
  151POPC   C2B 2363   7.119   1.386   8.050  0.1234 -0.1534  0.1784
  151POPC   C3B 2364   7.394   1.210   7.737  0.1694  0.1855 -0.0910
  151POPC   C4B 2365   7.882   1.052   7.697 -0.1313  0.1215 -0.0619
  152POPC   NC3 2366   4.139   9.554   9.357 -0.1163 -0.0653 -0.3479
  152POPC   PO4 2367   3.965   9.886   9.110  0.1810 -0.3085  0.1489
  152POPC   GL1 2368   3.762   9.879   8.714  0.1995 -0.1394 -0.0730
  152POPC   GL2 2369   3.485   9.700   8.804  0.0388 -0.2413  0.0409
  152POPC   C1A 2370   4.031   9.872   8.339  0.3250 -0.2298 -0.1189
  152POPC   D2A 2371   4.261   9.818   7.987 -0.1435 -0.1437  0.1949
  152POPC   C3A 2372   4.244   9.814   7.547 -0.0666  0.1063 -0.1188
  152POPC   C4A 2373   4.426   9.396   7.307  0.1001 -0.0909  0.1207
  152POPC   C1B 2374   3.176   9.772   8.529  0.1582 -0.1906  0.0534
  152POPC   C2B 2375   2.958   9.675   8.100 -0.0654 -0.2322  0.1275
  152POPC   C3B 2376   2.792   9.418   7.899 -0.0751  0.2592 -0.0747
  152POPC   C4B 2377   3.005   9.347   7.499  0.1069 -0.0790  0.4496
  153POPC   NC3 2378   0.085   3.290   8.927 -0.3873 -0.2535  0.0365
  153POPC   PO4 2379  -0.327   3.490   9.103  0.1114 -0.4614 -0.2458
  153POPC   GL1 2380  -0.212   3.724   8.717  0.1031  0.0675  0.0862
  153POPC   GL2 2381   0.026   3.664   8.493  0.2166  0.2293  0.1263
  153POPC   C1A 2382  -0.200   4.084   8.365 -0.3063 -0.1878 -0.1297
  153POPC   D2A 2383  -0.446   4.154   8.021 -0.1391  0.3418  0.1396
  153POPC   C3A 2384  -0.871   4.211   7.786 -0.0408  0.1681  0.0046
  153POPC   C4A 2385  -1.104   4.506   8.056  0.2131  0.0853 -0.1947
  153POPC   C1B 2386   0.419   3.629   8.129  0.1295  0.0513 -0.1137
  153POPC   C2B 2387   0.562   3.897   7.823 -0.2056  0.2051 -0.1514
  153POPC   C3B 2388   0.859   4.248   7.546  0.0266  0.0021  0.1983
  153POPC   C4B 2389   1.020   4.465   7.206  0.0211 -0.0399  0.0927
  154POPC   NC3 2390   5.014   9.148   9.338 -0.0505  0.0410  0.2366
  154POPC   PO4 2391   5.327   9.361   9.138  0.1918  0.4380  0.0892
  154POPC   GL1 2392   5.014   9.514   8.800 -0.0429  0.1004 -0.3041
  154POPC   GL2 2393   4.889   9.838   8.794  0.1571 -0.0269 -0.1166
  154POPC   C1A 2394   5.132   9.674   8.403  0.0120 -0.1837  0.1854
  154POPC   D2A 2395   5.342   9.852   8.131 -0.2648 -0.2611  0.1503
  154POPC   C3A 2396   5.318   9.634   7.765 -0.2430 -0.2437  0.0450
  154POPC   C4A 2397   5.376   9.595   7.378 -0.1839  0.0577 -0.1760
  154POPC   C1B 2398   5.000  10.181   8.576  0.0818  0.0662 -0.2313
  154POPC   C2B 2399   5.028  10.219   8.215  0.1133 -0.1634 -0.1663
  154POPC   C3B 2400   4.951  10.067   7.796  0.1362  0.1804 -0.0329
  154POPC   C4B 2401   4.952  10.498   7.658  0.3782 -0.0328 -0.0310
  155POPC   NC3 2402   7.661   7.971   8.627 -0.0710 -0.2726  0.0796
  155POPC   PO4 2403   7.967   8.336   8.667  0.0190 -0.1837  0.0137
  155POPC   GL1 2404   7.688   8.206   8.200 -0.2029 -0.0057 -0.3352
  155POPC   GL2 2405   7.320   8.344   8.289  0.3273 -0.1425 -0.0154
  155POPC   C1A 2406   7.507   8.106   7.881 -0.4103  0.0456  0.0234
  155POPC   D2A 2407   7.357   8.478   7.500  0.0862 -0.1231 -0.2368
  155POPC   C3A 2408   7.617   8.702   7.367 -0.1499  0.2852  0.2285
  155POPC   C4A 2409   7.921   9.079   7.279  0.1407 -0.1315 -0.2965
  155POPC   C1B 2410   7.040   8.576   8.040 -0.1011 -0.1395  0.2080
  155POPC   C2B 2411   6.821   8.591   7.587  0.0879 -0.1783 -0.1115
  155POPC   C3B 2412   6.986   8.400   7.235 -0.0323  0.2423 -0.0871
  155POPC   C4B 2413   7.219   7.977   7.203 -0.0332 -0.1993 -0.1267
  156POPC   NC3 2414   7.821   2.804   9.318 -0.1780 -0.0767 -0.3545
  156POPC   PO4 2415   8.060   3.145   9.119  0.0650 -0.2555  0.0662
  156POPC   GL1 2416   8.281   3.184   8.729 -0.2165  0.0703  0.2940
  156POPC   GL2 2417   8.452   2.917   8.592 -0.0724  0.1165 -0.0078
  156POPC   C1A 2418   8.584   3.266   8.306  0.1993 -0.3851  0.3828
  156POPC   D2A 2419   8.910   3.111   7.927  0.2166 -0.0520  0.0861
  156POPC   C3A 2420   9.178   3.380   7.611  0.1300 -0.0842  0.1831
  156POPC   C4A 2421   9.420   3.711   7.825  0.0349 -0.1564 -0.3526
  156POPC   C1B 2422   8.653   2.600   8.283  0.0235  0.0960  0.2580
  156POPC   C2B 2423   8.444   2.285   7.992  0.1841 -0.5500  0.0656
  156POPC   C3B 2424   8.303   1.818   7.697 -0.1528 -0.0894  0.1518
  156POPC   C4B 2425   8.354   1.612   7.386 -0.3097 -0.0193 -0.1055
  157POPC   NC3 2426   9.186   6.131   4.076  0.1244  0.1256 -0.1043
  157POPC   PO4 2427   9.498   6.107   4.446 -0.0714 -0.2281 -0.2633
  157POPC   GL1 2428   9.574   6.297   4.813 -0.2594 -0.2270  0.1487
  157POPC   GL2 2429   9.303   6.240   5.126  0.0066  0.0085  0.0099
  157POPC   C1A 2430   9.815   6.302   5.265 -0.0427 -0.0940 -0.0052
  157POPC   D2A 2431  10.062   6.177   5.522  0.2423  0.2430 -0.0154
  157POPC   C3A 2432   9.932   6.055   5.903 -0.0370 -0.0041 -0.3014
  157POPC   C4A 2433  10.101   5.936   6.188 -0.2688 -0.0227 -0.0781
  157POPC   C1B 2434   9.320   6.565   5.478  0.3059 -0.1700 -0.3054
  157POPC   C2B 2435   9.568   6.716   5.784 -0.2467  0.1424  0.2443
  157POPC   C3B 2436   9.724   7.087   5.993 -0.3085  0.0219 -0.0979
  157POPC   C4B 2437  10.110   7.164   5.851 -0.2015  0.0707 -0.3361
  158POPC   NC3 2438   7.677   3.066   4.798  0.1764  0.0995  0.0038
  158POPC   PO4 2439   7.454   3.359   5.073 -0.0063 -0.1376  0.0232
  158POPC   GL1 2440   7.582   3.123   5.469  0.0201 -0.0761  0.0579
  158POPC   GL2 2441   7.888   2.984   5.465  0.0537 -0.2069  0.0863
  158POPC   C1A 2442   7.401   3.045   5.879 -0.2467  0.3332  0.1666
  158POPC   D2A 2443   7.507   2.895   6.268 -0.0215 -0.0808  0.1798
  158POPC   C3A 2444   7.662   3.197   6.389 -0.1944 -0.0391  0.0580
  158POPC   C4A 2445   8.103   3.471   6.330  0.0030  0.3390 -0.0097
  158POPC   C1B 2446   7.845   2.794   5.872 -0.0854 -0.1607 -0.1050
  158POPC   C2B 2447   8.045   2.820   6.308  0.0642  0.0574 -0.1476
  158POPC   C3B 2448   8.000   2.910   6.718  0.4868  0.2291  0.1557
  158POPC   C4B 2449   7.903   3.245   6.982  0.0690 -0.2304 -0.3001
  159POPC   NC3 2450   2.367   1.697   5.563 -0.1589  0.1859  0.2165
  159POPC   PO4 2451   2.091   1.467   5.368  0.0950 -0.0081 -0.2414
  159POPC   GL1 2452   2.114   1.334   5.837 -0.1213 -0.0698 -0.0627
  159POPC   GL2 2453   1.808   1.532   5.911 -0.2114  0.0127  0.0243
  159POPC   C1A 2454   2.175   1.372   6.283 -0.0845  0.0121  0.0131
  159POPC   D2A 2455   1.964   1.261   6.719 -0.2505 -0.0439  0.1345
  159POPC   C3A 2456   1.639   0.977   6.710 -0.1898  0.0414 -0.0370
  159POPC   C4A 2457   1.486   0.624   6.913  0.0494 -0.2394  0.1536
  159POPC   C1B 2458   1.652   1.473   6.274  0.0306  0.0545  0.0907
  159POPC   C2B 2459   1.597   1.580   6.638 -0.0098  0.2752  0.2424
  159POPC   C3B 2460   1.592   1.454   7.151  0.1736 -0.0030  0.1708
  159POPC   C4B 2461   1.273   1.502   7.453 -0.2477  0.2780  0.4191
  160POPC   NC3 2462   3.558   2.647   5.069  0.0708  0.0615  0.3708
  160POPC   PO4 2463   3.680   2.320   5.357 -0.1920  0.4124 -0.2320
  160POPC   GL1 2464   3.742   2.336   5.940 -0.0065 -0.0503  0.2309
  160POPC   GL2 2465   3.562   2.554   6.166 -0.1014 -0.1845 -0.1111
  160POPC   C1A 2466   3.932   2.190   6.359 -0.1121 -0.1348  0.4340
  160POPC   D2A 2467   3.802   2.067   6.705  0.0737  0.2407 -0.0802
  160POPC   C3A 2468   3.586   2.402   7.044 -0.0582 -0.2361 -0.0062
  160POPC   C4A 2469   3.357   2.769   6.990 -0.0486  0.1051 -0.0992
  160POPC   C1B 2470   3.322   2.524   6.563 -0.1186  0.3768  0.2155
  160POPC   C2B 2471   3.111   2.966   6.623  0.1043 -0.0619  0.2617
  160POPC   C3B 2472   2.914   3.163   6.987 -0.0462 -0.1540 -0.2823
  160POPC   C4B 2473   2.530   3.272   7.300 -0.0596  0.0870  0.1210
  161POPC   NC3 2474   4.344   9.122   3.889  0.0483  0.0190  0.0865
  161POPC   PO4 2475   4.439   8.753   3.821  0.0649 -0.2745 -0.2021
  161POPC   GL1 2476   4.304   8.761   4.228  0.2219  0.1658 -0.0084
  161POPC   GL2 2477   4.520   8.781   4.490 -0.1950  0.0123 -0.0987
  161POPC   C1A 2478   4.017   8.807   4.624  0.1475  0.1060  0.4454
  161POPC   D2A 2479   4.295   8.933   5.032 -0.0949 -0.0353  0.0469
  161POPC   C3A 2480   4.154   8.868   5.434  0.0598 -0.2636 -0.1518
  161POPC   C4A 2481   4.099   8.796   5.896  0.1799  0.0819  0.0758
  161POPC   C1B 2482   4.339   8.504   4.783 -0.2996 -0.1374 -0.2203
  161POPC   C2B 2483   4.201   8.437   5.076 -0.0710 -0.0334  0.0210
  161POPC   C3B 2484   3.829   8.834   5.092 -0.0527 -0.1508  0.2637
  161POPC   C4B 2485   3.905   9.233   5.129 -0.2167  0.0149 -0.0728
  162POPC   NC3 2486   2.893   1.062   5.222 -0.0414  0.1077  0.2449
  162POPC   PO4 2487   2.889   0.763   5.499 -0.0624  0.0410 -0.0386
  162POPC   GL1 2488   2.946   0.713   5.949 -0.2236 -0.2055  0.1021
  162POPC   GL2 2489   3.055   1.017   6.181 -0.0142 -0.0710 -0.0032
  162POPC   C1A 2490   2.839   0.493   6.243 -0.1737 -0.2959 -0.2644
  162POPC   D2A 2491   2.907   0.590   6.611  0.1676 -0.3443  0.3916
  162POPC   C3A 2492   2.876   0.472   7.018 -0.0660 -0.2370 -0.0363
  162POPC   C4A 2493   3.009   0.521   7.458 -0.2563 -0.0504  0.0401
  162POPC   C1B 2494   3.109   1.169   6.595  0.1615  0.2950 -0.0709
  162POPC   C2B 2495   3.211   1.561   6.830  0.2006 -0.0260  0.2021
  162POPC   C3B 2496   3.050   1.614   7.277 -0.0275 -0.0622  0.2990
  162POPC   C4B 2497   2.636   1.472   7.427 -0.0957 -0.0520 -0.2362
  163POPC   NC3 2498   7.263   8.602   5.379 -0.1721  0.2084 -0.2002
  163POPC   PO4 2499   6.808   8.607   5.271 -0.3124  0.0375 -0.2574
  163POPC   GL1 2500   6.726   8.540   5.639  0.1804  0.1477 -0.0122
  163POPC   GL2 2501   6.372   8.598   5.743 -0.2383  0.0759  0.0491
  163POPC   C1A 2502   7.031   8.461   5.949 -0.0187 -0.1614 -0.1860
  163POPC   D2A 2503   7.139   8.216   6.189 -0.1049  0.0519 -0.0793
  163POPC   C3A 2504   6.889   7.840   6.230  0.0072 -0.0757 -0.2413
  163POPC   C4A 2505   6.962   7.401   6.194 -0.1043 -0.1703 -0.1677
  163POPC   C1B 2506   6.146   8.145   5.800 -0.2843 -0.3606  0.0536
  163POPC   C2B 2507   5.956   7.979   6.224  0.4148  0.1693 -0.3093
  163POPC   C3B 2508   5.925   7.780   6.696  0.2918  0.0630 -0.1247
  163POPC   C4B 2509   5.983   7.726   7.142 -0.1102  0.2104  0.0439
  164POPC   NC3 2510   4.493   0.829   5.377  0.0196 -0.2368 -0.3641
  164POPC   PO4 2511   4.703   1.149   5.128  0.1761  0.3013 -0.0902
  164POPC   GL1 2512   4.941   1.171   5.544  0.1622 -0.0843  0.3732
  164POPC   GL2 2513   5.241   1.019   5.569  0.1875 -0.1858 -0.2630
  164POPC   C1A 2514   4.913   1.472   5.915  0.0026 -0.3622 -0.0093
  164POPC   D2A 2515   4.740   1.514   6.323  0.3078 -0.1454  0.3203
  164POPC   C3A 2516   4.712   1.583   6.740  0.3769 -0.0045  0.3323
  164POPC   C4A 2517   4.880   1.678   7.110  0.1943 -0.0360  0.3501
  164POPC   C1B 2518   4.886   0.752   5.832  0.0074  0.1597 -0.2942
  164POPC   C2B 2519   4.569   0.618   6.073  0.2859  0.0024  0.1231
  164POPC   C3B 2520   4.259   0.838   6.268  0.0093  0.1078  0.1120
  164POPC   C4B 2521   3.783   0.606   6.492  0.0398 -0.1883 -0.1432
  165POPC   NC3 2522   3.643   4.787   4.443 -0.0247  0.0609  0.1466
  165POPC   PO4 2523   3.823   5.029   4.302 -0.0061  0.0913  0.0726
  165POPC   GL1 2524   4.038   5.122   4.726 -0.3631 -0.1616  0.1697
  165POPC   GL2 2525   3.811   5.111   4.856  0.3980 -0.0926  0.1478
  165POPC   C1A 2526   4.307   5.103   5.083 -0.2774 -0.1714 -0.2475
  165POPC   D2A 2527   4.618   5.056   5.462 -0.2855 -0.0498  0.1916
  165POPC   C3A 2528   4.901   5.414   5.589  0.0314  0.2210  0.1642
  165POPC   C4A 2529   5.020   5.535   6.060  0.1999 -0.0095  0.3180
  165POPC   C1B 2530   3.839   5.038   5.264 -0.0303 -0.2541  0.0921
  165POPC   C2B 2531   4.141   5.275   5.493 -0.0422 -0.2555 -0.2615
  165POPC   C3B 2532   4.456   5.565   5.427 -0.0647 -0.1419 -0.0383
  165POPC   C4B 2533   4.477   6.028   5.256  0.2038 -0.0521  0.2649
  166POPC   NC3 2534   8.996   6.556   4.865  0.2123  0.3327  0.0765
  166POPC   PO4 2535   8.661   6.506   4.891 -0.0536  0.1423 -0.1010
  166POPC   GL1 2536   8.788   6.588   5.343 -0.1843  0.0374  0.2555
  166POPC   GL2 2537   8.764   6.264   5.510 -0.0311  0.3357  0.2246
  166POPC   C1A 2538   8.907   6.704   5.801 -0.2794 -0.0170  0.0582
  166POPC   D2A 2539   8.954   6.767   6.274 -0.0641 -0.2758  0.1979
  166POPC   C3A 2540   8.500   6.679   6.522 -0.2201  0.4180 -0.1715
  166POPC   C4A 2541   8.159   6.732   6.807 -0.3358  0.0556 -0.0175
  166POPC   C1B 2542   8.905   6.198   5.905 -0.0508  0.3178 -0.3342
  166POPC   C2B 2543   9.116   6.087   6.395 -0.1042 -0.2478 -0.2835
  166POPC   C3B 2544   9.434   6.238   6.553  0.2724  0.0762 -0.0259
  166POPC   C4B 2545   9.894   6.216   6.671  0.3595 -0.1021 -0.1639
  167POPC   NC3 2546   6.486   8.989   5.448  0.1385 -0.1038 -0.2016
  167POPC   PO4 2547   6.762   9.252   5.249 -0.1415 -0.2390  0.4291
  167POPC   GL1 2548   6.751   9.478   5.562 -0.1179  0.0875 -0.4199
  167POPC   GL2 2549   6.779   9.879   5.538  0.0230 -0.0417  0.0065
  167POPC   C1A 2550   6.798   9.252   5.937 -0.3445 -0.0837  0.1042
  167POPC   D2A 2551   6.822   9.175   6.392 -0.4042  0.2221 -0.0695
  167POPC   C3A 2552   7.217   9.220   6.633 -0.0734  0.2085 -0.1237
  167POPC   C4A 2553   7.450   9.105   6.989  0.0781 -0.0133  0.3434
  167POPC   C1B 2554   6.630   9.701   6.014  0.0666 -0.1028 -0.2845
  167POPC   C2B 2555   6.676   9.683   6.421 -0.0749  0.0425 -0.0206
  167POPC   C3B 2556   6.825   9.435   6.816 -0.0520 -0.0899  0.1398
  167POPC   C4B 2557   6.940   9.427   7.195  0.0187  0.0967 -0.1647
  168POPC   NC3 2558   7.600   7.790   5.170  0.0537 -0.1896 -0.0146
  168POPC   PO4 2559   7.126   7.550   5.105  0.0772  0.0465 -0.1214
  168POPC   GL1 2560   6.891   7.700   5.496 -0.1998 -0.0508 -0.0618
  168POPC   GL2 2561   6.793   7.449   5.671 -0.0666  0.1995 -0.3225
  168POPC   C1A 2562   6.819   8.001   5.788  0.2733  0.1742  0.0222
  168POPC   D2A 2563   6.546   8.246   6.077  0.2550 -0.1001 -0.2168
  168POPC   C3A 2564   6.441   8.173   6.506  0.3194  0.0950  0.0969
  168POPC   C4A 2565   6.356   7.972   6.873 -0.0792 -0.0747 -0.2480
  168POPC   C1B 2566   6.449   7.650   5.756 -0.1051 -0.0081  0.1528
  168POPC   C2B 2567   6.406   7.749   6.124 -0.2888  0.0526  0.0266
  168POPC   C3B 2568   6.443   7.645   6.491  0.1669 -0.0677  0.1363
  168POPC   C4B 2569   6.793   7.782   6.692 -0.0688 -0.0177 -0.3351
  169POPC   NC3 2570   2.278   0.341   4.557  0.0091  0.1782 -0.2147
  169POPC   PO4 2571   1.955   0.019   4.692  0.0906  0.1860 -0.0152
  169POPC   GL1 2572   1.785  -0.193   4.993 -0.1953  0.1632  0.1184
  169POPC   GL2 2573   1.849  -0.469   5.036 -0.2629 -0.3546 -0.1219
  169POPC   C1A 2574   1.802  -0.286   5.505 -0.2169 -0.0858  0.0014
  169POPC   D2A 2575   2.029  -0.141   5.809  0.2231  0.0752  0.4791
  169POPC   C3A 2576   2.454  -0.294   5.849 -0.1359  0.0453 -0.4680
  169POPC   C4A 2577   2.626  -0.507   6.181  0.2534 -0.4813  0.3763
  169POPC   C1B 2578   2.147  -0.573   5.218  0.2761  0.0075  0.3041
  169POPC   C2B 2579   2.567  -0.622   5.422 -0.0630 -0.1889  0.0835
  169POPC   C3B 2580   2.902  -0.870   5.580 -0.1987  0.1232  0.1636
  169POPC   C4B 2581   3.103  -1.253   5.656 -0.2771 -0.1365  0.1470
  170POPC   NC3 2582   4.594   7.499   3.554  0.0141 -0.0228 -0.0613
  170POPC   PO4 2583   4.511   7.063   3.555  0.1153 -0.1533 -0.2950
  170POPC   GL1 2584   4.581   7.238   3.935  0.0434  0.1637  0.1270
  170POPC   GL2 2585   4.700   7.287   4.291  0.1593  0.0775  0.1900
  170POPC   C1A 2586   4.253   7.287   4.244  0.0044 -0.0206  0.2615
  170POPC   D2A 2587   4.027   7.647   4.500  0.1568 -0.1212 -0.1634
  170POPC   C3A 2588   3.606   7.566   4.540 -0.2000 -0.0184 -0.2113
  170POPC   C4A 2589   3.275   7.269   4.664  0.1655 -0.2987 -0.1781
  170POPC   C1B 2590   4.542   7.637   4.606 -0.0327 -0.1966 -0.1270
  170POPC   C2B 2591   4.383   7.593   4.986 -0.0808 -0.1060  0.0662
  170POPC   C3B 2592   4.338   7.223   5.248 -0.0250  0.3284  0.1841
  170POPC   C4B 2593   4.555   6.811   5.008  0.1557  0.2079  0.1067
  171POPC   NC3 2594   1.480   5.182   3.784 -0.1261 -0.0141 -0.1650
  171POPC   PO4 2595   1.531   5.162   4.241  0.1294  0.0013  0.3166
  171POPC   GL1 2596   1.538   5.379   4.562  0.3594 -0.1991 -0.1475
  171POPC   GL2 2597   1.387   5.643   4.749 -0.4349 -0.1124  0.1328
  171POPC   C1A 2598   1.502   5.169   4.932 -0.0082 -0.0381  0.1562
  171POPC   D2A 2599   1.145   5.324   5.204  0.0567  0.0967  0.0809
  171POPC   C3A 2600   1.000   5.028   5.508 -0.3897 -0.0574  0.3200
  171POPC   C4A 2601   0.853   5.103   5.924 -0.0052  0.1887 -0.1671
  171POPC   C1B 2602   1.377   5.780   5.107 -0.0458  0.5035  0.1067
  171POPC   C2B 2603   1.697   5.696   5.465 -0.2095  0.2196 -0.0375
  171POPC   C3B 2604   1.918   5.577   5.868  0.0940  0.1001 -0.2888
  171POPC   C4B 2605   1.730   5.237   5.993 -0.1315 -0.0121 -0.0477
  172POPC   NC3 2606   7.014   5.086   5.087 -0.0761  0.2835  0.0034
  172POPC   PO4 2607   6.867   4.644   5.169 -0.3117 -0.0233 -0.3287
  172POPC   GL1 2608   6.753   4.663   5.619  0.0564  0.3477  0.2231
  172POPC   GL2 2609   6.899   4.387   5.824 -0.0300 -0.0514  0.1469
  172POPC   C1A 2610   6.940   4.916   6.004 -0.0226  0.0427  0.2054
  172POPC   D2A 2611   7.118   5.130   6.338 -0.2547  0.0178  0.2073
  172POPC   C3A 2612   6.841   5.272   6.639  0.2001  0.2092  0.2000
  172POPC   C4A 2613   6.464   5.439   6.766 -0.0918  0.0001 -0.1326
  172POPC   C1B 2614   6.709   4.487   6.159  0.3851 -0.0385  0.0969
  172POPC   C2B 2615   6.838   4.787   6.468  0.2079  0.2239 -0.2252
  172POPC   C3B 2616   6.602   4.911   6.929 -0.1241 -0.2637  0.0157
  172POPC   C4B 2617   6.610   4.607   7.280 -0.0817  0.0254 -0.1045
  173POPC   NC3 2618   0.102   9.575   4.971 -0.0412  0.0927 -0.1086
  173POPC   PO4 2619   0.262   9.100   4.956  0.1059 -0.1592 -0.1264
  173POPC   GL1 2620   0.463   9.051   5.373  0.0365 -0.1411  0.0017
  173POPC   GL2 2621   0.793   8.920   5.432  0.1638 -0.4802  0.0932
  173POPC   C1A 2622   0.432   9.018   5.867 -0.0217  0.0446  0.1107
  173POPC   D2A 2623   0.496   8.797   6.274  0.0364  0.0719 -0.0050
  173POPC   C3A 2624   0.603   8.288   6.284  0.0023 -0.2125 -0.0948
  173POPC   C4A 2625   0.545   7.886   6.313 -0.0431 -0.0036  0.0099
  173POPC   C1B 2626   1.154   8.967   5.763  0.0690  0.0337 -0.1273
  173POPC   C2B 2627   1.577   9.013   5.892 -0.0738 -0.1801  0.0978
  173POPC   C3B 2628   1.915   8.969   6.039 -0.0873 -0.1493 -0.3849
  173POPC   C4B 2629   1.933   8.861   6.490  0.0993 -0.0039  0.1199
  174POPC   NC3 2630  10.129   0.991   5.085 -0.1044  0.0531  0.0279
  174POPC   PO4 2631  10.077   0.697   5.361  0.1110  0.2812 -0.1451
  174POPC   GL1 2632   9.903   0.448   5.661  0.1997 -0.0253  0.2712
  174POPC   GL2 2633   9.838   0.153   5.801  0.1712  0.2140 -0.3577
  174POPC   C1A 2634   9.813   0.509   6.150 -0.1377 -0.1130  0.1669
  174POPC   D2A 2635   9.667   0.197   6.552  0.1490 -0.0567 -0.1325
  174POPC   C3A 2636   9.725   0.281   7.029 -0.0885  0.0336 -0.0687
  174POPC   C4A 2637   9.605   0.462   7.457  0.0271 -0.0275 -0.4047
  174POPC   C1B 2638   9.796  -0.092   6.105  0.4450  0.1542  0.1593
  174POPC   C2B 2639   9.598  -0.276   6.392  0.0165 -0.2404 -0.1932
  174POPC   C3B 2640   9.493  -0.589   6.715  0.3447  0.0555 -0.1209
  174POPC   C4B 2641   9.594  -0.825   7.043 -0.1127  0.1662  0.1384
  175POPC   NC3 2642   7.849   4.772   5.217 -0.1937 -0.1613  0.0957
  175POPC   PO4 2643   8.360   4.901   5.309  0.0580 -0.0794  0.0058
  175POPC   GL1 2644   8.603   4.845   5.684 -0.1029 -0.1399  0.3748
  175POPC   GL2 2645   8.634   4.589   5.856 -0.2296 -0.0400  0.0907
  175POPC   C1A 2646   8.738   5.184   6.084  0.0579  0.1011 -0.1694
  175POPC   D2A 2647   8.709   5.292   6.558  0.2997  0.1108 -0.1928
  175POPC   C3A 2648   8.689   5.178   6.917  0.1007  0.0312 -0.1352
  175POPC   C4A 2649   8.337   5.125   7.140  0.0014  0.1523 -0.0254
  175POPC   C1B 2650   8.565   4.744   6.282 -0.3838 -0.1860 -0.1285
  175POPC   C2B 2651   8.374   4.835   6.700  0.1832 -0.0050  0.1252
  175POPC   C3B 2652   8.530   4.711   7.125 -0.2662  0.0444 -0.0242
  175POPC   C4B 2653   8.874   4.431   7.260  0.0931 -0.0529 -0.0817
  176POPC   NC3 2654   2.570   3.350   5.276 -0.0790  0.0281  0.1994
  176POPC   PO4 2655   2.390   3.767   5.372  0.1053  0.3080  0.2260
  176POPC   GL1 2656   2.395   3.574   5.790 -0.0134 -0.1391 -0.0864
  176POPC   GL2 2657   2.606   3.420   5.970  0.2513  0.2586  0.1079
  176POPC   C1A 2658   2.253   3.742   6.218  0.2238 -0.1746  0.0063
  176POPC   D2A 2659   2.365   3.878   6.663 -0.1013 -0.2074  0.3433
  176POPC   C3A 2660   2.334   4.231   6.693  0.1170 -0.1255 -0.1697
  176POPC   C4A 2661   1.986   4.563   6.670 -0.0381  0.1019  0.2331
  176POPC   C1B 2662   2.691   3.428   6.338  0.1305  0.2840 -0.0682
  176POPC   C2B 2663   2.912   3.739   6.562  0.0724  0.1928  0.0254
  176POPC   C3B 2664   3.217   3.503   6.788  0.1267  0.0323 -0.2261
  176POPC   C4B 2665   3.547   3.175   6.838  0.0487 -0.0486  0.0559
  177POPC   NC3 2666   3.914   1.466   5.490 -0.1539 -0.2034  0.1114
  177POPC   PO4 2667   4.152   1.130   5.219  0.0643  0.0502 -0.2312
  177POPC   GL1 2668   4.270   1.152   5.745  0.0875  0.1386  0.5862
  177POPC   GL2 2669   4.497   1.031   5.813  0.2800 -0.1623 -0.0923
  177POPC   C1A 2670   3.938   1.183   6.054 -0.1030  0.2147  0.1245
  177POPC   D2A 2671   3.947   1.077   6.521 -0.0647  0.0817  0.0729
  177POPC   C3A 2672   4.330   0.838   6.728  0.1238  0.0104 -0.0826
  177POPC   C4A 2673   4.651   0.615   6.701 -0.4462  0.0286 -0.0623
  177POPC   C1B 2674   4.764   1.004   6.275 -0.0937 -0.2693  0.0912
  177POPC   C2B 2675   4.730   1.101   6.727  0.4158  0.3252  0.0973
  177POPC   C3B 2676   4.966   1.183   7.086  0.3116  0.0099  0.2511
  177POPC   C4B 2677   5.355   1.027   7.356  0.0784 -0.0546  0.1859
  178POPC   NC3 2678   4.915   6.328   4.080 -0.0869  0.0284  0.1612
  178POPC   PO4 2679   4.534   6.248   3.913  0.0809  0.0145 -0.0982
  178POPC   GL1 2680   4.347   6.244   4.250 -0.0120  0.1818  0.0385
  178POPC   GL2 2681   4.291   6.529   4.298 -0.1581  0.1100  0.1900
  178POPC   C1A 2682   4.460   6.245   4.727  0.2731  0.1599  0.0674
  178POPC   D2A 2683   4.828   6.343   4.972  0.1877 -0.0896  0.1965
  178POPC   C3A 2684   4.798   6.512   5.435  0.0419  0.0422 -0.3164
  178POPC   C4A 2685   4.520   6.409   5.867  0.0062 -0.3341  0.3161
  178POPC   C1B 2686   4.129   6.610   4.741  0.0139  0.3513  0.0530
  178POPC   C2B 2687   4.034   6.863   5.111  0.0797 -0.3806 -0.0884
  178POPC   C3B 2688   3.977   7.083   5.562  0.1463 -0.2306  0.0060
  178POPC   C4B 2689   3.998   7.379   5.850  0.1379 -0.1137 -0.0520
  179POPC   NC3 2690   8.615   8.250   4.759 -0.0219  0.0009 -0.2216
  179POPC   PO4 2691   8.751   8.627   4.917  0.1166  0.2816 -0.0917
  179POPC   GL1 2692   8.737   8.422   5.289 -0.0673 -0.0601 -0.0321
  179POPC   GL2 2693   9.022   8.427   5.453 -0.0841  0.2429 -0.0014
  179POPC   C1A 2694   8.624   8.497   5.800 -0.0452 -0.1373  0.2482
  179POPC   D2A 2695   8.629   8.218   6.069 -0.1258 -0.0630  0.2683
  179POPC   C3A 2696   8.645   8.528   6.552 -0.1638 -0.0054  0.0849
  179POPC   C4A 2697   8.539   8.439   7.025  0.0141  0.0455  0.0252
  179POPC   C1B 2698   9.116   7.854   5.391 -0.0199  0.2076 -0.1190
  179POPC   C2B 2699   9.403   7.597   5.547  0.0767 -0.0873  0.0348
  179POPC   C3B 2700   9.508   7.474   5.887  0.0044  0.0357  0.0261
  179POPC   C4B 2701   9.378   7.596   6.312  0.0313  0.2844 -0.0504
  180POPC   NC3 2702   4.253   4.172   5.105  0.1963  0.0731 -0.0091
  180POPC   PO4 2703   4.596   4.130   4.929  0.0401  0.1325 -0.2337
  180POPC   GL1 2704   4.681   4.341   5.422 -0.1341  0.1069 -0.0061
  180POPC   GL2 2705   4.845   4.183   5.776  0.1754  0.2074 -0.0530
  180POPC   C1A 2706   4.613   4.588   5.768 -0.1174  0.0277 -0.0920
  180POPC   D2A 2707   4.559   4.599   6.197 -0.1626 -0.0596  0.2290
  180POPC   C3A 2708   4.699   4.937   6.423 -0.2781 -0.3062  0.0523
  180POPC   C4A 2709   4.586   5.231   6.736 -0.1391  0.0490  0.0806
  180POPC   C1B 2710   4.947   4.078   6.189  0.0533  0.0736 -0.0409
  180POPC   C2B 2711   4.992   4.112   6.630 -0.2403 -0.4985  0.3800
  180POPC   C3B 2712   4.776   4.089   7.014  0.0031 -0.0943  0.0448
  180POPC   C4B 2713   4.581   3.952   7.330  0.2830 -0.0731 -0.0070
  181POPC   NC3 2714   4.695   8.267   3.563  0.3619 -0.1130  0.0405
  181POPC   PO4 2715   4.432   7.989   3.635  0.2188  0.3219 -0.1443
  181POPC   GL1 2716   4.304   8.256   4.012 -0.0673 -0.3613 -0.2491
  181POPC   GL2 2717   4.567   8.185   4.222 -0.4314 -0.0748  0.3208
  181POPC   C1A 2718   3.997   8.336   4.429  0.0403 -0.0459 -0.1213
  181POPC   D2A 2719   3.706   8.303   4.655  0.0273  0.1852  0.4023
  181POPC   C3A 2720   3.590   8.272   5.052 -0.0629 -0.2487 -0.0838
  181POPC   C4A 2721   3.454   8.053   5.359 -0.2525  0.0488  0.2301
  181POPC   C1B 2722   4.419   8.064   4.509  0.1533 -0.3313  0.0451
  181POPC   C2B 2723   4.125   8.026   4.780  0.0006 -0.0242  0.0117
  181POPC   C3B 2724   3.739   7.838   4.931  0.0015 -0.0136 -0.0674
  181POPC   C4B 2725   3.299   7.799   4.924 -0.2242  0.3950 -0.0412
  182POPC   NC3 2726   0.679   5.921   4.305 -0.0440  0.0259  0.1752
  182POPC   PO4 2727   0.841   6.428   4.394  0.0471 -0.0787 -0.2895
  182POPC   GL1 2728   0.770   6.488   4.772  0.1130  0.1065 -0.0536
  182POPC   GL2 2729   0.779   6.924   4.812  0.0578 -0.0170  0.0113
  182POPC   C1A 2730   0.548   6.469   5.128 -0.1557  0.1070  0.0008
  182POPC   D2A 2731   0.401   6.140   5.367  0.2510  0.0202 -0.0614
  182POPC   C3A 2732   0.739   6.030   5.608  0.0005 -0.1293 -0.0071
  182POPC   C4A 2733   0.948   6.188   5.917  0.2212  0.0659  0.0988
  182POPC   C1B 2734   1.082   7.144   4.968 -0.0007 -0.1545  0.0540
  182POPC   C2B 2735   1.313   7.112   5.420  0.4177  0.0638 -0.0675
  182POPC   C3B 2736   1.481   7.469   5.720  0.2048 -0.2633  0.1722
  182POPC   C4B 2737   1.911   7.572   5.823  0.0078 -0.0914  0.1245
  183POPC   NC3 2738   8.018   7.047   4.890 -0.0693  0.1618 -0.1048
  183POPC   PO4 2739   8.198   7.391   4.970 -0.1684 -0.0834  0.2455
  183POPC   GL1 2740   7.990   7.162   5.387  0.0029  0.1489  0.0917
  183POPC   GL2 2741   7.734   7.305   5.357 -0.0246  0.0952  0.1013
  183POPC   C1A 2742   7.845   6.885   5.693  0.1229 -0.2290  0.2522
  183POPC   D2A 2743   7.974   6.757   6.049 -0.0605  0.1861  0.0144
  183POPC   C3A 2744   8.115   6.939   6.358  0.0814  0.1224 -0.3842
  183POPC   C4A 2745   8.196   7.366   6.353 -0.0255 -0.0213  0.0199
  183POPC   C1B 2746   7.713   7.328   5.914 -0.0360 -0.2897 -0.2199
  183POPC   C2B 2747   7.620   7.173   6.228 -0.0591  0.0905  0.0274
  183POPC   C3B 2748   7.295   7.146   6.528  0.0217 -0.0756  0.0128
  183POPC   C4B 2749   7.296   7.458   6.821  0.1688  0.0499  0.2396
  184POPC   NC3 2750   5.521   9.014   4.671  0.2659 -0.0595  0.1028
  184POPC   PO4 2751   5.326   8.648   4.708  0.0663 -0.0281  0.0380
  184POPC   GL1 2752   5.307   8.665   5.068 -0.1296  0.1208  0.2179
  184POPC   GL2 2753   5.561   8.755   5.200  0.0411  0.0313 -0.1165
  184POPC   C1A 2754   5.087   8.451   5.413 -0.0383 -0.1179 -0.0246
  184POPC   D2A 2755   5.173   8.250   5.829  0.0624 -0.2659  0.2306
  184POPC   C3A 2756   4.930   7.867   6.059 -0.1176  0.0409  0.4370
  184POPC   C4A 2757   4.835   7.497   6.224 -0.2887  0.0771  0.0869
  184POPC   C1B 2758   5.427   8.783   5.714 -0.2486 -0.0746 -0.1256
  184POPC   C2B 2759   5.348   8.715   6.063 -0.0327 -0.2119  0.0492
  184POPC   C3B 2760   5.426   8.519   6.400 -0.1609  0.0833  0.0750
  184POPC   C4B 2761   5.729   8.278   6.609  0.1575  0.2559  0.1820
  185POPC   NC3 2762   7.194   2.912   5.207  0.0296 -0.0651  0.0579
  185POPC   PO4 2763   7.579   2.715   5.177 -0.1161 -0.0611 -0.0794
  185POPC   GL1 2764   7.375   2.608   5.643 -0.1084 -0.1143 -0.1954
  185POPC   GL2 2765   7.159   2.387   5.535 -0.0313 -0.3596 -0.0240
  185POPC   C1A 2766   7.269   2.465   6.055  0.0893  0.0883 -0.1226
  185POPC   D2A 2767   7.472   2.019   6.237  0.2493 -0.3828  0.0440
  185POPC   C3A 2768   7.612   1.727   5.963  0.1361  0.0006 -0.3346
  185POPC   C4A 2769   7.950   1.492   5.910  0.1664 -0.0332 -0.1168
  185POPC   C1B 2770   7.142   2.029   5.906  0.0265 -0.1351 -0.0069
  185POPC   C2B 2771   7.124   1.592   6.184 -0.3265 -0.0771  0.3444
  185POPC   C3B 2772   7.077   1.318   6.402  0.0862  0.1343 -0.1872
  185POPC   C4B 2773   7.382   1.063   6.684  0.3685 -0.2894  0.2151
  186POPC   NC3 2774   0.101   4.207   4.576  0.1722 -0.3511 -0.0544
  186POPC   PO4 2775   0.353   4.349   4.968  0.0020  0.1794  0.1995
  186POPC   GL1 2776   0.228   4.659   5.270 -0.0417  0.1118  0.0109
  186POPC   GL2 2777   0.414   4.883   5.073 -0.0587 -0.2424 -0.0583
  186POPC   C1A 2778   0.339   4.768   5.627  0.1531  0.0881 -0.2117
  186POPC   D2A 2779   0.636   4.669   5.811  0.0726  0.1797 -0.1336
  186POPC   C3A 2780   0.662   4.688   6.278  0.2937 -0.3280  0.1561
  186POPC   C4A 2781   0.927   5.000   6.499 -0.1858 -0.0934  0.1559
  186POPC   C1B 2782   0.593   5.240   5.284  0.3374 -0.0867  0.1569
  186POPC   C2B 2783   0.811   5.511   5.654  0.1554  0.1460  0.1846
  186POPC   C3B 2784   1.203   5.788   5.554 -0.0547 -0.2924  0.2329
  186POPC   C4B 2785   1.491   6.047   5.819 -0.0378  0.1464 -0.2178
  187POPC   NC3 2786   1.992   0.538   5.532  0.2792 -0.1392  0.3027
  187POPC   PO4 2787   2.212   0.269   5.642  0.3838 -0.4900  0.1281
  187POPC   GL1 2788   2.256   0.427   6.034  0.2237  0.1831  0.1470
  187POPC   GL2 2789   2.131   0.832   6.037 -0.3451  0.0625 -0.1479
  187POPC   C1A 2790   2.403   0.377   6.440  0.1032 -0.0968 -0.0480
  187POPC   D2A 2791   2.395   0.375   6.854  0.0032 -0.1924  0.0056
  187POPC   C3A 2792   2.272  -0.022   6.891  0.2974 -0.0987 -0.5931
  187POPC   C4A 2793   2.323  -0.330   7.219  0.1245  0.0767 -0.0491
  187POPC   C1B 2794   2.000   0.836   6.459 -0.3307 -0.0833  0.0629
  187POPC   C2B 2795   2.011   0.790   6.932  0.0249  0.1315 -0.1531
  187POPC   C3B 2796   2.195   1.100   7.238  0.0256 -0.2045 -0.1287
  187POPC   C4B 2797   2.454   1.080   7.650 -0.1110 -0.2135 -0.0556
  188POPC   NC3 2798   6.670   3.249   5.282 -0.1824 -0.0237  0.0857
  188POPC   PO4 2799   6.721   2.872   5.507  0.0268  0.0716  0.3731
  188POPC   GL1 2800   6.361   2.934   5.856 -0.1223 -0.2149 -0.1028
  188POPC   GL2 2801   6.253   3.142   5.729  0.0682 -0.2039  0.0311
  188POPC   C1A 2802   6.576   2.828   6.193 -0.4757  0.0254 -0.0167
  188POPC   D2A 2803   6.606   2.605   6.616 -0.2400 -0.0879 -0.1530
  188POPC   C3A 2804   6.445   2.164   6.521 -0.4541  0.1490 -0.0472
  188POPC   C4A 2805   6.224   1.795   6.656 -0.1235 -0.3223 -0.2097
  188POPC   C1B 2806   5.990   3.275   6.160  0.1730 -0.0414 -0.1065
  188POPC   C2B 2807   6.234   3.249   6.542  0.0339 -0.2061 -0.3124
  188POPC   C3B 2808   6.281   3.213   6.958 -0.0662 -0.2288  0.1728
  188POPC   C4B 2809   6.324   3.286   7.505  0.0528  0.0416  0.1259
  189POPC   NC3 2810   2.208   2.941   5.136  0.0984  0.1531 -0.0759
  189POPC   PO4 2811   2.433   2.861   5.455 -0.0697  0.4048 -0.3297
  189POPC   GL1 2812   2.361   2.981   5.883 -0.0891 -0.1249 -0.2466
  189POPC   GL2 2813   2.132   3.202   5.997 -0.0706 -0.0308  0.1680
  189POPC   C1A 2814   2.585   2.856   6.272 -0.3365 -0.0028 -0.3812
  189POPC   D2A 2815   2.616   2.992   6.633 -0.2321 -0.1189 -0.1248
  189POPC   C3A 2816   2.541   3.416   6.810 -0.2180 -0.1610 -0.1431
  189POPC   C4A 2817   2.501   3.758   7.155  0.0625 -0.1659  0.0809
  189POPC   C1B 2818   2.164   3.249   6.347  0.1781 -0.3691 -0.2344
  189POPC   C2B 2819   2.009   3.536   6.619 -0.2355 -0.0616  0.0213
  189POPC   C3B 2820   2.011   3.517   7.030 -0.0555 -0.0333  0.0818
  189POPC   C4B 2821   2.129   3.426   7.419 -0.3848  0.2223  0.0970
  190POPC   NC3 2822   6.937   8.879   4.915 -0.1509 -0.0016 -0.2368
  190POPC   PO4 2823   7.428   9.011   5.107  0.2137 -0.2053 -0.2306
  190POPC   GL1 2824   7.674   8.940   5.480 -0.2363 -0.0073 -0.1730
  190POPC   GL2 2825   7.673   8.608   5.668  0.1017 -0.1948 -0.0238
  190POPC   C1A 2826   7.802   9.037   5.828  0.0725 -0.2032 -0.0991
  190POPC   D2A 2827   8.125   8.986   6.202  0.1067 -0.1203  0.1360
  190POPC   C3A 2828   8.234   8.618   6.181 -0.0675  0.2368  0.0802
  190POPC   C4A 2829   8.053   8.243   6.075  0.1184 -0.3291 -0.1286
  190POPC   C1B 2830   7.600   8.582   6.111  0.0386  0.0973  0.0410
  190POPC   C2B 2831   7.561   8.408   6.492  0.1948  0.0181  0.0669
  190POPC   C3B 2832   7.611   8.296   6.893  0.1308  0.0439 -0.0730
  190POPC   C4B 2833   7.636   7.903   6.921  0.1657 -0.0141 -0.2131
  191POPC   NC3 2834   8.808   3.162   5.381  0.2064  0.1450  0.1224
  191POPC   PO4 2835   8.427   2.983   5.239 -0.1361 -0.2018 -0.0472
  191POPC   GL1 2836   8.386   2.773   5.706 -0.2687 -0.2587 -0.2288
  191POPC   GL2 2837   8.303   2.989   5.882  0.2568 -0.2733 -0.2379
  191POPC   C1A 2838   8.376   2.545   6.061 -0.0647 -0.1548  0.2251
  191POPC   D2A 2839   8.448   2.585   6.444 -0.0661  0.1389 -0.0736
  191POPC   C3A 2840   8.706   2.438   6.707  0.0633 -0.1524 -0.0380
  191POPC   C4A 2841   9.142   2.178   6.937  0.0388 -0.1121 -0.0302
  191POPC   C1B 2842   8.423   3.104   6.248 -0.1166  0.1448  0.0523
  191POPC   C2B 2843   8.703   2.951   6.582 -0.2601 -0.0290  0.0553
  191POPC   C3B 2844   8.623   2.883   6.965 -0.0772  0.0153 -0.3874
  191POPC   C4B 2845   8.202   2.873   7.138 -0.3469  0.0574  0.0374
  192POPC   NC3 2846   7.076   9.406   4.901  0.0634 -0.2210  0.2794
  192POPC   PO4 2847   6.804   9.758   5.047 -0.1898  0.1591  0.0852
  192POPC   GL1 2848   7.165   9.661   5.319  0.1121  0.1228 -0.0792
  192POPC   GL2 2849   7.256   9.427   5.382  0.1225  0.0189 -0.3624
  192POPC   C1A 2850   7.158   9.690   5.748 -0.0838 -0.0585  0.2115
  192POPC   D2A 2851   7.134   9.494   6.175  0.1489  0.1450 -0.0004
  192POPC   C3A 2852   7.345   9.680   6.545  0.1892 -0.0490  0.0120
  192POPC   C4A 2853   7.405   9.567   6.933 -0.0952 -0.1473 -0.0193
  192POPC   C1B 2854   7.325   9.240   5.813 -0.0206 -0.2071  0.0061
  192POPC   C2B 2855   7.201   8.928   6.185  0.1042 -0.2214  0.0390
  192POPC   C3B 2856   7.091   8.684   6.487  0.0818 -0.0555  0.0785
  192POPC   C4B 2857   7.225   8.650   6.805 -0.0010  0.2585 -0.0185
  193POPC   NC3 2858   7.365   5.623   4.439 -0.1678 -0.3566 -0.3990
  193POPC   PO4 2859   7.470   5.890   4.884  0.1579  0.3527  0.1165
  193POPC   GL1 2860   7.383   5.987   5.257  0.0338 -0.2111  0.1000
  193POPC   GL2 2861   7.337   6.307   5.375 -0.0984 -0.3511  0.2012
  193POPC   C1A 2862   7.326   5.840   5.729 -0.0520  0.1839  0.4840
  193POPC   D2A 2863   7.484   5.900   6.131 -0.0026  0.0928  0.2028
  193POPC   C3A 2864   7.188   5.665   6.384  0.0940 -0.4003 -0.1761
  193POPC   C4A 2865   6.908   5.783   6.509 -0.1448 -0.0839 -0.2297
  193POPC   C1B 2866   7.491   6.351   5.787  0.2385  0.0471  0.1134
  193POPC   C2B 2867   7.623   6.403   6.083  0.0241 -0.0787 -0.1157
  193POPC   C3B 2868   7.728   6.153   6.507 -0.5844 -0.0036 -0.2557
  193POPC   C4B 2869   7.845   5.810   6.695 -0.2532 -0.0252 -0.1212
  194POPC   NC3 2870   3.104   9.497   4.566 -0.1461  0.3850  0.0577
  194POPC   PO4 2871   2.877   9.857   4.684 -0.1408 -0.1807  0.0668
  194POPC   GL1 2872   2.892   9.447   5.030 -0.0780  0.0435 -0.0048
  194POPC   GL2 2873   3.027   9.079   4.857 -0.1711  0.0625  0.2758
  194POPC   C1A 2874   2.641   9.033   5.151  0.2082 -0.1280 -0.2000
  194POPC   D2A 2875   2.382   9.044   5.552  0.0175  0.0871 -0.2922
  194POPC   C3A 2876   2.296   8.665   5.913  0.1294 -0.2260  0.1866
  194POPC   C4A 2877   2.050   8.505   6.246  0.1874 -0.1902  0.0190
  194POPC   C1B 2878   3.278   9.146   5.165 -0.1087 -0.1599  0.0590
  194POPC   C2B 2879   3.564   9.079   5.471 -0.1297  0.0579  0.2074
  194POPC   C3B 2880   3.622   8.877   5.761 -0.0169  0.0126  0.0555
  194POPC   C4B 2881   3.764   8.550   6.122 -0.0480 -0.0952  0.0276
  195POPC   NC3 2882   0.555   8.473   3.973  0.1533  0.2912 -0.0714
  195POPC   PO4 2883   0.575   8.690   4.380  0.0364 -0.1556 -0.1108
  195POPC   GL1 2884   0.539   8.628   4.892 -0.0946 -0.0940 -0.2141
  195POPC   GL2 2885   0.352   8.372   4.825 -0.1614  0.1275  0.1402
  195POPC   C1A 2886   0.771   8.422   5.106 -0.0258 -0.5295  0.1316
  195POPC   D2A 2887   1.178   8.489   5.184 -0.2643  0.0287  0.1126
  195POPC   C3A 2888   1.293   8.439   5.607 -0.0451 -0.0778 -0.0513
  195POPC   C4A 2889   1.365   8.376   6.049 -0.1246 -0.1578  0.4394
  195POPC   C1B 2890   0.347   8.058   5.139 -0.1443 -0.0897  0.3950
  195POPC   C2B 2891   0.216   7.766   5.365 -0.0338  0.4852 -0.0728
  195POPC   C3B 2892   0.195   7.608   5.878  0.3225  0.3206 -0.0572
  195POPC   C4B 2893   0.248   7.509   6.376  0.2879 -0.2334 -0.0597
  196POPC   NC3 2894   2.772   5.332   3.872  0.3699 -0.0473  0.0226
  196POPC   PO4 2895   3.202   5.450   3.982 -0.1173  0.2066 -0.0459
  196POPC   GL1 2896   3.388   5.416   4.406  0.0262  0.1863  0.0446
  196POPC   GL2 2897   3.364   5.233   4.515 -0.0277  0.1542 -0.2217
  196POPC   C1A 2898   3.495   5.682   4.799  0.0657 -0.1242 -0.0796
  196POPC   D2A 2899   3.507   5.849   5.243 -0.5420  0.0336 -0.1299
  196POPC   C3A 2900   3.726   6.177   5.409 -0.0806 -0.2845 -0.2433
  196POPC   C4A 2901   3.747   6.528   5.557  0.0127  0.1285  0.0908
  196POPC   C1B 2902   3.337   5.204   4.931 -0.0887  0.0063 -0.1801
  196POPC   C2B 2903   3.328   5.188   5.361 -0.0624 -0.1622 -0.2359
  196POPC   C3B 2904   3.080   5.260   5.703 -0.2832 -0.2271 -0.0376
  196POPC   C4B 2905   3.032   5.511   5.993 -0.0077 -0.1280  0.0400
  197POPC   NC3 2906   8.080   2.302   5.403  0.0982  0.1852 -0.2976
  197POPC   PO4 2907   7.635   2.158   5.458 -0.0292  0.2959 -0.2181
  197POPC   GL1 2908   7.837   2.197   5.802 -0.0094  0.0336 -0.1500
  197POPC   GL2 2909   8.061   1.978   5.894 -0.2054  0.2090 -0.0515
  197POPC   C1A 2910   7.810   2.419   6.182  0.3531 -0.3699 -0.1944
  197POPC   D2A 2911   7.613   2.527   6.531  0.1923 -0.3093 -0.3161
  197POPC   C3A 2912   7.463   2.219   6.660  0.1538 -0.3190  0.0362
  197POPC   C4A 2913   7.466   1.714   6.604 -0.2087  0.0024  0.1453
  197POPC   C1B 2914   8.182   2.106   6.228 -0.2403 -0.0654  0.1063
  197POPC   C2B 2915   8.368   2.115   6.673 -0.1556 -0.1573  0.2420
  197POPC   C3B 2916   8.646   2.058   7.033 -0.1098  0.2647 -0.0964
  197POPC   C4B 2917   8.626   2.090   7.428 -0.3129 -0.0879 -0.4653
  198POPC   NC3 2918   8.157   2.225   4.841 -0.3630 -0.1878  0.0011
  198POPC   PO4 2919   8.528   2.007   5.181 -0.2194 -0.1314 -0.4467
  198POPC   GL1 2920   8.547   1.663   5.628  0.0077  0.1586 -0.1000
  198POPC   GL2 2921   8.803   1.529   5.810 -0.1825 -0.1966  0.4671
  198POPC   C1A 2922   8.420   1.668   6.067 -0.1288  0.0877 -0.1635
  198POPC   D2A 2923   8.540   1.683   6.475 -0.0291 -0.2233 -0.0025
  198POPC   C3A 2924   8.346   1.542   6.898 -0.0342 -0.2438  0.3255
  198POPC   C4A 2925   8.144   1.131   7.110  0.1100 -0.0636 -0.1173
  198POPC   C1B 2926   8.944   1.472   6.264 -0.1940  0.1122 -0.5467
  198POPC   C2B 2927   8.743   1.255   6.675 -0.0092  0.3241 -0.3204
  198POPC   C3B 2928   8.687   1.172   7.097  0.2839 -0.0880 -0.1353
  198POPC   C4B 2929   8.487   1.050   7.463 -0.0723 -0.1166 -0.0361
  199POPC   NC3 2930   8.691   4.494   5.354 -0.0464 -0.0081  0.2392
  199POPC   PO4 2931   8.262   4.432   5.166  0.3002 -0.0666 -0.0002
  199POPC   GL1 2932   8.294   4.370   5.599 -0.2335 -0.2475  0.2448
  199POPC   GL2 2933   8.104   4.739   5.692 -0.1095  0.1163 -0.0492
  199POPC   C1A 2934   8.369   4.231   5.992 -0.1162  0.1795 -0.3687
  199POPC   D2A 2935   8.659   4.238   6.276 -0.1856 -0.0955 -0.2285
  199POPC   C3A 2936   8.957   3.966   6.554  0.1200 -0.1121  0.1658
  199POPC   C4A 2937   9.210   3.781   6.941  0.0531 -0.1247 -0.1257
  199POPC   C1B 2938   8.248   5.020   6.043 -0.0217 -0.2386  0.2276
  199POPC   C2B 2939   8.063   5.089   6.387 -0.3495  0.2329  0.0874
  199POPC   C3B 2940   7.955   5.312   6.703  0.0776  0.1958  0.3518
  199POPC   C4B 2941   7.884   5.416   7.136 -0.3056 -0.1251  0.2806
  200POPC   NC3 2942   3.789   9.893   4.721  0.0458 -0.3970 -0.1011
  200POPC   PO4 2943   3.975  10.277   5.043 -0.3160 -0.0046  0.1891
  200POPC   GL1 2944   3.855  10.259   5.500  0.3245 -0.2045  0.1075
  200POPC   GL2 2945   3.691  10.524   5.737  0.0126 -0.1411  0.0200
  200POPC   C1A 2946   4.016  10.150   5.845  0.2011  0.0294 -0.2973
  200POPC   D2A 2947   4.222   9.835   5.862  0.3359  0.1605 -0.1008
  200POPC   C3A 2948   4.595   9.658   5.685  0.0938  0.1454 -0.2371
  200POPC   C4A 2949   4.954   9.473   5.535 -0.0884 -0.0136  0.2415
  200POPC   C1B 2950   3.636  10.289   6.174  0.0946 -0.1250 -0.0761
  200POPC   C2B 2951   3.685  10.117   6.486 -0.0316  0.3199  0.0601
  200POPC   C3B 2952   3.879   9.829   6.764 -0.1547  0.0389  0.4151
  200POPC   C4B 2953   4.050   9.706   7.144  0.2703 -0.0634  0.1475
  201POPC   NC3 2954   1.151   7.952   4.010  0.0464  0.0956  0.1009
  201POPC   PO4 2955   0.887   8.251   4.276 -0.2050 -0.0179  0.3449
  201POPC   GL1 2956   1.067   7.945   4.523 -0.2766  0.0217  0.3457
  201POPC   GL2 2957   0.747   8.021   4.748  0.2136 -0.0186  0.1365
  201POPC   C1A 2958   1.249   7.642   4.837  0.3738 -0.0189 -0.1884
  201POPC   D2A 2959   1.598   7.317   4.776  0.0087 -0.1422 -0.2668
  201POPC   C3A 2960   1.698   6.907   5.011 -0.1424 -0.0270  0.0113
  201POPC   C4A 2961   2.010   6.489   5.090 -0.0980  0.1489  0.1607
  201POPC   C1B 2962   0.893   7.989   5.221  0.2963 -0.1682  0.0157
  201POPC   C2B 2963   1.063   7.994   5.672 -0.0486 -0.1229 -0.1063
  201POPC   C3B 2964   1.134   7.895   6.039 -0.1651 -0.1842 -0.0216
  201POPC   C4B 2965   1.099   7.663   6.470  0.0876 -0.0853  0.0715
  202POPC   NC3 2966   0.336   9.556   5.426 -0.2378  0.0008  0.0897
  202POPC   PO4 2967   0.015   9.485   5.485 -0.3042  0.3058 -0.1593
  202POPC   GL1 2968   0.047   9.412   5.853 -0.1292 -0.0799  0.1721
  202POPC   GL2 2969  -0.073   9.092   5.889 -0.1652 -0.2881  0.0616
  202POPC   C1A 2970   0.152   9.305   6.214 -0.1578  0.0867 -0.3350
  202POPC   D2A 2971   0.236   9.076   6.622 -0.2247  0.2173 -0.1472
  202POPC   C3A 2972   0.323   9.399   6.982  0.2649  0.1643 -0.1476
  202POPC   C4A 2973   0.213   9.552   7.298  0.0776  0.2572 -0.4479
  202POPC   C1B 2974  -0.115   8.763   6.257  0.0219  0.1666 -0.2034
  202POPC   C2B 2975  -0.276   8.371   6.496 -0.0693  0.3570  0.1988
  202POPC   C3B 2976  -0.337   8.188   6.960 -0.0893 -0.0314 -0.1790
  202POPC   C4B 2977  -0.182   8.045   7.432 -0.0782 -0.0166 -0.3702
  203POPC   NC3 2978   8.296   3.383   5.465  0.2282  0.2985 -0.2266
  203POPC   PO4 2979   8.676   3.656   5.512  0.1418 -0.1675  0.1732
  203POPC   GL1 2980   8.646   3.517   5.835  0.0289 -0.0130 -0.1254
  203POPC   GL2 2981   8.407   3.773   5.975  0.2537 -0.0682  0.2530
  203POPC   C1A 2982   8.843   3.491   6.268  0.0983 -0.1188 -0.1346
  203POPC   D2A 2983   8.805   3.559   6.798 -0.1746 -0.0556 -0.0259
  203POPC   C3A 2984   8.985   3.228   7.061  0.0233  0.1383 -0.1751
  203POPC   C4A 2985   9.112   2.931   7.294 -0.1217  0.1557  0.0838
  203POPC   C1B 2986   8.388   3.854   6.352 -0.1446  0.0633  0.2574
  203POPC   C2B 2987   8.456   3.894   6.769  0.0900  0.0773  0.1584
  203POPC   C3B 2988   8.776   3.983   7.098 -0.0182  0.0647 -0.2802
  203POPC   C4B 2989   8.994   3.918   7.491 -0.0392  0.2366 -0.2622
  204POPC   NC3 2990   4.189   1.680   5.018 -0.0606 -0.0917 -0.0098
  204POPC   PO4 2991   4.087   1.987   5.444 -0.0561 -0.1022 -0.2589
  204POPC   GL1 2992   4.335   1.915   5.793 -0.1426  0.1384  0.0810
  204POPC   GL2 2993   4.369   1.613   5.920 -0.4319  0.0998  0.3073
  204POPC   C1A 2994   4.761   2.030   5.903  0.1201 -0.2717  0.1103
  204POPC   D2A 2995   5.174   1.919   6.104  0.1599  0.1224 -0.3276
  204POPC   C3A 2996   5.214   1.652   6.416  0.0976  0.3011  0.1874
  204POPC   C4A 2997   5.211   1.474   6.770  0.0014 -0.0087  0.2411
  204POPC   C1B 2998   4.469   1.932   6.301  0.3132  0.1992  0.1799
  204POPC   C2B 2999   4.431   2.025   6.705 -0.0626 -0.1705  0.1248
  204POPC   C3B 3000   4.560   2.109   6.974 -0.0988  0.2225  0.0904
  204POPC   C4B 3001   4.636   2.309   7.373 -0.0314 -0.0493 -0.0177
  205POPC   NC3 3002  10.044   0.189   5.228  0.5005  0.2689  0.4128
  205POPC   PO4 3003   9.932  -0.259   5.281 -0.0088 -0.3022 -0.0965
  205POPC   GL1 3004  10.181  -0.152   5.641 -0.1237  0.2850 -0.1138
  205POPC   GL2 3005  10.423  -0.010   5.594  0.1842  0.2709  0.2117
  205POPC   C1A 3006  10.297  -0.291   6.026 -0.1957 -0.4746  0.0915
  205POPC   D2A 3007  10.301  -0.399   6.411  0.1064  0.5974  0.1392
  205POPC   C3A 3008   9.991  -0.461   6.689  0.0044 -0.1057  0.2665
  205POPC   C4A 3009   9.974  -0.538   7.130 -0.0703 -0.1124 -0.0246
  205POPC   C1B 3010  10.357   0.254   5.895 -0.0218  0.1307  0.1880
  205POPC   C2B 3011  10.295   0.246   6.277  0.1222  0.0659  0.0177
  205POPC   C3B 3012  10.186   0.007   6.709 -0.1448  0.0626  0.1671
  205POPC   C4B 3013  10.368  -0.281   6.982 -0.1035 -0.1446 -0.3371
  206POPC   NC3 3014   4.232   3.387   5.254  0.0120 -0.0994  0.0299
  206POPC   PO4 3015   4.043   3.776   5.341 -0.1044 -0.1708  0.0151
  206POPC   GL1 3016   3.929   3.744   5.781  0.2075  0.0598  0.0267
  206POPC   GL2 3017   3.536   3.783   5.852  0.0819  0.0327  0.1865
  206POPC   C1A 3018   3.888   3.840   6.216 -0.3051  0.2214  0.2415
  206POPC   D2A 3019   4.111   3.604   6.370  0.4003 -0.0846  0.2247
  206POPC   C3A 3020   3.968   3.215   6.535  0.0603 -0.2000 -0.1169
  206POPC   C4A 3021   3.587   3.038   6.414  0.3377 -0.1118  0.0306
  206POPC   C1B 3022   3.563   4.363   5.962 -0.1056  0.0960  0.0919
  206POPC   C2B 3023   3.744   4.658   6.201 -0.0198  0.1125 -0.1617
  206POPC   C3B 3024   3.670   5.043   6.502  0.4288 -0.2325  0.1280
  206POPC   C4B 3025   3.402   5.302   6.675  0.0776  0.0800 -0.0109
  207POPC   NC3 3026   2.022   5.307   4.452 -0.0428 -0.2814 -0.0603
  207POPC   PO4 3027   2.381   5.298   4.185  0.0295  0.1449  0.0468
  207POPC   GL1 3028   2.219   5.731   4.353 -0.0596  0.0617 -0.0879
  207POPC   GL2 3029   1.888   5.783   4.553  0.1446  0.0977 -0.1950
  207POPC   C1A 3030   2.283   6.113   4.387 -0.1568 -0.0606 -0.0558
  207POPC   D2A 3031   2.340   6.371   4.719 -0.0130  0.1706 -0.0515
  207POPC   C3A 3032   2.323   6.797   4.739 -0.0951  0.1115  0.2023
  207POPC   C4A 3033   2.628   6.956   4.958 -0.1022  0.0826  0.0276
  207POPC   C1B 3034   1.940   6.036   4.788  0.1048  0.2285  0.0220
  207POPC   C2B 3035   2.123   5.957   5.171  0.1012  0.1298 -0.0551
  207POPC   C3B 3036   2.120   6.014   5.688 -0.1007  0.0760 -0.0369
  207POPC   C4B 3037   2.401   6.111   6.125 -0.5274  0.1259  0.1478
  208POPC   NC3 3038   8.508   7.790   4.336  0.1445 -0.0261  0.0112
  208POPC   PO4 3039   8.450   7.792   4.884  0.1728 -0.0910 -0.0250
  208POPC   GL1 3040   8.584   7.743   5.296 -0.4469  0.1186  0.0228
  208POPC   GL2 3041   8.753   7.468   5.254 -0.0465  0.0093 -0.0217
  208POPC   C1A 3042   8.680   7.822   5.748 -0.1632  0.1125 -0.0695
  208POPC   D2A 3043   9.052   7.853   5.976 -0.0014  0.0260 -0.0567
  208POPC   C3A 3044   8.887   7.999   6.428 -0.3661  0.1996  0.0494
  208POPC   C4A 3045   8.901   8.182   6.848 -0.0707  0.2307  0.1678
  208POPC   C1B 3046   8.935   7.415   5.787 -0.0838 -0.1912 -0.0839
  208POPC   C2B 3047   8.734   7.503   6.281 -0.2280  0.1142 -0.2159
  208POPC   C3B 3048   8.510   7.636   6.635  0.0758  0.0852  0.0269
  208POPC   C4B 3049   8.596   7.834   7.071 -0.1258  0.0817 -0.1100
  209POPC   NC3 3050   9.426   3.877   5.039  0.4897  0.4253 -0.0912
  209POPC   PO4 3051   9.811   4.096   5.218  0.0221  0.3070 -0.0987
  209POPC   GL1 3052  10.166   4.262   5.374 -0.1335  0.1533 -0.2462
  209POPC   GL2 3053  10.411   3.919   5.456  0.1175  0.0250  0.2718
  209POPC   C1A 3054  10.415   4.323   5.682  0.3617  0.2172 -0.3200
  209POPC   D2A 3055  10.692   4.205   6.003 -0.2863  0.0704  0.1003
  209POPC   C3A 3056  11.054   4.311   6.056  0.2887  0.1134  0.0745
  209POPC   C4A 3057  11.398   4.456   6.192 -0.0619  0.3436  0.0380
  209POPC   C1B 3058  10.800   4.083   5.505 -0.3779  0.0010  0.0674
  209POPC   C2B 3059  11.303   4.028   5.624  0.2648  0.0198 -0.0868
  209POPC   C3B 3060  11.482   3.638   5.717 -0.0355  0.0704 -0.3119
  209POPC   C4B 3061  11.769   3.259   5.742  0.1680 -0.1211  0.0658
  210POPC   NC3 3062   1.335   5.917   3.064 -0.0317 -0.2987  0.0310
  210POPC   PO4 3063   1.413   6.151   3.483  0.0521  0.2488  0.3549
  210POPC   GL1 3064   1.567   6.352   3.883 -0.0936  0.1414 -0.0135
  210POPC   GL2 3065   1.828   6.624   3.903 -0.2036  0.2291 -0.0047
  210POPC   C1A 3066   1.824   6.215   4.234  0.1147  0.0737 -0.3271
  210POPC   D2A 3067   1.882   6.579   4.631  0.0386  0.0105 -0.1162
  210POPC   C3A 3068   1.853   6.948   4.498  0.3538 -0.0741  0.1546
  210POPC   C4A 3069   2.259   7.114   4.296 -0.1399  0.5110 -0.0341
  210POPC   C1B 3070   2.201   6.668   4.170 -0.0067  0.2408 -0.2153
  210POPC   C2B 3071   2.515   6.592   4.310  0.0644  0.3106 -0.1856
  210POPC   C3B 3072   2.841   6.674   4.497 -0.2228 -0.0369 -0.1704
  210POPC   C4B 3073   3.320   6.701   4.401 -0.0646 -0.0767  0.0166
  211POPC   NC3 3074   1.080   6.589   3.917  0.1075 -0.1248 -0.4509
  211POPC   PO4 3075   1.395   6.962   3.841  0.1231  0.1862 -0.0834
  211POPC   GL1 3076   1.451   6.719   4.251 -0.2266  0.3565  0.0104
  211POPC   GL2 3077   1.334   6.393   4.333 -0.1171  0.5279 -0.1019
  211POPC   C1A 3078   1.417   6.786   4.640  0.3633  0.3254 -0.0801
  211POPC   D2A 3079   1.247   6.568   4.963 -0.2692  0.1647  0.0349
  211POPC   C3A 3080   1.016   6.719   5.253 -0.1475 -0.3791  0.1593
  211POPC   C4A 3081   0.659   6.918   5.257 -0.1664  0.2497 -0.0130
  211POPC   C1B 3082   1.506   6.225   4.693  0.2737 -0.3174  0.1370
  211POPC   C2B 3083   1.588   6.210   5.088  0.0677  0.2828 -0.1099
  211POPC   C3B 3084   1.765   6.292   5.427 -0.2237  0.0722 -0.1381
  211POPC   C4B 3085   2.038   6.675   5.533 -0.2464  0.1990  0.0105
  212POPC   NC3 3086   6.062   1.288   5.163  0.0098 -0.2982 -0.1709
  212POPC   PO4 3087   6.358   0.967   5.368  0.1212  0.1301  0.1340
  212POPC   GL1 3088   6.481   0.968   5.786  0.0955  0.1103  0.1918
  212POPC   GL2 3089   6.856   0.854   5.868 -0.2438 -0.2019 -0.1214
  212POPC   C1A 3090   6.509   0.913   6.220 -0.0790 -0.0789  0.0586
  212POPC   D2A 3091   6.605   1.121   6.565 -0.0607  0.0049  0.3151
  212POPC   C3A 3092   6.674   1.616   6.592  0.1206  0.1061 -0.0625
  212POPC   C4A 3093   7.039   1.751   6.803  0.2638 -0.3301  0.0560
  212POPC   C1B 3094   7.017   0.835   6.188  0.0403  0.3066  0.2689
  212POPC   C2B 3095   6.914   0.784   6.587 -0.1041 -0.0776  0.2816
  212POPC   C3B 3096   6.939   1.108   6.889  0.2727  0.1174 -0.0878
  212POPC   C4B 3097   6.617   1.375   7.086 -0.0916 -0.0851 -0.0622
  213POPC   NC3 3098   1.002   8.995   4.457 -0.1032  0.1370  0.0124
  213POPC   PO4 3099   1.243   9.116   4.695 -0.0633 -0.1070  0.2439
  213POPC   GL1 3100   1.218   9.075   5.134 -0.0857  0.2748  0.0095
  213POPC   GL2 3101   1.430   9.293   5.484 -0.0431 -0.1526  0.0543
  213POPC   C1A 3102   1.542   8.839   5.393  0.2129  0.1562  0.1359
  213POPC   D2A 3103   1.924   8.737   5.579  0.0445 -0.1970 -0.3663
  213POPC   C3A 3104   1.901   8.422   5.757 -0.1401  0.0859 -0.1102
  213POPC   C4A 3105   1.623   7.993   5.769 -0.0778  0.1327  0.1067
  213POPC   C1B 3106   1.622   9.541   5.884  0.1378 -0.2681 -0.1694
  213POPC   C2B 3107   1.708   9.348   6.330 -0.2139 -0.0684  0.0695
  213POPC   C3B 3108   1.549   9.144   6.703  0.1902 -0.3504  0.0595
  213POPC   C4B 3109   1.628   9.061   7.099  0.0374  0.1785  0.2714
  214POPC   NC3 3110   6.345   7.888   4.681 -0.2971  0.0055 -0.0236
  214POPC   PO4 3111   6.212   8.052   5.006 -0.0859  0.2563  0.1213
  214POPC   GL1 3112   6.003   7.854   5.243 -0.0246  0.0641 -0.1148
  214POPC   GL2 3113   6.109   7.731   5.427  0.0420  0.3489  0.1592
  214POPC   C1A 3114   5.558   7.732   5.333 -0.0523  0.2860  0.1483
  214POPC   D2A 3115   5.172   7.790   5.544  0.2727 -0.1663  0.0519
  214POPC   C3A 3116   4.828   8.045   5.411 -0.1520  0.1380  0.2993
  214POPC   C4A 3117   4.601   8.015   5.662  0.1336 -0.0374  0.0853
  214POPC   C1B 3118   6.008   7.534   5.836  0.1204  0.2453  0.2663
  214POPC   C2B 3119   5.999   7.452   6.278  0.0314 -0.4047  0.0396
  214POPC   C3B 3120   5.981   7.302   6.618 -0.1333  0.0885 -0.0591
  214POPC   C4B 3121   6.300   7.310   7.021  0.1316 -0.2013 -0.0932
  215POPC   NC3 3122   6.074   5.849   4.506 -0.1644  0.2363  0.1653
  215POPC   PO4 3123   5.708   6.115   4.536 -0.1300 -0.3218 -0.0607
  215POPC   GL1 3124   5.952   6.285   4.870 -0.0759 -0.1942 -0.0343
  215POPC   GL2 3125   5.721   6.368   5.075 -0.0344 -0.1158 -0.1406
  215POPC   C1A 3126   6.227   6.240   5.284 -0.1190  0.0213  0.4266
  215POPC   D2A 3127   6.451   5.904   5.416  0.4484  0.0252 -0.4157
  215POPC   C3A 3128   6.345   5.677   5.844 -0.3364 -0.2977 -0.0675
  215POPC   C4A 3129   6.495   5.419   6.188 -0.0387  0.2119 -0.0524
  215POPC   C1B 3130   5.779   6.506   5.499  0.1498  0.1637  0.2563
  215POPC   C2B 3131   5.635   6.264   5.940 -0.3044 -0.2140 -0.0709
  215POPC   C3B 3132   5.305   6.258   6.302 -0.0638 -0.1821  0.2055
  215POPC   C4B 3133   5.012   6.163   6.605  0.0771 -0.3661  0.0656
  216POPC   NC3 3134   8.510   3.997   5.186 -0.2474  0.2146 -0.2714
  216POPC   PO4 3135   8.980   4.022   5.220  0.0185  0.2810  0.2461
  216POPC   GL1 3136   9.210   4.118   5.538  0.1547  0.0470 -0.3019
  216POPC   GL2 3137   9.088   4.352   5.714 -0.2840  0.2232 -0.0420
  216POPC   C1A 3138   9.141   3.945   6.019  0.0228 -0.0175  0.0059
  216POPC   D2A 3139   9.297   3.731   6.290 -0.0519 -0.1436  0.0079
  216POPC   C3A 3140   9.423   3.260   6.161 -0.2100 -0.0954  0.0052
  216POPC   C4A 3141   9.611   2.899   6.417  0.0119  0.1754  0.2125
  216POPC   C1B 3142   9.407   4.339   6.033  0.1169 -0.2661  0.2002
  216POPC   C2B 3143   9.626   4.113   6.289  0.0664 -0.2604 -0.0826
  216POPC   C3B 3144   9.784   4.419   6.583  0.0191  0.4580 -0.0603
  216POPC   C4B 3145   9.788   4.302   6.936  0.0629 -0.2024  0.1185
  217POPC   NC3 3146   4.875   0.733   4.904  0.1245 -0.3473  0.1055
  217POPC   PO4 3147   4.543   0.462   5.088  0.2832  0.3740 -0.0968
  217POPC   GL1 3148   4.323   0.386   5.560  0.1288 -0.0506  0.1024
  217POPC   GL2 3149   4.148   0.653   5.748 -0.3878 -0.2276  0.2069
  217POPC   C1A 3150   4.470   0.098   5.910 -0.0624  0.0735  0.2000
  217POPC   D2A 3151   4.677   0.071   6.256 -0.1531  0.1059 -0.0533
  217POPC   C3A 3152   4.602   0.082   6.700  0.1741 -0.1631  0.4779
  217POPC   C4A 3153   4.330  -0.050   7.002 -0.0039  0.0281 -0.1587
  217POPC   C1B 3154   4.091   0.433   6.050 -0.0354 -0.0429 -0.0505
  217POPC   C2B 3155   4.177   0.317   6.468  0.0119 -0.1186 -0.0577
  217POPC   C3B 3156   3.933   0.252   6.903  0.2497  0.2375 -0.0228
  217POPC   C4B 3157   3.649   0.049   7.127  0.0267  0.3297  0.0271
  218POPC   NC3 3158   0.578   3.326   4.946  0.0276 -0.4026 -0.1845
  218POPC   PO4 3159   0.857   3.064   5.101  0.0833 -0.2912  0.1656
  218POPC   GL1 3160   0.708   2.971   5.538 -0.0394 -0.0087 -0.1610
  218POPC   GL2 3161   0.860   3.140   5.713 -0.0295  0.0420 -0.2026
  218POPC   C1A 3162   0.397   2.981   5.988 -0.1255 -0.0901  0.1818
  218POPC   D2A 3163   0.461   3.024   6.419 -0.1634 -0.0849  0.1473
  218POPC   C3A 3164   0.147   2.854   6.779 -0.0390  0.1884 -0.1450
  218POPC   C4A 3165  -0.146   2.900   7.036  0.2702  0.2163 -0.2896
  218POPC   C1B 3166   0.748   3.351   6.041 -0.0210  0.1056  0.0404
  218POPC   C2B 3167   0.711   3.508   6.413  0.3635 -0.1335  0.0660
  218POPC   C3B 3168   1.014   3.586   6.777  0.0214 -0.0417 -0.0377
  218POPC   C4B 3169   1.114   3.907   7.039 -0.0679 -0.0730  0.2554
  219POPC   NC3 3170   8.768   0.494   4.861  0.0046 -0.0680  0.1371
  219POPC   PO4 3171   8.654   1.048   4.964 -0.0091  0.1627  0.0317
  219POPC   GL1 3172   8.671   0.878   5.336  0.1831  0.1483  0.2316
  219POPC   GL2 3173   8.624   1.149   5.488  0.1847  0.0192 -0.5235
  219POPC   C1A 3174   8.699   0.664   5.765  0.0687  0.0077  0.1465
  219POPC   D2A 3175   8.464   0.720   6.174  0.3644 -0.0719 -0.1267
  219POPC   C3A 3176   8.327   0.438   6.528  0.0189 -0.0448 -0.3908
  219POPC   C4A 3177   8.225   0.006   6.586  0.0188 -0.2030 -0.0048
  219POPC   C1B 3178   8.391   1.183   5.891  0.0270 -0.2333  0.0270
  219POPC   C2B 3179   8.371   1.227   6.259 -0.1399  0.1961 -0.0843
  219POPC   C3B 3180   8.386   0.952   6.645  0.2388  0.2284 -0.4479
  219POPC   C4B 3181   8.494   0.722   7.039  0.0993  0.0775 -0.0101
  220POPC   NC3 3182   3.447   0.191   4.960 -0.0818 -0.1241 -0.1696
  220POPC   PO4 3183   3.547   0.461   5.202  0.1999  0.0978  0.2883
  220POPC   GL1 3184   3.215   0.296   5.537  0.4074 -0.1725  0.0764
  220POPC   GL2 3185   3.300   0.084   5.463 -0.0095  0.0940  0.0635
  220POPC   C1A 3186   3.090   0.152   5.931  0.0057 -0.0192 -0.4901
  220POPC   D2A 3187   2.765   0.017   6.136 -0.4490  0.0667 -0.2341
  220POPC   C3A 3188   2.697  -0.020   6.555  0.2763 -0.1598 -0.0365
  220POPC   C4A 3189   2.722  -0.003   6.922 -0.1813 -0.3076  0.1904
  220POPC   C1B 3190   3.554  -0.159   5.751 -0.0102  0.2822  0.1408
  220POPC   C2B 3191   3.700  -0.391   6.110 -0.1550  0.0222  0.1952
  220POPC   C3B 3192   3.987  -0.698   6.387  0.2010  0.1892  0.3123
  220POPC   C4B 3193   4.256  -1.126   6.445 -0.5352  0.1094  0.0476
  221POPC   NC3 3194   6.503   6.570   4.739  0.0851  0.1769  0.0426
  221POPC   PO4 3195   6.923   6.340   4.797 -0.0001 -0.1708 -0.0000
  221POPC   GL1 3196   6.751   6.301   5.246 -0.0141  0.0659 -0.0425
  221POPC   GL2 3197   6.788   6.669   5.201  0.0464  0.0551  0.1418
  221POPC   C1A 3198   6.901   6.067   5.621 -0.0045  0.1349 -0.0768
  221POPC   D2A 3199   6.786   5.815   6.062 -0.2717 -0.0109  0.1435
  221POPC   C3A 3200   6.443   5.890   6.359 -0.0934  0.0761  0.0945
  221POPC   C4A 3201   6.462   5.933   6.863 -0.3130 -0.1031 -0.1061
  221POPC   C1B 3202   6.460   6.548   5.553  0.0100  0.0807 -0.1379
  221POPC   C2B 3203   6.542   6.360   5.930  0.0337 -0.0660  0.2098
  221POPC   C3B 3204   6.219   6.388   6.360  0.1747  0.1688 -0.1663
  221POPC   C4B 3205   6.167   6.407   6.793 -0.3234 -0.0109  0.0162
  222POPC   NC3 3206   9.212   4.536   5.258 -0.0082 -0.1156 -0.1197
  222POPC   PO4 3207   9.479   4.450   4.953 -0.1190 -0.1315 -0.3247
  222POPC   GL1 3208   9.726   4.559   5.352 -0.2450 -0.0603 -0.0343
  222POPC   GL2 3209   9.627   4.353   5.577  0.0930  0.5231 -0.3378
  222POPC   C1A 3210  10.016   4.710   5.562 -0.1612  0.1069 -0.0638
  222POPC   D2A 3211  10.077   5.027   5.970  0.0309 -0.3575  0.1484
  222POPC   C3A 3212  10.258   5.459   6.204  0.0682 -0.1104  0.2922
  222POPC   C4A 3213  10.677   5.607   6.064 -0.2154  0.1795  0.1423
  222POPC   C1B 3214   9.928   4.434   5.936  0.2254 -0.0145  0.1222
  222POPC   C2B 3215  10.315   4.504   6.233  0.0897 -0.1670  0.2279
  222POPC   C3B 3216  10.323   4.960   6.528  0.1069 -0.4563  0.0537
  222POPC   C4B 3217  10.495   5.073   7.006 -0.0214 -0.1158  0.0677
  223POPC   NC3 3218   6.266   8.464   5.275  0.0641  0.1608  0.3725
  223POPC   PO4 3219   6.028   8.748   5.423 -0.2227 -0.0645  0.1296
  223POPC   GL1 3220   6.115   8.932   5.877 -0.1275 -0.3430  0.0643
  223POPC   GL2 3221   6.312   9.213   5.819  0.2244 -0.0483 -0.2097
  223POPC   C1A 3222   6.451   8.830   6.204  0.0352  0.1860 -0.3440
  223POPC   D2A 3223   6.515   8.682   6.601  0.1240  0.1316  0.1828
  223POPC   C3A 3224   6.190   8.417   6.873  0.0663 -0.0775 -0.5080
  223POPC   C4A 3225   5.759   8.333   7.083  0.0738  0.0371 -0.0626
  223POPC   C1B 3226   6.351   9.350   6.235 -0.0276 -0.2473 -0.0723
  223POPC   C2B 3227   6.396   9.175   6.703 -0.0145  0.0030  0.1421
  223POPC   C3B 3228   6.324   9.382   6.965 -0.1419 -0.3366 -0.0117
  223POPC   C4B 3229   6.580   9.779   7.098  0.2392  0.0424 -0.0411
  224POPC   NC3 3230   9.184   7.313   4.646 -0.3159 -0.5540 -0.1141
  224POPC   PO4 3231   8.899   6.933   4.559  0.1642  0.1305 -0.0013
  224POPC   GL1 3232   8.880   7.045   4.936  0.0305 -0.0509  0.0582
  224POPC   GL2 3233   8.534   6.979   5.012  0.0127 -0.5776  0.0533
  224POPC   C1A 3234   8.991   7.030   5.385  0.1600 -0.0015  0.1036
  224POPC   D2A 3235   9.315   7.099   5.627  0.1231 -0.1413  0.0880
  224POPC   C3A 3236   9.206   7.142   6.085 -0.2013  0.2001 -0.0027
  224POPC   C4A 3237   9.199   7.104   6.489 -0.1078 -0.3081  0.1639
  224POPC   C1B 3238   8.486   7.128   5.509 -0.0067 -0.2896 -0.2845
  224POPC   C2B 3239   8.235   7.472   5.845  0.2414  0.1737 -0.2624
  224POPC   C3B 3240   8.343   7.794   6.200 -0.0439 -0.1925  0.1528
  224POPC   C4B 3241   8.434   8.106   6.567  0.0901 -0.0458 -0.3580
  225POPC   NC3 3242   5.790   2.735   5.060 -0.2000 -0.1689  0.2268
  225POPC   PO4 3243   5.432   3.043   5.069 -0.2146 -0.1681  0.0534
  225POPC   GL1 3244   5.365   3.005   5.571 -0.4326  0.2944 -0.0154
  225POPC   GL2 3245   5.023   2.949   5.730  0.3694  0.0180 -0.2524
  225POPC   C1A 3246   5.398   3.291   6.018 -0.1300  0.0638 -0.1258
  225POPC   D2A 3247   5.138   3.601   6.275  0.6178  0.1720 -0.2951
  225POPC   C3A 3248   5.267   3.455   6.793 -0.1724  0.3723 -0.1744
  225POPC   C4A 3249   5.092   3.612   7.067 -0.1862 -0.1033  0.0597
  225POPC   C1B 3250   4.960   2.920   6.157 -0.0787 -0.1126  0.0144
  225POPC   C2B 3251   5.019   3.075   6.514 -0.0855 -0.0646  0.4580
  225POPC   C3B 3252   4.811   3.217   6.963  0.2895 -0.2464 -0.1788
  225POPC   C4B 3253   5.043   3.140   7.365  0.1122 -0.1742  0.0339
  226POPC   NC3 3254   3.342   0.902   5.016 -0.1771 -0.0189 -0.3176
  226POPC   PO4 3255   3.381   0.963   5.343 -0.0829 -0.1321 -0.1057
  226POPC   GL1 3256   3.438   0.771   5.780 -0.0147 -0.3019  0.1281
  226POPC   GL2 3257   3.697   0.766   5.994 -0.2177 -0.0761  0.1557
  226POPC   C1A 3258   3.352   0.545   6.181 -0.2896 -0.0029  0.2167
  226POPC   D2A 3259   3.356   0.284   6.652 -0.1592 -0.1342 -0.1733
  226POPC   C3A 3260   3.444   0.523   7.062 -0.0975 -0.0517 -0.0718
  226POPC   C4A 3261   3.509   0.804   7.426  0.0400 -0.1315 -0.3238
  226POPC   C1B 3262   3.519   1.022   6.319  0.0682  0.0949  0.1771
  226POPC   C2B 3263   3.537   1.006   6.803 -0.4620  0.0179 -0.0573
  226POPC   C3B 3264   3.909   0.783   6.956 -0.2356 -0.0558  0.1704
  226POPC   C4B 3265   4.282   0.501   7.048 -0.2238 -0.0044  0.6344
  227POPC   NC3 3266   2.869   9.066   3.750  0.0055  0.2432 -0.1230
  227POPC   PO4 3267   3.035   9.280   4.106 -0.0243  0.0339  0.1173
  227POPC   GL1 3268   3.391   9.046   4.396  0.2399 -0.2345 -0.0254
  227POPC   GL2 3269   3.517   9.047   4.669  0.2222  0.1852 -0.2082
  227POPC   C1A 3270   3.591   8.746   4.318 -0.2467 -0.0709 -0.0466
  227POPC   D2A 3271   3.551   8.377   4.114  0.1991  0.1033  0.1838
  227POPC   C3A 3272   3.739   7.977   4.224 -0.0762 -0.0704 -0.0678
  227POPC   C4A 3273   3.699   7.528   4.059  0.2744 -0.2440  0.2117
  227POPC   C1B 3274   3.408   8.673   4.788 -0.1251  0.0575 -0.0204
  227POPC   C2B 3275   3.215   8.426   4.465  0.2025  0.1248 -0.2765
  227POPC   C3B 3276   3.227   8.025   4.432 -0.2047 -0.0706 -0.2650
  227POPC   C4B 3277   3.116   7.742   4.247 -0.0937  0.0883 -0.1077
  228POPC   NC3 3278   2.463   0.746   5.700  0.0652  0.0262  0.0284
  228POPC   PO4 3279   2.539   1.175   5.539 -0.0142  0.0857 -0.3257
  228POPC   GL1 3280   2.569   1.165   5.933 -0.2389  0.0316 -0.0939
  228POPC   GL2 3281   2.674   1.416   5.976 -0.0334 -0.1551 -0.0983
  228POPC   C1A 3282   2.552   0.936   6.384 -0.0913 -0.0591  0.2289
  228POPC   D2A 3283   2.426   0.901   6.712  0.2142  0.1711 -0.1834
  228POPC   C3A 3284   2.708   1.133   7.006  0.0514  0.0491  0.0471
  228POPC   C4A 3285   3.104   0.908   7.083 -0.1221  0.0646  0.3157
  228POPC   C1B 3286   2.525   1.749   6.181  0.0920 -0.0071  0.2603
  228POPC   C2B 3287   2.466   1.980   6.586 -0.1579  0.0120  0.1209
  228POPC   C3B 3288   2.615   2.130   6.983 -0.2279  0.0938  0.0869
  228POPC   C4B 3289   2.466   1.931   7.413  0.0037 -0.3881  0.0061
  229POPC   NC3 3290   0.328   5.220   4.636 -0.2382  0.2129  0.0142
  229POPC   PO4 3291   0.618   5.457   4.286  0.1187  0.0282  0.1379
  229POPC   GL1 3292   0.629   5.554   4.820  0.2778 -0.1256 -0.0576
  229POPC   GL2 3293   0.298   5.587   4.985 -0.2137 -0.3274 -0.0506
  229POPC   C1A 3294   0.769   5.792   5.165  0.0728  0.0438  0.2153
  229POPC   D2A 3295   1.005   6.130   5.166 -0.3978 -0.0999 -0.0881
  229POPC   C3A 3296   1.238   6.319   5.498  0.0463  0.1181 -0.0621
  229POPC   C4A 3297   1.527   6.655   5.559 -0.3994 -0.1775 -0.0934
  229POPC   C1B 3298   0.323   5.699   5.499 -0.1935  0.3072 -0.0704
  229POPC   C2B 3299   0.279   5.988   5.831  0.1618  0.0731 -0.1179
  229POPC   C3B 3300   0.352   6.425   5.813 -0.2535  0.0724 -0.0948
  229POPC   C4B 3301   0.678   6.555   5.592  0.1440  0.0082 -0.1405
  230POPC   NC3 3302   1.008   2.672   5.292 -0.1330 -0.2626 -0.1556
  230POPC   PO4 3303   0.839   2.363   5.518  0.1401 -0.1394 -0.2345
  230POPC   GL1 3304   0.761   2.554   5.835 -0.0719 -0.1389  0.1238
  230POPC   GL2 3305   1.090   2.703   5.813  0.2955  0.1916 -0.0458
  230POPC   C1A 3306   0.422   2.482   6.046 -0.2531  0.3431  0.1088
  230POPC   D2A 3307   0.484   2.506   6.479 -0.2304  0.1313 -0.1534
  230POPC   C3A 3308   0.728   2.703   6.807  0.1114 -0.2915  0.1479
  230POPC   C4A 3309   1.267   2.636   7.045  0.2560  0.1083 -0.0363
  230POPC   C1B 3310   0.873   2.898   6.175 -0.1568  0.0121  0.2140
  230POPC   C2B 3311   0.933   3.091   6.622 -0.2525 -0.1147  0.2191
  230POPC   C3B 3312   0.954   3.070   7.100 -0.3486 -0.0789  0.0670
  230POPC   C4B 3313   0.676   2.938   7.455  0.0952 -0.0108 -0.0518
  231POPC   NC3 3314   3.297   3.823   4.906 -0.1171 -0.0717 -0.2827
  231POPC   PO4 3315   3.009   3.884   5.096  0.1868 -0.0755  0.0584
  231POPC   GL1 3316   2.752   4.151   5.404 -0.0302  0.1905 -0.1897
  231POPC   GL2 3317   2.652   4.428   5.312 -0.0116 -0.0336 -0.2747
  231POPC   C1A 3318   2.679   4.225   5.835 -0.3370 -0.0017 -0.3713
  231POPC   D2A 3319   2.632   4.232   6.268 -0.1197  0.2412  0.0860
  231POPC   C3A 3320   2.850   4.213   6.664  0.0787  0.0731  0.0281
  231POPC   C4A 3321   3.106   4.430   6.848  0.1038 -0.2609  0.1602
  231POPC   C1B 3322   2.986   4.608   5.561  0.2220  0.2132  0.1549
  231POPC   C2B 3323   3.151   4.643   5.912  0.1343 -0.1447  0.2030
  231POPC   C3B 3324   3.047   5.075   6.164  0.0304 -0.1086  0.2912
  231POPC   C4B 3325   2.654   5.258   6.330  0.2056  0.1408 -0.1394
  232POPC   NC3 3326   7.585   0.207   4.887  0.2456  0.0501  0.1472
  232POPC   PO4 3327   8.004   0.023   5.080  0.2391  0.1597  0.2092
  232POPC   GL1 3328   7.991   0.065   5.498 -0.0999 -0.2070  0.1121
  232POPC   GL2 3329   8.328   0.038   5.527  0.1566 -0.2730 -0.0792
  232POPC   C1A 3330   7.669  -0.175   5.704 -0.0726 -0.0828 -0.0303
  232POPC   D2A 3331   7.409  -0.117   6.026  0.1884 -0.1533 -0.3590
  232POPC   C3A 3332   7.683  -0.203   6.347 -0.1464 -0.1078  0.3195
  232POPC   C4A 3333   7.871  -0.375   6.748  0.1299  0.3875 -0.0912
  232POPC   C1B 3334   8.261   0.016   6.074 -0.1380  0.1656  0.2635
  232POPC   C2B 3335   8.171  -0.347   6.315 -0.0887  0.1256  0.0974
  232POPC   C3B 3336   8.381  -0.452   6.718  0.1098  0.2572  0.1472
  232POPC   C4B 3337   8.562  -0.816   6.773 -0.2491 -0.0042 -0.0554
  233POPC   NC3 3338   3.029   1.192   5.685 -0.2953  0.1405 -0.1696
  233POPC   PO4 3339   3.415   1.439   5.544 -0.0892 -0.2491 -0.0503
  233POPC   GL1 3340   3.505   1.374   5.935  0.0771  0.0993  0.0046
  233POPC   GL2 3341   3.204   1.519   6.069  0.0220  0.2511 -0.2327
  233POPC   C1A 3342   3.550   1.468   6.442  0.1173 -0.1565 -0.1804
  233POPC   D2A 3343   3.727   1.533   6.869  0.4011 -0.0780  0.2007
  233POPC   C3A 3344   4.017   1.248   7.112  0.1921  0.1001 -0.0941
  233POPC   C4A 3345   4.304   0.982   7.253 -0.0737  0.1445 -0.3331
  233POPC   C1B 3346   2.927   1.595   6.421 -0.2859  0.1764  0.1479
  233POPC   C2B 3347   2.608   1.438   6.642 -0.0152  0.1589  0.0196
  233POPC   C3B 3348   2.353   1.540   6.918 -0.0642 -0.3250  0.3226
  233POPC   C4B 3349   2.069   1.559   7.314 -0.3688  0.1914  0.1251
  234POPC   NC3 3350   0.581   4.952   4.241 -0.0680  0.0171 -0.1290
  234POPC   PO4 3351   0.694   4.873   4.629  0.2647  0.3008  0.0525
  234POPC   GL1 3352   0.954   4.772   4.927  0.1663 -0.1865 -0.1475
  234POPC   GL2 3353   0.830   4.625   5.269 -0.1537  0.0261  0.0569
  234POPC   C1A 3354   1.327   4.806   5.216  0.2059 -0.0903  0.2412
  234POPC   D2A 3355   1.532   5.260   5.516 -0.0721 -0.1347 -0.3830
  234POPC   C3A 3356   1.250   5.381   5.861  0.1531 -0.1305 -0.2809
  234POPC   C4A 3357   0.960   5.430   6.290 -0.1138 -0.0099 -0.1582
  234POPC   C1B 3358   1.095   4.497   5.562 -0.0008  0.3923 -0.0059
  234POPC   C2B 3359   1.313   4.690   5.785  0.3360 -0.1258  0.0551
  234POPC   C3B 3360   1.306   4.928   6.121 -0.0630  0.1476  0.1897
  234POPC   C4B 3361   1.505   5.080   6.392 -0.0717 -0.2600  0.1957
  235POPC   NC3 3362   6.096   1.645   4.750 -0.2010  0.0463  0.4531
  235POPC   PO4 3363   5.837   1.735   5.085  0.1533 -0.1394 -0.0471
  235POPC   GL1 3364   5.822   1.752   5.538  0.1284  0.1801 -0.0047
  235POPC   GL2 3365   5.788   2.106   5.668  0.1083  0.1787 -0.0767
  235POPC   C1A 3366   5.678   1.440   5.794 -0.1222  0.1145  0.0606
  235POPC   D2A 3367   5.455   1.323   6.002 -0.0681  0.0170 -0.0197
  235POPC   C3A 3368   5.714   1.177   6.351  0.1366  0.3254 -0.2208
  235POPC   C4A 3369   5.629   1.313   6.789 -0.1689  0.3810 -0.0074
  235POPC   C1B 3370   5.654   2.168   5.996  0.0702 -0.2005  0.1741
  235POPC   C2B 3371   5.493   2.336   6.356  0.1422 -0.2321  0.0502
  235POPC   C3B 3372   5.283   2.652   6.655 -0.1384  0.0505 -0.1790
  235POPC   C4B 3373   5.413   2.948   6.994 -0.2790  0.2084 -0.1176
  236POPC   NC3 3374   6.692   2.358   5.291 -0.1300  0.1989  0.0849
  236POPC   PO4 3375   6.800   1.909   5.279  0.1823  0.0474  0.0635
  236POPC   GL1 3376   6.730   1.834   5.697  0.0940  0.0258 -0.2628
  236POPC   GL2 3377   6.461   1.869   5.746 -0.0687  0.1965 -0.0990
  236POPC   C1A 3378   6.707   1.942   6.166  0.0797  0.1943  0.2649
  236POPC   D2A 3379   6.989   2.201   6.464  0.2448  0.1996  0.2630
  236POPC   C3A 3380   6.884   2.214   6.771  0.1819 -0.2933 -0.0272
  236POPC   C4A 3381   6.863   2.361   7.154  0.2288  0.5974 -0.1091
  236POPC   C1B 3382   6.071   1.846   5.959  0.0382 -0.1337 -0.2725
  236POPC   C2B 3383   5.777   1.718   6.272  0.1138 -0.4486 -0.2061
  236POPC   C3B 3384   5.531   1.929   6.641 -0.4337  0.1224  0.3417
  236POPC   C4B 3385   5.073   2.007   6.719  0.0864 -0.0265 -0.0655
  237POPC   NC3 3386   4.672   3.493   4.757 -0.0545 -0.1440  0.0473
  237POPC   PO4 3387   4.627   3.680   5.109  0.1073  0.0092  0.0653
  237POPC   GL1 3388   4.491   3.821   5.534 -0.3134  0.5079 -0.0508
  237POPC   GL2 3389   4.283   4.208   5.655 -0.1699  0.1555 -0.0783
  237POPC   C1A 3390   4.499   3.882   6.025  0.0642  0.1218 -0.1610
  237POPC   D2A 3391   4.514   3.981   6.573 -0.1583  0.3432  0.1549
  237POPC   C3A 3392   4.093   3.874   6.759  0.4834  0.0999  0.1260
  237POPC   C4A 3393   3.772   4.089   6.942 -0.0815 -0.0777 -0.0989
  237POPC   C1B 3394   4.101   4.274   5.990  0.0904 -0.3165  0.0512
  237POPC   C2B 3395   4.163   4.374   6.441 -0.0121 -0.1465  0.0928
  237POPC   C3B 3396   4.163   4.622   6.483  0.1728 -0.1087 -0.4115
  237POPC   C4B 3397   4.212   5.008   6.478  0.4523  0.1002  0.1578
  238POPC   NC3 3398   9.131   0.785   5.262 -0.3076 -0.3498  0.0303
  238POPC   PO4 3399   9.230   1.215   5.260  0.0273 -0.2880  0.0950
  238POPC   GL1 3400   9.137   1.063   5.696  0.2738 -0.1297  0.1436
  238POPC   GL2 3401   9.401   1.189   5.938 -0.2739  0.0768 -0.0490
  238POPC   C1A 3402   8.970   0.923   6.133 -0.1195  0.5139 -0.2980
  238POPC   D2A 3403   8.815   0.739   6.537  0.0545  0.0254  0.4869
  238POPC   C3A 3404   8.977   0.799   6.903  0.0208  0.2869 -0.1076
  238POPC   C4A 3405   9.353   0.836   7.212  0.0557  0.2685 -0.2861
  238POPC   C1B 3406   9.630   0.939   6.194 -0.0159  0.1176 -0.1544
  238POPC   C2B 3407   9.695   0.756   6.633 -0.1807 -0.2869 -0.1389
  238POPC   C3B 3408   9.670   1.048   6.910 -0.0129  0.1607  0.1674
  238POPC   C4B 3409   9.687   1.318   7.063 -0.3196 -0.0085  0.2098
  239POPC   NC3 3410   8.086   9.741   5.157  0.2428  0.1272  0.1341
  239POPC   PO4 3411   8.519   9.699   5.181  0.1862  0.0370 -0.2955
  239POPC   GL1 3412   8.729   9.824   5.496  0.0524  0.0750 -0.0197
  239POPC   GL2 3413   8.945  10.185   5.499 -0.0242 -0.0669  0.3871
  239POPC   C1A 3414   8.702   9.931   5.973  0.2741  0.1382 -0.0594
  239POPC   D2A 3415   8.653  10.023   6.405  0.6043  0.1392  0.0602
  239POPC   C3A 3416   8.850   9.931   6.846 -0.1550  0.0921 -0.1290
  239POPC   C4A 3417   8.677   9.853   7.172 -0.3400 -0.1665 -0.1627
  239POPC   C1B 3418   8.900  10.357   5.866 -0.4940 -0.2519  0.2194
  239POPC   C2B 3419   8.630  10.448   6.242 -0.2111 -0.0400  0.0208
  239POPC   C3B 3420   8.776  10.441   6.721 -0.2347 -0.3021 -0.1626
  239POPC   C4B 3421   8.745  10.390   7.204  0.0820  0.1701  0.0019
  240POPC   NC3 3422   7.838   8.600   5.156 -0.0069 -0.0175  0.1177
  240POPC   PO4 3423   7.746   8.210   5.406  0.0429  0.0711  0.3322
  240POPC   GL1 3424   7.773   7.796   5.682 -0.1917  0.0709 -0.1547
  240POPC   GL2 3425   7.453   7.673   5.608  0.0656 -0.3366 -0.4843
  240POPC   C1A 3426   7.871   7.719   6.114 -0.2853 -0.0793  0.0262
  240POPC   D2A 3427   7.949   8.000   6.520 -0.0822 -0.2116 -0.0298
  240POPC   C3A 3428   8.077   8.460   6.685  0.1033  0.0789  0.1456
  240POPC   C4A 3429   7.901   8.760   6.887 -0.2265 -0.1300  0.0297
  240POPC   C1B 3430   7.385   7.687   6.077  0.0340  0.1272  0.0479
  240POPC   C2B 3431   7.453   7.821   6.403  0.2057 -0.0320  0.2634
  240POPC   C3B 3432   7.157   8.106   6.735 -0.0347 -0.1344  0.2184
  240POPC   C4B 3433   6.836   8.246   6.794  0.3360 -0.2877 -0.2490
  241POPC   NC3 3434   7.240   7.271   4.707 -0.0055 -0.1982  0.0770
  241POPC   PO4 3435   6.751   7.309   4.820  0.0093 -0.2728 -0.1238
  241POPC   GL1 3436   6.693   7.160   5.164  0.0318  0.0706 -0.2526
  241POPC   GL2 3437   6.362   7.301   5.393 -0.1182  0.1041 -0.1320
  241POPC   C1A 3438   6.783   6.932   5.618 -0.2350 -0.0358  0.4286
  241POPC   D2A 3439   6.803   6.944   6.079 -0.1114  0.0279  0.3415
  241POPC   C3A 3440   6.600   6.716   6.372 -0.1016  0.4480 -0.1027
  241POPC   C4A 3441   6.714   6.316   6.642  0.2368 -0.3365 -0.2331
  241POPC   C1B 3442   6.369   7.186   5.900  0.0391  0.3678 -0.2630
  241POPC   C2B 3443   6.323   7.099   6.330  0.0328 -0.3937  0.3791
  241POPC   C3B 3444   6.065   6.824   6.502  0.2558  0.0950  0.2998
  241POPC   C4B 3445   5.749   6.621   6.241 -0.0794  0.0515 -0.3220
  242POPC   NC3 3446   9.637   5.253   4.845 -0.4515 -0.0436 -0.1627
  242POPC   PO4 3447   9.340   5.026   5.067  0.0031  0.2335  0.1410
  242POPC   GL1 3448   9.656   5.037   5.415 -0.0114 -0.1744 -0.0783
  242POPC   GL2 3449   9.678   5.246   5.638 -0.1202 -0.0292 -0.4222
  242POPC   C1A 3450   9.619   4.804   5.828 -0.1643 -0.2871  0.1584
  242POPC   D2A 3451   9.616   4.808   6.217  0.0814 -0.1770  0.0277
  242POPC   C3A 3452   9.897   5.154   6.404  0.0804 -0.0939  0.1239
  242POPC   C4A 3453  10.001   5.186   6.840  0.2463 -0.2200  0.3968
  242POPC   C1B 3454   9.333   5.230   6.030 -0.0094 -0.2322 -0.0450
  242POPC   C2B 3455   9.188   5.111   6.421  0.0062 -0.1574  0.4567
  242POPC   C3B 3456   8.993   4.869   6.683 -0.0846  0.1071 -0.2339
  242POPC   C4B 3457   8.791   4.444   6.770  0.1084  0.0285  0.0614
  243POPC   NC3 3458   1.583   2.208   5.250  0.0349  0.1367  0.0020
  243POPC   PO4 3459   1.525   1.787   5.367 -0.1245 -0.1235 -0.2678
  243POPC   GL1 3460   1.356   1.807   5.778 -0.0189  0.0222 -0.0334
  243POPC   GL2 3461   1.303   1.479   5.903  0.0111  0.1474  0.1303
  243POPC   C1A 3462   1.478   1.937   6.212 -0.1738 -0.0241 -0.0665
  243POPC   D2A 3463   1.456   2.101   6.602 -0.1492 -0.1172  0.0921
  243POPC   C3A 3464   1.555   2.290   6.840 -0.1227  0.0758 -0.0180
  243POPC   C4A 3465   1.806   2.634   6.852  0.3250 -0.1735  0.1280
  243POPC   C1B 3466   1.016   1.702   6.258 -0.0760 -0.1353  0.4071
  243POPC   C2B 3467   1.136   1.758   6.712  0.3020  0.1047  0.0323
  243POPC   C3B 3468   0.864   1.760   7.053 -0.0981 -0.1245  0.3248
  243POPC   C4B 3469   0.778   1.467   7.346  0.2763  0.0021  0.0755
  244POPC   NC3 3470   6.295   3.961   5.232 -0.2999 -0.2238 -0.2882
  244POPC   PO4 3471   6.221   3.540   5.403 -0.2643 -0.0445  0.0691
  244POPC   GL1 3472   6.208   3.681   5.846 -0.0469 -0.0583  0.0406
  244POPC   GL2 3473   5.880   3.991   5.918 -0.2650 -0.1534  0.1122
  244POPC   C1A 3474   6.200   3.718   6.288  0.2877 -0.0441 -0.1386
  244POPC   D2A 3475   6.542   4.050   6.477  0.4010  0.2003  0.1575
  244POPC   C3A 3476   6.311   4.437   6.508 -0.0959  0.0035 -0.2317
  244POPC   C4A 3477   6.254   4.593   6.893 -0.2663 -0.1177 -0.2570
  244POPC   C1B 3478   5.939   4.112   6.324  0.2622 -0.0247  0.0540
  244POPC   C2B 3479   5.954   4.197   6.749 -0.0380  0.2806  0.1566
  244POPC   C3B 3480   5.954   4.262   7.259  0.1118  0.2177 -0.2080
  244POPC   C4B 3481   5.684   4.541   7.513 -0.0154 -0.0711  0.0383
  245POPC   NC3 3482   3.784   6.190   3.595  0.0270  0.0706 -0.3485
  245POPC   PO4 3483   4.046   5.970   3.750 -0.1547  0.2248  0.0560
  245POPC   GL1 3484   3.914   5.986   4.297 -0.3685 -0.1916  0.0453
  245POPC   GL2 3485   4.062   5.920   4.616  0.0514 -0.0777 -0.2100
  245POPC   C1A 3486   3.681   6.378   4.582 -0.2199  0.2655  0.4606
  245POPC   D2A 3487   3.313   6.314   4.655  0.3531  0.0380 -0.2642
  245POPC   C3A 3488   3.136   6.064   4.952 -0.0736 -0.0850 -0.1339
  245POPC   C4A 3489   2.977   6.036   5.345 -0.1900 -0.0558  0.1479
  245POPC   C1B 3490   4.041   6.077   5.007  0.0843 -0.0949  0.3369
  245POPC   C2B 3491   4.130   6.376   5.284 -0.2238 -0.2934  0.3377
  245POPC   C3B 3492   4.356   6.746   5.460  0.0428 -0.2308 -0.2756
  245POPC   C4B 3493   4.458   7.121   5.745  0.0220  0.3264 -0.6020
  246POPC   NC3 3494   8.477   6.096   4.661 -0.1382  0.0968  0.2557
  246POPC   PO4 3495   8.308   5.746   4.862 -0.2764  0.2871  0.0478
  246POPC   GL1 3496   8.384   5.713   5.276  0.2063  0.2516 -0.1392
  246POPC   GL2 3497   8.192   5.512   5.460  0.4649 -0.1173 -0.0717
  246POPC   C1A 3498   8.380   6.011   5.679  0.2712  0.0968  0.0806
  246POPC   D2A 3499   8.137   6.198   6.008 -0.2184  0.0115 -0.1701
  246POPC   C3A 3500   8.269   6.177   6.399 -0.2318  0.4310  0.3581
  246POPC   C4A 3501   8.194   6.190   6.821  0.0526 -0.1698  0.2132
  246POPC   C1B 3502   8.298   5.524   5.826 -0.0713 -0.0403 -0.0431
  246POPC   C2B 3503   8.157   5.724   6.235 -0.0282  0.1538 -0.3680
  246POPC   C3B 3504   8.385   5.679   6.627  0.2200 -0.1468 -0.2867
  246POPC   C4B 3505   8.367   5.732   7.008 -0.0001  0.4320 -0.0983
  247POPC   NC3 3506   4.238   4.160   4.502 -0.0437  0.0127 -0.0014
  247POPC   PO4 3507   3.907   4.471   4.710  0.4746 -0.2334 -0.2095
  247POPC   GL1 3508   3.661   4.633   5.038  0.2543 -0.1694 -0.1736
  247POPC   GL2 3509   3.939   4.575   5.182 -0.2487 -0.3204 -0.1799
  247POPC   C1A 3510   3.518   4.695   5.448  0.2353 -0.0802  0.3183
  247POPC   D2A 3511   3.669   4.861   5.668  0.1165 -0.0883 -0.0785
  247POPC   C3A 3512   3.568   5.123   5.975 -0.0621  0.2616 -0.0960
  247POPC   C4A 3513   3.535   5.508   6.203  0.1945  0.2641  0.2298
  247POPC   C1B 3514   4.169   4.716   5.472 -0.2532 -0.2957 -0.0227
  247POPC   C2B 3515   4.117   4.918   5.928 -0.1388 -0.1358 -0.0440
  247POPC   C3B 3516   4.005   5.399   6.006 -0.0484 -0.0451 -0.2581
  247POPC   C4B 3517   4.332   5.695   5.921  0.2218 -0.0389  0.2577
  248POPC   NC3 3518   5.027   2.789   5.294 -0.0732  0.4924  0.2650
  248POPC   PO4 3519   4.623   2.784   5.452 -0.2531  0.2964 -0.0646
  248POPC   GL1 3520   4.633   2.565   5.863  0.0050 -0.2968  0.0448
  248POPC   GL2 3521   4.488   2.781   5.943  0.2226  0.2239 -0.0952
  248POPC   C1A 3522   4.354   2.366   6.170 -0.1047 -0.1249 -0.0450
  248POPC   D2A 3523   4.290   2.542   6.632 -0.1510 -0.0908  0.3806
  248POPC   C3A 3524   4.094   2.354   6.958 -0.0791  0.2473 -0.0786
  248POPC   C4A 3525   4.153   2.440   7.434  0.2653 -0.0650  0.3545
  248POPC   C1B 3526   4.451   2.975   6.309 -0.0089 -0.4266  0.1612
  248POPC   C2B 3527   4.437   3.020   6.728 -0.3060  0.2468 -0.1002
  248POPC   C3B 3528   4.347   3.115   7.134 -0.1889  0.1602  0.2116
  248POPC   C4B 3529   4.372   3.485   7.370  0.0993 -0.1545 -0.0666
  249POPC   NC3 3530   4.962   8.996   4.685 -0.0297  0.0453 -0.2307
  249POPC   PO4 3531   4.694   9.331   4.764 -0.0839  0.0027 -0.1272
  249POPC   GL1 3532   4.711   9.229   5.191  0.3998  0.0942  0.1783
  249POPC   GL2 3533   4.863   8.903   5.254  0.0790  0.0462  0.1690
  249POPC   C1A 3534   4.544   9.166   5.532 -0.3921  0.2228 -0.0333
  249POPC   D2A 3535   4.493   9.125   6.007 -0.1282  0.2377 -0.0934
  249POPC   C3A 3536   4.485   9.541   6.270 -0.0627  0.3944  0.0114
  249POPC   C4A 3537   4.292   9.970   6.371  0.0518 -0.1733  0.2167
  249POPC   C1B 3538   5.005   9.022   5.680  0.0679 -0.1515 -0.0858
  249POPC   C2B 3539   4.850   8.764   5.921 -0.0352  0.0259  0.1852
  249POPC   C3B 3540   4.907   8.786   6.409  0.2558  0.3121 -0.3325
  249POPC   C4B 3541   4.741   8.610   6.755  0.1695 -0.1684  0.3700
  250POPC   NC3 3542   0.776   9.062   4.975  0.1367  0.1364  0.4986
  250POPC   PO4 3543   0.831   9.443   5.307  0.0526 -0.2300  0.1494
  250POPC   GL1 3544   0.714   9.359   5.734  0.1888 -0.2119 -0.1060
  250POPC   GL2 3545   0.497   9.609   5.936  0.2274  0.1933  0.0733
  250POPC   C1A 3546   0.752   9.255   6.178 -0.0138 -0.1869  0.0913
  250POPC   D2A 3547   0.797   9.020   6.644 -0.0349  0.1592  0.6075
  250POPC   C3A 3548   1.069   9.181   6.965 -0.2459  0.2768 -0.0089
  250POPC   C4A 3549   1.222   9.588   7.048  0.0560  0.1743 -0.2627
  250POPC   C1B 3550   0.580   9.670   6.362  0.0193 -0.1050 -0.1422
  250POPC   C2B 3551   0.784   9.617   6.777  0.0906  0.0378  0.0728
  250POPC   C3B 3552   0.721   9.904   7.171  0.3394 -0.0495 -0.1304
  250POPC   C4B 3553   0.514   9.830   7.584  0.1995 -0.3395 -0.3212
  251POPC   NC3 3554   8.622   4.889   4.788 -0.1174  0.3139  0.0480
  251POPC   PO4 3555   8.872   4.830   5.079 -0.0974 -0.0348 -0.1393
  251POPC   GL1 3556   8.966   5.030   5.387  0.0352  0.0040 -0.0080
  251POPC   GL2 3557   9.181   4.925   5.633 -0.0659  0.0411  0.0483
  251POPC   C1A 3558   8.752   5.402   5.598  0.0386  0.1307 -0.0059
  251POPC   D2A 3559   8.794   5.668   5.950  0.0028  0.0158 -0.0198
  251POPC   C3A 3560   9.037   5.586   6.333 -0.1649 -0.0598 -0.0727
  251POPC   C4A 3561   8.971   5.745   6.711 -0.2351  0.2846 -0.1443
  251POPC   C1B 3562   9.027   4.688   6.062 -0.0806  0.1274  0.0508
  251POPC   C2B 3563   9.200   4.535   6.432 -0.0771  0.0719  0.2813
  251POPC   C3B 3564   9.314   4.262   6.797 -0.1090  0.0647 -0.2122
  251POPC   C4B 3565   9.324   4.139   7.262 -0.4250  0.0446 -0.0969
  252POPC   NC3 3566   2.234   8.646   4.107  0.1485  0.1138  0.1060
  252POPC   PO4 3567   1.813   8.521   4.130  0.1246  0.0334 -0.2229
  252POPC   GL1 3568   1.966   8.426   4.477  0.0832 -0.0248 -0.1941
  252POPC   GL2 3569   1.763   8.554   4.758  0.0373  0.1670 -0.0627
  252POPC   C1A 3570   2.246   8.307   4.925  0.0436 -0.1831 -0.2898
  252POPC   D2A 3571   2.296   8.006   5.293 -0.0305 -0.1758 -0.0650
  252POPC   C3A 3572   2.179   8.074   5.623 -0.2119  0.0450 -0.0372
  252POPC   C4A 3573   2.196   8.081   6.016 -0.2778  0.4513  0.0298
  252POPC   C1B 3574   1.803   8.419   5.173 -0.0189 -0.0402 -0.2067
  252POPC   C2B 3575   1.715   8.083   5.214  0.2364  0.2218  0.1224
  252POPC   C3B 3576   1.875   7.628   5.153  0.0927  0.2718 -0.1735
  252POPC   C4B 3577   1.823   7.180   5.398 -0.1927 -0.1014  0.2837
  253POPC   NC3 3578   5.561  10.097   5.063 -0.1775  0.0525 -0.2133
  253POPC   PO4 3579   5.798  10.417   4.796 -0.1523 -0.2462  0.0209
  253POPC   GL1 3580   5.854  10.415   5.258  0.1223  0.2256  0.0542
  253POPC   GL2 3581   6.111  10.286   5.299 -0.0534  0.2261  0.2917
  253POPC   C1A 3582   5.734  10.470   5.789 -0.2546 -0.0511 -0.1031
  253POPC   D2A 3583   5.357  10.784   5.900  0.1568  0.0921  0.1205
  253POPC   C3A 3584   5.283  11.066   6.130 -0.0065 -0.1128 -0.1944
  253POPC   C4A 3585   5.193  11.236   6.514 -0.3597  0.3250  0.1081
  253POPC   C1B 3586   6.238  10.270   5.765  0.3365 -0.1148  0.0800
  253POPC   C2B 3587   6.059  10.333   6.108  0.1153 -0.0632 -0.0987
  253POPC   C3B 3588   5.809  10.474   6.468  0.2694  0.2809  0.0162
  253POPC   C4B 3589   5.598  10.394   6.843  0.0532  0.3139  0.0772
  254POPC   NC3 3590   5.578   9.604   4.911 -0.1899 -0.1052 -0.0360
  254POPC   PO4 3591   5.715   9.250   5.068 -0.0544 -0.0577 -0.1148
  254POPC   GL1 3592   5.678   9.217   5.504  0.2244 -0.2016 -0.0493
  254POPC   GL2 3593   5.439   9.455   5.542 -0.0952 -0.1940  0.2441
  254POPC   C1A 3594   5.560   9.163   5.977 -0.0599  0.1236  0.2581
  254POPC   D2A 3595   5.803   8.907   6.255  0.0588 -0.0831 -0.2275
  254POPC   C3A 3596   6.005   8.817   6.631 -0.1484  0.1218  0.2476
  254POPC   C4A 3597   6.082   8.884   6.971 -0.0153  0.1968  0.0376
  254POPC   C1B 3598   5.363   9.664   5.982 -0.4662  0.1184  0.3446
  254POPC   C2B 3599   5.351   9.569   6.452 -0.1734 -0.0707 -0.0893
  254POPC   C3B 3600   5.273   9.381   6.872  0.1553  0.0318 -0.2841
  254POPC   C4B 3601   4.906   9.383   7.182 -0.3424 -0.0931 -0.1069
  255POPC   NC3 3602   2.283   7.191   3.364 -0.0572  0.1514  0.1711
  255POPC   PO4 3603   2.746   7.352   3.627 -0.0484 -0.0336 -0.0599
  255POPC   GL1 3604   2.372   7.553   3.988  0.2825  0.1121 -0.2143
  255POPC   GL2 3605   2.078   7.546   4.061 -0.4891  0.0264  0.2815
  255POPC   C1A 3606   2.384   7.837   4.310  0.0034  0.3550  0.0048
  255POPC   D2A 3607   2.206   7.869   4.757 -0.1752 -0.0250  0.0958
  255POPC   C3A 3608   1.716   7.878   4.783 -0.2090 -0.0865 -0.0049
  255POPC   C4A 3609   1.385   8.205   4.816 -0.3646 -0.0359  0.0006
  255POPC   C1B 3610   1.959   7.480   4.496 -0.0702  0.1218 -0.0779
  255POPC   C2B 3611   2.095   7.257   4.920  0.1831  0.1414  0.0728
  255POPC   C3B 3612   2.269   7.113   5.259 -0.3901  0.0635 -0.1698
  255POPC   C4B 3613   2.525   6.846   5.408 -0.1739  0.1936 -0.0419
  256POPC   NC3 3614   9.951   5.865   4.566 -0.1596  0.0187 -0.0122
  256POPC   PO4 3615  10.070   5.461   4.692  0.0002  0.0524 -0.0604
  256POPC   GL1 3616  10.052   5.442   5.162 -0.0344 -0.0298  0.1482
  256POPC   GL2 3617  10.008   5.659   5.251 -0.0574 -0.1327 -0.0887
  256POPC   C1A 3618  10.233   5.195   5.480  0.0794  0.2593  0.0810
  256POPC   D2A 3619  10.543   5.206   5.791 -0.2575 -0.0512  0.0895
  256POPC   C3A 3620  10.632   5.111   6.152  0.1297  0.0200  0.1568
  256POPC   C4A 3621  10.726   5.305   6.519 -0.1481 -0.1383  0.2679
  256POPC   C1B 3622  10.010   5.633   5.753 -0.0540  0.0920 -0.0861
  256POPC   C2B 3623   9.759   5.494   6.106  0.1192 -0.2308 -0.3523
  256POPC   C3B 3624   9.518   5.499   6.465  0.2007 -0.0743  0.4000
  256POPC   C4B 3625   9.563   5.824   6.780 -0.1647  0.1317  0.1984
  257POPC   NC3 3626   2.014   1.841   4.897  0.3531 -0.0552  0.2309
  257POPC   PO4 3627   2.108   2.002   5.322  0.1148 -0.2489  0.3751
  257POPC   GL1 3628   1.846   2.016   5.678  0.0106 -0.2496  0.2574
  257POPC   GL2 3629   2.135   1.967   5.973  0.1909  0.1422 -0.2489
  257POPC   C1A 3630   1.783   2.292   5.901 -0.3225  0.0657  0.1326
  257POPC   D2A 3631   2.017   2.628   5.969  0.0755  0.2318 -0.0713
  257POPC   C3A 3632   2.084   2.767   6.394  0.1635  0.0213 -0.0312
  257POPC   C4A 3633   2.354   2.552   6.741  0.3204  0.1834 -0.1437
  257POPC   C1B 3634   2.032   1.839   6.319  0.0046 -0.1049  0.4006
  257POPC   C2B 3635   1.980   1.840   6.790  0.3183 -0.4013 -0.3312
  257POPC   C3B 3636   2.095   2.071   7.082  0.4739  0.0568  0.2088
  257POPC   C4B 3637   2.210   2.430   7.233 -0.1575 -0.1320  0.1587
  258POPC   NC3 3638   9.954   1.822   4.989 -0.2485 -0.1052  0.1018
  258POPC   PO4 3639   9.845   2.267   5.192 -0.3680 -0.1390 -0.2070
  258POPC   GL1 3640   9.829   2.411   5.621  0.0283 -0.0177  0.1048
  258POPC   GL2 3641   9.875   2.136   5.809 -0.0264 -0.2166  0.2388
  258POPC   C1A 3642   9.891   2.833   5.906 -0.3944 -0.1070  0.1535
  258POPC   D2A 3643  10.123   2.960   6.245 -0.1151  0.0282  0.0371
  258POPC   C3A 3644   9.972   3.203   6.593  0.0240  0.2153  0.1956
  258POPC   C4A 3645   9.903   3.363   6.945 -0.0739 -0.0573  0.2048
  258POPC   C1B 3646  10.150   2.359   6.056  0.2514  0.0124  0.2340
  258POPC   C2B 3647  10.139   2.438   6.406 -0.0388  0.0350 -0.2791
  258POPC   C3B 3648   9.793   2.485   6.676 -0.0399 -0.3074  0.0374
  258POPC   C4B 3649   9.633   2.413   7.099  0.1007 -0.1303 -0.0156
  259POPC   NC3 3650   7.354   6.484   4.949  0.0258 -0.2402 -0.0530
  259POPC   PO4 3651   7.533   6.888   4.784  0.0161  0.2382  0.0636
  259POPC   GL1 3652   7.273   7.035   5.149 -0.0789 -0.2080  0.6384
  259POPC   GL2 3653   7.205   7.252   5.493 -0.0780  0.0869  0.2013
  259POPC   C1A 3654   7.200   6.757   5.545  0.3807  0.0721  0.1679
  259POPC   D2A 3655   7.004   6.517   5.831  0.4528 -0.2608 -0.3388
  259POPC   C3A 3656   7.101   6.267   6.163  0.2696 -0.1614 -0.0835
  259POPC   C4A 3657   7.210   6.183   6.542  0.1162  0.0347  0.1527
  259POPC   C1B 3658   7.240   7.162   5.852  0.0186 -0.1010 -0.0916
  259POPC   C2B 3659   7.246   6.778   6.122 -0.3170  0.0880 -0.0614
  259POPC   C3B 3660   7.588   6.719   6.475  0.1927 -0.1396 -0.0109
  259POPC   C4B 3661   7.691   6.532   6.782  0.0284  0.0418 -0.1021
  260POPC   NC3 3662   5.447   7.488   3.726  0.0602  0.0283 -0.1541
  260POPC   PO4 3663   4.982   7.661   3.814 -0.3631  0.2298 -0.1652
  260POPC   GL1 3664   5.018   7.673   4.357  0.3762 -0.0701  0.1882
  260POPC   GL2 3665   4.930   7.962   4.543  0.4654 -0.1868  0.1875
  260POPC   C1A 3666   4.964   7.407   4.629 -0.2144  0.0859 -0.0207
  260POPC   D2A 3667   4.865   7.225   4.900  0.0106 -0.0568 -0.1082
  260POPC   C3A 3668   4.816   7.018   5.362 -0.1964 -0.3370 -0.0847
  260POPC   C4A 3669   4.883   6.842   5.756  0.0055 -0.0272 -0.0314
  260POPC   C1B 3670   4.729   7.979   4.924 -0.1893  0.0808 -0.2655
  260POPC   C2B 3671   4.412   8.045   5.190  0.2227  0.2478  0.1294
  260POPC   C3B 3672   3.980   8.023   5.366 -0.2220 -0.3224 -0.4929
  260POPC   C4B 3673   3.766   8.431   5.595 -0.2719  0.1690 -0.2725
  261POPC   NC3 3674   7.320   1.142   5.147  0.1118 -0.4353 -0.4715
  261POPC   PO4 3675   7.646   0.930   5.298  0.0753  0.0975 -0.2301
  261POPC   GL1 3676   7.432   0.774   5.630  0.1067 -0.3134 -0.0196
  261POPC   GL2 3677   7.170   0.552   5.557 -0.1681  0.0409  0.3023
  261POPC   C1A 3678   7.515   0.725   6.032  0.1488  0.2867 -0.1203
  261POPC   D2A 3679   7.442   0.695   6.385  0.2060 -0.0815  0.1049
  261POPC   C3A 3680   7.306   0.224   6.486 -0.1364  0.3072  0.0304
  261POPC   C4A 3681   7.051  -0.061   6.391 -0.0439  0.3737  0.3229
  261POPC   C1B 3682   7.136   0.365   5.994  0.0389  0.1570  0.1392
  261POPC   C2B 3683   6.810   0.416   6.282  0.2865 -0.3339  0.0025
  261POPC   C3B 3684   6.759   0.181   6.701  0.0603 -0.1355  0.1074
  261POPC   C4B 3685   6.690   0.065   7.173 -0.0783 -0.1746 -0.0544
  262POPC   NC3 3686   6.964   5.906   5.016  0.1825  0.0372 -0.0767
  262POPC   PO4 3687   6.609   5.549   5.055  0.3979  0.1151 -0.1021
  262POPC   GL1 3688   6.687   5.473   5.487  0.2151  0.2250  0.3638
  262POPC   GL2 3689   6.662   5.138   5.485 -0.1110  0.0205  0.1952
  262POPC   C1A 3690   6.929   5.376   5.837 -0.0902 -0.1584 -0.1113
  262POPC   D2A 3691   7.331   5.181   5.798  0.0853 -0.1173  0.3509
  262POPC   C3A 3692   7.695   4.922   6.014 -0.2106 -0.2765 -0.3723
  262POPC   C4A 3693   7.625   4.778   6.402  0.0004 -0.1850  0.2585
  262POPC   C1B 3694   6.470   5.118   5.851 -0.0944  0.1013 -0.0550
  262POPC   C2B 3695   6.455   4.918   6.114  0.0425 -0.0246  0.2924
  262POPC   C3B 3696   6.284   5.016   6.506 -0.2294  0.0649  0.0032
  262POPC   C4B 3697   6.153   5.100   6.902 -0.4013 -0.0779 -0.1296
  263POPC   NC3 3698   2.297   5.807   3.852 -0.0209  0.2749 -0.2248
  263POPC   PO4 3699   2.785   5.865   3.774  0.1655  0.2137  0.0692
  263POPC   GL1 3700   2.700   5.838   4.220 -0.0326 -0.1535 -0.1280
  263POPC   GL2 3701   2.961   5.662   4.337 -0.0103 -0.0081 -0.3411
  263POPC   C1A 3702   2.807   6.118   4.608 -0.2041 -0.1144 -0.0053
  263POPC   D2A 3703   2.768   6.456   4.973  0.3743 -0.2397 -0.2266
  263POPC   C3A 3704   2.505   6.407   5.245  0.0206 -0.2234  0.3196
  263POPC   C4A 3705   2.421   6.389   5.648  0.0769  0.1501 -0.0461
  263POPC   C1B 3706   2.955   5.580   4.775  0.4426  0.2652 -0.3714
  263POPC   C2B 3707   3.089   5.602   5.153 -0.1721  0.3365 -0.1563
  263POPC   C3B 3708   3.222   5.768   5.666 -0.0106  0.1292 -0.0612
  263POPC   C4B 3709   3.637   5.555   5.719  0.0277 -0.1595  0.1748
  264POPC   NC3 3710   3.130   6.637   3.226  0.1870  0.0279  0.1863
  264POPC   PO4 3711   3.195   6.724   3.571  0.2170 -0.2500  0.0754
  264POPC   GL1 3712   3.067   6.963   3.867  0.1171 -0.1783 -0.2863
  264POPC   GL2 3713   2.847   7.052   4.101  0.2420  0.5403 -0.1483
  264POPC   C1A 3714   3.323   7.171   4.189 -0.0738 -0.0018  0.1193
  264POPC   D2A 3715   3.809   6.983   4.353  0.0172  0.0358  0.0886
  264POPC   C3A 3716   3.729   6.954   4.658 -0.1306  0.1697 -0.0012
  264POPC   C4A 3717   3.254   6.811   4.909 -0.1142 -0.0914 -0.0012
  264POPC   C1B 3718   2.782   7.293   4.438 -0.0131  0.0558  0.2974
  264POPC   C2B 3719   2.475   7.426   4.647  0.0924  0.1819 -0.5165
  264POPC   C3B 3720   2.434   7.520   5.112  0.1766  0.2022 -0.0566
  264POPC   C4B 3721   2.325   7.560   5.529  0.1025 -0.0975 -0.1524
  265POPC   NC3 3722   5.374   2.008   5.361 -0.1139  0.2844  0.0384
  265POPC   PO4 3723   5.033   2.271   5.285  0.0404 -0.0663  0.0222
  265POPC   GL1 3724   5.083   2.423   5.747 -0.0281  0.3123 -0.0401
  265POPC   GL2 3725   5.392   2.610   5.914  0.1285 -0.2562  0.1372
  265POPC   C1A 3726   5.005   2.417   6.184 -0.0410  0.1099  0.3295
  265POPC   D2A 3727   4.734   2.351   6.432 -0.3277  0.3425  0.0074
  265POPC   C3A 3728   4.786   2.526   6.884  0.5662 -0.1371 -0.1341
  265POPC   C4A 3729   5.120   2.600   7.207 -0.0309 -0.3491  0.2352
  265POPC   C1B 3730   5.629   2.760   6.232  0.1310 -0.0434  0.1302
  265POPC   C2B 3731   5.626   3.129   6.535 -0.2549  0.0801 -0.4490
  265POPC   C3B 3732   5.768   3.310   6.957  0.0141 -0.4707 -0.2649
  265POPC   C4B 3733   5.842   3.073   7.327  0.0279  0.0075 -0.1534
  266POPC   NC3 3734   2.524   4.466   4.627  0.1601 -0.0723 -0.2603
  266POPC   PO4 3735   2.094   4.368   4.779  0.2637  0.0704 -0.0145
  266POPC   GL1 3736   2.164   4.439   5.228  0.0368  0.2669 -0.0975
  266POPC   GL2 3737   2.085   4.177   5.379 -0.0003  0.0490 -0.1027
  266POPC   C1A 3738   2.252   4.567   5.653  0.2988  0.0884 -0.0120
  266POPC   D2A 3739   2.685   4.873   5.742  0.1978 -0.3966  0.0662
  266POPC   C3A 3740   2.543   5.276   5.747  0.1705  0.1490  0.1202
  266POPC   C4A 3741   2.525   5.623   5.913  0.1565 -0.1884 -0.1692
  266POPC   C1B 3742   2.121   4.085   5.878 -0.1287 -0.1242 -0.1921
  266POPC   C2B 3743   1.949   4.133   6.367  0.0895  0.0480 -0.1698
  266POPC   C3B 3744   1.857   3.967   6.778  0.0095 -0.3479  0.1415
  266POPC   C4B 3745   1.967   4.236   7.049  0.0240  0.2170 -0.1644
  267POPC   NC3 3746   3.212   3.348   5.557  0.2360  0.4353 -0.2102
  267POPC   PO4 3747   2.951   3.625   5.549  0.0659 -0.1658 -0.0876
  267POPC   GL1 3748   2.907   3.830   5.949 -0.2903 -0.2377  0.0743
  267POPC   GL2 3749   3.070   3.666   6.093  0.0984 -0.1986  0.1519
  267POPC   C1A 3750   3.108   4.182   6.160 -0.4432 -0.1066 -0.2077
  267POPC   D2A 3751   3.626   4.178   6.465 -0.0221  0.0443  0.2278
  267POPC   C3A 3752   3.693   4.459   6.671  0.1239 -0.3058 -0.3660
  267POPC   C4A 3753   3.872   4.623   7.093  0.1105 -0.1458  0.2146
  267POPC   C1B 3754   3.496   3.579   6.293 -0.0548  0.2794 -0.0553
  267POPC   C2B 3755   3.668   3.693   6.695 -0.1402 -0.0829 -0.0048
  267POPC   C3B 3756   3.929   3.445   7.066 -0.1393  0.0068 -0.1270
  267POPC   C4B 3757   3.895   3.251   7.379  0.1463  0.4598  0.0525
  268POPC   NC3 3758   1.646   0.860   5.175  0.2144 -0.1858  0.0042
  268POPC   PO4 3759   1.304   0.621   5.327  0.0749 -0.1318  0.0529
  268POPC   GL1 3760   1.512   0.490   5.608  0.2487 -0.1082  0.2455
  268POPC   GL2 3761   1.710   0.538   5.961  0.4456 -0.0954  0.0508
  268POPC   C1A 3762   1.566   0.059   5.768  0.2154 -0.1435 -0.0597
  268POPC   D2A 3763   1.683  -0.240   6.154 -0.0729 -0.1312  0.0812
  268POPC   C3A 3764   1.885  -0.182   6.580 -0.3422 -0.2143 -0.0481
  268POPC   C4A 3765   1.803  -0.185   7.052 -0.2943  0.0328 -0.0824
  268POPC   C1B 3766   1.885   0.270   6.294 -0.0219 -0.0758  0.1112
  268POPC   C2B 3767   1.871   0.292   6.865  0.0159  0.0290  0.1399
  268POPC   C3B 3768   2.085   0.281   7.262  0.1433  0.0685 -0.1911
  268POPC   C4B 3769   2.523   0.169   7.457 -0.1251  0.1536 -0.0059
  269POPC   NC3 3770   5.972   0.707   5.041 -0.1359  0.0133 -0.5134
  269POPC   PO4 3771   6.337   0.529   5.067 -0.2055  0.1216 -0.0409
  269POPC   GL1 3772   6.469   0.441   5.446  0.0783 -0.0062  0.0008
  269POPC   GL2 3773   6.784   0.270   5.584  0.2248  0.0010  0.0440
  269POPC   C1A 3774   6.358   0.523   5.939  0.1447 -0.0659 -0.2272
  269POPC   D2A 3775   6.306   0.487   6.386 -0.1090  0.0018 -0.3216
  269POPC   C3A 3776   6.194   0.825   6.594  0.1094 -0.2176 -0.0546
  269POPC   C4A 3777   6.159   1.298   6.581 -0.2381  0.3078 -0.0679
  269POPC   C1B 3778   6.646   0.069   5.968  0.3334 -0.2222 -0.1467
  269POPC   C2B 3779   6.483  -0.014   6.296 -0.1944 -0.1998 -0.0307
  269POPC   C3B 3780   6.235   0.025   6.622  0.2342  0.1972 -0.0041
  269POPC   C4B 3781   6.086   0.382   6.831 -0.2261 -0.3383  0.2943
  270POPC   NC3 3782   3.300   2.340   5.692  0.1117  0.1139  0.0567
  270POPC   PO4 3783   2.926   2.472   5.567  0.2672  0.3842 -0.0884
  270POPC   GL1 3784   2.737   2.380   5.963  0.1944  0.2048  0.1612
  270POPC   GL2 3785   2.995   2.649   6.144 -0.0012  0.1579  0.1293
  270POPC   C1A 3786   2.362   2.373   6.246  0.0821  0.1296 -0.3700
  270POPC   D2A 3787   2.041   2.248   6.555  0.0639  0.4299  0.2914
  270POPC   C3A 3788   1.712   2.480   6.363  0.1940  0.1791  0.0556
  270POPC   C4A 3789   1.471   2.838   6.544 -0.1315 -0.0230  0.2169
  270POPC   C1B 3790   2.856   2.472   6.573 -0.1194 -0.2839 -0.0325
  270POPC   C2B 3791   2.894   2.623   6.991 -0.0477 -0.1821 -0.1992
  270POPC   C3B 3792   2.565   2.815   7.168 -0.6531 -0.0641  0.1397
  270POPC   C4B 3793   2.227   3.014   6.985  0.4112  0.0135  0.2532
  271POPC   NC3 3794   5.922   7.319   4.449  0.0194  0.1583  0.0117
  271POPC   PO4 3795   5.922   7.705   4.279 -0.0735  0.4062 -0.0333
  271POPC   GL1 3796   5.770   7.730   4.717  0.3797 -0.1805 -0.2274
  271POPC   GL2 3797   5.396   7.796   4.679  0.0016  0.4102  0.3629
  271POPC   C1A 3798   5.828   7.356   5.096 -0.3659  0.1434  0.0991
  271POPC   D2A 3799   5.812   7.199   5.518  0.2765 -0.0177 -0.0050
  271POPC   C3A 3800   6.018   6.843   5.692  0.1080 -0.0724  0.0921
  271POPC   C4A 3801   6.231   6.754   6.018 -0.0942  0.1833  0.0407
  271POPC   C1B 3802   5.137   7.709   4.992  0.1499  0.0776  0.1304
  271POPC   C2B 3803   4.780   7.574   5.277  0.0186  0.0414  0.1738
  271POPC   C3B 3804   4.739   7.528   5.668  0.0693  0.0860  0.1625
  271POPC   C4B 3805   4.322   7.592   5.536  0.0220 -0.1227 -0.0252
  272POPC   NC3 3806   9.599   8.110   4.524  0.2422 -0.0793 -0.2387
  272POPC   PO4 3807   9.978   8.298   4.714 -0.0849  0.4626 -0.3473
  272POPC   GL1 3808  10.117   8.379   5.201  0.1262  0.1911 -0.0756
  272POPC   GL2 3809  10.243   8.645   5.169  0.0184 -0.0750  0.1020
  272POPC   C1A 3810   9.897   8.117   5.459  0.2508  0.1206  0.0855
  272POPC   D2A 3811   9.487   8.080   5.708 -0.0970 -0.0483  0.2922
  272POPC   C3A 3812   9.483   8.043   6.165 -0.2353 -0.1565 -0.1216
  272POPC   C4A 3813   9.323   7.973   6.689 -0.5017  0.1130 -0.2222
  272POPC   C1B 3814  10.609   8.533   5.446  0.0223  0.1905  0.1010
  272POPC   C2B 3815  10.935   8.560   5.770  0.1603 -0.1787  0.0264
  272POPC   C3B 3816  11.139   8.664   6.116 -0.3645  0.1201  0.0433
  272POPC   C4B 3817  11.581   8.792   6.308  0.1249  0.2614  0.1043
  273POPC   NC3 3818  10.047   7.446   4.727 -0.2342  0.2210 -0.1718
  273POPC   PO4 3819   9.692   7.284   4.869 -0.4068 -0.0711 -0.2038
  273POPC   GL1 3820   9.785   7.299   5.288 -0.2551  0.3713  0.3336
  273POPC   GL2 3821   9.829   7.009   5.428 -0.0111  0.1173  0.4742
  273POPC   C1A 3822   9.866   7.604   5.574 -0.0791  0.2218  0.3189
  273POPC   D2A 3823   9.955   7.846   5.929 -0.4259  0.0532  0.0649
  273POPC   C3A 3824   9.923   7.541   6.205 -0.1651  0.0504  0.1111
  273POPC   C4A 3825   9.673   7.192   6.424 -0.1348 -0.2877 -0.1409
  273POPC   C1B 3826  10.014   6.605   5.778 -0.3407  0.0499 -0.2422
  273POPC   C2B 3827  10.257   6.612   6.185 -0.2247  0.2244  0.3071
  273POPC   C3B 3828  10.312   6.366   6.466 -0.1411  0.1441  0.1987
  273POPC   C4B 3829  10.581   5.818   6.498 -0.1575 -0.0949 -0.0580
  274POPC   NC3 3830   0.688   1.125   4.833 -0.3600 -0.2803 -0.1506
  274POPC   PO4 3831   0.421   0.862   5.190  0.3022 -0.3270 -0.1571
  274POPC   GL1 3832   0.341   0.734   5.615 -0.0990  0.0046  0.1386
  274POPC   GL2 3833   0.405   1.127   5.782  0.3049  0.0467 -0.0276
  274POPC   C1A 3834   0.065   0.765   5.968  0.0270  0.0310 -0.0023
  274POPC   D2A 3835   0.009   0.733   6.388  0.2537  0.2836 -0.2156
  274POPC   C3A 3836  -0.130   0.464   6.687  0.2329 -0.0474 -0.0437
  274POPC   C4A 3837   0.072   0.343   7.072  0.0683 -0.1969  0.0431
  274POPC   C1B 3838   0.384   1.098   6.244  0.0983 -0.2103 -0.0387
  274POPC   C2B 3839   0.373   0.984   6.618  0.2274  0.0906  0.1055
  274POPC   C3B 3840   0.454   0.761   6.966  0.2402  0.0657  0.0017
  274POPC   C4B 3841   0.564   0.455   7.351 -0.2092  0.2418 -0.0792
  275POPC   NC3 3842   9.566   0.005   4.965 -0.2239 -0.0918 -0.1156
  275POPC   PO4 3843   9.454  -0.024   5.397 -0.0985  0.0466 -0.1141
  275POPC   GL1 3844   9.428  -0.230   5.727 -0.1176 -0.1292 -0.0679
  275POPC   GL2 3845   9.659  -0.449   5.823  0.0471  0.0537 -0.0432
  275POPC   C1A 3846   9.233  -0.305   6.041  0.1381 -0.2594 -0.2691
  275POPC   D2A 3847   9.030  -0.566   6.412  0.1278  0.1092 -0.0769
  275POPC   C3A 3848   9.368  -0.798   6.283  0.3386 -0.0918 -0.2169
  275POPC   C4A 3849   9.603  -1.046   6.044  0.2537  0.0399 -0.1587
  275POPC   C1B 3850   9.890  -0.626   6.215 -0.0679  0.2234 -0.0748
  275POPC   C2B 3851   9.802  -1.038   6.510  0.0564 -0.2483 -0.1956
  275POPC   C3B 3852   9.403  -1.118   6.695  0.0437  0.3056 -0.0814
  275POPC   C4B 3853   8.988  -0.989   6.672  0.0338  0.0576 -0.2507
  276POPC   NC3 3854   9.186   3.249   4.755 -0.2188 -0.0049 -0.1447
  276POPC   PO4 3855   9.325   2.956   5.027  0.2743 -0.1581  0.0379
  276POPC   GL1 3856   9.305   3.006   5.477  0.3312 -0.3875 -0.2505
  276POPC   GL2 3857   9.363   2.784   5.767  0.2055 -0.1823  0.1126
  276POPC   C1A 3858   9.619   3.256   5.622  0.2035  0.1044 -0.0622
  276POPC   D2A 3859  10.054   3.329   5.851  0.1467  0.2719  0.1278
  276POPC   C3A 3860  10.312   3.403   6.181 -0.0910 -0.3078  0.0250
  276POPC   C4A 3861  10.378   3.456   6.580  0.0612 -0.0661 -0.0150
  276POPC   C1B 3862   9.569   2.498   6.055 -0.1447 -0.1517  0.0379
  276POPC   C2B 3863   9.675   2.170   6.366  0.0995 -0.3770  0.2454
  276POPC   C3B 3864   9.838   2.010   6.724 -0.1354  0.0754  0.2767
  276POPC   C4B 3865  10.069   1.663   7.033  0.1824  0.3967  0.1455
  277POPC   NC3 3866   4.687   6.743   4.007  0.1783  0.0399  0.3993
  277POPC   PO4 3867   5.132   6.836   4.289 -0.3586  0.1372  0.1629
  277POPC   GL1 3868   5.008   6.890   4.522  0.1728  0.1004  0.0486
  277POPC   GL2 3869   4.747   6.561   4.515 -0.0400  0.0124  0.0007
  277POPC   C1A 3870   5.168   6.822   4.926 -0.1193 -0.1921  0.0047
  277POPC   D2A 3871   5.280   6.484   5.172 -0.1230  0.1144  0.1409
  277POPC   C3A 3872   5.390   6.084   5.449  0.1076 -0.0145  0.0961
  277POPC   C4A 3873   5.341   5.613   5.354  0.0630  0.1259 -0.0948
  277POPC   C1B 3874   4.521   6.967   4.576 -0.1090  0.1666  0.1108
  277POPC   C2B 3875   4.146   7.170   4.666 -0.0540  0.0652  0.0757
  277POPC   C3B 3876   3.902   7.346   4.952  0.1410 -0.1847 -0.0363
  277POPC   C4B 3877   3.802   7.550   5.402 -0.2414  0.3016 -0.4458
  278POPC   NC3 3878   9.656   0.862   5.518  0.1858  0.1596  0.0011
  278POPC   PO4 3879   9.595   0.463   5.253  0.0151 -0.0304  0.1087
  278POPC   GL1 3880   9.369   0.428   5.573  0.0851 -0.1796  0.1012
  278POPC   GL2 3881   9.369   0.646   5.877  0.0205 -0.0898  0.2152
  278POPC   C1A 3882   9.386   0.186   6.042  0.0056 -0.1107 -0.0273
  278POPC   D2A 3883   9.163   0.040   6.363 -0.1966  0.1568  0.0283
  278POPC   C3A 3884   9.282  -0.048   6.738 -0.0041 -0.0584 -0.0931
  278POPC   C4A 3885   9.677  -0.160   6.883  0.2328 -0.0112 -0.1547
  278POPC   C1B 3886   9.225   0.569   6.295 -0.0112  0.2081 -0.1996
  278POPC   C2B 3887   9.259   0.466   6.667 -0.0159  0.0363 -0.2255
  278POPC   C3B 3888   9.232   0.328   7.020 -0.1690  0.1845 -0.5359
  278POPC   C4B 3889   9.154  -0.050   7.218 -0.0640 -0.0707 -0.1548
  279POPC   NC3 3890   3.253   4.933   4.167 -0.4167 -0.1179 -0.2254
  279POPC   PO4 3891   2.958   4.479   4.294 -0.0362 -0.1406  0.0157
  279POPC   GL1 3892   2.899   4.806   4.585  0.0271 -0.1514  0.0563
  279POPC   GL2 3893   3.242   4.759   4.780 -0.2750  0.0974 -0.0704
  279POPC   C1A 3894   2.807   5.119   4.866 -0.0508 -0.3690  0.3140
  279POPC   D2A 3895   2.497   5.383   4.643  0.3655 -0.1722  0.1581
  279POPC   C3A 3896   2.400   5.772   4.789  0.2872  0.1666 -0.1238
  279POPC   C4A 3897   2.581   5.950   5.023 -0.2239 -0.1522 -0.2100
  279POPC   C1B 3898   3.047   4.795   5.130 -0.1588  0.1629 -0.1527
  279POPC   C2B 3899   2.813   5.096   5.335  0.0649  0.0622 -0.1263
  279POPC   C3B 3900   2.763   5.641   5.471  0.1505 -0.0369 -0.1486
  279POPC   C4B 3901   2.749   6.039   5.758 -0.0368 -0.1183 -0.1745
  280POPC   NC3 3902   1.759   9.488   4.042 -0.5531  0.1948  0.1525
  280POPC   PO4 3903   2.066   9.355   4.463 -0.0315  0.0052 -0.1606
  280POPC   GL1 3904   2.073   9.243   4.915 -0.0199  0.0030  0.1987
  280POPC   GL2 3905   1.700   9.123   4.970 -0.0193 -0.0306  0.0579
  280POPC   C1A 3906   2.156   8.787   5.159  0.1807  0.2974  0.1270
  280POPC   D2A 3907   2.446   8.556   5.468 -0.0798  0.4659  0.2138
  280POPC   C3A 3908   2.793   8.582   5.329  0.0084  0.1826  0.0444
  280POPC   C4A 3909   3.280   8.581   5.300 -0.0036 -0.1314 -0.0140
  280POPC   C1B 3910   1.918   9.211   5.391 -0.1218  0.0293 -0.1270
  280POPC   C2B 3911   2.106   9.369   5.833  0.1202  0.0243  0.1690
  280POPC   C3B 3912   2.103   9.671   6.165  0.0109  0.1405 -0.0011
  280POPC   C4B 3913   2.288  10.066   6.308 -0.1983  0.2618  0.0581
  281POPC   NC3 3914   3.157   8.358   3.805  0.1449  0.1030 -0.1410
  281POPC   PO4 3915   2.833   8.641   3.983  0.1180 -0.0682  0.6428
  281POPC   GL1 3916   2.840   8.746   4.382  0.0647 -0.2105  0.0659
  281POPC   GL2 3917   2.564   8.576   4.446 -0.1970 -0.3382  0.0153
  281POPC   C1A 3918   2.845   8.575   4.814 -0.0688 -0.2459 -0.2783
  281POPC   D2A 3919   3.006   8.185   5.032 -0.1202  0.0136  0.1115
  281POPC   C3A 3920   3.034   8.171   5.545  0.0870  0.1440  0.1326
  281POPC   C4A 3921   3.129   8.070   6.056 -0.0185 -0.3792  0.0001
  281POPC   C1B 3922   2.679   8.153   4.649  0.1417 -0.1843  0.1127
  281POPC   C2B 3923   2.717   7.878   4.828 -0.0537 -0.2079 -0.1414
  281POPC   C3B 3924   2.810   7.822   5.317  0.0617  0.0745  0.0622
  281POPC   C4B 3925   3.077   7.694   5.703  0.1693  0.1967 -0.2037
  282POPC   NC3 3926   0.524   7.247   4.195 -0.3151  0.1600  0.0519
  282POPC   PO4 3927   0.358   7.335   4.612  0.0447 -0.2435 -0.0015
  282POPC   GL1 3928   0.229   6.992   4.862  0.0631  0.1006  0.1022
  282POPC   GL2 3929   0.112   7.259   5.068 -0.0420  0.3016  0.2544
  282POPC   C1A 3930   0.102   6.811   5.357  0.0937 -0.1959  0.1452
  282POPC   D2A 3931   0.371   6.909   5.730  0.1466  0.0050 -0.0189
  282POPC   C3A 3932   0.817   7.054   5.710 -0.0215  0.0083  0.1827
  282POPC   C4A 3933   1.114   6.731   5.837 -0.0546 -0.0302 -0.1011
  282POPC   C1B 3934   0.297   7.290   5.441 -0.2011 -0.3113  0.0509
  282POPC   C2B 3935   0.628   7.459   5.607  0.2385 -0.0067  0.2184
  282POPC   C3B 3936   1.037   7.517   5.465  0.1728 -0.0334  0.0023
  282POPC   C4B 3937   1.354   7.764   5.311 -0.2083  0.4159  0.3521
  283POPC   NC3 3938   9.362   1.654   5.065  0.0824 -0.1425  0.1976
  283POPC   PO4 3939   9.783   1.402   5.257 -0.2998  0.3857 -0.0863
  283POPC   GL1 3940   9.850   1.338   5.672 -0.1749 -0.0446  0.2751
  283POPC   GL2 3941   9.814   1.561   5.822  0.3150 -0.1039  0.0673
  283POPC   C1A 3942  10.097   1.229   6.126  0.0550  0.1709  0.0232
  283POPC   D2A 3943  10.113   1.277   6.651  0.1254 -0.1155  0.1804
  283POPC   C3A 3944  10.159   0.998   6.934  0.0764  0.1017  0.2959
  283POPC   C4A 3945   9.951   0.748   7.216 -0.0903 -0.0949  0.0531
  283POPC   C1B 3946   9.471   1.862   6.007  0.3842  0.2419  0.3919
  283POPC   C2B 3947   9.305   1.808   6.492 -0.2719  0.1811  0.0519
  283POPC   C3B 3948   9.460   1.728   6.889 -0.0526  0.1183 -0.0336
  283POPC   C4B 3949   9.630   1.800   7.212 -0.2017 -0.1017  0.1600
  284POPC   NC3 3950   1.272   2.846   4.900 -0.0256  0.0499  0.2022
  284POPC   PO4 3951   1.526   2.754   5.218  0.0025 -0.1210 -0.0232
  284POPC   GL1 3952   1.511   2.573   5.595  0.0646 -0.0562  0.0982
  284POPC   GL2 3953   1.287   2.262   5.721  0.0659  0.2056 -0.2972
  284POPC   C1A 3954   1.555   2.820   6.007 -0.0411  0.2425  0.2409
  284POPC   D2A 3955   1.703   3.143   6.288  0.0499 -0.1101  0.1187
  284POPC   C3A 3956   1.477   3.345   6.566 -0.0974  0.4751  0.0628
  284POPC   C4A 3957   1.469   3.688   6.805  0.3237 -0.2430 -0.1578
  284POPC   C1B 3958   1.260   2.384   6.150 -0.1994 -0.2010 -0.2334
  284POPC   C2B 3959   1.119   2.498   6.497  0.1016 -0.1168 -0.1402
  284POPC   C3B 3960   0.987   2.240   6.815  0.0211 -0.0476 -0.0402
  284POPC   C4B 3961   0.889   2.309   7.291 -0.1144  0.1679 -0.2071
  285POPC   NC3 3962   7.607   3.907   5.215 -0.1201 -0.2776 -0.0374
  285POPC   PO4 3963   7.848   3.552   5.309 -0.0162  0.1339 -0.0681
  285POPC   GL1 3964   7.578   3.624   5.623 -0.1048 -0.1322  0.1219
  285POPC   GL2 3965   7.621   3.896   5.794  0.2676 -0.0254 -0.2984
  285POPC   C1A 3966   7.264   3.589   5.980  0.1479 -0.1387 -0.0391
  285POPC   D2A 3967   6.978   3.673   6.449  0.3132  0.0324 -0.1452
  285POPC   C3A 3968   7.083   3.902   6.817  0.2913 -0.0154  0.3593
  285POPC   C4A 3969   7.245   4.219   7.049  0.0293  0.1276  0.1253
  285POPC   C1B 3970   7.900   3.948   6.092 -0.3408  0.0394  0.0290
  285POPC   C2B 3971   7.918   3.919   6.479  0.3562 -0.3510 -0.0806
  285POPC   C3B 3972   7.976   3.678   6.790 -0.2530 -0.2345  0.1103
  285POPC   C4B 3973   8.364   3.304   6.823  0.1388 -0.1136 -0.0188
  286POPC   NC3 3974   8.991   9.098   4.860 -0.1118 -0.4488  0.1022
  286POPC   PO4 3975   8.971   9.483   5.225  0.3911  0.0442 -0.0265
  286POPC   GL1 3976   9.147   9.313   5.536  0.1385 -0.0077 -0.0119
  286POPC   GL2 3977   9.251   9.461   5.809 -0.1683  0.1619 -0.1133
  286POPC   C1A 3978   9.015   8.823   5.805 -0.1931 -0.2176  0.0009
  286POPC   D2A 3979   9.132   8.376   6.032 -0.0053 -0.1297 -0.0311
  286POPC   C3A 3980   9.175   8.394   6.422 -0.1483  0.0578  0.1226
  286POPC   C4A 3981   9.095   8.599   6.662  0.0926  0.2861  0.1101
  286POPC   C1B 3982   8.892   9.303   6.065  0.1031 -0.0622 -0.1448
  286POPC   C2B 3983   8.523   9.373   6.263  0.2772  0.1226  0.1057
  286POPC   C3B 3984   8.115   9.396   6.481 -0.2028  0.1765  0.0042
  286POPC   C4B 3985   7.844   9.294   6.812 -0.2466  0.2663  0.0461
  287POPC   NC3 3986   9.062   2.140   5.241 -0.1594  0.0859 -0.1485
  287POPC   PO4 3987   9.058   1.939   5.489  0.3528  0.0628 -0.2825
  287POPC   GL1 3988   8.854   2.122   5.834  0.0630  0.0758  0.1445
  287POPC   GL2 3989   8.660   2.373   5.639 -0.1260 -0.0895 -0.2455
  287POPC   C1A 3990   9.002   2.156   6.241 -0.2365 -0.0675 -0.3245
  287POPC   D2A 3991   9.258   2.452   6.555 -0.0260 -0.0243 -0.0919
  287POPC   C3A 3992   9.060   2.672   6.908  0.0303 -0.1582  0.0264
  287POPC   C4A 3993   8.789   2.535   7.248  0.1927 -0.3469 -0.1508
  287POPC   C1B 3994   8.863   2.664   5.913  0.1840 -0.1033 -0.1785
  287POPC   C2B 3995   9.141   2.794   6.249 -0.1202 -0.0393 -0.0701
  287POPC   C3B 3996   9.176   3.029   6.579  0.5058  0.3210 -0.1746
  287POPC   C4B 3997   9.446   3.358   6.708  0.2102 -0.2036  0.0412
  288POPC   NC3 3998   2.000   3.860   4.968  0.2474  0.0165  0.0993
  288POPC   PO4 3999   2.159   3.379   4.923 -0.2904  0.0979 -0.0588
  288POPC   GL1 4000   2.005   3.469   5.369 -0.0858  0.0401  0.1744
  288POPC   GL2 4001   1.686   3.677   5.320 -0.3370  0.1400 -0.4520
  288POPC   C1A 4002   1.873   3.653   5.823  0.1187  0.2111  0.2124
  288POPC   D2A 4003   1.695   3.703   6.215 -0.1747 -0.1301 -0.1260
  288POPC   C3A 4004   1.265   3.634   6.202  0.1635  0.1309 -0.1807
  288POPC   C4A 4005   1.238   3.258   6.072  0.1106  0.0653  0.1244
  288POPC   C1B 4006   1.654   4.101   5.610 -0.1051 -0.1825  0.0523
  288POPC   C2B 4007   1.479   4.172   5.924  0.1243  0.0068 -0.1474
  288POPC   C3B 4008   1.383   4.082   6.476  0.0319  0.1144 -0.0456
  288POPC   C4B 4009   1.444   4.205   6.890  0.0147  0.1932 -0.1932
  289POPC   NC3 4010   8.484   9.125   5.030  0.0797 -0.1442  0.4417
  289POPC   PO4 4011   7.981   9.065   5.037 -0.0836 -0.4787  0.0259
  289POPC   GL1 4012   8.075   9.287   5.351 -0.3403  0.1060  0.3930
  289POPC   GL2 4013   8.191   9.048   5.541  0.2510  0.0119 -0.0984
  289POPC   C1A 4014   7.715   9.486   5.617  0.1145 -0.1039 -0.0442
  289POPC   D2A 4015   7.749   9.618   5.993  0.4132 -0.3335  0.1332
  289POPC   C3A 4016   7.601   9.339   6.317 -0.1136  0.1383 -0.1242
  289POPC   C4A 4017   7.618   8.936   6.532 -0.3345 -0.2160 -0.1555
  289POPC   C1B 4018   8.509   8.975   5.900 -0.0848 -0.1560 -0.1252
  289POPC   C2B 4019   8.715   8.857   6.232  0.2794 -0.1303 -0.2386
  289POPC   C3B 4020   9.157   8.913   6.244  0.0945 -0.0178 -0.2416
  289POPC   C4B 4021   9.566   8.720   6.376  0.1878  0.1144 -0.0746
  290POPC   NC3 4022   6.561   0.064   5.134 -0.2208 -0.1112 -0.1285
  290POPC   PO4 4023   6.358  -0.387   5.260  0.1006 -0.1535 -0.2497
  290POPC   GL1 4024   6.245  -0.502   5.683  0.2982 -0.1562  0.0038
  290POPC   GL2 4025   5.906  -0.598   5.821  0.0146  0.4523 -0.2290
  290POPC   C1A 4026   6.185  -0.331   6.167  0.1793 -0.0933  0.0437
  290POPC   D2A 4027   6.208  -0.534   6.596  0.2384  0.0796 -0.0808
  290POPC   C3A 4028   6.042  -0.363   6.940  0.0497  0.2662  0.0048
  290POPC   C4A 4029   5.847  -0.272   7.271 -0.2038 -0.0174 -0.0596
  290POPC   C1B 4030   5.856  -0.705   6.282  0.3033 -0.1485  0.0825
  290POPC   C2B 4031   5.747  -0.739   6.698  0.0673 -0.1286  0.0298
  290POPC   C3B 4032   5.736  -0.818   7.157 -0.3277  0.3625 -0.2752
  290POPC   C4B 4033   6.014  -1.027   7.443  0.0168  0.2958  0.2115
  291POPC   NC3 4034   6.331   2.492   5.578  0.0031 -0.0703  0.1341
  291POPC   PO4 4035   5.960   2.677   5.497  0.0616  0.0733  0.1167
  291POPC   GL1 4036   5.884   2.599   5.880 -0.2556  0.0306  0.0154
  291POPC   GL2 4037   6.248   2.343   6.020  0.1603  0.2896 -0.1360
  291POPC   C1A 4038   6.107   2.731   6.316 -0.0719 -0.1530  0.5666
  291POPC   D2A 4039   6.088   2.699   6.775  0.4201  0.4319 -0.2486
  291POPC   C3A 4040   6.364   2.388   6.937 -0.3993  0.1206  0.0293
  291POPC   C4A 4041   6.574   1.893   6.982 -0.1463 -0.1830 -0.1240
  291POPC   C1B 4042   5.939   2.236   6.359  0.0678  0.2055  0.1780
  291POPC   C2B 4043   5.889   2.279   6.781  0.2641 -0.2019  0.0714
  291POPC   C3B 4044   5.930   2.458   7.222  0.0562 -0.0455  0.2214
  291POPC   C4B 4045   5.896   2.629   7.508  0.2076  0.5392 -0.0030
  292POPC   NC3 4046   5.690   6.549   4.369  0.2930  0.0597 -0.3149
  292POPC   PO4 4047   5.616   6.903   4.468  0.1818 -0.1157  0.2269
  292POPC   GL1 4048   5.612   7.129   4.778  0.3482  0.3392  0.0183
  292POPC   GL2 4049   5.398   7.349   4.808  0.2311  0.4040  0.2028
  292POPC   C1A 4050   5.700   6.875   5.155 -0.3415 -0.0272 -0.0449
  292POPC   D2A 4051   5.410   6.842   5.454  0.0358 -0.1122  0.1847
  292POPC   C3A 4052   5.459   6.814   5.812  0.0443  0.0063 -0.6279
  292POPC   C4A 4053   5.682   7.104   6.079  0.1397  0.0452 -0.0365
  292POPC   C1B 4054   5.310   7.286   5.248  0.0275  0.0816  0.0353
  292POPC   C2B 4055   5.198   7.235   5.670 -0.0641 -0.0012 -0.3066
  292POPC   C3B 4056   5.310   7.563   5.932  0.3191  0.2561  0.1343
  292POPC   C4B 4057   5.678   7.842   5.786  0.1121  0.0359  0.3326
  293POPC   NC3 4058   1.066   9.964   4.782 -0.0869  0.0100 -0.1076
  293POPC   PO4 4059   0.804  10.006   5.246  0.0820 -0.2209 -0.0412
  293POPC   GL1 4060   0.636   9.935   5.543 -0.1574  0.0032  0.1569
  293POPC   GL2 4061   0.890   9.810   5.702  0.0347 -0.0098 -0.3274
  293POPC   C1A 4062   0.579  10.099   6.022 -0.1268 -0.1472  0.0132
  293POPC   D2A 4063   0.469  10.121   6.438 -0.0677 -0.0481  0.0709
  293POPC   C3A 4064   0.876  10.024   6.545  0.1906 -0.1320 -0.1675
  293POPC   C4A 4065   1.315   9.967   6.426  0.1384  0.3374  0.0319
  293POPC   C1B 4066   1.084  10.042   5.961 -0.1484  0.0053  0.1747
  293POPC   C2B 4067   1.307  10.438   6.131  0.1627 -0.1489  0.0951
  293POPC   C3B 4068   1.518  10.387   6.568 -0.3124  0.2694  0.0871
  293POPC   C4B 4069   1.352  10.123   6.886  0.0606  0.1322  0.1342
  294POPC   NC3 4070   6.775   4.165   5.351  0.0886  0.0187  0.1907
  294POPC   PO4 4071   6.703   3.694   5.459 -0.1110 -0.1636 -0.1372
  294POPC   GL1 4072   6.731   3.508   5.826 -0.3035 -0.1074  0.0385
  294POPC   GL2 4073   6.876   3.121   5.860 -0.1070 -0.2420  0.5594
  294POPC   C1A 4074   6.523   3.371   6.147  0.1438  0.0860  0.0143
  294POPC   D2A 4075   6.708   3.170   6.596  0.2712 -0.0043 -0.2522
  294POPC   C3A 4076   7.170   3.241   6.632  0.0343 -0.2498  0.1768
  294POPC   C4A 4077   7.472   2.974   6.789  0.0155  0.2403  0.1965
  294POPC   C1B 4078   7.026   3.082   6.199 -0.2324 -0.1879  0.1389
  294POPC   C2B 4079   7.163   2.704   6.540 -0.0561  0.2788 -0.0668
  294POPC   C3B 4080   7.252   2.571   6.973  0.1974  0.2282  0.1110
  294POPC   C4B 4081   7.417   2.351   7.236  0.0369 -0.2236 -0.0680
  295POPC   NC3 4082   2.663   2.049   5.383 -0.1335  0.1386  0.2442
  295POPC   PO4 4083   2.942   1.937   5.740 -0.1017  0.1212 -0.0275
  295POPC   GL1 4084   3.113   2.029   6.108 -0.1076  0.2265 -0.0916
  295POPC   GL2 4085   3.461   2.029   6.192  0.1428 -0.1318  0.2029
  295POPC   C1A 4086   3.095   2.057   6.527 -0.1362  0.0119 -0.2710
  295POPC   D2A 4087   3.130   2.191   6.888  0.5786  0.5880 -0.0893
  295POPC   C3A 4088   3.092   2.174   7.285  0.1985  0.1017  0.3481
  295POPC   C4A 4089   2.920   2.012   7.650  0.1418  0.1727  0.0533
  295POPC   C1B 4090   3.809   1.764   6.137  0.1636 -0.0389  0.0821
  295POPC   C2B 4091   4.060   1.563   6.338 -0.2316 -0.4306 -0.1787
  295POPC   C3B 4092   4.238   1.596   6.737 -0.1877  0.2668 -0.2995
  295POPC   C4B 4093   4.123   1.845   7.025 -0.2294  0.1869  0.0067
  296POPC   NC3 4094   8.089   1.038   5.042  0.1940  0.1908  0.3068
  296POPC   PO4 4095   7.758   1.419   5.160 -0.2554  0.0686 -0.0040
  296POPC   GL1 4096   8.077   1.173   5.519  0.3357  0.2533 -0.1630
  296POPC   GL2 4097   8.207   0.828   5.476 -0.1281 -0.1512  0.0021
  296POPC   C1A 4098   7.964   0.999   5.959 -0.0208  0.0191  0.2105
  296POPC   D2A 4099   7.930   0.791   6.398  0.1600 -0.1438 -0.1587
  296POPC   C3A 4100   7.919   1.038   6.679  0.2194 -0.0085 -0.0412
  296POPC   C4A 4101   7.862   1.488   6.807 -0.3760 -0.1282  0.0293
  296POPC   C1B 4102   8.065   0.570   5.853  0.0781 -0.0744  0.0233
  296POPC   C2B 4103   7.810   0.254   6.018  0.0391 -0.2665 -0.0734
  296POPC   C3B 4104   7.847   0.287   6.440  0.2636 -0.0211  0.3498
  296POPC   C4B 4105   7.744   0.585   6.835 -0.3929  0.5351  0.0497
  297POPC   NC3 4106   5.082   4.994   4.685 -0.0475  0.0185 -0.1041
  297POPC   PO4 4107   5.276   4.893   5.076 -0.2110 -0.1021 -0.1381
  297POPC   GL1 4108   5.495   4.910   5.412  0.1205 -0.1295  0.0630
  297POPC   GL2 4109   5.196   4.843   5.690 -0.0427 -0.1934  0.1764
  297POPC   C1A 4110   5.772   4.865   5.786 -0.1273  0.0623 -0.1845
  297POPC   D2A 4111   5.989   5.301   5.976  0.0540 -0.3520 -0.1932
  297POPC   C3A 4112   5.997   5.444   6.480 -0.2335 -0.1764 -0.0267
  297POPC   C4A 4113   5.698   5.409   6.872  0.1898  0.0811 -0.1589
  297POPC   C1B 4114   5.147   4.678   6.148 -0.1769  0.0502 -0.0367
  297POPC   C2B 4115   5.126   4.628   6.526 -0.2993  0.0931  0.0481
  297POPC   C3B 4116   5.166   4.515   6.944  0.2449 -0.0575 -0.0618
  297POPC   C4B 4117   5.456   4.256   7.180  0.0601 -0.2052  0.0081
  298POPC   NC3 4118   5.777   3.753   5.380 -0.1306 -0.0720 -0.2020
  298POPC   PO4 4119   5.441   3.957   5.175  0.0283 -0.1416  0.1037
  298POPC   GL1 4120   5.466   4.008   5.677  0.1191 -0.1641  0.0474
  298POPC   GL2 4121   5.452   4.309   5.889  0.1214 -0.0929  0.2879
  298POPC   C1A 4122   5.559   3.756   6.148 -0.0536 -0.1910 -0.0597
  298POPC   D2A 4123   5.758   3.588   6.467 -0.0963  0.0896 -0.1405
  298POPC   C3A 4124   6.072   3.704   6.791  0.0385 -0.4410  0.2100
  298POPC   C4A 4125   6.559   3.645   6.737  0.0046  0.1456  0.0059
  298POPC   C1B 4126   5.444   4.276   6.319  0.2569 -0.0712 -0.0687
  298POPC   C2B 4127   5.478   3.970   6.615 -0.0735 -0.1947  0.0557
  298POPC   C3B 4128   5.669   3.782   6.996 -0.1309 -0.2404 -0.0005
  298POPC   C4B 4129   5.702   3.845   7.416  0.0643 -0.3527  0.1211
  299POPC   NC3 4130   7.985   6.079   4.816  0.0190 -0.0131  0.0279
  299POPC   PO4 4131   7.806   6.280   5.037  0.4023 -0.0651 -0.2309
  299POPC   GL1 4132   7.879   6.230   5.491  0.0862  0.1787  0.2299
  299POPC   GL2 4133   7.978   6.442   5.631  0.0248 -0.0932 -0.3626
  299POPC   C1A 4134   7.844   5.822   5.721  0.2838  0.1641 -0.1793
  299POPC   D2A 4135   7.761   5.417   5.985  0.0484 -0.1082 -0.2186
  299POPC   C3A 4136   7.589   5.358   6.384 -0.0877  0.1392 -0.0883
  299POPC   C4A 4137   7.466   5.099   6.760  0.0372 -0.1420 -0.0516
  299POPC   C1B 4138   8.401   6.655   5.809  0.1242 -0.0776 -0.0204
  299POPC   C2B 4139   8.625   7.073   6.005 -0.1357  0.1819  0.0343
  299POPC   C3B 4140   8.733   7.121   6.593 -0.1160  0.2736  0.1533
  299POPC   C4B 4141   8.298   7.252   6.874  0.1596 -0.0099  0.2493
  300POPC   NC3 4142   6.070   5.084   4.795 -0.1149 -0.4396  0.0984
  300POPC   PO4 4143   6.149   5.486   4.854 -0.2920  0.1741  0.2181
  300POPC   GL1 4144   6.055   5.397   5.178  0.0001  0.3981 -0.0496
  300POPC   GL2 4145   6.154   5.241   5.378 -0.0229 -0.2747 -0.1517
  300POPC   C1A 4146   5.953   5.813   5.570 -0.0223 -0.0585  0.1821
  300POPC   D2A 4147   6.093   6.193   5.775  0.0731  0.0257  0.0820
  300POPC   C3A 4148   5.989   5.860   6.161  0.3474  0.0477  0.0942
  300POPC   C4A 4149   5.965   5.934   6.582  0.0307 -0.0305  0.3714
  300POPC   C1B 4150   5.722   5.340   5.534 -0.0188 -0.0791 -0.1658
  300POPC   C2B 4151   5.471   5.466   5.793  0.1286  0.0068  0.3934
  300POPC   C3B 4152   5.338   5.899   5.933  0.0468  0.0419 -0.2715
  300POPC   C4B 4153   5.144   6.408   5.773 -0.0350  0.1535  0.1088
  301POPC   NC3 4154   4.140   2.536   5.641 -0.2369  0.2806  0.1503
  301POPC   PO4 4155   3.725   2.807   5.562  0.0235 -0.1889  0.2938
  301POPC   GL1 4156   3.890   2.852   5.999  0.1293  0.3790  0.1645
  301POPC   GL2 4157   3.896   3.178   6.002  0.0157 -0.0682 -0.1948
  301POPC   C1A 4158   3.973   2.728   6.284 -0.5546 -0.0275  0.1502
  301POPC   D2A 4159   3.834   2.646   6.650  0.3935  0.0157  0.3923
  301POPC   C3A 4160   3.945   2.868   6.989  0.1572  0.4245 -0.2270
  301POPC   C4A 4161   3.767   2.787   7.353 -0.2321  0.0061  0.1151
  301POPC   C1B 4162   4.233   3.363   5.962  0.2967  0.0600 -0.0366
  301POPC   C2B 4163   4.604   3.469   6.125 -0.1063  0.3156  0.0417
  301POPC   C3B 4164   4.586   3.457   6.532 -0.1229  0.1979  0.1407
  301POPC   C4B 4165   4.451   3.581   6.900 -0.1917  0.2271 -0.0106
  302POPC   NC3 4166   1.036   3.883   4.762 -0.0000  0.3844 -0.1715
  302POPC   PO4 4167   1.024   3.571   5.082  0.0096 -0.3026 -0.0180
  302POPC   GL1 4168   0.844   3.624   5.529 -0.1122 -0.0783 -0.0171
  302POPC   GL2 4169   0.561   3.475   5.433 -0.3185  0.0173  0.2510
  302POPC   C1A 4170   0.826   3.820   5.935  0.1565  0.2917 -0.2809
  302POPC   D2A 4171   0.870   3.920   6.360  0.0729 -0.0864  0.3589
  302POPC   C3A 4172   0.533   4.296   6.515 -0.2082  0.1914 -0.1579
  302POPC   C4A 4173   0.133   4.373   6.755  0.1618  0.0803  0.1336
  302POPC   C1B 4174   0.360   3.616   5.828 -0.0119 -0.0380  0.2291
  302POPC   C2B 4175   0.365   3.852   6.323 -0.1452 -0.1391 -0.0701
  302POPC   C3B 4176   0.531   3.794   6.797 -0.1081 -0.2729  0.0658
  302POPC   C4B 4177   0.641   4.139   7.096 -0.0535  0.2516  0.0591
  303POPC   NC3 4178   1.593   0.250   4.357 -0.2181  0.3150 -0.1671
  303POPC   PO4 4179   1.480   0.126   4.763  0.2942 -0.1725 -0.0484
  303POPC   GL1 4180   1.353  -0.099   5.224 -0.0441 -0.1103  0.0328
  303POPC   GL2 4181   1.137   0.168   5.531  0.1389  0.1629  0.2687
  303POPC   C1A 4182   1.343  -0.332   5.545  0.0640  0.0528 -0.2701
  303POPC   D2A 4183   1.180  -0.626   6.028  0.0813 -0.1886  0.0158
  303POPC   C3A 4184   1.215  -0.689   6.525  0.0046 -0.1346 -0.1733
  303POPC   C4A 4185   1.615  -0.527   6.800  0.0754 -0.2487  0.1745
  303POPC   C1B 4186   0.845   0.300   5.833 -0.0557 -0.1422 -0.1983
  303POPC   C2B 4187   0.820   0.273   6.314  0.1774 -0.0402  0.0613
  303POPC   C3B 4188   0.961   0.384   6.632 -0.0051 -0.0656 -0.2875
  303POPC   C4B 4189   0.930   0.645   6.989  0.0478 -0.0804 -0.2324
  304POPC   NC3 4190   8.964   5.251   4.728  0.0872 -0.3514 -0.2085
  304POPC   PO4 4191   9.238   5.569   4.771  0.1823  0.4467  0.0374
  304POPC   GL1 4192   9.037   5.524   5.158 -0.1071 -0.0987 -0.2383
  304POPC   GL2 4193   9.289   5.419   5.331  0.0908 -0.2327  0.1584
  304POPC   C1A 4194   9.094   5.814   5.556  0.0682  0.2818 -0.2191
  304POPC   D2A 4195   9.329   5.731   5.972  0.1953  0.0217  0.2806
  304POPC   C3A 4196   9.573   5.941   6.232  0.0863 -0.2190 -0.0598
  304POPC   C4A 4197   9.756   6.369   6.210 -0.0376 -0.2555  0.1099
  304POPC   C1B 4198   9.605   5.808   5.533 -0.0881 -0.0275 -0.1040
  304POPC   C2B 4199   9.438   6.159   5.790  0.0274 -0.1105  0.2336
  304POPC   C3B 4200   9.292   6.472   6.148 -0.1346  0.0600 -0.0134
  304POPC   C4B 4201   9.511   6.757   6.373  0.4068  0.1356 -0.0077
  305POPC   NC3 4202   1.214   4.805   4.510 -0.0942  0.0467  0.0255
  305POPC   PO4 4203   1.458   4.452   4.653 -0.1429 -0.0965  0.2612
  305POPC   GL1 4204   1.700   4.632   4.996  0.2541  0.1063  0.1371
  305POPC   GL2 4205   1.686   4.541   5.369  0.1127  0.2764 -0.0260
  305POPC   C1A 4206   1.875   4.969   5.274  0.0836  0.0413  0.1080
  305POPC   D2A 4207   2.066   5.168   5.628  0.1876 -0.2714  0.1997
  305POPC   C3A 4208   2.243   5.542   5.487  0.0708 -0.0245  0.2619
  305POPC   C4A 4209   2.511   5.431   5.165  0.4478  0.0560  0.0063
  305POPC   C1B 4210   1.784   4.764   5.803  0.0985 -0.1755 -0.1549
  305POPC   C2B 4211   1.805   4.558   6.189  0.1251  0.2330  0.0280
  305POPC   C3B 4212   1.508   4.595   6.572  0.0110 -0.0491  0.2233
  305POPC   C4B 4213   1.265   4.830   6.844  0.0236  0.1617  0.3049
  306POPC   NC3 4214   5.415   8.217   4.435 -0.0577  0.2864  0.1746
  306POPC   PO4 4215   4.945   8.493   4.395 -0.3324  0.2033  0.1058
  306POPC   GL1 4216   4.844   8.428   4.748  0.5234  0.2844  0.0907
  306POPC   GL2 4217   5.127   8.241   4.913  0.1357 -0.0795 -0.1215
  306POPC   C1A 4218   4.707   8.458   5.105 -0.1647 -0.3359 -0.2978
  306POPC   D2A 4219   4.565   8.606   5.502  0.0069 -0.0986 -0.1575
  306POPC   C3A 4220   4.229   8.340   5.761 -0.0222  0.4497 -0.0303
  306POPC   C4A 4221   4.163   8.245   6.170  0.1203 -0.0518  0.3389
  306POPC   C1B 4222   5.321   8.123   5.178  0.0308 -0.4607  0.2454
  306POPC   C2B 4223   5.614   8.288   5.522 -0.0674 -0.0809 -0.0435
  306POPC   C3B 4224   5.699   8.343   5.981  0.1602 -0.0333 -0.0731
  306POPC   C4B 4225   6.081   8.439   6.222  0.0668 -0.2062  0.2639
  307POPC   NC3 4226  10.102   3.117   4.916 -0.1594 -0.1243 -0.1914
  307POPC   PO4 4227  10.319   3.462   5.148 -0.0800 -0.0599 -0.1020
  307POPC   GL1 4228   9.993   3.672   5.473 -0.1977  0.1251 -0.1214
  307POPC   GL2 4229   9.547   3.731   5.483  0.1300 -0.1635 -0.3600
  307POPC   C1A 4230  10.040   3.934   5.801  0.1371 -0.0350  0.1330
  307POPC   D2A 4231  10.113   4.051   6.125 -0.3226  0.0501 -0.1734
  307POPC   C3A 4232  10.123   3.974   6.545  0.0609 -0.1838 -0.1910
  307POPC   C4A 4233  10.210   3.811   6.911  0.1438  0.0306 -0.0827
  307POPC   C1B 4234   9.641   3.650   5.932  0.0952  0.0089  0.1265
  307POPC   C2B 4235   9.767   3.589   6.340  0.1594  0.2622 -0.0621
  307POPC   C3B 4236   9.711   3.774   6.709  0.1484 -0.1938 -0.0416
  307POPC   C4B 4237   9.666   3.730   7.150 -0.3957  0.1853  0.1026
  308POPC   NC3 4238   4.874   0.152   4.957 -0.1725 -0.6061  0.0280
  308POPC   PO4 4239   5.213   0.141   5.268  0.1316  0.0660 -0.3558
  308POPC   GL1 4240   5.372   0.024   5.619 -0.0523 -0.0793 -0.3519
  308POPC   GL2 4241   5.603  -0.173   5.593  0.0696  0.1879 -0.0624
  308POPC   C1A 4242   5.312   0.006   6.125  0.2791 -0.1028  0.2803
  308POPC   D2A 4243   5.245  -0.047   6.574  0.2933 -0.1343 -0.0457
  308POPC   C3A 4244   5.021   0.178   6.874 -0.1943 -0.1802 -0.0940
  308POPC   C4A 4245   4.789   0.215   7.228 -0.0117  0.1463 -0.0274
  308POPC   C1B 4246   5.719  -0.178   5.980  0.3178  0.1863 -0.1792
  308POPC   C2B 4247   5.733  -0.196   6.495 -0.0284 -0.1497 -0.2512
  308POPC   C3B 4248   5.538  -0.356   6.925  0.2201 -0.0357 -0.2404
  308POPC   C4B 4249   5.064  -0.313   7.015  0.0749 -0.0079  0.1900
  309POPC   NC3 4250   4.342   9.723   4.909 -0.4183 -0.0192  0.0605
  309POPC   PO4 4251   4.715   9.834   5.083 -0.0798 -0.0330  0.1770
  309POPC   GL1 4252   4.845  10.007   5.416 -0.0276  0.1259 -0.3475
  309POPC   GL2 4253   4.750  10.375   5.424  0.1655  0.1164  0.1418
  309POPC   C1A 4254   4.976   9.951   5.802 -0.1967 -0.2192 -0.1128
  309POPC   D2A 4255   4.906   9.672   6.052 -0.0186 -0.3792 -0.2011
  309POPC   C3A 4256   5.008   9.248   6.173  0.1045  0.0726  0.2029
  309POPC   C4A 4257   5.347   9.053   6.439 -0.0837 -0.1841  0.0521
  309POPC   C1B 4258   4.948  10.405   5.877 -0.0715  0.1636 -0.0544
  309POPC   C2B 4259   4.993  10.633   6.263 -0.1030 -0.1789 -0.1206
  309POPC   C3B 4260   5.391  10.685   6.393  0.0890 -0.1756  0.0638
  309POPC   C4B 4261   5.720  10.962   6.647 -0.0326 -0.1782 -0.2197
  310POPC   NC3 4262   4.286   5.161   4.319  0.1526 -0.3281 -0.1612
  310POPC   PO4 4263   4.866   5.074   4.223  0.1571  0.1910 -0.1625
  310POPC   GL1 4264   4.805   5.434   4.459 -0.1010 -0.1678 -0.0841
  310POPC   GL2 4265   5.000   5.483   4.612 -0.1070  0.0424  0.1654
  310POPC   C1A 4266   4.414   5.652   4.747 -0.1563  0.2128 -0.2305
  310POPC   D2A 4267   3.985   5.559   5.077 -0.1066  0.1587 -0.1089
  310POPC   C3A 4268   4.037   5.808   5.497  0.1775  0.1774 -0.1104
  310POPC   C4A 4269   4.098   6.141   5.740 -0.3950  0.1798 -0.3260
  310POPC   C1B 4270   4.957   5.730   4.920 -0.1273 -0.1079 -0.0039
  310POPC   C2B 4271   4.931   5.951   5.327 -0.0052 -0.1908  0.2052
  310POPC   C3B 4272   4.783   5.923   5.674  0.2481  0.2427 -0.0432
  310POPC   C4B 4273   4.796   6.061   6.078  0.5065  0.1234 -0.1565
  311POPC   NC3 4274   7.405   1.488   4.827 -0.0242  0.0226 -0.2852
  311POPC   PO4 4275   6.960   1.430   4.987 -0.0286 -0.2262  0.1682
  311POPC   GL1 4276   6.851   1.342   5.473 -0.7382 -0.0462 -0.0176
  311POPC   GL2 4277   7.136   1.218   5.624 -0.2136 -0.0341 -0.0668
  311POPC   C1A 4278   6.701   1.388   5.922 -0.1531 -0.1942 -0.0015
  311POPC   D2A 4279   6.284   1.355   6.064 -0.0377 -0.1321  0.2019
  311POPC   C3A 4280   6.060   0.938   6.021  0.1894  0.0906  0.3877
  311POPC   C4A 4281   5.799   0.653   6.167 -0.0607 -0.1512  0.1222
  311POPC   C1B 4282   7.355   1.178   5.996  0.1040 -0.2112 -0.0391
  311POPC   C2B 4283   7.654   1.315   6.262 -0.0234 -0.0268  0.1204
  311POPC   C3B 4284   7.864   1.710   6.355  0.4416  0.1973  0.1164
  311POPC   C4B 4285   7.878   1.981   6.711 -0.0274 -0.1395  0.3523
  312POPC   NC3 4286   9.958   9.107   5.208  0.0738  0.1175  0.1971
  312POPC   PO4 4287   9.506   9.156   5.115 -0.0063  0.0300  0.0164
  312POPC   GL1 4288   9.509   8.874   5.432  0.1534  0.1487  0.1940
  312POPC   GL2 4289   9.773   8.626   5.476 -0.1393 -0.0721  0.1454
  312POPC   C1A 4290   9.542   8.689   5.882  0.0144  0.0250  0.0973
  312POPC   D2A 4291   9.906   8.338   5.969 -0.2607  0.2590 -0.1616
  312POPC   C3A 4292  10.336   8.093   5.723 -0.2958 -0.3090  0.0952
  312POPC   C4A 4293  10.775   7.927   5.801  0.2443 -0.1742 -0.1872
  312POPC   C1B 4294  10.204   8.612   5.652  0.1783 -0.0181 -0.1398
  312POPC   C2B 4295  10.405   8.473   6.028 -0.0910  0.2460  0.1751
  312POPC   C3B 4296  10.297   8.035   6.300  0.2444 -0.1753 -0.0296
  312POPC   C4B 4297  10.495   7.955   6.721 -0.1734 -0.1648 -0.0635
  313POPC   NC3 4298   3.561   9.448   4.163  0.1599  0.0895 -0.1091
  313POPC   PO4 4299   3.668   9.476   4.521  0.2499 -0.2170  0.2506
  313POPC   GL1 4300   3.507   9.548   4.988 -0.1163 -0.0109 -0.2768
  313POPC   GL2 4301   3.320   9.804   5.012 -0.0992 -0.1866  0.3159
  313POPC   C1A 4302   3.448   9.569   5.483 -0.1526  0.1029 -0.3254
  313POPC   D2A 4303   3.367   9.320   5.903  0.3229  0.0102  0.4591
  313POPC   C3A 4304   3.036   9.321   6.059  0.1124  0.1079  0.2248
  313POPC   C4A 4305   2.645   9.204   5.965  0.2776  0.0919 -0.0659
  313POPC   C1B 4306   3.043   9.787   5.379  0.1023  0.0979  0.1870
  313POPC   C2B 4307   3.012   9.839   5.859 -0.0038  0.1380  0.2643
  313POPC   C3B 4308   3.206   9.939   6.302 -0.0772 -0.1160 -0.0474
  313POPC   C4B 4309   3.186  10.012   6.753 -0.1879  0.3348  0.2081
  314POPC   NC3 4310   1.015   1.545   5.496  0.2549  0.3483  0.0715
  314POPC   PO4 4311   0.737   1.181   5.381  0.0168  0.2489  0.1660
  314POPC   GL1 4312   0.894   1.238   5.855 -0.1847  0.1753  0.2357
  314POPC   GL2 4313   0.632   1.503   5.994 -0.2629  0.0339  0.0060
  314POPC   C1A 4314   1.001   1.215   6.203  0.0573 -0.1415 -0.3386
  314POPC   D2A 4315   1.176   1.237   6.523 -0.3905 -0.3066 -0.0077
  314POPC   C3A 4316   1.165   1.313   6.978 -0.2740  0.0261 -0.0013
  314POPC   C4A 4317   1.267   1.016   7.201 -0.0040 -0.2615 -0.1952
  314POPC   C1B 4318   0.347   1.599   6.374 -0.0750 -0.0286  0.0367
  314POPC   C2B 4319   0.134   1.980   6.596 -0.0453  0.1147 -0.1720
  314POPC   C3B 4320   0.031   2.198   6.944  0.1391 -0.2268 -0.2123
  314POPC   C4B 4321  -0.107   2.439   7.352  0.2100 -0.3755 -0.1267
  315POPC   NC3 4322   7.778   5.227   5.506 -0.2090 -0.0983  0.0428
  315POPC   PO4 4323   7.418   4.924   5.370 -0.0558 -0.0673  0.1705
  315POPC   GL1 4324   7.357   4.665   5.771  0.0033 -0.1423 -0.1542
  315POPC   GL2 4325   7.372   4.320   5.810  0.1485 -0.0673  0.1568
  315POPC   C1A 4326   7.224   4.534   6.215  0.2242 -0.1311 -0.1214
  315POPC   D2A 4327   7.002   4.250   6.474  0.1087  0.0243  0.1255
  315POPC   C3A 4328   6.728   4.330   6.860  0.1278 -0.0279 -0.3588
  315POPC   C4A 4329   6.365   4.122   7.059 -0.0502 -0.1790  0.3727
  315POPC   C1B 4330   7.738   4.435   6.041  0.1662  0.0259  0.1049
  315POPC   C2B 4331   8.079   4.543   6.311  0.4230  0.1542  0.0757
  315POPC   C3B 4332   8.290   4.314   6.668 -0.0814  0.3027  0.0397
  315POPC   C4B 4333   8.137   4.404   7.100 -0.2164 -0.1291  0.1669
  316POPC   NC3 4334   6.449   4.939   5.127  0.1714  0.1798 -0.1129
  316POPC   PO4 4335   6.382   4.427   5.175 -0.0288  0.0723  0.2268
  316POPC   GL1 4336   6.321   4.270   5.675 -0.1443  0.0317  0.2938
  316POPC   GL2 4337   6.537   4.079   5.784  0.1967 -0.0330 -0.2796
  316POPC   C1A 4338   6.177   4.567   5.963  0.2486  0.0747  0.2309
  316POPC   D2A 4339   5.903   4.612   6.237 -0.2081  0.1489 -0.2720
  316POPC   C3A 4340   5.874   4.774   6.603 -0.1936  0.1329  0.0315
  316POPC   C4A 4341   5.785   4.628   7.028  0.0339  0.0526  0.0926
  316POPC   C1B 4342   6.910   3.986   6.034  0.0652  0.2276  0.0407
  316POPC   C2B 4343   7.363   3.985   6.192 -0.2918 -0.1050 -0.2688
  316POPC   C3B 4344   7.489   4.166   6.539  0.1807 -0.0521  0.3938
  316POPC   C4B 4345   7.329   4.589   6.754  0.1372 -0.0035  0.0784
  317POPC   NC3 4346   1.649   1.314   5.521  0.0457  0.1447 -0.1154
  317POPC   PO4 4347   1.764   0.994   5.711 -0.1022  0.0487  0.2340
  317POPC   GL1 4348   1.473   1.029   6.107 -0.2405  0.1145  0.0098
  317POPC   GL2 4349   1.212   0.768   5.955  0.0432  0.2772 -0.2934
  317POPC   C1A 4350   1.268   0.705   6.448 -0.0520 -0.2973  0.0143
  317POPC   D2A 4351   0.861   0.831   6.526  0.0889  0.2981 -0.2103
  317POPC   C3A 4352   0.739   1.263   6.797 -0.0764 -0.3793 -0.0505
  317POPC   C4A 4353   0.457   1.574   6.887  0.0213 -0.2178  0.1315
  317POPC   C1B 4354   0.747   0.821   6.048 -0.2083  0.0906 -0.0474
  317POPC   C2B 4355   0.467   0.587   6.162 -0.1823 -0.0544  0.3219
  317POPC   C3B 4356   0.436   0.484   6.576  0.0492  0.1538  0.2055
  317POPC   C4B 4357   0.518   0.160   6.901  0.1739  0.1850 -0.0976
  318POPC   NC3 4358   0.240   2.222   5.359  0.2164 -0.0471  0.2359
  318POPC   PO4 4359   0.458   1.807   5.436 -0.0156  0.1810  0.3511
  318POPC   GL1 4360   0.312   2.023   5.778 -0.0398  0.2649  0.1085
  318POPC   GL2 4361   0.204   1.715   5.841 -0.0016  0.0795  0.0715
  318POPC   C1A 4362   0.570   2.043   6.171  0.1353 -0.0195 -0.3306
  318POPC   D2A 4363   0.661   1.934   6.622 -0.0337  0.0657 -0.0435
  318POPC   C3A 4364   0.516   2.264   6.956  0.0333 -0.1685  0.3728
  318POPC   C4A 4365   0.388   2.617   7.203 -0.0489  0.0317  0.3429
  318POPC   C1B 4366  -0.069   1.795   6.149  0.1151  0.0185 -0.2030
  318POPC   C2B 4367  -0.416   1.627   6.368  0.1888 -0.3109 -0.3231
  318POPC   C3B 4368  -0.746   1.337   6.450 -0.3246  0.0454  0.2787
  318POPC   C4B 4369  -0.916   1.035   6.607  0.3223  0.1339 -0.3171
  319W        W 4370   0.057   5.632  10.098 -0.0396 -0.0134 -0.1700
  320W        W 4371   7.067   0.901   9.598 -0.0069  0.4192 -0.0968
  321W        W 4372   9.576   4.321   0.209  0.1245 -0.1526 -0.0667
  322W        W 4373   7.216   9.850  10.088  0.0328 -0.0932 -0.3670
  323W        W 4374   2.421   8.287  13.799  0.1291  0.1007 -0.2572
  324W        W 4375   9.201   9.829   4.252  0.1272 -0.1515 -0.1479
  325W        W 4376   8.017   2.410   4.403 -0.1980  0.0128 -0.1319
  326W        W 4377   0.323   1.074   9.089  0.1447  0.1921  0.2600
  327W        W 4378   4.346   7.293   3.147 -0.0938  0.2657  0.1193
  328W        W 4379   3.071   1.124   1.756  0.2734 -0.3115 -0.2941
  329W        W 4380   3.028   3.828  13.612 -0.0414  0.0838  0.0619
  330W        W 4381   9.229   4.388   2.400 -0.0218 -0.0108 -0.4131
  331W        W 4382   8.743   8.041  12.733  0.1828 -0.1404 -0.1155
  332W        W 4383   7.840   9.587  10.631  0.0635  0.0824  0.0101
  333W        W 4384   9.628   7.455   4.360  0.3963  0.0283 -0.1675
  334W        W 4385   5.084   3.816   4.841  0.0715  0.2412  0.1449
  335W        W 4386   8.304   9.862   9.865  0.2449  0.1644 -0.0359
  336W        W 4387   9.697   0.207   2.101  0.0123 -0.1270 -0.2079
  337W        W 4388   7.495   4.057  10.091  0.0573 -0.1378 -0.1765
  338W        W 4389   7.016   6.071   1.781  0.1559 -0.1944  0.1603
  339W        W 4390   8.613   6.950  11.548  0.0942  0.4572  0.1537
  340W        W 4391   0.249   6.704  10.989  0.2217  0.0430 -0.4285
  341W        W 4392   3.941   5.456  12.528  0.2084 -0.1401  0.2954
  342W        W 4393   1.483   9.545   0.390 -0.3171 -0.4514  0.5584
  343W        W 4394   4.388   1.110   2.687 -0.0349  0.2714 -0.0922
  344W        W 4395   9.789   3.384  12.031  0.0299 -0.1013 -0.3571
  345W        W 4396   9.886   9.101  10.889 -0.0719 -0.0355  0.2308
  346W        W 4397   4.675   9.681   2.186 -0.0305 -0.2179 -0.1166
  347W        W 4398   4.190   9.749   4.417  0.0604  0.1905  0.0960
  348W        W 4399   7.693   3.251   9.556 -0.0808 -0.1773 -0.0944
  349W        W 4400   4.289   1.759   8.906  0.0532  0.1239  0.0265
  350W        W 4401   2.647   9.226   4.619  0.2094 -0.3482  0.1814
  351W        W 4402   2.304   7.747   1.695  0.2323  0.0603  0.0662
  352W        W 4403   5.145   8.148   9.773  0.0520 -0.0721 -0.2794
  353W        W 4404   1.968   2.599   1.333  0.0654 -0.0916 -0.2301
  354W        W 4405   5.869   3.300   4.362  0.0963 -0.2013 -0.0115
  355W        W 4406   3.972   2.475  13.876 -0.0724  0.1450 -0.1829
  356W        W 4407   2.831   5.160  13.401 -0.0125 -0.1782  0.0177
  357W        W 4408   9.164   7.927   0.643 -0.2853  0.2154 -0.1522
  358W        W 4409   2.588   3.623   4.873 -0.0372 -0.3697 -0.1550
  359W        W 4410   8.232   9.697   3.943  0.1853 -0.2294 -0.0672
  360W        W 4411   0.320   7.021   3.512  0.2921 -0.0181  0.2555
  361W        W 4412   4.307   4.681   4.886 -0.1226  0.4357 -0.1015
  362W        W 4413   6.687   1.413   1.826  0.0681  0.0395 -0.2592
  363W        W 4414   7.373   5.213   9.578 -0.0634 -0.0182  0.1838
  364W        W 4415  10.022   8.653  12.664  0.2018  0.0617  0.2671
  365W        W 4416   5.855   2.622  13.840  0.1910 -0.1889  0.2007
  366W        W 4417   1.717   4.580  10.881  0.2716  0.2169  0.2111
  367W        W 4418   7.803   4.947  13.778 -0.1902  0.2399  0.0185
  368W        W 4419   6.875   6.844   3.831  0.0029  0.0324 -0.1859
  369W        W 4420   6.069   3.330  12.326  0.0112 -0.1990  0.0851
  370W        W 4421   5.495   7.821   1.105  0.2826  0.3234  0.1347
  371W        W 4422   0.231   2.737  10.269 -0.0843  0.1733  0.1548
  372W        W 4423   0.856   2.624   4.781  0.1468  0.0521 -0.1136
  373W        W 4424   9.964   3.954  13.293 -0.2040 -0.2962  0.0863
  374W        W 4425   5.743   0.823  13.003 -0.0875 -0.2394 -0.2753
  375W        W 4426   1.420   7.741   9.855  0.3309 -0.1118 -0.3736
  376W        W 4427   6.989   2.757   3.014  0.0029 -0.0561  0.0331
  377W        W 4428   1.179  10.158  13.898  0.1694 -0.1733 -0.2630
  378W        W 4429   3.411   9.403   3.080 -0.4365  0.1279 -0.1076
  379W        W 4430   5.935   5.131   2.973 -0.1257  0.0985  0.1012
  380W        W 4431   3.514   9.219  13.310  0.0506 -0.0695  0.0364
  381W        W 4432   2.133   4.084   3.561 -0.1490 -0.0873  0.0758
  382W        W 4433   3.436   4.583  11.563  0.0573  0.1282 -0.3975
  383W        W 4434   7.463   1.871   1.335 -0.1620  0.1769 -0.4483
  384W        W 4435   5.773   1.165   2.608  0.0895 -0.0962  0.3265
  385W        W 4436   4.722   5.995   4.373  0.3633  0.2436 -0.3275
  386W        W 4437   9.151   5.495  10.018  0.1353 -0.1315 -0.1407
  387W        W 4438   3.766   2.363  11.268  0.1640  0.2280  0.1110
  388W        W 4439   0.300   1.048  13.450  0.0683  0.1102 -0.3606
  389W        W 4440   7.693   7.024  12.668  0.2718 -0.0240  0.0454
  390W        W 4441   2.153  10.044  10.593  0.1950  0.2257 -0.1942
  391W        W 4442   2.154   5.728   0.884  0.1858  0.1702 -0.0603
  392W        W 4443   8.508   5.086  11.456  0.0362  0.0542  0.0446
  393W        W 4444   4.287   2.115   2.821  0.3346  0.1175  0.3479
  394W        W 4445   1.695   1.482  12.606  0.3061 -0.1407  0.1466
  395W        W 4446   7.866   9.564   1.417  0.1379  0.4921 -0.1395
  396W        W 4447   8.925   5.509   3.357  0.1584 -0.1583  0.1935
  397W        W 4448   9.966   5.985   9.951  0.1298  0.2145  0.0965
  398W        W 4449   8.079   9.679   3.450 -0.1744 -0.0972  0.2665
  399W        W 4450   7.012   6.841   4.703  0.3042  0.1681  0.0876
  400W        W 4451   0.208   0.502   4.970  0.0038  0.2045  0.0280
  401W        W 4452   9.599   4.375  10.621  0.1960 -0.1531  0.2709
  402W        W 4453   0.721   9.586  12.302  0.0896 -0.0201 -0.0694
  403W        W 4454   2.324   9.531   1.640 -0.0273 -0.5074  0.1595
  404W        W 4455   4.047   7.528  12.403 -0.2690 -0.1968 -0.1308
  405W        W 4456   6.926   6.570   1.443  0.2438  0.2691  0.1285
  406W        W 4457   2.300   0.793   0.004  0.2311 -0.0559 -0.1442
  407W        W 4458   8.310   8.745   4.761  0.5592 -0.0189 -0.3640
  408W        W 4459   5.148   8.921   3.226 -0.1368  0.3274 -0.0669
  409W        W 4460   2.765   4.816   4.035  0.2393  0.0298 -0.0893
  410W        W 4461   1.209   6.842  10.783 -0.1193 -0.2044  0.0784
  411W        W 4462   7.410   0.728  10.009 -0.1511 -0.1854 -0.2967
  412W        W 4463   7.919   8.443   9.152 -0.1850 -0.0764 -0.0471
  413W        W 4464   8.751   4.882   1.263  0.3038  0.1644 -0.1568
  414W        W 4465   6.340   4.439   2.698  0.4099  0.0805  0.2516
  415W        W 4466   5.917   5.999  10.790  0.1585  0.1409 -0.3467
  416W        W 4467   7.410   8.110  10.028 -0.0203 -0.2034 -0.1942
  417W        W 4468   8.099   6.479  10.998  0.0954  0.0387 -0.2958
  418W        W 4469   8.649   8.570   4.378 -0.3718  0.0851 -0.0393
  419W        W 4470   8.128   6.768   3.945  0.1996 -0.1188 -0.1702
  420W        W 4471   7.571   4.676   3.950 -0.0337 -0.0876 -0.0059
  421W        W 4472   6.222   7.109  12.467  0.0541 -0.1233  0.1688
  422W        W 4473   7.535   0.490  10.617  0.2102  0.0749  0.0911
  423W        W 4474   3.612   4.922  11.173 -0.0449  0.4002  0.2444
  424W        W 4475   8.415   7.576  12.711 -0.2530  0.2111  0.1224
  425W        W 4476   7.215   9.005   2.616 -0.2697  0.0832  0.0086
  426W        W 4477  10.009   7.920  11.568 -0.2066  0.0975 -0.1100
  427W        W 4478   9.724   6.239   3.192  0.1577  0.1116  0.0095
  428W        W 4479   9.598   5.805   5.001 -0.0647 -0.0387 -0.1391
  429W        W 4480   0.772   5.504  10.577 -0.0118  0.0929 -0.1892
  430W        W 4481   1.315   5.960  11.857  0.0623  0.0275  0.0404
  431W        W 4482   0.691   7.764   0.709  0.2745 -0.1542 -0.3560
  432W        W 4483   8.039   4.421  12.356 -0.1951  0.0798 -0.3070
  433W        W 4484   7.589   3.119   8.903  0.1772  0.0091 -0.0784
  434W        W 4485   0.388   7.549  11.742 -0.2383 -0.2820 -0.0572
  435W        W 4486   6.540   0.668   0.269 -0.1241 -0.1982 -0.2164
  436W        W 4487   8.604   0.109  10.123 -0.0364  0.1139  0.1378
  437W        W 4488   3.320   6.809   0.497  0.2202  0.1552  0.0888
  438W        W 4489   1.764   2.791  13.588  0.0616 -0.1114  0.0102
  439W        W 4490   6.489   3.966   1.741  0.1085 -0.1372 -0.1885
  440W        W 4491   3.784   8.697  11.231 -0.2657 -0.0481 -0.0756
  441W        W 4492   9.918   1.836   0.955  0.0828  0.0215  0.5374
  442W        W 4493   8.706   7.066   0.965 -0.0954  0.1393 -0.1403
  443W        W 4494   8.700   2.886   3.640  0.1272  0.0619  0.1142
  444W        W 4495   5.998   8.549   0.984 -0.0598  0.0990 -0.0981
  445W        W 4496   0.600   2.398  10.133  0.0064 -0.0723  0.1816
  446W        W 4497   7.011   0.483   1.524  0.1760  0.2672 -0.3489
  447W        W 4498   7.416   0.341   4.020  0.0792  0.3714 -0.1512
  448W        W 4499   1.861   9.072  10.301 -0.2407  0.2393  0.1126
  449W        W 4500   0.894   0.470  10.015 -0.2020  0.4557  0.2005
  450W        W 4501   2.573   5.138  10.651 -0.3641  0.0465 -0.2441
  451W        W 4502   2.236   3.994   4.516 -0.1377  0.2225  0.0070
  452W        W 4503   7.796   2.718   4.156 -0.0587 -0.3468 -0.1757
  453W        W 4504   7.483   9.653   4.407  0.1479  0.0402  0.0118
  454W        W 4505   4.765   9.521  10.642 -0.2614  0.0047  0.0558
  455W        W 4506   5.182   4.010   0.858 -0.2963  0.0271  0.2856
  456W        W 4507   6.408  10.109   2.295 -0.1633  0.0220  0.1275
  457W        W 4508   2.878   4.283   1.239 -0.0198 -0.3047 -0.3812
  458W        W 4509   6.533   1.249   4.513 -0.1548 -0.0869 -0.0298
  459W        W 4510   0.043   1.977   1.791 -0.4172  0.3236  0.0885
  460W        W 4511   7.215   6.830  11.627 -0.1313  0.0610  0.1443
  461W        W 4512   6.338   1.708   3.765  0.3111  0.2746 -0.2389
  462W        W 4513   0.290   9.874   4.603  0.0659  0.2426  0.0511
  463W        W 4514   9.887   3.381   9.608  0.1598  0.1256 -0.0110
  464W        W 4515   1.558   8.083   1.298  0.0504 -0.1601 -0.0440
  465W        W 4516   3.507   3.531  13.212 -0.3456  0.0146 -0.0741
  466W        W 4517   1.419   2.964  13.330  0.1504  0.0622 -0.0689
  467W        W 4518   7.013   2.563   9.408 -0.5773  0.0604  0.4390
  468W        W 4519   7.814   5.666   5.109 -0.2464  0.1773 -0.0279
  469W        W 4520   4.450   2.061   0.473 -0.1293 -0.1278 -0.3217
  470W        W 4521   2.840   0.976   3.966  0.4823  0.2173  0.0769
  471W        W 4522   5.711   3.208  11.893 -0.2882  0.1876  0.2938
  472W        W 4523   0.615   6.415  13.382  0.0183  0.2778 -0.1692
  473W        W 4524   8.511   4.560   0.413  0.1137  0.1002  0.0410
  474W        W 4525   1.785   3.205   1.032  0.1595 -0.1252 -0.1928
  475W        W 4526   5.145   9.755   4.773  0.3653 -0.3235  0.3205
  476W        W 4527   1.536   6.967  11.966  0.0854  0.1748  0.0196
  477W        W 4528   1.655   6.244  12.975 -0.4205  0.0056  0.2206
  478W        W 4529   2.979   7.148  11.144 -0.2266  0.1674  0.0641
  479W        W 4530   8.122   1.169   2.299 -0.1002  0.0474  0.0355
  480W        W 4531   8.028   4.509   0.603 -0.3160  0.0769 -0.0402
  481W        W 4532   2.108   5.887   1.400 -0.1757 -0.0909  0.0185
  482W        W 4533   8.734   2.231   0.208 -0.1116  0.1340 -0.0671
  483W        W 4534   2.914   9.119  12.757 -0.1511 -0.2758 -0.1591
  484W        W 4535   5.369   6.222  11.109 -0.1515  0.0448 -0.0792
  485W        W 4536   9.534   2.126  11.439  0.1327 -0.2106  0.1475
  486W        W 4537   8.079   0.481   3.652 -0.4381 -0.1560  0.2258
  487W        W 4538   4.724   0.871  10.021 -0.0572 -0.1125 -0.1388
  488W        W 4539   3.638   6.889   3.829 -0.1505 -0.0325 -0.4547
  489W        W 4540   9.466   5.696  10.881  0.0267 -0.0555 -0.2382
  490W        W 4541   8.528   6.897  12.136  0.2301 -0.3850 -0.0210
  491W        W 4542   7.409   6.311   9.819  0.1389 -0.0071  0.0769
  492W        W 4543   0.779   2.882  10.486  0.0781  0.0974  0.0128
  493W        W 4544   2.682   1.604   4.609  0.2793 -0.0892  0.0106
  494W        W 4545   9.982   0.722  13.288 -0.1973 -0.0076 -0.1112
  495W        W 4546   3.129   2.253   3.894 -0.0529  0.0606 -0.1223
  496W        W 4547   2.293   2.870  12.622 -0.0698 -0.0375 -0.0551
  497W        W 4548   0.507   2.806  13.876 -0.0813  0.1860 -0.2341
  498W        W 4549   2.043   1.153  11.286 -0.0237 -0.3325  0.2172
  499W        W 4550   2.154   0.826  12.339 -0.0798  0.0078 -0.1012
  500W        W 4551   7.825   1.232  12.204  0.0406  0.1339 -0.3697
  501W        W 4552   7.371   7.388  12.457 -0.0968 -0.0922  0.0797
  502W        W 4553   7.287   3.004   9.303  0.2634 -0.0514 -0.0858
  503W        W 4554   1.015   0.215  12.923 -0.0337 -0.0502 -0.2308
  504W        W 4555   6.868   3.362   9.252  0.1500 -0.1551 -0.2254
  505W        W 4556   1.336   5.647   3.784 -0.2928  0.2041 -0.1071
  506W        W 4557   5.649   5.634  10.642  0.1688 -0.0049  0.0117
  507W        W 4558   0.391   4.172  10.352 -0.0658  0.0659  0.3067
  508W        W 4559   1.168   8.663   0.075  0.0398  0.1450  0.1782
  509W        W 4560   2.847   4.306   3.197 -0.0857 -0.3437  0.1107
  510W        W 4561   3.117   2.758  12.664 -0.1635 -0.1395 -0.3842
  511W        W 4562   8.784   0.548   0.074 -0.2036 -0.0930 -0.1472
  512W        W 4563   3.741   6.747   1.255 -0.0309  0.0637 -0.3597
  513W        W 4564   4.676   0.226  10.624 -0.1196 -0.0388  0.1707
  514W        W 4565   0.046   9.734   2.694 -0.0821  0.0905  0.0408
  515W        W 4566   0.593   4.265  11.207 -0.4290  0.1845 -0.3094
  516W        W 4567   8.716   7.270  10.844  0.1731  0.0658  0.1498
  517W        W 4568   9.317   1.648   3.086 -0.1231  0.1867  0.3628
  518W        W 4569   3.349   9.955   3.601 -0.1222 -0.1847 -0.3242
  519W        W 4570   6.469   9.467  13.695 -0.1336  0.2030  0.1451
  520W        W 4571   4.811   6.605   0.747  0.0317 -0.2934 -0.1011
  521W        W 4572   4.279   1.058  10.438  0.1911 -0.2705 -0.1071
  522W        W 4573   2.625   1.082   4.410  0.2294  0.0903  0.1857
  523W        W 4574   1.030   4.100  11.788  0.0476 -0.0374 -0.3816
  524W        W 4575   6.048   7.561  12.627  0.0839  0.1822  0.0898
  525W        W 4576   3.079   5.122  13.850 -0.1119  0.4975  0.3910
  526W        W 4577   6.106   5.012  12.851 -0.0779 -0.0874 -0.0523
  527W        W 4578   7.568   9.437  12.448 -0.4955 -0.2330 -0.0982
  528W        W 4579   9.733   5.360  12.543 -0.1820  0.2224  0.0884
  529W        W 4580   1.268   4.220  10.030  0.0444  0.0844 -0.1182
  530W        W 4581   5.519   0.457   4.443  0.0868  0.3137 -0.1278
  531W        W 4582   2.943   0.875   0.926  0.0909 -0.0749  0.1051
  532W        W 4583   9.986   2.249  11.851  0.1169 -0.3169 -0.2074
  533W        W 4584   8.382   0.280  11.076  0.0922 -0.1825  0.3506
  534W        W 4585   3.042   0.517   5.079  0.1396  0.0103 -0.0276
  535W        W 4586   9.085   5.669   3.877 -0.0902  0.0690 -0.0779
  536W        W 4587   9.758   6.342   1.751 -0.2188  0.2455  0.2958
  537W        W 4588   8.167   8.952   2.461 -0.0167 -0.2042  0.3972
  538W        W 4589   2.185   8.437  10.936  0.1205 -0.4112 -0.3074
  539W        W 4590   6.809   4.340   0.152 -0.1678  0.1756 -0.0569
  540W        W 4591   2.168   5.359   1.321 -0.1335 -0.0974  0.2255
  541W        W 4592   2.794   6.073  11.827  0.2205  0.1914 -0.1847
  542W        W 4593   7.607   5.181   3.140 -0.2096 -0.1476  0.1041
  543W        W 4594   6.954   9.522   9.723  0.3180 -0.1066 -0.0045
  544W        W 4595   6.170   5.881   9.873  0.2274  0.2744 -0.0875
  545W        W 4596   6.190   8.773   1.886 -0.0948  0.0090  0.3926
  546W        W 4597   9.634   6.087  10.589  0.2802 -0.0502 -0.1426
  547W        W 4598   3.423   0.822  11.450  0.1988 -0.0073  0.4070
  548W        W 4599   1.403   6.972   1.910  0.1944 -0.2914  0.2640
  549W        W 4600   7.999   1.470  10.542 -0.2216  0.2151  0.0304
  550W        W 4601   7.845   7.359   3.085  0.1146  0.1639  0.0401
  551W        W 4602   9.876   8.716  13.256  0.1499 -0.0409  0.1675
  552W        W 4603   8.538   5.767  12.136  0.1230 -0.0629  0.0144
  553W        W 4604   3.273   3.830  12.922 -0.0955 -0.0265 -0.0029
  554W        W 4605   2.638   1.701  13.548 -0.0163 -0.0846  0.1691
  555W        W 4606   3.009   5.849   1.680  0.0594 -0.0777 -0.0787
  556W        W 4607  10.091   3.895   9.658 -0.0367  0.0729 -0.0489
  557W        W 4608   0.143   6.490   2.331 -0.3427  0.1037 -0.1874
  558W        W 4609   7.756   6.370   1.241  0.3588 -0.1914  0.1096
  559W        W 4610   9.174   7.399  13.587  0.0114  0.0087 -0.0777
  560W        W 4611   5.366   7.331  13.563 -0.0405 -0.1419 -0.0585
  561W        W 4612   7.677   5.682  12.448  0.0194  0.1823  0.0175
  562W        W 4613   0.889   2.692   9.182 -0.2064 -0.2134 -0.3857
  563W        W 4614   2.144   6.339  10.645  0.1671 -0.0489 -0.0523
  564W        W 4615   6.954   1.744   2.088  0.1399  0.4487  0.0928
  565W        W 4616   7.482   0.340  11.554 -0.2698 -0.0129 -0.0660
  566W        W 4617   4.504   1.266  13.347  0.0099 -0.0550  0.0173
  567W        W 4618   2.644   3.066   4.778 -0.1568 -0.1417  0.0976
  568W        W 4619   3.786   0.748   0.333 -0.0344  0.0251  0.1815
  569W        W 4620   2.475   2.842   2.977  0.3040  0.0859  0.2415
  570W        W 4621   9.709   4.643   4.573 -0.2126  0.1739  0.2676
  571W        W 4622   0.507   2.969   9.474 -0.4573 -0.0108  0.2175
  572W        W 4623   1.328   3.258   1.797  0.2097 -0.0682 -0.0055
  573W        W 4624   8.809   1.946   2.247  0.3132 -0.0854  0.3370
  574W        W 4625   5.831   6.961  13.954  0.1920  0.1282  0.0033
  575W        W 4626   8.138   9.148   4.376 -0.0966  0.0737  0.2211
  576W        W 4627   3.103   6.211  10.191 -0.0824  0.0932 -0.0904
  577W        W 4628   6.365   6.278   0.905 -0.2138  0.0575  0.1989
  578W        W 4629   6.907   0.366  11.743  0.0038  0.0759  0.0771
  579W        W 4630   7.424   6.330  13.803 -0.0361 -0.1167 -0.2477
  580W        W 4631  10.091   1.249   8.866 -0.1383  0.2399  0.0108
  581W        W 4632   3.319   0.141   1.665 -0.1727  0.1468  0.1726
  582W        W 4633   3.447   3.322  12.004 -0.1011 -0.0126  0.1192
  583W        W 4634   6.600   1.030  10.118  0.2057  0.2811  0.0737
  584W        W 4635   1.947   4.201  10.539 -0.4308  0.0037  0.2688
  585W        W 4636   2.249   8.645   0.357 -0.2209  0.2553  0.0627
  586W        W 4637   2.068   4.130  13.750  0.1020 -0.0617  0.2436
  587W        W 4638   4.950  10.163  13.132  0.4736 -0.2043 -0.0967
  588W        W 4639   9.387   4.374   1.149 -0.1198  0.0301 -0.1997
  589W        W 4640   5.298   5.287  11.482  0.1311 -0.0766 -0.0157
  590W        W 4641   9.377   0.481  10.244  0.2597  0.0646  0.1681
  591W        W 4642   8.075   6.866  11.326  0.1022  0.0637  0.1682
  592W        W 4643   3.206   4.337   1.703 -0.1835  0.2538 -0.1878
  593W        W 4644   1.459   6.396   0.028 -0.4140 -0.0857 -0.0591
  594W        W 4645   0.159   8.837  11.815 -0.3320  0.0664 -0.5451
  595W        W 4646   7.418   8.020  10.508  0.0563 -0.1756  0.0762
  596W        W 4647   9.179   6.581   9.218 -0.0795 -0.0455 -0.1675
  597W        W 4648   5.936   2.838  12.259  0.1264  0.1108  0.0756
  598W        W 4649   3.488   0.082   3.204  0.0135  0.3222  0.2645
  599W        W 4650   3.838   4.269   3.766 -0.1527  0.1382  0.1805
  600W        W 4651   3.409   5.985  12.906 -0.0072  0.1909  0.0423
  601W        W 4652   2.378   5.709   0.058 -0.1426  0.3907  0.2004
  602W        W 4653   7.858   1.937   4.548 -0.0464  0.0165  0.0522
  603W        W 4654   7.106   3.254  13.703  0.2622 -0.1568 -0.1957
  604W        W 4655  10.107   0.465   9.797  0.2953 -0.0053 -0.0324
  605W        W 4656   3.662   5.623   0.494  0.3905  0.1928  0.1096
  606W        W 4657   5.344   1.621  13.438 -0.1428 -0.1121  0.0521
  607W        W 4658   1.590   4.956  12.170 -0.3137  0.0926 -0.2469
  608W        W 4659   6.353   2.698   1.309  0.0238  0.0523  0.0369
  609W        W 4660   9.222   5.395  13.684  0.1559  0.0108  0.1278
  610W        W 4661   4.626   4.850   0.032 -0.2604  0.1122 -0.0631
  611W        W 4662   9.767   2.907   3.131 -0.2802  0.1737 -0.1174
  612W        W 4663   8.702   7.851  12.237  0.1057 -0.1341  0.2072
  613W        W 4664   1.671   0.194  10.152 -0.4639 -0.2084 -0.1874
  614W        W 4665   3.986   7.304  10.410 -0.3205  0.2051 -0.1288
  615W        W 4666   4.753   1.545  11.129  0.0402 -0.1588  0.4010
  616W        W 4667   8.589   1.456  10.629 -0.0211 -0.0379  0.0194
  617W        W 4668   7.004   3.030  13.163 -0.0664 -0.0682  0.0038
  618W        W 4669   8.339   9.369  10.622 -0.0800  0.0308 -0.0583
  619W        W 4670   3.036   1.951   1.831  0.0399 -0.1208  0.3647
  620W        W 4671   2.996   0.968   2.213 -0.2104  0.3693 -0.0220
  621W        W 4672   6.440   1.136   3.769 -0.1174 -0.1830  0.2777
  622W        W 4673   6.317   3.784  10.568 -0.1780 -0.4898 -0.0076
  623W        W 4674   9.995   9.188   4.663 -0.1545  0.1688  0.0912
  624W        W 4675   9.177   2.788  11.929 -0.0002  0.2829 -0.1090
  625W        W 4676   1.451   2.299   0.721 -0.2255 -0.1075  0.2627
  626W        W 4677   3.933   7.131   0.094  0.0079  0.1407 -0.0511
  627W        W 4678   9.904   1.309   3.373 -0.3556  0.1273 -0.0491
  628W        W 4679   8.981   6.667  12.230  0.0555 -0.1157 -0.3394
  629W        W 4680   7.922   6.887   0.489 -0.1017  0.2233  0.1747
  630W        W 4681   3.888   4.202  10.199 -0.2311 -0.0876 -0.1667
  631W        W 4682   4.777   7.470   0.464  0.1442 -0.3167  0.3262
  632W        W 4683   7.406   8.051   3.019  0.1030  0.3356  0.0324
  633W        W 4684   8.383   9.895   4.663 -0.1572 -0.0566 -0.1513
  634W        W 4685   5.863   4.364   2.506 -0.2074 -0.1942 -0.2538
  635W        W 4686   0.260   1.795   2.630 -0.1788 -0.4205 -0.0096
  636W        W 4687   0.244   5.749  12.863  0.3119  0.1538  0.0169
  637W        W 4688   0.243   6.006  13.351  0.1266 -0.0822  0.2174
  638W        W 4689   3.809   1.009   5.581 -0.1635  0.0843 -0.3758
  639W        W 4690   5.333   2.741   1.505 -0.1668  0.2149 -0.5246
  640W        W 4691   8.597   7.614   3.665 -0.1504 -0.3633  0.2319
  641W        W 4692   7.191   6.419   4.343  0.1667  0.1316 -0.0075
  642W        W 4693   5.489   3.205   1.092  0.2847 -0.0336  0.2073
  643W        W 4694   7.786   9.297  12.905  0.0197  0.0451  0.1237
  644W        W 4695   2.246   0.849   4.706  0.1800 -0.1616 -0.3137
  645W        W 4696   9.977   1.534  12.284 -0.0316 -0.2203  0.0287
  646W        W 4697   8.091   1.822   0.701  0.2485  0.1702 -0.0288
  647W        W 4698   4.229   3.964  12.968 -0.2491  0.1697 -0.0104
  648W        W 4699   8.610   0.843  12.731  0.0011 -0.2241  0.1570
  649W        W 4700   4.281   5.663  11.836 -0.0089 -0.4656  0.0817
  650W        W 4701   8.970   3.162   2.307 -0.0240  0.0028  0.4967
  651W        W 4702   4.384   3.079   2.360  0.3095 -0.2486 -0.1331
  652W        W 4703   9.371   9.865  11.885  0.3756 -0.0161  0.0835
  653W        W 4704   9.863   8.216   2.012 -0.1134  0.1898  0.0187
  654W        W 4705   9.988   9.610   4.065  0.1350 -0.2850  0.1746
  655W        W 4706   0.916   2.480  12.331 -0.3607  0.4905 -0.2568
  656W        W 4707   0.861   8.328   0.423  0.1043 -0.3180 -0.2669
  657W        W 4708   6.306  10.004  11.268 -0.2964 -0.0707 -0.0450
  658W        W 4709   5.681   5.665   4.045  0.0976 -0.2007  0.3198
  659W        W 4710   9.414   6.234  12.197 -0.0091 -0.1713 -0.2930
  660W        W 4711   4.026   2.219   4.996 -0.1087  0.0551 -0.1741
  661W        W 4712   2.314   5.974   2.117 -0.2018  0.2576  0.0178
  662W        W 4713   9.990   5.489  11.685 -0.2944 -0.0692 -0.1474
  663W        W 4714   3.153   2.942  11.742 -0.3664  0.0914  0.1450
  664W        W 4715   2.530   0.367  11.362  0.1748 -0.0080  0.0243
  665W        W 4716   0.176   7.283  13.054 -0.0511  0.1355  0.0425
  666W        W 4717   6.327   0.398   2.099 -0.3697  0.1278 -0.0959
  667W        W 4718   7.862   2.399  10.351  0.2311  0.1762 -0.0649
  668W        W 4719   5.795   3.771   3.318 -0.2381 -0.0265 -0.3075
  669W        W 4720   3.114   4.717  11.208 -0.1263  0.1533 -0.0241
  670W        W 4721   7.101   4.277   2.883 -0.4289 -0.0591 -0.0865
  671W        W 4722   8.923   5.643  10.711  0.4896 -0.0511  0.2860
  672W        W 4723   7.797   5.898  13.854  0.0803 -0.1456 -0.3859
  673W        W 4724   9.478   9.097   4.623 -0.4102 -0.0807  0.1997
  674W        W 4725   5.921   2.326  11.038  0.0435  0.0258  0.2201
  675W        W 4726   4.185   3.264   1.443 -0.1520 -0.2336  0.3653
  676W        W 4727   5.744   5.830  13.182  0.0061 -0.1931  0.1330
  677W        W 4728   1.698   3.010   1.506 -0.3504 -0.0862 -0.0706
  678W        W 4729   1.575   1.711   0.224  0.1451  0.0346 -0.1780
  679W        W 4730   8.023   0.349   2.685  0.3553  0.3432  0.0185
  680W        W 4731   5.898   2.891   2.163 -0.3735  0.3432 -0.0855
  681W        W 4732   9.560   9.321  12.066 -0.0451 -0.2518 -0.1156
  682W        W 4733   6.030   5.404   1.088 -0.0622  0.1665 -0.1328
  683W        W 4734   4.082   8.779   1.456  0.0628 -0.2280  0.1761
  684W        W 4735   4.853   7.098   2.654  0.0627  0.3885  0.5853
  685W        W 4736   4.583   2.489  11.691 -0.0192 -0.0941  0.2199
  686W        W 4737   4.059   3.485  10.232  0.0436 -0.0305  0.2885
  687W        W 4738   6.483   7.521   4.431  0.1148  0.0671 -0.0399
  688W        W 4739   7.332   8.280   9.548  0.0564 -0.2389  0.1512
  689W        W 4740   3.793   5.335  13.348 -0.1296 -0.0275  0.1218
  690W        W 4741   2.115   9.897   1.932  0.1182  0.3591 -0.3274
  691W        W 4742   0.336  10.077  13.649 -0.0386 -0.0708 -0.0793
  692W        W 4743   5.550   4.797  11.564  0.1757 -0.1532  0.0374
  693W        W 4744   5.007   8.091   4.029 -0.3101 -0.0260 -0.0692
  694W        W 4745   5.353   0.410   3.486  0.1146  0.1449  0.0330
  695W        W 4746   1.675   0.430   3.861  0.0585  0.0963  0.1957
  696W        W 4747   3.735   0.815  10.949  0.4706  0.0226 -0.3286
  697W        W 4748   1.576   4.133   5.064  0.0173  0.0365 -0.1202
  698W        W 4749   1.727   4.452   9.973  0.0143  0.1000  0.2073
  699W        W 4750   8.723   6.406   0.577  0.3436 -0.2578 -0.1000
  700W        W 4751   7.171   6.408  11.371 -0.1209  0.0016 -0.1380
  701W        W 4752   3.323   8.814   2.985 -0.1004 -0.1547  0.1038
  702W        W 4753   7.100   1.122  10.057 -0.0292  0.1500  0.2843
  703W        W 4754   3.636   4.695   3.468 -0.2207 -0.0230 -0.0671
  704W        W 4755   5.679   0.355  11.723  0.0244  0.0681  0.0779
  705W        W 4756   4.971   5.142   2.840 -0.0823 -0.0170  0.0572
  706W        W 4757   0.872   7.360   2.849  0.0216 -0.0205  0.1372
  707W        W 4758   3.037   1.435   2.636 -0.2445  0.2466 -0.2094
  708W        W 4759   3.722   0.760  12.722  0.3141  0.2097 -0.0436
  709W        W 4760  10.171   1.334   0.861 -0.2313 -0.1335 -0.2525
  710W        W 4761   0.252   5.723   4.497  0.2135  0.1591  0.0468
  711W        W 4762   3.347   5.389  11.880  0.1335  0.1701 -0.1059
  712W        W 4763   7.622   9.688  13.159 -0.0497 -0.0169  0.1630
  713W        W 4764   5.236   9.464   9.653  0.2522  0.0310  0.1175
  714W        W 4765   9.180   0.457   1.632 -0.2350  0.0575  0.0461
  715W        W 4766   0.207   6.437   4.199 -0.2540  0.0164  0.0033
  716W        W 4767   5.643   6.848  10.650 -0.3577  0.1642 -0.3084
  717W        W 4768   7.326   5.355  12.759  0.0873 -0.1686  0.2031
  718W        W 4769   0.312   4.074   2.973  0.0131  0.1685 -0.1511
  719W        W 4770   3.229   4.141   5.640 -0.2693  0.3142  0.3951
  720W        W 4771   2.867   1.742   9.896  0.0494 -0.1339  0.2008
  721W        W 4772   7.930   7.089   0.006  0.0389 -0.1867 -0.0740
  722W        W 4773   3.589   1.292  10.698 -0.1760  0.0447 -0.0860
  723W        W 4774   1.576   2.876  10.351 -0.0266  0.0554 -0.0098
  724W        W 4775   9.155   2.020   3.410 -0.0618  0.0722 -0.0783
  725W        W 4776   9.461   1.632  12.463  0.0388 -0.0315  0.2538
  726W        W 4777   6.679   2.168   9.410 -0.0774 -0.1352  0.1857
  727W        W 4778   0.387   6.640   1.250 -0.0040  0.0751 -0.1211
  728W        W 4779   5.391   7.363   4.315  0.4099 -0.0595 -0.0105
  729W        W 4780   3.053   7.219  11.690  0.3715  0.0601 -0.1767
  730W        W 4781   1.280   6.030  13.747  0.2025  0.1718  0.1079
  731W        W 4782   8.353   7.284   0.310  0.1696 -0.1514  0.0625
  732W        W 4783   8.418   1.685  13.386 -0.3432  0.0695  0.0190
  733W        W 4784   4.281   3.486  12.803  0.0950  0.0168 -0.0870
  734W        W 4785   0.163   1.556   3.508 -0.1587 -0.1145 -0.1164
  735W        W 4786   7.828   0.501   1.141 -0.1713  0.1147 -0.2515
  736W        W 4787   8.090   6.111  12.791  0.0305  0.0072 -0.1277
  737W        W 4788   6.293   7.680   2.090  0.1763  0.3757  0.0961
  738W        W 4789   0.605   3.822   5.017  0.0408 -0.2626 -0.2917
  739W        W 4790   3.705   3.736  12.158 -0.1879 -0.2169  0.1303
  740W        W 4791   6.092   0.320  11.316 -0.4142  0.0552  0.1381
  741W        W 4792   5.245   4.405   5.369  0.0870 -0.2008 -0.0127
  742W        W 4793   6.587   1.119   3.152  0.0331  0.0483  0.0174
  743W        W 4794   1.393   9.067   0.411  0.1097  0.0494  0.0343
  744W        W 4795   2.440   5.186  12.771 -0.0050 -0.1128  0.2359
  745W        W 4796   3.036   8.917  13.220  0.1642  0.1619  0.0135
  746W        W 4797   1.436   7.994   2.891  0.1125  0.1023 -0.0694
  747W        W 4798   6.581   6.012   8.652  0.0319 -0.2030  0.0297
  748W        W 4799   3.501   0.633   2.540  0.2570 -0.0153  0.0847
  749W        W 4800   6.589   7.142  13.199 -0.1748 -0.1632  0.0585
  750W        W 4801   8.091   8.442   2.881 -0.2006  0.3096  0.0232
  751W        W 4802   7.221   8.099   5.030 -0.0131  0.0700  0.0045
  752W        W 4803   0.928   7.843   0.150  0.1303  0.0876  0.0100
  753W        W 4804   1.431   3.488  10.978  0.2711  0.0491  0.0678
  754W        W 4805   1.345   9.917  10.931 -0.2497  0.3194 -0.1079
  755W        W 4806   7.238   5.698   9.836  0.0274  0.1481  0.2573
  756W        W 4807   4.289   0.009   1.556 -0.2796 -0.1498 -0.6324
  757W        W 4808   0.277   5.642  11.719 -0.2207  0.0947  0.1003
  758W        W 4809   7.954   8.521  12.278 -0.0870 -0.3686  0.1642
  759W        W 4810   8.363   6.091  11.778 -0.1658  0.5807 -0.5184
  760W        W 4811   8.764   3.078   4.053 -0.2361 -0.0489  0.0616
  761W        W 4812   5.158   0.650   1.642  0.0494  0.1561 -0.1117
  762W        W 4813   5.749   7.953  12.525  0.0333 -0.1180 -0.1989
  763W        W 4814   2.991   8.519   2.104 -0.0988 -0.4267  0.2686
  764W        W 4815   1.052   2.562   0.916 -0.0798 -0.1186 -0.1800
  765W        W 4816   5.601   9.490   0.642 -0.0837 -0.2020 -0.1735
  766W        W 4817   1.771   3.537  11.867  0.0107  0.0550  0.0546
  767W        W 4818   4.322   4.705  11.073 -0.4292  0.1275 -0.0976
  768W        W 4819   8.535   4.134   3.048 -0.3712 -0.1390  0.0193
  769W        W 4820   0.917   8.969   0.513 -0.0482 -0.0827 -0.1109
  770W        W 4821   1.311   9.078   3.157  0.0068  0.1320 -0.2077
  771W        W 4822   0.678  10.064   4.371 -0.1772 -0.2293 -0.2041
  772W        W 4823   1.221   0.079   2.200  0.1606  0.2321  0.2560
  773W        W 4824   7.194   2.718   1.117  0.4817 -0.0538  0.0616
  774W        W 4825   7.893   2.185   1.000  0.0947  0.0252  0.1642
  775W        W 4826   6.316   5.887   4.017 -0.1015 -0.2145 -0.1178
  776W        W 4827   6.878   7.478   0.602 -0.0527 -0.0904  0.0054
  777W        W 4828   0.368   5.756   1.242 -0.0142 -0.0405 -0.1068
  778W        W 4829   3.526   5.871   1.750  0.1417  0.2005  0.0935
  779W        W 4830   2.109   1.736   2.388  0.1075  0.2337  0.1571
  780W        W 4831   7.137   8.551   1.628  0.2264  0.2001 -0.1925
  781W        W 4832   3.326   1.724   3.337  0.2352 -0.1362  0.0427
  782W        W 4833   1.430   2.549   4.364 -0.0966 -0.0613 -0.0829
  783W        W 4834   3.762   7.885  11.302  0.0735  0.2936 -0.3993
  784W        W 4835   7.368   3.254  11.223 -0.1589 -0.0468 -0.0043
  785W        W 4836   5.180   6.152  12.918  0.0614 -0.0705 -0.0921
  786W        W 4837   2.813   4.724   2.836 -0.2781 -0.3156 -0.0637
  787W        W 4838   8.684   4.115   5.681 -0.0984  0.0665 -0.0420
  788W        W 4839   7.301   8.149  11.627 -0.2367  0.1313 -0.3104
  789W        W 4840   1.604   7.506  10.333  0.1312  0.7090  0.0384
  790W        W 4841   9.692   4.375   9.546 -0.4809 -0.0070 -0.0721
  791W        W 4842   3.260   6.054   1.315 -0.1533 -0.2358  0.4440
  792W        W 4843   4.069   3.296   1.938  0.2250  0.0077  0.1527
  793W        W 4844   0.650  10.091   0.104  0.2770 -0.3363  0.0751
  794W        W 4845   8.993   6.509   3.343  0.0880  0.1818  0.1532
  795W        W 4846   2.053   8.678   0.797  0.0833 -0.1688 -0.1637
  796W        W 4847   0.017   1.455   0.343  0.1416 -0.1513  0.0341
  797W        W 4848   3.594   1.915   5.720  0.2963  0.1572  0.0686
  798W        W 4849   8.089   8.291  12.754  0.0101  0.0469 -0.0077
  799W        W 4850   4.828   1.745   0.276  0.3491  0.1310 -0.2125
  800W        W 4851   8.458   3.646  10.432 -0.0489 -0.0293  0.0290
  801W        W 4852   8.743   8.536   1.616  0.3717 -0.1666  0.0350
  802W        W 4853   5.884   2.741   9.813  0.1106 -0.1197  0.0244
  803W        W 4854   9.097   9.927   5.073  0.0509  0.2448 -0.3132
  804W        W 4855   9.099   0.319   9.893  0.0443  0.0874 -0.1686
  805W        W 4856   9.159   3.506   5.275 -0.0039 -0.1764  0.0533
  806W        W 4857   8.486   9.222  11.174  0.2956 -0.2456  0.0082
  807W        W 4858   3.768   6.294  13.200 -0.5646  0.3090  0.0208
  808W        W 4859   3.128   5.401   3.480  0.0803 -0.1948 -0.2537
  809W        W 4860   7.178   9.160  12.688  0.2674 -0.0692  0.2281
  810W        W 4861   2.729   6.638   3.678  0.0844  0.0826  0.0371
  811W        W 4862   7.592   8.543  11.987  0.1088  0.1381 -0.0033
  812W        W 4863   2.913   0.222   0.539  0.3121 -0.2018  0.1158
  813W        W 4864   2.341   2.361   1.120 -0.0794 -0.1273 -0.2442
  814W        W 4865   8.408   4.753   3.133  0.0369 -0.2218  0.1538
  815W        W 4866   3.291   5.367  10.556  0.1218  0.2580  0.1056
  816W        W 4867   6.357   4.302  11.454 -0.1089 -0.0556  0.2215
  817W        W 4868   4.085   8.342   2.695 -0.0560 -0.0015  0.0821
  818W        W 4869   9.853   9.866   1.415 -0.0269 -0.1859 -0.1185
  819W        W 4870   2.168   4.971  13.803 -0.2291 -0.1000  0.1220
  820W        W 4871   2.847   9.501  12.256  0.0659  0.0527 -0.2036
  821W        W 4872   9.764   2.873   2.254 -0.0663  0.0787  0.0502
  822W        W 4873   4.847   5.445  12.667 -0.0935 -0.1026  0.0990
  823W        W 4874   5.022   5.351   0.775  0.2545 -0.2375 -0.0818
  824W        W 4875   6.573   3.304  13.424 -0.0391  0.2117 -0.0069
  825W        W 4876   1.147   7.393  11.584 -0.2702  0.2158 -0.2278
  826W        W 4877   6.669   6.886  12.662 -0.0245  0.0130  0.0067
  827W        W 4878   7.148   9.467  11.565 -0.0214  0.1437  0.3202
  828W        W 4879   9.585   2.174   0.204 -0.2701  0.1024 -0.0741
  829W        W 4880   3.475   2.154   9.717  0.2653 -0.2898  0.1655
  830W        W 4881   4.792   4.886  12.841  0.3121 -0.1121 -0.0707
  831W        W 4882   5.526   6.516  11.906  0.2954 -0.2037  0.0308
  832W        W 4883   6.187   4.332   4.239  0.3886 -0.1791  0.2268
  833W        W 4884   6.981   6.932  12.120  0.0204 -0.2150  0.0894
  834W        W 4885   5.172   3.414   1.995  0.0426 -0.0504  0.2181
  835W        W 4886   4.849   5.380   1.298 -0.0350  0.4511  0.1000
  836W        W 4887   8.013   3.154   2.660 -0.2760 -0.0052 -0.0851
  837W        W 4888   6.116   9.615  11.523 -0.0958 -0.4473  0.1689
  838W        W 4889   1.674   8.432   1.682 -0.0227  0.3100 -0.2311
  839W        W 4890   3.484   4.292   4.585 -0.1312  0.0811  0.0185
  840W        W 4891   3.833   5.395   0.989 -0.1488  0.1163 -0.0464
  841W        W 4892   1.806   2.711   4.037 -0.0156 -0.1944  0.2293
  842W        W 4893   5.037   0.039   3.339 -0.2990  0.0400 -0.0737
  843W        W 4894   5.389   7.873  12.899 -0.0099  0.1420  0.1045
  844W        W 4895   5.642   2.523  10.208  0.0428 -0.1995  0.5910
  845W        W 4896   7.919   8.294   4.025  0.0694  0.0553  0.0121
  846W        W 4897   7.886   2.436  13.036 -0.1800 -0.1560 -0.0475
  847W        W 4898  10.027   1.554   2.375  0.0568  0.0198 -0.0080
  848W        W 4899   9.016   4.558  13.298  0.3685 -0.1001 -0.1493
  849W        W 4900   8.297   5.853   2.377  0.0702  0.2199  0.1537
  850W        W 4901   5.367   8.074   3.149 -0.2537  0.2316 -0.1539
  851W        W 4902   0.379   5.706  13.928 -0.3192  0.1297  0.2273
  852W        W 4903   5.367   6.121   0.286 -0.2499  0.3336  0.1854
  853W        W 4904   5.826   8.836  11.221  0.0234 -0.2790  0.4760
  854W        W 4905   1.418   1.504   9.500 -0.1693 -0.1216  0.0543
  855W        W 4906   8.504   7.428  11.313 -0.0921  0.0417  0.3018
  856W        W 4907   8.758   0.231  12.124  0.1056  0.0327 -0.3049
  857W        W 4908   7.049   3.733   8.410  0.1692  0.2806 -0.0120
  858W        W 4909   0.616   7.705  11.327  0.1081  0.0387  0.0300
  859W        W 4910   3.131   0.911   4.335 -0.2193 -0.2692 -0.2570
  860W        W 4911   2.548   5.634   1.552  0.0495 -0.0802 -0.2035
  861W        W 4912   6.225   1.134   0.286 -0.4426 -0.1793 -0.0266
  862W        W 4913   8.879   4.758   3.293 -0.1990 -0.1374 -0.2575
  863W        W 4914   4.030   1.395   4.658 -0.0520  0.2122  0.3922
  864W        W 4915  10.070   9.659   4.522  0.0312 -0.0902  0.0112
  865W        W 4916   7.696   1.867  10.447 -0.0020 -0.2335 -0.2381
  866W        W 4917   8.340   4.998   9.619  0.2320  0.1079 -0.5542
  867W        W 4918   7.449   7.648  11.615 -0.3076 -0.2995  0.1271
  868W        W 4919   6.192   0.553  10.860  0.1679  0.0789 -0.1419
  869W        W 4920   3.985   2.658  11.574 -0.2752  0.1476  0.2869
  870W        W 4921   2.346   6.618  10.222 -0.1291  0.5258 -0.1411
  871W        W 4922   8.950   8.582   2.324 -0.2346 -0.1428 -0.1536
  872W        W 4923   8.091   1.078   3.519  0.2076 -0.0270 -0.2662
  873W        W 4924   1.042   2.263  13.281 -0.1813  0.1321  0.2074
  874W        W 4925   1.704   1.714   1.055  0.2626 -0.0096 -0.5258
  875W        W 4926   3.749   9.096   3.803 -0.1605  0.1430  0.4770
  876W        W 4927   4.213   0.669   1.899 -0.0858 -0.1401 -0.0013
  877W        W 4928  10.010   5.511   9.596 -0.0754  0.1801  0.1374
  878W        W 4929   5.636   2.155   2.724 -0.1373 -0.3315  0.2142
  879W        W 4930   2.901   1.407  13.943 -0.0408  0.0547  0.1793
  880W        W 4931   2.401   4.337  10.986  0.0843 -0.1918 -0.3797
  881W        W 4932   5.357   2.735   1.028  0.0933  0.1419  0.0646
  882W        W 4933   9.370   5.159   3.973 -0.1888  0.0936  0.1748
  883W        W 4934   1.240   8.580   1.291 -0.0768 -0.0081 -0.2057
  884W        W 4935   7.649   0.341   5.404  0.2383 -0.0698 -0.1069
  885W        W 4936   5.403   6.644   3.305  0.2092 -0.0614  0.1660
  886W        W 4937   0.663   0.021   3.100  0.0962  0.1177  0.1178
  887W        W 4938   1.533   1.400  10.604  0.0608 -0.0812 -0.2477
  888W        W 4939   0.104   4.981  10.902 -0.0819  0.2568  0.1163
  889W        W 4940   3.184   0.289   3.612  0.1974  0.1061 -0.0831
  890W        W 4941   0.566   1.273  11.571  0.2440  0.0188  0.0682
  891W        W 4942   7.008   3.192  12.239 -0.0095 -0.3016  0.0390
  892W        W 4943   2.324   2.510  10.829 -0.2594  0.2281  0.1095
  893W        W 4944   9.768   1.744   1.972 -0.0519 -0.0153 -0.2394
  894W        W 4945   1.936   7.012  11.639  0.0846 -0.0333 -0.0446
  895W        W 4946   5.115   9.028  10.789  0.0190  0.1343 -0.0913
  896W        W 4947   3.581   9.778  10.102 -0.0230  0.1660 -0.1695
  897W        W 4948   3.875   0.272  12.808 -0.0927 -0.3389  0.1365
  898W        W 4949   1.107   4.196   5.142  0.1270  0.2734 -0.1477
  899W        W 4950   2.312   0.638   1.554 -0.1023 -0.0213 -0.0829
  900W        W 4951   0.404   8.560   9.486 -0.1527  0.1123 -0.0965
  901W        W 4952   8.883   8.962  11.302 -0.3399  0.2478 -0.2482
  902W        W 4953   1.413   3.547   0.011 -0.2010  0.2857  0.2985
  903W        W 4954   9.867   7.400  12.289  0.1640 -0.0432  0.1181
  904W        W 4955   7.472   8.487  10.995 -0.2737  0.3220 -0.2295
  905W        W 4956   6.368   6.600   2.824 -0.1702  0.1318 -0.2586
  906W        W 4957   5.202   9.373   3.324  0.0103  0.3495  0.1495
  907W        W 4958   3.608   3.001   4.691  0.0379  0.2182  0.1545
  908W        W 4959   7.875   1.365   4.610 -0.2294 -0.3073 -0.2613
  909W        W 4960   9.999   6.507  12.644  0.2115  0.2004 -0.2554
  910W        W 4961   7.762   3.861   1.495  0.0292 -0.0891 -0.0250
  911W        W 4962   6.992   5.497  10.797 -0.0164 -0.0443 -0.1025
  912W        W 4963   2.719   3.123   1.677 -0.1701 -0.0823  0.2706
  913W        W 4964   3.175   7.679   0.891 -0.0207  0.1384  0.1025
  914W        W 4965   1.504   0.094  12.697  0.1591  0.1065  0.1248
  915W        W 4966   1.737   6.508  12.195 -0.2814  0.3239  0.0778
  916W        W 4967   0.029   5.028   0.078  0.0526 -0.3220  0.4376
  917W        W 4968   1.535   7.750   1.927  0.0596  0.3405 -0.2705
  918W        W 4969   2.614   3.619  11.613  0.1012  0.1582 -0.1292
  919W        W 4970   7.286   4.338   5.290  0.0550 -0.1217  0.1434
  920W        W 4971   1.555   1.342   3.111  0.2103  0.0297 -0.3276
  921W        W 4972   3.775   7.455   3.086 -0.0799  0.0010  0.1980
  922W        W 4973   5.307   1.326  10.944  0.2647 -0.2888  0.1419
  923W        W 4974   8.817   0.086   0.270 -0.1813  0.1242 -0.0446
  924W        W 4975   6.039   6.332  13.123  0.1186  0.2186 -0.2167
  925W        W 4976   2.673   3.100  11.507  0.0058  0.1978 -0.1333
  926W        W 4977   2.047   2.889  10.542 -0.2144  0.1308 -0.0761
  927W        W 4978   0.543   1.920   3.578  0.1133  0.1698 -0.2033
  928W        W 4979   0.503   3.544   1.932 -0.1888 -0.0701 -0.0683
  929W        W 4980   7.151   5.907   0.519 -0.1931  0.0605 -0.0295
  930W        W 4981   7.785   3.278   2.197 -0.2393 -0.0587  0.5034
  931W        W 4982   1.707   1.442   4.988 -0.4628 -0.2534  0.0754
  932W        W 4983   3.561   5.753  12.430 -0.1845  0.1188  0.0568
  933W        W 4984   4.485   9.404  11.141 -0.1644  0.1589 -0.1258
  934W        W 4985   4.176   9.683   1.449  0.0951  0.0382  0.2881
  935W        W 4986   5.877   3.381   2.076  0.1957  0.2320 -0.0349
  936W        W 4987   2.997   8.052  12.744 -0.0013  0.0184 -0.2676
  937W        W 4988   2.418   3.087   3.439  0.2690  0.2189 -0.3491
  938W        W 4989   0.097   5.221   2.553 -0.0200 -0.3836  0.1220
  939W        W 4990   6.941   4.374  10.750  0.0581  0.1480  0.3390
  940W        W 4991   5.099   6.363   3.588 -0.0858 -0.0482  0.3834
  941W        W 4992   0.175   1.509   9.329  0.1095  0.1560  0.0446
  942W        W 4993   6.767   2.131  12.164 -0.0021 -0.0272  0.1190
  943W        W 4994   1.527   5.225   0.171 -0.0021 -0.2845 -0.0627
  944W        W 4995   3.803   9.267   1.512  0.2312 -0.0497 -0.3464
  945W        W 4996   3.314   6.516   1.072  0.0323  0.1334  0.1235
  946W        W 4997   4.156   9.784  12.763  0.1403 -0.0014  0.0040
  947W        W 4998   1.856   7.419  12.556  0.0470  0.0605 -0.0348
  948W        W 4999   8.248   8.949   9.894  0.1788 -0.2665 -0.1718
  949W        W 5000   2.071   0.733   3.342 -0.0313  0.1184 -0.1041
  950W        W 5001   4.785   8.503   2.019 -0.0157  0.0445 -0.0261
  951W        W 5002   5.327   0.526  13.120  0.1342  0.1074  0.1765
  952W        W 5003   0.999   4.418  10.403 -0.1674  0.0608  0.3317
  953W        W 5004   9.100   4.301  10.638  0.0009 -0.1182 -0.0195
  954W        W 5005   2.171   1.034   0.544 -0.1856  0.0175  0.0525
  955W        W 5006   0.236   4.145  10.866  0.1611 -0.2343  0.0747
  956W        W 5007   2.386  10.137  11.750 -0.2387 -0.1477 -0.0729
  957W        W 5008   3.745   9.008   0.513 -0.3733  0.1772  0.1184
  958W        W 5009   3.795   6.358   9.805  0.0572 -0.1988 -0.0137
  959W        W 5010   2.464   3.861   0.026  0.0652  0.0439  0.1466
  960W        W 5011   7.100   7.377  12.945 -0.0897 -0.0379  0.1998
  961W        W 5012   5.635   1.117  11.306  0.3628  0.1006 -0.0849
  962W        W 5013   2.648   2.451   0.039 -0.0502 -0.1211 -0.0937
  963W        W 5014   3.634   9.648  11.998 -0.0767 -0.1575 -0.1549
  964W        W 5015   8.938   9.738   1.891  0.2125 -0.1261 -0.0515
  965W        W 5016   5.234   9.420  13.800  0.0449  0.2265 -0.0918
  966W        W 5017   9.869   6.559   0.986 -0.2479 -0.2348 -0.3041
  967W        W 5018   1.012   4.866   0.630 -0.0784 -0.1235 -0.1244
  968W        W 5019   8.401   2.394   1.104  0.0169 -0.1268 -0.1205
  969W        W 5020   7.474   2.741   2.957  0.0186  0.0990 -0.0793
  970W        W 5021   5.241   0.055   4.633 -0.0404  0.0215  0.1010
  971W        W 5022   1.702   1.032   9.801  0.2817 -0.1286  0.0499
  972W        W 5023   4.287   4.243  11.559 -0.0940 -0.1379  0.0575
  973W        W 5024   9.502   8.138   1.711 -0.1093 -0.2405 -0.0295
  974W        W 5025   8.358   6.500   1.502  0.0884  0.0319 -0.1102
  975W        W 5026   8.512   9.779   0.597  0.0267 -0.0022 -0.4109
  976W        W 5027   3.844   0.710  13.338  0.0641 -0.0389  0.1856
  977W        W 5028   5.152   4.492  10.421 -0.1320 -0.0146 -0.1210
  978W        W 5029   2.218   3.987   1.845 -0.0183 -0.1786  0.0175
  979W        W 5030   3.311   4.304   3.350 -0.2678  0.1868 -0.1535
  980W        W 5031   5.651   7.456  10.032  0.0889  0.2236 -0.0568
  981W        W 5032   8.028   3.050   0.467 -0.1135  0.1739  0.1536
  982W        W 5033   6.199   1.111   2.312 -0.1725 -0.0375 -0.0194
  983W        W 5034   3.417   3.981  12.467 -0.2318  0.2148  0.2674
  984W        W 5035   4.472   1.476   4.325  0.0870 -0.0705  0.2663
  985W        W 5036   2.740   5.499  10.964  0.0770  0.0973 -0.0722
  986W        W 5037   1.491   5.747  12.848 -0.0826  0.1641  0.2330
  987W        W 5038   8.020   2.003   8.814  0.0396  0.3171 -0.0848
  988W        W 5039   1.843   7.678   1.507  0.1897  0.2391  0.0021
  989W        W 5040   3.899   8.922  10.020  0.0193 -0.1974  0.0179
  990W        W 5041   8.208   4.042   2.101 -0.3818 -0.0802 -0.0034
  991W        W 5042   8.263   0.449  12.141 -0.2172 -0.1441 -0.1387
  992W        W 5043   7.334   7.255   1.320 -0.1772 -0.2963 -0.0379
  993W        W 5044   1.047   2.807   1.475  0.1163  0.1923  0.1063
  994W        W 5045   1.789   2.490  10.738 -0.1614  0.1546 -0.0348
  995W        W 5046   8.177   8.285   4.491 -0.0135 -0.2178 -0.1617
  996W        W 5047   0.248   7.710  13.974 -0.0457 -0.1264  0.1080
  997W        W 5048   9.776   2.085   9.873  0.0563  0.1623 -0.1149
  998W        W 5049   6.265   8.733  12.520  0.1052 -0.0269 -0.0188
  999W        W 5050   7.697   2.849   1.861  0.0653  0.0031 -0.1722
 1000W        W 5051   7.238   2.561   0.383  0.2322 -0.2012 -0.5040
 1001W        W 5052   0.074   1.807   3.976 -0.2307 -0.0729  0.2525
 1002W        W 5053   5.711   6.461   2.774 -0.2987  0.1111 -0.2413
 1003W        W 5054   9.515   6.437   9.842 -0.2961  0.0141  0.2421
 1004W        W 5055   6.847   3.716   2.795  0.0608  0.0437 -0.0140
 1005W        W 5056   3.717   0.394   3.585 -0.1900  0.0443  0.1326
 1006W        W 5057   7.054   7.770   1.930  0.0833 -0.0425  0.3603
 1007W        W 5058   7.505   2.313  13.968 -0.0900  0.0032 -0.0364
 1008W        W 5059   1.755   7.026  12.838  0.1231  0.1512 -0.2894
 1009W        W 5060   5.567   0.692   3.874  0.0606 -0.1682  0.0626
 1010W        W 5061   8.341   2.899   1.204 -0.2753  0.1567  0.1782
 1011W        W 5062   8.921   1.169  12.462  0.1850 -0.0387 -0.2518
 1012W        W 5063   8.220   0.608   2.297  0.2543 -0.0788 -0.1490
 1013W        W 5064   0.782   0.317  11.870  0.1482  0.2208  0.2574
 1014W        W 5065   7.592   7.192  11.481  0.0301  0.1625 -0.1833
 1015W        W 5066   2.829   5.429  10.389 -0.0254  0.1242  0.0881
 1016W        W 5067   3.945   0.692   3.257 -0.2031  0.3356  0.2338
 1017W        W 5068   3.214   9.100   3.396  0.0695 -0.0704 -0.0606
 1018W        W 5069   5.736   5.207   9.754  0.0246  0.1107 -0.2649
 1019W        W 5070   8.680   5.704   1.298  0.2574  0.1853 -0.1976
 1020W        W 5071   1.002   4.722  11.913  0.1217  0.1556 -0.2266
 1021W        W 5072   2.524   4.283   4.072 -0.2528 -0.1435  0.1051
 1022W        W 5073   9.452   9.148   0.035 -0.0348  0.1109  0.0623
 1023W        W 5074   0.302   0.605  10.167  0.0374  0.1543 -0.2815
 1024W        W 5075   9.907   7.980   8.948  0.0470  0.1532  0.0230
 1025W        W 5076   7.544   4.437   9.587  0.2599  0.0770 -0.3256
 1026W        W 5077   8.420   0.419   0.560  0.1490  0.3579 -0.0202
 1027W        W 5078   6.696   3.410   3.783 -0.2544  0.1385  0.1270
 1028W        W 5079   3.208   3.466  10.295  0.0388  0.1048  0.1221
 1029W        W 5080   9.296  10.179   3.166  0.2281  0.0529 -0.2431
 1030W        W 5081   4.676   6.288  12.964  0.3479 -0.4815 -0.1013
 1031W        W 5082   5.251   7.932  12.340  0.1071 -0.0091  0.1596
 1032W        W 5083   5.944   3.877   1.804  0.2657 -0.1654 -0.0822
 1033W        W 5084   7.148   9.848  13.189  0.0057 -0.0976  0.1309
 1034W        W 5085   9.616   5.533   4.443  0.0509  0.0562  0.1894
 1035W        W 5086   1.229   9.170   0.859 -0.1250  0.0751 -0.4571
 1036W        W 5087   9.476   5.938   9.868 -0.2942  0.1288 -0.1052
 1037W        W 5088   8.021   0.094  12.970  0.0732 -0.0003  0.3076
 1038W        W 5089   4.690   4.282   1.720  0.1562  0.1489  0.2545
 1039W        W 5090   3.022   2.265   4.500 -0.5777  0.1820  0.0861
 1040W        W 5091   8.500   8.561   2.661  0.2463 -0.2948 -0.2476
 1041W        W 5092   2.013   0.366   2.938 -0.1516 -0.4543 -0.0317
 1042W        W 5093   6.802   9.171  11.300 -0.2067 -0.1919 -0.0878
 1043W        W 5094   8.185   7.936  12.231 -0.0555 -0.0056  0.1119
 1044W        W 5095   4.508   6.416   0.382  0.0083 -0.0641 -0.1537
 1045W        W 5096   1.215   9.922  12.992 -0.0271 -0.3466  0.2428
 1046W        W 5097   5.603   2.320   3.229 -0.0455  0.0959 -0.2384
 1047W        W 5098   7.795   9.004  12.483  0.2943  0.2866 -0.0018
 1048W        W 5099   4.968   5.186  11.109 -0.0672 -0.1859  0.1028
 1049W        W 5100   9.881   8.199   3.523  0.1003  0.0107 -0.2204
 1050W        W 5101   1.834   4.347   2.127  0.0416  0.4890 -0.0351
 1051W        W 5102   6.258   6.770   0.923  0.1482 -0.2202  0.0802
 1052W        W 5103   6.998   9.858   3.119  0.1811  0.0067  0.1309
 1053W        W 5104   1.071   5.409   3.005 -0.4145  0.1736  0.0129
 1054W        W 5105   9.880   8.134   3.006  0.3468 -0.0051  0.0830
 1055W        W 5106   6.366   8.191   4.195 -0.0753 -0.1216 -0.2267
 1056W        W 5107   7.206   1.348   4.013 -0.5395  0.3163 -0.0251
 1057W        W 5108   2.906   9.092  13.953 -0.0655 -0.3924  0.0039
 1058W        W 5109   2.047   1.536   3.847 -0.2129 -0.2403  0.1634
 1059W        W 5110   4.722   9.193   1.974 -0.0834 -0.0733  0.0738
 1060W        W 5111   7.829   7.173   3.888  0.1295  0.1478 -0.2706
 1061W        W 5112   1.526   3.186   3.960 -0.0074  0.1053  0.1699
 1062W        W 5113   5.481   4.290  13.121  0.0135 -0.1209 -0.2483
 1063W        W 5114   8.851   9.242   1.846  0.0404  0.3426  0.0076
 1064W        W 5115   8.128   6.157   0.979  0.0201  0.0653  0.0296
 1065W        W 5116   0.869   3.577   1.115 -0.0701 -0.1421 -0.1613
 1066W        W 5117   9.450   8.129  11.340 -0.2176 -0.0647  0.0474
 1067W        W 5118   0.328   1.291  10.332  0.1021 -0.1249  0.0755
 1068W        W 5119   9.419   2.510   2.733 -0.0918 -0.1291 -0.0156
 1069W        W 5120   5.343   6.430  13.788 -0.0510  0.0610  0.0902
 1070W        W 5121   9.603   8.278   5.091  0.5313  0.0654  0.0746
 1071W        W 5122   7.549   8.789   9.270  0.0502 -0.1886  0.1377
 1072W        W 5123   7.405   1.935   0.855 -0.1872 -0.2721 -0.3849
 1073W        W 5124   6.681   2.386   0.439 -0.1803  0.1102  0.1553
 1074W        W 5125   0.970   8.345   3.678 -0.0280  0.0852  0.1057
 1075W        W 5126   6.446   1.839  13.535 -0.2125  0.0638 -0.3400
 1076W        W 5127   1.269   4.757   3.736 -0.0060  0.1847  0.1704
 1077W        W 5128   2.382   5.296   9.583  0.0325 -0.3356 -0.2297
 1078W        W 5129   3.996   9.172   4.256  0.2854 -0.1001  0.1252
 1079W        W 5130   6.832   4.484   0.697  0.3592  0.0911 -0.0404
 1080W        W 5131   2.908   3.428   4.480  0.1768 -0.1457 -0.2152
 1081W        W 5132   9.754   1.174   2.076 -0.4092 -0.3783  0.0386
 1082W        W 5133   2.126   6.281   9.722 -0.0344 -0.1121 -0.0350
 1083W        W 5134   6.680   1.201   9.299  0.0245 -0.0070  0.0776
 1084W        W 5135   7.852   1.518   3.682 -0.3853 -0.5299  0.1645
 1085W        W 5136   9.996   7.841   4.984 -0.0231  0.1529 -0.3736
 1086W        W 5137   3.865   2.484  13.279 -0.1461  0.2592  0.2850
 1087W        W 5138   0.739   5.581  11.892 -0.0319  0.2163  0.3077
 1088W        W 5139   8.357   8.966  13.485  0.2808  0.0727 -0.1865
 1089W        W 5140   8.479   0.893   1.993 -0.1491  0.1787  0.1992
 1090W        W 5141   3.576   5.053   3.814 -0.2269 -0.0158  0.0299
 1091W        W 5142   8.513   8.437  13.055  0.0419 -0.1362  0.0871
 1092W        W 5143   1.461   5.575   2.733 -0.0638  0.0622  0.1188
 1093W        W 5144   1.100   7.624   3.242 -0.0302 -0.0101  0.0728
 1094W        W 5145   4.945   7.996   1.225  0.0962  0.0820  0.3474
 1095W        W 5146   0.110   4.256  11.663  0.1009  0.0381 -0.2427
 1096W        W 5147   3.824   5.142   2.587  0.2028  0.2868 -0.1779
 1097W        W 5148   4.977   0.487   9.812  0.1332  0.0704  0.0512
 1098W        W 5149   5.705   9.128   2.981 -0.1108 -0.0247 -0.1642
 1099W        W 5150   5.796   1.019  13.449 -0.0358 -0.1624 -0.0224
 1100W        W 5151   8.166   2.996   1.700  0.0332 -0.4236  0.1182
 1101W        W 5152   9.344   8.630   0.864  0.0909 -0.1234  0.1022
 1102W        W 5153   9.278   9.432   3.871  0.0758  0.0832 -0.0041
 1103W        W 5154   0.466   5.713  12.260  0.2557 -0.2174  0.0457
 1104W        W 5155   0.133   9.223   4.231 -0.2032 -0.1549  0.2156
 1105W        W 5156   5.638   4.155   1.462 -0.1122  0.3576 -0.0364
 1106W        W 5157   8.118   5.115   1.819  0.1064 -0.0246 -0.1074
 1107W        W 5158   6.917   9.306   0.496 -0.1850  0.0115  0.1784
 1108W        W 5159   5.846   8.437  12.677  0.0280 -0.2279  0.0501
 1109W        W 5160   5.195   2.934   3.247 -0.4779  0.2104 -0.1427
 1110W        W 5161   0.777   1.502  10.129 -0.0673 -0.4456  0.3178
 1111W        W 5162   3.320   0.611   4.622  0.0566 -0.0421  0.0996
 1112W        W 5163   4.545   2.479  13.661 -0.4368 -0.5574 -0.1289
 1113W        W 5164   8.231   4.018  13.548  0.1442  0.2382 -0.0421
 1114W        W 5165   4.390   1.024   9.301 -0.2146 -0.2180  0.3702
 1115W        W 5166   9.760   5.930   9.511 -0.1662 -0.0955 -0.2103
 1116W        W 5167   2.556   1.647   3.734  0.0832 -0.2192  0.0451
 1117W        W 5168   3.975   9.398   3.449 -0.3574 -0.2601  0.0608
 1118W        W 5169   2.849   0.222   1.519 -0.0418  0.2402  0.0306
 1119W        W 5170   0.017   1.831   4.469  0.0172  0.1813  0.0728
 1120W        W 5171   8.738   9.995  12.449  0.0961 -0.0449  0.0971
 1121W        W 5172   6.006   2.559   3.734 -0.0164  0.0638  0.0472
 1122W        W 5173   4.743   2.030  13.794 -0.1981  0.0537  0.2504
 1123W        W 5174   9.942   2.673   2.679 -0.0865 -0.1675 -0.1503
 1124W        W 5175   5.288   5.941  10.674  0.0497  0.4029  0.1396
 1125W        W 5176   8.618   4.524  11.046  0.1412 -0.0284  0.2545
 1126W        W 5177   5.364   8.923   4.231  0.1176 -0.3143  0.1253
 1127W        W 5178   6.112   9.519   9.843 -0.1736  0.1110 -0.1900
 1128W        W 5179   0.794   5.511   0.232 -0.1903 -0.0411  0.0456
 1129W        W 5180   4.916   7.327  12.870  0.1458  0.2370 -0.0438
 1130W        W 5181   2.762   8.241   2.443 -0.1013 -0.0616  0.2336
 1131W        W 5182   5.912   9.128  12.623 -0.2223  0.1551  0.4350
 1132W        W 5183   7.010   0.768  12.733  0.0005  0.2544  0.0545
 1133W        W 5184   9.281   6.942   0.134  0.1288 -0.0859 -0.2135
 1134W        W 5185   1.151   8.207   3.202 -0.1777 -0.0514 -0.0544
 1135W        W 5186   3.953   2.035   1.925 -0.2157 -0.0715 -0.1791
 1136W        W 5187   7.989   5.454   0.096 -0.1327 -0.1547  0.1826
 1137W        W 5188   9.186   9.028  12.359  0.2785  0.1495  0.1502
 1138W        W 5189   8.892   5.161  13.362 -0.0787 -0.0220 -0.0362
 1139W        W 5190   8.658   5.208  10.866 -0.0053 -0.2268 -0.4994
 1140W        W 5191   8.828   2.642  11.208 -0.2030 -0.2506  0.0327
 1141W        W 5192   8.891   9.361   0.612  0.0789  0.3834 -0.0205
 1142W        W 5193   6.066   4.894   2.544  0.0952  0.0723  0.1044
 1143W        W 5194   3.705   6.296  13.734 -0.0326 -0.0096  0.0085
 1144W        W 5195   6.169   3.555  12.823 -0.1451 -0.1932 -0.3717
 1145W        W 5196   6.798   2.547  11.134  0.0272  0.0309 -0.2949
 1146W        W 5197   8.800   3.827   3.329  0.1127 -0.0550 -0.3378
 1147W        W 5198   3.930   4.140  13.302 -0.3935  0.0468 -0.0845
 1148W        W 5199   6.640   1.130  12.884 -0.2063 -0.0624  0.0850
 1149W        W 5200   0.722   9.905   1.665  0.1301 -0.0474 -0.1864
 1150W        W 5201   6.562   3.898  11.099  0.0716  0.0976 -0.0325
 1151W        W 5202   2.774   3.378  10.577 -0.2091  0.0183  0.0086
 1152W        W 5203   0.547   7.242   1.429  0.1338 -0.0139  0.2585
 1153W        W 5204   6.344   1.858  12.337  0.0875 -0.3182  0.3251
 1154W        W 5205   6.357   4.312  13.878  0.1299  0.0348  0.3309
 1155W        W 5206   3.349   6.325   1.851 -0.4788 -0.0518 -0.1023
 1156W        W 5207   3.184   8.874  10.759  0.3327  0.3722  0.3363
 1157W        W 5208   3.980   6.358  11.572 -0.2544 -0.3787  0.0843
 1158W        W 5209   0.896   4.042   1.941 -0.2416 -0.0135  0.0100
 1159W        W 5210   3.593   3.548   1.480  0.0761 -0.1863 -0.0017
 1160W        W 5211   1.722   0.795  13.008 -0.0495 -0.1168 -0.1977
 1161W        W 5212   6.101   2.647   2.617  0.0218 -0.2129  0.3843
 1162W        W 5213   4.756   4.771   1.967 -0.1799  0.0635 -0.4344
 1163W        W 5214   7.974   3.494   5.872 -0.0278  0.0861  0.1400
 1164W        W 5215   2.985   0.155   4.548 -0.0741  0.0038 -0.1354
 1165W        W 5216   2.814   3.880  11.261  0.2058  0.3385  0.0700
 1166W        W 5217   5.045   9.021   2.703 -0.3013  0.2090  0.3345
 1167W        W 5218   8.210   1.749   2.984 -0.1372 -0.4302  0.0423
 1168W        W 5219   2.752   8.854  10.448  0.0010 -0.0860 -0.1570
 1169W        W 5220   1.585   4.257   2.838  0.2064  0.1867 -0.1910
 1170W        W 5221   3.937   6.319  12.077  0.1598  0.3049 -0.2878
 1171W        W 5222   5.825   7.188  13.456 -0.1291 -0.1138  0.1690
 1172W        W 5223   8.263   9.448   4.755  0.1166  0.1271 -0.1447
 1173W        W 5224   5.340   7.564   3.207 -0.1719  0.1371  0.1602
 1174W        W 5225   6.128   5.684  10.374  0.3102 -0.1752  0.0447
 1175W        W 5226   5.028   2.435   3.300 -0.1294  0.3109  0.2616
 1176W        W 5227   4.954   1.744  10.064 -0.4310 -0.3375 -0.0139
 1177W        W 5228   1.915   5.934   9.423 -0.0224  0.0983  0.0744
 1178W        W 5229   2.549   4.242  10.446 -0.4410 -0.1720  0.0160
 1179W        W 5230   7.498   9.717   3.765 -0.2175  0.0328 -0.0033
 1180W        W 5231   5.952   3.706  11.993 -0.0066 -0.1325 -0.1030
 1181W        W 5232   7.114   6.681  13.611 -0.1044 -0.2487 -0.0492
 1182W        W 5233  10.056   2.885   9.848  0.0774  0.1003 -0.2789
 1183W        W 5234   9.378   9.275   0.496  0.0494 -0.1603 -0.2448
 1184W        W 5235   5.301   7.282   2.516 -0.2522  0.3394  0.1304
 1185W        W 5236   6.462   9.798   9.673 -0.0902 -0.1635  0.1619
 1186W        W 5237   6.676   1.958   0.035  0.1362 -0.3366 -0.1303
 1187W        W 5238   8.585   2.998  12.112  0.4391 -0.3173 -0.1698
 1188W        W 5239   2.865   1.563  10.936 -0.1285 -0.3662  0.1540
 1189W        W 5240   7.945   8.869   1.453 -0.0852 -0.0530  0.0393
 1190W        W 5241   0.311   0.720   4.055 -0.1420  0.3960  0.1401
 1191W        W 5242   4.149   1.773  11.817 -0.1347  0.0110  0.1798
 1192W        W 5243   9.046   9.325   2.846 -0.2841 -0.1144 -0.2519
 1193W        W 5244   2.095   1.166   2.323 -0.0852 -0.0563 -0.1021
 1194W        W 5245   4.658   5.549   2.602  0.0817  0.3783 -0.3880
 1195W        W 5246   9.571   4.395   2.869 -0.3508  0.3500 -0.0392
 1196W        W 5247   7.787   8.841  11.238  0.3934 -0.0771 -0.0125
 1197W        W 5248   9.767   9.625  13.047 -0.1431  0.1317 -0.1755
 1198W        W 5249   5.723   0.446  10.583  0.0083  0.1489  0.2892
 1199W        W 5250   9.827   4.042   1.689 -0.2387  0.0420 -0.3796
 1200W        W 5251   0.165   2.419  12.151 -0.0116  0.2732  0.0187
 1201W        W 5252   7.774   7.183   0.992  0.0854  0.1618 -0.1677
 1202W        W 5253   6.683   8.195   4.998 -0.2231 -0.3610 -0.2436
 1203W        W 5254   9.542   7.785   2.217 -0.0272 -0.0292  0.4391
 1204W        W 5255   1.665   7.367   2.281  0.0697  0.0638 -0.2150
 1205W        W 5256   0.247   6.522   3.673 -0.2374 -0.1035  0.0171
 1206W        W 5257   2.711   0.700   9.573  0.1538 -0.0277 -0.0527
 1207W        W 5258   5.874   7.344  10.629 -0.0347 -0.2127  0.1614
 1208W        W 5259   9.986   0.910   0.670 -0.1146 -0.1734  0.2419
 1209W        W 5260   2.647   0.295  13.153 -0.1014 -0.1258 -0.1776
 1210W        W 5261   6.172   0.616  11.848  0.1960  0.1580  0.2064
 1211W        W 5262   3.571   9.450   2.244  0.1111 -0.1214 -0.1159
 1212W        W 5263   3.702   4.736  13.236  0.1297  0.1347  0.0334
 1213W        W 5264   5.459  10.080   0.614 -0.3160 -0.1390 -0.0184
 1214W        W 5265   9.219   1.909   0.255  0.5282  0.0573 -0.0955
 1215W        W 5266   8.812   6.342   9.546 -0.1296 -0.2436 -0.1817
 1216W        W 5267   3.749   8.418   9.916 -0.1174 -0.0564 -0.2495
 1217W        W 5268   7.557   2.211   4.284  0.1639 -0.2909  0.0371
 1218W        W 5269   1.838   8.322  13.620 -0.0200 -0.2727 -0.0883
 1219W        W 5270   6.087   3.372   3.442  0.2959 -0.1518 -0.3193
 1220W        W 5271   6.471   3.779  13.165  0.0028 -0.0864  0.2533
 1221W        W 5272   8.456   8.351  12.350  0.1038 -0.0012  0.0185
 1222W        W 5273   9.237   8.798   3.657  0.3812 -0.0374  0.2724
 1223W        W 5274   0.906   4.493   2.224  0.2748 -0.0520 -0.0395
 1224W        W 5275   4.041   7.826   3.911  0.1974 -0.1757  0.1448
 1225W        W 5276   2.087   2.664  11.966  0.1530  0.0577  0.0643
 1226W        W 5277   0.637   4.077   9.946  0.0212 -0.1253  0.1365
 1227W        W 5278   0.614   0.836  13.862 -0.1528 -0.0370 -0.1672
 1228W        W 5279   7.143   4.080   4.126 -0.0715 -0.0774 -0.3031
 1229W        W 5280   6.426   2.980   4.631 -0.2467 -0.2417 -0.3129
 1230W        W 5281   0.498   7.963   0.344  0.4330 -0.1585  0.1414
 1231W        W 5282   2.280   3.635   2.884 -0.2259  0.0846 -0.1231
 1232W        W 5283   5.598   7.717  12.005  0.0152 -0.0349 -0.0427
 1233W        W 5284   4.948   3.725   5.779  0.1521 -0.0081  0.1532
 1234W        W 5285   7.114   1.663   0.547 -0.1782 -0.0094  0.4306
 1235W        W 5286   9.049   8.194  11.051 -0.0134 -0.0768 -0.2827
 1236W        W 5287   1.464   1.532   4.543  0.0423 -0.0795 -0.1435
 1237W        W 5288   5.847   3.079  10.996 -0.0252  0.0088 -0.1523
 1238W        W 5289   4.716   3.465  12.721 -0.0701 -0.2801 -0.2265
 1239W        W 5290   2.167   0.916   5.299 -0.0171 -0.1794  0.2629
 1240W        W 5291   0.592   7.758   1.323  0.1473 -0.1284  0.2227
 1241W        W 5292   3.892   3.618  10.723 -0.1074  0.4818 -0.0286
 1242W        W 5293   4.758   8.844  11.288  0.2397  0.2629 -0.1542
 1243W        W 5294  10.128   3.282   3.109 -0.0970  0.3797 -0.1140
 1244W        W 5295   9.853   4.143  10.014  0.0148  0.3752 -0.2467
 1245W        W 5296   5.990   3.063   3.824  0.2937  0.1440  0.0949
 1246W        W 5297   2.094   1.997   8.932 -0.2088 -0.0574  0.1733
 1247W        W 5298   3.766   9.113  12.125 -0.1742 -0.0600  0.0176
 1248W        W 5299   9.195   0.148  11.804 -0.0696 -0.0600 -0.2432
 1249W        W 5300   3.532   4.253  10.597  0.2515 -0.0073 -0.1862
 1250W        W 5301   6.002   4.384   9.714 -0.1742 -0.0409 -0.0927
 1251W        W 5302   7.548   3.829  12.950 -0.0040 -0.0268  0.0079
 1252W        W 5303   4.723   8.663   2.882  0.0003 -0.3467  0.0285
 1253W        W 5304   7.048   2.568  13.406  0.1043 -0.2615  0.2655
 1254W        W 5305   0.756   3.251  12.768 -0.1849 -0.1009 -0.0088
 1255W        W 5306   4.475   3.319  10.638  0.0423  0.1153 -0.0630
 1256W        W 5307   3.827   0.863   4.845  0.3530 -0.1995 -0.1509
 1257W        W 5308   3.688   3.947   0.307 -0.0799 -0.2475  0.3104
 1258W        W 5309   7.401   5.001  13.402  0.1002 -0.0951 -0.0872
 1259W        W 5310   4.313   5.308   1.103 -0.1998  0.0010 -0.0576
 1260W        W 5311   5.209   0.886  12.795 -0.0814 -0.1037 -0.3656
 1261W        W 5312   2.442   4.496   2.677  0.0722 -0.5464 -0.1681
 1262W        W 5313   6.940   2.746  11.931  0.1661 -0.0483 -0.1791
 1263W        W 5314   8.796   9.495   3.810  0.2160 -0.0338 -0.3257
 1264W        W 5315   7.878   7.870  13.054  0.1428  0.0429  0.3770
 1265W        W 5316   3.778   1.829  11.283  0.0910 -0.0119 -0.0019
 1266W        W 5317   0.183   0.904   0.967  0.1808  0.1720  0.0635
 1267W        W 5318   1.870   9.628  13.428  0.3220 -0.2044  0.0573
 1268W        W 5319   3.182   9.379  13.595  0.3626 -0.5052 -0.0792
 1269W        W 5320   8.455   7.348   9.312  0.0692  0.1744  0.0574
 1270W        W 5321   2.967   2.764   4.368  0.0347 -0.2066 -0.0897
 1271W        W 5322   6.866   7.861  11.649 -0.1084 -0.1745  0.0088
 1272W        W 5323   3.738   6.622   0.253 -0.1059 -0.1237  0.3284
 1273W        W 5324   8.085   1.465   9.633  0.0268 -0.1863 -0.3140
 1274W        W 5325   0.752   0.259  11.316 -0.2246  0.1552 -0.0763
 1275W        W 5326   8.849  10.095   2.880  0.0241  0.2284 -0.1443
 1276W        W 5327   8.172   2.711  10.927 -0.0207 -0.0349 -0.0430
 1277W        W 5328   1.661   2.176  11.189 -0.0926  0.1047 -0.1643
 1278W        W 5329   1.309   2.063   1.145  0.0503  0.0292 -0.0952
 1279W        W 5330   0.818   6.443   1.505  0.0624 -0.1509 -0.1588
 1280W        W 5331   4.610   5.045  11.420  0.3445 -0.1552  0.0957
 1281W        W 5332   4.598   6.463  11.535  0.0696 -0.2119 -0.2575
 1282W        W 5333   5.314   0.134  13.424 -0.0365 -0.1054 -0.1520
 1283W        W 5334   9.434   3.443  12.378  0.5242 -0.0453  0.0436
 1284W        W 5335   4.439   6.177  11.968 -0.0765 -0.1728  0.0558
 1285W        W 5336   0.765   4.128  10.752  0.2486  0.1540 -0.0095
 1286W        W 5337   8.184   1.887  10.408 -0.0109  0.2363  0.2070
 1287W        W 5338   7.270   5.066   2.184 -0.2877  0.0056  0.1698
 1288W        W 5339   1.567   0.453   2.421  0.2471 -0.0731  0.0859
 1289W        W 5340   3.400   3.452  13.740 -0.2957 -0.3377  0.2227
 1290W        W 5341   2.209   3.097   1.579  0.2561  0.2580 -0.2985
 1291W        W 5342   4.576   6.664  13.414  0.2182  0.3004  0.0729
 1292W        W 5343   0.018  10.039  12.149  0.0003  0.1931  0.2426
 1293W        W 5344   9.688   1.432   1.003  0.0521 -0.1143  0.1936
 1294W        W 5345   6.850   7.366  10.516  0.0542 -0.0729 -0.2813
 1295W        W 5346   6.077   0.038  10.863 -0.2095 -0.0530  0.0546
 1296W        W 5347   5.990   7.409  11.994 -0.2572  0.0296 -0.5285
 1297W        W 5348   0.178   4.157   1.685 -0.0321 -0.0547  0.0985
 1298W        W 5349   8.418   9.174   9.443 -0.1044 -0.1316  0.0545
 1299W        W 5350   5.438   3.564   0.691 -0.1552  0.2775 -0.0017
 1300W        W 5351   7.362   2.008   2.828  0.2150  0.2049 -0.0457
 1301W        W 5352   9.553   9.830   3.899  0.1051  0.1746  0.0588
 1302W        W 5353   6.780   2.164  12.680 -0.2986 -0.1430  0.3342
 1303W        W 5354   2.246   7.496  10.108  0.0926 -0.1492  0.0301
 1304W        W 5355   9.687   5.673  12.966 -0.0248 -0.2749 -0.0809
 1305W        W 5356   5.057   7.678  13.211  0.2613  0.0772  0.0187
 1306W        W 5357   1.449   4.555  12.540  0.1169 -0.0857 -0.2156
 1307W        W 5358   3.081   7.114   9.788  0.0720 -0.1456  0.0068
 1308W        W 5359   9.457   6.814  13.026  0.2546  0.1011  0.0131
 1309W        W 5360   3.520   5.589  13.883  0.5614 -0.0179  0.1577
 1310W        W 5361   4.102   2.274   2.343 -0.0627  0.2083 -0.1830
 1311W        W 5362   5.081   4.562   1.520 -0.2276 -0.0635  0.0839
 1312W        W 5363   9.893   7.325   2.013 -0.0040 -0.1477  0.0710
 1313W        W 5364   7.415   7.508  11.134 -0.3615 -0.1535  0.1065
 1314W        W 5365   7.950   7.564   9.872  0.0420 -0.0627 -0.2078
 1315W        W 5366   3.929   5.991  10.650  0.1942  0.2119  0.0528
 1316W        W 5367   3.677   4.668  12.634 -0.2346 -0.1459 -0.0686
 1317W        W 5368   8.562   9.570   1.581 -0.1445  0.1240 -0.2818
 1318W        W 5369   0.886   8.648   0.986 -0.0542  0.2883  0.3532
 1319W        W 5370   0.455   1.812   8.894 -0.3585  0.2476 -0.1290
 1320W        W 5371   4.676   6.870   0.173  0.0952 -0.0499 -0.3356
 1321W        W 5372   0.091   0.308  13.358  0.4063 -0.1570  0.1648
 1322W        W 5373   4.518   5.246  10.499  0.5006  0.1608  0.0095
 1323W        W 5374   9.255   4.862   1.107 -0.0632  0.1634 -0.1588
 1324W        W 5375   8.351   8.022  13.596  0.1570  0.0651  0.2145
 1325W        W 5376   4.203   9.840   3.059  0.1687  0.0010  0.1513
 1326W        W 5377   2.935   1.424   3.109 -0.1646 -0.2418  0.0698
 1327W        W 5378   3.372   4.184  11.942  0.2745 -0.0015 -0.0261
 1328W        W 5379   7.672   9.471   8.940 -0.2632 -0.0372  0.2512
 1329W        W 5380   6.298   2.562   5.100 -0.0648  0.0969  0.3260
 1330W        W 5381   2.509   8.836   2.981  0.1966 -0.1353  0.1338
 1331W        W 5382   5.007   1.945  10.906 -0.0141  0.0701  0.5946
 1332W        W 5383   5.756   1.090   2.068  0.1863 -0.0024  0.1896
 1333W        W 5384   2.304   4.785   4.276 -0.0003  0.0369 -0.1190
 1334W        W 5385   5.031   4.155   2.736  0.1865 -0.2060 -0.0250
 1335W        W 5386   6.106   6.122   3.478  0.1662 -0.2482 -0.3377
 1336W        W 5387   3.106   2.016  10.530 -0.2323  0.0273  0.0788
 1337W        W 5388   2.783   7.994   0.900 -0.0367 -0.0462 -0.4855
 1338W        W 5389   5.486   2.100   4.891  0.1212 -0.0885 -0.1714
 1339W        W 5390   3.082   2.466   5.099  0.0841  0.0147  0.0001
 1340W        W 5391   4.619   2.183   2.424  0.0027  0.1099 -0.0086
 1341W        W 5392   4.796   5.902   3.648 -0.1262 -0.1740 -0.1287
 1342W        W 5393   3.245   2.467   0.781  0.2392  0.0847 -0.0917
 1343W        W 5394   8.900   4.486   0.918 -0.1325 -0.0214 -0.2364
 1344W        W 5395   0.874   2.454   3.794 -0.1209  0.0742 -0.0757
 1345W        W 5396   6.166   9.254   9.419 -0.2457  0.1100 -0.0239
 1346W        W 5397   2.018   0.015  12.748  0.2058 -0.0058  0.0363
 1347W        W 5398   5.786   9.435   2.633  0.0411  0.2248 -0.1301
 1348W        W 5399   9.118   0.459  13.096  0.1500 -0.2954 -0.0357
 1349W        W 5400   1.424   2.754  11.181 -0.1695  0.4591  0.2183
 1350W        W 5401   4.067   1.621   1.091 -0.0526 -0.2112  0.1167
 1351W        W 5402   3.913   9.629  12.375  0.1534 -0.0925 -0.1627
 1352W        W 5403   7.019   1.850   3.164  0.0353 -0.1679  0.1604
 1353W        W 5404   1.364   6.297   0.763  0.3025  0.1221 -0.1184
 1354W        W 5405   7.604   6.193  12.429  0.1070  0.0066  0.1097
 1355W        W 5406   7.907   8.583   0.954  0.1544  0.0160  0.2505
 1356W        W 5407   6.918   1.075   3.677 -0.0468 -0.0869  0.3668
 1357W        W 5408   9.983   9.450   1.715 -0.0535  0.0080 -0.1041
 1358W        W 5409   1.269   9.179   9.725  0.1027 -0.0887  0.1030
 1359W        W 5410   2.703   7.229   1.409 -0.0671 -0.2258  0.0836
 1360W        W 5411   5.578   4.791   3.284  0.3080  0.1197  0.2342
 1361W        W 5412   6.783   2.514   0.928 -0.0247  0.0066 -0.2106
 1362W        W 5413   2.833   7.830   1.505  0.1240  0.1223  0.1171
 1363W        W 5414   9.861   2.893   5.429  0.0540 -0.3354  0.1029
 1364W        W 5415   3.603   1.113   0.664  0.2279 -0.1508 -0.1702
 1365W        W 5416   2.991   0.833   9.988 -0.0940 -0.1172  0.1317
 1366W        W 5417   6.714   1.343  11.140  0.1711  0.3257  0.1531
 1367W        W 5418   7.645   7.626   3.872  0.0508 -0.0464  0.1597
 1368W        W 5419   9.834   7.310   3.911  0.1148  0.2892 -0.1534
 1369W        W 5420   7.417   6.749   0.677  0.2514 -0.0296  0.1044
 1370W        W 5421   2.592   4.488   9.634  0.1020 -0.0327 -0.1980
 1371W        W 5422   7.401   8.104   1.757 -0.0035 -0.0195  0.0703
 1372W        W 5423   9.891   6.777  11.262  0.1616 -0.0159  0.0645
 1373W        W 5424   0.078   4.065   1.045  0.1732 -0.2250  0.0333
 1374W        W 5425   0.548   3.696  11.066 -0.1361  0.3610 -0.3589
 1375W        W 5426   6.301   6.165  13.927 -0.0867  0.3486 -0.0288
 1376W        W 5427   4.435   4.558   1.333 -0.0819 -0.2091 -0.2674
 1377W        W 5428   9.760   7.840  12.507  0.0430 -0.1190  0.3316
 1378W        W 5429   0.968   0.158   1.768 -0.2690  0.2632  0.0935
 1379W        W 5430   5.587   0.485   0.460  0.0526  0.0755 -0.0765
 1380W        W 5431   5.849   5.219   0.236  0.0960  0.2529  0.1962
 1381W        W 5432   3.154   8.415  13.119  0.2347 -0.1407  0.5416
 1382W        W 5433   6.045   1.918  10.040  0.1746 -0.0961 -0.0133
 1383W        W 5434   0.601   6.402   2.091 -0.1864 -0.1630 -0.0414
 1384W        W 5435   6.875   5.013   4.237 -0.1490  0.0585  0.0192
 1385W        W 5436   0.685   8.002   3.223 -0.3246  0.0867  0.1423
 1386W        W 5437   7.100   8.702  10.587 -0.0472 -0.0464 -0.2329
 1387W        W 5438   9.204   6.999   4.176 -0.1291  0.2050 -0.1254
 1388W        W 5439   6.730   5.929  12.683 -0.3181  0.1335  0.0459
 1389W        W 5440   1.991   2.156  11.837  0.0940 -0.3251  0.0865
 1390W        W 5441   2.415   9.567  11.612 -0.2131  0.0003 -0.1801
 1391W        W 5442   0.189   9.236   1.464  0.0875  0.0178  0.0795
 1392W        W 5443   3.916   2.670  10.690  0.1056 -0.0188  0.1247
 1393W        W 5444   5.407   9.324   8.571  0.2850 -0.0556 -0.0734
 1394W        W 5445   5.550   6.064   1.446 -0.0842  0.0066  0.0004
 1395W        W 5446   8.776   3.683   2.497 -0.1728 -0.3146 -0.0807
 1396W        W 5447   0.401   2.708   3.427  0.1845  0.2415 -0.5596
 1397W        W 5448   1.223   1.403   2.706 -0.3878 -0.1492 -0.1098
 1398W        W 5449   7.819   9.893   4.744  0.1505 -0.0231  0.0329
 1399W        W 5450   1.339   0.502   1.970 -0.3881 -0.2280  0.3512
 1400W        W 5451   3.313   0.001   0.681 -0.0050 -0.1299 -0.2042
 1401W        W 5452   8.177   4.446  13.210  0.1535  0.0960  0.0857
 1402W        W 5453   3.624   6.895  13.130 -0.0152  0.3290 -0.3727
 1403W        W 5454   9.634   0.692  12.888 -0.2180 -0.1485 -0.5968
 1404W        W 5455   5.750   6.049   0.628 -0.0186 -0.1468 -0.0606
 1405W        W 5456   9.427   6.842  11.092  0.2113 -0.0062  0.2582
 1406W        W 5457   8.742   5.433  11.794 -0.2167 -0.2151 -0.2664
 1407W        W 5458   8.530   8.129   1.332 -0.2653  0.0370 -0.0211
 1408W        W 5459   9.939   6.368   0.502  0.1238 -0.1267 -0.4003
 1409W        W 5460   8.159   4.604  13.890  0.0875  0.2220  0.0402
 1410W        W 5461   3.335   7.012  12.088  0.1808 -0.3243  0.2487
 1411W        W 5462   5.853   1.568   9.619 -0.0952  0.3094 -0.0142
 1412W        W 5463   6.500   6.807   2.299 -0.0860  0.1585 -0.0228
 1413W        W 5464   7.744  10.106  11.775 -0.0826 -0.1950  0.0415
 1414W        W 5465   3.943   0.826   2.754 -0.0306 -0.2082  0.0785
 1415W        W 5466   0.544   8.360  10.397  0.1900 -0.2838  0.0116
 1416W        W 5467   6.804   5.451   0.606  0.1359  0.1173 -0.2850
 1417W        W 5468   2.139   8.708  13.854  0.0090 -0.3657 -0.3475
 1418W        W 5469   6.082   3.489  13.454  0.0696 -0.0707 -0.0349
 1419W        W 5470   6.301  10.122   1.692  0.0870  0.1652  0.0186
 1420W        W 5471   4.895   7.214  10.527  0.1013  0.0615  0.0258
 1421W        W 5472   9.672   3.188   4.587  0.0509 -0.1535  0.1972
 1422W        W 5473   5.841   9.195  13.663 -0.0166  0.2253 -0.2032
 1423W        W 5474   3.404   7.806  11.633  0.1445  0.0782 -0.0564
 1424W        W 5475   2.734   4.709  13.115  0.0211 -0.1746  0.0793
 1425W        W 5476   9.003   2.407   4.338 -0.2457 -0.1777  0.2223
 1426W        W 5477   3.270   7.931   1.294  0.1366 -0.0279 -0.2879
 1427W        W 5478   7.747   3.936  12.460  0.1629  0.0500 -0.4209
 1428W        W 5479   3.934   9.185   2.585 -0.1228  0.0334 -0.4546
 1429W        W 5480   6.310   7.162  11.078 -0.1380  0.1855 -0.0638
 1430W        W 5481   0.881   6.995  13.658 -0.0983  0.0323  0.3116
 1431W        W 5482   9.743   5.498  10.033  0.2763  0.0942 -0.1673
 1432W        W 5483   0.005   3.156   0.739  0.3523 -0.3300  0.0073
 1433W        W 5484   9.261   1.701  13.633 -0.0221 -0.0248 -0.2290
 1434W        W 5485   4.749   1.869  10.494  0.0773 -0.1486  0.0722
 1435W        W 5486   7.385   3.659   0.151  0.0066 -0.0868  0.0871
 1436W        W 5487   6.348   7.174  13.918  0.1106  0.2467 -0.3919
 1437W        W 5488   9.046   9.468   1.365 -0.0977  0.0152 -0.0569
 1438W        W 5489   9.225   1.169  12.863  0.0356 -0.1240  0.1178
 1439W        W 5490   7.194  10.134   3.555 -0.1677  0.2142 -0.0163
 1440W        W 5491   9.075   2.731   3.966 -0.0146  0.0056  0.0471
 1441W        W 5492   6.673   4.142   9.493  0.0196  0.0920  0.2234
 1442W        W 5493   4.526   9.199  13.790 -0.0849  0.0000  0.3513
 1443W        W 5494   0.680   1.720  11.707  0.0043 -0.2962  0.0570
 1444W        W 5495   2.294   2.324   5.626 -0.0686 -0.0465  0.1579
 1445W        W 5496   4.875   6.830  13.727  0.0347 -0.0402  0.2611
 1446W        W 5497   7.829   8.773  13.637  0.1947  0.1930 -0.1018
 1447W        W 5498   0.742   4.929   3.773  0.1866  0.2309  0.0215
 1448W        W 5499   3.875   1.140  13.067  0.1896  0.1420  0.0064
 1449W        W 5500   4.355   5.755  12.641  0.1470 -0.2678  0.0027
 1450W        W 5501   0.386   6.158   1.471 -0.1060  0.2339 -0.1406
 1451W        W 5502   1.195   5.328   0.596 -0.1077  0.1304 -0.1483
 1452W        W 5503   1.959   0.622  13.554  0.1383 -0.2519 -0.1835
 1453W        W 5504   9.919   4.020  10.857 -0.0611 -0.3424  0.0243
 1454W        W 5505   5.036   4.890   0.276 -0.0839  0.0512  0.1675
 1455W        W 5506   7.515   0.981  11.694  0.0496 -0.2703  0.1053
 1456W        W 5507   5.055   5.672  11.179  0.1392 -0.0211  0.1256
 1457W        W 5508   1.666   0.894   0.533  0.2751  0.4441  0.0580
 1458W        W 5509   6.168   9.695   4.256 -0.2536 -0.0261 -0.0104
 1459W        W 5510   1.672   6.366  13.543  0.0090  0.3206  0.4238
 1460W        W 5511   0.239   1.111   9.670 -0.0331 -0.0062  0.0484
 1461W        W 5512   2.741   3.011  12.898  0.0065 -0.0089 -0.2145
 1462W        W 5513   2.479   9.487  12.648 -0.2541 -0.0920  0.0525
 1463W        W 5514   7.722   5.284   2.071  0.3321 -0.0820  0.1512
 1464W        W 5515   2.506   1.288   0.236 -0.3052  0.0313 -0.2136
 1465W        W 5516   1.199   1.598  12.983  0.1873 -0.0579  0.0535
 1466W        W 5517   3.028   6.067   0.872  0.2379 -0.2553  0.0164
 1467W        W 5518   9.405   4.952  11.329 -0.0526 -0.1264  0.0129
 1468W        W 5519   8.346   3.221   9.523  0.3893 -0.0262 -0.0817
 1469W        W 5520   9.919   8.317  11.218  0.0521 -0.1697 -0.2533
 1470W        W 5521   8.334   5.549  12.543 -0.0655  0.3261 -0.0241
 1471W        W 5522   7.183   3.160   8.446 -0.3595 -0.0488 -0.2039
 1472W        W 5523   8.649   5.395   4.199  0.3441 -0.0587  0.1755
 1473W        W 5524   0.524   1.954  13.392 -0.2541 -0.1836  0.0983
 1474W        W 5525   2.894   0.071  13.910  0.1686  0.0694 -0.0265
 1475W        W 5526   2.599   5.397   1.043 -0.0863  0.3938 -0.0840
 1476W        W 5527   1.522   0.262  12.231 -0.2013 -0.1918 -0.1469
 1477W        W 5528   0.418   9.880  10.467 -0.2510 -0.2087  0.1627
 1478W        W 5529   5.347   0.925   4.292 -0.1752  0.1867  0.0331
 1479W        W 5530   4.896   6.144  11.284 -0.1522  0.0402  0.0838
 1480W        W 5531   4.832   9.070   8.878 -0.3607 -0.0011 -0.1556
 1481W        W 5532   9.772   1.324   1.554 -0.0525 -0.0449 -0.0070
 1482W        W 5533   9.544   3.029  13.600  0.0089 -0.3539 -0.1610
 1483W        W 5534   9.467   3.928  10.437 -0.0624  0.1258 -0.1072
 1484W        W 5535   5.097   1.755   4.986 -0.3797  0.3379 -0.0819
 1485W        W 5536   5.331   6.431   1.710  0.1935  0.0587  0.1663
 1486W        W 5537   7.136   9.462   0.920  0.2806  0.3314 -0.0175
 1487W        W 5538   6.394   1.414   1.294 -0.1726  0.2835 -0.2419
 1488W        W 5539   6.251   5.726  12.451 -0.0196  0.0312 -0.2339
 1489W        W 5540   3.500   0.638   4.013  0.2220 -0.0321 -0.0180
 1490W        W 5541   6.269   0.258  10.461 -0.1244 -0.1024  0.1172
 1491W        W 5542   4.697   8.840  11.799 -0.0041 -0.1502 -0.0784
 1492W        W 5543   7.618   4.013   9.166 -0.0212  0.0325 -0.0500
 1493W        W 5544   1.047   0.560  10.891 -0.1856 -0.0207 -0.0051
 1494W        W 5545   4.307   9.977   0.377  0.0161 -0.0012  0.0396
 1495W        W 5546   7.764   4.070  13.315  0.0439  0.0618  0.2251
 1496W        W 5547   0.602   2.112   4.526  0.3877  0.1422  0.0503
 1497W        W 5548   7.828   2.898  10.457 -0.4324  0.0684  0.2836
 1498W        W 5549   8.159   9.441   3.030 -0.1756  0.1600  0.1458
 1499W        W 5550  10.145   8.763   9.262 -0.1727  0.0005  0.1469
 1500W        W 5551   5.196   3.840  10.730  0.4102  0.2218 -0.2321
 1501W        W 5552   0.608   6.232   3.905  0.3137 -0.1238 -0.1992
 1502W        W 5553   7.103   6.415   3.834 -0.2455  0.0587 -0.0792
 1503W        W 5554   1.627   9.935   2.121  0.0331 -0.1894 -0.1220
 1504W        W 5555   8.361   4.595   1.589  0.3669 -0.1614  0.1437
 1505W        W 5556   0.230   1.419  12.103 -0.1139 -0.0272 -0.0876
 1506W        W 5557   5.308   6.779   2.673  0.6297 -0.1901  0.1113
 1507W        W 5558   2.056   8.093   1.376  0.2318  0.1220 -0.0117
 1508W        W 5559   6.362   0.370   3.530  0.0272  0.2729  0.1079
 1509W        W 5560   9.882   2.534  12.317 -0.0793 -0.0450  0.0456
 1510W        W 5561   2.892   4.183   0.120 -0.0805  0.2566  0.2133
 1511W        W 5562   3.451   2.635   3.993  0.2348  0.2477  0.3954
 1512W        W 5563   6.630   8.021   3.717  0.0829 -0.0246 -0.2373
 1513W        W 5564   1.939   5.958  12.199 -0.5248 -0.0472 -0.0710
 1514W        W 5565   2.481   3.121   9.647  0.2241  0.1011  0.0502
 1515W        W 5566   9.645   3.795   0.206 -0.0866  0.1623  0.4209
 1516W        W 5567   2.162   6.117  12.774  0.1062 -0.1402 -0.3414
 1517W        W 5568   5.736   7.075  12.775 -0.0318  0.4214 -0.1184
 1518W        W 5569   2.235   3.900  12.741  0.2997  0.2214  0.2945
 1519W        W 5570   0.842   7.160   9.697 -0.1576 -0.1334  0.0035
 1520W        W 5571   6.404   4.386   0.448 -0.0592 -0.0000  0.0295
 1521W        W 5572   2.990   3.012   9.614 -0.2890 -0.0611  0.0798
 1522W        W 5573   2.141   7.823  13.806 -0.0535  0.1631  0.1662
 1523W        W 5574   3.175   9.494   2.650 -0.0905  0.1152  0.1924
 1524W        W 5575   4.732   2.341   0.219 -0.0513 -0.0433  0.0521
 1525W        W 5576   3.344   6.719   1.590 -0.1139  0.1716  0.0720
 1526W        W 5577   6.872   2.818   2.029  0.0763 -0.1725  0.1617
 1527W        W 5578   3.394   9.934  13.293  0.0781 -0.2568  0.0614
 1528W        W 5579   8.981   4.497   1.461 -0.5369  0.1418  0.3425
 1529W        W 5580   6.865   5.503  12.456 -0.1594 -0.1301  0.0136
 1530W        W 5581   9.517   7.245  11.962 -0.4269 -0.0039 -0.1366
 1531W        W 5582   0.358   7.621   3.398 -0.2376 -0.3427 -0.1672
 1532W        W 5583   1.209   9.885   1.869  0.3100  0.3441  0.1816
 1533W        W 5584   2.880   3.983  12.612  0.1827  0.1366 -0.3230
 1534W        W 5585   3.265   0.659   1.635  0.0941  0.1290 -0.1137
 1535W        W 5586   6.687  10.044   2.768  0.0062  0.4427 -0.1820
 1536W        W 5587   9.229   5.836  10.332  0.0237 -0.3342 -0.0708
 1537W        W 5588   1.012   7.308   1.692 -0.0583 -0.2432  0.2428
 1538W        W 5589   4.856   2.900   2.813 -0.0580 -0.1438  0.0315
 1539W        W 5590   7.472   6.188   0.347 -0.1072 -0.2400 -0.1082
 1540W        W 5591   7.613   4.409  11.133 -0.1292  0.2143 -0.0113
 1541W        W 5592   8.514   1.057   3.284  0.1363 -0.1553 -0.4346
 1542W        W 5593   9.580   1.735   0.523 -0.0747 -0.3315 -0.3554
 1543W        W 5594   1.399   1.550   1.382  0.1750 -0.0206 -0.2899
 1544W        W 5595   0.688   1.879   2.385 -0.1964  0.0946  0.1816
 1545W        W 5596   6.120   7.234  13.030 -0.1261  0.0648 -0.1633
 1546W        W 5597   6.953   4.702   4.667 -0.0495  0.0367  0.2234
 1547W        W 5598   7.115   0.330  13.067  0.0169 -0.0597 -0.1707
 1548W        W 5599   4.806   5.591  13.655 -0.0327  0.0564 -0.3156
 1549W        W 5600   2.498   9.065   4.158 -0.0909 -0.3192 -0.3186
 1550W        W 5601   7.839   8.710   4.604 -0.1943 -0.0502 -0.4632
 1551W        W 5602   1.614   9.817  12.724 -0.2125  0.4529  0.1629
 1552W        W 5603   1.859   2.890  12.358 -0.3650  0.2295 -0.0945
 1553W        W 5604   9.962   0.681   0.242  0.1439 -0.0105  0.1373
 1554W        W 5605   1.940   5.214  12.499  0.1621  0.0369  0.0343
 1555W        W 5606   5.235   4.433   4.443  0.1140 -0.0891  0.2427
 1556W        W 5607   6.900   4.726   2.669 -0.3868  0.0531 -0.0330
 1557W        W 5608   5.567   3.709   4.167  0.0322  0.0566  0.3093
 1558W        W 5609   8.756   6.046   2.432 -0.2249  0.0648 -0.0068
 1559W        W 5610   9.608   2.478  11.070 -0.3875 -0.3434  0.0701
 1560W        W 5611   4.562   1.525   3.375  0.3380 -0.1056  0.2627
 1561W        W 5612   4.726   0.141  11.146  0.0885 -0.1282  0.1497
 1562W        W 5613   9.469   4.974  13.453 -0.0856 -0.3791 -0.0723
 1563W        W 5614   9.786   6.879  11.710  0.1481 -0.1019  0.1103
 1564W        W 5615   9.818   8.988  11.829 -0.0361 -0.3291 -0.0593
 1565W        W 5616   6.384   0.194  11.740 -0.1543  0.1255 -0.0284
 1566W        W 5617   2.555  10.042  12.730 -0.1369  0.0293  0.0932
 1567W        W 5618   2.180   1.546  13.324 -0.1168 -0.1645  0.0006
 1568W        W 5619   1.277   0.604  10.332  0.0877 -0.0236  0.0517
 1569W        W 5620   9.491   8.006   9.238 -0.0384  0.3198  0.0137
 1570W        W 5621   6.966  10.151   2.351 -0.0211 -0.1647 -0.0906
 1571W        W 5622   4.571   2.744  13.241 -0.3078  0.0660  0.2751
 1572W        W 5623  10.098   0.484   4.359 -0.2892  0.0401 -0.2069
 1573W        W 5624   5.938   1.264   1.225  0.3045  0.0934 -0.1734
 1574W        W 5625   8.184   8.258   4.998  0.0350 -0.1364 -0.0691
 1575W        W 5626   8.928   6.134  12.024  0.0215  0.1263  0.0361
 1576W        W 5627   9.907   4.201   0.777  0.2244  0.1295  0.2075
 1577W        W 5628   1.116   1.757  11.908 -0.3000  0.0196 -0.2102
 1578W        W 5629   6.615   4.122   1.305 -0.3269  0.0548  0.0402
 1579W        W 5630   1.320   0.314   2.991  0.0625  0.1327 -0.2376
 1580W        W 5631   1.233   4.278   0.487 -0.2358 -0.0047  0.4902
 1581W        W 5632   0.169   5.168   1.571 -0.0281  0.1427 -0.1607
 1582W        W 5633   6.912   0.872   5.237  0.1870 -0.4149  0.2038
 1583W        W 5634   6.761   2.900  13.698 -0.0162  0.0477 -0.0125
 1584W        W 5635   7.016   8.270   3.939 -0.0974 -0.3219 -0.0095
 1585W        W 5636   0.418   9.277  12.570 -0.3459  0.1603  0.0559
 1586W        W 5637   3.056   2.166  10.021  0.4991  0.0090 -0.1943
 1587W        W 5638   9.278   6.041   0.055 -0.1103 -0.0858 -0.5349
 1588W        W 5639   5.482   9.445  11.256  0.5221 -0.0742  0.0994
 1589W        W 5640   1.917   0.402   9.635  0.0229  0.2673 -0.3244
 1590W        W 5641   0.081   2.713  11.759 -0.2358  0.1057  0.0326
 1591W        W 5642   0.462   3.671  10.545 -0.1400 -0.0114 -0.0506
 1592W        W 5643   8.579   2.380  11.566 -0.2347 -0.0753  0.1608
 1593W        W 5644   2.068   0.685   2.532  0.1010  0.3380 -0.1605
 1594W        W 5645   0.154   5.278   9.082 -0.0151  0.2566  0.0190
 1595W        W 5646   6.702   7.001  11.703  0.0322  0.1600  0.0658
 1596W        W 5647   2.194   2.491   2.760  0.1168  0.2339 -0.0592
 1597W        W 5648   8.492   6.635   8.557 -0.0179 -0.2687 -0.5225
 1598W        W 5649  10.081   0.787   9.400  0.0132  0.0486  0.1953
 1599W        W 5650   5.282   0.189   8.961  0.0632 -0.2513 -0.1104
 1600W        W 5651   5.250   0.361  11.889  0.1423  0.1341 -0.1491
 1601W        W 5652   3.172   6.081  13.760 -0.1207 -0.0757  0.0527
 1602W        W 5653   1.919   6.393   2.236 -0.0645 -0.1601 -0.1774
 1603W        W 5654   5.596   1.865  13.014 -0.1881 -0.2223 -0.2004
 1604W        W 5655   2.830   7.247  13.257  0.0956  0.0383  0.2193
 1605W        W 5656   5.582   1.388   4.798  0.0270  0.0077  0.1369
 1606W        W 5657   4.784   2.803  11.281  0.0228  0.1991 -0.1864
 1607W        W 5658   2.183   9.334  12.078 -0.3653 -0.1673  0.0852
 1608W        W 5659  10.084   9.558   3.193  0.4329 -0.1548 -0.4755
 1609W        W 5660   7.495   6.770  12.249  0.3368  0.0382 -0.2210
 1610W        W 5661   8.449   1.724   3.782 -0.2626  0.2235 -0.2072
 1611W        W 5662   1.928   2.973   5.572  0.1401  0.2560 -0.2652
 1612W        W 5663   3.692   9.974  12.843  0.1537  0.1299  0.1196
 1613W        W 5664   3.550   3.590   3.421  0.2553  0.0361 -0.0190
 1614W        W 5665   1.274   2.287  11.481 -0.2481 -0.0822  0.1558
 1615W        W 5666   9.593   5.074   8.672 -0.0282  0.0515 -0.0054
 1616W        W 5667   8.201   6.380   0.423 -0.1175 -0.1100  0.0744
 1617W        W 5668   5.519   2.276   1.246 -0.1001 -0.2924  0.2457
 1618W        W 5669   2.478   7.757   2.195  0.1555  0.0144  0.0706
 1619W        W 5670   9.999   7.886   4.391  0.1350  0.0176  0.3268
 1620W        W 5671   0.729   1.968  10.389  0.3105  0.0965  0.3483
 1621W        W 5672   5.382   3.054   4.139  0.0633  0.1542  0.1206
 1622W        W 5673   2.129   6.143  13.278  0.0180 -0.1247 -0.0557
 1623W        W 5674   6.741   3.989   3.168  0.1871  0.0583  0.1714
 1624W        W 5675   7.676   4.952   0.676  0.1257 -0.0113 -0.0425
 1625W        W 5676   4.155   0.097   4.462 -0.0463  0.0460  0.0715
 1626W        W 5677   2.632   0.582  10.747  0.0220  0.1102 -0.0668
 1627W        W 5678   4.883   1.661   1.644  0.2459  0.0413  0.2602
 1628W        W 5679   1.784   5.935   3.757 -0.1694  0.1137  0.0968
 1629W        W 5680   4.700   8.044  13.183 -0.1238  0.0414 -0.2145
 1630W        W 5681   9.939   7.128   2.833  0.0241 -0.0887  0.0819
 1631W        W 5682   0.927   3.002  11.769  0.0370  0.1232 -0.1636
 1632W        W 5683   9.666   2.668   1.353 -0.0776 -0.0636 -0.0664
 1633W        W 5684   3.728   0.260   0.496 -0.0818 -0.0318  0.1201
 1634W        W 5685   3.810  10.071   3.708  0.2280 -0.2453  0.3783
 1635W        W 5686   4.670   9.250   3.247  0.0365  0.1888  0.1108
 1636W        W 5687   6.318   7.484  13.511  0.2185 -0.5438  0.2082
 1637W        W 5688   1.787   2.025   3.707 -0.5269  0.0363  0.0782
 1638W        W 5689   3.278   4.317   0.374 -0.1822 -0.0278  0.2003
 1639W        W 5690   8.709   9.901  11.906  0.4047 -0.2697 -0.3336
 1640W        W 5691   1.191   3.669   9.778  0.2025 -0.0324 -0.2848
 1641W        W 5692   6.364   7.217  10.442  0.1569  0.1061 -0.1898
 1642W        W 5693   0.145   4.451   8.856  0.1249  0.0381 -0.0062
 1643W        W 5694   4.694   8.833  12.419 -0.1084  0.0274  0.1950
 1644W        W 5695   2.492   5.383  13.726 -0.3898  0.1662 -0.3176
 1645W        W 5696   2.865   7.373  13.969  0.0482 -0.0694 -0.3152
 1646W        W 5697   8.011   5.437   8.496 -0.1755  0.2656 -0.1070
 1647W        W 5698   4.318   9.724   0.890 -0.2257 -0.2049 -0.0847
 1648W        W 5699   7.405   6.587  10.817 -0.0580 -0.0649 -0.2466
 1649W        W 5700   0.951   1.605   3.091 -0.1157 -0.1940  0.0344
 1650W        W 5701   0.691   6.704   9.799 -0.2053  0.0179 -0.4085
 1651W        W 5702   7.626   5.862   0.752 -0.0689 -0.2796  0.0066
 1652W        W 5703   8.603   4.153   0.730 -0.0265  0.0669 -0.1398
 1653W        W 5704   3.776   7.858  12.583 -0.0764 -0.0239  0.0362
 1654W        W 5705   8.606   2.678   1.654  0.0960  0.0100 -0.0455
 1655W        W 5706   7.017   5.939   4.537  0.1410  0.0818 -0.0063
 1656W        W 5707   4.449   7.862   2.428 -0.0619  0.0120  0.1657
 1657W        W 5708   3.848   7.042  12.080 -0.1333 -0.2013  0.2083
 1658W        W 5709   7.027   6.367   0.506  0.1270 -0.0283 -0.0092
 1659W        W 5710   8.806   3.569   3.788 -0.1725 -0.2253  0.0833
 1660W        W 5711   7.473   0.725  12.939 -0.2727  0.1029  0.0428
 1661W        W 5712   9.858   6.747   4.853 -0.1992  0.1208 -0.0405
 1662W        W 5713   5.753   3.108  13.524 -0.1067 -0.0592  0.2186
 1663W        W 5714   8.482   2.444  12.859 -0.2896  0.1109  0.3134
 1664W        W 5715   5.129   3.576  12.488 -0.2958  0.4141  0.3986
 1665W        W 5716   0.970   3.401   2.181  0.1897  0.1375 -0.0520
 1666W        W 5717   8.654   1.762   0.342 -0.1545  0.0865 -0.0453
 1667W        W 5718   4.570   4.442   2.675  0.0521  0.0007  0.0294
 1668W        W 5719   5.118   2.170   1.581 -0.1106  0.2715  0.3331
 1669W        W 5720   6.307   0.009  10.018  0.0114 -0.1437  0.1209
 1670W        W 5721   5.136   3.861   4.357 -0.0150 -0.0870  0.2845
 1671W        W 5722   2.994   7.967   1.961  0.0178 -0.2367  0.3085
 1672W        W 5723   0.322   0.201  11.708  0.1650 -0.3156  0.3702
 1673W        W 5724   9.693   4.593   2.443 -0.1011 -0.3025  0.0043
 1674W        W 5725   7.877   2.639   1.445  0.2304 -0.1496  0.0980
 1675W        W 5726   5.476   1.426   0.316 -0.2702 -0.1336 -0.1233
 1676W        W 5727   7.570   9.236  11.560 -0.2590  0.0196  0.3217
 1677W        W 5728   2.377   4.992  12.285  0.0625  0.1061 -0.0145
 1678W        W 5729   1.225   7.632   0.477 -0.0049  0.1314 -0.3105
 1679W        W 5730   7.570   4.240  12.040  0.1437 -0.1188  0.0887
 1680W        W 5731  10.038   5.566   0.195 -0.0505  0.1392  0.2109
 1681W        W 5732   5.181   7.440   0.876  0.0052  0.2935 -0.0624
 1682W        W 5733   2.848   2.589  11.520  0.0659 -0.2524  0.3017
 1683W        W 5734   2.289   9.470   2.147 -0.1041  0.0212 -0.4163
 1684W        W 5735   3.461   6.304   0.601  0.0555 -0.0379  0.1638
 1685W        W 5736   7.382   0.037  13.485  0.0696 -0.2609 -0.0194
 1686W        W 5737   0.199   0.038   1.437 -0.0161  0.1410 -0.0453
 1687W        W 5738   1.426   0.914  10.769  0.0218  0.2247 -0.0358
 1688W        W 5739   1.055   3.221  12.379 -0.3094  0.1703 -0.3083
 1689W        W 5740   4.738   3.672   0.171  0.0549 -0.2659  0.3066
 1690W        W 5741   9.144   5.770  11.251  0.0232 -0.0300  0.0772
 1691W        W 5742   5.541   0.513   1.948 -0.1374 -0.1214  0.0014
 1692W        W 5743   2.941   5.349  12.915 -0.1020  0.1368  0.0045
 1693W        W 5744   7.732   8.389  11.461 -0.1826  0.1602  0.3707
 1694W        W 5745   6.418   1.159  10.766 -0.3545  0.0215  0.1648
 1695W        W 5746   7.632  10.049  10.449 -0.2851 -0.1956  0.0234
 1696W        W 5747   0.438   9.520   9.323  0.0893 -0.2128  0.0110
 1697W        W 5748   1.116   5.209  10.739 -0.1123 -0.4055 -0.4944
 1698W        W 5749   7.390   4.549   1.832  0.1589 -0.1716  0.0739
 1699W        W 5750   4.510   9.899  13.109 -0.1477  0.0656  0.1615
 1700W        W 5751   8.855   0.530  10.346  0.2207 -0.2024  0.0166
 1701W        W 5752   1.639   0.996  13.518 -0.2604  0.3264 -0.0997
 1702W        W 5753   5.247   9.182   0.917 -0.0487  0.4332 -0.1380
 1703W        W 5754   7.028   5.338  13.208  0.0174  0.2197  0.0565
 1704W        W 5755   0.258   4.953  10.370  0.2242 -0.0017 -0.0038
 1705W        W 5756   7.876   8.853   3.238  0.0626 -0.0840 -0.0872
 1706W        W 5757   9.803   7.765  11.141 -0.1256  0.1395 -0.1589
 1707W        W 5758   7.888   9.111  10.381  0.3130  0.0672  0.1268
 1708W        W 5759   2.938   0.119  11.019  0.0281  0.0487  0.1369
 1709W        W 5760   9.175   8.952  10.488 -0.2212  0.2520  0.5181
 1710W        W 5761   1.958   9.802   0.677 -0.1421 -0.3840 -0.2781
 1711W        W 5762   0.008   8.541   9.801 -0.1357  0.2284 -0.1373
 1712W        W 5763   7.781   5.967   4.415  0.2969 -0.0102  0.0630
 1713W        W 5764   7.791   5.841  11.875  0.3059 -0.0202 -0.0132
 1714W        W 5765   6.376   4.675  10.017  0.3125 -0.0978 -0.1652
 1715W        W 5766   9.566  10.081  12.924  0.0385  0.0722  0.0240
 1716W        W 5767   8.233   1.224   3.969 -0.1310 -0.2743  0.0067
 1717W        W 5768   2.135   3.901  10.900 -0.2975 -0.1814  0.2928
 1718W        W 5769   0.762   0.341   3.476 -0.2010 -0.3180 -0.1682
 1719W        W 5770   2.880   0.503  13.694  0.0005 -0.3020 -0.2232
 1720W        W 5771   8.970   6.881  11.250  0.1780 -0.0742  0.2743
 1721W        W 5772   5.737  10.143   0.142 -0.1352 -0.1970  0.1549
 1722W        W 5773   2.050   0.277  11.470 -0.1293  0.1736 -0.2841
 1723W        W 5774   4.291   4.137   3.447 -0.1048 -0.1852 -0.0661
 1724W        W 5775   6.772   7.360   1.570 -0.3494  0.0093 -0.0380
 1725W        W 5776   8.350   1.015   9.703  0.0141 -0.3569 -0.2355
 1726W        W 5777   0.166   4.260   9.869  0.0891  0.0304 -0.2500
 1727W        W 5778   4.371   3.041   3.188 -0.2779  0.1931 -0.2143
 1728W        W 5779   3.510   2.819  11.447  0.0488 -0.1194  0.0644
 1729W        W 5780   7.029   1.622   1.563 -0.0046 -0.2338 -0.2434
 1730W        W 5781   4.811   5.857   0.275  0.2474  0.2461 -0.0978
 1731W        W 5782   2.740   3.703   4.052  0.1844 -0.3153 -0.1460
 1732W        W 5783   2.650   1.553  12.564 -0.0507  0.0355  0.1247
 1733W        W 5784  10.078   1.255   3.862 -0.0960 -0.0364 -0.0770
 1734W        W 5785   6.207   1.293  13.601  0.1526 -0.0901 -0.1530
 1735W        W 5786   8.069   7.767   5.239 -0.1503  0.0355  0.0439
 1736W        W 5787   2.411  10.052   5.303 -0.4580  0.1669 -0.1322
 1737W        W 5788   6.560   8.670  12.075  0.1000 -0.0045 -0.1686
 1738W        W 5789   5.396   4.184  11.980 -0.6547 -0.1843  0.2123
 1739W        W 5790   1.460   0.063   9.705 -0.0077  0.3021 -0.0700
 1740W        W 5791   1.311   7.793  13.872 -0.3982 -0.1810 -0.2916
 1741W        W 5792   6.131   6.220   2.598  0.0267 -0.1476 -0.1954
 1742W        W 5793   4.873   0.802  13.806  0.1543 -0.1555  0.3913
 1743W        W 5794   3.160   5.979   2.635 -0.1457  0.2569 -0.0039
 1744W        W 5795   3.054   6.774   2.727  0.1295  0.0806  0.0628
 1745W        W 5796   2.254   3.498   9.235 -0.0577 -0.0860  0.1410
 1746W        W 5797   3.054   3.464   1.450 -0.0198  0.3212  0.0410
 1747W        W 5798   4.585   3.718  13.189  0.2597  0.1689 -0.1214
 1748W        W 5799   8.136   0.154   0.874  0.1436 -0.0490 -0.0418
 1749W        W 5800   4.236   4.513   2.232 -0.1105 -0.0912 -0.1491
 1750W        W 5801   5.053   1.445   3.641  0.1617 -0.1008  0.2427
 1751W        W 5802   2.163   7.514   2.559  0.1063  0.1841 -0.2332
 1752W        W 5803   7.382   7.182  13.742 -0.0630 -0.0837  0.1674
 1753W        W 5804   3.747   1.116   4.144  0.0409  0.3743  0.1912
 1754W        W 5805   1.643   5.075   2.777  0.3266  0.2190  0.0572
 1755W        W 5806   5.211   4.441   3.498  0.1269  0.2722  0.0421
 1756W        W 5807   5.451   8.778   0.185  0.0692  0.2174 -0.3330
 1757W        W 5808   9.556   4.550  13.066 -0.2257 -0.0528  0.0025
 1758W        W 5809   4.152   6.872   0.442  0.0297  0.1960 -0.0710
 1759W        W 5810   9.064   4.389  13.858  0.1660 -0.0578  0.0115
 1760W        W 5811   1.532   3.150   4.479  0.2832  0.4115 -0.2322
 1761W        W 5812   2.452   6.475   0.287  0.1563  0.0048  0.0171
 1762W        W 5813   9.589   0.431   0.647  0.0334 -0.1605 -0.0171
 1763W        W 5814   7.680   1.379  13.766  0.1362 -0.0974 -0.1587
 1764W        W 5815   2.899   4.509   2.123 -0.1919  0.2163  0.0767
 1765W        W 5816   3.942   0.978   2.285  0.0089 -0.0393 -0.1075
 1766W        W 5817   9.348   5.704   3.185  0.1614  0.1827 -0.1311
 1767W        W 5818   2.626   7.480  11.242 -0.3108 -0.3456  0.2703
 1768W        W 5819   5.224   1.447   9.708 -0.2137 -0.1478  0.2313
 1769W        W 5820   1.138   6.077   1.242 -0.0031  0.1001  0.0598
 1770W        W 5821   3.405   6.192   3.192 -0.4069 -0.0814  0.0053
 1771W        W 5822   7.296   0.365  12.591  0.0863  0.1819  0.1195
 1772W        W 5823   9.592   8.616   1.762  0.0733  0.1013  0.1350
 1773W        W 5824  10.076   1.812   9.643 -0.0414 -0.2361  0.2187
 1774W        W 5825   3.372   9.437   3.701 -0.0793 -0.0439  0.1708
 1775W        W 5826   7.924   9.893   9.066  0.0140  0.1692  0.0879
 1776W        W 5827   3.245   9.448   1.303  0.1701 -0.3488 -0.2517
 1777W        W 5828   8.308   9.632   2.035 -0.0678 -0.2086  0.2466
 1778W        W 5829   5.609   1.432  12.766 -0.1460 -0.1025 -0.0233
 1779W        W 5830   2.136   1.490  11.738  0.0507 -0.0087 -0.1743
 1780W        W 5831   8.673   7.393  11.831 -0.5645  0.1551 -0.2759
 1781W        W 5832   9.864   3.171  12.603  0.0758 -0.0773 -0.2536
 1782W        W 5833   0.411   8.815  10.154 -0.0462  0.1012  0.0116
 1783W        W 5834   9.317   7.387  10.255 -0.0453 -0.0262 -0.2676
 1784W        W 5835   2.806   4.705  10.833 -0.1140  0.2918 -0.1958
 1785W        W 5836   1.665   4.887  13.773  0.0793  0.1513  0.0046
 1786W        W 5837   6.629   0.921  12.377  0.1249  0.3990 -0.2600
 1787W        W 5838   9.213  10.123  10.218 -0.1593 -0.0279 -0.0220
 1788W        W 5839   0.836   9.005   9.991 -0.0354 -0.1398  0.1393
 1789W        W 5840   9.220   0.717  11.209 -0.1572 -0.4144 -0.0063
 1790W        W 5841   0.096   7.651  12.532 -0.0711  0.2655 -0.3013
 1791W        W 5842   9.739   0.022  11.930  0.1874 -0.2401  0.0555
 1792W        W 5843   8.792   6.337   2.863  0.1439 -0.0172 -0.0885
 1793W        W 5844   8.018   2.245   0.066 -0.0609  0.2230  0.3735
 1794W        W 5845   7.910   8.642   9.593  0.1822 -0.0233 -0.0512
 1795W        W 5846   1.655   0.974  12.465 -0.3424  0.3184  0.0745
 1796W        W 5847   0.894   5.767  12.740 -0.1775  0.0222 -0.0276
 1797W        W 5848   6.661   5.037  10.034 -0.0742  0.0143  0.0800
 1798W        W 5849   6.183   9.294   1.776 -0.0338 -0.1184 -0.1467
 1799W        W 5850   2.149   8.145  11.926 -0.1365  0.0600 -0.1151
 1800W        W 5851   4.169   5.024   2.176 -0.3429  0.0958 -0.1337
 1801W        W 5852   2.855   2.699   3.264  0.2162 -0.0864  0.0114
 1802W        W 5853   9.343   4.954   2.353 -0.0744  0.2138 -0.1641
 1803W        W 5854   7.612   2.506   4.728  0.1655 -0.1738 -0.1636
 1804W        W 5855   8.262   8.028  10.885 -0.2982  0.1776 -0.1267
 1805W        W 5856   2.527   5.549  11.419 -0.0299  0.2828  0.1746
 1806W        W 5857   3.464   1.151  11.978 -0.2258 -0.0158 -0.3173
 1807W        W 5858   8.054   8.485  11.067  0.1340 -0.1787 -0.0378
 1808W        W 5859   2.622   7.604  13.530 -0.0043  0.1359  0.0176
 1809W        W 5860   5.314   6.098   2.884 -0.1637  0.1027  0.0442
 1810W        W 5861   8.764   8.265  10.096  0.0310  0.3729  0.2585
 1811W        W 5862   5.077   6.744   2.032 -0.2920 -0.2467 -0.3759
 1812W        W 5863   2.321   4.647  10.582 -0.1403  0.0316 -0.1134
 1813W        W 5864   5.325   5.313   4.283  0.1859  0.1573  0.1357
 1814W        W 5865   3.100   9.208  10.390 -0.0096  0.0709  0.0596
 1815W        W 5866   5.261   5.703   1.264  0.0702  0.2261 -0.0545
 1816W        W 5867   1.046   6.273  13.307 -0.3756 -0.0024 -0.1431
 1817W        W 5868   6.659   4.448   3.098 -0.0932 -0.0628  0.2563
 1818W        W 5869   7.317   7.237   2.139  0.0906  0.1467  0.1756
 1819W        W 5870   2.074   4.127   2.654 -0.1254 -0.0675 -0.1551
 1820W        W 5871   5.781   8.699   3.822  0.1538 -0.1312 -0.1746
 1821W        W 5872   4.719   4.728  10.774  0.1457 -0.1021 -0.0235
 1822W        W 5873   5.807   5.854   4.975  0.1085 -0.2590 -0.1966
 1823W        W 5874   3.401   8.237  12.364  0.0473  0.1487 -0.1579
 1824W        W 5875   2.171   2.950   4.648 -0.1132 -0.0114  0.1320
 1825W        W 5876   4.090   9.062   0.160 -0.1021  0.0491 -0.2375
 1826W        W 5877   7.290   3.073  12.719  0.5102 -0.3908 -0.0803
 1827W        W 5878   1.436   4.140   9.168  0.0478  0.0861  0.0657
 1828W        W 5879   9.537   2.436   3.252  0.1388 -0.1541 -0.0423
 1829W        W 5880   1.401   6.475  11.780  0.1010 -0.0968 -0.0111
 1830W        W 5881   5.618   4.969   4.571  0.0542 -0.0454 -0.0466
 1831W        W 5882  10.101   1.436  10.574  0.1584 -0.0632 -0.0722
 1832W        W 5883   1.868   3.988  10.118  0.0887 -0.0429  0.2678
 1833W        W 5884   2.818   5.527   0.149 -0.0668 -0.0406  0.1559
 1834W        W 5885   8.472   2.284  11.083 -0.1806  0.3215 -0.0685
 1835W        W 5886   0.880  10.080  12.617  0.1383  0.3826  0.1816
 1836W        W 5887   8.221  10.002  12.572 -0.2724 -0.1129 -0.0747
 1837W        W 5888   1.794   7.202  13.307  0.1409 -0.0804 -0.2607
 1838W        W 5889   2.128   2.748   9.384  0.2421 -0.1082 -0.2638
 1839W        W 5890   0.132   8.937   0.072  0.2205  0.3783 -0.1020
 1840W        W 5891   1.803  10.081   3.050 -0.0968 -0.0849 -0.1348
 1841W        W 5892   8.189   5.047   0.834 -0.2217  0.0421  0.2757
 1842W        W 5893   7.297   6.756   9.579  0.0587 -0.0121 -0.2622
 1843W        W 5894   0.693  10.136   1.230  0.2042  0.1057  0.1007
 1844W        W 5895   8.822   8.024   0.974  0.1337 -0.1638  0.3950
 1845W        W 5896   8.891   2.748  12.686 -0.0174 -0.3259 -0.0650
 1846W        W 5897   8.870   3.621   0.578  0.1953 -0.2170 -0.1661
 1847W        W 5898   3.860   6.789   2.546  0.0187 -0.1644 -0.1398
 1848W        W 5899   1.154   3.143  10.056 -0.2886 -0.0596 -0.0491
 1849W        W 5900   6.354   0.915   4.226  0.2421  0.2633  0.1692
 1850W        W 5901   9.562   6.613  10.535  0.0515 -0.1818 -0.3781
 1851W        W 5902   3.709   7.254   2.523  0.0710 -0.1794  0.0251
 1852W        W 5903   0.901   0.875   4.435  0.0199 -0.0139 -0.0151
 1853W        W 5904   0.049   9.753   9.450 -0.1836 -0.2189  0.1228
 1854W        W 5905   3.335   8.627   2.489 -0.2002 -0.0656  0.3577
 1855W        W 5906   6.847   5.320   9.676  0.0005 -0.2752  0.0441
 1856W        W 5907   0.021   3.935   4.984  0.1294 -0.1751  0.0658
 1857W        W 5908   9.726   2.298   3.698  0.2321 -0.0998 -0.1696
 1858W        W 5909   8.395   4.181   9.347  0.1478 -0.1281 -0.4129
 1859W        W 5910   0.371   4.609   2.070 -0.0375 -0.0133 -0.4078
 1860W        W 5911   9.627   2.873  11.736 -0.3238  0.1982  0.0614
 1861W        W 5912   4.951   5.975   1.545 -0.5432  0.0106 -0.0008
 1862W        W 5913   0.427   0.267   9.827 -0.0701 -0.0489  0.1202
 1863W        W 5914   2.888   2.136   9.546 -0.2579 -0.0202  0.0238
 1864W        W 5915   4.120   6.302   1.325 -0.1106  0.2027 -0.0607
 1865W        W 5916   1.475   9.002   2.544  0.1399  0.1339 -0.2327
 1866W        W 5917   2.541   6.180   3.445  0.2922 -0.0677  0.1556
 1867W        W 5918   7.561   8.437  13.333 -0.0195  0.1523  0.0818
 1868W        W 5919   0.199   1.091   3.249  0.0093  0.1998 -0.0810
 1869W        W 5920   8.213   2.697  11.458  0.1292 -0.1875  0.0143
 1870W        W 5921   4.525   1.117  12.242  0.0076 -0.0412 -0.0355
 1871W        W 5922   5.732   5.589  12.695  0.0939  0.2978  0.2547
 1872W        W 5923   6.277   6.655  13.959  0.0619  0.1169 -0.1471
 1873W        W 5924   1.983   6.822   1.429 -0.0767 -0.1824 -0.1435
 1874W        W 5925   2.427   1.500   4.198 -0.1275 -0.2098 -0.1150
 1875W        W 5926   5.092   9.178  13.316 -0.3411 -0.1818  0.2540
 1876W        W 5927   0.697   0.857   3.438 -0.0322  0.0965 -0.0432
 1877W        W 5928   7.636   6.164  11.060 -0.0832 -0.2111  0.0452
 1878W        W 5929   5.831   5.568   0.632 -0.2351 -0.0138  0.0243
 1879W        W 5930   7.549   4.103   0.975 -0.1307 -0.1446  0.2859
 1880W        W 5931   4.688   3.289  11.080  0.1009 -0.2051 -0.1321
 1881W        W 5932   9.452   4.209  12.727  0.2230  0.4366  0.0614
 1882W        W 5933   9.466   7.738   4.852  0.2583  0.2841 -0.4107
 1883W        W 5934   2.408   2.079   0.273  0.0599  0.1406 -0.5141
 1884W        W 5935   8.304   6.700   0.051  0.0288  0.2823  0.1400
 1885W        W 5936   5.601   6.011   9.812 -0.0451  0.5351  0.5589
 1886W        W 5937   9.646   8.890  13.680  0.3798  0.1030  0.1328
 1887W        W 5938   7.629   0.109   0.903  0.2594 -0.4045  0.2414
 1888W        W 5939   3.556   2.661  13.619  0.0728  0.0432 -0.2353
 1889W        W 5940   5.524   1.237   3.835 -0.0260 -0.2412 -0.3475
 1890W        W 5941   8.856   9.710   0.225 -0.1806 -0.1174  0.0737
 1891W        W 5942   2.106   5.233  10.474  0.1588  0.2191 -0.1135
 1892W        W 5943   1.937   7.266  13.767 -0.0287 -0.0597 -0.0861
 1893W        W 5944   0.669   5.999  13.112 -0.3222  0.0803  0.0181
 1894W        W 5945   4.546   4.546   9.685 -0.0300  0.1170 -0.3304
 1895W        W 5946   2.539   0.249   3.189  0.0290  0.1556  0.0948
 1896W        W 5947   9.802   0.944   1.175 -0.2348  0.2407  0.1253
 1897W        W 5948   3.145  10.045  10.058 -0.1968  0.0923  0.0423
 1898W        W 5949   3.337   3.110   4.243 -0.0161  0.2034  0.1267
 1899W        W 5950   4.438   8.959  12.941  0.1591  0.5879  0.3977
 1900W        W 5951   0.824   7.954  13.488  0.2209  0.0892 -0.2070
 1901W        W 5952   9.512   1.512   2.403  0.0774  0.2728 -0.0277
 1902W        W 5953   7.377   1.540  12.525 -0.0926 -0.0060 -0.1856
 1903W        W 5954   7.484   2.540  12.565  0.1688 -0.1048 -0.1646
 1904W        W 5955   2.508   4.265  12.934  0.2195  0.0060  0.0747
 1905W        W 5956   4.073   0.634   9.253  0.2633  0.1185  0.1043
 1906W        W 5957   3.929   4.618  11.423 -0.0634 -0.0378 -0.0479
 1907W        W 5958   6.435   9.146  12.336  0.3538  0.2704  0.3426
 1908W        W 5959   8.893   9.965   9.807  0.0351  0.2966 -0.1911
 1909W        W 5960   8.280   6.043   3.427  0.0299 -0.2027  0.1060
 1910W        W 5961   8.333   2.999   4.596 -0.1958 -0.1910 -0.1149
 1911W        W 5962   0.226   2.401   3.821  0.0249 -0.0276 -0.1192
 1912W        W 5963   4.914   9.158  12.822  0.3868 -0.0787  0.5141
 1913W        W 5964   8.887   3.902  11.648 -0.0637  0.1076  0.0101
 1914W        W 5965   6.558   2.887   2.484 -0.0213 -0.0779 -0.3281
 1915W        W 5966   7.997   4.756  12.772 -0.2355 -0.0011 -0.0806
 1916W        W 5967   1.103   9.188   0.020  0.0166  0.2386 -0.3174
 1917W        W 5968   9.775   5.267   3.226 -0.2050  0.1960 -0.3985
 1918W        W 5969   8.481   6.895  11.058  0.6174 -0.1305  0.0394
 1919W        W 5970   0.760   6.919   1.124 -0.2023  0.1068  0.1289
 1920W        W 5971   0.692   6.484  12.158 -0.1125 -0.3348  0.2399
 1921W        W 5972   8.630   4.599   9.598  0.0608 -0.2470  0.3016
 1922W        W 5973   5.980  10.010  11.830 -0.3855  0.0654 -0.0105
 1923W        W 5974   7.275   0.170   0.572  0.0879 -0.0812  0.1659
 1924W        W 5975   4.940   4.849   0.844  0.0196  0.1317 -0.0247
 1925W        W 5976   7.046   4.909  11.807 -0.0556  0.3807 -0.1678
 1926W        W 5977   6.920   6.480  11.836  0.3572 -0.1497  0.0909
 1927W        W 5978   3.060   8.639  12.673 -0.0539  0.2172 -0.3908
 1928W        W 5979   1.105  10.038   1.378 -0.1229 -0.0781 -0.1180
 1929W        W 5980   3.142   8.041   2.861 -0.0917  0.1274  0.1684
 1930W        W 5981  10.142   0.122  13.869  0.1592 -0.0676 -0.0471
 1931W        W 5982   1.723   9.633   2.798 -0.0559 -0.0624 -0.0663
 1932W        W 5983   7.839   4.716   3.514  0.0221  0.1122  0.3994
 1933W        W 5984   0.567   5.911   2.357  0.0644 -0.0324 -0.0256
 1934W        W 5985   9.596   6.873   1.965  0.0786 -0.2153  0.0725
 1935W        W 5986   6.571   8.304  11.279 -0.0040 -0.2266 -0.1704
 1936W        W 5987   5.894   0.675   2.265 -0.3810  0.0774  0.0699
 1937W        W 5988  10.163   0.775   3.657  0.0561  0.0273  0.0466
 1938W        W 5989   2.234   2.845   3.853 -0.1737  0.0404 -0.0541
 1939W        W 5990   0.605   0.447  12.492 -0.0452 -0.0801 -0.3637
 1940W        W 5991   4.821   5.337  11.780  0.1294  0.2191 -0.1161
 1941W        W 5992   4.222   0.277  10.322  0.1979 -0.1221 -0.0676
 1942W        W 5993   8.435   1.310   4.578  0.0177 -0.2184 -0.0782
 1943W        W 5994   5.178   7.769  13.749  0.0807  0.1605 -0.1556
 1944W        W 5995   3.373   3.093   5.975  0.2212 -0.0182  0.1955
 1945W        W 5996   3.046   8.565   1.233 -0.2333  0.0946  0.1502
 1946W        W 5997   6.230   5.025   3.869  0.0041 -0.1423  0.1018
 1947W        W 5998   4.963   8.639   3.798  0.1792 -0.1991 -0.3072
 1948W        W 5999   9.203   0.233  10.621 -0.1033 -0.0773  0.1640
 1949W        W 6000   4.609   2.424   1.285  0.1981  0.0419  0.2795
 1950W        W 6001   0.331   5.825   3.988  0.1366  0.0541 -0.0120
 1951W        W 6002   7.054   3.878  12.914 -0.3417  0.1021  0.2053
 1952W        W 6003   5.048   0.578   2.563  0.1770 -0.1570 -0.3751
 1953W        W 6004   6.533   2.789  13.171  0.3094  0.0672 -0.0254
 1954W        W 6005   6.036   6.789   4.683 -0.1604  0.0953 -0.0280
 1955W        W 6006   2.937   7.830   3.767 -0.0691 -0.0521  0.2293
 1956W        W 6007   5.825   6.480  10.937  0.1679  0.0499 -0.0537
 1957W        W 6008   5.956   9.819   0.442 -0.0577 -0.2379 -0.0826
 1958W        W 6009   6.034   8.704   9.399  0.0445  0.2146  0.0191
 1959W        W 6010   5.032   4.457  12.367  0.3229  0.0603 -0.0443
 1960W        W 6011   1.386   4.563   2.498  0.3130  0.0964  0.1439
 1961W        W 6012   4.889   3.274   4.324  0.0685 -0.2815  0.0301
 1962W        W 6013   1.403   1.723  11.148  0.2389 -0.0962  0.0063
 1963W        W 6014   9.379   7.309   1.965 -0.0453 -0.2617 -0.0447
 1964W        W 6015   7.231   5.147   2.759 -0.0040 -0.0164 -0.0826
 1965W        W 6016   1.676   0.720  11.176 -0.1457 -0.1746  0.1123
 1966W        W 6017   1.362   7.348   3.522 -0.3987 -0.0306 -0.5051
 1967W        W 6018   1.987   3.193   9.602  0.0702  0.0057  0.1391
 1968W        W 6019   5.804   6.135   4.023  0.1427 -0.2965 -0.0159
 1969W        W 6020   8.033   9.559   9.539 -0.1044 -0.1590  0.0543
 1970W        W 6021   0.858   9.133  12.535  0.1206  0.0680  0.2281
 1971W        W 6022   6.512   0.211  11.032  0.0615  0.1003  0.0995
 1972W        W 6023   6.457   4.787   4.548  0.0356 -0.0725 -0.3204
 1973W        W 6024   1.807   2.673   0.860 -0.0163 -0.0553  0.2393
 1974W        W 6025   5.661   9.693   3.509 -0.0392  0.1579 -0.0718
 1975W        W 6026   6.646   5.245  12.069 -0.0281 -0.2895 -0.2293
 1976W        W 6027   7.282   2.183  10.404 -0.0331 -0.1730 -0.1589
 1977W        W 6028   4.472   0.394   1.241 -0.1408  0.2834 -0.0810
 1978W        W 6029   8.579   4.012   0.242  0.0609 -0.1446  0.1008
 1979W        W 6030   8.596   1.549  11.768 -0.1787  0.0509 -0.2076
 1980W        W 6031   1.204   5.221  13.333  0.3244 -0.2648  0.2093
 1981W        W 6032   3.763   2.610   0.802 -0.0696 -0.0061  0.0464
 1982W        W 6033   8.001   5.916  13.323 -0.0077 -0.0001 -0.1422
 1983W        W 6034   3.478   0.954   1.987 -0.0624  0.0415  0.4163
 1984W        W 6035   3.682   2.532   9.459 -0.1034  0.2250  0.1061
 1985W        W 6036   5.596   5.263   4.960  0.0259  0.1337 -0.0918
 1986W        W 6037   4.840   4.080   3.756 -0.0614 -0.2190  0.4016
 1987W        W 6038   8.247   1.248  13.104 -0.2488  0.2323 -0.0210
 1988W        W 6039   3.165   5.158  11.021  0.4665  0.1400  0.3035
 1989W        W 6040   3.469   9.932  11.016  0.0251 -0.3437  0.2030
 1990W        W 6041   2.203   1.328  12.302 -0.0930 -0.4108 -0.1881
 1991W        W 6042   4.290   3.747  10.972  0.1941 -0.0234  0.0938
 1992W        W 6043   8.081   2.715   5.025  0.1762  0.1920 -0.0324
 1993W        W 6044   8.035   4.354   2.490 -0.1369  0.1321 -0.1229
 1994W        W 6045   2.406   1.082  11.008 -0.4403 -0.1282  0.1901
 1995W        W 6046   1.625   8.248  11.458 -0.3900 -0.0522 -0.4050
 1996W        W 6047   0.757   7.955  10.150 -0.0033 -0.2758 -0.0875
 1997W        W 6048   5.544   2.224   3.733  0.0040 -0.0558  0.0354
 1998W        W 6049   8.871   5.064   0.669 -0.0991 -0.1880  0.0146
 1999W        W 6050   8.759   9.770  13.220 -0.1526 -0.1875  0.2565
 2000W        W 6051   2.919   3.179   4.052  0.2556  0.2650  0.0708
 2001W        W 6052   1.770   8.089  10.922  0.0634 -0.0058 -0.1186
 2002W        W 6053   4.274   6.169   2.245 -0.0584  0.0867  0.1029
 2003W        W 6054   7.782   9.310   4.624  0.0140 -0.1721  0.1021
 2004W        W 6055   5.123   3.146  13.733 -0.0878  0.0097  0.1086
 2005W        W 6056   2.085   0.320  10.480 -0.2497  0.1350 -0.0201
 2006W        W 6057   4.762   9.037   9.729 -0.2184 -0.0172 -0.1081
 2007W        W 6058  10.108   8.974   1.941 -0.1222 -0.0954  0.0045
 2008W        W 6059   4.139   2.824  13.543  0.2443  0.1577 -0.0219
 2009W        W 6060   0.496   2.946  11.389  0.2735 -0.1702 -0.1875
 2010W        W 6061   7.789  10.140   1.903 -0.0110 -0.2474  0.1747
 2011W        W 6062   4.417   5.956  13.850  0.1013  0.2493  0.2575
 2012W        W 6063   7.186   9.086   9.833  0.0383  0.2013 -0.0481
 2013W        W 6064   9.736   2.684   4.901  0.2665 -0.0688  0.2323
 2014W        W 6065   5.045   7.660   1.889 -0.1305 -0.1853  0.1919
 2015W        W 6066   4.729   2.832   4.036 -0.0814 -0.1857  0.0787
 2016W        W 6067   2.634   2.524  13.463  0.3582  0.2940 -0.0605
 2017W        W 6068   3.064   6.680  12.411  0.2602 -0.0006 -0.2255
 2018W        W 6069   9.572   9.707   0.714  0.1328 -0.0341  0.0396
 2019W        W 6070   5.380   8.367   2.018  0.0714 -0.1472 -0.1716
 2020W        W 6071   0.257   9.379  13.797  0.1559 -0.0301 -0.0879
 2021W        W 6072   3.325   4.301   5.158  0.2291 -0.2095  0.1635
 2022W        W 6073   2.518   9.814   3.312 -0.2224  0.0275  0.2573
 2023W        W 6074   8.146   7.378   4.474  0.4242  0.0093 -0.0285
 2024W        W 6075   8.603   9.305   5.549  0.1524  0.1347 -0.1236
 2025W        W 6076   1.707   2.564   9.540 -0.0499 -0.0237 -0.0325
 2026W        W 6077   4.965   7.228   1.258  0.0808 -0.2706  0.3245
 2027W        W 6078   5.937   4.231  12.244  0.2562 -0.1350 -0.0880
 2028W        W 6079   7.313   7.295   4.011 -0.0667 -0.0862 -0.0015
 2029W        W 6080   3.674   6.060   0.154 -0.0026 -0.1365  0.2903
 2030W        W 6081   9.530   2.423  11.932 -0.0672 -0.1839  0.5348
 2031W        W 6082   0.143   8.418   2.292  0.0737  0.1476  0.0536
 2032W        W 6083   6.460   4.433  10.975  0.2604  0.1587  0.3520
 2033W        W 6084   1.624   9.479   0.836 -0.0080  0.2084  0.0311
 2034W        W 6085   0.439   0.065   1.901  0.0517 -0.2190 -0.1276
 2035W        W 6086   2.607   4.680  11.942  0.2108  0.2978  0.0971
 2036W        W 6087   0.665   7.791   4.256  0.0747  0.2191  0.0639
 2037W        W 6088  10.115   5.754  12.100 -0.1008  0.0609  0.1872
 2038W        W 6089   7.755   2.699   0.298 -0.2611  0.0048  0.0083
 2039W        W 6090   2.526   1.419  11.433 -0.1469 -0.2193 -0.2040
 2040W        W 6091   6.798   4.174  13.172  0.0002  0.2622  0.1269
 2041W        W 6092   7.862   1.580   1.086 -0.1883  0.0750  0.2298
 2042W        W 6093  10.121   2.404   0.133  0.1628  0.2782  0.3127
 2043W        W 6094   7.076   0.231   2.747  0.0071 -0.1248 -0.0560
 2044W        W 6095   0.594   4.910   0.229 -0.1798  0.0036 -0.1776
 2045W        W 6096   4.972   9.574   0.680 -0.2009 -0.0590 -0.0552
 2046W        W 6097   9.466   2.157   4.920  0.2952 -0.0701  0.1488
 2047W        W 6098   2.309   4.710   0.511  0.1473 -0.0300  0.0745
 2048W        W 6099   1.956   5.535   2.934  0.0255  0.0051  0.1532
 2049W        W 6100   0.621   3.925  13.722 -0.0801 -0.1980  0.2501
 2050W        W 6101   6.474   8.410   0.763  0.3394 -0.2638  0.1851
 2051W        W 6102   6.676   1.820   4.658  0.0275  0.1149  0.2008
 2052W        W 6103   0.904   4.688  10.982 -0.0291 -0.1579  0.2333
 2053W        W 6104   0.165   7.822   0.777 -0.2021 -0.1278  0.1226
 2054W        W 6105   9.035   7.050   9.370 -0.0941  0.0190 -0.0532
 2055W        W 6106   1.115   8.109   0.751  0.1759  0.0825  0.0658
 2056W        W 6107   2.804   8.965   0.477 -0.3231 -0.2618  0.0029
 2057W        W 6108   0.803   9.264   2.450  0.0154  0.0937  0.1470
 2058W        W 6109   9.030   4.845   2.810  0.0376  0.3016 -0.2847
 2059W        W 6110   0.176   2.235   4.302  0.2205 -0.2628 -0.0873
 2060W        W 6111   1.758   5.733  13.265  0.3966 -0.1204  0.0237
 2061W        W 6112   3.715   2.132   4.163  0.2818  0.0345  0.0331
 2062W        W 6113   4.225   3.018   5.658 -0.2896  0.0390  0.2104
 2063W        W 6114   5.669   5.718   0.151 -0.3423  0.3904  0.0524
 2064W        W 6115   3.229   3.211  12.909 -0.0955 -0.2253 -0.2787
 2065W        W 6116   0.206   5.181   4.020 -0.0680  0.3677 -0.3366
 2066W        W 6117   1.207  10.040   0.889 -0.1223 -0.0685  0.0458
 2067W        W 6118   8.297   3.758  11.648 -0.1183 -0.0367  0.1735
 2068W        W 6119   1.056   5.346  10.056  0.0710  0.0452  0.0364
 2069W        W 6120   0.704   7.143   2.164 -0.0470  0.0651  0.1075
 2070W        W 6121   8.737   2.850  11.660  0.2289  0.2880  0.3974
 2071W        W 6122   7.760   5.134   3.812 -0.0210  0.1958  0.1949
 2072W        W 6123   0.707   8.472  11.328 -0.0179  0.0981  0.1869
 2073W        W 6124   5.735   4.841  10.995  0.5111  0.1773 -0.0201
 2074W        W 6125   9.714   2.035  12.221  0.0359 -0.0910  0.3965
 2075W        W 6126   1.078   1.801   9.698 -0.0281  0.0534  0.2587
 2076W        W 6127   3.555   8.565   2.055 -0.3678  0.1688 -0.1469
 2077W        W 6128   5.533   0.622   5.410  0.1540 -0.0050  0.1380
 2078W        W 6129   2.574   1.011   3.271 -0.0995 -0.0295 -0.0553
 2079W        W 6130   2.284   8.481   2.707  0.2222 -0.1998 -0.0569
 2080W        W 6131   8.862   1.487   3.242 -0.3087  0.2107  0.1337
 2081W        W 6132   0.686   5.418   2.602  0.0192  0.1518  0.1118
 2082W        W 6133   7.707   3.115  13.928  0.1921  0.0142 -0.0944
 2083W        W 6134   9.623   8.264  12.318 -0.0239 -0.1421 -0.1680
 2084W        W 6135   7.806   2.084   2.267 -0.3393 -0.1133 -0.0510
 2085W        W 6136   8.744   1.277   8.877 -0.0325 -0.0894 -0.0165
 2086W        W 6137   8.458   0.761   2.743 -0.0156  0.1322  0.2670
 2087W        W 6138   0.307   1.715   2.148 -0.3907  0.3925 -0.0517
 2088W        W 6139   2.149   2.352  11.346  0.4887  0.1767 -0.1197
 2089W        W 6140   8.538   9.558   4.316  0.0299 -0.1380 -0.1273
 2090W        W 6141   5.926   3.183   4.813  0.0508  0.0480 -0.0706
 2091W        W 6142   8.848   9.000   1.401 -0.4383 -0.0812 -0.2135
 2092W        W 6143   8.298   4.315   3.492 -0.1701 -0.0035 -0.1422
 2093W        W 6144   5.354   4.069  12.545 -0.1652  0.1245  0.4755
 2094W        W 6145   2.718   1.676   0.521  0.0531 -0.0349  0.1332
 2095W        W 6146   9.548   1.088   3.152  0.0526 -0.0227  0.2841
 2096W        W 6147   7.440   7.616   0.507 -0.1004  0.0859  0.0646
 2097W        W 6148   9.104   6.610  10.797 -0.5077  0.3394  0.0383
 2098W        W 6149   9.735   1.076   2.654 -0.0050 -0.0326  0.0600
 2099W        W 6150   6.254   6.481   8.589 -0.0399  0.1866  0.0044
 2100W        W 6151   6.004   6.781   9.698 -0.3394  0.0667 -0.2649
 2101W        W 6152   5.989   1.614   2.595 -0.1788 -0.0074 -0.3545
 2102W        W 6153   0.403   0.407   1.029  0.0938  0.1227  0.1656
 2103W        W 6154   6.751   2.054  13.185 -0.2950 -0.0198  0.3492
 2104W        W 6155   9.950   3.646  12.521 -0.1776  0.1634  0.1975
 2105W        W 6156   4.671   7.589   1.534 -0.2876  0.0732  0.3258
 2106W        W 6157   4.749   7.765  10.448 -0.1465  0.0647  0.1468
 2107W        W 6158   7.917   6.586  12.744 -0.0670  0.1235  0.1978
 2108W        W 6159   6.488   0.496  10.077 -0.0764  0.0631  0.0254
 2109W        W 6160   3.531   6.036  12.029  0.2015 -0.1594 -0.0010
 2110W        W 6161   5.236   4.589   9.189  0.1560 -0.2385  0.0464
 2111W        W 6162   8.223   7.042   3.024 -0.1044  0.0461 -0.0322
 2112W        W 6163   1.876   8.771  13.054  0.0415 -0.0655 -0.1186
 2113W        W 6164   7.961   5.703   2.754 -0.1660 -0.1462 -0.0127
 2114W        W 6165   5.421   2.377   0.606 -0.1650  0.1721 -0.0094
 2115W        W 6166   9.448   1.498   3.529  0.4498 -0.0514  0.1371
 2116W        W 6167   5.561   3.874   2.158  0.1505 -0.0618  0.3121
 2117W        W 6168   0.435   2.911   0.721  0.0278  0.1364 -0.0599
 2118W        W 6169   1.437   5.145   3.281 -0.1084 -0.0076 -0.0907
 2119W        W 6170   6.133   3.888   1.364 -0.1158  0.3247  0.3061
 2120W        W 6171   0.424   2.998   2.033  0.1147  0.1324 -0.0126
 2121W        W 6172   3.815   9.582   1.123  0.3726 -0.3138  0.2231
 2122W        W 6173  10.150   5.437  13.672 -0.3857  0.0923  0.0939
 2123W        W 6174   3.054   0.532   4.030 -0.0937  0.0561 -0.0170
 2124W        W 6175   0.218   2.272   2.768 -0.0423  0.0496 -0.1070
 2125W        W 6176   6.811   8.448  13.655 -0.1098 -0.3704  0.0874
 2126W        W 6177   5.262   8.436  13.785  0.4077  0.1464 -0.0731
 2127W        W 6178   8.841   2.495   0.715  0.1691 -0.0646  0.0049
 2128W        W 6179   6.934   7.792  10.251 -0.2328  0.0879  0.3343
 2129W        W 6180   7.724   4.664   0.219 -0.1125  0.1710  0.0862
 2130W        W 6181   5.311   4.689  12.002 -0.1179  0.0694  0.1630
 2131W        W 6182   3.809   1.196   1.153  0.1833  0.0351  0.1631
 2132W        W 6183   4.411   0.012   4.852  0.1111  0.0784 -0.1530
 2133W        W 6184   4.471   1.750   1.371 -0.0950 -0.1853 -0.1843
 2134W        W 6185   1.152   8.052  11.312 -0.0855 -0.1244 -0.0842
 2135W        W 6186   4.665   4.631   0.487 -0.0512 -0.0786 -0.3286
 2136W        W 6187   5.944   7.464   0.224 -0.2871  0.2478  0.0108
 2137W        W 6188   2.130   5.750   3.378 -0.0674  0.3692  0.2222
 2138W        W 6189   5.673   6.115  12.765 -0.0993 -0.3244  0.0751
 2139W        W 6190   4.087   5.023   3.140  0.1817 -0.2026 -0.1198
 2140W        W 6191   4.530   8.706  13.783 -0.1821  0.0603 -0.2898
 2141W        W 6192   0.655   1.469   2.647  0.1886 -0.2280  0.1153
 2142W        W 6193   2.506   3.388  13.063  0.1004 -0.1234  0.0397
 2143W        W 6194   5.518   8.865  13.658  0.0563  0.1292  0.0077
 2144W        W 6195   8.570   5.930   0.431  0.0946 -0.0061  0.3883
 2145W        W 6196   2.392   4.531  12.528  0.0198 -0.1191 -0.2333
 2146W        W 6197   7.788   6.035   9.092 -0.2719  0.0046  0.0576
 2147W        W 6198   1.222   1.073   5.527  0.1522  0.1886  0.0829
 2148W        W 6199   4.152   5.654  10.256 -0.3625 -0.0653 -0.2153
 2149W        W 6200   7.394   6.119   2.158  0.0339 -0.1478 -0.3081
 2150W        W 6201   1.108   7.437   4.075 -0.0615  0.0571 -0.1880
 2151W        W 6202   7.626   6.096   8.122 -0.3811 -0.0558  0.2045
 2152W        W 6203   4.370   3.283   0.095  0.1194  0.0863  0.2457
 2153W        W 6204  10.007   7.474   0.036  0.2415 -0.3005  0.1101
 2154W        W 6205   7.010   8.993   5.562 -0.3413  0.4568 -0.2043
 2155W        W 6206   0.989   6.112  11.080 -0.1532  0.2041 -0.2030
 2156W        W 6207   3.160   7.535  12.087 -0.2515 -0.0933  0.0235
 2157W        W 6208   4.834   3.110   0.174  0.4331 -0.0337  0.2845
 2158W        W 6209   1.191   5.221  12.083 -0.1216 -0.0206  0.0521
 2159W        W 6210   4.691   5.808   2.173  0.2583 -0.2717 -0.1977
 2160W        W 6211   4.400   2.080   0.996 -0.2587  0.1837 -0.0785
 2161W        W 6212   0.198   2.312   1.427  0.0434  0.1825 -0.2881
 2162W        W 6213   9.098   7.630   2.927 -0.1020  0.0067  0.2575
 2163W        W 6214   8.757   2.159  13.356  0.0383 -0.0492  0.0741
 2164W        W 6215   4.260   9.933   3.559 -0.0964  0.0154  0.0125
 2165W        W 6216   7.487   1.779   1.839  0.3403 -0.1467  0.1763
 2166W        W 6217   8.433   4.213  11.468  0.1853 -0.0470  0.0341
 2167W        W 6218   5.891   8.174  11.802  0.2326 -0.0755  0.3728
 2168W        W 6219   2.650   3.181   2.575  0.1338 -0.1347  0.3221
 2169W        W 6220   5.944   8.513   9.875 -0.1035 -0.1862 -0.0514
 2170W        W 6221   6.768   8.325   4.513 -0.0554  0.1897  0.2962
 2171W        W 6222   6.650   4.721   3.568 -0.0428 -0.1876 -0.0209
 2172W        W 6223   8.216   3.969  12.437 -0.1379  0.0388 -0.4023
 2173W        W 6224   5.055   9.951   2.946  0.0416 -0.0556  0.1299
 2174W        W 6225   5.916   9.301  10.989 -0.2199 -0.1150  0.0195
 2175W        W 6226   7.117   3.402   5.548  0.1702 -0.1008 -0.3221
 2176W        W 6227   6.215   8.505   3.261  0.1559 -0.2654 -0.1883
 2177W        W 6228   8.367   0.359  10.508  0.2290  0.2961 -0.0422
 2178W        W 6229   9.105   0.719  12.640  0.0813 -0.2172  0.0188
 2179W        W 6230   1.795   4.740  10.380  0.1317 -0.1631 -0.1900
 2180W        W 6231   6.376   6.444  13.498 -0.3810  0.0768  0.1416
 2181W        W 6232   4.236   0.365   2.906 -0.0221  0.0525 -0.0514
 2182W        W 6233   9.926   5.829   8.776  0.2797 -0.1376 -0.1148
 2183W        W 6234   9.910   9.139   3.945 -0.1370  0.2219 -0.2090
 2184W        W 6235   5.926   7.936   9.930 -0.0432 -0.3822  0.0049
 2185W        W 6236   3.451   7.045   0.976  0.0237 -0.0939 -0.1838
 2186W        W 6237   4.285   2.842  11.977 -0.0286 -0.0656 -0.2157
 2187W        W 6238   9.272   2.770   9.657  0.1599 -0.0486 -0.2384
 2188W        W 6239   7.279   2.672  11.236  0.6243  0.0920  0.3959
 2189W        W 6240   7.490   9.894   0.526 -0.0863 -0.1490 -0.0112
 2190W        W 6241   6.247   4.878   0.331 -0.1160  0.0769  0.4543
 2191W        W 6242   5.613   6.562  11.412  0.1159 -0.0933  0.4236
 2192W        W 6243   5.738   3.597  12.601 -0.1547 -0.0956 -0.2241
 2193W        W 6244   7.726   5.137   2.579 -0.0198  0.0408  0.1224
 2194W        W 6245   5.487   1.732  10.673 -0.0520 -0.0184 -0.2029
 2195W        W 6246   5.699   1.120   5.395 -0.2188 -0.0123 -0.0409
 2196W        W 6247   3.670   4.169  12.870 -0.3440  0.1481  0.2075
 2197W        W 6248   1.040   2.442  11.892  0.2227  0.0062 -0.1382
 2198W        W 6249   0.594   3.973   1.023  0.2849 -0.0672  0.2209
 2199W        W 6250   4.756   4.251  10.564 -0.3101  0.0145  0.1483
 2200W        W 6251   9.760   2.231  13.156  0.2897  0.1206 -0.0158
 2201W        W 6252  10.108   2.856  13.867 -0.1277  0.0791  0.1049
 2202W        W 6253   8.031   5.319  10.740  0.1751 -0.3146  0.1859
 2203W        W 6254   6.847   4.590  10.247 -0.2297 -0.0652 -0.1630
 2204W        W 6255   5.599   1.385   4.304 -0.3474 -0.0403  0.2427
 2205W        W 6256   5.722   2.092  10.351 -0.1156 -0.0260  0.0103
 2206W        W 6257   4.405   5.821   1.263 -0.0428 -0.4329 -0.5514
 2207W        W 6258   6.740   2.060  10.316 -0.1788 -0.0447  0.2934
 2208W        W 6259   6.261   2.979  12.640 -0.2365 -0.1774  0.2818
 2209W        W 6260   7.976   6.735   2.705 -0.2081 -0.3247 -0.4176
 2210W        W 6261   6.518   0.971   1.414  0.2439  0.2477 -0.2187
 2211W        W 6262   2.538   0.503   1.042  0.0223  0.2073 -0.0730
 2212W        W 6263   5.095   0.456  10.797  0.2134  0.1829 -0.2342
 2213W        W 6264   7.025   5.963  11.653 -0.1120  0.1488  0.1043
 2214W        W 6265   5.988   2.670   3.242  0.4932 -0.1011  0.2146
 2215W        W 6266   2.924   4.311   9.298 -0.1630 -0.1791 -0.0216
 2216W        W 6267   0.411   0.015  10.993 -0.1590 -0.0045 -0.1265
 2217W        W 6268   0.565   7.112  11.869  0.2311 -0.1448  0.0361
 2218W        W 6269   0.450   4.822   9.224 -0.0720  0.1293  0.1459
 2219W        W 6270   1.862   2.681   3.534  0.1029 -0.3818  0.0927
 2220W        W 6271   1.093   7.331  10.618  0.1546 -0.0384  0.2092
 2221W        W 6272   9.032   6.098   4.595 -0.2044 -0.0209 -0.2813
 2222W        W 6273   2.168   0.318  13.924 -0.0234 -0.1175 -0.1980
 2223W        W 6274   2.589   3.621   9.685 -0.1306 -0.1344 -0.0511
 2224W        W 6275   7.222   3.316   9.730 -0.1968 -0.1231 -0.2284
 2225W        W 6276   6.201   1.181   9.546  0.0737 -0.0820 -0.0150
 2226W        W 6277   7.711   0.592   4.441 -0.1988 -0.0763  0.0887
 2227W        W 6278   7.385   5.728  10.446 -0.0929 -0.4315 -0.1124
 2228W        W 6279   3.402   1.288  10.136  0.1201  0.2411  0.0785
 2229W        W 6280   6.980   7.208   0.151 -0.0216 -0.1574  0.0426
 2230W        W 6281   1.756   9.283  13.935  0.1143 -0.0084  0.1812
 2231W        W 6282   4.536   4.762  12.422 -0.0143  0.2495 -0.3456
 2232W        W 6283   7.367   0.620   0.877 -0.2101  0.0967  0.5607
 2233W        W 6284   7.585   3.079  10.004  0.3303  0.0441 -0.0253
 2234W        W 6285   9.772   3.168   3.681 -0.0667 -0.1367  0.0862
 2235W        W 6286   4.595   5.861  10.984 -0.0225 -0.1429 -0.1141
 2236W        W 6287   4.907   3.385  11.533 -0.1279 -0.0021 -0.1175
 2237W        W 6288   7.050   5.996  10.185  0.2460 -0.1310  0.0197
 2238W        W 6289   9.000   4.623   0.314 -0.3303  0.2589 -0.2994
 2239W        W 6290   6.503   1.591   5.042 -0.0015 -0.4152  0.1578
 2240W        W 6291   1.812   3.095   2.088  0.0301 -0.1102 -0.0082
 2241W        W 6292   3.928   2.837   9.058  0.2790  0.1869  0.2124
 2242W        W 6293   5.025   0.369  13.975 -0.1713  0.0119  0.0068
 2243W        W 6294   8.206   0.751  13.550  0.2173  0.1610  0.1862
 2244W        W 6295   4.042   3.132  10.649  0.3480 -0.0909  0.1582
 2245W        W 6296   8.954   0.994  13.977 -0.0178 -0.0958 -0.1547
 2246W        W 6297   8.534   1.156  13.472 -0.3504 -0.1807 -0.2650
 2247W        W 6298   9.691   0.297   3.043  0.2146  0.0229 -0.3167
 2248W        W 6299   3.373   6.436   3.948 -0.2048  0.2105 -0.2003
 2249W        W 6300   3.766   9.967   1.427  0.1810  0.0111  0.0358
 2250W        W 6301   8.699   0.663   9.610  0.0910 -0.0484 -0.2207
 2251W        W 6302   8.116   0.477   4.167  0.0244 -0.0992 -0.2819
 2252W        W 6303   4.889   0.001  11.780  0.0065  0.0148  0.1473
 2253W        W 6304   7.297   4.721  10.858  0.5025 -0.2231  0.0344
 2254W        W 6305   1.868   4.233  12.727 -0.1932  0.1209 -0.1265
 2255W        W 6306   6.434   9.699  13.132  0.4003 -0.1229 -0.0775
 2256W        W 6307   6.760   0.801  11.061 -0.0714 -0.1775 -0.0875
 2257W        W 6308   8.483   2.951  12.993 -0.0557  0.2635 -0.0054
 2258W        W 6309   1.404   2.762   9.246 -0.2801 -0.0040  0.2902
 2259W        W 6310   3.239   4.771   3.164  0.1086 -0.1675 -0.1441
 2260W        W 6311   3.555   0.164   2.379  0.0178  0.1924  0.2418
 2261W        W 6312   0.917   5.576   2.193  0.1107  0.2371  0.0762
 2262W        W 6313   8.083   3.460  11.295  0.0055 -0.0936  0.0589
 2263W        W 6314   5.916   4.091   3.788  0.0428  0.2739 -0.1640
 2264W        W 6315   5.055   4.747   2.516  0.0438 -0.0382  0.1316
 2265W        W 6316   7.635   9.758   1.019 -0.0719 -0.1734  0.4388
 2266W        W 6317   4.629   6.438   9.837 -0.0764 -0.0261  0.1769
 2267W        W 6318   5.051   2.486  10.897 -0.0085  0.2682 -0.0878
 2268W        W 6319   5.539   3.490  10.981 -0.4027 -0.4482  0.1313
 2269W        W 6320   9.255   7.401   5.163 -0.0308 -0.3604  0.1435
 2270W        W 6321   2.123   9.871   1.341 -0.1227 -0.1535 -0.1804
 2271W        W 6322   1.113   1.701  10.412  0.2418 -0.1991 -0.0494
 2272W        W 6323   1.470   5.913   4.219 -0.0051 -0.2910  0.3364
 2273W        W 6324   0.534   9.569  13.316  0.2125 -0.1865 -0.3115
 2274W        W 6325   4.982   2.682   9.565  0.0010 -0.0422 -0.0148
 2275W        W 6326   7.476   8.759   1.384 -0.1563  0.0457  0.2669
 2276W        W 6327   2.989   7.738   2.408  0.0326  0.0746  0.0037
 2277W        W 6328   7.479   7.179   3.403  0.0284  0.0174 -0.0953
 2278W        W 6329   3.963   4.133  12.079  0.0846 -0.2576  0.1705
 2279W        W 6330   2.714   2.359   0.610 -0.0134 -0.0955 -0.2076
 2280W        W 6331   4.927   1.862   1.160  0.3218  0.0238  0.0519
 2281W        W 6332   9.344   3.491   3.764 -0.0379  0.1930  0.0609
 2282W        W 6333   3.434   1.634   4.167  0.2260 -0.0888  0.0872
 2283W        W 6334   9.420  10.077   9.714  0.1046 -0.1986  0.1347
 2284W        W 6335   1.385   5.816   0.749  0.0347  0.2749 -0.0233
 2285W        W 6336   7.241   0.621   2.420  0.1162 -0.1463  0.3357
 2286W        W 6337   9.565   1.535  10.637 -0.2315 -0.0298  0.2095
 2287W        W 6338   1.937   6.451   0.170  0.1682  0.1872 -0.1713
 2288W        W 6339   3.954   6.961   2.990 -0.0826  0.2511 -0.0563
 2289W        W 6340   1.853   1.100  11.946  0.1183  0.1156 -0.2913
 2290W        W 6341   1.766   7.631  10.750  0.3048 -0.2114 -0.0189
 2291W        W 6342   5.011   3.518   1.126  0.0858  0.1051 -0.2163
 2292W        W 6343   8.862   8.855   0.423 -0.1558 -0.3202  0.0326
 2293W        W 6344   2.127   6.623  13.081  0.1000 -0.2454 -0.0993
 2294W        W 6345   5.836   3.825  10.712  0.1521 -0.1293 -0.0204
 2295W        W 6346   0.040   4.098   3.919 -0.1190 -0.2022 -0.4317
 2296W        W 6347   6.513   9.178   2.197 -0.1089 -0.2197 -0.0551
 2297W        W 6348   2.113   5.555   1.860 -0.1983 -0.0894  0.1685
 2298W        W 6349   5.649   5.046  12.538 -0.1510  0.0210 -0.2659
 2299W        W 6350   6.877   1.201  10.489 -0.0125 -0.2197  0.2732
 2300W        W 6351   2.414   7.428  13.957  0.4144 -0.0435 -0.0800
 2301W        W 6352   8.306   3.950  13.019 -0.1001 -0.1159 -0.1261
 2302W        W 6353   7.098   3.588  10.162 -0.1764  0.0605  0.1547
 2303W        W 6354   6.672   1.093  13.395 -0.2999  0.0706  0.0441
 2304W        W 6355   9.932   2.176  12.695 -0.2482 -0.1060  0.0077
 2305W        W 6356   0.837   6.902  10.412 -0.0649  0.0696  0.0506
 2306W        W 6357   1.892   9.430   1.882 -0.1883  0.0145  0.0203
 2307W        W 6358   8.015   8.712   2.019 -0.2202 -0.2646 -0.0467
 2308W        W 6359   7.858   4.381  10.034 -0.3563 -0.1819  0.0228
 2309W        W 6360   5.023   9.964   1.607 -0.0451 -0.3447  0.0491
 2310W        W 6361   6.397   0.434  12.357  0.0869  0.0252 -0.2628
 2311W        W 6362   7.583   5.341  11.158 -0.3250  0.2103 -0.0146
 2312W        W 6363   4.861   1.684  13.422 -0.0550 -0.0823  0.0661
 2313W        W 6364   2.449   9.061  13.014  0.3494  0.2307 -0.4581
 2314W        W 6365   0.349   9.309  11.633  0.2617 -0.2910 -0.1105
 2315W        W 6366   5.895   8.390   1.661  0.0765  0.0987 -0.2966
 2316W        W 6367   4.297   9.233   1.673  0.2081  0.4512  0.2977
 2317W        W 6368   8.186   3.924   5.518 -0.1073  0.0495  0.0715
 2318W        W 6369  10.136   5.172  10.017 -0.1724  0.1865  0.2514
 2319W        W 6370   3.916   3.592   0.612  0.3762  0.2182  0.2394
 2320W        W 6371   8.915   5.685   2.905 -0.0588  0.0181  0.1592
 2321W        W 6372   8.929   7.922   9.605 -0.0528  0.1098  0.3683
 2322W        W 6373   9.466   8.030  10.807  0.1125 -0.1033  0.1755
 2323W        W 6374   9.708   8.327  13.567  0.1399  0.2079 -0.0036
 2324W        W 6375   3.540   3.736  11.648  0.0462 -0.1602 -0.2019
 2325W        W 6376   0.882   9.725   0.938 -0.1709 -0.1777 -0.3303
 2326W        W 6377   5.399   6.497   3.983  0.0124 -0.1456 -0.0640
 2327W        W 6378   4.264   2.039   0.010 -0.1289 -0.3906 -0.3659
 2328W        W 6379   3.459   0.606   3.174 -0.1224 -0.0951 -0.1107
 2329W        W 6380   1.729   3.721   2.692  0.3307  0.0007 -0.1215
 2330W        W 6381   6.115   2.713  11.237  0.1458 -0.1146  0.1989
 2331W        W 6382  10.143   1.773   5.441 -0.0974 -0.0901  0.0462
 2332W        W 6383   8.348   6.547   2.182 -0.0054  0.0870 -0.2851
 2333W        W 6384   4.991   6.523  12.580 -0.2615 -0.0709 -0.0155
 2334W        W 6385   1.460   9.558  13.171 -0.1326 -0.1694  0.1200
 2335W        W 6386   4.305   0.865  11.852 -0.2034 -0.2351 -0.0543
 2336W        W 6387   6.756   2.261   2.975 -0.3318 -0.1202  0.1916
 2337W        W 6388   6.519   5.234   3.359 -0.2455  0.0836  0.3268
 2338W        W 6389   3.132   6.347  11.973  0.1785 -0.0209 -0.0605
 2339W        W 6390   7.066   4.351   9.179  0.1629  0.0678  0.1323
 2340W        W 6391   6.865   1.981   2.621 -0.0250  0.2774  0.4105
 2341W        W 6392   6.486   2.683   3.009 -0.1399  0.0593  0.0789
 2342W        W 6393   6.431   2.808   0.689  0.2139  0.3795  0.0168
 2343W        W 6394   7.498   8.123   3.812  0.1909  0.1159 -0.4296
 2344W        W 6395   0.600   8.583   2.438 -0.0191 -0.0642 -0.4586
 2345W        W 6396   8.150   6.564   4.836  0.2283  0.0874 -0.0753
 2346W        W 6397   6.170   0.791   3.243 -0.1914  0.2442 -0.0496
 2347W        W 6398   9.747   0.569   2.529 -0.0938  0.2893 -0.1701
 2348W        W 6399   2.839   1.035  12.011  0.0449  0.2716  0.1547
 2349W        W 6400   2.789   4.149   2.658 -0.0333 -0.0904  0.2319
 2350W        W 6401   6.262   5.619   3.427 -0.0387 -0.2521 -0.4674
 2351W        W 6402   8.560   1.691  12.311 -0.1868  0.3580  0.0694
 2352W        W 6403   6.083   0.631   1.279 -0.3922  0.0032 -0.0924
 2353W        W 6404   9.123   4.933  12.975 -0.0231 -0.0803 -0.0375
 2354W        W 6405   9.211   0.002  12.280 -0.3726 -0.0788 -0.4642
 2355W        W 6406   3.717   5.629   3.962 -0.0143 -0.2420 -0.2854
 2356W        W 6407   6.249   3.021  13.692 -0.1659  0.1887 -0.0883
 2357W        W 6408   4.398   3.078  10.226 -0.2271  0.0598 -0.0779
 2358W        W 6409   2.110   8.181   0.344 -0.0659 -0.0255  0.0543
 2359W        W 6410   6.833   4.220  13.663 -0.3105 -0.0401  0.1665
 2360W        W 6411   7.214   2.006   0.201  0.2873 -0.1212 -0.5171
 2361W        W 6412   1.990  10.169   0.376 -0.1011 -0.2324  0.0524
 2362W        W 6413   8.994   3.218  12.491 -0.1129  0.0828 -0.1550
 2363W        W 6414   8.579   1.942   3.324 -0.1405  0.2857  0.0913
 2364W        W 6415   9.055   8.187   1.489 -0.0110  0.0762  0.1549
 2365W        W 6416   8.171  10.035  10.326  0.3862  0.1203 -0.0851
 2366W        W 6417   8.217   5.599   1.956 -0.1460  0.2129  0.0367
 2367W        W 6418   4.863   5.524  10.182 -0.0774  0.1890  0.1691
 2368W        W 6419   8.462   9.810  10.852  0.0318  0.3734 -0.2931
 2369W        W 6420   8.121   5.192   2.862  0.1886 -0.1608 -0.3452
 2370W        W 6421   3.000   2.699  13.759 -0.1423 -0.0297  0.0290
 2371W        W 6422   3.467   3.032   9.518 -0.1109 -0.0188 -0.1521
 2372W        W 6423   2.802   6.860  11.973  0.1755  0.0801 -0.0960
 2373W        W 6424   3.867   5.490   4.443  0.0674 -0.0081  0.2380
 2374W        W 6425   4.715   5.792  13.060  0.0242  0.1894  0.0475
 2375W        W 6426   6.034   2.217   1.355 -0.1767 -0.2991  0.3548
 2376W        W 6427   7.839   1.656  10.033 -0.3410  0.1098  0.0741
 2377W        W 6428   7.499   9.644  11.932  0.0731  0.0670  0.2259
 2378W        W 6429   4.428   1.672   1.908 -0.1949 -0.2226 -0.0632
 2379W        W 6430   5.847   9.213  11.644  0.1571  0.1666 -0.0847
 2380W        W 6431   6.609   9.583   2.612 -0.1221  0.2151  0.3598
 2381W        W 6432   0.014   6.518  13.308  0.4016  0.0116 -0.1218
 2382W        W 6433   8.260   3.115   3.089 -0.2155  0.0590  0.0327
 2383W        W 6434   0.323   9.754   3.393 -0.1353  0.1198 -0.1337
 2384W        W 6435   3.936   2.911  10.121  0.0497 -0.0878 -0.3719
 2385W        W 6436   9.520   3.822   0.735 -0.0243  0.1464 -0.0281
 2386W        W 6437   0.716   7.284  13.162  0.2632 -0.1321 -0.2517
 2387W        W 6438   9.383   2.077  12.707  0.1052  0.1730  0.0360
 2388W        W 6439   6.288   1.127  11.991  0.0333 -0.0429  0.1186
 2389W        W 6440   7.110   0.955   8.905 -0.1494 -0.0360  0.0775
 2390W        W 6441   6.597   2.029   0.756  0.2243  0.1668  0.0601
 2391W        W 6442   4.930   8.315   3.106 -0.2630  0.0810 -0.1877
 2392W        W 6443   4.845   7.870   0.119  0.1337  0.0077 -0.1406
 2393W        W 6444   8.504   0.903   4.251 -0.0602  0.1601  0.1638
 2394W        W 6445   8.286   6.598  11.772  0.1045 -0.2682 -0.1874
 2395W        W 6446   9.301   2.209  13.786 -0.1143 -0.0606  0.0902
 2396W        W 6447   2.133   1.524   0.891  0.2999 -0.1259  0.2648
 2397W        W 6448   2.536   8.239   3.081 -0.0116 -0.0743  0.1276
 2398W        W 6449   0.031   5.540   3.629 -0.0156 -0.1623  0.0454
 2399W        W 6450   1.054   5.103   4.097 -0.1668 -0.0012  0.2441
 2400W        W 6451   6.606   6.181  10.087 -0.1566 -0.0297  0.3270
 2401W        W 6452   0.852   1.577   0.620  0.0979  0.0523  0.1525
 2402W        W 6453   2.047   4.114  13.219  0.0763 -0.2902 -0.2498
 2403W        W 6454   7.910   5.650   3.228  0.2059 -0.1107  0.0038
 2404W        W 6455   4.922   5.426   3.439  0.2267 -0.2931  0.0733
 2405W        W 6456   6.814   8.829  12.473 -0.0459  0.1734 -0.5765
 2406W        W 6457   9.170   2.606   1.479 -0.1361  0.3143  0.1193
 2407W        W 6458   6.030   8.353  11.313  0.1574 -0.0061  0.2858
 2408W        W 6459   9.787   2.246  13.702 -0.0238 -0.0613  0.0309
 2409W        W 6460   6.291   0.160  12.886  0.1610 -0.0281  0.0120
 2410W        W 6461   3.789   1.632   2.193  0.0199  0.0279 -0.0367
 2411W        W 6462   8.382   7.929   1.979 -0.0412 -0.0952 -0.2158
 2412W        W 6463   7.182   6.947  12.585  0.1173  0.0718  0.3689
 2413W        W 6464   2.050   1.900   2.882 -0.4103  0.1084  0.1189
 2414W        W 6465   2.782   6.643  11.138 -0.0899 -0.1084 -0.1320
 2415W        W 6466  10.086   1.995   0.430 -0.1723 -0.3108  0.1732
 2416W        W 6467   0.077  10.113   3.098  0.2614 -0.0306  0.2982
 2417W        W 6468   9.343   4.674  11.735 -0.1429 -0.1711  0.0567
 2418W        W 6469   8.348   3.691   0.547  0.0164 -0.1584 -0.3155
 2419W        W 6470   4.669   4.836  11.884  0.2451  0.2175  0.3682
 2420W        W 6471   7.130   4.423  11.874  0.4538 -0.2275  0.0749
 2421W        W 6472   8.748   2.001  11.932 -0.0827  0.1131  0.2836
 2422W        W 6473   7.911   5.511   4.605  0.1479  0.1778  0.1749
 2423W        W 6474   0.921   4.533   4.152  0.0742 -0.0694 -0.0109
 2424W        W 6475   8.219   3.427  12.892  0.1968 -0.1878  0.2546
 2425W        W 6476   0.044   0.725  12.876 -0.0488  0.0808  0.0225
 2426W        W 6477   3.538   1.239   9.283 -0.1660  0.0160 -0.1412
 2427W        W 6478   4.667   2.192  13.199  0.2664  0.0984  0.0354
 2428W        W 6479   1.086   7.334   1.115  0.0593  0.3106 -0.1424
 2429W        W 6480   4.882   4.019  12.222  0.0696 -0.3023 -0.0123
 2430W        W 6481   7.647   8.025   0.820 -0.1829 -0.0962  0.2946
 2431W        W 6482   7.945   0.047   3.893 -0.1043  0.2918  0.0995
 2432W        W 6483   8.105   9.433  12.533  0.0624  0.2282 -0.3601
 2433W        W 6484   0.294   1.896   4.892  0.2729  0.0523  0.0496
 2434W        W 6485  10.059   7.081  13.491 -0.2164  0.0556  0.2798
 2435W        W 6486   7.729   1.821   0.104 -0.0451  0.0204 -0.2332
 2436W        W 6487   5.144   1.538   2.644  0.1023 -0.1462  0.1467
 2437W        W 6488  10.137   8.542  13.687 -0.0001 -0.0056  0.0126
 2438W        W 6489   6.146   0.792   2.659  0.0067  0.2011 -0.1715
 2439W        W 6490   8.247   8.368   1.719 -0.3911 -0.2712  0.3794
 2440W        W 6491   7.907   7.606  12.526  0.1879 -0.1512 -0.3377
 2441W        W 6492   8.086   9.622  13.616  0.0665  0.1843  0.1376
 2442W        W 6493   1.702   2.265   4.693 -0.0628 -0.0526  0.0784
 2443W        W 6494   1.449   4.025   0.907 -0.1393 -0.0920  0.1786
 2444W        W 6495   0.805   8.849   3.612  0.2284 -0.1546  0.0966
 2445W        W 6496   4.080   9.211   1.128 -0.1206  0.0641 -0.2000
 2446W        W 6497   8.470   9.812   9.362  0.1068 -0.0056  0.0081
 2447W        W 6498   6.408   6.159  12.167 -0.0572  0.3628 -0.2144
 2448W        W 6499   0.662   8.794  13.092 -0.0515  0.1214  0.0022
 2449W        W 6500   1.646   5.090  10.784  0.4761 -0.4081 -0.2100
 2450W        W 6501   0.176   5.701   2.695  0.0204 -0.1356 -0.0187
 2451W        W 6502   1.545   1.971   9.655 -0.3563  0.2882 -0.0680
 2452W        W 6503   1.187   1.226   3.427  0.1160  0.2270  0.1521
 2453W        W 6504   8.594   3.642  11.211  0.0156  0.3832 -0.3343
 2454W        W 6505   4.452   5.413   3.019 -0.1905 -0.0584  0.0295
 2455W        W 6506   0.575   9.413  10.723 -0.3304 -0.3906  0.0335
 2456W        W 6507   2.585   3.905  13.426  0.1802  0.3450 -0.2565
 2457W        W 6508   5.308   5.993   3.889  0.0040  0.1005 -0.0017
 2458W        W 6509   4.619   3.508  13.631 -0.1219 -0.1005  0.0324
 2459W        W 6510   9.243   9.535  13.204  0.3464 -0.1774 -0.1189
 2460W        W 6511   5.487   5.262  10.906  0.0192 -0.0332 -0.1777
 2461W        W 6512   5.905   0.327   3.101  0.1419 -0.0728  0.0186
 2462W        W 6513   8.306   6.508   3.072  0.1217  0.0618 -0.0359
 2463W        W 6514   4.767   2.813   3.539  0.1720 -0.0497 -0.0975
 2464W        W 6515   9.940   0.207   0.377 -0.0461 -0.4677  0.0113
 2465W        W 6516   3.161   1.533  10.543 -0.1461 -0.4104  0.1972
 2466W        W 6517   3.239   2.725  12.152  0.3388 -0.0160 -0.2343
 2467W        W 6518   5.978   5.464  10.947 -0.2225 -0.0665 -0.0520
 2468W        W 6519   9.947   4.174   8.906  0.0368 -0.0637 -0.0295
 2469W        W 6520   0.119   4.567  11.276  0.0048  0.2089 -0.2753
 2470W        W 6521   0.334   9.147  13.259 -0.0531 -0.0294 -0.1233
 2471W        W 6522   4.701   9.826   4.541  0.1246 -0.0576 -0.2735
 2472W        W 6523   4.656   8.723   3.353  0.5138 -0.2072  0.0835
 2473W        W 6524   2.807   5.399  12.439  0.1737  0.1612  0.0638
 2474W        W 6525   4.997   8.648  13.448 -0.0023 -0.0524 -0.0238
 2475W        W 6526   9.106   0.820   9.932  0.0379  0.0692 -0.0476
 2476W        W 6527   4.461   3.534   1.091 -0.2728 -0.0765 -0.1727
 2477W        W 6528   6.920   3.005  11.419  0.0004  0.0066  0.0144
 2478W        W 6529   0.049   1.348   1.857 -0.0759 -0.4179 -0.1422
 2479W        W 6530   4.622   8.378  11.171  0.1750  0.2557  0.0339
 2480W        W 6531   1.432   1.221  11.146 -0.1151 -0.2381  0.0965
 2481W        W 6532   5.634   9.267   0.160  0.1515  0.0215  0.1442
 2482W        W 6533   9.095   6.600   3.873 -0.3057  0.0860 -0.2310
 2483W        W 6534   6.620   9.594  12.312  0.0748  0.1247  0.0770
 2484W        W 6535   8.407   1.360   9.297 -0.4438 -0.3804  0.1880
 2485W        W 6536   8.994   3.460   2.865 -0.3418 -0.1910 -0.1674
 2486W        W 6537   5.648   7.622   0.693  0.1448  0.1023  0.2345
 2487W        W 6538   3.964   2.753   2.468 -0.4442 -0.0516  0.1357
 2488W        W 6539   6.148   9.810  10.281  0.1710  0.0990 -0.2434
 2489W        W 6540   2.015   0.158  11.982  0.0382 -0.1854  0.0832
 2490W        W 6541   6.097   1.405   4.140 -0.0893 -0.1865  0.1896
 2491W        W 6542   5.065   3.015   4.726  0.1734 -0.1629  0.0444
 2492W        W 6543   9.524   8.981  11.424  0.0053  0.2200 -0.0162
 2493W        W 6544   7.184  10.165   5.566  0.0200  0.1563  0.2950
 2494W        W 6545   4.474   9.482   0.507 -0.2325 -0.3584  0.2058
 2495W        W 6546   5.527   0.217  12.279  0.3938  0.2361  0.1181
 2496W        W 6547   5.078   7.233   3.990  0.1243  0.0560  0.0951
 2497W        W 6548   6.454   5.320  10.536 -0.0821  0.2012  0.1831
 2498W        W 6549   8.715   0.723   8.764 -0.2096 -0.0134 -0.1027
 2499W        W 6550   9.371   1.524   5.617  0.1980  0.0457  0.1106
 2500W        W 6551   9.733  10.126   0.890 -0.2612 -0.1734  0.0600
 2501W        W 6552   7.271   4.747  12.215  0.1932 -0.3776  0.0496
 2502W        W 6553   1.448   4.720   0.411  0.1229 -0.0077 -0.2666
 2503W        W 6554   0.690   1.123   2.997  0.0257  0.0060  0.4311
 2504W        W 6555   0.975   8.705  10.333 -0.1393  0.0129 -0.0396
 2505W        W 6556   9.845   9.598  10.957  0.0113 -0.1569 -0.1063
 2506W        W 6557   5.615   9.608  12.679 -0.3527 -0.0074  0.3546
 2507W        W 6558   4.035   8.080  11.704 -0.1260 -0.0705  0.0586
 2508W        W 6559   1.106   9.902   0.353 -0.1199  0.3028  0.1169
 2509W        W 6560   0.253   1.888  12.860  0.1904  0.0047  0.0459
 2510W        W 6561   2.631   1.755   1.151 -0.0560  0.0334 -0.0188
 2511W        W 6562   0.111   8.334   0.687  0.2730  0.1619  0.5220
 2512W        W 6563   1.389   5.811  10.902 -0.4221 -0.2162  0.5008
 2513W        W 6564   0.072   8.984   0.566  0.1587 -0.2955  0.0605
 2514W        W 6565   6.065   9.470   0.129 -0.1617 -0.0785 -0.1636
 2515W        W 6566   0.873   9.992  12.102 -0.0659 -0.0514  0.1620
 2516W        W 6567   7.760   6.803  13.172 -0.2131  0.1201 -0.1543
 2517W        W 6568   7.480   4.455   3.216 -0.0099  0.0291 -0.0464
 2518W        W 6569   7.942   9.361   0.396  0.2213 -0.3998 -0.0844
 2519W        W 6570   9.736   2.231   0.653 -0.0716  0.0980  0.0619
 2520W        W 6571   1.264   6.678   3.419 -0.1822  0.1273  0.0374
 2521W        W 6572   5.816   3.830   9.112  0.3881  0.1400 -0.2592
 2522W        W 6573   4.097   2.069   1.428  0.1492  0.0374 -0.1724
 2523W        W 6574   3.755   3.882   4.513  0.1767 -0.0321  0.1910
 2524W        W 6575   1.205   8.254  10.148 -0.3974  0.0576 -0.2808
 2525W        W 6576   3.118   1.776   4.475  0.1246 -0.1052  0.1175
 2526W        W 6577   5.397   5.548   9.045  0.1315  0.2300  0.1494
 2527W        W 6578   7.277   2.869   3.564 -0.2561 -0.2663  0.2057
 2528W        W 6579   1.374   3.751   3.850  0.0739 -0.3447  0.1241
 2529W        W 6580   7.339   0.732   1.878  0.1494 -0.3551 -0.3360
 2530W        W 6581   2.609   6.746  13.261 -0.1058  0.1504  0.1599
 2531W        W 6582   5.316   6.883   0.791  0.0429  0.0274  0.0826
 2532W        W 6583   7.859   4.689  10.707 -0.1295  0.0616  0.0927
 2533W        W 6584   8.658   1.402   9.879  0.3332 -0.1169  0.3802
 2534W        W 6585   2.461   2.987   4.284 -0.0598 -0.0044  0.1260
 2535W        W 6586   1.378   8.304  13.803  0.0597 -0.2393 -0.2721
 2536W        W 6587   6.756   4.364   4.364 -0.1018 -0.3240  0.2030
 2537W        W 6588   9.158   6.108  10.794 -0.1674 -0.2248  0.0294
 2538W        W 6589   1.315   0.694  13.313  0.0895  0.0271 -0.3366
 2539W        W 6590   8.559   0.139   9.570  0.1090  0.0196 -0.0042
 2540W        W 6591  10.167   3.233   4.439 -0.0684 -0.3141  0.2407
 2541W        W 6592   5.975   9.611  13.481  0.1970  0.0202 -0.3050
 2542W        W 6593   0.302   1.762  10.376  0.0365 -0.1104 -0.3383
 2543W        W 6594   2.547   1.735   2.817  0.3138 -0.1780 -0.1837
 2544W        W 6595   0.775   7.703  10.675 -0.2429  0.0229  0.3637
 2545W        W 6596   7.255   0.789   4.015 -0.2143 -0.2375 -0.0582
 2546W        W 6597   3.105   6.676   2.091  0.0462  0.0307  0.0321
 2547W        W 6598   8.772   0.401   5.373 -0.0377 -0.1906 -0.2389
 2548W        W 6599   1.988   9.627   3.225 -0.3296  0.2803 -0.0242
 2549W        W 6600   4.274   2.793   3.712 -0.1742  0.1312  0.0278
 2550W        W 6601   5.215   7.746   0.455 -0.0532 -0.1724  0.3402
 2551W        W 6602  10.046   1.073  11.048 -0.4993  0.1913  0.0044
 2552W        W 6603   3.052   1.726   3.780 -0.0930  0.0948  0.1805
 2553W        W 6604   8.846   7.621   0.350 -0.2199  0.1088 -0.1227
 2554W        W 6605   4.552   1.888   9.851 -0.3342 -0.1283 -0.0131
 2555W        W 6606   8.770   3.926  13.690  0.2906  0.1018  0.1174
 2556W        W 6607   3.194   5.717  11.034 -0.1663  0.1377  0.2201
 2557W        W 6608   7.124   9.245  10.683 -0.0115  0.0624  0.1962
 2558W        W 6609   7.842   6.340  12.024  0.3805  0.1421 -0.2378
 2559W        W 6610   9.177   3.951   2.659 -0.4672 -0.0748  0.1807
 2560W        W 6611   8.120   9.484   2.530  0.0498  0.2389 -0.2437
 2561W        W 6612   0.213   3.147  12.649 -0.1720  0.0111 -0.1782
 2562W        W 6613   1.445   4.178   0.028  0.1298  0.0731  0.0372
 2563W        W 6614   8.457   8.700   1.242  0.0942  0.0334 -0.0515
 2564W        W 6615   8.958   4.211   4.112 -0.4336 -0.1202  0.2176
 2565W        W 6616   7.206   7.796   4.082 -0.1046 -0.1803 -0.2194
 2566W        W 6617   5.518   3.919   2.658  0.1068 -0.1829 -0.0389
 2567W        W 6618   7.665   9.170   1.663  0.2630 -0.3692 -0.1098
 2568W        W 6619   4.003   1.381   2.566  0.1067 -0.1637  0.0232
 2569W        W 6620   4.343   0.939  13.010 -0.2693 -0.0494 -0.0311
 2570W        W 6621   1.853   1.733   9.376 -0.1109 -0.2307 -0.1918
 2571W        W 6622   7.400   9.017  10.307  0.2572 -0.3931  0.2221
 2572W        W 6623   7.244   4.512   0.293 -0.0800  0.0441  0.3124
 2573W        W 6624   6.249   9.059  11.396  0.0545  0.1949 -0.0946
 2574W        W 6625   1.637   7.263   0.652  0.2022  0.3457  0.2818
 2575W        W 6626   1.200   8.196   9.554 -0.0696  0.3310 -0.1527
 2576W        W 6627   3.862   4.195   2.008  0.1668  0.0359  0.1805
 2577W        W 6628   0.732   9.430   9.716  0.1032  0.0429  0.0772
 2578W        W 6629   2.259   5.981  10.260  0.2066 -0.1133 -0.0801
 2579W        W 6630   7.051   5.491   4.808 -0.1846  0.0825  0.0330
 2580W        W 6631   6.124   2.053  13.234  0.1565  0.0964 -0.3654
 2581W        W 6632   7.075   5.722   9.364 -0.1720  0.2505  0.2384
 2582W        W 6633   2.695   8.344  11.132  0.4772  0.1856 -0.2264
 2583W        W 6634   2.546   2.858  11.925 -0.1150  0.0770  0.4402
 2584W        W 6635   2.399   9.949   3.862  0.1700  0.1581  0.3591
 2585W        W 6636   6.902   5.087   3.743  0.2179  0.1151  0.3684
 2586W        W 6637   0.146   7.967   1.745 -0.1015 -0.2822  0.0686
 2587W        W 6638   9.346   8.104   1.066 -0.1914  0.2502  0.1646
 2588W        W 6639   1.924   2.017   0.052  0.0354 -0.0607 -0.0610
 2589W        W 6640   3.043   5.813  12.689 -0.2220 -0.1304 -0.0601
 2590W        W 6641   4.647   4.344   3.141  0.0154  0.1152  0.2196
 2591W        W 6642   2.619   5.604   0.595 -0.2911 -0.3133 -0.2080
 2592W        W 6643   4.100   2.026  13.108  0.1039  0.1868 -0.3453
 2593W        W 6644   2.473   1.189   5.002  0.0035  0.1689 -0.2189
 2594W        W 6645   1.168   7.572  11.133 -0.0554 -0.0700 -0.0352
 2595W        W 6646   6.477   9.240   0.776 -0.3356 -0.2667 -0.1927
 2596W        W 6647   9.269   4.197  11.529 -0.0481 -0.0193  0.2890
 2597W        W 6648   6.918   7.413   4.325 -0.0471 -0.0798 -0.0878
 2598W        W 6649   6.671   6.846  13.662 -0.0513 -0.0484 -0.0415
 2599W        W 6650   8.816   1.664   1.235  0.0713 -0.2514 -0.2278
 2600W        W 6651   3.710   0.881   1.515 -0.2153 -0.0482 -0.4255
 2601W        W 6652   8.856   1.168   9.475 -0.0237 -0.0113 -0.0513
 2602W        W 6653   4.696   4.008  13.781  0.0647  0.1636  0.3126
 2603W        W 6654   7.800   5.538   1.649 -0.0194 -0.0182  0.0957
 2604W        W 6655   8.269   8.723  11.456 -0.0838  0.2016 -0.0247
 2605W        W 6656   3.536   1.598   1.216  0.1930  0.1234  0.1544
 2606W        W 6657   5.251   9.661   0.249  0.1237  0.2431 -0.3205
 2607W        W 6658   5.290   3.238   0.198 -0.2970  0.0301 -0.1668
 2608W        W 6659   7.176   0.906  13.954  0.0146  0.0806  0.3118
 2609W        W 6660   9.856   5.629   2.460  0.0491  0.3727  0.0892
 2610W        W 6661   0.739   7.563   3.765 -0.1628 -0.1045  0.0362
 2611W        W 6662   7.334   6.157   9.308 -0.1641  0.0974 -0.2915
 2612W        W 6663   4.786   0.467   3.461  0.0723 -0.0458 -0.3082
 2613W        W 6664   9.671   3.935   9.270 -0.1219 -0.0691 -0.3352
 2614W        W 6665   6.760   8.805   0.586  0.2015 -0.0911  0.0947
 2615W        W 6666   5.857   6.313   0.116 -0.0525 -0.0184  0.0167
 2616W        W 6667   7.880   0.838   3.937 -0.0139 -0.1432 -0.0406
 2617W        W 6668   1.904   4.482   0.171 -0.1645 -0.1238  0.0264
 2618W        W 6669   1.325   8.110   0.303  0.1505 -0.0656  0.1174
 2619W        W 6670   3.982   0.733   0.883 -0.0064  0.1792 -0.1640
 2620W        W 6671   4.895   1.109   3.320  0.2639  0.0053  0.0731
 2621W        W 6672   5.938   3.427   9.759 -0.0377  0.2000 -0.0849
 2622W        W 6673   0.421   3.912   9.524  0.4645  0.0192 -0.1283
 2623W        W 6674   9.619   9.467   4.344 -0.0630 -0.0760 -0.1284
 2624W        W 6675   2.362   4.531  13.424  0.1470  0.0803 -0.0886
 2625W        W 6676   8.071   4.191   1.226  0.2769 -0.2171 -0.1132
 2626W        W 6677   2.544   9.453   0.679 -0.0748  0.1253  0.2446
 2627W        W 6678   3.732   2.071   1.104  0.1298  0.1515 -0.0351
 2628W        W 6679   4.867  10.095  13.635 -0.0692 -0.0585 -0.0239
 2629W        W 6680   7.681   6.469   4.574  0.1098  0.0250 -0.0185
 2630W        W 6681   1.696   9.461  10.069  0.0013 -0.3332 -0.4677
 2631W        W 6682   8.650   3.725   1.965  0.2508 -0.2219  0.2710
 2632W        W 6683   5.735   9.188   3.489 -0.1346 -0.1810 -0.0341
 2633W        W 6684   8.679   2.907   3.122  0.2869 -0.0079  0.3110
 2634W        W 6685   9.531   1.229   0.497 -0.1272  0.1708 -0.0987
 2635W        W 6686   6.659   7.428  10.023  0.2881  0.2430 -0.1337
 2636W        W 6687   3.456   2.537   4.454 -0.2079  0.0113 -0.3863
 2637W        W 6688   0.635   8.070   9.637  0.0397  0.0622  0.2204
 2638W        W 6689   0.746   2.521   1.758  0.0190 -0.1296 -0.0388
 2639W        W 6690   8.702   5.389   8.884 -0.0463 -0.1003  0.0050
 2640W        W 6691   6.254   7.995   3.376  0.2151  0.0188 -0.1694
 2641W        W 6692   3.197   9.758   0.050  0.0091 -0.0338 -0.0140
 2642W        W 6693   6.954   4.005   8.823  0.0793  0.2423  0.0323
 2643W        W 6694   7.489   6.688   2.064 -0.0810 -0.1058  0.2946
 2644W        W 6695  10.074   4.731   9.810  0.0223  0.1009  0.4605
 2645W        W 6696   2.282   4.407   0.968  0.0752 -0.2503  0.3059
 2646W        W 6697   8.471   1.794   4.686 -0.0280  0.0851 -0.1864
 2647W        W 6698   5.210   3.146  12.814  0.3152 -0.0822  0.0677
 2648W        W 6699   6.432   2.990  10.940  0.1532  0.0125 -0.3756
 2649W        W 6700   2.444   8.976   0.794  0.2888  0.0639  0.0442
 2650W        W 6701   7.227   0.565   4.525 -0.1774  0.0400  0.1146
 2651W        W 6702   0.888   4.906  10.245  0.1812  0.0150  0.0117
 2652W        W 6703   6.683   2.932   9.476  0.2098 -0.0606  0.0535
 2653W        W 6704   2.896   4.015   2.169 -0.0115  0.2493  0.5049
 2654W        W 6705   3.097   8.604  11.234  0.1727 -0.0018 -0.0977
 2655W        W 6706   1.042   7.840  13.063 -0.0257 -0.1810  0.5302
 2656W        W 6707   7.314   1.135   2.514 -0.0669 -0.0891 -0.0041
 2657W        W 6708   8.367   0.188   3.025  0.1012  0.0339  0.1737
 2658W        W 6709   7.412   7.575  13.234 -0.0937  0.1930 -0.1253
 2659W        W 6710   6.716   7.800   3.225 -0.0308  0.0618  0.0471
 2660W        W 6711   2.198   7.310   1.272  0.0027  0.1099  0.1179
 2661W        W 6712   4.351   7.969   1.432 -0.2534 -0.0023  0.5049
 2662W        W 6713   7.556   4.347   1.384 -0.0494 -0.0948  0.1504
 2663W        W 6714   2.012   2.850   3.090  0.2548 -0.2452 -0.0374
 2664W        W 6715  10.129   9.084  12.902  0.0245 -0.0819  0.2590
 2665W        W 6716   3.942   3.741   1.814  0.2440  0.1537 -0.0177
 2666W        W 6717   1.432   8.348   3.823 -0.2854 -0.1784 -0.5015
 2667W        W 6718   9.579   4.918  12.170 -0.1681 -0.1358 -0.1153
 2668W        W 6719   2.941   0.357   2.455  0.1074  0.1006  0.1558
 2669W        W 6720   4.457   5.119   1.685 -0.1806 -0.0941 -0.0202
 2670W        W 6721   5.763   4.280   3.316 -0.1091  0.2067  0.0557
 2671W        W 6722   4.627   0.100   1.925  0.0397 -0.3287  0.0772
 2672W        W 6723   8.642   0.550  13.567 -0.2164  0.1417 -0.2726
 2673W        W 6724   3.760   2.443   1.506  0.2834 -0.2455 -0.1942
 2674W        W 6725   3.791   2.383   2.762 -0.3043  0.2698 -0.0410
 2675W        W 6726  10.100   4.509  10.790  0.2505 -0.1021 -0.1623
 2676W        W 6727   9.246   7.166   1.081 -0.1451 -0.3494 -0.1112
 2677W        W 6728   2.624   8.448  13.084 -0.0631  0.1250 -0.1460
 2678W        W 6729   0.791   1.178   0.846 -0.3470 -0.4198  0.1213
 2679W        W 6730   4.500   1.404  12.622  0.0777 -0.0634  0.0283
 2680W        W 6731   9.489   9.678  12.663  0.0590 -0.3205  0.0527
 2681W        W 6732   6.896   7.740  13.205  0.0407  0.3130  0.2761
 2682W        W 6733   9.434   9.614   0.083  0.1082 -0.4014  0.0997
 2683W        W 6734   1.420   6.117  10.102  0.2686  0.1772  0.2953
 2684W        W 6735   1.799   1.004   4.719  0.0287  0.2365  0.0806
 2685W        W 6736   8.152   9.312   1.719 -0.1054  0.0598 -0.0641
 2686W        W 6737   4.490   2.614  10.462  0.0349 -0.0186 -0.2746
 2687W        W 6738   5.774   2.291   0.317 -0.0513  0.1875  0.2236
 2688W        W 6739   5.610   5.570   2.054 -0.2429  0.2236 -0.0803
 2689W        W 6740   1.775   3.666   1.220 -0.0998 -0.1107  0.0397
 2690W        W 6741   2.880   1.271  10.152 -0.2228 -0.0855 -0.0929
 2691W        W 6742   7.759   0.946   8.830  0.0214 -0.0317 -0.7013
 2692W        W 6743   9.059   5.203   2.021 -0.0374  0.0644  0.1842
 2693W        W 6744   1.292   5.528   1.275 -0.2688 -0.0665 -0.0159
 2694W        W 6745   7.682   7.807   1.432  0.2268 -0.0041 -0.3261
 2695W        W 6746   6.531   8.486  10.557 -0.0900  0.0337  0.1747
 2696W        W 6747   4.653   1.283   3.861  0.1499 -0.1142  0.0417
 2697W        W 6748   4.071   2.223  10.915  0.0478  0.2464  0.2119
 2698W        W 6749   1.113   1.984   5.298  0.0631 -0.0158 -0.1592
 2699W        W 6750   6.840   0.661  13.666 -0.0556 -0.1071  0.1680
 2700W        W 6751  10.031   7.767   2.277  0.1675  0.1228 -0.0234
 2701W        W 6752   0.310   3.829   4.258  0.1698 -0.2575 -0.0338
 2702W        W 6753   3.312   4.799   0.371  0.0034  0.1077 -0.0346
 2703W        W 6754   2.436   4.105   9.957 -0.3411 -0.0080  0.0604
 2704W        W 6755   1.509   2.672   1.830 -0.1855  0.1855  0.2518
 2705W        W 6756   4.372   3.671   1.646  0.2649  0.3114 -0.0754
 2706W        W 6757   4.949   8.538  10.017  0.0108  0.2538 -0.4591
 2707W        W 6758   2.261   2.509  10.302 -0.0545 -0.0449  0.0764
 2708W        W 6759   7.523   4.693   2.500  0.1401 -0.0034 -0.0559
 2709W        W 6760   3.985   0.402   1.543  0.1079 -0.0938  0.0032
 2710W        W 6761   2.227   5.957  10.898 -0.1435  0.0249 -0.1243
 2711W        W 6762   6.895   9.730   3.588 -0.1578  0.0875 -0.0476
 2712W        W 6763   3.703   3.487   3.888 -0.4719  0.2066  0.0788
 2713W        W 6764   8.357   6.166   3.958  0.0691 -0.3073 -0.0465
 2714W        W 6765   8.434   9.640  12.240 -0.2242 -0.3176  0.0393
 2715W        W 6766   7.087   7.461   2.509  0.0719 -0.0638 -0.2153
 2716W        W 6767   9.343   3.443  13.845  0.1386 -0.0982 -0.0675
 2717W        W 6768   6.464   4.693   2.292 -0.1208  0.1187 -0.2887
 2718W        W 6769   8.246   0.440   0.073 -0.0930 -0.0575  0.1288
 2719W        W 6770   9.297   3.525  13.182  0.0251  0.0811 -0.1431
 2720W        W 6771   4.080   7.787   3.350  0.0794 -0.1595 -0.0939
 2721W        W 6772   4.170   8.603  11.655 -0.0411 -0.1299 -0.1159
 2722W        W 6773   0.299   3.909  12.009 -0.0535  0.1170  0.0013
 2723W        W 6774   2.819   3.045   5.733 -0.1497  0.0342  0.0009
 2724W        W 6775   6.571   6.139   4.449 -0.2744 -0.0540 -0.0009
 2725W        W 6776   5.773   3.487  13.068  0.1348 -0.2744  0.0625
 2726W        W 6777   8.136   6.420   4.361  0.1497  0.1469 -0.2174
 2727W        W 6778   6.808   7.582   3.871  0.3078  0.2136 -0.1137
 2728W        W 6779   5.468   2.101  11.061  0.3195  0.1589  0.2582
 2729W        W 6780   9.115   9.680  12.299  0.1767  0.0975 -0.0497
 2730W        W 6781   4.220   5.870   0.371  0.1521  0.4577  0.1067
 2731W        W 6782   3.500   1.168   2.459  0.0004 -0.1263  0.1980
 2732W        W 6783   3.199   2.504  10.714 -0.0500  0.0787 -0.1607
 2733W        W 6784   8.166   2.036  13.134  0.0812 -0.2804  0.0063
 2734W        W 6785   4.190   7.997  12.199  0.1565  0.2242 -0.0310
 2735W        W 6786   8.241   7.256   0.821  0.0570 -0.2380 -0.1648
 2736W        W 6787   7.356   0.280  12.059 -0.3327  0.2309 -0.1103
 2737W        W 6788   8.034   7.796   2.362 -0.0235  0.1180  0.1809
 2738W        W 6789   0.609   8.031   3.712 -0.0538  0.1421  0.0812
 2739W        W 6790   8.301   4.258   4.663 -0.0163  0.0416 -0.1357
 2740W        W 6791   8.966   1.898   1.645  0.0081  0.1521  0.2024
 2741W        W 6792   3.669   9.094  10.682  0.0075 -0.0480  0.1682
 2742W        W 6793   7.230   6.759   8.672  0.1151  0.2772  0.4464
 2743W        W 6794   8.302   0.722  11.318  0.4767 -0.0580 -0.1700
 2744W        W 6795   4.822   6.139  10.299  0.0437 -0.1268  0.2116
 2745W        W 6796   9.697   6.736  13.485 -0.0055 -0.1258  0.3079
 2746W        W 6797   2.421   7.737   1.166  0.0356  0.2797  0.0585
 2747W        W 6798   3.088   3.710  12.237 -0.1615 -0.0218  0.0206
 2748W        W 6799   2.316   5.538  12.293  0.4187  0.1897  0.0557
 2749W        W 6800   4.876   6.535   2.515  0.1544  0.0566 -0.0633
 2750W        W 6801   3.509   2.758  10.421  0.1020 -0.2328 -0.1212
 2751W        W 6802   5.705   2.452   2.281  0.0635  0.1519 -0.2826
 2752W        W 6803   6.460   5.129   1.097 -0.0201  0.1346 -0.0542
 2753W        W 6804   2.397   6.977   3.840 -0.1025  0.0557  0.2517
 2754W        W 6805   0.571   0.879   1.242 -0.1270  0.2591 -0.0354
 2755W        W 6806   5.111   9.006  12.123 -0.1587  0.1013 -0.1133
 2756W        W 6807   4.299   1.868   4.569  0.0141 -0.2178  0.1793
 2757W        W 6808   5.145   1.853   4.008 -0.0398 -0.2191 -0.0817
 2758W        W 6809   7.749   0.581  11.986 -0.2095 -0.0546  0.1911
 2759W        W 6810   3.613   0.926   3.564 -0.0089  0.1756  0.0738
 2760W        W 6811   6.088   0.278   2.637 -0.1017  0.1848  0.2407
 2761W        W 6812   3.220   3.580   9.762  0.1108  0.0194  0.2547
 2762W        W 6813   3.041   4.349  10.467 -0.3024 -0.0747 -0.2111
 2763W        W 6814   4.955   3.236   2.424  0.1852  0.2934 -0.1366
 2764W        W 6815   5.381   5.932  12.406 -0.1708  0.0693  0.1559
 2765W        W 6816   2.282   9.660   0.286 -0.0941  0.0175 -0.2784
 2766W        W 6817   8.064   3.938   3.797  0.0743 -0.0756 -0.0120
 2767W        W 6818   7.014   0.899   1.172 -0.2151 -0.3330  0.2501
 2768W        W 6819   5.890   1.752  13.529 -0.0434  0.0544  0.0447
 2769W        W 6820   4.621   2.422   3.779  0.0063  0.1670  0.0642
 2770W        W 6821   6.710   3.633   1.378  0.3447 -0.2686 -0.3458
 2771W        W 6822   0.808   3.481  13.215 -0.1202  0.0728  0.2122
 2772W        W 6823   4.115   9.861  11.090  0.1340 -0.0070 -0.0448
 2773W        W 6824   4.785   5.151  12.261 -0.1272  0.1153  0.0828
 2774W        W 6825   7.562   5.344  10.025 -0.1480 -0.2121  0.2115
 2775W        W 6826  10.136   1.350  11.488  0.2922 -0.0294 -0.0314
 2776W        W 6827   8.341   8.172   5.540 -0.1778 -0.0032  0.0400
 2777W        W 6828   2.480   1.973   2.029 -0.1680 -0.1083  0.1532
 2778W        W 6829   5.671   6.021  10.328  0.2465  0.2618  0.0138
 2779W        W 6830   9.401   8.992   4.093  0.0879  0.0226 -0.0715
 2780W        W 6831   0.087   4.655   1.619  0.0239 -0.0845  0.1210
 2781W        W 6832   1.991   7.393  12.056 -0.1233  0.0294 -0.1500
 2782W        W 6833   6.232   7.478   2.564  0.1909 -0.1186 -0.1305
 2783W        W 6834   5.975   1.844  10.922 -0.1831  0.2531 -0.3636
 2784W        W 6835   0.891   9.080  11.498 -0.1124  0.1937  0.3865
 2785W        W 6836   8.338   5.203   4.526  0.2555 -0.3023  0.0556
 2786W        W 6837   9.129   5.854   1.211  0.1079  0.0887 -0.0165
 2787W        W 6838   7.614   6.012   1.707 -0.1179 -0.0913  0.1784
 2788W        W 6839   4.110   1.141   0.607  0.2737  0.1397  0.2199
 2789W        W 6840   6.764   4.634  13.418 -0.1256 -0.3287  0.0035
 2790W        W 6841   9.147   5.449   4.302 -0.1996  0.3981 -0.0981
 2791W        W 6842   7.135   3.769   1.597 -0.3147  0.0021  0.1316
 2792W        W 6843   6.782   4.626   9.720 -0.2701  0.1921  0.2483
 2793W        W 6844   3.423   9.008  12.809  0.0668 -0.1466 -0.2160
 2794W        W 6845   4.540   1.573   0.735  0.1721 -0.4349 -0.0238
 2795W        W 6846   4.324  10.017   2.195 -0.1299 -0.1103  0.0463
 2796W        W 6847  10.151   1.839  13.857  0.1268 -0.0044 -0.0725
 2797W        W 6848   8.360   7.199  13.778  0.1655  0.1266 -0.0621
 2798W        W 6849   0.267   0.884  11.228  0.2427  0.0994 -0.2550
 2799W        W 6850   6.700   2.999   1.099 -0.2389 -0.0820  0.2387
 2800W        W 6851   4.536   2.242   5.485 -0.1444  0.0069  0.1518
 2801W        W 6852   6.189   7.803  13.930  0.2045 -0.0278  0.0707
 2802W        W 6853   7.134   3.433   3.506  0.1513  0.0517  0.2797
 2803W        W 6854   6.099   6.737  11.296  0.1934 -0.0848  0.0744
 2804W        W 6855   8.346   4.735   9.177  0.1093  0.0188 -0.0056
 2805W        W 6856   9.373   8.982   3.126  0.0221  0.3793 -0.0925
 2806W        W 6857   1.384   9.188  13.539 -0.0088 -0.0240 -0.0511
 2807W        W 6858   4.431   6.252  12.462 -0.1868  0.2487 -0.2571
 2808W        W 6859   2.713   2.848   3.745  0.1362  0.1020  0.4261
 2809W        W 6860  10.058   9.621   1.069 -0.0861 -0.0626  0.2357
 2810W        W 6861   6.528   9.871   3.300 -0.0837  0.0942  0.0643
 2811W        W 6862   1.015   0.282   5.030  0.0396  0.0691  0.0037
 2812W        W 6863   9.124   6.566  13.796  0.0336 -0.1980  0.0960
 2813W        W 6864   6.875   4.860   0.146  0.0585  0.2215 -0.2757
 2814W        W 6865   8.638   3.935   4.531 -0.0015 -0.1816  0.0982
 2815W        W 6866   3.333   4.733   1.929  0.0179 -0.1122  0.2611
 2816W        W 6867   2.777   8.152  13.499  0.1902  0.0700 -0.0316
 2817W        W 6868   0.673   0.375   2.247 -0.0118  0.0119  0.3072
 2818W        W 6869   3.883   4.627  10.783  0.0715  0.1365 -0.0963
 2819W        W 6870   9.303   2.525   1.001 -0.1752  0.5937 -0.0043
 2820W        W 6871   4.616  10.022   1.238 -0.3582  0.1906 -0.0989
 2821W        W 6872   8.709   9.473   9.755 -0.1601 -0.0005 -0.1547
 2822W        W 6873  10.063   6.073   4.030 -0.2768 -0.3395 -0.1115
 2823W        W 6874   5.527   0.416  13.926 -0.1409 -0.1167  0.1696
 2824W        W 6875   5.974   4.484   0.712  0.1994 -0.0077 -0.0131
 2825W        W 6876   6.720   1.531   3.435  0.1858  0.1388  0.1756
 2826W        W 6877   1.155   3.013   2.818  0.0306 -0.0392 -0.1276
 2827W        W 6878   4.999   1.431  10.515 -0.0744 -0.2991 -0.2637
 2828W        W 6879   9.979   0.288  12.914 -0.0503 -0.0924 -0.1773
 2829W        W 6880   0.942   8.401  13.382 -0.1924 -0.2671  0.2003
 2830W        W 6881   0.113   3.801  11.260  0.3833  0.1033  0.1656
 2831W        W 6882   7.497   5.590   8.102 -0.2036 -0.1962 -0.1679
 2832W        W 6883   7.748   8.040  12.361  0.0668  0.0149 -0.2514
 2833W        W 6884   9.012   5.183  11.480  0.1343 -0.1578 -0.1530
 2834W        W 6885   7.045   8.684   8.631  0.1808 -0.2162 -0.3078
 2835W        W 6886   3.754   4.527   1.626 -0.1587  0.0095 -0.0030
 2836W        W 6887   2.648   9.668   2.802  0.0602 -0.1322 -0.0191
 2837W        W 6888   5.486   7.910  10.155 -0.2682 -0.0078 -0.3012
 2838W        W 6889   2.611   4.339   1.767  0.0301 -0.1615 -0.4787
 2839W        W 6890   0.796   5.875  13.597 -0.0339 -0.1095 -0.2925
 2840W        W 6891   1.591   7.286   1.206 -0.0965  0.1143  0.1275
 2841W        W 6892   0.767   0.710  12.104 -0.2063  0.0037 -0.1067
 2842W        W 6893   7.214   4.486  13.378 -0.3272 -0.1225 -0.0563
 2843W        W 6894   8.690   5.303  12.921 -0.0691 -0.0572  0.1790
 2844W        W 6895   6.293   9.302  10.391  0.2578  0.0190 -0.2988
 2845W        W 6896   7.864   8.089   9.697 -0.3076  0.0188 -0.0497
 2846W        W 6897   4.702   3.331   5.498  0.2187 -0.0043  0.0284
 2847W        W 6898   3.350   9.660   0.683 -0.1793  0.5027 -0.0189
 2848W        W 6899   8.579   9.340  13.739  0.1070  0.1700  0.0175
 2849W        W 6900   2.135   5.666  13.584 -0.0743 -0.0604 -0.3376
 2850W        W 6901   9.909   8.998   1.478 -0.4511 -0.1529  0.2726
 2851W        W 6902   3.402   8.978   1.273 -0.1072 -0.1533  0.1108
 2852W        W 6903   1.758   0.843   2.062  0.3868 -0.1613 -0.0721
 2853W        W 6904   1.351   2.814  12.212 -0.3905  0.0264  0.1523
 2854W        W 6905   7.639   0.958   4.785  0.0072 -0.0507 -0.0692
 2855W        W 6906   0.604   6.341   0.497  0.2057 -0.1552  0.0948
 2856W        W 6907   6.167   2.613  12.902  0.1664  0.0856  0.1306
 2857W        W 6908   4.878   3.673   0.678  0.0175 -0.2120  0.0972
 2858W        W 6909   0.982   8.956  11.948 -0.2276  0.1357 -0.3810
 2859W        W 6910   6.095   1.706  12.845  0.2343 -0.2075 -0.2086
 2860W        W 6911   7.425   4.664   4.880 -0.0843  0.0723 -0.0528
 2861W        W 6912   7.886   6.002   3.917 -0.4789  0.1814  0.0014
 2862W        W 6913   2.873   9.032   1.218 -0.0734  0.2220 -0.1535
 2863W        W 6914   8.223   2.015  11.584  0.3782  0.0078 -0.0082
 2864W        W 6915   4.834   2.339   2.857 -0.1657 -0.0081 -0.1466
 2865W        W 6916   0.895   7.780  11.882  0.0506 -0.1282 -0.1719
 2866W        W 6917   1.365   3.508  13.297 -0.2107  0.2864  0.0669
 2867W        W 6918   1.991   0.201   2.386  0.1296  0.1480  0.2944
 2868W        W 6919   7.763   6.583   0.150 -0.0984  0.0279  0.1341
 2869W        W 6920   6.153   1.277   1.755 -0.0469  0.3396  0.2045
 2870W        W 6921   1.535   4.432  13.114  0.0453  0.3304  0.1865
 2871W        W 6922   8.091   5.652   3.675  0.6341 -0.2107 -0.2689
 2872W        W 6923   3.384   1.264   3.321  0.1838  0.3267 -0.0397
 2873W        W 6924   1.225   6.598   9.913 -0.0293 -0.0677  0.1042
 2874W        W 6925   6.984   5.432  10.248  0.3937  0.2004  0.2303
 2875W        W 6926   2.982   2.030   2.897  0.2153 -0.0197  0.1507
 2876W        W 6927   1.440   3.550  10.317 -0.1977  0.0422  0.1699
 2877W        W 6928   1.914   6.125   0.829  0.0393  0.0047  0.0221
 2878W        W 6929   9.320   8.004   3.143  0.1779  0.1793 -0.0667
 2879W        W 6930   8.291   7.478  12.183  0.0384 -0.0664 -0.0144
 2880W        W 6931   8.253   6.321   2.644 -0.2417 -0.0699 -0.0278
 2881W        W 6932   5.433   3.701   1.703 -0.1388 -0.0101 -0.0501
 2882W        W 6933   4.115   2.149   9.638 -0.4318  0.0839 -0.0161
 2883W        W 6934   5.790   9.364  10.514  0.1087  0.1454  0.0652
 2884W        W 6935   8.590   2.505   5.085 -0.2313 -0.1456 -0.0759
 2885W        W 6936   8.312   6.893   4.485  0.2428  0.1285 -0.0627
 2886W        W 6937   7.557   5.279  10.605  0.0044  0.1225  0.3798
 2887W        W 6938   6.744   4.246   2.495 -0.0787 -0.0254  0.1869
 2888W        W 6939   4.417   5.104   3.531 -0.0334  0.1289 -0.1275
 2889W        W 6940   0.714   6.431  10.715  0.1529 -0.0358 -0.2579
 2890W        W 6941   5.608   0.648  12.092 -0.1118 -0.2108  0.1506
 2891W        W 6942   5.907   9.923   1.326 -0.0551 -0.1576  0.0568
 2892W        W 6943   1.200   4.235   3.835 -0.2067  0.0381  0.0587
 2893W        W 6944   8.674   8.762   9.940  0.3420  0.0903 -0.2234
 2894W        W 6945  10.073  10.179  11.550 -0.3474  0.0944 -0.0502
 2895W        W 6946   9.348   7.298   0.503 -0.2978 -0.0801  0.0407
 2896W        W 6947   8.431   1.623   1.593 -0.5590  0.0909  0.0246
 2897W        W 6948   5.823   1.045  11.819 -0.4573 -0.1535 -0.1423
 2898W        W 6949   1.005   8.866   2.665  0.1150  0.0101  0.0129
 2899W        W 6950   1.106   3.770  10.703 -0.0364  0.2604  0.3076
 2900W        W 6951   4.239   1.825  10.369  0.0896 -0.2622 -0.0821
 2901W        W 6952   1.882   2.001  13.498 -0.0350 -0.0433 -0.3121
 2902W        W 6953   0.541   1.554   3.939 -0.2782  0.2396  0.2784
 2903W        W 6954   6.490   7.493   0.346  0.0013  0.0323 -0.1506
 2904W        W 6955   8.055   3.654   9.447 -0.1026 -0.2619 -0.1584
 2905W        W 6956   4.348   3.545   3.249 -0.1572 -0.0379 -0.3375
 2906W        W 6957   0.668   1.511  10.644 -0.3871 -0.0765  0.0060
 2907W        W 6958   2.241   5.503   2.569 -0.2195 -0.0781 -0.0965
 2908W        W 6959   7.297   1.831   9.497  0.2132  0.2927 -0.3493
 2909W        W 6960   5.933   7.711  11.561 -0.2067  0.1095  0.0430
 2910W        W 6961   6.437   7.254   9.484 -0.2569 -0.1836  0.2278
 2911W        W 6962   7.158   9.805   2.630  0.4709 -0.1449  0.1093
 2912W        W 6963   0.497   5.281  12.892 -0.0234  0.1325 -0.0798
 2913W        W 6964   1.480   0.283  13.141  0.1432 -0.0255  0.0815
 2914W        W 6965   2.402   6.915   0.555 -0.0692  0.0603  0.0523
 2915W        W 6966   3.441   0.102   4.038  0.1008 -0.3880 -0.0650
 2916W        W 6967   2.436   6.301   2.626  0.1601  0.1239 -0.0319
 2917W        W 6968   8.128   2.460   1.853  0.2657 -0.1245 -0.1459
 2918W        W 6969   7.133   6.761   3.355  0.0071 -0.0967  0.0571
 2919W        W 6970   5.489   6.598   1.194  0.0014  0.1182  0.2032
 2920W        W 6971   4.078   3.726   2.832 -0.0314 -0.0088  0.0996
 2921W        W 6972   9.609   7.142  13.723 -0.4292 -0.0605 -0.4165
 2922W        W 6973   0.626   6.878   0.302 -0.2554  0.0224 -0.0408
 2923W        W 6974   8.901   2.163  12.862  0.0432 -0.0271 -0.3959
 2924W        W 6975   6.797   8.310  12.405 -0.0812  0.3967 -0.0812
 2925W        W 6976   7.181   9.304  13.718 -0.3278 -0.0740  0.0878
 2926W        W 6977   8.300   8.189   9.489 -0.1017  0.0739  0.0399
 2927W        W 6978   1.223   2.303   4.793  0.0370  0.0411 -0.1521
 2928W        W 6979   3.786   9.087   3.139  0.0153  0.1417  0.2236
 2929W        W 6980   0.566   2.437   2.202 -0.0898  0.1981 -0.0605
 2930W        W 6981   7.901   5.700  11.309  0.3692  0.0403  0.0232
 2931W        W 6982   6.790   3.493  12.873 -0.2018  0.0226 -0.2575
 2932W        W 6983   5.068   7.167   9.483 -0.0689  0.0175 -0.2405
 2933W        W 6984   8.077   4.892  13.323  0.0960 -0.0542  0.1608
 2934W        W 6985  10.112   7.826  10.353 -0.0505  0.1967  0.2598
 2935W        W 6986   3.271   6.807  11.017 -0.4201  0.4339  0.1683
 2936W        W 6987   7.529   0.480   2.812  0.0330  0.1952  0.0673
 2937W        W 6988   0.353   0.047  12.834  0.1083  0.0250  0.2751
 2938W        W 6989   9.214   6.124  12.731  0.0713  0.2443 -0.1385
 2939W        W 6990   2.347   3.416  12.579 -0.1090 -0.2166 -0.3668
 2940W        W 6991   3.283   6.304  13.243 -0.2018  0.2061 -0.2486
 2941W        W 6992   8.031   3.409  13.706 -0.0281  0.0538 -0.1446
 2942W        W 6993   6.967   1.440   9.683 -0.2060 -0.0614  0.2481
 2943W        W 6994   1.271   3.217   0.361 -0.0209  0.1427 -0.2823
 2944W        W 6995   7.390   1.271   1.448  0.0063 -0.2287 -0.0653
 2945W        W 6996   1.258   7.938  10.810  0.1308  0.2108 -0.1697
 2946W        W 6997   4.490   6.700  12.711  0.1578  0.1119  0.2926
 2947W        W 6998   6.386   0.441   0.722 -0.1914  0.0816 -0.0975
 2948W        W 6999   5.780   7.980   0.318  0.1882  0.1174  0.2055
 2949W        W 7000   8.684   0.563   3.342 -0.0596 -0.0298 -0.1762
 2950W        W 7001  10.111   0.887   2.287 -0.3140  0.0282  0.1107
 2951W        W 7002   7.040  10.100  12.775  0.2185  0.0142  0.1797
 2952W        W 7003   2.942   8.287   0.003  0.3560 -0.2410  0.0992
 2953W        W 7004   9.696   8.460  11.746 -0.0441  0.1382  0.1801
 2954W        W 7005   0.349   0.516   3.186 -0.0986  0.0549  0.3762
 2955W        W 7006   1.551   1.755   2.315  0.0674 -0.1759 -0.1514
 2956W        W 7007   4.738   2.111   1.929  0.0586 -0.1465  0.3167
 2957W        W 7008   4.982   2.500  13.370  0.1311 -0.0307  0.0011
 2958W        W 7009   0.049   0.088  10.145 -0.2456 -0.1410  0.0859
 2959W        W 7010   2.116   9.358  11.245 -0.0340 -0.0275  0.0454
 2960W        W 7011   3.655   1.255  11.308  0.0873 -0.2487 -0.3290
 2961W        W 7012   9.545   4.266   2.052  0.1936  0.0065 -0.1654
 2962W        W 7013   1.995   9.068  13.473 -0.2201 -0.2580 -0.3564
 2963W        W 7014   4.427   2.457  12.837  0.2853  0.1086 -0.1815
 2964W        W 7015   8.226   5.330  11.219  0.1199  0.1609 -0.0001
 2965W        W 7016   3.024   3.351   5.032  0.1367  0.0904  0.1226
 2966W        W 7017   0.488   7.084  10.088  0.1047  0.0222 -0.0315
 2967W        W 7018   2.532   2.922  10.996  0.2637 -0.1423  0.0714
 2968W        W 7019   8.126   3.258   4.961  0.1223  0.3739 -0.0378
 2969W        W 7020   3.021   5.879  13.202  0.1313  0.3320 -0.0458
 2970W        W 7021   9.270   6.309   1.544 -0.2534 -0.0989 -0.0514
 2971W        W 7022   5.596   5.650   3.016  0.1134  0.1672 -0.0476
 2972W        W 7023   8.810   5.963  11.533 -0.1701  0.0263  0.1499
 2973W        W 7024   6.961   8.319  10.287 -0.1423  0.2019 -0.0659
 2974W        W 7025   4.335   0.558  11.475 -0.0460  0.0006  0.0461
 2975W        W 7026   3.339   5.046  11.548 -0.0520 -0.0516  0.2677
 2976W        W 7027   3.724   9.810   3.252  0.3920 -0.0258  0.0123
 2977W        W 7028   7.920   4.111  11.494 -0.2156 -0.1229  0.0265
 2978W        W 7029   6.837   1.491   2.743 -0.0261  0.0380 -0.2421
 2979W        W 7030   5.186   9.283   5.022  0.4201 -0.0872  0.0251
 2980W        W 7031   4.731   1.862   3.759  0.3462 -0.1450 -0.1217
 2981W        W 7032   0.800   1.933   5.779 -0.3221  0.2222  0.1499
 2982W        W 7033   3.964   7.783  13.108 -0.0429 -0.3459 -0.0665
 2983W        W 7034   0.457   2.665   5.230 -0.2005  0.1489  0.0470
 2984W        W 7035   2.349   5.757   9.781 -0.0411  0.1223 -0.1123
 2985W        W 7036   6.023   7.984  13.459 -0.0046  0.0164  0.0460
 2986W        W 7037   8.550   4.906  10.033  0.0325  0.1519  0.0569
 2987W        W 7038   2.587   7.259   2.937  0.0607  0.0881  0.2073
 2988W        W 7039   5.629   4.768  13.058  0.1741 -0.1134  0.1521
 2989W        W 7040   7.554   1.978   3.543 -0.1058  0.0736 -0.1305
 2990W        W 7041   1.603   6.957   0.049 -0.4416  0.2098 -0.2306
 2991W        W 7042   4.663   5.836   3.172 -0.1799 -0.0375 -0.3619
 2992W        W 7043   6.353   2.882   9.840 -0.0778  0.1830 -0.1712
 2993W        W 7044   6.837   3.204   4.459 -0.0662  0.0282 -0.1063
 2994W        W 7045   6.823   3.574   9.726 -0.0007  0.0449  0.3093
 2995W        W 7046   0.202   4.730   4.671  0.2382 -0.0432  0.1065
 2996W        W 7047   9.007   0.328   3.708 -0.0820 -0.2823  0.0012
 2997W        W 7048   8.405   1.847   9.784 -0.0030  0.2838 -0.1480
 2998W        W 7049   5.369   9.911  12.187  0.4093  0.0856  0.1684
 2999W        W 7050   1.850   1.948   0.604  0.1974  0.2313 -0.0125
 3000W        W 7051  10.091   5.042   9.450  0.2036 -0.2568  0.2075
 3001W        W 7052   8.694   1.060   2.421 -0.2924 -0.1437  0.2334
 3002W        W 7053   3.778   4.041   4.977 -0.1999  0.0459 -0.2091
 3003W        W 7054   7.428   4.885  12.690 -0.0521  0.0553  0.1531
 3004W        W 7055   6.118   9.713   0.903  0.0235  0.1808 -0.1234
 3005W        W 7056   9.801   7.729   1.754  0.1663  0.1163 -0.1616
 3006W        W 7057   2.421   3.475   4.352  0.1617  0.1585  0.0254
 3007W        W 7058   3.769   8.225   3.595  0.0241  0.1312  0.0478
 3008W        W 7059   6.519  10.002  10.652  0.3675  0.2885 -0.2668
 3009W        W 7060   6.366   8.299   1.968  0.0843  0.3731  0.0470
 3010W        W 7061   6.223   8.315  13.833 -0.1191 -0.2269  0.1154
 3011W        W 7062   1.578   1.840  10.216 -0.1964  0.0486  0.1088
 3012W        W 7063   5.616   6.204   3.507 -0.2161 -0.2049 -0.1194
 3013W        W 7064   8.130   9.658   8.643  0.0711  0.0787  0.1402
 3014W        W 7065   9.926   0.007   2.525  0.2982  0.1058 -0.0954
 3015W        W 7066   2.130   0.257   5.117 -0.2536 -0.0923  0.3276
 3016W        W 7067   6.445   1.603   9.691  0.0611 -0.0579  0.3043
 3017W        W 7068   7.542   3.136   0.425  0.2408 -0.0121 -0.0975
 3018W        W 7069   6.619   1.176  13.897  0.2122 -0.1627 -0.2269
 3019W        W 7070   5.199   3.225  11.920 -0.0742  0.1183  0.0930
 3020W        W 7071   4.596   0.387   4.598  0.2357  0.1760  0.1582
 3021W        W 7072   8.035   6.978   2.256  0.1233  0.0299 -0.1902
 3022W        W 7073   2.728   5.485  11.973 -0.0718  0.1249 -0.0931
 3023W        W 7074   7.215   2.642   1.701  0.3582  0.3788 -0.0503
 3024W        W 7075   2.480   2.098   4.517  0.1764  0.1829 -0.3072
 3025W        W 7076   5.171   8.689  10.449  0.1098 -0.1361  0.3827
 3026W        W 7077   6.159   5.849   0.892 -0.1672  0.3530 -0.1498
 3027W        W 7078   2.522   8.362   3.572  0.1098 -0.1285 -0.2185
 3028W        W 7079   1.924   4.711  12.446  0.0158 -0.0459 -0.4000
 3029W        W 7080   1.428   1.905   3.349 -0.1636  0.1998  0.2021
 3030W        W 7081   7.915   1.665  12.449  0.1445  0.0455 -0.0372
 3031W        W 7082   8.191   8.938   0.871 -0.1169 -0.1171  0.2703
 3032W        W 7083   1.150   2.609  10.193  0.3368  0.1371  0.2475
 3033W        W 7084   8.113   9.234  13.944 -0.5605  0.0689  0.1333
 3034W        W 7085   6.275   7.994   1.011 -0.0732  0.2445  0.1033
 3035W        W 7086   2.181   3.304  11.563 -0.1683  0.1435 -0.0564
 3036W        W 7087   3.056   4.208  10.949  0.0935 -0.2176 -0.4469
 3037W        W 7088   9.616   8.565   3.202 -0.0719  0.2733 -0.3213
 3038W        W 7089   8.949   8.443   3.825 -0.0668 -0.1376  0.1317
 3039W        W 7090   3.100   3.877   3.493 -0.2417 -0.0897 -0.0872
 3040W        W 7091   3.306   4.650  10.769 -0.3006  0.2271  0.0116
 3041W        W 7092   0.668   3.091   3.148 -0.1973  0.1955  0.1352
 3042W        W 7093   0.519   9.159   4.532  0.0859  0.1853 -0.1178
 3043W        W 7094   8.015   0.332  11.591  0.4555 -0.1796  0.3587
 3044W        W 7095   9.041   9.371   4.361 -0.0295 -0.2659  0.1989
 3045W        W 7096   1.863   0.500   4.747  0.0155 -0.1979 -0.0796
 3046W        W 7097   9.426   2.736   4.496  0.0399  0.0045  0.0123
 3047W        W 7098   6.760   6.906   9.098  0.1738  0.1964  0.0169
 3048W        W 7099   7.743   6.997   9.259 -0.1855 -0.0859 -0.1382
 3049W        W 7100   2.012   0.580   1.132  0.2119 -0.1402  0.1371
 3050W        W 7101   2.742   6.969  12.760 -0.3356 -0.1998 -0.2869
 3051W        W 7102   1.900   5.261  13.495  0.0472 -0.0196  0.0897
 3052W        W 7103   1.186   0.765  13.817  0.1586  0.1930  0.0255
 3053W        W 7104   0.362   8.931   3.762 -0.0291  0.0719 -0.0008
 3054W        W 7105   0.270   8.437   0.155  0.0238  0.1903  0.2250
 3055W        W 7106   9.216   6.225  11.637 -0.1657 -0.0234  0.0210
 3056W        W 7107   0.420   7.586   9.903  0.0218  0.0672  0.0276
 3057W        W 7108   8.909   1.354   0.504 -0.0245 -0.0472 -0.2910
 3058W        W 7109  10.018   2.033   2.562 -0.2265  0.0229 -0.2139
 3059W        W 7110   7.545  10.021   5.221 -0.0318 -0.2372 -0.0598
 3060W        W 7111   6.575   5.388  12.853  0.0648  0.4354  0.1141
 3061W        W 7112   0.340   8.269  12.734 -0.3924  0.0020  0.0499
 3062W        W 7113   2.821   1.210   9.128  0.0166 -0.0275  0.1115
 3063W        W 7114   4.014   1.650   4.136 -0.0508  0.0364 -0.0375
 3064W        W 7115   4.921   0.400  13.494  0.0777  0.1454  0.1981
 3065W        W 7116   8.109   5.971  12.303  0.3601 -0.2565 -0.1939
 3066W        W 7117   6.784  10.148   9.768 -0.0701 -0.2419  0.2512
 3067W        W 7118   7.721   9.101   9.828  0.0992 -0.0225  0.0762
 3068W        W 7119   8.800   6.365   1.875 -0.0774 -0.0947  0.0677
 3069W        W 7120   0.890   1.400  12.658 -0.0406 -0.0828  0.2894
 3070W        W 7121   6.644   5.693  11.369  0.1303 -0.3014 -0.1094
 3071W        W 7122   1.045   6.129   2.201 -0.1145  0.1605  0.0497
 3072W        W 7123   3.269   7.022   0.039 -0.1418  0.0650  0.2681
 3073W        W 7124   5.519   7.529  12.480  0.5435 -0.0236 -0.0814
 3074W        W 7125   7.433   8.446   0.710 -0.0910 -0.3272 -0.0192
 3075W        W 7126   9.428   4.024  10.994  0.1311 -0.2295  0.0825
 3076W        W 7127   2.057   9.924  11.347 -0.0985  0.0667 -0.1542
 3077W        W 7128   6.905   3.984   2.083 -0.1670  0.3810  0.1530
 3078W        W 7129   8.893   1.528   4.680  0.2346  0.1016 -0.1339
 3079W        W 7130   6.523   7.165   3.966  0.1304 -0.1600 -0.1265
 3080W        W 7131   2.671   9.924   1.414 -0.0486  0.0767  0.2293
 3081W        W 7132   7.150   2.819   9.821  0.1824  0.1060 -0.2057
 3082W        W 7133   5.638   5.044   1.869 -0.0997  0.1081  0.1513
 3083W        W 7134   9.836   4.668   1.921  0.1631 -0.2776  0.1373
 3084W        W 7135   3.822   0.107   1.946 -0.1819 -0.0386  0.0515
 3085W        W 7136   5.450   1.256  13.807 -0.1468  0.0741  0.4926
 3086W        W 7137   2.751   2.492  10.437 -0.0672 -0.2448  0.0098
 3087W        W 7138   6.409   7.468   3.493  0.2473  0.2901 -0.0986
 3088W        W 7139   4.335   7.072  12.167  0.0185  0.1331 -0.1907
 3089W        W 7140   0.465   8.853   3.119  0.0885  0.2017  0.0340
 3090W        W 7141   7.103   3.921   5.618 -0.0214 -0.0536  0.1218
 3091W        W 7142   7.312   3.651   4.690 -0.1794  0.1023  0.2008
 3092W        W 7143   6.763   1.711   1.154  0.1080 -0.0223  0.0428
 3093W        W 7144   3.998   3.576  13.207 -0.1227  0.0612 -0.0640
 3094W        W 7145   6.821   1.318   0.882 -0.2766  0.1018 -0.0166
 3095W        W 7146   1.339   8.935  10.777  0.3381  0.0656 -0.0729
 3096W        W 7147   5.745   3.378   1.526 -0.2493 -0.1502 -0.3282
 3097W        W 7148   8.181   1.207  10.923 -0.0886  0.0299 -0.1758
 3098W        W 7149   7.291   6.907  13.153 -0.1438 -0.1442 -0.1919
 3099W        W 7150   5.463   5.287   1.450 -0.0435  0.0588  0.1190
 3100W        W 7151   8.387   9.928   2.559 -0.1053 -0.1532  0.0016
 3101W        W 7152   0.364   4.329   2.531  0.2349 -0.1439 -0.2341
 3102W        W 7153   6.896   1.592  13.452 -0.1126  0.1701  0.1030
 3103W        W 7154   7.192   1.664  10.516  0.1243 -0.3932 -0.0728
 3104W        W 7155   5.889   8.802   2.626 -0.1150 -0.0300  0.1231
 3105W        W 7156   1.158   4.238  12.259 -0.1439  0.1792  0.1422
 3106W        W 7157   4.885   9.165   3.677 -0.1129  0.2122 -0.0172
 3107W        W 7158   5.159   9.828   2.062 -0.2786  0.0738 -0.0709
 3108W        W 7159   1.220   0.614   1.471  0.4620 -0.2288 -0.1870
 3109W        W 7160   1.296   9.568   5.045  0.0464  0.0512 -0.1156
 3110W        W 7161   2.145   2.555   0.026 -0.1977  0.1052  0.0464
 3111W        W 7162   6.925   0.623  10.235  0.0478  0.1614  0.2103
 3112W        W 7163   1.664   3.216   5.089 -0.1954 -0.0963  0.1993
 3113W        W 7164   4.503   6.077   1.726 -0.1779 -0.2787 -0.0362
 3114W        W 7165   3.649   9.532   0.256  0.0388 -0.4389  0.1065
 3115W        W 7166   3.530   1.305   1.677 -0.3285 -0.0651  0.1748
 3116W        W 7167   9.149   5.917   2.022  0.0961 -0.0207 -0.2129
 3117W        W 7168   8.223   0.638   8.836 -0.2240 -0.0062  0.2631
 3118W        W 7169   6.975   3.697   0.457 -0.2917  0.2659 -0.2206
 3119W        W 7170   5.881   9.734   5.316  0.2923  0.1102 -0.2200
 3120W        W 7171   7.320   0.621   5.023 -0.1620  0.1887 -0.2621
 3121W        W 7172   5.219   5.882   3.342  0.2002 -0.3406  0.1655
 3122W        W 7173   1.270   4.073   4.374  0.3586 -0.2288 -0.0246
 3123W        W 7174   3.599   7.465  12.269  0.3781  0.4779 -0.3669
 3124W        W 7175   0.171   8.426  11.468  0.2081 -0.0221  0.0176
 3125W        W 7176   4.974   6.142  13.841  0.2571 -0.2269  0.1051
 3126W        W 7177   7.631   1.947   4.989  0.0829 -0.0108  0.2557
 3127W        W 7178  10.108   9.679  11.641  0.0972 -0.0569 -0.1481
 3128W        W 7179   0.204   5.026  13.201  0.2538  0.1864  0.2052
 3129W        W 7180   2.910   5.466   2.999  0.2835  0.1313  0.1253
 3130W        W 7181   9.695   0.712   3.428  0.1393  0.1267 -0.0474
 3131W        W 7182   1.152   9.803   2.476 -0.2472  0.2082 -0.0054
 3132W        W 7183   0.286   0.367  10.605  0.1254 -0.2638 -0.1553
 3133W        W 7184   6.530   2.175   3.853  0.0635  0.1469 -0.2050
 3134W        W 7185   1.020   6.005  10.589 -0.0873  0.0524  0.2436
 3135W        W 7186   5.206   2.088  13.565 -0.0117  0.0181  0.4102
 3136W        W 7187   9.651   5.398   1.560 -0.2063 -0.1758 -0.1860
 3137W        W 7188   6.981   2.447  13.933  0.2152 -0.0233  0.2489
 3138W        W 7189   9.708   3.291   5.144  0.0473 -0.1480  0.1477
 3139W        W 7190   2.976   8.488  12.181  0.0772 -0.2735  0.0523
 3140W        W 7191   8.966   8.220   2.784  0.0614  0.0401 -0.1211
 3141W        W 7192   0.337   9.462   2.957 -0.0109  0.2568  0.0312
 3142W        W 7193   5.308   0.852   9.771  0.1446  0.0228  0.1066
 3143W        W 7194   4.967   5.374   0.170  0.0473 -0.0226 -0.2755
 3144W        W 7195   7.311   3.863   3.252 -0.0081 -0.3547 -0.1171
 3145W        W 7196   7.249   8.200   4.472 -0.1287  0.4136 -0.1530
 3146W        W 7197   2.057   3.123   8.144 -0.0103 -0.0203  0.0082
 3147W        W 7198   3.935   3.264  12.142 -0.0550 -0.0051  0.2475
 3148W        W 7199   5.541   9.445  13.280 -0.1040  0.1332 -0.0632
 3149W        W 7200   4.451   7.398  10.684  0.2686 -0.1706 -0.0381
 3150W        W 7201   0.084   5.475  12.481  0.1657 -0.1222 -0.1292
 3151W        W 7202  10.167   2.598   0.748 -0.2075  0.2405 -0.1900
 3152W        W 7203   4.530   8.281  10.209 -0.4185 -0.1190  0.0162
 3153W        W 7204   7.582   1.335  13.260  0.1886 -0.1845  0.1647
 3154W        W 7205   9.850   8.278   2.525 -0.4172  0.2097 -0.1269
 3155W        W 7206   7.923   6.686  10.574  0.2556  0.0188 -0.1045
 3156W        W 7207   9.593   0.684   9.312 -0.1599  0.0792  0.0331
 3157W        W 7208   7.321   9.501   1.843  0.2865 -0.0760  0.0921
 3158W        W 7209   1.511   6.994  10.277  0.2425  0.1431 -0.1015
 3159W        W 7210   0.974   9.688   4.281 -0.0456  0.3226  0.0423
 3160W        W 7211   5.854   3.582   1.015 -0.0022 -0.2305  0.0225
 3161W        W 7212   7.635   0.291   9.802 -0.1322 -0.0883  0.0679
 3162W        W 7213   8.688   9.419   9.095  0.0534  0.1199  0.2056
 3163W        W 7214   5.236   4.661   1.974 -0.3113  0.0726 -0.0799
 3164W        W 7215   3.947   2.788   3.035  0.0920  0.2275 -0.1342
 3165W        W 7216   2.956   7.811   0.370 -0.0851  0.2209  0.0506
 3166W        W 7217   4.401   8.308   3.095  0.4406 -0.0803  0.0438
 3167W        W 7218   3.072   2.798   2.466  0.0901  0.0868 -0.3198
 3168W        W 7219   7.074   5.277   3.286  0.0823 -0.1149 -0.0346
 3169W        W 7220   6.152   7.171   2.067 -0.2539 -0.0132 -0.0155
 3170W        W 7221   7.844   4.238   8.714  0.0323  0.0920 -0.0421
 3171W        W 7222   1.125   4.711   1.594 -0.0054  0.2713 -0.6125
 3172W        W 7223   0.432   6.916  13.388 -0.2044 -0.2272 -0.0772
 3173W        W 7224   8.927   2.726   8.756 -0.2297 -0.1984  0.3946
 3174W        W 7225   2.612   5.072  11.156  0.1142  0.2110 -0.1943
 3175W        W 7226   7.796   6.390   0.701 -0.0468  0.3036  0.2031
 3176W        W 7227   5.064   1.903  13.047 -0.1555  0.1188 -0.0948
 3177W        W 7228   2.850   3.612   2.685  0.2173 -0.1579 -0.1196
 3178W        W 7229   7.318   1.485   2.926  0.1099 -0.3459  0.0691
 3179W        W 7230   4.218   4.694  11.795  0.0417  0.1796  0.1165
 3180W        W 7231   9.654   5.001   9.689  0.1413 -0.1642 -0.3882
 3181W        W 7232   4.778   0.968  11.842  0.1502 -0.3092  0.2003
 3182W        W 7233   4.097   5.393   0.521 -0.0285  0.2391  0.1372
 3183W        W 7234   8.629   4.179   2.299 -0.2906  0.3797  0.1095
 3184W        W 7235   9.981   9.271  11.375  0.2238 -0.1453 -0.0562
 3185W        W 7236   6.890   9.135  12.072 -0.1372  0.3086 -0.1588
 3186W        W 7237   5.447   3.697   1.221  0.0265 -0.1995 -0.0975
 3187W        W 7238   9.291   0.701   1.000  0.0210 -0.0227  0.0768
 3188W        W 7239   3.817   3.215  12.844  0.3071 -0.0615 -0.0550
 3189W        W 7240   0.925   1.949  11.349 -0.2467 -0.0695  0.2775
 3190W        W 7241   3.105   4.442  12.742 -0.1197  0.0031 -0.2830
 3191W        W 7242   8.118   3.542   1.658 -0.2713 -0.0809 -0.3238
 3192W        W 7243   5.407   8.006   1.676 -0.0013 -0.1770  0.0245
 3193W        W 7244   3.360   4.100  13.890 -0.2980  0.1180 -0.1372
 3194W        W 7245   7.837   5.176   1.320  0.2291  0.1152 -0.0780
 3195W        W 7246   2.682   0.444   0.142  0.2974 -0.0987  0.0027
 3196W        W 7247   7.361   9.885   2.111 -0.0454 -0.1457 -0.1436
 3197W        W 7248   5.876   8.108   1.231 -0.0102 -0.0314 -0.0203
 3198W        W 7249   1.691   5.516   1.038 -0.2889 -0.1964 -0.2029
 3199W        W 7250   8.655   6.802  13.685  0.0225  0.0263 -0.3865
 3200W        W 7251   8.314   1.521   3.390  0.0300  0.3053  0.2280
 3201W        W 7252   5.943   1.834   3.112 -0.2175 -0.0900  0.0469
 3202W        W 7253   7.199   5.949  12.508  0.0217 -0.1654 -0.0822
 3203W        W 7254   4.187   4.811   2.668  0.2489  0.0766  0.0120
 3204W        W 7255   9.657   3.136  13.112  0.0568 -0.0454 -0.1653
 3205W        W 7256   3.591   8.259   2.815  0.0067  0.3455  0.1100
 3206W        W 7257   9.944   2.877   1.754  0.3411 -0.1252  0.0366
 3207W        W 7258   5.390   4.667  13.804 -0.3508  0.1881  0.0434
 3208W        W 7259   8.976   4.983   4.208  0.1553 -0.1735 -0.0127
 3209W        W 7260   5.789   8.422  10.840 -0.0829  0.0065  0.0912
 3210W        W 7261   7.003   6.620  10.010 -0.3594 -0.4245 -0.0650
 3211W        W 7262   2.683   1.739  13.071  0.0742 -0.0076 -0.0964
 3212W        W 7263   8.392   3.879   9.917 -0.0011 -0.0242  0.0695
 3213W        W 7264   5.831   9.899   2.343  0.2829 -0.0710 -0.2838
 3214W        W 7265   7.553   7.216   9.696  0.0913 -0.0895 -0.0982
 3215W        W 7266   6.641   5.965   9.245 -0.2124 -0.1372 -0.1623
 3216W        W 7267   1.618   2.577   2.958  0.1575  0.0089  0.1658
 3217W        W 7268   3.525   5.426   1.452  0.1649 -0.5063  0.1165
 3218W        W 7269   3.262   1.229   3.872  0.1740  0.0894  0.2094
 3219W        W 7270   9.218   5.473  13.172 -0.1101 -0.1249 -0.1125
 3220W        W 7271   9.273   0.721  10.658  0.0164  0.2859 -0.0464
 3221W        W 7272   4.844   1.115  10.901 -0.0669  0.3260  0.2381
 3222W        W 7273   4.142   4.878   0.809 -0.0402  0.0435 -0.2126
 3223W        W 7274   6.504   7.908  13.530 -0.0305  0.0382 -0.1907
 3224W        W 7275   6.608   3.485   3.284 -0.2697  0.1491  0.0303
 3225W        W 7276   7.383   6.434   1.612  0.0148 -0.2675 -0.0002
 3226W        W 7277   6.142   3.096  13.155 -0.1048  0.1682  0.1617
 3227W        W 7278   1.804   9.468   1.397  0.1707  0.2598 -0.1942
 3228W        W 7279   9.008   3.589   4.241 -0.0975  0.2479 -0.2379
 3229W        W 7280   4.892   0.838  13.238  0.3401 -0.0176 -0.0193
 3230W        W 7281   8.127   2.217   2.737  0.0181  0.1405  0.1622
 3231W        W 7282   9.855   0.432   3.884  0.0841  0.1590  0.0768
 3232W        W 7283   7.928   5.387  13.478  0.0343 -0.0601 -0.0259
 3233W        W 7284   8.650   0.443   9.145  0.2371 -0.0200  0.0986
 3234W        W 7285   7.615   6.495   4.067  0.1768 -0.2080  0.0679
 3235W        W 7286   7.092   3.787   1.113 -0.0856  0.0737 -0.2344
 3236W        W 7287   5.683   2.271  13.343  0.1701  0.1648 -0.0959
 3237W        W 7288   2.189   1.615  13.873  0.0069  0.0271  0.2556
 3238W        W 7289   5.086   0.212   1.899 -0.2293 -0.1488 -0.1164
 3239W        W 7290   6.496   8.007   5.451 -0.0282  0.0597  0.2047
 3240W        W 7291   5.755   7.875  10.657  0.2660  0.0164  0.0116
 3241W        W 7292   2.217   7.617   3.102 -0.2021  0.0536 -0.2009
 3242W        W 7293   8.262   6.737   5.339  0.1255 -0.3578  0.0169
 3243W        W 7294   2.183   8.467  12.821 -0.0750 -0.1886 -0.0323
 3244W        W 7295   6.660   7.336   3.100  0.0494  0.0834  0.1281
 3245W        W 7296   2.325   7.080  13.496  0.1945 -0.0238 -0.0964
 3246W        W 7297   1.166   7.416   2.171 -0.0620  0.3242 -0.2056
 3247W        W 7298   6.086   3.924  11.112  0.1603  0.0746 -0.2776
 3248W        W 7299   3.652   5.605  10.875 -0.4240 -0.2480  0.3539
 3249W        W 7300   1.885   1.140  10.271  0.0895  0.0745  0.4958
 3250W        W 7301   4.649   0.343  10.151 -0.0036 -0.0135 -0.0234
 3251W        W 7302   2.242   0.669   2.066 -0.1320 -0.0344 -0.0583
 3252W        W 7303   7.049   9.815  13.652  0.1192 -0.1418 -0.0824
 3253W        W 7304   3.357   9.982   2.073  0.2895  0.3335  0.1613
 3254W        W 7305   9.728   2.556   9.673  0.0995 -0.1932 -0.0057
 3255W        W 7306   7.240   3.475  13.145  0.1811 -0.0791 -0.0004
 3256W        W 7307   8.479   7.630   0.698 -0.0453 -0.0092  0.1091
 3257W        W 7308   5.908   0.450  10.133 -0.3030  0.2455 -0.0105
 3258W        W 7309   0.214   5.693   1.715  0.0821  0.0712  0.0401
 3259W        W 7310   6.710   8.450   3.460 -0.3803 -0.0720  0.1757
 3260W        W 7311   6.873   1.723  12.387  0.0885  0.2691 -0.1337
 3261W        W 7312   4.487   9.743  11.842  0.1970  0.3694  0.1172
 3262W        W 7313   4.158   4.163   2.604  0.1836 -0.1482 -0.2480
 3263W        W 7314   6.848   9.469  13.343 -0.2037  0.1668 -0.0522
 3264W        W 7315   1.879   8.939   1.644 -0.0366 -0.0421  0.3438
 3265W        W 7316   8.747   6.425   4.321  0.2216 -0.1637 -0.1078
 3266W        W 7317   9.061   4.045   1.109  0.0187  0.1408 -0.1099
 3267W        W 7318   9.507   4.661   1.515  0.3602 -0.1006  0.1861
 3268W        W 7319   9.206   8.643  10.074 -0.0138  0.1772 -0.0182
 3269W        W 7320   1.585   7.255   4.194 -0.0908 -0.2392  0.3044
 3270W        W 7321   9.878   3.613   4.865  0.0975 -0.1241  0.2565
 3271W        W 7322   7.586   6.518   2.509  0.0157  0.3229 -0.5749
 3272W        W 7323   2.812   1.019   2.784 -0.2738 -0.2209 -0.0941
 3273W        W 7324   8.330   1.170  12.017 -0.0529  0.0738  0.0747
 3274W        W 7325   7.942   0.653   9.945  0.0870 -0.0865  0.2713
 3275W        W 7326   4.538   3.908  12.571  0.2904  0.4287 -0.1914
 3276W        W 7327   7.919   8.968   3.813  0.2164  0.0105  0.2755
 3277W        W 7328   1.233   0.141  11.245 -0.0021  0.3399  0.0114
 3278W        W 7329   5.082   2.310  11.911  0.0926 -0.1856 -0.0086
 3279W        W 7330   7.610   3.372   1.751 -0.0629  0.1687 -0.1330
 3280W        W 7331   7.590   1.382   5.597  0.1228  0.0100 -0.0601
 3281W        W 7332   4.467   8.511  13.290 -0.1535  0.0015  0.0390
 3282W        W 7333   4.139   3.770   4.815 -0.1433 -0.0484 -0.0418
 3283W        W 7334   7.133   3.721  11.375 -0.3801 -0.1355 -0.2341
 3284W        W 7335   8.399   1.877  12.720 -0.0134  0.0448 -0.0209
 3285W        W 7336   9.453   3.319   3.274  0.2183 -0.2312 -0.0595
 3286W        W 7337   1.984   4.187  11.746 -0.0362 -0.0557 -0.2764
 3287W        W 7338   7.631   0.980  10.797  0.0632  0.1033 -0.2184
 3288W        W 7339   3.526   5.920   2.217 -0.0227  0.2023  0.2698
 3289W        W 7340   5.125   1.171  10.094 -0.1730 -0.1164 -0.2275
 3290W        W 7341   6.313   7.040  12.000 -0.0474 -0.0489 -0.0506
 3291W        W 7342   7.090   9.545  12.344  0.0284 -0.2028  0.0018
 3292W        W 7343   3.833   1.885   2.670 -0.0493  0.2483  0.2062
 3293W        W 7344   1.869   6.966   0.908  0.2819 -0.1566  0.2110
 3294W        W 7345   6.387   0.201   4.646 -0.0399 -0.0990 -0.2209
 3295W        W 7346   2.459   1.977  11.299 -0.1570 -0.1227 -0.3092
 3296W        W 7347   1.014   3.885  11.169  0.1125 -0.1996  0.2552
 3297W        W 7348   2.698   9.631  13.910  0.1121 -0.1908  0.0022
 3298W        W 7349   2.149   1.386   4.741  0.0380  0.0141  0.0730
 3299W        W 7350   5.239   4.927   1.232  0.0834 -0.0959  0.1883
 3300W        W 7351   1.671   1.544  13.726  0.0957  0.0375 -0.0892
 3301W        W 7352   9.813   3.582   3.368 -0.0255 -0.1674  0.1223
 3302W        W 7353   1.767   1.633  12.118 -0.0635  0.2167 -0.1488
 3303W        W 7354  10.053   5.956   1.475 -0.2609 -0.0812  0.0534
 3304W        W 7355   9.238   2.087  13.253 -0.1158  0.2195 -0.1189
 3305W        W 7356   7.349   5.677   8.907  0.2456 -0.3839  0.1069
 3306W        W 7357   2.449   3.761   8.893  0.1050 -0.2637  0.4976
 3307W        W 7358   0.786   7.014  10.892  0.3522  0.1154 -0.0421
 3308W        W 7359   5.682   4.472   4.274 -0.0833  0.0917  0.0056
 3309W        W 7360   1.931   4.912   3.415  0.1201  0.0545  0.0110
 3310W        W 7361   9.180   9.216  13.618 -0.1322  0.3463  0.0700
 3311W        W 7362   8.594   3.024   9.103  0.2187  0.0243  0.0401
 3312W        W 7363   6.355   0.160   3.067  0.0078 -0.0205 -0.1467
 3313W        W 7364   7.270   5.094   4.571 -0.1774  0.1249  0.0825
 3314W        W 7365   7.526   9.258   9.341 -0.4021  0.1622  0.1463
 3315W        W 7366   0.963   4.394   4.646  0.1685 -0.1373  0.1389
 3316W        W 7367   4.340   2.518  11.215  0.1446  0.0666 -0.1266
 3317W        W 7368   8.979   6.703   8.779  0.0157  0.3836 -0.0643
 3318W        W 7369   3.684   1.399   9.763  0.1818 -0.0326  0.1896
 3319W        W 7370   8.788   3.973   9.077  0.1545 -0.2084  0.0763
 3320W        W 7371   6.868   5.219   2.346 -0.1828  0.3704 -0.3021
 3321W        W 7372   9.816   0.917  13.727  0.0622  0.0194  0.0774
 3322W        W 7373   3.151   8.313  10.801  0.2289  0.1959 -0.1801
 3323W        W 7374   6.940   0.356   4.155  0.0532  0.0987  0.2072
 3324W        W 7375   8.573   8.154   2.419 -0.0448 -0.1739  0.2299
 3325W        W 7376   9.372   8.437  13.950  0.0838 -0.0564 -0.0831
 3326W        W 7377   9.680   4.662   9.171  0.2052  0.1075  0.1778
 3327W        W 7378   6.480   0.959   4.896 -0.3670 -0.1528  0.2049
 3328W        W 7379   4.902   3.838  10.332 -0.1248  0.2065 -0.2183
 3329W        W 7380   1.932   9.882  10.117 -0.0134 -0.0354  0.0176
 3330W        W 7381   9.412   9.840  11.070 -0.2213  0.1008 -0.0742
 3331W        W 7382   1.672   0.284   5.198  0.3263  0.2183 -0.1005
 3332W        W 7383   9.983   4.965  13.506 -0.2538 -0.1528  0.1291
 3333W        W 7384   6.053   2.118   1.991 -0.0639 -0.0027  0.0798
 3334W        W 7385   3.693   7.417  12.804  0.3900 -0.3645  0.1691
 3335W        W 7386   4.487   9.281   4.325 -0.1577  0.0751 -0.1516
 3336W        W 7387   4.275   5.590   2.047 -0.1228 -0.1497 -0.1303
 3337W        W 7388   1.227   3.277   1.324  0.2618 -0.0056 -0.0262
 3338W        W 7389   8.244   9.824  13.186 -0.0161 -0.3093  0.0008
 3339W        W 7390  10.026   2.442   2.135  0.1422 -0.2271  0.1447
 3340W        W 7391   7.877   2.309  13.496 -0.0828 -0.1602 -0.1201
 3341W        W 7392   0.590   3.691   8.659  0.3756  0.2159 -0.0929
 3342W        W 7393   4.609   5.378   3.886 -0.1000  0.0019 -0.0104
 3343W        W 7394   6.672   2.253   4.285 -0.0942 -0.2748 -0.1979
 3344W        W 7395   7.524   6.124  11.560  0.0398  0.1085 -0.1994
 3345W        W 7396   6.610   8.126   2.430  0.1243 -0.4033 -0.1262
 3346W        W 7397   1.056   9.523   3.267 -0.0464 -0.0505 -0.0307
 3347W        W 7398   8.016   0.811  13.054  0.0763  0.2155 -0.0823
 3348W        W 7399   9.857   8.525  10.787  0.0409 -0.0017 -0.0147
 3349W        W 7400  10.164   7.295   4.241  0.0429  0.4139 -0.0689
 3350W        W 7401   5.897   0.173   2.150 -0.2644  0.2822  0.1360
 3351W        W 7402   2.512   7.029  11.548  0.1194  0.1688  0.0136
 3352W        W 7403   8.903   9.755   3.246  0.1299  0.0847 -0.0524
 3353W        W 7404   2.211   8.865  11.170  0.2082  0.1169  0.1115
 3354W        W 7405   2.043   8.466  12.301 -0.0328  0.0275 -0.1157
 3355W        W 7406   0.690   4.479   2.967 -0.1830  0.1342 -0.0491
 3356W        W 7407   7.468   7.131   0.298 -0.0802 -0.2055  0.2166
 3357W        W 7408   5.193   9.032   9.960  0.2025  0.2606  0.0551
 3358W        W 7409   4.476   4.315   0.118 -0.1266 -0.1112  0.2267
 3359W        W 7410   4.609   0.431  12.429  0.1575 -0.3243  0.0034
 3360W        W 7411   8.890   2.043   4.775 -0.1470  0.0493 -0.0815
 3361W        W 7412   5.781   2.881   1.337 -0.0787  0.0109 -0.0146
 3362W        W 7413   4.738   9.819  11.387  0.1066 -0.2759  0.0186
 3363W        W 7414   2.371   5.064   3.708  0.0161  0.0750  0.1086
 3364W        W 7415   0.462   2.796  12.870  0.2141  0.0050  0.0667
 3365W        W 7416   4.336   2.572   5.132  0.2415 -0.1556  0.2204
 3366W        W 7417   7.443   3.457  12.152  0.1331 -0.0692  0.0362
 3367W        W 7418   8.843   4.665   2.328  0.1504 -0.2624  0.0878
 3368W        W 7419   2.523   8.678  11.493 -0.0008 -0.2036 -0.0384
 3369W        W 7420   3.501   8.268  11.148  0.1068 -0.1945 -0.0577
 3370W        W 7421   3.425   6.375   2.363 -0.2437 -0.4660 -0.2327
 3371W        W 7422   2.302   7.982  10.960  0.0450 -0.0258 -0.2702
 3372W        W 7423   2.201   5.051   0.914  0.2622 -0.0817  0.0576
 3373W        W 7424   1.095   5.584   4.318 -0.0749  0.0628 -0.2859
 3374W        W 7425   6.650   5.895  13.723  0.1105 -0.2671 -0.0008
 3375W        W 7426   6.114   4.781   3.397 -0.1825  0.0189  0.1009
 3376W        W 7427   5.155   4.942  12.444  0.1756  0.2574  0.3615
 3377W        W 7428   4.864   5.826   1.062  0.0390 -0.3015  0.1285
 3378W        W 7429   8.781   8.676  13.419  0.1274  0.1350 -0.1926
 3379W        W 7430   7.455   2.164  11.502 -0.2476  0.2119 -0.0229
 3380W        W 7431   5.492   2.928  10.578 -0.1516  0.0492 -0.2334
 3381W        W 7432   5.114   6.827   3.711  0.4992 -0.0695  0.0525
 3382W        W 7433   9.100   0.793  11.688 -0.1457  0.0563 -0.2110
 3383W        W 7434   0.330   5.439   9.562  0.1530 -0.0123 -0.1774
 3384W        W 7435   2.581   2.488   9.459 -0.0304  0.0151  0.1056
 3385W        W 7436   0.873   4.546  13.221 -0.4765  0.2355 -0.2669
 3386W        W 7437   9.652   2.053   2.849  0.1939 -0.3033  0.1180
 3387W        W 7438   9.664   9.753   2.635  0.1985  0.1643 -0.0654
 3388W        W 7439   6.098   9.132   4.520 -0.0860 -0.1762 -0.0970
 3389W        W 7440   4.940   4.352  11.833 -0.0514  0.0001 -0.2262
 3390W        W 7441   9.723   3.423   4.076  0.3098  0.0742 -0.2995
 3391W        W 7442   2.007   3.412   8.772  0.0760  0.0774  0.1749
 3392W        W 7443   0.519   6.778   0.732  0.2399 -0.3119 -0.3085
 3393W        W 7444   6.175   5.850  12.906 -0.1581 -0.2431  0.2107
 3394W        W 7445   3.850   1.971  10.025  0.0551  0.0159 -0.0139
 3395W        W 7446   7.651   0.895  13.482 -0.3161 -0.0233 -0.3311
 3396W        W 7447   6.321   7.976  11.513 -0.1505 -0.0204 -0.1999
 3397W        W 7448   6.366   4.464  12.505  0.1689  0.0503  0.0099
 3398W        W 7449   8.854   8.205   1.971 -0.2048  0.2016  0.0077
 3399W        W 7450   6.549   5.665  11.848 -0.3227  0.0461 -0.3043
 3400W        W 7451   7.823   9.801  12.693  0.1213  0.0614  0.2666
 3401W        W 7452   3.460   3.145   5.166 -0.3031  0.1111 -0.0167
 3402W        W 7453   4.024   2.255   4.519  0.4588  0.1627  0.0290
 3403W        W 7454   5.438   7.402   0.091  0.1489 -0.1959  0.0385
 3404W        W 7455   4.529   0.405  13.862 -0.0899 -0.1823  0.2131
 3405W        W 7456   0.862   7.846  12.521 -0.0581  0.0067 -0.0583
 3406W        W 7457   8.531   9.827  13.659  0.1887  0.2391 -0.0242
 3407W        W 7458   1.405   4.179  11.413  0.0113 -0.0741  0.3034
 3408W        W 7459   9.531   6.532   2.809 -0.0227  0.0249 -0.2236
 3409W        W 7460   2.190   9.432  13.830  0.0644  0.0264 -0.2076
 3410W        W 7461   5.471   3.689  12.136  0.0327 -0.1857 -0.1415
 3411W        W 7462   1.939   8.806   2.572  0.0724 -0.0265  0.1569
 3412W        W 7463   0.335   5.241  12.126 -0.1159  0.0769 -0.0578
 3413W        W 7464   6.625   3.348  13.936  0.2087 -0.0605 -0.1158
 3414W        W 7465   0.454   7.300  12.638 -0.0644  0.0116 -0.0061
 3415W        W 7466   7.984   5.107  11.608 -0.0400  0.0025  0.0493
 3416W        W 7467   8.579   4.357  13.820 -0.0690  0.2154 -0.1117
 3417W        W 7468   7.930   6.326  13.623  0.1598 -0.0268 -0.0257
 3418W        W 7469   8.833   3.213   9.549  0.0634 -0.0893  0.2243
 3419W        W 7470   3.899   3.300   2.474  0.0947  0.0324  0.0770
 3420W        W 7471   5.591   4.703   9.648  0.2295  0.0793 -0.1190
 3421W        W 7472   2.392   2.092  13.749  0.1711  0.1561 -0.2380
 3422W        W 7473   7.486   1.659   4.378 -0.2827  0.0435  0.2217
 3423W        W 7474   0.058   2.684  12.629  0.1301  0.1170 -0.1618
 3424W        W 7475   2.236   6.790  10.689 -0.1106 -0.2349 -0.1661
 3425W        W 7476   8.816   6.174   3.765 -0.1310  0.1616 -0.1598
 3426W        W 7477   4.684   4.323  12.722 -0.1880  0.5032  0.1916
 3427W        W 7478   7.641   3.761  10.561 -0.0960 -0.1246 -0.1472
 3428W        W 7479   7.475   1.134   9.258  0.3973  0.3384 -0.0077
 3429W        W 7480   0.158   6.910   3.997  0.0572  0.1296  0.2269
 3430W        W 7481   3.829   1.635   3.286  0.1168 -0.1365 -0.3447
 3431W        W 7482   9.803   9.766  12.142 -0.0687 -0.2117 -0.2527
 3432W        W 7483   0.960   5.020  11.346 -0.2179  0.2503  0.2022
 3433W        W 7484   6.250   5.907  13.427 -0.0224  0.0337  0.6005
 3434W        W 7485   4.200   4.214   1.586  0.3485  0.2213  0.1716
 3435W        W 7486   2.915   8.673   3.386 -0.0802 -0.0666 -0.0837
 3436W        W 7487   0.052   9.475  12.085 -0.1698 -0.3039 -0.1468
 3437W        W 7488   2.457   3.291   3.880 -0.1639  0.0573 -0.1783
 3438W        W 7489   3.638   4.538  13.750 -0.5526 -0.1877  0.1812
 3439W        W 7490   8.832   7.447   2.033 -0.0351  0.0374 -0.0537
 3440W        W 7491   8.296   5.564  11.665 -0.2875 -0.1712  0.0406
 3441W        W 7492   5.834   6.473  10.379 -0.2295  0.2359 -0.3903
 3442W        W 7493   0.672   9.609  12.853 -0.0706  0.2126  0.2371
 3443W        W 7494   4.845   1.120   0.833 -0.0863 -0.0582 -0.0164
 3444W        W 7495   4.146   6.885   3.994  0.0598 -0.2017 -0.0771
 3445W        W 7496   8.645   6.691  13.221 -0.0484  0.2730  0.1159
 3446W        W 7497   0.274   4.413  12.488  0.1423 -0.2702 -0.0799
 3447W        W 7498   9.240   9.776   2.813  0.0526 -0.1586 -0.0047
 3448W        W 7499   1.523   3.742   1.963 -0.0769  0.2139 -0.0416
 3449W        W 7500   0.554   1.127   4.205 -0.0583 -0.1198  0.2168
 3450W        W 7501   6.710   0.610   4.554  0.1227  0.0123 -0.1048
 3451W        W 7502   7.936   8.407   0.484  0.1569  0.0148 -0.0342
 3452W        W 7503   3.217   8.311   1.650 -0.0342 -0.1139  0.3049
 3453W        W 7504   2.774   3.990   4.495  0.2556 -0.1565 -0.0673
 3454W        W 7505   4.093   3.216   0.946  0.2797 -0.2169  0.1643
 3455W        W 7506   5.316   9.783  10.248 -0.0077  0.1519 -0.2799
 3456W        W 7507   1.054   1.749   3.689  0.1147  0.3302  0.2088
 3457W        W 7508   6.652   9.647  11.409  0.2757  0.0462  0.0305
 3458W        W 7509   0.864   3.007   1.030 -0.1788  0.2016  0.0085
 3459W        W 7510   3.399   0.158  12.587  0.3119  0.0531 -0.1459
 3460W        W 7511   3.542   7.364  11.750 -0.0268  0.2606 -0.0399
 3461W        W 7512   1.981   5.709  11.300  0.1361  0.1995  0.3369
 3462W        W 7513  10.055   4.299   2.720  0.1137 -0.2985  0.0365
 3463W        W 7514   7.296   4.032  10.949  0.4299 -0.2082  0.0703
 3464W        W 7515   5.369   5.965   1.962  0.3069 -0.1008 -0.4673
 3465W        W 7516   6.696   3.980  12.626 -0.2223  0.0205 -0.0196
 3466W        W 7517  10.082   3.612   0.356 -0.0337 -0.2414 -0.0383
 3467W        W 7518   3.276   3.833   1.229  0.0791 -0.1031 -0.0440
 3468W        W 7519   1.630   9.229  12.671  0.1133  0.0461  0.0771
 3469W        W 7520   6.529   6.296   0.369 -0.2940  0.1282  0.0201
 3470W        W 7521   8.723   1.071  11.454 -0.0456  0.1621  0.0385
 3471W        W 7522   9.809   4.042  13.812  0.1212 -0.0495  0.3290
 3472W        W 7523   2.219   7.370   0.805 -0.0578  0.3413  0.1193
 3473W        W 7524   1.804   4.623  11.547  0.2054  0.0416 -0.2344
 3474W        W 7525   0.771   9.230   4.082 -0.3127  0.0051 -0.1492
 3475W        W 7526   2.077   9.725  10.929 -0.0788  0.0485  0.0102
 3476W        W 7527   6.591   3.315   0.443  0.2390  0.1750  0.1106
 3477W        W 7528   8.772   2.494  12.035  0.1157  0.0843  0.0929
 3478W        W 7529   4.866   5.983  12.535 -0.1847  0.0279 -0.1826
 3479W        W 7530   5.644   9.391  10.039 -0.0230  0.1208 -0.1073
 3480W        W 7531   4.729   3.517  12.084  0.3607 -0.0050 -0.0121
 3481W        W 7532   3.285   1.555   2.073 -0.3738  0.0838 -0.2248
 3482W        W 7533   2.805   1.775   2.379  0.6458 -0.3086 -0.3880
 3483W        W 7534   2.233   8.090   0.854  0.0243 -0.1421 -0.1357
 3484W        W 7535   0.026   7.751  12.011  0.2839 -0.0362 -0.2448
 3485W        W 7536   1.317   8.642   2.179  0.2248 -0.0583  0.2410
 3486W        W 7537   2.414  10.147   0.157 -0.1701  0.0428  0.0674
 3487W        W 7538   2.351   5.449  10.146  0.2699 -0.0291 -0.1509
 3488W        W 7539   1.277   0.685  12.041  0.3087  0.1980 -0.2021
 3489W        W 7540   1.731   8.021   0.045 -0.2147 -0.1102  0.3820
 3490W        W 7541   7.386   2.257  13.238  0.0251 -0.0986 -0.1005
 3491W        W 7542   7.647   3.635   4.210 -0.1309 -0.0040 -0.2076
 3492W        W 7543   9.642   4.412  12.253  0.0050 -0.0970  0.0268
 3493W        W 7544   0.737   3.343   0.658  0.0531 -0.3209  0.3399
 3494W        W 7545   5.152   1.686  13.875  0.1098 -0.1234  0.1534
 3495W        W 7546   0.400   1.120   3.734 -0.0184  0.0096  0.0482
 3496W        W 7547   3.746   6.674   0.741  0.1134 -0.1369  0.2694
 3497W        W 7548   2.546   2.055  12.734  0.0370  0.0196 -0.1884
 3498W        W 7549   9.433   0.918   1.558 -0.0450 -0.1623 -0.1147
 3499W        W 7550   8.185   5.655   0.884  0.1224 -0.0794  0.1187
 3500W        W 7551   4.363   0.892   4.819  0.0001 -0.0752 -0.0797
 3501W        W 7552   5.295   0.276  12.724  0.1879  0.3602 -0.0403
 3502W        W 7553   8.548   2.453   2.965 -0.0212 -0.0686 -0.1083
 3503W        W 7554   5.548   8.394  12.259  0.3111 -0.2247  0.0735
 3504W        W 7555   9.369   3.229  11.854  0.3397  0.2149 -0.3656
 3505W        W 7556   8.683   1.259   3.673  0.2751 -0.1615  0.0057
 3506W        W 7557   5.764   8.305   3.511  0.0054 -0.0693  0.1165
 3507W        W 7558   5.267   1.671   1.958  0.0204  0.2347  0.0947
 3508W        W 7559   8.748   2.710  10.260  0.2397  0.2061 -0.1418
 3509W        W 7560   3.987   2.726   4.626 -0.1456 -0.0924  0.0953
 3510W        W 7561   5.384   1.186   3.367  0.0235 -0.0765 -0.3927
 3511W        W 7562   0.405   3.220  13.180  0.1759  0.0238  0.2745
 3512W        W 7563   5.305   8.704   1.550  0.0067 -0.1188  0.0909
 3513W        W 7564   9.988   2.322   3.090  0.1278  0.1083  0.2300
 3514W        W 7565   3.638   7.150   3.459 -0.1518  0.1020  0.0217
 3515W        W 7566   0.962   1.821   1.645  0.2509  0.4198  0.3587
 3516W        W 7567   5.704   5.642   9.469 -0.0814 -0.2836 -0.1992
 3517W        W 7568   0.204   2.365   4.791 -0.0166  0.0590  0.1638
 3518W        W 7569   5.703   7.435   2.862 -0.0490 -0.2489 -0.1960
 3519W        W 7570   7.596   3.595  10.032 -0.1905  0.0223  0.4253
 3520W        W 7571   7.439   7.272  11.977 -0.2440  0.3542 -0.3687
 3521W        W 7572   1.650   0.731   0.014  0.3062 -0.3781 -0.0300
 3522W        W 7573   2.358   9.656   4.740  0.1020  0.1015 -0.2236
 3523W        W 7574   6.405   3.398   2.555 -0.1299 -0.0579  0.1447
 3524W        W 7575   1.843   6.366  10.146  0.1368 -0.1096  0.2280
 3525W        W 7576   5.032   6.761   1.215  0.0940  0.0486 -0.1548
 3526W        W 7577   5.652   3.210   3.221 -0.0571 -0.0983  0.3162
 3527W        W 7578   1.516   2.455  13.196 -0.1612  0.0492 -0.0818
 3528W        W 7579   3.971   4.391   1.206 -0.1690 -0.2496  0.3447
 3529W        W 7580   7.817   0.149  12.294 -0.1866  0.5804 -0.1889
 3530W        W 7581   3.900   8.349  13.669 -0.0015 -0.1926 -0.0425
 3531W        W 7582   2.560   8.210   1.405 -0.0577  0.0893  0.3288
 3532W        W 7583   4.683   8.266   2.597  0.2147 -0.0338 -0.1231
 3533W        W 7584   1.276   1.463   9.969  0.0173 -0.2815 -0.0839
 3534W        W 7585   2.871   1.311   3.606  0.3129  0.1397  0.0247
 3535W        W 7586   8.204   1.384  11.436 -0.0112  0.1828 -0.0202
 3536W        W 7587   9.259   8.856  13.245 -0.3299 -0.2131 -0.0927
 3537W        W 7588   7.643   4.179   2.256 -0.0484 -0.0381  0.0496
 3538W        W 7589   1.118   8.347  11.749 -0.2140 -0.1201  0.0522
 3539W        W 7590   2.235   6.360   1.288 -0.2111 -0.0141  0.0892
 3540W        W 7591   5.759   8.272   5.056 -0.1740 -0.3010  0.1972
 3541W        W 7592   5.094   1.365   4.187  0.1114 -0.0414 -0.1052
 3542W        W 7593   4.556   8.202   0.467 -0.0544  0.1322  0.1109
 3543W        W 7594   1.880   5.874   2.407 -0.1263 -0.2989 -0.1432
 3544W        W 7595   7.889   1.639   1.559  0.1017 -0.0755  0.0277
 3545W        W 7596   5.701   8.161   0.767 -0.0018 -0.0567 -0.0158
 3546W        W 7597   5.702   5.606  12.208 -0.0527  0.0069  0.0846
 3547W        W 7598   4.158   6.784  13.749 -0.2357 -0.0548 -0.1905
 3548W        W 7599   5.784   2.597   0.891 -0.3064 -0.0990  0.1678
 3549W        W 7600   2.706   6.443   1.062  0.1894 -0.3184  0.2494
 3550W        W 7601   4.138   6.569   3.643  0.2946  0.2475  0.3086
 3551W        W 7602   0.929  10.180   9.683  0.0353  0.2088 -0.3112
 3552W        W 7603   6.297   0.778  13.680  0.0905  0.1180  0.3114
 3553W        W 7604   4.442   5.471   9.883 -0.1036  0.1773 -0.0824
 3554W        W 7605   9.797   6.040   0.139 -0.0816 -0.1528 -0.1180
 3555W        W 7606   9.795   4.286   4.198 -0.1561  0.1338  0.1281
 3556W        W 7607   7.222   3.956   2.518 -0.4753 -0.1206 -0.0621
 3557W        W 7608   4.537   7.086   0.697  0.0757  0.0678 -0.0675
 3558W        W 7609   0.030   8.375  10.319  0.0398 -0.4707  0.1450
 3559W        W 7610   4.280   2.869   0.558 -0.1300 -0.3180 -0.0177
 3560W        W 7611   6.996   3.319   4.903 -0.3202 -0.2822 -0.0649
 3561W        W 7612   6.884   0.993   4.270  0.0255 -0.0130 -0.4400
 3562W        W 7613   9.752   0.960   4.510  0.3446  0.0471  0.0644
 3563W        W 7614   3.331  10.137   1.204 -0.1115  0.0020 -0.1180
 3564W        W 7615   5.227   9.781   5.262 -0.1060 -0.0669  0.0227
 3565W        W 7616   6.878   9.203   4.395 -0.4282  0.1827 -0.2227
 3566W        W 7617   7.141   9.074   1.598  0.1691 -0.1021 -0.1792
 3567W        W 7618   6.092   4.174  10.163  0.0853 -0.1537  0.0225
 3568W        W 7619   9.193   4.648   1.927  0.0539 -0.2086 -0.0484
 3569W        W 7620   0.812   2.777  11.013 -0.0331 -0.0031 -0.2519
 3570W        W 7621   5.244   1.081   1.989 -0.0785  0.0202 -0.1594
 3571W        W 7622   0.523   2.591   4.208 -0.0057  0.1052 -0.2792
 3572W        W 7623   9.688   5.932  11.853 -0.1197 -0.0188 -0.2253
 3573W        W 7624   7.315   4.924   3.565 -0.4162  0.1240  0.1596
 3574W        W 7625   8.482   6.233  13.624 -0.2172  0.0542 -0.0430
 3575W        W 7626   0.749   5.292   0.689 -0.1707  0.2252  0.0521
 3576W        W 7627   5.266   3.485   3.307  0.0516 -0.1288 -0.0249
 3577W        W 7628  10.013   5.482   1.880  0.1928 -0.1050  0.0400
 3578W        W 7629  10.179   0.397  11.113 -0.0884 -0.4435 -0.1014
 3579W        W 7630   9.501   4.352   3.776 -0.2319  0.3423  0.2165
 3580W        W 7631   0.584   9.681   0.541  0.0683 -0.0417 -0.0974
 3581W        W 7632   6.202   8.747   0.504  0.0072  0.1079  0.0244
 3582W        W 7633   2.700   5.639   2.066  0.2134 -0.1134  0.1591
 3583W        W 7634   3.359   2.028  11.459  0.0468  0.1482  0.0127
 3584W        W 7635   4.398   0.615   9.676 -0.0016  0.2884  0.0911
 3585W        W 7636   2.395   0.099   1.252  0.0891  0.1941  0.1406
 3586W        W 7637   3.533   2.774  12.981  0.1635 -0.1085  0.3968
 3587W        W 7638   6.095   4.506   4.759  0.1433 -0.1706  0.2073
 3588W        W 7639   0.777   2.700   0.417  0.1157  0.0967 -0.0116
 3589W        W 7640   7.072   9.181   9.384  0.0368  0.3825  0.3679
 3590W        W 7641   6.643   9.409   9.218 -0.0408 -0.0714  0.2919
 3591W        W 7642   3.435   2.199   1.918  0.1272  0.1761  0.1178
 3592W        W 7643   3.834   5.028   1.800 -0.2543  0.0324 -0.2637
 3593W        W 7644   7.852   7.321  10.433  0.2665  0.1036 -0.0665
 3594W        W 7645   4.468   4.271  13.293  0.0678  0.2243 -0.1669
 3595W        W 7646   4.932   2.701  13.942 -0.2862 -0.0186 -0.2642
 3596W        W 7647   4.380   5.642   3.514  0.3513  0.1600 -0.0467
 3597W        W 7648   9.416   7.461   1.491 -0.3123  0.0361  0.1122
 3598W        W 7649   1.445   0.787   1.107 -0.2625  0.2114  0.3276
 3599W        W 7650   4.978   5.028  13.707  0.0089 -0.1041 -0.0098
 3600W        W 7651   5.954   4.859   5.194 -0.0411  0.0967  0.0650
 3601W        W 7652   0.922   1.075   2.519  0.1778  0.1981 -0.3541
 3602W        W 7653   0.280   6.522  12.438  0.0372 -0.0630 -0.2007
 3603W        W 7654   7.084   2.955   2.530  0.1458 -0.1869  0.5355
 3604W        W 7655   9.436   8.691  10.978 -0.0202 -0.1334  0.1184
 3605W        W 7656   2.053   0.117   0.880  0.2136  0.0392  0.0954
 3606W        W 7657   6.889   7.049   9.561 -0.0933  0.2819 -0.0500
 3607W        W 7658   3.163   7.397   2.762  0.1415  0.0985 -0.1826
 3608W        W 7659   4.622   8.980  13.371 -0.1264  0.2563 -0.1101
 3609W        W 7660   4.273   8.616  10.850  0.3224 -0.2226  0.0740
 3610W        W 7661   2.503   1.189  13.004 -0.0800  0.0341 -0.1623
 3611W        W 7662   2.643   8.688   0.070 -0.2289  0.0019 -0.4662
 3612W        W 7663   7.553   0.891   0.414  0.2871 -0.2337 -0.3929
 3613W        W 7664   2.944   9.121   2.922 -0.0566  0.0047 -0.1611
 3614W        W 7665   0.055   4.991   1.984 -0.2423  0.2508 -0.1273
 3615W        W 7666   7.957   3.512  12.420  0.0174  0.0654  0.0896
 3616W        W 7667   2.377   7.463  12.449  0.1353 -0.0748 -0.2350
 3617W        W 7668   1.372   1.174  12.825  0.0230 -0.0096  0.2662
 3618W        W 7669   4.206   9.487  10.719 -0.0284  0.0743  0.1488
 3619W        W 7670   3.087   8.079  11.349  0.1272 -0.0086 -0.1234
 3620W        W 7671   7.315   0.030   4.447  0.1021 -0.1476 -0.4583
 3621W        W 7672   6.273   3.942  12.396  0.0400  0.1941  0.0282
 3622W        W 7673   3.120   4.899   3.663  0.1979 -0.0552  0.2826
 3623W        W 7674   4.130   1.274   3.780 -0.1292  0.1485 -0.0618
 3624W        W 7675   4.570   6.473  13.875  0.2817  0.1066 -0.3321
 3625W        W 7676   9.473   2.026   1.112 -0.4087 -0.0227 -0.1011
 3626W        W 7677   2.670   9.804   1.918  0.0506  0.0954 -0.1927
 3627W        W 7678   5.548   3.471  10.467 -0.0949  0.0682 -0.4425
 3628W        W 7679   8.983   2.998   0.505  0.1663  0.0489  0.2371
 3629W        W 7680   5.571   2.381  11.674  0.3134  0.4451 -0.0770
 3630W        W 7681   2.564   9.470   1.226  0.3162 -0.0970 -0.0843
 3631W        W 7682   7.896   0.950  13.959  0.1960 -0.0462  0.2142
 3632W        W 7683   6.564   5.452   3.822 -0.1203 -0.1536 -0.0040
 3633W        W 7684   6.042   4.129   0.210  0.2034 -0.0623 -0.2366
 3634W        W 7685   1.361   2.018   4.376 -0.1793  0.0685  0.0113
 3635W        W 7686   8.472   6.579  12.677 -0.2041 -0.1769  0.0668
 3636W        W 7687   3.880   8.315  13.130  0.0026 -0.3253 -0.3770
 3637W        W 7688   0.918   1.225  13.691  0.0157  0.2907 -0.0988
 3638W        W 7689   5.248   4.177   1.819  0.3639  0.1716  0.2365
 3639W        W 7690   8.843   6.564  11.758 -0.1765  0.0158  0.1576
 3640W        W 7691   5.396   1.897  11.890 -0.1689  0.4227  0.3705
 3641W        W 7692   2.053   2.202   2.214  0.1651  0.3871  0.0543
 3642W        W 7693   4.851   1.729  12.667 -0.0430 -0.2255  0.0941
 3643W        W 7694   6.512   6.449   3.393 -0.0866 -0.0763  0.1470
 3644W        W 7695   1.650  10.102   3.951  0.1609 -0.2773 -0.0890
 3645W        W 7696   7.303   2.410  11.959 -0.0895  0.1640  0.2201
 3646W        W 7697   2.773   2.787  12.348  0.4168  0.0920  0.1816
 3647W        W 7698   3.304   6.201  12.439 -0.2588  0.0793 -0.3354
 3648W        W 7699   6.037   1.020  10.423 -0.3923 -0.1220  0.2204
 3649W        W 7700   9.256   0.349   0.274  0.3679  0.0505  0.0670
 3650W        W 7701   2.139   1.128   4.283  0.0577 -0.4361 -0.2328
 3651W        W 7702   3.481   2.872   2.764  0.1439 -0.2870  0.2991
 3652W        W 7703   0.029   1.962  12.337 -0.1626 -0.1535 -0.1660
 3653W        W 7704   8.325   4.595  11.847 -0.0023 -0.3017  0.1653
 3654W        W 7705   6.509   5.116   1.806 -0.0041  0.0292 -0.1219
 3655W        W 7706   7.482   1.799  13.625  0.3874  0.1192 -0.0334
 3656W        W 7707   9.451   3.638   1.498 -0.1677 -0.0719  0.1053
 3657W        W 7708   1.500   3.039   3.322 -0.0765  0.0779 -0.0066
 3658W        W 7709   5.029   6.231  12.146 -0.1337 -0.0023 -0.1581
 3659W        W 7710   0.241   8.257   4.315  0.1344  0.1537  0.0653
 3660W        W 7711   9.444   7.960   4.052 -0.0031  0.1665 -0.0690
 3661W        W 7712   9.140   9.611  10.219  0.1458  0.2817  0.1935
 3662W        W 7713  10.128   2.956  13.025 -0.0225 -0.0956  0.1061
 3663W        W 7714   5.709   8.595   4.385 -0.1168  0.1007  0.1630
 3664W        W 7715   8.275   9.345  13.147  0.0097  0.1586  0.2714
 3665W        W 7716   9.071   4.000   2.149 -0.1051  0.1334 -0.2629
 3666W        W 7717   0.138   4.336   3.427  0.0450  0.0990  0.1999
 3667W        W 7718   3.768   0.266   1.042  0.1979  0.0375 -0.3480
 3668W        W 7719   1.345   6.654  12.724  0.1287 -0.0943  0.0330
 3669W        W 7720   1.982   0.846   3.845 -0.0118  0.0392  0.0753
 3670W        W 7721   0.908   1.801   4.200  0.1561 -0.1796 -0.1511
 3671W        W 7722   0.903   0.822  12.890  0.0475 -0.0930 -0.0004
 3672W        W 7723   7.975   2.456   3.755  0.1959  0.2470 -0.0183
 3673W        W 7724   0.248   0.931   0.351  0.4039 -0.1564 -0.3080
 3674W        W 7725   4.971   9.418  11.081 -0.3137  0.5019 -0.4875
 3675W        W 7726   1.984   7.851  11.594 -0.0663 -0.0300 -0.0492
 3676W        W 7727   4.690   8.307   9.710  0.2881 -0.1040  0.2614
 3677W        W 7728   5.840   1.411  13.177  0.1268  0.1177 -0.1114
 3678W        W 7729   4.986   4.367   0.093 -0.0737  0.2324  0.0911
 3679W        W 7730   1.599   8.311   9.819  0.2725  0.1829 -0.2044
 3680W        W 7731   9.252   2.714   2.274 -0.0869  0.2157 -0.4096
 3681W        W 7732   6.266   4.326   3.321  0.1583  0.0232 -0.0230
 3682W        W 7733   1.090   3.204  13.584 -0.1334  0.1462 -0.1740
 3683W        W 7734   1.422   6.091   2.618  0.1241  0.1180  0.0829
 3684W        W 7735   5.489   4.877  10.539  0.1572  0.3477 -0.0916
 3685W        W 7736   9.812   3.812  11.354 -0.0588  0.0701  0.0273
 3686W        W 7737   8.826   2.735   1.154  0.1593  0.0386 -0.0629
 3687W        W 7738   0.035   6.951   1.442  0.1541  0.0492  0.0650
 3688W        W 7739   1.865   0.353   1.927 -0.3195  0.0157 -0.1698
 3689W        W 7740   9.937   4.619   0.412  0.0760 -0.0069 -0.2976
 3690W        W 7741   7.134   0.415   0.152 -0.1650 -0.1411  0.0282
 3691W        W 7742   6.651   7.246  12.275 -0.1666 -0.1559  0.0880
 3692W        W 7743   6.040   8.893  10.602  0.1131 -0.0167 -0.0397
 3693W        W 7744   4.308   1.094   9.856 -0.0041 -0.3369 -0.0327
 3694W        W 7745   0.832   8.287  12.711 -0.0989  0.2921 -0.1671
 3695W        W 7746  10.019   6.639   2.706 -0.0314 -0.3719  0.0592
 3696W        W 7747   3.954   3.266   3.401 -0.0770  0.0381 -0.1121
 3697W        W 7748   0.866   5.696   1.062 -0.0382  0.1174  0.3786
 3698W        W 7749   8.855   1.520   2.727 -0.1673  0.1761 -0.1260
 3699W        W 7750   7.490   3.305  10.420 -0.0765 -0.0587 -0.0755
 3700W        W 7751   2.649   6.248   9.865 -0.0619 -0.1049  0.1847
 3701W        W 7752   3.854   5.784   1.338 -0.2308  0.0255 -0.0727
 3702W        W 7753   6.323   4.889  11.963  0.0615  0.2673  0.1451
 3703W        W 7754   7.766   3.334  10.951  0.1227 -0.0997 -0.1324
 3704W        W 7755   3.788   9.205  11.553 -0.0026  0.1192  0.5308
 3705W        W 7756   7.625   4.196   0.440  0.3368 -0.0950 -0.0542
 3706W        W 7757   3.024   4.082   3.944  0.0441  0.0353  0.1294
 3707W        W 7758   9.474   5.510   2.033 -0.2452  0.0927  0.0796
 3708W        W 7759   1.420   7.728  12.493 -0.1070  0.2454  0.1807
 3709W        W 7760   9.818   9.783   2.132  0.0682  0.0089  0.2569
 3710W        W 7761   1.567   4.132   3.462 -0.0965 -0.0691 -0.1979
 3711W        W 7762   0.991   8.481   4.699 -0.2443 -0.4574  0.1465
 3712W        W 7763   6.136   8.694   4.172  0.3795  0.0370  0.2295
 3713W        W 7764   4.995  10.095  10.797 -0.3035 -0.0664 -0.2278
 3714W        W 7765   0.409   7.637  13.365  0.2662 -0.3068 -0.3702
 3715W        W 7766   5.702   4.322   1.996  0.2337 -0.1815  0.0084
 3716W        W 7767   7.443   2.948  10.789  0.3045  0.2222 -0.2201
 3717W        W 7768   6.667   9.530  10.694  0.1118 -0.2820  0.2129
 3718W        W 7769   2.676   3.040  13.387  0.1454 -0.0460 -0.2136
 3719W        W 7770   8.988   2.241   9.193 -0.0391  0.1470 -0.0982
 3720W        W 7771   7.264   4.006  13.374 -0.1771  0.0399  0.1770
 3721W        W 7772   0.821   9.708   2.873  0.0724  0.2820 -0.0491
 3722W        W 7773   9.965   5.216  12.110 -0.1615 -0.1982  0.1011
 3723W        W 7774   1.720   4.806  12.908  0.1994 -0.2017  0.0381
 3724W        W 7775   5.132   6.830  10.674  0.0349 -0.3503 -0.0068
 3725W        W 7776   2.088   4.754   2.166  0.3523 -0.1179 -0.0080
 3726W        W 7777   5.542  10.147   3.303  0.1474  0.2100  0.2420
 3727W        W 7778   6.526   2.184   1.228  0.4042 -0.1766 -0.1737
 3728W        W 7779   7.418   7.743  13.942 -0.1315 -0.2405 -0.2833
 3729W        W 7780   8.056  10.174  10.770 -0.1071  0.1664  0.2031
 3730W        W 7781   1.518   8.940   3.907 -0.2528 -0.0224  0.0830
 3731W        W 7782   3.195   2.690   3.602  0.2815  0.2859  0.1834
 3732W        W 7783   5.139   6.216   1.172 -0.1684 -0.1088 -0.1287
 3733W        W 7784   6.948   3.937   3.659  0.1574 -0.0794 -0.0277
 3734W        W 7785   4.527   7.103  13.058 -0.0520 -0.1174  0.2098
 3735W        W 7786   7.814   6.958   4.379 -0.0700 -0.0933  0.3835
 3736W        W 7787   7.563   3.121  13.391  0.2120 -0.0551 -0.0943
 3737W        W 7788   3.296   0.150   0.180 -0.1378 -0.0211 -0.1846
 3738W        W 7789   0.134   4.117  13.754 -0.0200 -0.0614  0.3225
 3739W        W 7790   2.051   7.623   3.593 -0.2221 -0.1299  0.0551
 3740W        W 7791   1.382   7.925   3.534 -0.3136  0.2335 -0.0903
 3741W        W 7792   8.599   5.336   0.984  0.0051 -0.0812 -0.2600
 3742W        W 7793   1.318   8.978  12.402  0.2593  0.1549  0.2038
 3743W        W 7794   9.859   3.429   1.815 -0.2482  0.0668  0.1705
 3744W        W 7795   9.066   5.949   0.592  0.0966 -0.1629 -0.0796
 3745W        W 7796   0.235   5.593  10.699 -0.0959 -0.2701  0.2789
 3746W        W 7797   1.734   2.169   2.664  0.2569 -0.2994 -0.0240
 3747W        W 7798   2.173   2.351   0.629  0.0694  0.0399  0.0561
 3748W        W 7799   1.434   9.937   4.395  0.0132 -0.2145  0.4337
 3749W        W 7800   5.327   0.214   2.919 -0.0343 -0.0690 -0.1531
 3750W        W 7801   9.938   5.750   3.057 -0.0110  0.1110 -0.1028
 3751W        W 7802   5.746   7.575  13.117  0.0333 -0.0010  0.2827
 3752W        W 7803   1.021   9.187  13.053  0.1925  0.2304  0.1021
 3753W        W 7804   6.268   7.147   9.938  0.1003  0.3332  0.1426
 3754W        W 7805   7.002   6.108   8.903  0.1234  0.2090 -0.2209
 3755W        W 7806   3.938   5.307  13.817 -0.1881  0.0935  0.0988
 3756W        W 7807   8.229   4.676  11.370  0.0397  0.0773  0.1883
 3757W        W 7808   2.358   9.228  10.800 -0.1228  0.1209 -0.5730
 3758W        W 7809   2.178   1.111  13.580  0.1263  0.0765  0.0311
 3759W        W 7810   0.494   8.792  12.628 -0.0409 -0.0778  0.0557
 3760W        W 7811   1.728   4.021   4.518 -0.1111 -0.1577 -0.0900
 3761W        W 7812   7.425   0.106   8.668  0.0112 -0.2645  0.0233
 3762W        W 7813   0.974   2.009  12.516  0.0704  0.1265  0.0355
 3763W        W 7814   6.064   5.026   0.720 -0.0360  0.2687  0.0288
 3764W        W 7815   2.956   2.828   1.387  0.0371 -0.0419 -0.0796
 3765W        W 7816   8.641   9.182  12.576  0.1525  0.0656  0.0287
 3766W        W 7817   0.444   0.834   2.232  0.1126  0.1466 -0.0736
 3767W        W 7818   3.401   0.440  10.079 -0.1307 -0.0881 -0.4177
 3768W        W 7819   9.797  10.074  13.414 -0.1740  0.2621  0.0473
 3769W        W 7820   1.883   1.444   2.723 -0.0080  0.1829  0.0159
 3770W        W 7821   6.678   2.517   9.744  0.3742 -0.2113  0.0806
 3771W        W 7822   3.407   2.124   9.225  0.0408 -0.3481  0.2047
 3772W        W 7823   6.075   9.482  12.078 -0.3260  0.1512 -0.2716
 3773W        W 7824   0.966   4.121   9.502 -0.0028  0.0284  0.1385
 3774W        W 7825   8.446   5.674  10.591  0.3082  0.1695 -0.0542
 3775W        W 7826   1.980   0.774  11.549 -0.0897  0.2278  0.1683
 3776W        W 7827   2.331   3.765  10.404  0.1727 -0.1904  0.1974
 3777W        W 7828   5.700   0.938  10.784  0.2598 -0.1070 -0.2353
 3778W        W 7829   1.737   8.537  11.138 -0.0537 -0.0458  0.0180
 3779W        W 7830   8.797   8.776   9.070  0.0731  0.2134 -0.0878
 3780W        W 7831   5.576   8.887  10.749 -0.1664 -0.4073 -0.0044
 3781W        W 7832   6.167   7.705  10.436  0.1233 -0.0386  0.1804
 3782W        W 7833  10.099   7.582  13.392  0.1231  0.1506 -0.0071
 3783W        W 7834   9.556  10.143  11.496  0.1808  0.2325  0.1216
 3784W        W 7835   0.633   8.066   1.712  0.5335 -0.1367 -0.0675
 3785W        W 7836   1.413   5.918  11.384 -0.3793  0.3102  0.0600
 3786W        W 7837   5.782   8.479   0.383 -0.1169  0.0940  0.2430
 3787W        W 7838   2.588   9.115  12.348  0.0260  0.0977 -0.2683
 3788W        W 7839   0.553   1.342   1.469 -0.1352  0.2937  0.2262
 3789W        W 7840   4.330   2.083   4.049  0.0917  0.2120 -0.2395
 3790W        W 7841   4.986   1.324  12.454 -0.0713 -0.3061  0.1354
 3791W        W 7842   9.329   7.536   0.067 -0.1548  0.0748 -0.0032
 3792W        W 7843   6.386   6.598  11.783 -0.0938 -0.0965 -0.0934
 3793W        W 7844   6.559   5.636   4.550 -0.0695 -0.0930 -0.0151
 3794W        W 7845   4.852   7.468   2.986  0.0882 -0.0515 -0.2629
 3795W        W 7846   5.614   0.075   4.061 -0.0884  0.0910 -0.0300
 3796W        W 7847   0.083   0.694  13.763 -0.3701 -0.0298 -0.0765
 3797W        W 7848   9.746   0.168  10.165 -0.0135 -0.0042 -0.2122
 3798W        W 7849   3.229   0.518   2.129 -0.1265 -0.0756  0.0114
 3799W        W 7850   0.618   4.873  12.277 -0.0501 -0.1010 -0.0837
 3800W        W 7851   2.534   0.536   4.980 -0.3233  0.0652 -0.3163
 3801W        W 7852   7.054   5.608   3.707  0.2377 -0.1886  0.0313
 3802W        W 7853   0.447   0.065  12.223  0.0806 -0.3385  0.2165
 3803W        W 7854   8.358   6.120   1.976 -0.0371  0.0263  0.1376
 3804W        W 7855   4.281   3.612   2.332 -0.1841  0.1450 -0.0516
 3805W        W 7856   1.247   1.351   0.454 -0.2738  0.1506 -0.1423
 3806W        W 7857   3.623   3.244  10.438 -0.1360 -0.2091 -0.2583
 3807W        W 7858   3.757   0.083  10.132  0.0106 -0.0729 -0.3260
 3808W        W 7859   6.660   8.854  11.677 -0.2296  0.1512  0.2732
 3809W        W 7860   4.800   3.293   3.338 -0.0112 -0.0961  0.0559
 3810W        W 7861   7.757   3.609   3.472  0.1325  0.0033  0.0739
 3811W        W 7862   0.218   3.096   5.495 -0.1668 -0.0042 -0.2592
 3812W        W 7863   4.246   4.684   1.759  0.3427  0.0169  0.0895
 3813W        W 7864   2.906   6.895   0.768  0.0484  0.3660 -0.0389
 3814W        W 7865   4.856   8.494   0.153 -0.0732 -0.0371 -0.1197
 3815W        W 7866   0.605   8.615  11.842 -0.1551 -0.0517  0.3144
 3816W        W 7867   1.761   7.347   2.828 -0.0024 -0.1662  0.1338
 3817W        W 7868   0.682   3.567   4.456  0.0723 -0.0290  0.2993
 3818W        W 7869   0.948   4.559   9.870  0.2240 -0.3054  0.0385
 3819W        W 7870   6.880   5.980  12.101  0.3565  0.1106 -0.4264
 3820W        W 7871   8.413   3.475   4.130  0.2291  0.0470  0.0397
 3821W        W 7872   8.133   8.851   0.310  0.2080 -0.0787 -0.0189
 3822W        W 7873   1.659   1.179   4.140 -0.1625 -0.3854  0.3068
 3823W        W 7874   0.196   6.403   0.788  0.0821  0.1041 -0.0774
 3824W        W 7875   7.500   2.366   1.318  0.2707  0.1775  0.1687
 3825W        W 7876   4.533   6.467  11.038  0.1554 -0.1149 -0.2390
 3826W        W 7877   3.268   7.107  12.720  0.1328  0.3704  0.0762
 3827W        W 7878   1.703   9.881  10.534  0.0016 -0.2116  0.0292
 3828W        W 7879   1.607   6.040   0.391  0.1519  0.1626 -0.4337
 3829W        W 7880   4.328   2.745   0.081 -0.1049 -0.0745 -0.1058
 3830W        W 7881   5.819   5.212   3.439  0.1274 -0.0145  0.2237
 3831W        W 7882   9.072   4.353  11.957 -0.3460 -0.1491  0.2677
 3832W        W 7883   9.764   2.825   0.888 -0.1159  0.0836 -0.0758
 3833W        W 7884   4.468   7.558  13.172  0.5278 -0.2158 -0.2383
 3834W        W 7885   9.325   8.965   2.620  0.0500  0.0125  0.0206
 3835W        W 7886   6.859   2.537   3.514  0.1637  0.2148  0.1921
 3836W        W 7887   0.304   3.476   2.362 -0.0675  0.0280  0.2693
 3837W        W 7888   2.624   8.342   0.484 -0.0640  0.0478 -0.0820
 3838W        W 7889   9.666   4.807   4.082 -0.3093 -0.0909 -0.0350
 3839W        W 7890   3.276   9.303  11.794 -0.1098  0.1223 -0.2495
 3840W        W 7891   0.007   3.008   9.393  0.1189 -0.1565  0.2388
 3841W        W 7892   4.361  10.108  13.863  0.1783  0.0151  0.1328
 3842W        W 7893   2.470   4.076   4.957  0.0299 -0.1099  0.0167
 3843W        W 7894   9.116   3.073   3.522 -0.2320  0.1308 -0.1796
 3844W        W 7895   3.624   0.879  13.710 -0.3416  0.0645 -0.1235
 3845W        W 7896   1.725   8.204  12.625  0.0631  0.1485 -0.1776
 3846W        W 7897   7.907  10.083  11.311 -0.0609  0.1433 -0.1203
 3847W        W 7898   5.872   1.215   3.084  0.0888 -0.1666 -0.1346
 3848W        W 7899   7.379   9.398   1.321  0.2229 -0.3193  0.0088
 3849W        W 7900   5.506   8.965   2.341 -0.1079 -0.3529  0.1299
 3850W        W 7901   9.805   8.868   0.239 -0.0652  0.2402 -0.0087
 3851W        W 7902   7.558   8.085   0.334 -0.0648 -0.0558  0.1484
 3852W        W 7903   5.727   5.689   3.566 -0.2306 -0.2925  0.2544
 3853W        W 7904   1.885   5.157  11.269 -0.2379  0.0983 -0.1510
 3854W        W 7905   7.449   5.954  13.432 -0.1175  0.1669  0.1603
 3855W        W 7906   8.952   6.582  12.801 -0.0639  0.2607 -0.4246
 3856W        W 7907   9.097   3.822   0.144  0.1296 -0.2739 -0.0673
 3857W        W 7908   5.892   1.423  13.976 -0.1813 -0.2251  0.1174
 3858W        W 7909   1.547   5.174  10.204  0.1604 -0.1427 -0.2613
 3859W        W 7910   1.015   5.210   4.656 -0.1987 -0.0463  0.1676
 3860W        W 7911   7.487   2.626  13.552  0.0090  0.3552 -0.1171
 3861W        W 7912   3.878   9.665  13.198  0.2666  0.1226  0.5174
 3862W        W 7913   9.026   1.243  10.761  0.1371  0.0401 -0.0976
 3863W        W 7914   6.132   5.790   2.312 -0.1241  0.1086 -0.0648
 3864W        W 7915   6.695   9.023   2.621  0.0644  0.0234 -0.0492
 3865W        W 7916   8.161   5.240   4.067  0.0361  0.1460  0.0167
 3866W        W 7917   0.588   3.942  11.577  0.0668 -0.0965  0.2128
 3867W        W 7918   0.815   0.712   3.967 -0.0388 -0.0514  0.0539
 3868W        W 7919   0.513   8.076  11.687  0.1125 -0.1587 -0.0690
 3869W        W 7920   7.998   3.038  12.107 -0.1242  0.0933  0.1177
 3870W        W 7921   9.099   7.657  10.587  0.0484 -0.0554  0.0422
 3871W        W 7922   7.188   7.936   0.810 -0.1606  0.2492  0.3709
 3872W        W 7923   5.797   7.096  11.086 -0.1268 -0.2618  0.1776
 3873W        W 7924   6.992   4.362   3.452 -0.3012  0.1007 -0.1482
 3874W        W 7925   7.458   7.807   9.574 -0.0509  0.1783  0.0467
 3875W        W 7926   1.293   3.788   1.423 -0.2673  0.1584  0.3674
 3876W        W 7927   0.250   9.395   0.791  0.0557  0.1473  0.4253
 3877W        W 7928   4.753   1.860   2.782  0.0754  0.4078 -0.1489
 3878W        W 7929   3.461   7.041   2.961  0.3757 -0.0023  0.0997
 3879W        W 7930   7.344   5.477   1.359 -0.0344  0.1140 -0.0067
 3880W        W 7931   6.869   3.472   2.338  0.0844  0.2534  0.2261
 3881W        W 7932   8.152  10.119  13.839  0.2864  0.0007  0.3979
 3882W        W 7933   5.315   5.285  13.336 -0.0040 -0.3759 -0.1321
 3883W        W 7934   2.927  10.169   4.061 -0.1581 -0.1070 -0.0786
 3884W        W 7935   6.203   0.003  13.384 -0.2597 -0.1837  0.0719
 3885W        W 7936   1.083   0.944   5.079  0.3097 -0.2015  0.1425
 3886W        W 7937   2.124   9.112   3.359  0.2576 -0.0771  0.3064
 3887W        W 7938   5.506   1.416  11.759 -0.0181  0.0679 -0.1339
 3888W        W 7939   5.656   0.779   3.214 -0.1623 -0.0271 -0.0512
 3889W        W 7940   2.876   5.910  11.301 -0.1523  0.0051 -0.1205
 3890W        W 7941   4.706   9.986   0.724  0.1237  0.2201  0.1776
 3891W        W 7942   8.432   8.895   1.703  0.0965  0.1350  0.2590
 3892W        W 7943   7.165   5.814  13.001 -0.1684  0.0936  0.0433
 3893W        W 7944   4.821   0.610  11.452 -0.0367  0.0053 -0.1890
 3894W        W 7945   4.423   4.232  10.997  0.0072  0.1059 -0.0557
 3895W        W 7946   0.940   9.433  13.555 -0.0872  0.0531  0.0981
 3896W        W 7947   2.581   8.704  12.633 -0.0875  0.3580 -0.4138
 3897W        W 7948   6.913   5.017  12.605 -0.1968 -0.0545 -0.1592
 3898W        W 7949   8.846   1.613   5.158 -0.0722  0.2321  0.0097
 3899W        W 7950   7.070  10.032   4.064 -0.0287  0.0672  0.3404
 3900W        W 7951   3.548   5.888  13.425 -0.1403  0.0186  0.1632
 3901W        W 7952   3.304   5.266   0.295  0.2752  0.0123 -0.0962
 3902W        W 7953   6.862   0.463   5.010 -0.2331 -0.1704 -0.0684
 3903W        W 7954   7.623   6.988   2.576  0.0459 -0.4176  0.1369
 3904W        W 7955   0.474   1.556   1.001 -0.1181  0.0132  0.1008
 3905W        W 7956  10.075   3.387  10.055 -0.2083  0.2087 -0.5297
 3906W        W 7957   3.580   1.877  13.255 -0.2167 -0.0440  0.1914
 3907W        W 7958   2.504   8.058  12.824 -0.3171 -0.0044 -0.4577
 3908W        W 7959   4.649   2.220   8.625 -0.0384 -0.0093  0.0080
 3909W        W 7960   2.292   2.871  13.129  0.2842  0.4583  0.4793
 3910W        W 7961   1.202   4.832  12.906  0.0603  0.1275 -0.1524
 3911W        W 7962   8.827   2.938   4.917  0.0035 -0.2602  0.0132
 3912W        W 7963   9.457   9.560   1.801 -0.2203  0.1073 -0.0376
 3913W        W 7964   3.700   9.677  10.587 -0.0147 -0.2789  0.1957
 3914W        W 7965   8.274   1.386  10.154  0.2445 -0.4606 -0.3061
 3915W        W 7966   0.245   0.175   2.332  0.1912  0.1110 -0.1934
 3916W        W 7967   0.559   0.084   4.847  0.1797 -0.2357  0.4444
 3917W        W 7968   1.008   5.846   2.624 -0.0891  0.2337  0.0564
 3918W        W 7969   5.229   0.710   1.142  0.1335  0.1929 -0.4615
 3919W        W 7970   1.058   8.695   4.029  0.0389  0.1735  0.0951
 3920W        W 7971   6.140   7.731   0.622 -0.0859  0.0082  0.0284
 3921W        W 7972   7.302   9.842   4.829  0.2094 -0.0655 -0.0180
 3922W        W 7973   3.029   2.913  10.213  0.1865  0.1667  0.0007
 3923W        W 7974   8.314   8.527  13.650 -0.0411  0.0451 -0.1867
 3924W        W 7975   5.268   4.307  11.444  0.0572  0.0486 -0.3800
 3925W        W 7976   3.884   7.940  10.811 -0.0332  0.1229  0.3071
 3926W        W 7977   3.098   9.536   2.114 -0.1696 -0.0010  0.0255
 3927W        W 7978   2.993   6.845   1.238  0.2044  0.1598 -0.0483
 3928W        W 7979   9.742   5.890   3.549  0.4711 -0.3460 -0.0231
 3929W        W 7980   4.641   0.743   2.989  0.1394  0.1086 -0.0139
 3930W        W 7981   9.864   0.547   4.818 -0.0310  0.1197  0.0303
 3931W        W 7982   4.035   1.599  13.805  0.0485  0.0043  0.0889
 3932W        W 7983   9.746   6.736   1.430 -0.2401  0.0704  0.0611
 3933W        W 7984   8.998   1.552  12.102  0.1782 -0.3344 -0.2278
 3934W        W 7985   4.412   4.307  12.116  0.0200  0.0608  0.0200
 3935W        W 7986   8.845   3.773  13.187  0.0415  0.3226  0.0409
 3936W        W 7987   7.754   2.656   9.915  0.2989  0.0500 -0.0065
 3937W        W 7988   1.899   4.136   1.093  0.0405 -0.5438  0.0291
 3938W        W 7989   7.442   7.755   4.681  0.0827 -0.2534  0.0274
 3939W        W 7990   6.194   3.273   1.371 -0.0974  0.3027 -0.1435
 3940W        W 7991   6.173   9.887   2.717 -0.0681  0.0101  0.0653
 3941W        W 7992   7.523   5.460   3.520  0.2444  0.1360  0.2237
 3942W        W 7993   0.575   4.467  11.675  0.0712 -0.3315  0.1404
 3943W        W 7994   7.494   2.485   0.816  0.1919  0.3100 -0.2704
 3944W        W 7995   3.735   7.475   0.889  0.1071 -0.1085 -0.1695
 3945W        W 7996  10.177   3.868  10.272  0.0118  0.1479 -0.2893
 3946W        W 7997   8.570   2.215  10.206 -0.3472 -0.2028  0.2922
 3947W        W 7998   9.093   2.927  13.704  0.0867 -0.1653  0.0533
 3948W        W 7999   1.789   3.631  10.678  0.0181  0.0515 -0.0381
 3949W        W 8000   3.860   9.368  12.786  0.0284 -0.1540 -0.0480
 3950W        W 8001   3.339   9.132   0.263  0.0844  0.2360 -0.3204
 3951W        W 8002   5.487   4.380   9.988 -0.1194 -0.0788 -0.0462
 3952W        W 8003   9.201   9.224   0.956 -0.1409 -0.1149 -0.0662
 3953W        W 8004   5.146   3.115  11.130 -0.1727 -0.1350 -0.0907
 3954W        W 8005   2.006   7.876  12.924  0.1748  0.0944  0.2008
 3955W        W 8006  10.112   9.035  13.538 -0.0100  0.1998  0.1890
 3956W        W 8007   8.751   6.126  10.495  0.1208 -0.0081  0.0792
 3957W        W 8008   5.664   5.139   3.917 -0.1012  0.2480  0.0035
 3958W        W 8009   6.219   7.414   1.647  0.2624  0.0643  0.2020
 3959W        W 8010   8.300   5.026  12.419  0.2587  0.2888  0.0036
 3960W        W 8011   1.474   5.041   1.441  0.0221 -0.1402 -0.1201
 3961W        W 8012   3.079   1.897   0.945  0.0950 -0.1759  0.0008
 3962W        W 8013   8.663   0.227   4.401  0.1414  0.0614 -0.4062
 3963W        W 8014   4.081  10.097   1.085 -0.0490  0.0757 -0.1213
 3964W        W 8015   0.180   0.140   9.421 -0.1220  0.2837  0.0151
 3965W        W 8016   6.794   4.212  12.170  0.2839 -0.1217 -0.0609
 3966W        W 8017   0.477   0.388  13.654 -0.2928  0.1848  0.2927
 3967W        W 8018   6.199   6.890   1.698 -0.0521  0.0593 -0.1775
 3968W        W 8019   0.279   3.131   1.136  0.1579  0.4865 -0.1137
 3969W        W 8020   7.593   9.940  10.936  0.0658 -0.1020  0.0007
 3970W        W 8021   3.448   8.823  11.801 -0.1490 -0.1109 -0.1243
 3971W        W 8022   3.440   2.175   4.799  0.4188 -0.3261 -0.0551
 3972W        W 8023   2.726   3.804   3.193  0.6208  0.3322 -0.3744
 3973W        W 8024   7.179   7.557   3.084 -0.2243 -0.0449 -0.2027
 3974W        W 8025   5.010   0.626   0.680  0.0365 -0.4130  0.3192
 3975W        W 8026   6.902   4.297   1.655  0.2605  0.1234  0.2351
 3976W        W 8027   3.285   2.440   2.827 -0.0765 -0.0364 -0.0521
 3977W        W 8028   9.831   3.269   0.009 -0.0420  0.3530 -0.1127
 3978W        W 8029   7.557   9.684  13.618 -0.1408  0.0174 -0.1048
 3979W        W 8030   7.180   8.588   0.281 -0.0263 -0.3515  0.0170
 3980W        W 8031   9.836   0.153  12.448  0.4129  0.0604  0.0137
 3981W        W 8032   5.028   1.247  11.450 -0.0236 -0.1573  0.0019
 3982W        W 8033   0.925   6.302  11.636  0.2042 -0.4411 -0.2070
 3983W        W 8034   2.320   2.059  13.258 -0.0293  0.0069  0.0084
 3984W        W 8035   3.265   8.819   0.822  0.0304 -0.1149 -0.1445
 3985W        W 8036   3.077   9.083  11.416  0.2378  0.2875  0.2436
 3986W        W 8037   9.672   1.872   5.386 -0.2617 -0.3733  0.2775
 3987W        W 8038   8.209   0.519   9.540 -0.4508 -0.0334 -0.0119
 3988W        W 8039   7.890   7.387  12.983  0.1344 -0.1520 -0.2524
 3989W        W 8040   0.422   9.793  11.877  0.0159 -0.1537 -0.0469
 3990W        W 8041   2.839   7.603  12.825  0.0993 -0.1690  0.3297
 3991W        W 8042   6.963   1.016   1.681 -0.2402  0.0260 -0.2770
 3992W        W 8043   1.902   1.070  10.824 -0.6250  0.0684  0.3345
 3993W        W 8044   2.052   9.791   2.443  0.2785 -0.1501 -0.3491
 3994W        W 8045   7.320   9.663  12.806 -0.0755  0.1738 -0.2121
 3995W        W 8046   8.639   5.292   1.636  0.1109  0.3749 -0.1587
 3996W        W 8047   5.866   0.945   4.206  0.1964  0.1132 -0.1017
 3997W        W 8048   4.693   7.007  10.971 -0.2602 -0.1531 -0.0405
 3998W        W 8049   4.138   9.613  11.517  0.0645  0.1325 -0.3220
 3999W        W 8050   3.460   7.675   2.193  0.1142 -0.1593 -0.1031
 4000W        W 8051   3.325   9.439  10.837 -0.0660 -0.0838 -0.0616
 4001W        W 8052   7.875   4.793   2.141 -0.0384  0.2887 -0.3395
 4002W        W 8053   5.541   0.015  10.984  0.1106 -0.1218 -0.1493
 4003W        W 8054   7.503   6.402   3.502 -0.0242  0.1015 -0.2836
 4004W        W 8055   1.338   7.642   1.488  0.0361 -0.1193  0.0465
 4005W        W 8056   2.998   9.819  10.978 -0.0360  0.0034  0.0233
 4006W        W 8057   9.865   8.224   9.966  0.0603 -0.2186 -0.1177
 4007W        W 8058   7.749   8.929   0.599 -0.1325  0.1609 -0.1887
 4008W        W 8059   2.559   1.084   1.727  0.1161  0.2080  0.2081
 4009W        W 8060   4.443   6.354   2.713 -0.0577 -0.2215  0.2172
 4010W        W 8061   0.438   1.315   0.496 -0.1550  0.1616  0.1680
 4011W        W 8062   1.184   0.307   3.667  0.0096  0.2400  0.0038
 4012W        W 8063   1.435   9.921  10.085 -0.0664  0.2630  0.0194
 4013W        W 8064   9.134   0.240   5.047 -0.2348  0.1288  0.1210
 4014W        W 8065   8.387   7.830   0.051  0.2643 -0.0602 -0.0490
 4015W        W 8066   1.073   6.531   1.106 -0.1111  0.2189 -0.0282
 4016W        W 8067   5.588   3.572   4.925 -0.0010 -0.2241  0.5149
 4017W        W 8068   3.331   8.134   2.395 -0.0703  0.1515  0.0181
 4018W        W 8069   1.056   4.540  11.466  0.1008  0.1082 -0.0001
 4019W        W 8070   9.927   4.689   3.241 -0.1152  0.1999 -0.0665
 4020W        W 8071   5.880   7.741   9.356  0.1849 -0.5655  0.1338
 4021W        W 8072   8.588   6.567   1.023  0.3468 -0.2714  0.1000
 4022W        W 8073   9.593   7.753   3.528 -0.0004  0.0281 -0.0422
 4023W        W 8074   5.099   0.026   9.993  0.2832  0.0750  0.0873
 4024W        W 8075   0.349   3.614  10.003 -0.2056 -0.0734  0.1358
 4025W        W 8076   3.506   1.279   4.551 -0.0644 -0.0169  0.3176
 4026W        W 8077   1.941   7.911   9.952  0.0575 -0.0644 -0.0653
 4027W        W 8078   1.206   7.122   0.462  0.1029 -0.4190  0.0204
 4028W        W 8079   9.270   1.218   1.081  0.0471 -0.1905  0.2296
 4029W        W 8080   4.135   6.761  13.224 -0.0439  0.2472 -0.0871
 4030W        W 8081   0.467   6.195  13.841 -0.2709  0.1808 -0.2216
 4031W        W 8082   9.437   9.170  12.855  0.3260  0.0329 -0.1352
 4032W        W 8083   5.424   2.667  13.599  0.1802  0.0292  0.0647
 4033W        W 8084   4.425   5.021  10.016 -0.0997 -0.0057 -0.1170
 4034W        W 8085   8.133   7.319   2.672  0.0320  0.3656  0.0188
 4035W        W 8086   5.724   4.928   1.065 -0.3591  0.0676 -0.0176
 4036W        W 8087   0.197   4.074  12.960  0.3075 -0.4174  0.0315
 4037W        W 8088   4.449   7.818  11.747  0.0632  0.4534  0.0549
 4038W        W 8089   4.562   9.528   9.705  0.1314 -0.1069  0.1415
 4039W        W 8090   2.015   2.029   9.909 -0.0569 -0.1542  0.2936
 4040W        W 8091   1.680   8.963   9.841  0.1385  0.0847 -0.0492
 4041W        W 8092   4.928   1.341  13.008  0.2721 -0.1991  0.0187
 4042W        W 8093   9.671  10.064  13.869  0.0742 -0.3929 -0.3226
 4043W        W 8094   0.871   2.182   3.308 -0.0482  0.0817  0.0975
 4044W        W 8095   6.006   8.999   9.851 -0.0442  0.0866 -0.1244
 4045W        W 8096   5.188   9.894  11.305  0.1877  0.1321 -0.1460
 4046W        W 8097   7.113   8.618  13.303 -0.0496 -0.3287  0.1610
 4047W        W 8098   8.621   6.178  13.145 -0.1428  0.2078  0.2266
 4048W        W 8099   6.871   9.191   3.847  0.2533  0.2164  0.2772
 4049W        W 8100   0.589   2.114   4.049 -0.0929 -0.2000 -0.1303
 4050W        W 8101   9.077   1.078   3.435 -0.2406 -0.1960  0.0136
 4051W        W 8102   4.301   8.887  12.141 -0.1425  0.1535  0.0280
 4052W        W 8103   0.858   9.508  11.770  0.0800  0.3149  0.0882
 4053W        W 8104   9.381   6.670   1.092 -0.1568  0.0390  0.2413
 4054W        W 8105   7.048   2.989   8.888  0.1792 -0.2027  0.0370
 4055W        W 8106   2.550   6.098   1.616  0.1796 -0.1553  0.1174
 4056W        W 8107   5.078   7.112   0.355 -0.4968 -0.3072 -0.1625
 4057W        W 8108   8.459   5.406   9.872  0.1860 -0.0168 -0.1504
 4058W        W 8109   6.449   3.838  13.643  0.1696  0.1083 -0.3655
 4059W        W 8110   2.921   1.451   4.168  0.1899 -0.2202  0.0299
 4060W        W 8111   5.228   5.504   9.803  0.0090  0.0909 -0.1623
 4061W        W 8112   0.952   8.644   3.118  0.0068 -0.2789 -0.1011
 4062W        W 8113   0.453   6.836   2.506  0.3726  0.1404 -0.2853
 4063W        W 8114   1.259   3.303  11.908  0.0200 -0.0509 -0.0973
 4064W        W 8115   0.665   1.000   9.950 -0.1349  0.2068  0.1875
 4065W        W 8116   4.228   3.814   0.123  0.0084 -0.3297  0.0548
 4066W        W 8117   0.853   8.651  12.327  0.1034  0.0618 -0.0324
 4067W        W 8118   7.734   3.878  11.018  0.1264  0.2797  0.0669
 4068W        W 8119   2.062   1.230   3.443 -0.1803  0.1196  0.0775
 4069W        W 8120   4.748   0.260   0.857  0.1478 -0.1391  0.0762
 4070W        W 8121   4.094   4.656  13.561  0.1302  0.3473  0.1622
 4071W        W 8122   6.435   9.875  11.839 -0.1540  0.0769 -0.1250
 4072W        W 8123   6.769   0.068   1.906  0.2229 -0.0072 -0.0749
 4073W        W 8124   3.007   2.972  10.701 -0.0458  0.0061 -0.3524
 4074W        W 8125   5.741   9.519   8.859  0.1756 -0.0283 -0.1807
 4075W        W 8126   9.013   8.379   0.550 -0.0847 -0.2794  0.3286
 4076W        W 8127   7.325   1.632   2.453 -0.0417  0.3022  0.1676
 4077W        W 8128   4.728   6.573   1.583  0.1478 -0.0063 -0.1229
 4078W        W 8129   1.011   1.940  10.862 -0.0644  0.2118 -0.0243
 4079W        W 8130   6.264   8.730  10.186  0.0139 -0.1307 -0.1292
 4080W        W 8131   5.016   1.926  12.227  0.0169 -0.0194 -0.2501
 4081W        W 8132   5.111   2.341  11.411 -0.0396  0.1824 -0.0102
 4082W        W 8133   3.433   4.486   3.898  0.2019  0.3234  0.1919
 4083W        W 8134   6.659   4.956   0.578 -0.0987 -0.1351  0.2691
 4084W        W 8135   7.124   0.287   9.290 -0.3133  0.1295  0.0075
 4085W        W 8136   2.899   4.370  12.240 -0.0150 -0.0108  0.2080
 4086W        W 8137   9.056   1.389   2.283  0.2173  0.1278  0.0817
 4087W        W 8138   2.761   0.682  12.855 -0.1305  0.1232  0.0533
 4088W        W 8139   9.093   8.132   4.993 -0.1372  0.1144 -0.0399
 4089W        W 8140   7.973   8.683  10.637 -0.2680 -0.3024  0.0739
 4090W        W 8141   0.541   9.238   0.304  0.0925 -0.0597 -0.1977
 4091W        W 8142   1.617   2.933   9.876 -0.1570  0.3439  0.1650
 4092W        W 8143   0.736   3.808  12.289  0.1046  0.0306 -0.1648
 4093W        W 8144   6.851   2.389   2.269  0.0214  0.0881  0.0893
 4094W        W 8145   7.010   1.513  13.967  0.1547  0.1485  0.0588
 4095W        W 8146   7.648   5.321  12.047 -0.3283  0.2229  0.3785
 4096W        W 8147   5.023   1.217   4.641  0.0277  0.5825  0.1764
 4097W        W 8148   4.913   7.213  13.358 -0.3397 -0.0065 -0.2800
 4098W        W 8149   2.390   4.693   3.122  0.1062 -0.1281  0.0201
 4099W        W 8150   7.100   2.340   9.956 -0.0894 -0.0414 -0.4035
 4100W        W 8151   7.826   4.341   4.985 -0.0630  0.0339  0.1052
 4101W        W 8152   0.701   1.553  11.130 -0.2433  0.0260 -0.4090
 4102W        W 8153   6.023   3.586   3.925 -0.2727  0.2237 -0.0615
 4103W        W 8154   0.978   3.357   8.733  0.1598 -0.1704 -0.0065
 4104W        W 8155   6.575   9.177   9.727  0.4328  0.0611  0.0885
 4105W        W 8156   8.762   0.540   2.237 -0.1916 -0.0019  0.0398
 4106W        W 8157   3.039   7.139   3.269  0.1969  0.1801  0.2249
 4107W        W 8158   1.046   1.314   1.717  0.3372  0.2919 -0.1915
 4108W        W 8159   3.550   2.580   3.243  0.0384  0.0168 -0.2198
 4109W        W 8160   2.999   9.576   3.284  0.0950 -0.0343  0.4036
 4110W        W 8161   8.964   8.758   2.880  0.0845 -0.1277  0.0525
 4111W        W 8162   2.619   4.039   3.632 -0.0190 -0.2641 -0.0042
 4112W        W 8163   7.081   1.151  12.373  0.0046  0.1951 -0.3645
 4113W        W 8164   1.060   0.210  13.429 -0.1823 -0.1469  0.0261
 4114W        W 8165   0.232   3.277  10.441 -0.3391  0.0158  0.0919
 4115W        W 8166   3.267   0.680   0.083 -0.0900 -0.2564 -0.3600
 4116W        W 8167   1.533   6.425  11.324  0.2585 -0.1673 -0.1037
 4117W        W 8168   1.728   3.010  11.870  0.0663  0.1811 -0.2035
 4118W        W 8169   9.896   6.756   9.872 -0.1322  0.1241 -0.6438
 4119W        W 8170   5.775   8.598   2.132  0.1304 -0.5459  0.0462
 4120W        W 8171   4.547   1.235   0.400  0.0862 -0.1219  0.0174
 4121W        W 8172   0.153   2.328  11.061 -0.1491 -0.0479 -0.0311
 4122W        W 8173   1.890   7.749   1.000 -0.1651 -0.2924  0.1352
 4123W        W 8174   8.471   5.894   9.703  0.1357  0.0770  0.0331
 4124W        W 8175   2.872   6.338   4.047 -0.1611 -0.1411  0.0938
 4125W        W 8176   8.503   7.652   2.656 -0.0428  0.0894  0.3017
 4126W        W 8177   9.958   9.479   9.901  0.0287 -0.4091 -0.4004
 4127W        W 8178   9.851   5.183   0.457  0.0982 -0.0704  0.1444
 4128W        W 8179   4.289   3.859  13.549  0.1514  0.1877  0.0094
 4129W        W 8180   2.284   9.953   2.884 -0.0809  0.3256 -0.0593
 4130W        W 8181   2.243   2.018  10.421 -0.1099  0.0364  0.0901
 4131W        W 8182   3.224   9.984  12.040  0.0679 -0.1296  0.0727
 4132W        W 8183   4.474   9.905  10.768 -0.0316  0.1530  0.3665
 4133W        W 8184   5.129   1.550   3.158 -0.0362 -0.2771  0.2325
 4134W        W 8185   4.748   8.494  12.912 -0.0189 -0.2860 -0.1655
 4135W        W 8186   2.133   5.468  13.087  0.0553  0.0162  0.1559
 4136W        W 8187   5.834   9.206   1.023 -0.2032  0.0243 -0.2030
 4137W        W 8188   6.972   7.785   4.707 -0.1846 -0.0108 -0.0759
 4138W        W 8189   4.685   0.874   4.264 -0.3040 -0.0108  0.2843
 4139W        W 8190   6.574   5.957   3.639  0.0984  0.0184  0.0135
 4140W        W 8191   8.630   5.063   2.627  0.2291 -0.1262 -0.0512
 4141W        W 8192   8.141   7.873   1.542  0.0254  0.0825 -0.0375
 4142W        W 8193   3.551   2.160  10.839  0.1058  0.1435  0.0128
 4143W        W 8194   4.461   8.802   1.139 -0.1653  0.1809  0.1160
 4144W        W 8195   0.371   6.981  10.544 -0.1224 -0.0570 -0.1957
 4145W        W 8196   1.667   9.861   1.648 -0.0578  0.2322  0.1416
 4146W        W 8197   6.147   8.973   3.673  0.0372  0.0463 -0.2317
 4147W        W 8198   8.541   6.541   3.557  0.4330  0.1323 -0.1340
 4148W        W 8199   2.977   2.447   1.709 -0.1858 -0.0005  0.1598
 4149W        W 8200   1.052   5.215   1.662  0.0665 -0.0187 -0.1239
 4150W        W 8201   3.490   2.075   3.077 -0.1369 -0.1609 -0.2255
 4151W        W 8202   9.402   9.619   3.380  0.1581 -0.1301 -0.1478
 4152W        W 8203   5.951   3.751   2.432 -0.0878 -0.1605  0.0455
 4153W        W 8204   6.070   6.476   0.533 -0.2976 -0.0008  0.0338
 4154W        W 8205   2.110   2.940  10.016 -0.0828 -0.0507  0.1068
 4155W        W 8206   2.244   4.806   9.642  0.5068 -0.1138  0.2002
 4156W        W 8207   5.791   8.743   3.314  0.0885  0.1780  0.1657
 4157W        W 8208   0.163   3.494   9.380  0.3871 -0.0387  0.1471
 4158W        W 8209   3.786   9.945   4.214  0.1642 -0.0247 -0.2767
 4159W        W 8210   2.032   7.580   2.054 -0.0101 -0.1975 -0.3221
 4160W        W 8211   5.779   3.221   5.346  0.0272 -0.2268  0.1102
 4161W        W 8212   2.908   1.554   5.311  0.2268 -0.1054  0.0962
 4162W        W 8213   6.364   7.145   1.238 -0.2640 -0.3848  0.0843
 4163W        W 8214   2.969   1.025  10.596 -0.1905  0.0206  0.0583
 4164W        W 8215   2.648   3.313   3.047 -0.0925 -0.0695  0.0201
 4165W        W 8216   2.807   3.761  10.174  0.1948 -0.1756 -0.0466
 4166W        W 8217   6.351   2.538   0.089 -0.0194  0.1343  0.1039
 4167W        W 8218   6.790   2.597  10.263  0.0691  0.4261 -0.1347
 4168W        W 8219   2.838   3.486  12.667  0.0005  0.1987  0.0451
 4169W        W 8220   4.498   9.527   3.662  0.0061  0.2015 -0.0418
 4170W        W 8221   4.331   0.283   8.909 -0.1456  0.2381 -0.0825
 4171W        W 8222   3.607   3.235   9.032 -0.0453  0.0244  0.0795
 4172W        W 8223   6.613   1.695  10.819  0.2605  0.2108  0.0175
 4173W        W 8224   8.735   9.477   4.784  0.1652 -0.2785 -0.2383
 4174W        W 8225   1.892   6.789  13.612 -0.0085  0.0785 -0.0102
 4175W        W 8226   2.272   3.929   0.860 -0.2654  0.3066 -0.1279
 4176W        W 8227   8.106   6.455   8.838 -0.0012 -0.0052  0.0225
 4177W        W 8228   1.213   1.435   5.051 -0.2702  0.0177 -0.1503
 4178W        W 8229   5.905   0.468  12.609  0.4389  0.0242  0.1472
 4179W        W 8230   5.277   8.478   3.425  0.0523 -0.3739 -0.0798
 4180W        W 8231   5.259   5.924  11.554 -0.2948  0.1979 -0.0484
 4181W        W 8232   4.335   1.177   1.047 -0.1586  0.1129  0.0887
 4182W        W 8233   3.592   6.021  11.220  0.0409  0.0033  0.0262
 4183W        W 8234   3.575   1.619  11.775  0.0687  0.0317 -0.0023
 4184W        W 8235   3.919   8.629   3.895  0.1495 -0.2983 -0.1104
 4185W        W 8236   1.742   4.054   1.630 -0.3457 -0.3171 -0.1134
 4186W        W 8237   6.086   4.536   3.804 -0.0542  0.0511  0.0571
 4187W        W 8238   1.782   1.537   9.926  0.0159 -0.3105  0.0399
 4188W        W 8239   5.611   7.247  11.545 -0.2694 -0.2241  0.0231
 4189W        W 8240   3.931   8.805   9.513  0.0956 -0.1874  0.0002
 4190W        W 8241   8.432   2.572  12.405 -0.2249  0.1066 -0.3807
 4191W        W 8242   8.573   6.825   9.522  0.2446 -0.0349  0.0311
 4192W        W 8243   2.936   0.061   5.098 -0.1231  0.2023  0.1368
 4193W        W 8244   7.946   4.355   9.248  0.1191 -0.1882  0.0286
 4194W        W 8245   8.719   7.634  13.180  0.2259 -0.0243 -0.0322
 4195W        W 8246   4.698   3.300   3.845  0.1324 -0.0667 -0.2474
 4196W        W 8247   6.738   0.243   0.453 -0.1072  0.0809  0.2320
 4197W        W 8248   3.293   0.538   0.611 -0.0044  0.1400  0.1701
 4198W        W 8249   6.137   5.412  13.275 -0.2130 -0.1131 -0.2968
 4199W        W 8250   7.044   6.070   3.518 -0.1103 -0.1948  0.0871
 4200W        W 8251   2.253   9.411   2.863  0.1355 -0.3079  0.3159
 4201W        W 8252   9.953   4.535  13.871  0.2365  0.1069  0.0644
 4202W        W 8253   5.480   0.336   9.936  0.1109 -0.1394 -0.1649
 4203W        W 8254   6.210   2.091  10.534 -0.5429 -0.1601 -0.0004
 4204W        W 8255   7.917   1.370   0.252  0.1540  0.2926 -0.0904
 4205W        W 8256   2.354   1.049  11.905  0.3249  0.0135  0.1451
 4206W        W 8257   2.593   3.816  12.192 -0.0571  0.1945  0.3434
 4207W        W 8258   4.123   0.471   4.761 -0.0143  0.0997 -0.0661
 4208W        W 8259   6.801   3.887  10.649 -0.2377 -0.1871 -0.1790
 4209W        W 8260   8.988   4.340   2.925 -0.1536 -0.2335 -0.1316
 4210W        W 8261   5.506   6.400  12.433  0.2968 -0.2266  0.3810
 4211W        W 8262   0.857   1.352  12.150 -0.0191  0.1566  0.0239
 4212W        W 8263   0.469   8.916  11.364  0.0337  0.0635 -0.3114
 4213W        W 8264   0.101   2.563   5.628 -0.1164 -0.1164 -0.3369
 4214W        W 8265   4.001   6.554  10.635 -0.0226  0.0977  0.0590
 4215W        W 8266   6.430   2.097  11.749  0.2288  0.4927 -0.2754
 4216W        W 8267   6.588   6.933   3.419  0.1026  0.0358  0.2212
 4217W        W 8268   5.192   1.370   8.835 -0.1100 -0.0352  0.0847
 4218W        W 8269   7.294   1.751  11.254 -0.0639 -0.5857 -0.2619
 4219W        W 8270   9.877   1.816  10.330 -0.4485 -0.0460  0.0536
 4220W        W 8271   4.434   0.657  13.428 -0.1722 -0.0901 -0.0922
 4221W        W 8272   7.593   8.599   3.742 -0.0209 -0.1085  0.1526
 4222W        W 8273   8.368   1.899   1.116  0.0368  0.3775 -0.1928
 4223W        W 8274   4.527   5.756  10.511  0.0942 -0.0321 -0.0839
 4224W        W 8275   8.737   0.049  10.584 -0.1648 -0.0280  0.0023
 4225W        W 8276   6.357   2.398   3.417 -0.0337 -0.2292  0.2390
 4226W        W 8277   9.465   6.611  12.591 -0.3273  0.0240  0.0795
 4227W        W 8278   7.510   5.473  13.789  0.5307 -0.1635  0.0716
 4228W        W 8279   2.185   7.543  13.332  0.3328  0.2735 -0.0300
 4229W        W 8280   0.905   7.117   3.758 -0.5271  0.1973  0.1095
 4230W        W 8281   0.456   4.285  13.355 -0.0051  0.6722  0.0229
 4231W        W 8282  10.178   4.698   2.392  0.1057  0.0921 -0.0261
 4232W        W 8283   8.432   1.342   0.312  0.1937  0.0826 -0.1672
 4233W        W 8284   0.747   7.603   2.423  0.0071  0.0219  0.2090
 4234W        W 8285   5.976   1.311  10.972 -0.2792 -0.1033 -0.1012
 4235W        W 8286   9.136   0.932   0.508  0.2298 -0.0951 -0.1730
 4236W        W 8287   3.985   1.302  11.730 -0.0631  0.3706 -0.0357
 4237W        W 8288   9.278   9.308  11.162  0.0957 -0.1428  0.2247
 4238W        W 8289   8.098   1.768   4.990 -0.2194 -0.1081  0.0367
 4239W        W 8290   3.739   2.124  11.790 -0.3516  0.0517 -0.1146
 4240W        W 8291   7.834   4.857  11.175 -0.2010 -0.1194  0.1270
 4241W        W 8292   8.856   6.148   9.996 -0.4101  0.1464  0.1432
 4242W        W 8293   1.357   6.524   2.151  0.2066 -0.0423  0.0417
 4243W        W 8294   5.042   2.354   1.022  0.0201  0.1228 -0.1195
 4244W        W 8295   2.076   7.551  11.169 -0.3959 -0.0164  0.0392
 4245W        W 8296   8.125   4.571   9.686  0.3853 -0.1190 -0.0172
 4246W        W 8297   8.331   5.999  10.163 -0.2168  0.1149  0.3172
 4247W        W 8298   5.420   0.232   2.360  0.2027 -0.2156  0.2609
 4248W        W 8299   0.140   3.955  12.480 -0.0142 -0.0166 -0.1625
 4249W        W 8300   9.484   6.923   9.121 -0.2496 -0.0676 -0.1684
 4250W        W 8301   9.685   8.258  10.416 -0.0029  0.2209 -0.0142
 4251W        W 8302   9.931   3.210   1.303  0.2656  0.0522 -0.0900
 4252W        W 8303   0.501   7.011  11.313 -0.2078 -0.2820 -0.0344
 4253W        W 8304   3.833   2.883   4.173 -0.2607 -0.0244  0.0020
 4254W        W 8305   0.651   6.251   1.024  0.1751 -0.1318 -0.0920
 4255W        W 8306   9.664   4.920  10.829  0.0648 -0.0091 -0.2597
 4256W        W 8307   8.831   2.451  13.768 -0.2167 -0.2148 -0.1409
 4257W        W 8308   3.483   5.803   0.971  0.0743 -0.2703  0.1463
 4258W        W 8309   9.313   0.065   2.674  0.0960  0.1460 -0.2679
 4259W        W 8310   2.703   1.331   2.163 -0.0761 -0.1039  0.0353
 4260W        W 8311   7.785   3.602   4.759  0.0336  0.2678  0.3040
 4261W        W 8312   9.146   8.967  11.801  0.3255  0.0261 -0.0774
 4262W        W 8313   7.778   8.662   2.519 -0.0154 -0.2672  0.1951
 4263W        W 8314   1.845   0.466  12.565  0.0221  0.1737  0.0093
 4264W        W 8315   2.397   8.816   3.689  0.1655 -0.0072 -0.1209
 4265W        W 8316   1.591   8.880   0.831 -0.1917  0.2645  0.2563
 4266W        W 8317   8.124  10.171   2.239 -0.0029 -0.1303  0.1519
 4267W        W 8318   0.645   5.407   1.803  0.4405 -0.2077 -0.3062
 4268W        W 8319   5.525   4.510  12.469  0.3290  0.0163  0.0064
 4269W        W 8320   4.088   2.814  12.926  0.2746 -0.0119 -0.0604
 4270W        W 8321   3.830   6.808  11.129 -0.5229  0.0622  0.2006
 4271W        W 8322   7.775   4.344   5.519  0.1191 -0.0892 -0.1072
 4272W        W 8323   2.021   8.488   3.642  0.1585 -0.0030  0.3032
 4273W        W 8324   9.833   7.996   0.823  0.0462  0.0437 -0.1532
 4274W        W 8325   7.641   0.527   0.122  0.1495 -0.1370  0.1239
 4275W        W 8326   7.483   7.592   1.013  0.1740  0.2003  0.1807
 4276W        W 8327   3.040   1.432  13.330  0.4499  0.0966  0.4261
 4277W        W 8328  10.182   7.001   2.349 -0.0298  0.1349  0.1117
 4278W        W 8329   1.487   5.430   9.814 -0.1341  0.1933  0.4315
 4279W        W 8330   6.815   2.735   4.386 -0.3723 -0.0912  0.2405
 4280W        W 8331   8.613   7.502   9.800  0.1996  0.2308  0.2089
 4281W        W 8332   9.437   0.030   9.247  0.0072 -0.0434 -0.1597
 4282W        W 8333   5.256   4.105   9.594 -0.1259 -0.2243  0.0959
 4283W        W 8334   7.234   3.216   3.009 -0.0431 -0.1390 -0.1014
 4284W        W 8335   9.122   4.012  12.297 -0.1395 -0.1447 -0.2580
 4285W        W 8336   5.947   4.543  12.728 -0.1348  0.2173 -0.0771
 4286W        W 8337   3.134   0.891   9.252  0.1998 -0.1131 -0.0760
 4287W        W 8338   3.604   5.493  11.413  0.1605  0.0392  0.0275
 4288W        W 8339   6.664   4.788  10.733  0.0692  0.1061 -0.1518
 4289W        W 8340   6.070   2.922   1.697  0.1001  0.0107 -0.0857
 4290W        W 8341   7.452   9.924  12.369 -0.2120 -0.1865 -0.0349
 4291W        W 8342   5.258   7.801  10.636 -0.2224  0.5924 -0.1461
 4292W        W 8343   0.735   1.626   5.042  0.2316 -0.1040 -0.5188
 4293W        W 8344   8.831   5.534   0.594  0.0781 -0.3387  0.2235
 4294W        W 8345   0.833   5.662   3.877 -0.0416 -0.2191  0.2448
 4295W        W 8346   3.413   8.384   1.011  0.2211 -0.0444 -0.4482
 4296W        W 8347   1.099   1.378  10.862  0.1102 -0.0450  0.1994
 4297W        W 8348   2.677   8.961   2.011 -0.2368 -0.5695  0.1947
 4298W        W 8349   5.330   6.884  10.208 -0.0680  0.2008  0.0385
 4299W        W 8350   5.629   0.537   2.688 -0.0190  0.1846 -0.4210
 4300W        W 8351   0.441   6.058  11.573  0.0974  0.0600  0.1626
 4301W        W 8352   4.010   9.396   0.685  0.0735  0.2528  0.2699
 4302W        W 8353   9.595   4.528   9.976 -0.1234  0.1739 -0.1444
 4303W        W 8354   0.700   2.433   9.661 -0.1535 -0.0621  0.3095
 4304W        W 8355  10.015   4.463   4.907  0.0119 -0.0133  0.0706
 4305W        W 8356   0.964   4.845   3.283  0.0969 -0.2022 -0.0380
 4306W        W 8357   4.929   6.027   2.537 -0.0610 -0.1059  0.1154
 4307W        W 8358   9.310   6.878   3.198 -0.0911  0.0405  0.2725
 4308W        W 8359   9.226   4.119  13.179 -0.0371 -0.3677  0.1995
 4309W        W 8360   5.544   6.958   9.695  0.1782  0.1344  0.2590
 4310W        W 8361   8.187   6.408  13.168  0.0630 -0.0049  0.3139
 4311W        W 8362   5.338   4.822   4.184 -0.3073 -0.1995 -0.1176
 4312W        W 8363   3.229   1.113  10.991 -0.2406  0.0166  0.1555
 4313W        W 8364   5.535   7.554  11.072  0.2705 -0.2275 -0.1101
 4314W        W 8365   5.463   1.279  10.457 -0.1163 -0.0534 -0.3523
 4315W        W 8366   7.967   7.441  11.358  0.0422  0.1749  0.1607
 4316W        W 8367   7.198   5.247  12.218 -0.0488  0.0246 -0.1228
 4317W        W 8368   1.032   6.911  11.798  0.0423  0.1079 -0.1607
 4318W        W 8369   9.334   2.230   9.613  0.2391  0.3111  0.0772
 4319W        W 8370   2.766   3.809   0.511  0.0548  0.5752 -0.0118
 4320W        W 8371   6.895   8.230   2.989  0.0356  0.1933 -0.0798
 4321W        W 8372   6.722   6.686  13.169 -0.0345 -0.1848  0.0022
 4322W        W 8373   1.542   6.706  13.159  0.0830  0.0422 -0.0937
 4323W        W 8374   5.532   0.788  10.202  0.0702 -0.1513 -0.3143
 4324W        W 8375   7.181   1.284  11.492  0.0129  0.1529 -0.1127
 4325W        W 8376   7.804   4.758   1.589 -0.0226 -0.4541  0.0131
 4326W        W 8377   2.750   0.570   1.891  0.0130  0.0722  0.5407
 4327W        W 8378   5.740   5.428  13.594  0.1148 -0.1801  0.0557
 4328W        W 8379   7.849   5.650  12.918 -0.1971 -0.0788 -0.0965
 4329W        W 8380   6.693   6.924   1.740  0.2863  0.0360  0.4262
 4330W        W 8381   1.661   8.106  10.381  0.1805 -0.3401 -0.0408
 4331W        W 8382   7.556   1.130   3.651 -0.2278  0.0202  0.2408
 4332W        W 8383   2.440   4.514   0.010  0.3009 -0.0899 -0.2911
 4333W        W 8384   4.513   0.153  13.363 -0.0373  0.0055  0.0294
 4334W        W 8385   9.300   6.967   1.523  0.0930  0.1060  0.1805
 4335W        W 8386   7.269   5.219   4.041 -0.5045  0.0898 -0.0882
 4336W        W 8387   2.856   9.233  10.956 -0.3049  0.0830 -0.0654
 4337W        W 8388   3.358   4.610  12.258 -0.0644 -0.1772 -0.0211
 4338W        W 8389   8.977   7.843   2.329 -0.0795 -0.3134 -0.1463
 4339W        W 8390   3.918   9.744   5.165  0.0124  0.0803  0.0707
 4340W        W 8391   0.192   7.091   0.169  0.2466 -0.1402 -0.2416
 4341W        W 8392   6.652   1.605   0.405  0.1512 -0.0497 -0.1769
 4342W        W 8393   6.400  10.089   0.762 -0.0004 -0.1971 -0.3021
 4343W        W 8394   5.869   7.883   2.542  0.1045  0.2194  0.0938
 4344W        W 8395   3.780   0.360   2.838 -0.2458  0.2638  0.0557
 4345W        W 8396   4.558   3.934  11.896  0.3551  0.2385  0.1681
 4346W        W 8397   0.063   3.605  10.785  0.0683  0.1617 -0.0314
 4347W        W 8398   0.854   2.324   2.568 -0.1858  0.0955 -0.1214
 4348W        W 8399   1.440   0.963  11.552  0.0300 -0.0770  0.0184
 4349W        W 8400   0.308   0.517  12.047  0.1596 -0.4303  0.3604
 4350W        W 8401   9.555   6.347  11.104  0.1504 -0.2206  0.1326
 4351W        W 8402   3.123   1.362   0.817  0.1533  0.1493  0.2097
 4352W        W 8403   7.063   5.630  13.585 -0.2527  0.0730  0.3068
 4353W        W 8404   9.708   1.246  12.608 -0.3459 -0.1683 -0.1847
 4354W        W 8405   1.489   5.584  13.684  0.2867 -0.2037 -0.0587
 4355W        W 8406   7.808   0.823  11.250  0.0633  0.0253 -0.0847
 4356W        W 8407   6.784  10.000  11.068  0.5635  0.0070  0.0342
 4357W        W 8408   6.778   7.903  11.084  0.0508 -0.0746 -0.0322
 4358W        W 8409   1.427   2.973  13.902 -0.2766  0.1713  0.1762
 4359W        W 8410   9.194   5.174  11.960 -0.3913  0.1359  0.1115
 4360W        W 8411   6.791   1.783  11.425  0.2260  0.0772 -0.1590
 4361W        W 8412   6.773   2.765   4.985 -0.1713  0.0696  0.0488
 4362W        W 8413   7.677   2.505  10.819 -0.1064 -0.0660  0.0586
 4363W        W 8414   7.184   0.810  13.330 -0.0229 -0.1383 -0.2051
 4364W        W 8415   9.751   9.255   2.146 -0.3431 -0.1010  0.1233
 4365W        W 8416   8.614   1.962   2.725  0.0318 -0.0040 -0.0616
 4366W        W 8417   4.146   9.942  10.235  0.1870 -0.1727 -0.0674
 4367W        W 8418   0.935   3.006   0.036  0.1634 -0.0228  0.0372
 4368W        W 8419   5.332   0.566   4.908  0.1774  0.1549  0.2983
 4369W        W 8420   7.046   8.772   4.272 -0.2203  0.2037 -0.0391
 4370W        W 8421   5.082   4.660   9.736  0.2110 -0.2987 -0.0684
 4371W        W 8422   3.642   1.831  10.498 -0.1829  0.0989  0.1143
 4372W        W 8423   7.778   9.423   3.998  0.1699  0.2518  0.0558
 4373W        W 8424   2.733   6.767  10.675 -0.0211  0.2884  0.0484
 4374W        W 8425   0.791   9.239   2.968 -0.0657 -0.2325  0.2713
 4375W        W 8426   5.055   1.116   1.544 -0.2187  0.0905  0.1131
 4376W        W 8427   7.918   5.240   9.511  0.2631  0.0697 -0.1487
 4377W        W 8428   0.418   0.966   1.764 -0.0167 -0.0845 -0.0653
 4378W        W 8429   8.651   5.176   3.092  0.1941  0.3468 -0.2459
 4379W        W 8430   2.598   9.998  10.764  0.0686 -0.0613  0.1284
 4380W        W 8431   7.564   3.553   1.150  0.2124  0.1039  0.1209
 4381W        W 8432   4.998   5.503  10.705 -0.1836 -0.2913 -0.2353
 4382W        W 8433   0.477   8.734   0.651 -0.0665 -0.0532  0.1886
 4383W        W 8434   6.776   8.095   1.068 -0.0371  0.1165 -0.1097
 4384W        W 8435   9.284   2.516  12.975 -0.1678  0.0504  0.0343
 4385W        W 8436   9.178   0.545  13.759 -0.0172 -0.0766 -0.1518
 4386W        W 8437   5.879   6.551   3.764 -0.0952 -0.1313 -0.0101
 4387W        W 8438   2.962   8.727  11.731  0.1615 -0.2644  0.0452
 4388W        W 8439   0.078   0.393  12.481  0.2271  0.2786 -0.0203
 4389W        W 8440   3.001   6.429   0.525  0.4092  0.1366  0.1921
 4390W        W 8441   5.381   9.888   2.539 -0.1785 -0.4164  0.0700
 4391W        W 8442   7.696   6.231  10.558  0.0246  0.1734  0.0673
 4392W        W 8443   9.007   5.478   9.280 -0.3503 -0.2884  0.3258
 4393W        W 8444  10.152   7.556  10.826  0.0543 -0.1531  0.2198
 4394W        W 8445   1.072   6.008   4.617  0.1354 -0.0407  0.0804
 4395W        W 8446   8.933   4.153  11.146 -0.1362 -0.2388  0.1333
 4396W        W 8447   4.783   1.676   2.292  0.1163 -0.1263 -0.1857
 4397W        W 8448   4.340   5.496   0.051  0.0763 -0.0566 -0.0198
 4398W        W 8449   0.926   9.083   1.311 -0.1009  0.2759 -0.3877
 4399W        W 8450   8.337   8.390   0.146  0.2681  0.2748 -0.1788
 4400W        W 8451   3.355   3.109   1.293 -0.0985 -0.0910 -0.0436
 4401W        W 8452   7.462   9.083  12.039  0.5180 -0.0782  0.0146
 4402W        W 8453   6.406   1.833   2.753  0.4138  0.2738  0.2174
 4403W        W 8454   4.729   0.757  10.502  0.0852 -0.3183 -0.0941
 4404W        W 8455   1.296   3.912   3.044  0.0835  0.1268 -0.0275
 4405W        W 8456   8.772   3.354   3.343 -0.0563 -0.0275  0.3457
 4406W        W 8457   8.833   8.616  10.401  0.2080  0.0698  0.1989
 4407W        W 8458   2.240   4.154  12.203  0.4618 -0.2304  0.3537
 4408W        W 8459   5.863   4.422  11.336 -0.0563  0.0178 -0.1550
 4409W        W 8460   5.365   6.681  12.871  0.0748 -0.0950 -0.1558
 4410W        W 8461   4.254   1.780   2.392 -0.0982  0.1081 -0.1009
 4411W        W 8462   9.316   8.239   2.179  0.1115 -0.1828  0.0230
 4412W        W 8463   0.034   6.121   3.237 -0.3802  0.2139 -0.3313
 4413W        W 8464   1.713   0.394   3.332 -0.0538  0.2886  0.0439
 4414W        W 8465   4.816   4.367   1.013 -0.4010 -0.0637  0.0571
 4415W        W 8466   5.008   7.303   3.439  0.1743  0.1760 -0.0396
 4416W        W 8467   8.136   4.781   4.796  0.0147 -0.0565 -0.1264
 4417W        W 8468   7.456   6.236   8.707  0.1702 -0.2125  0.1108
 4418W        W 8469   9.328   8.047  12.739 -0.2357  0.1336 -0.0851
 4419W        W 8470   3.440   0.900  10.442 -0.1694  0.1234  0.2588
 4420W        W 8471   0.491   4.847   0.782 -0.2157 -0.3421 -0.0272
 4421W        W 8472   2.775   6.926   2.334  0.1583  0.3081  0.3421
 4422W        W 8473   6.187   7.610   3.057  0.2261 -0.1842  0.2742
 4423W        W 8474   0.911   8.587   1.654 -0.2325 -0.1174 -0.2288
 4424W        W 8475   0.531   5.102   2.185 -0.3403  0.0108  0.2024
 4425W        W 8476   9.781   7.833  13.130  0.0710  0.0402 -0.2801
 4426W        W 8477   0.669   8.770   0.118  0.2101 -0.0541 -0.1306
 4427W        W 8478   6.669   6.952  10.755  0.3042  0.1142  0.1217
 4428W        W 8479   6.629   7.444  12.791 -0.3695 -0.0066  0.1376
 4429W        W 8480   7.446   6.462  13.322  0.3108 -0.0515  0.2274
 4430W        W 8481   2.095   3.149   0.644 -0.1425 -0.1202  0.0038
 4431W        W 8482   4.861   6.875   3.247  0.2792  0.4816  0.3187
 4432W        W 8483   0.275   3.132   9.894 -0.3268  0.0586 -0.4596
 4433W        W 8484   5.358   6.800  13.433 -0.0034  0.1124  0.1223
 4434W        W 8485   8.461   8.255   4.049  0.2318 -0.2311 -0.3025
 4435W        W 8486   5.513   9.655   1.132 -0.0475  0.2839 -0.0856
 4436W        W 8487   3.346   7.634   1.688  0.0637 -0.1321 -0.2496
 4437W        W 8488   5.013   2.166   4.689  0.1884 -0.0013  0.0382
 4438W        W 8489   9.403   8.455   2.718  0.0557 -0.2473 -0.2701
 4439W        W 8490   7.405   9.451   2.414  0.0012 -0.3018  0.0551
 4440W        W 8491   3.695   6.968  12.556  0.1064  0.0555 -0.0294
 4441W        W 8492   0.140   3.573  13.801 -0.1233 -0.2981 -0.1326
 4442W        W 8493   7.893   6.523   1.812  0.2276  0.1735 -0.1601
 4443W        W 8494   8.204   5.552   1.382  0.1999 -0.1526  0.1349
 4444W        W 8495   0.391   0.680   9.432 -0.0481 -0.0541 -0.1056
 4445W        W 8496   5.292   7.105  11.050  0.2344  0.1786 -0.2524
 4446W        W 8497   3.052   5.451  11.475  0.2177 -0.1574  0.4285
 4447W        W 8498  10.070   9.990  12.682 -0.0066 -0.0298 -0.3989
 4448W        W 8499   0.717   7.308   3.324  0.1560  0.0600  0.3506
 4449W        W 8500   2.107   9.035   1.228 -0.1038  0.3761 -0.0600
 4450W        W 8501   3.734  10.026   0.109 -0.3530  0.2148  0.0448
 4451W        W 8502   1.563  10.033  13.585 -0.0887 -0.0588 -0.0658
 4452W        W 8503   6.467   6.232   1.902  0.1450 -0.1152 -0.1919
 4453W        W 8504   6.870   4.854   1.090  0.1397  0.0874 -0.0304
 4454W        W 8505   7.724   9.118   1.054 -0.1671  0.1003 -0.0553
 4455W        W 8506   3.113   1.360  12.331 -0.1099  0.0875 -0.0528
 4456W        W 8507   7.417   9.090   3.131 -0.2923 -0.0996  0.0187
 4457W        W 8508   8.619   7.081   8.874  0.2918  0.2002  0.2796
 4458W        W 8509   4.070   1.166  10.959 -0.0247 -0.3402  0.1749
 4459W        W 8510   8.910   7.975   4.017 -0.1242 -0.0201  0.3049
 4460W        W 8511   5.783   0.853   9.514 -0.0181  0.2614  0.3344
 4461W        W 8512   9.881   6.352  10.248 -0.0633 -0.2101  0.2470
 4462W        W 8513   9.317   5.547   0.792  0.1843  0.1665 -0.0610
 4463W        W 8514   6.360   1.604  13.978  0.0281 -0.3120 -0.2778
 4464W        W 8515   7.121   9.949   1.113  0.0184  0.0892 -0.0183
 4465W        W 8516   1.581   9.453   4.545 -0.0661  0.0503 -0.2144
 4466W        W 8517   0.292   0.432   0.170  0.0095  0.1562  0.1171
 4467W        W 8518   2.076   2.242   9.397 -0.2092 -0.1117 -0.2708
 4468W        W 8519   5.129   8.632   9.533  0.1272 -0.1344  0.0018
 4469W        W 8520   9.414   3.873   4.161  0.0483  0.2615  0.0150
 4470W        W 8521   2.268   4.552  10.089  0.0893  0.0515  0.0523
 4471W        W 8522   1.582   6.884   2.487  0.2672 -0.1029  0.1668
 4472W        W 8523   7.475   3.018   0.896 -0.3010 -0.3869 -0.2384
 4473W        W 8524   9.381   0.296  12.658  0.2247 -0.3828 -0.4595
 4474W        W 8525   2.972   4.868  10.434  0.0489 -0.1847  0.0904
 4475W        W 8526   9.597   9.826  10.094 -0.0928 -0.0748 -0.2189
 4476W        W 8527   1.054   5.097   0.130  0.1768  0.1174 -0.1403
 4477W        W 8528   5.332   0.810  13.577 -0.0839  0.0188 -0.1622
 4478W        W 8529   4.658   4.136   0.590  0.1603  0.1288 -0.1449
 4479W        W 8530   6.458   8.109  12.048  0.1948  0.0528  0.0924
 4480W        W 8531   9.475   1.241  13.710  0.3346  0.1399  0.3131
 4481W        W 8532   8.357   8.018   3.016  0.2979  0.1152 -0.0216
 4482W        W 8533   5.933   8.751   4.825 -0.0342  0.2436  0.1388
 4483W        W 8534   0.272   7.290  13.697  0.1450  0.0489 -0.3806
 4484W        W 8535   4.792   4.696   5.042 -0.0497  0.2051 -0.2447
 4485W        W 8536   3.032   4.529  11.799 -0.0700  0.0535 -0.2427
 4486W        W 8537   4.650   8.654  10.464 -0.1499 -0.3161  0.0109
 4487W        W 8538   4.156   9.614  13.969  0.0800 -0.1379 -0.0915
 4488W        W 8539   7.174   4.996   9.958  0.2885  0.1536  0.1695
 4489W        W 8540   6.535   5.413  13.592 -0.0643  0.0100 -0.0150
 4490W        W 8541   0.137   7.468  11.297 -0.2344  0.0264  0.0241
 4491W        W 8542   4.968   5.060  10.399 -0.0195  0.0625  0.2759
 4492W        W 8543   5.123   9.404   1.768  0.2593 -0.0036 -0.2066
 4493W        W 8544   8.550   4.055  10.847  0.1913  0.0928 -0.0219
 4494W        W 8545  10.141   4.610   4.157  0.0500 -0.4151 -0.1047
 4495W        W 8546   3.381   9.529  12.841  0.0696  0.0711  0.1066
 4496W        W 8547   0.102   8.766  11.065  0.1815  0.0923 -0.1520
 4497W        W 8548   4.049   4.189  13.854 -0.2466  0.0459  0.1923
 4498W        W 8549   7.865  10.135   1.295 -0.0361 -0.0244 -0.1548
 4499W        W 8550   0.587   0.435  13.079 -0.1269  0.0361 -0.2013
 4500W        W 8551   5.475   9.694   1.614  0.0402 -0.0792 -0.2265
 4501W        W 8552   0.708   4.178  12.726 -0.0878  0.1599 -0.1329
 4502W        W 8553   1.480   1.850   4.908 -0.0017  0.0033  0.1329
 4503W        W 8554   0.328   3.543   0.844  0.0382 -0.0482  0.1545
 4504W        W 8555   9.245   8.590  11.434  0.2539  0.2071  0.2382
 4505W        W 8556   3.684  10.055  12.314  0.2544  0.0018 -0.0321
 4506W        W 8557   3.492   8.092  12.936  0.0401  0.0794  0.0282
 4507W        W 8558   0.459   4.772   3.380 -0.2772  0.0950 -0.3650
 4508W        W 8559   2.268   5.395  11.032  0.1070  0.1440 -0.2146
 4509W        W 8560   2.277   9.894  13.703 -0.0494 -0.0252 -0.1489
 4510W        W 8561   4.011   5.781   2.502 -0.2253  0.2055 -0.1708
 4511W        W 8562   2.917   6.422   2.430 -0.0873  0.6381 -0.0147
 4512W        W 8563   4.112   0.693  13.818 -0.2103 -0.2736 -0.0286
 4513W        W 8564   5.413   7.199  13.107 -0.1565 -0.1737 -0.0141
 4514W        W 8565   1.591   0.503  11.630  0.0747  0.3046 -0.0295
 4515W        W 8566   9.833   5.659  10.488 -0.2146 -0.0381  0.2336
 4516W        W 8567   4.586   2.081   4.988  0.3471  0.3548 -0.1072
 4517W        W 8568   6.300   4.077   4.751 -0.0455 -0.1758  0.0280
 4518W        W 8569   5.206   8.161  11.928 -0.0692 -0.0763  0.2240
 4519W        W 8570   9.848   8.207  12.803  0.1482  0.3770  0.0060
 4520W        W 8571   9.501   3.093   1.561  0.2191 -0.2278  0.2405
 4521W        W 8572   4.042   3.869   4.038  0.3041  0.0000 -0.0715
 4522W        W 8573   4.231   8.059  13.462 -0.0141  0.1144 -0.0936
 4523W        W 8574   2.511   0.839  11.443 -0.0148  0.0084 -0.2788
 4524W        W 8575   8.308   3.272  10.842  0.2964 -0.1709 -0.3227
 4525W        W 8576   3.768   6.179  12.596  0.0072  0.3475 -0.0356
 4526W        W 8577   6.106   5.088  13.764 -0.0867 -0.1972  0.1120
 4527W        W 8578   1.865   4.806   4.570 -0.0382 -0.3134  0.1374
 4528W        W 8579   3.754   3.527   4.959  0.1113  0.3105  0.0570
 4529W        W 8580   9.664   6.185   1.249 -0.1834 -0.1467 -0.1177
 4530W        W 8581   8.740   5.299  12.261  0.0361 -0.0438 -0.0797
 4531W        W 8582   9.731   6.359  11.568 -0.0069  0.1725  0.1234
 4532W        W 8583   2.840   6.666  10.173  0.1214 -0.2652 -0.3040
 4533W        W 8584   3.894   3.665  11.261  0.0831  0.1452 -0.2856
 4534W        W 8585   8.762   5.686  13.419  0.2709  0.2895  0.1926
 4535W        W 8586   0.686   0.627   4.860 -0.2036 -0.1883  0.1267
 4536W        W 8587   3.605   9.597  13.703 -0.0145 -0.2199  0.1932
 4537W        W 8588   1.213   9.986   2.959 -0.3161  0.1486 -0.4711
 4538W        W 8589   3.783   5.541   2.043 -0.1069 -0.0301  0.0333
 4539W        W 8590   5.677   9.962   4.565  0.0876 -0.1432  0.0909
 4540W        W 8591   2.328   4.190   0.384  0.1394 -0.0685 -0.1964
 4541W        W 8592   0.616   3.401  13.716 -0.2021  0.4404 -0.0975
 4542W        W 8593   9.919   7.419  11.689 -0.1137  0.1862 -0.2240
 4543W        W 8594   1.097   0.046  10.229 -0.0502 -0.0786  0.0211
 4544W        W 8595   7.773   2.912   3.726 -0.0002  0.2811  0.0440
 4545W        W 8596   8.257   9.054   3.465  0.0472 -0.0046 -0.3608
 4546W        W 8597   1.205   0.912   9.875 -0.0856 -0.1502  0.0783
 4547W        W 8598   0.434   4.593  10.731  0.1046  0.1165 -0.2663
 4548W        W 8599   6.240   9.194   2.691  0.2185 -0.0579  0.0874
 4549W        W 8600   2.895   3.310  11.978 -0.1663 -0.0867 -0.0820
 4550W        W 8601   2.033   1.042   1.654 -0.2592 -0.3204  0.0161
 4551W        W 8602   8.738   9.446   2.348 -0.0447 -0.0814  0.1707
 4552W        W 8603   5.265   9.257  10.411  0.0641  0.0646  0.1630
 4553W        W 8604   4.501   6.961   1.274  0.0669  0.1639  0.1352
 4554W        W 8605   0.862   5.543   9.609  0.1369  0.1389 -0.2438
 4555W        W 8606   6.533   8.608   0.140  0.1279  0.2482  0.0111
 4556W        W 8607   1.062  10.120   4.072 -0.1258 -0.1140  0.0576
 4557W        W 8608   1.659   1.919  10.715  0.0397 -0.1190 -0.2618
 4558W        W 8609   4.509   2.494   0.757  0.1122 -0.3058 -0.0369
 4559W        W 8610   0.261   5.627   3.176 -0.1951 -0.0330 -0.2299
 4560W        W 8611   4.445   9.526  10.169 -0.1568 -0.2181 -0.1216
 4561W        W 8612   6.573   0.785   9.670 -0.0943 -0.0312 -0.2138
 4562W        W 8613   0.145   2.747   2.406 -0.0943 -0.1751 -0.1010
 4563W        W 8614   8.554   9.400   3.373  0.1967  0.0861 -0.2703
 4564W        W 8615   1.806   2.803  12.971 -0.0023  0.0461  0.1557
 4565W        W 8616   7.441   3.204   3.936 -0.1926  0.1196  0.3173
 4566W        W 8617   3.792   2.895   1.228 -0.1546 -0.0457 -0.2063
 4567W        W 8618   9.162   7.383   2.422  0.0806  0.0085  0.2571
 4568W        W 8619   2.009   5.137  11.959 -0.2031  0.0271 -0.0246
 4569W        W 8620   3.845   9.892   2.230  0.1856 -0.1712 -0.0861
 4570W        W 8621   8.144   6.704   9.329 -0.0881  0.0310 -0.0029
 4571W        W 8622   6.784  10.085  11.586  0.3395  0.0598  0.0985
 4572W        W 8623   2.341   0.970   1.045  0.3341  0.2898 -0.3929
 4573W        W 8624   9.480   8.461  13.027  0.0686 -0.2503 -0.0866
 4574W        W 8625   9.345   8.764   0.413 -0.1793 -0.2858  0.1724
 4575W        W 8626   4.788   6.988  11.500 -0.3306 -0.3190  0.0787
 4576W        W 8627   7.400   5.082   1.679 -0.2020  0.0198 -0.0481
 4577W        W 8628   6.899   9.746  11.905  0.0561 -0.0445  0.0684
 4578W        W 8629   0.688   1.575   9.256 -0.0096 -0.3652 -0.0665
 4579W        W 8630   4.519   2.370   4.594  0.0236  0.3194  0.0504
 4580W        W 8631   7.311   6.397  10.331 -0.1429 -0.0054  0.0551
 4581W        W 8632   3.493   3.938   3.823  0.0288  0.1943 -0.2753
 4582W        W 8633   6.494   0.611   2.973 -0.0092  0.0849  0.0916
 4583W        W 8634   9.170   4.691   4.700 -0.1736 -0.1166  0.3047
 4584W        W 8635   8.751   0.064   3.358 -0.0265  0.0330  0.1984
 4585W        W 8636   6.930   2.963   3.924  0.2507  0.1006 -0.2098
 4586W        W 8637   9.960   9.347   2.679  0.0432  0.0952  0.0553
 4587W        W 8638  10.155   6.332  11.293  0.0472  0.0013  0.1859
 4588W        W 8639   7.446   2.422   9.596  0.0173 -0.0456 -0.2133
 4589W        W 8640   2.382   4.156   3.120  0.1370 -0.0688 -0.3535
 4590W        W 8641   9.576   8.271   0.534  0.3375 -0.1925  0.3802
 4591W        W 8642   5.768   4.298  13.515  0.3377 -0.0189 -0.0897
 4592W        W 8643   2.879   3.937   1.574  0.0465  0.0233 -0.3628
 4593W        W 8644   7.420   6.858   3.808 -0.0704 -0.2268 -0.0365
 4594W        W 8645   7.336   5.419   0.578  0.5682  0.1753 -0.0231
 4595W        W 8646   4.629   6.721  10.603  0.0417 -0.0613 -0.0506
 4596W        W 8647   1.117   2.840   8.670 -0.2763  0.0233  0.0113
 4597W        W 8648   7.741   7.887  13.503 -0.4146  0.3328 -0.1409
 4598W        W 8649   5.397   0.754  11.616 -0.2649  0.2474 -0.0430
 4599W        W 8650   5.463   3.566  11.667 -0.0545 -0.0239  0.1045
 4600W        W 8651   3.029   5.097   1.142 -0.0942 -0.1316  0.1147
 4601W        W 8652   1.749   0.396   0.433 -0.2306 -0.2193  0.1409
 4602W        W 8653   7.145   9.531   4.057 -0.0094  0.4138 -0.0915
 4603W        W 8654   8.984   9.744  13.735  0.1576 -0.0804  0.0806
 4604W        W 8655   5.568   4.467   4.886  0.1556  0.2182  0.1258
 4605W        W 8656   3.072   0.130  13.376  0.0199  0.1695 -0.1463
 4606W        W 8657   4.953   9.882   9.682 -0.2131  0.0707  0.1789
 4607W        W 8658   1.404   1.976  13.475  0.4898 -0.0296  0.0802
 4608W        W 8659   8.130   7.511   3.624 -0.0270  0.2237 -0.0490
 4609W        W 8660   8.788   6.014   5.080  0.0348  0.3498 -0.2872
 4610W        W 8661   4.376   4.003   2.020 -0.0671  0.0129  0.1589
 4611W        W 8662   3.407   5.156   0.798  0.1536 -0.2614 -0.0382
 4612W        W 8663   9.745   5.449  13.399  0.0109  0.1530 -0.2071
 4613W        W 8664   9.021   7.023  11.873 -0.0267  0.2044  0.0593
 4614W        W 8665   5.105   2.548   3.791  0.0077 -0.1161 -0.0363
 4615W        W 8666   9.915   3.905   2.961 -0.2079  0.0125 -0.0074
 4616W        W 8667   1.041   1.079   1.317  0.1580 -0.4675 -0.4484
 4617W        W 8668   7.297   3.596   2.064  0.0945 -0.2929  0.1579
 4618W        W 8669   6.595   5.005   9.423  0.0497  0.0984 -0.1092
 4619W        W 8670   7.930   1.265   0.744 -0.1153  0.2761  0.0139
 4620W        W 8671   0.860   0.205   0.553 -0.0951  0.1256 -0.0711
 4621W        W 8672   3.366   9.283   1.766  0.4293  0.0271  0.1183
 4622W        W 8673   7.017   8.729   3.084 -0.0372  0.1128 -0.2436
 4623W        W 8674   0.148   4.651   2.933 -0.1563 -0.3363  0.3459
 4624W        W 8675   7.534   8.056   9.111 -0.1348 -0.2077 -0.0745
 4625W        W 8676   1.271   2.149   0.294  0.0373  0.1805  0.0581
 4626W        W 8677  10.160   7.065  10.851  0.0457  0.2638 -0.0549
 4627W        W 8678   5.901   2.786  11.723  0.0480  0.0429 -0.0688
 4628W        W 8679   9.343   9.421  10.649  0.1091  0.2289 -0.0334
 4629W        W 8680   8.692   2.144  12.401 -0.1179  0.2476 -0.2236
 4630W        W 8681   7.524   1.436   9.692 -0.0326  0.0456 -0.1993
 4631W        W 8682   4.283   0.807   0.331 -0.0148 -0.1201 -0.0993
 4632W        W 8683   1.507   6.737   0.468  0.2012  0.0208 -0.1701
 4633W        W 8684   7.296   0.676   3.358  0.1476 -0.1686 -0.1616
 4634W        W 8685   7.136   1.343  10.935 -0.2822 -0.2023  0.0605
 4635W        W 8686   4.850   4.544   4.047 -0.2722 -0.2134  0.0886
 4636W        W 8687   2.849   2.874   5.247  0.0488  0.0930  0.0321
 4637W        W 8688   8.630   0.908   0.397 -0.0657 -0.0034  0.0766
 4638W        W 8689   0.351   4.563   3.802 -0.0812  0.0020 -0.0097
 4639W        W 8690   6.603   0.353   2.532  0.0999 -0.3663 -0.3269
 4640W        W 8691   1.014   9.439   0.452  0.4780  0.1330  0.2897
 4641W        W 8692   6.990   5.696   2.247  0.0999  0.0984 -0.1349
 4642W        W 8693   6.874   8.614   1.076 -0.4927  0.0004 -0.0263
 4643W        W 8694   2.235   4.751  12.937  0.0584 -0.1180 -0.0703
 4644W        W 8695   2.704   8.775  10.956  0.2963  0.0274 -0.1383
 4645W        W 8696   8.964   2.469  10.721  0.0613  0.4520 -0.2241
 4646W        W 8697   3.023   9.876  13.614 -0.2624  0.4026  0.0851
 4647W        W 8698   4.746   4.303   2.205  0.0548 -0.1801  0.1030
 4648W        W 8699   4.535   0.311   2.439  0.0274  0.0116 -0.0845
 4649W        W 8700   6.975   8.253  10.819 -0.0316 -0.0528 -0.1016
 4650W        W 8701   1.673  10.129  11.577  0.0324 -0.2495 -0.3587
 4651W        W 8702   6.393   3.635  11.468 -0.1081 -0.4033  0.0128
 4652W        W 8703   4.593   3.907   2.614 -0.0489 -0.1480  0.1445
 4653W        W 8704   8.484   0.176   1.430 -0.2331  0.0885  0.1225
 4654W        W 8705   7.093   8.744   3.664  0.1283 -0.0302 -0.0617
 4655W        W 8706   0.496   6.760   4.485 -0.0387  0.3587  0.0954
 4656W        W 8707   1.686   4.089   3.992 -0.3246  0.0991  0.0109
 4657W        W 8708   6.654   6.931  10.175  0.1489  0.1146  0.0713
 4658W        W 8709   0.383   2.301   0.552  0.1975 -0.0444 -0.2264
 4659W        W 8710   9.422   3.217   2.016 -0.4132 -0.0311 -0.1894
 4660W        W 8711   6.456   3.708  11.996 -0.1499  0.0187  0.0667
 4661W        W 8712   8.050   2.138  10.798  0.3496 -0.0761 -0.0045
 4662W        W 8713   9.953   4.318  12.770  0.3100  0.2472 -0.1596
 4663W        W 8714   8.906   7.241  13.955  0.1859 -0.0013  0.2046
 4664W        W 8715   0.077   7.026  11.580 -0.4435  0.0533 -0.1965
 4665W        W 8716   8.424   3.540   9.080 -0.3419 -0.1692 -0.0185
 4666W        W 8717   3.393   1.769  10.068 -0.0428 -0.1778  0.1635
 4667W        W 8718   8.548   3.319  10.024 -0.1316 -0.0975  0.0142
 4668W        W 8719   7.743   3.425   0.726 -0.4029  0.1196 -0.1617
 4669W        W 8720   5.879   1.899  11.453  0.3152 -0.0855 -0.2054
 4670W        W 8721   7.812   1.134   9.931 -0.3689 -0.0052 -0.1073
 4671W        W 8722   7.649   7.459   4.344  0.0063 -0.1088 -0.3980
 4672W        W 8723   2.487   6.719   1.506 -0.2610  0.1262  0.2255
 4673W        W 8724   0.459   7.416  10.923 -0.0036  0.1319  0.1424
 4674W        W 8725   2.276   2.824   8.561 -0.0299 -0.0159  0.1324
 4675W        W 8726   3.336   3.129   3.746  0.0206 -0.0570 -0.0488
 4676W        W 8727   4.642   5.673  12.164 -0.3572 -0.0259 -0.2647
 4677W        W 8728   5.951   3.254   2.570 -0.0720  0.0524  0.2499
 4678W        W 8729   3.458   9.563  11.342  0.1008  0.3825 -0.1586
 4679W        W 8730   0.785   0.395   0.058 -0.1174  0.0533 -0.4194
 4680W        W 8731   5.719   3.736   0.250  0.0238  0.2628 -0.2487
 4681W        W 8732   5.211   2.914  13.252 -0.1389  0.2100 -0.1037
 4682W        W 8733   4.563   5.658   0.710 -0.0711  0.1138  0.2345
 4683W        W 8734   1.118   8.747  12.817 -0.1399 -0.3751 -0.1138
 4684W        W 8735   1.042   5.348  12.911  0.1912 -0.2476  0.0320
 4685W        W 8736   9.190   3.555   0.992 -0.2237 -0.2330 -0.1311
 4686W        W 8737   3.901   5.635  12.976  0.0136  0.0799  0.1214
 4687W        W 8738   6.898   3.683  12.214 -0.0072 -0.0757  0.1339
 4688W        W 8739   4.087   2.416   0.395  0.3308  0.2745 -0.2692
 4689W        W 8740   6.297   9.290   1.220 -0.1614 -0.0533  0.1945
 4690W        W 8741   8.003   6.299  11.524 -0.0930  0.1297 -0.0652
 4691W        W 8742   0.756   9.824  10.020  0.0840 -0.0473 -0.3047
 4692W        W 8743   7.233   8.340   3.386  0.1784 -0.2173  0.3096
 4693W        W 8744   8.695   5.316  13.849 -0.0501  0.0996 -0.0701
 4694W        W 8745   7.747   2.326  12.185 -0.0715  0.1812 -0.1484
 4695W        W 8746   5.534   6.258  13.314  0.1311  0.1916 -0.2712
 4696W        W 8747   6.677   9.661   0.911  0.4140 -0.0851  0.0891
 4697W        W 8748   0.574   0.681  11.581 -0.0892  0.0324  0.1209
 4698W        W 8749   7.771   3.183  11.654  0.3333  0.1342  0.1490
 4699W        W 8750   3.831   3.775  13.673  0.0717 -0.1713  0.0081
 4700W        W 8751   3.706   4.289   2.708  0.1083  0.2343  0.2094
 4701W        W 8752   4.574   7.021   2.209  0.1362  0.0777 -0.2394
 4702W        W 8753   5.903   9.889  12.308  0.5056 -0.1170 -0.3007
 4703W        W 8754   0.643   7.268   0.780 -0.1177  0.1476 -0.0900
 4704W        W 8755  10.060  10.101   1.845 -0.1069 -0.1213  0.3920
 4705W        W 8756  10.127   3.044  10.789  0.0678 -0.0015  0.0987
 4706W        W 8757   7.498   7.552  10.167  0.0968  0.2365 -0.0012
 4707W        W 8758   7.890   9.292  12.003 -0.1818 -0.0532 -0.0095
 4708W        W 8759   3.579   1.639  12.278 -0.0589 -0.2685  0.1049
 4709W        W 8760   0.771   6.770   3.431 -0.2443 -0.2385 -0.0625
 4710W        W 8761   4.377   7.176  13.565  0.1408 -0.3019 -0.2438
 4711W        W 8762   9.834   1.080  12.001  0.1189 -0.0509  0.1114
 4712W        W 8763   2.186   9.795   9.668  0.0913 -0.0941  0.1711
 4713W        W 8764   1.816   7.351   9.872 -0.0285  0.4455 -0.1544
 4714W        W 8765   5.356   5.335  10.345  0.5513  0.3602  0.1126
 4715W        W 8766   5.093   4.259  10.936  0.0071  0.0872 -0.1169
 4716W        W 8767   4.185   2.107  11.472  0.0112  0.1662  0.0483
 4717W        W 8768   3.520   3.300  11.233 -0.2160 -0.1024  0.3848
 4718W        W 8769   1.934   6.982  12.332 -0.0157 -0.2996 -0.1784
 4719W        W 8770   1.595   0.682   2.940  0.1111 -0.1022 -0.0945
 4720W        W 8771   6.957   2.026   3.622 -0.1164  0.1507 -0.0320
 4721W        W 8772   7.774   7.981  11.898 -0.0580 -0.0366 -0.0334
 4722W        W 8773   4.441   5.150  13.641  0.1615 -0.0464 -0.2014
 4723W        W 8774   5.012   2.560   2.365 -0.1320  0.0175  0.2245
 4724W        W 8775   7.760   4.620  11.685  0.1589 -0.1019  0.0559
 4725W        W 8776   6.736   2.853   0.252  0.2111 -0.0458  0.2056
 4726W        W 8777   3.607   1.794   1.659 -0.0854  0.4266 -0.0568
 4727W        W 8778   0.420   7.984   2.168  0.3934  0.0383 -0.1692
 4728W        W 8779   3.093   1.749  11.902 -0.0411 -0.0106 -0.2026
 4729W        W 8780   9.764   6.867   4.194 -0.1831  0.3290 -0.1561
 4730W        W 8781   3.478   2.879  10.923  0.2180 -0.0107  0.0806
 4731W        W 8782   7.781   1.600   2.189  0.2563  0.3086 -0.2040
 4732W        W 8783   4.855   5.450   9.447  0.2412 -0.0564  0.2026
 4733W        W 8784   9.869   7.039   8.821 -0.2026 -0.0610 -0.0544
 4734W        W 8785   0.043   9.160  10.141 -0.1787  0.2331  0.2200
 4735W        W 8786   1.850   3.881   0.242 -0.0163 -0.3504 -0.4065
 4736W        W 8787  10.176   1.492   9.980  0.1519  0.2298 -0.2233
 4737W        W 8788   0.829   3.930   4.062  0.0286 -0.1993 -0.1199
 4738W        W 8789   5.781   3.100   0.044 -0.3159 -0.3235  0.1644
 4739W        W 8790   2.423   2.749   0.392 -0.3118  0.1967 -0.2998
 4740W        W 8791   9.966   6.032  10.960 -0.1923  0.1520  0.1930
 4741W        W 8792   9.205   4.105  10.025 -0.3945  0.0013  0.3099
 4742W        W 8793   2.852   4.928  12.625  0.1310 -0.1148  0.3174
 4743W        W 8794   8.925   1.991   9.833  0.0470 -0.2960  0.2582
 4744W        W 8795   0.918   9.818  10.571 -0.1541 -0.1245  0.0043
 4745W        W 8796   5.407   5.373   0.460  0.4376 -0.1228 -0.1929
 4746W        W 8797   2.418   6.880   1.031 -0.2599 -0.2180 -0.0368
 4747W        W 8798   5.287   0.797   0.171  0.1783  0.0345  0.1245
 4748W        W 8799   8.928   3.281  10.490 -0.2129 -0.0559 -0.1009
 4749W        W 8800   8.074   5.512  12.110 -0.4519  0.2269  0.1871
 4750W        W 8801   2.274   7.148   1.738  0.1598  0.1731 -0.2024
 4751W        W 8802   3.184   7.322  13.626 -0.0805  0.1972  0.2322
 4752W        W 8803  10.010   0.878   1.730  0.4553  0.2789 -0.3262
 4753W        W 8804   4.062   6.308  11.035 -0.0713  0.3669 -0.0893
 4754W        W 8805   6.917   5.574   2.757  0.0102  0.0821  0.2984
 4755W        W 8806   9.475   6.913   3.725 -0.0078  0.0580 -0.1160
 4756W        W 8807   7.144   5.892   0.022  0.1120 -0.2418  0.0968
 4757W        W 8808   9.400   8.502   4.062  0.0062  0.0701  0.2282
 4758W        W 8809   0.176   4.581   0.219  0.0579 -0.2095 -0.1058
 4759W        W 8810   6.565   2.448  13.573 -0.0212  0.0100  0.2903
 4760W        W 8811   8.153   6.808  13.572  0.0646  0.2259 -0.2087
 4761W        W 8812   6.505   7.586   0.897  0.0312  0.0097  0.0302
 4762W        W 8813   9.343   0.910   4.234  0.1456  0.1532  0.2915
 4763W        W 8814   7.596   6.116  12.954  0.2378  0.0925 -0.2028
 4764W        W 8815   1.596   4.052   9.671  0.1031  0.4075 -0.2275
 4765W        W 8816   7.611   1.231  12.795 -0.1733  0.0231  0.1457
 4766W        W 8817   5.031   3.631   9.874 -0.1696 -0.0970 -0.2143
 4767W        W 8818   6.047   2.245   4.142  0.1125  0.0435  0.0289
 4768W        W 8819   5.801   2.291  12.845 -0.0565  0.4309  0.5083
 4769W        W 8820   0.303   4.753  13.631  0.0840 -0.0642 -0.0900
 4770W        W 8821   5.637   1.570   0.778 -0.0433 -0.1155  0.0210
 4771W        W 8822   2.162   3.170   2.687  0.1257 -0.1816  0.1214
 4772W        W 8823   9.396   5.097   0.674 -0.0013  0.2824  0.2156
 4773W        W 8824   2.035   1.078  12.772 -0.3050 -0.0196  0.6209
 4774W        W 8825   1.943   3.497   4.520  0.0812  0.2030 -0.0830
 4775W        W 8826   1.296   8.538   0.553  0.2415  0.1493  0.1175
 4776W        W 8827   1.152   9.198   3.639  0.2385 -0.1187 -0.3701
 4777W        W 8828   7.406   4.182  11.506 -0.1181  0.4848  0.0263
 4778W        W 8829   6.389   7.855  10.022  0.1758  0.0917 -0.0388
 4779W        W 8830   3.272   1.108   1.259  0.0681  0.0155  0.1684
 4780W        W 8831   1.026   5.296   3.551  0.1123  0.0113  0.1372
 4781W        W 8832   8.037   8.268  13.276  0.0301  0.1536 -0.1477
 4782W        W 8833   8.537   0.311   3.922 -0.1893 -0.0637  0.1373
 4783W        W 8834   7.710   5.550   4.065  0.2939  0.2753 -0.0282
 4784W        W 8835   0.918   8.239   2.148 -0.2210  0.0693  0.2082
 4785W        W 8836   7.257   0.872  11.138 -0.0479 -0.2774 -0.0645
 4786W        W 8837   2.538   5.146   2.805 -0.1795  0.4414 -0.0979
 4787W        W 8838   5.231   5.738  13.916  0.0117  0.0806  0.2370
 4788W        W 8839   5.899   1.320  12.213 -0.0246 -0.1729 -0.1380
 4789W        W 8840   3.777   4.152  11.479 -0.0392  0.2357 -0.1341
 4790W        W 8841   9.573   5.451  11.343 -0.1213 -0.1164  0.1438
 4791W        W 8842   3.301   0.696  11.943 -0.1129 -0.0693 -0.0608
 4792W        W 8843   9.241   8.608  12.097  0.0149 -0.0168 -0.1389
 4793W        W 8844   6.347   5.414   0.594 -0.0218 -0.0589  0.1074
 4794W        W 8845   4.662   0.451   3.916  0.0562 -0.0150  0.0565
 4795W        W 8846   1.131   1.865   2.565 -0.1338 -0.0373 -0.0568
 4796W        W 8847   1.443   8.646   2.932 -0.2005  0.3071 -0.2872
 4797W        W 8848   8.643   3.038  13.527  0.2095  0.2254  0.1019
 4798W        W 8849   9.503   4.423  13.606 -0.1979 -0.1936  0.0799
 4799W        W 8850   8.277   3.783   3.410 -0.1959  0.2358  0.3518
 4800W        W 8851   2.586   8.508  10.142 -0.2197 -0.1158 -0.0504
 4801W        W 8852   4.117   4.477   3.002 -0.0277  0.0908 -0.3684
 4802W        W 8853   8.469   5.261   3.661  0.3544  0.3074  0.3565
 4803W        W 8854   2.494   8.014  11.416 -0.0078  0.1451 -0.0245
 4804W        W 8855   5.172   5.876  13.398  0.0356 -0.1926 -0.0372
 4805W        W 8856   9.364   2.568   9.178  0.0744  0.1746  0.4269
 4806W        W 8857   5.980   3.924  13.244  0.1429  0.3541 -0.0888
 4807W        W 8858   1.645   9.689  11.254 -0.2707 -0.0682  0.2459
 4808W        W 8859   0.037   4.393   9.407  0.0125 -0.2311 -0.1350
 4809W        W 8860   0.130   6.185   1.896  0.1721  0.0993  0.0307
 4810W        W 8861   1.598   3.306  12.302  0.0696 -0.0438 -0.2966
 4811W        W 8862   1.124   4.860  12.387  0.1792 -0.0189  0.0146
 4812W        W 8863   7.754   0.394   2.179 -0.0111  0.0487 -0.1386
 4813W        W 8864   5.551   5.720  11.110  0.0245  0.1158  0.0659
 4814W        W 8865   0.059   6.001   2.309 -0.0106  0.0829 -0.0087
 4815W        W 8866   4.470   0.798   3.611 -0.0889  0.1483  0.3702
 4816W        W 8867   8.838   2.580  13.208 -0.2664 -0.0323 -0.0300
 4817W        W 8868   8.775   7.798   1.648  0.1477  0.0984  0.2918
 4818W        W 8869   0.884   9.017  11.031 -0.0084 -0.1980  0.0996
 4819W        W 8870   7.243   1.519   3.503 -0.3035  0.1937  0.1003
 4820W        W 8871   7.562   0.571   8.478  0.2913  0.2543 -0.1769
 4821W        W 8872   9.810   4.166   3.343 -0.0833 -0.4115 -0.3785
 4822W        W 8873   4.550   2.992  12.795  0.0407  0.4296 -0.0514
 4823W        W 8874   6.524   6.731   9.753  0.2497 -0.0525 -0.0363
 4824W        W 8875   6.432   6.402   3.918 -0.0247  0.4925 -0.3344
 4825W        W 8876   6.231   4.109   0.918  0.0970 -0.2794 -0.5032
 4826W        W 8877   7.663   8.476   1.708 -0.0428  0.1911 -0.0585
 4827W        W 8878   0.485   9.053  12.105 -0.1982  0.0543  0.0639
 4828W        W 8879  10.030   6.854  10.383  0.3734  0.0124 -0.0695
 4829W        W 8880   0.035  10.148   0.963 -0.0478 -0.2484  0.1569
 4830W        W 8881   4.424   4.824   3.964 -0.1022  0.2329  0.2503
 4831W        W 8882   7.063  10.155   5.084  0.0388 -0.0969  0.3125
 4832W        W 8883   6.496   3.434  12.448 -0.0580 -0.2458  0.0018
 4833W        W 8884   4.679   9.629  12.666 -0.1404 -0.1442 -0.0960
 4834W        W 8885   8.906   9.983   4.629  0.0527  0.0347  0.0104
 4835W        W 8886   4.495   7.835   3.097  0.0737  0.0588  0.1776
 4836W        W 8887   7.979   6.929   3.438  0.0041  0.1035 -0.1783
 4837W        W 8888   4.583   2.233  12.209 -0.0075 -0.0471 -0.1046
 4838W        W 8889   7.720  10.047   3.395 -0.1426 -0.1673 -0.0066
 4839W        W 8890   6.775   8.709   2.026  0.2135  0.4998  0.1547
 4840W        W 8891   2.792   7.693   2.999 -0.2234  0.1058  0.0024
 4841W        W 8892   3.909   5.883   3.263  0.1555 -0.3140  0.0434
 4842W        W 8893   8.314   0.946  10.407 -0.0833  0.0363  0.2970
 4843W        W 8894   8.421   3.548   0.057  0.1671 -0.2805 -0.3371
 4844W        W 8895   2.281   2.002   4.074 -0.1334  0.0427 -0.3036
 4845W        W 8896   3.607   4.646   0.743 -0.1010  0.3148 -0.4654
 4846W        W 8897   4.248   4.647   4.403  0.3016 -0.1320 -0.0893
 4847W        W 8898   0.175   4.956  12.682  0.1832  0.5040  0.1544
 4848W        W 8899   4.781   4.556  11.293  0.0801 -0.2320 -0.0838
 4849W        W 8900   3.033   2.712  13.160  0.2024 -0.1427  0.2500
 4850W        W 8901   6.058   9.476   3.798 -0.0593 -0.3038  0.3263
 4851W        W 8902   0.789   5.347  12.467 -0.3020  0.3300 -0.0450
 4852W        W 8903   4.177   6.304  13.514  0.2150 -0.2648  0.2843
 4853W        W 8904   6.417   2.132  11.144 -0.0416  0.2988 -0.1709
 4854W        W 8905   1.479   0.359  13.659 -0.1041  0.0075 -0.0660
 4855W        W 8906   1.805   8.026   3.755 -0.1313  0.3116 -0.1727
 4856W        W 8907   5.493   4.440   2.867  0.0114 -0.1231 -0.2623
 4857W        W 8908   7.136   5.230   0.962 -0.1653  0.1757 -0.3755
 4858W        W 8909   1.313   9.171  11.235  0.0034 -0.2120 -0.0725
 4859W        W 8910   1.535   8.174   2.147 -0.1075  0.4091  0.0469
 4860W        W 8911   1.479   1.692   4.033  0.2283  0.2362  0.0912
 4861W        W 8912   5.708   1.239  10.035 -0.2139 -0.1319 -0.2372
 4862W        W 8913   8.769   5.703   4.687  0.0182 -0.2004  0.0295
 4863W        W 8914   3.732   5.052  12.223  0.1711  0.0585 -0.5101
 4864W        W 8915   9.467   7.664  11.584 -0.0927 -0.1453  0.0509
 4865W        W 8916   0.002   3.621   1.380 -0.1149  0.1167 -0.3053
 4866W        W 8917   0.044   1.697   1.342  0.3019 -0.2328 -0.2137
 4867W        W 8918   5.776   8.337   2.988 -0.0429  0.0650  0.0856
 4868W        W 8919   9.991   4.732  12.382 -0.2802 -0.1939 -0.1378
 4869W        W 8920   9.677   0.980   4.992 -0.0700 -0.0633  0.0770
 4870W        W 8921   3.309   8.889   3.877  0.0026 -0.0298 -0.2582
 4871W        W 8922   5.970   6.553   3.238  0.1508  0.1209  0.1191
 4872W        W 8923   2.771   2.468   2.710  0.0510 -0.1437 -0.0483
 4873W        W 8924   2.977   1.208   4.732 -0.0518 -0.2676  0.0029
 4874W        W 8925   1.335   9.284  11.748  0.5276 -0.1545 -0.0961
 4875W        W 8926   4.210   3.690  12.272  0.0438  0.1231  0.1266
 4876W        W 8927   9.184   2.870  10.448  0.1236 -0.0995  0.0870
 4877W        W 8928   6.138   6.383  10.017 -0.0259  0.0284  0.3367
 4878W        W 8929   9.066   8.468   3.232  0.1827  0.1593  0.1022
 4879W        W 8930   4.613   6.301   1.224  0.0330  0.2895  0.1760
 4880W        W 8931   5.305   5.196  11.967  0.0595  0.0333  0.2037
 4881W        W 8932   5.669   8.436  13.139  0.0776  0.1475 -0.2028
 4882W        W 8933   0.915   2.288   1.334  0.0703 -0.1025  0.0392
 4883W        W 8934   3.397   6.904   2.402  0.0580  0.0586  0.0042
 4884W        W 8935   6.882   6.148   1.001  0.0464 -0.2506 -0.2785
 4885W        W 8936   6.086   0.002   4.332  0.1625 -0.2581  0.0440
 4886W        W 8937   6.279   1.469   3.283  0.0961  0.2163 -0.0446
 4887W        W 8938   8.777   9.303  10.367  0.4915 -0.1541 -0.1524
 4888W        W 8939   2.270   7.446  11.597 -0.1205 -0.4073  0.0456
 4889W        W 8940   5.302   5.851   0.787  0.0050  0.0471  0.4362
 4890W        W 8941   4.785   2.609   4.886 -0.0995  0.0331 -0.2077
 4891W        W 8942   8.155   3.904   4.266  0.3827 -0.0212 -0.2250
 4892W        W 8943  10.049   6.763   1.855 -0.2097  0.2310 -0.0764
 4893W        W 8944   3.965   0.890  11.405 -0.2623  0.2299  0.2851
 4894W        W 8945   6.524   5.597   2.026 -0.0106  0.0533 -0.1991
 4895W        W 8946   9.091   0.442   4.195 -0.1263  0.2749 -0.2276
 4896W        W 8947   7.133   7.705  10.747 -0.4886 -0.0723  0.0992
 4897W        W 8948   3.199   4.440   2.759  0.0365 -0.1477 -0.1478
 4898W        W 8949   2.866   9.746  11.812  0.1936 -0.0368  0.1087
 4899W        W 8950   1.769   2.628   2.295 -0.0474  0.0292 -0.0278
 4900W        W 8951   1.177   1.648  13.889  0.0110  0.1059  0.1894
 4901W        W 8952   3.664   6.655   3.365 -0.0429 -0.2176 -0.1393
 4902W        W 8953   1.256   0.989   2.071  0.2496 -0.1152 -0.3098
 4903W        W 8954   0.921   7.848   2.809  0.0861  0.0409  0.3064
 4904W        W 8955   9.481   2.251   2.225  0.0679  0.0386  0.2097
 4905W        W 8956   9.408   0.095   4.058  0.2350 -0.2980 -0.0843
 4906W        W 8957   9.601   0.356   9.673 -0.2955 -0.4064 -0.0831
 4907W        W 8958   8.663   1.468  13.849 -0.0538 -0.0093  0.1225
 4908W        W 8959   0.367   9.894  12.534 -0.0583  0.0450 -0.3965
 4909W        W 8960   7.629   9.493   5.073 -0.2437  0.0572  0.0613
 4910W        W 8961   8.023   4.043   0.726  0.0694  0.3514 -0.3031
 4911W        W 8962   8.626   9.581   2.806  0.2409  0.0599 -0.1363
 4912W        W 8963   6.452   1.955   3.274 -0.2534  0.1775  0.0652
 4913W        W 8964   5.041   9.605  13.031 -0.0889  0.0145  0.1531
 4914W        W 8965   3.880   8.579  12.064 -0.0371 -0.1737 -0.2033
 4915W        W 8966   0.832   0.141  10.768 -0.0806  0.2469  0.1927
 4916W        W 8967   1.532   2.399   9.967  0.3043  0.3320  0.0333
 4917W        W 8968   2.690   9.990  13.260 -0.1899 -0.1022  0.2675
 4918W        W 8969   5.850   6.917  10.178 -0.1426 -0.1599  0.0813
 4919W        W 8970   8.344   0.741   4.674 -0.0794 -0.1027  0.1336
 4920W        W 8971   5.758   8.014  11.139  0.1182  0.0390  0.1593
 4921W        W 8972   2.625   1.466  12.016 -0.1572  0.2811 -0.0803
 4922W        W 8973   6.435   6.085   4.907 -0.0030 -0.0206 -0.1354
 4923W        W 8974   8.967   2.158   1.205 -0.1673 -0.2243 -0.1098
 4924W        W 8975   8.686   5.521  11.227  0.2833  0.0039 -0.0568
 4925W        W 8976   9.372   1.093   9.641 -0.0656 -0.3299 -0.0635
 4926W        W 8977   0.519   4.908   2.667 -0.0831  0.1632 -0.2491
 4927W        W 8978   6.666   4.715  11.317 -0.0652 -0.4461 -0.0057
 4928W        W 8979   1.416   9.405  10.530 -0.0190 -0.0461 -0.0227
 4929W        W 8980   4.351   1.867  13.537 -0.1424  0.0636 -0.2134
 4930W        W 8981   2.457   0.146  12.284 -0.2143 -0.0022 -0.3843
 4931W        W 8982   5.877   9.460   1.479  0.0044  0.4287  0.1989
 4932W        W 8983   8.846   8.437   9.588 -0.0333 -0.0102  0.0972
 4933W        W 8984   7.618   7.774   3.406  0.3066 -0.0115  0.1369
 4934W        W 8985   3.961   3.775   3.567 -0.0325  0.2197 -0.1547
 4935W        W 8986   8.334   2.927   2.150 -0.0055  0.1060 -0.0145
 4936W        W 8987   3.428   5.968   4.235  0.0043 -0.0989 -0.0515
 4937W        W 8988   2.472   3.603   1.594  0.0565  0.0540  0.4041
 4938W        W 8989   6.191   4.862  11.462 -0.1359  0.2308  0.2328
 4939W        W 8990   7.083   5.118  11.271  0.1916 -0.1778  0.1998
 4940W        W 8991   6.542   6.054   1.389 -0.0336  0.0082 -0.2634
 4941W        W 8992   1.260   2.771   3.790 -0.0483  0.1073  0.2975
 4942W        W 8993   9.597   3.032  10.683  0.1643  0.0336 -0.3339
 4943W        W 8994   1.057   7.487  13.458 -0.1155  0.0246 -0.2483
 4944W        W 8995   3.673   4.734   2.832  0.1557  0.2121 -0.2986
 4945W        W 8996   4.729   1.169   1.935  0.0182 -0.4180  0.0875
 4946W        W 8997   3.655   7.198   0.498  0.1707 -0.1410  0.2932
 4947W        W 8998   3.101   7.547  11.322  0.3436  0.0359  0.2459
 4948W        W 8999   8.289   3.031  13.876  0.0743  0.3276  0.1640
 4949W        W 9000   6.467   4.215  10.430  0.0089 -0.1407 -0.1016
 4950W        W 9001   4.480   2.643   2.173 -0.0313  0.0153 -0.0499
 4951W        W 9002   8.616   8.171   3.600 -0.0246 -0.1055  0.2650
 4952W        W 9003   4.111   4.139   0.567  0.2211 -0.1034  0.0397
 4953W        W 9004   4.829   7.855  11.448  0.0486  0.1379  0.3515
 4954W        W 9005   6.394   6.549  10.851 -0.1605  0.2071  0.1016
 4955W        W 9006   5.845   0.175   1.629  0.0324 -0.0847 -0.0093
 4956W        W 9007   8.004   8.844  13.135  0.1519 -0.1819  0.0996
 4957W        W 9008   8.272   3.580   4.616  0.1946  0.0375  0.0761
 4958W        W 9009   1.311   8.473  12.376 -0.0734 -0.3185  0.0016
 4959W        W 9010   2.395   8.986   2.514  0.1233  0.2143  0.1904
 4960W        W 9011   5.007   8.344  11.480  0.0519  0.2392 -0.1178
 4961W        W 9012   4.411   5.401  10.970  0.1105  0.1129  0.4144
 4962W        W 9013   9.268   4.909  10.019 -0.0392  0.0318 -0.0521
 4963W        W 9014   2.533   3.466  13.659 -0.2932  0.2681 -0.1196
 4964W        W 9015   5.114   1.803  11.409  0.0017  0.2802 -0.1851
 4965W        W 9016   9.736   8.698   9.978 -0.0190  0.0097  0.0580
 4966W        W 9017   6.020   8.252  10.324  0.0801  0.1961 -0.2637
 4967W        W 9018   7.368   4.522   0.794  0.0974  0.0086  0.0078
 4968W        W 9019   0.708   0.590   8.972  0.1531 -0.0247  0.1337
 4969W        W 9020   4.344   0.405  12.927 -0.1049 -0.0831 -0.5889
 4970W        W 9021   2.599   6.777   3.230 -0.0009 -0.2482  0.4106
 4971W        W 9022   9.282   9.599   4.733  0.0944  0.3224  0.0901
 4972W        W 9023   7.818   5.034   4.355  0.1931 -0.0183  0.2924
 4973W        W 9024   1.910   7.968   4.305 -0.1342  0.5679  0.1736
 4974W        W 9025   0.930   7.432  12.765  0.0965  0.0370 -0.0158
 4975W        W 9026   1.101   1.496   2.251  0.0036  0.3207 -0.1491
 4976W        W 9027   7.712   1.282   4.082 -0.3167  0.1352  0.1663
 4977W        W 9028   8.370   1.264   2.740 -0.2183  0.1717  0.3425
 4978W        W 9029   8.874   8.616  12.499 -0.1440  0.1247 -0.0336
 4979W        W 9030   0.485   9.565   4.285 -0.0552 -0.0908  0.2658
 4980W        W 9031   2.560   5.678  13.285  0.0174  0.4233  0.1772
 4981W        W 9032   6.999   4.550   3.940 -0.0971 -0.0375  0.1578
 4982W        W 9033   8.796   6.738   0.180 -0.1690 -0.0684 -0.1596
 4983W        W 9034   2.624   9.552   4.255  0.1105 -0.2090  0.0003
 4984W        W 9035   7.238   8.776  13.775  0.1401  0.1191 -0.0729
 4985W        W 9036   8.676   6.871   3.974  0.3077 -0.1317 -0.0053
 4986W        W 9037   6.782   6.633   0.829 -0.0383 -0.0367 -0.1853
 4987W        W 9038   7.169   7.837   1.437  0.0905 -0.0693 -0.0712
 4988W        W 9039   9.866   1.142   0.139 -0.3757 -0.4341 -0.0118
 4989W        W 9040   5.610   6.057  11.919 -0.0212 -0.0986  0.1178
 4990W        W 9041   3.976   4.601  12.214 -0.0715 -0.0899  0.2396
 4991W        W 9042   4.022   5.898   0.892 -0.1652  0.0055 -0.0734
 4992W        W 9043   7.649   4.191   2.761 -0.2037 -0.1390  0.0603
 4993W        W 9044   9.925   1.701  12.806  0.1063 -0.0160  0.1332
 4994W        W 9045   6.775   9.599   0.071 -0.1287  0.3235  0.1325
 4995W        W 9046   7.710   2.184   3.124 -0.1452  0.0353  0.0890
 4996W        W 9047   5.931   0.430   4.125  0.3226  0.3312 -0.0521
 4997W        W 9048   7.264   7.017   9.161  0.3077 -0.0172  0.1960
 4998W        W 9049   3.193   9.708  10.450  0.2952  0.3148 -0.1494
 4999W        W 9050   4.310   8.016   9.418 -0.0390  0.0782 -0.1579
 5000W        W 9051   4.624   9.048  10.781 -0.0778 -0.1034 -0.0821
 5001W        W 9052   6.129   5.702  11.412 -0.0263  0.2512 -0.0697
 5002W        W 9053   6.849   9.016  13.050 -0.1656  0.1396 -0.1029
 5003W        W 9054   2.804   6.313  13.464  0.1229  0.1170  0.0631
 5004W        W 9055   1.283   8.139   1.714  0.0319  0.2167  0.3064
 5005W        W 9056   1.763   6.783  11.058  0.1066 -0.2823  0.2162
 5006W        W 9057   4.242   0.317   3.606 -0.1719  0.2201 -0.0454
 5007W        W 9058   8.674   4.486  12.288  0.0233  0.0296  0.0399
 5008W        W 9059   4.238   5.939  13.155  0.0971  0.1224  0.3339
 5009W        W 9060   0.718   4.751  12.764  0.0897 -0.2150  0.1612
 5010W        W 9061   4.618   8.967   0.290 -0.1035  0.1333 -0.1289
 5011W        W 9062   3.886   8.113   0.338 -0.0407 -0.2112  0.0111
 5012W        W 9063   7.937   7.553   1.908 -0.0526 -0.2800  0.2469
 5013W        W 9064   3.792   1.680   0.242  0.0604  0.0685 -0.0669
 5014W        W 9065   8.341   9.392  10.092  0.0574 -0.2303  0.0076
 5015W        W 9066   7.987   9.126  10.891 -0.5784  0.0752 -0.2176
 5016W        W 9067   7.087   1.963   4.845 -0.0775  0.2139 -0.0521
 5017W        W 9068   9.231   3.541   2.358 -0.0757 -0.2793  0.0227
 5018W        W 9069   6.052   7.232   0.796  0.2009 -0.3877 -0.1517
 5019W        W 9070   0.131   5.089   3.481  0.1084  0.2392 -0.1758
 5020W        W 9071   4.749   4.519   4.575 -0.4531  0.0034  0.0010
 5021W        W 9072   9.110   2.865   1.840  0.3680  0.0494  0.1236
 5022W        W 9073   2.591   6.136  13.042  0.3952  0.0807  0.1775
 5023W        W 9074   7.068   5.700   0.984  0.1837  0.2037  0.0577
 5024W        W 9075   6.410   7.735  13.080  0.0829  0.0338  0.1143
 5025W        W 9076   0.146   3.185   0.133 -0.1796 -0.0388  0.2610
 5026W        W 9077   8.782   1.914  11.374 -0.4480  0.0647  0.0755
 5027W        W 9078   3.008   0.532   2.999  0.0380 -0.3535  0.1173
 5028W        W 9079   2.180   0.150   9.993  0.1073 -0.1160 -0.0772
 5029W        W 9080   9.715   5.953   2.119 -0.0439 -0.1946 -0.2045
 5030W        W 9081   3.438   2.666   1.795 -0.1668  0.2864  0.1161
 5031W        W 9082   9.719   7.868  11.986  0.5182 -0.0523  0.1922
 5032W        W 9083   1.669   6.590  10.558 -0.2302 -0.1114 -0.3368
 5033W        W 9084   6.213   4.960  10.976  0.2039 -0.0683  0.1298
 5034W        W 9085   9.532   1.444  12.003 -0.0160 -0.0737 -0.1228
 5035W        W 9086   6.224   7.039   3.082  0.0027 -0.1748 -0.1020
 5036W        W 9087   8.569   8.450  11.094  0.0159 -0.0038 -0.2845
 5037W        W 9088   7.548   5.694   0.282 -0.0560  0.0191 -0.1562
 5038W        W 9089   7.592   0.071  13.930  0.0446  0.2463  0.2060
 5039W        W 9090   1.986   1.841  11.402 -0.0560  0.4348  0.1507
 5040W        W 9091   9.903   4.944   2.748  0.0480  0.0125 -0.0498
 5041W        W 9092   4.634   2.240  10.227  0.0913 -0.1430 -0.0136
 5042W        W 9093   6.273   0.157   1.176  0.0637 -0.1719  0.0395
 5043W        W 9094   7.890   8.075   1.923  0.3506  0.3721  0.1220
 5044W        W 9095   5.205   8.807  12.550 -0.1425 -0.1082  0.0351
 5045W        W 9096   3.259   7.410   3.681 -0.1485  0.1331 -0.0489
 5046W        W 9097   4.643   8.802   2.417 -0.0862  0.2730 -0.2551
 5047W        W 9098   8.212   9.925   1.627 -0.3603 -0.0151 -0.2793
 5048W        W 9099   8.319   9.183   1.280 -0.3614 -0.4063  0.0615
 5049W        W 9100   0.875   9.972  11.091 -0.0169 -0.0098 -0.3447
 5050W        W 9101   2.227   5.334   0.436  0.0709  0.0078 -0.1075
 5051W        W 9102   4.721   7.979   1.934 -0.0852 -0.0062  0.0984
 5052W        W 9103   5.593   4.824   2.321  0.1560  0.0725  0.2007
 5053W        W 9104   3.117   5.531  13.556 -0.1140 -0.1700  0.0563
 5054W        W 9105   5.351   9.218  11.793 -0.1291 -0.1990  0.2482
 5055W        W 9106   1.503   3.955  11.891 -0.0047 -0.0474  0.0362
 5056W        W 9107   6.969   7.389   9.198  0.1285  0.1018  0.2040
 5057W        W 9108   8.729   6.192   1.393  0.1151  0.0642  0.1221
 5058W        W 9109   4.704   0.451  11.900  0.0907  0.0966  0.1651
 5059W        W 9110   9.098   3.661   9.636 -0.0644  0.3449 -0.3579
 5060W        W 9111   7.873   0.321  10.308 -0.3182 -0.0832  0.1148
 5061W        W 9112   0.252   1.249   2.393 -0.0936 -0.3389 -0.4207
 5062W        W 9113   0.364   6.677   1.760  0.0106  0.1665  0.3462
 5063W        W 9114   0.114   0.633   1.391 -0.0391 -0.1462  0.0271
 5064W        W 9115   5.347   7.997   3.621 -0.1116 -0.3327 -0.0290
 5065W        W 9116   7.961   1.579  12.969 -0.0087 -0.3866  0.1579
 5066W        W 9117   6.613   7.792  12.444 -0.1096 -0.0871  0.1640
 5067W        W 9118   0.072   9.819   0.610 -0.1950 -0.1119 -0.0197
 5068W        W 9119   6.917   8.068   9.830 -0.0744 -0.2353  0.3567
 5069W        W 9120   9.004   7.625  12.684 -0.0992 -0.0568 -0.0135
 5070W        W 9121   8.858   3.715  10.106  0.0017 -0.0882  0.0602
 5071W        W 9122   3.846   5.501   2.935 -0.2106 -0.0393  0.1476
 5072W        W 9123   9.050   6.888  13.372 -0.1316  0.1239 -0.1134
 5073W        W 9124   4.823  10.174   9.146  0.2899 -0.0089  0.1624
 5074W        W 9125   7.392   2.546   2.194 -0.2497  0.5392  0.0702
 5075W        W 9126   9.308   1.212   4.716 -0.2915  0.1197  0.2551
 5076W        W 9127   1.814   1.976  12.650 -0.0290  0.1445 -0.0546
 5077W        W 9128   2.521   9.613  11.103 -0.0134 -0.2032 -0.0865
 5078W        W 9129   5.596   6.485   9.939 -0.1068 -0.1543 -0.1636
 5079W        W 9130   4.561   3.551  10.105 -0.0340  0.0117 -0.0714
 5080W        W 9131   0.385   1.669   0.114  0.1922 -0.0808  0.1448
 5081W        W 9132   8.862   4.345   4.811  0.2031  0.0390 -0.0346
 5082W        W 9133  10.027   6.011   1.013  0.2586  0.0417  0.6743
 5083W        W 9134   3.480   9.268  10.071  0.0816 -0.0722 -0.0484
 5084W        W 9135   4.983   7.522  12.349 -0.0209 -0.0832  0.1308
 5085W        W 9136   2.648   6.364   2.040  0.1343 -0.0667  0.3138
 5086W        W 9137   8.586   3.642   9.520  0.1107  0.0285  0.2203
 5087W        W 9138   2.426   9.874   0.937 -0.0237  0.1829 -0.2881
 5088W        W 9139   1.946   2.291   3.215  0.0605  0.2079 -0.3434
 5089W        W 9140   8.754   6.256   0.052 -0.1467 -0.1799 -0.2000
 5090W        W 9141   4.078   6.622  12.444  0.3092  0.1095 -0.0463
 5091W        W 9142   2.503   2.429   2.068  0.1079 -0.2789  0.0486
 5092W        W 9143   1.732   0.585  10.671  0.1461  0.1385 -0.1996
 5093W        W 9144   8.194   9.457   5.827 -0.1277  0.0431 -0.1640
 5094W        W 9145   6.351   8.484   4.756  0.0716  0.2736  0.1503
 5095W        W 9146   7.256   0.131  10.759  0.0860  0.1519  0.0088
 5096W        W 9147   3.422   4.630  10.243 -0.0373 -0.0473  0.0823
 5097W        W 9148   1.917   5.465   4.951 -0.0381 -0.1494 -0.0807
 5098W        W 9149   0.003   1.841   3.064  0.0754 -0.3326  0.1354
 5099W        W 9150   9.415   5.074   4.440 -0.1832 -0.2223  0.0010
 5100W        W 9151   3.950   6.423   2.996  0.1310  0.1609  0.0211
 5101W        W 9152   7.711   0.370  13.272  0.1285  0.2142  0.0814
 5102W        W 9153   7.181   6.121  10.762  0.3720 -0.0867 -0.1718
 5103W        W 9154  10.174   7.580   2.846  0.0162  0.2114 -0.2345
 5104W        W 9155   1.871   7.150   3.760  0.0041 -0.2275  0.1437
 5105W        W 9156   5.414   3.798  12.924  0.0143  0.2884  0.0328
 5106W        W 9157   7.222   4.656  11.343  0.3334 -0.1852  0.0868
 5107W        W 9158  10.160   5.998  10.482  0.0708 -0.1268  0.2308
 5108W        W 9159   5.528   7.836   9.671 -0.3040 -0.0220 -0.3376
 5109W        W 9160   7.793   5.753   2.192 -0.0199  0.0543  0.2247
 5110W        W 9161   3.085   7.767  13.303  0.3926 -0.0934  0.0097
 5111W        W 9162   6.210   2.122   0.431 -0.0058  0.0988  0.1348
 5112W        W 9163   4.847   0.412  12.915  0.0979 -0.4490  0.1227
 5113W        W 9164   4.451   3.747   3.708  0.0427 -0.2853  0.0086
 5114W        W 9165   1.642   9.910   1.101 -0.1196  0.0399  0.0499
 5115W        W 9166   5.993   9.967   4.914 -0.0113 -0.3187 -0.3546
 5116W        W 9167   9.711   3.395  11.511  0.4125  0.3257  0.1300
 5117W        W 9168   5.339   2.554   4.965 -0.1265  0.0267 -0.7497
 5118W        W 9169   4.720   7.587   0.938  0.3254  0.0881  0.3983
 5119W        W 9170   9.060   3.132   9.966 -0.0772 -0.0396  0.0258
 5120W        W 9171   8.957   3.713   4.799 -0.0113  0.0085 -0.1564
 5121W        W 9172   1.876   0.648  10.061 -0.0977  0.2068 -0.3610
 5122W        W 9173   8.690   9.028   2.586 -0.0585  0.0097 -0.2185
 5123W        W 9174   4.151   8.413   0.770  0.1381  0.0688  0.1359
 5124W        W 9175  10.013   3.646   0.837  0.0241  0.1542  0.1169
 5125W        W 9176   4.797   6.319   3.129 -0.2082  0.0205  0.0894
 5126W        W 9177   5.332  10.037   3.711  0.1373  0.0275 -0.2100
 5127W        W 9178   2.168   0.828   9.645 -0.0511 -0.1434  0.0864
 5128W        W 9179   6.899   9.060   0.077  0.1353 -0.1291  0.0015
 5129W        W 9180   9.679   1.029  11.513 -0.0383  0.0110  0.0925
 5130W        W 9181   9.599   8.948   1.065  0.2158 -0.1734 -0.2209
 5131W        W 9182   9.728   9.273   5.608 -0.0906  0.0308  0.5175
 5132W        W 9183   6.891   4.743   2.019  0.0014  0.1098 -0.0380
 5133W        W 9184   1.773   8.939  11.379 -0.2116 -0.1811 -0.0887
 5134W        W 9185   5.610   1.580  11.215 -0.0151 -0.2451 -0.1034
 5135W        W 9186   1.019   4.958   2.102  0.0737  0.0816 -0.1887
 5136W        W 9187   8.548   4.513   2.711  0.2028  0.0945 -0.0690
 5137W        W 9188   8.806   0.524  10.891 -0.2450  0.0434 -0.2090
 5138W        W 9189   2.880   2.117  11.612 -0.0421  0.2537  0.1896
 5139W        W 9190   6.169   0.548  13.260 -0.1670  0.1425  0.0177
 5140W        W 9191   7.311   8.614   9.919  0.2223  0.0593  0.2835
 5141W        W 9192   5.110   6.438  11.675  0.0102 -0.1302  0.0017
 5142W        W 9193   3.421   4.216   9.042 -0.2003 -0.1233  0.1901
 5143W        W 9194   6.640   1.653  12.791 -0.0155  0.0268 -0.3484
 5144W        W 9195   0.865   7.382   4.583 -0.0370  0.1128 -0.0147
 5145W        W 9196   5.082   7.666   9.154  0.3063  0.0094  0.2761
 5146W        W 9197   5.337   9.827  13.500 -0.0621 -0.2087 -0.3638
 5147W        W 9198   5.364   4.493   0.997 -0.2271  0.2439 -0.2599
 5148W        W 9199   9.398   2.555  13.420 -0.1816  0.1251  0.0379
 5149W        W 9200   8.335   3.072  10.413  0.2462 -0.1195  0.1057
 5150W        W 9201   2.861   1.882   0.085  0.0636 -0.2646  0.1516
 5151W        W 9202   2.913   9.615  10.031  0.1963 -0.2640  0.1475
 5152W        W 9203   3.929   7.573   2.217 -0.1652 -0.1119  0.0459
 5153W        W 9204   1.430   3.539  12.774 -0.0561  0.1388  0.1282
 5154W        W 9205   6.882   1.215  11.913  0.1196 -0.1812 -0.0788
 5155W        W 9206   6.250   7.782   8.972  0.0815  0.0456 -0.0640
 5156W        W 9207   3.007   3.870  11.797  0.1942  0.1306  0.1331
 5157W        W 9208   1.174   9.474  12.175  0.1382 -0.1009  0.1421
 5158W        W 9209   7.205   1.507   1.101  0.0004  0.0621 -0.1551
 5159W        W 9210   9.768   8.729   2.792  0.1516  0.0227  0.0223
 5160W        W 9211   6.025   0.767   1.759 -0.1696 -0.1349  0.0644
 5161W        W 9212   1.449   5.322  11.157 -0.0123  0.3420  0.0848
 5162W        W 9213   7.385   9.152   3.750 -0.4258 -0.0819 -0.1743
 5163W        W 9214   0.299   0.819   2.731  0.0494 -0.0780  0.0414
 5164W        W 9215   9.620   8.670   2.281 -0.1475  0.0443 -0.0342
 5165W        W 9216   0.226  10.040   5.131  0.2857 -0.3213  0.1854
 5166W        W 9217   0.794   2.833   2.446  0.2960 -0.0568 -0.3308
 5167W        W 9218   3.318   1.619   0.404  0.3350  0.2086 -0.1693
 5168W        W 9219   4.319   1.080   3.219 -0.1423 -0.0846  0.1646
 5169W        W 9220   2.090   8.541   3.145  0.0387  0.2527 -0.1564
 5170W        W 9221   9.481   6.981   9.628  0.2952 -0.1872  0.1042
 5171W        W 9222   5.344   7.856  11.564  0.3710  0.0936 -0.2570
 5172W        W 9223  10.166   3.173   2.147 -0.0176  0.0926  0.0961
 5173W        W 9224   2.996   1.616  11.443 -0.0298 -0.0779 -0.0231
 5174W        W 9225   4.044   5.930   1.797  0.0652  0.2412  0.0704
 5175W        W 9226   1.933   6.520  11.666  0.0065  0.0334  0.0110
 5176W        W 9227   9.590   0.480   4.358 -0.1482 -0.1525 -0.0163
 5177W        W 9228   4.366   3.201  12.373 -0.2808  0.0626  0.3104
 5178W        W 9229   1.677   1.392  11.555 -0.2442  0.1064  0.2505
 5179W        W 9230   3.170   4.029   0.737 -0.3016 -0.1735  0.0343
 5180W        W 9231   4.434   3.832  10.531 -0.0863  0.1252 -0.1094
 5181W        W 9232   0.575   4.988  11.768 -0.0122  0.0009  0.0383
 5182W        W 9233   2.802  10.000  12.292 -0.0977 -0.2187  0.2450
 5183W        W 9234   1.252   3.223   5.366  0.1721 -0.1961  0.2924
 5184W        W 9235   2.186   8.526   1.748  0.2780 -0.1030  0.2072
 5185W        W 9236   2.393   1.949   0.771 -0.1225 -0.0070 -0.0186
 5186W        W 9237   3.514   4.961   1.327  0.1023  0.0400  0.3346
 5187W        W 9238   2.559   8.266  12.331 -0.1847 -0.3172 -0.0151
 5188W        W 9239   6.636   5.212  10.981 -0.1361  0.0110  0.2477
 5189W        W 9240   8.333   4.538   2.099 -0.0857 -0.0763  0.1442
 5190W        W 9241   1.818   6.062  11.698 -0.1297  0.3392 -0.1040
 5191W        W 9242   6.245   1.969   5.310 -0.0635 -0.1046  0.2009
 5192W        W 9243   8.293   8.949  12.140 -0.2159 -0.0824 -0.2133
 5193W        W 9244   4.627  10.130  12.667 -0.2871  0.3228  0.0022
 5194W        W 9245   4.414   6.281  10.580  0.1035  0.2555 -0.3009
 5195W        W 9246   5.618   8.930  12.138 -0.1899  0.0202 -0.1800
 5196W        W 9247   7.376   6.283   0.920  0.1116 -0.0305  0.1481
 5197W        W 9248   4.896   5.169   9.884 -0.2017  0.2219 -0.0449
 5198W        W 9249   3.243   7.728  10.025 -0.2126 -0.2336  0.1131
 5199W        W 9250   4.219   3.292  11.111  0.1362  0.0397 -0.1495
 5200W        W 9251   1.915   1.168   0.114  0.2103  0.0217  0.0270
 5201W        W 9252   3.083  10.087  12.897  0.0738 -0.2795 -0.1617
 5202W        W 9253   9.446   8.683  12.567  0.0868 -0.3423  0.0447
 5203W        W 9254   0.378   8.445  10.842  0.0979  0.1300  0.0689
 5204W        W 9255   2.500   0.012   4.833  0.0971 -0.0273  0.2866
 5205W        W 9256   3.280   7.672  12.583  0.1764 -0.0270  0.1704
 5206W        W 9257   2.501   6.792   2.683  0.0014 -0.0429  0.0994
 5207W        W 9258   2.187   1.582   0.411  0.1737  0.0804  0.0937
 5208W        W 9259  10.030   9.780  13.718  0.4447  0.0829 -0.0168
 5209W        W 9260  10.118   9.981   3.604  0.0370  0.2423 -0.0111
 5210W        W 9261   0.813   2.858  13.236 -0.0526 -0.0824 -0.1051
 5211W        W 9262   9.099   8.260   4.426 -0.1104 -0.2472 -0.2484
 5212W        W 9263   0.090   5.311  11.289  0.1574  0.0845 -0.0962
 5213W        W 9264   3.362   1.897   2.377 -0.1425  0.1140 -0.5633
 5214W        W 9265   0.968   4.659   9.346  0.1673  0.0686 -0.1874
 5215W        W 9266   8.221   5.777   4.229 -0.0177 -0.0313 -0.2095
 5216W        W 9267   9.616   3.108   9.949  0.0297  0.2521  0.0147
 5217W        W 9268  10.159   9.185   3.523  0.1960  0.1712 -0.2193
 5218W        W 9269   3.091   2.240   3.359 -0.0183  0.1781 -0.0719
 5219W        W 9270   3.066   1.198  12.873 -0.0335 -0.1078 -0.0453
 5220W        W 9271   6.430   3.722   2.201  0.0694  0.0069 -0.0033
 5221W        W 9272   9.516   9.648  13.597  0.2860 -0.3317  0.2021
 5222W        W 9273   5.394   8.299  10.611  0.2729  0.0969 -0.1240
 5223W        W 9274   4.859   8.198  10.682  0.2122  0.0778 -0.2115
 5224W        W 9275   4.282   5.080  12.068  0.1148  0.1999 -0.2352
 5225W        W 9276   9.141   3.650  11.284  0.1113  0.2945  0.1025
 5226W        W 9277   9.386   2.213   1.630 -0.1297 -0.0219 -0.1829
 5227W        W 9278   5.063   3.174   0.805 -0.0707  0.0794  0.1651
 5228W        W 9279   5.132   9.969  12.642 -0.1704 -0.1939 -0.1021
 5229W        W 9280   5.378   0.096  10.447  0.2642  0.1304 -0.0813
 5230W        W 9281   3.190   3.125   1.878 -0.3566 -0.0737 -0.0618
 5231W        W 9282   0.575   7.569   1.849 -0.4845  0.0571 -0.3376
 5232W        W 9283   9.864   7.898   1.308  0.4002 -0.0896  0.1129
 5233W        W 9284   0.620   7.427   0.292  0.2697 -0.0214  0.1329
 5234W        W 9285   6.072   3.794   0.574  0.6119  0.1218 -0.2319
 5235W        W 9286   6.363   1.507  13.188  0.4418  0.0360  0.3743
 5236W        W 9287   3.434   9.101   2.594  0.4159 -0.0554  0.0432
 5237W        W 9288   3.545   7.904  13.387  0.0924 -0.0180  0.3394
 5238W        W 9289   7.465   0.982   2.951  0.0596 -0.1547 -0.1184
 5239W        W 9290   5.235   3.281   1.535  0.0389  0.2346  0.2923
 5240W        W 9291   1.483   2.344  13.796 -0.1214 -0.0057 -0.0277
 5241W        W 9292   7.140   2.539  10.770 -0.0677  0.1694  0.1387
 5242W        W 9293   8.482   0.224  11.701 -0.0614  0.4176  0.3569
 5243W        W 9294   6.118   1.611  11.916 -0.0486 -0.0641 -0.0000
 5244W        W 9295   0.687   3.250   1.446  0.1406  0.2419  0.0506
 5245W        W 9296   5.293   6.430   4.634 -0.1527  0.3669  0.1045
 5246W        W 9297   9.271   0.206  11.195  0.0625 -0.0637 -0.1248
 5247W        W 9298   4.972   4.975   3.706 -0.0716 -0.0023  0.3301
 5248W        W 9299   4.107   0.079  12.410  0.1565 -0.0310 -0.1268
 5249W        W 9300   7.517   9.817   9.388  0.0445 -0.1369  0.0516
 5250W        W 9301   5.166   9.662  11.740 -0.0868  0.0181 -0.0615
 5251W        W 9302   9.677   7.645   3.061  0.0643 -0.0516 -0.2525
 5252W        W 9303   5.267   6.406  10.408 -0.0176  0.0570 -0.1645
 5253W        W 9304   5.313   8.330  12.678  0.1465  0.0396 -0.1356
 5254W        W 9305   2.017   8.650  11.839 -0.0724 -0.2035  0.0357
 5255W        W 9306   2.968   4.739   1.569 -0.1166 -0.2518 -0.1269
 5256W        W 9307   8.094   5.193   3.375  0.1084 -0.0390  0.1543
 5257W        W 9308   1.317   7.441   2.673  0.0952 -0.1886  0.1720
 5258W        W 9309   9.120   8.133  12.253 -0.0031  0.1966 -0.0525
 5259W        W 9310   8.891   9.042   3.988 -0.2099  0.1728  0.0436
 5260W        W 9311   4.944   4.325  13.157  0.1983 -0.2656 -0.2600
 5261W        W 9312   1.403   8.010  13.376  0.0075  0.1057  0.1008
 5262W        W 9313   7.247   1.357   1.962  0.1012  0.1181 -0.0561
 5263W        W 9314   1.232   0.436   4.111 -0.2135  0.0270  0.1696
 5264W        W 9315   4.468   5.142   9.517 -0.3017  0.1218 -0.2283
 5265W        W 9316   8.885   5.702   0.040 -0.2642  0.1131 -0.0458
 5266W        W 9317   8.144   3.695   1.082 -0.1514 -0.0252  0.1410
 5267W        W 9318   3.112   9.175   9.638 -0.3465 -0.2551  0.0148
 5268W        W 9319   9.002   0.290   1.160  0.0664 -0.0273 -0.2854
 5269W        W 9320   3.980   7.235  13.210  0.4100  0.4269  0.1393
 5270W        W 9321   9.099   6.389  13.219  0.3113 -0.0844 -0.0516
 5271W        W 9322   4.843   2.956  10.661  0.5028 -0.0743 -0.2921
 5272W        W 9323   6.387   6.067   3.116 -0.0567 -0.0462 -0.1614
 5273W        W 9324   9.556   0.461  11.786 -0.0947  0.3256 -0.1446
 5274W        W 9325   9.679   5.069  11.746  0.0657  0.1230  0.2077
 5275W        W 9326   9.819   7.235   3.393  0.1851 -0.1456  0.0643
 5276W        W 9327   9.549   2.660  10.081  0.0908 -0.1114 -0.1732
 5277W        W 9328   9.922   4.954  11.302  0.0448 -0.2075 -0.0111
 5278W        W 9329   7.673   6.740  13.668 -0.0731 -0.0576 -0.0303
 5279W        W 9330   8.790   8.166  13.329 -0.3251 -0.0113  0.1023
 5280W        W 9331   5.373   9.447   3.821  0.3543  0.2347 -0.0472
 5281W        W 9332   4.293   8.074  13.955  0.2116 -0.1215 -0.0884
 5282W        W 9333   1.737   2.097   1.482 -0.1120 -0.2176 -0.3869
 5283W        W 9334   5.181   8.953   1.958 -0.1113  0.0531  0.0520
 5284W        W 9335   5.222   2.023   3.012  0.0944 -0.1476  0.1400
 5285W        W 9336   4.468   1.229   1.515 -0.2582  0.3681 -0.3025
 5286W        W 9337   9.626   3.912  12.268 -0.3203  0.1139  0.0922
 5287W        W 9338   3.003   9.908   2.487 -0.3749 -0.1144 -0.2763
 5288W        W 9339   1.488   8.771  11.733 -0.0097  0.5731 -0.2189
 5289W        W 9340   1.643   6.060  10.537  0.1480  0.5285 -0.0749
 5290W        W 9341   4.654   9.164   0.818  0.1232  0.1277 -0.0684
 5291W        W 9342   7.272   6.915   4.274  0.0644 -0.2410  0.0831
 5292W        W 9343   5.827   4.063  12.715  0.1041  0.1292 -0.1742
 5293W        W 9344   2.202   0.846  10.465  0.1643  0.0705 -0.1659
 5294W        W 9345   9.971   4.777  12.997 -0.1378  0.0512 -0.4949
 5295W        W 9346   7.352   5.622   1.904  0.1051  0.2017 -0.1687
 5296W        W 9347   6.635   9.591   4.048  0.0627  0.1508  0.1464
 5297W        W 9348   0.552   3.141   4.267 -0.4232 -0.2486 -0.0922
 5298W        W 9349   3.236   5.560   2.094  0.1069 -0.2139 -0.1483
 5299W        W 9350   7.723   1.721  11.549 -0.0100 -0.0312 -0.1189
 5300W        W 9351   1.548   6.122  12.504  0.1161  0.0947 -0.1047
 5301W        W 9352   6.653   7.739   9.322 -0.0909  0.1738 -0.0448
 5302W        W 9353   1.333   1.778   0.664  0.0006 -0.0099 -0.0937
 5303W        W 9354   9.556   0.308   8.829 -0.0913  0.1856  0.1899
 5304W        W 9355   5.226   7.136   3.012 -0.0499 -0.0269 -0.1976
 5305W        W 9356   1.638   3.195  11.441 -0.1019  0.1217  0.0237
 5306W        W 9357   2.449   0.643  13.470 -0.2783  0.0809  0.0967
 5307W        W 9358   5.070   0.611  12.297  0.1648 -0.0255  0.2844
 5308W        W 9359   0.625   0.702   0.712  0.3052  0.2555 -0.1466
 5309W        W 9360   7.658   4.242   3.616 -0.1068  0.1707  0.0495
 5310W        W 9361   5.210   1.043   5.077 -0.1125 -0.1654  0.1373
 5311W        W 9362   1.728  10.042  13.142  0.0614  0.0741 -0.2429
 5312W        W 9363   6.199   5.446   9.655  0.2732 -0.3007 -0.1308
 5313W        W 9364   7.622   0.315   3.596  0.3148  0.0727  0.0680
 5314W        W 9365   7.355  10.078  11.332  0.1685  0.0981 -0.3121
 5315W        W 9366   4.380   6.921   2.673 -0.4218 -0.1238  0.3081
 5316W        W 9367   3.519   2.010   0.642 -0.1971 -0.0444 -0.1990
 5317W        W 9368   2.180   9.067  11.643  0.4979  0.1213 -0.0340
 5318W        W 9369   6.092   3.469   0.019  0.2102 -0.1156 -0.1051
 5319W        W 9370   6.906   2.295  11.598 -0.1653  0.2176  0.2787
 5320W        W 9371   6.551  10.023   4.240  0.2333 -0.2356  0.0026
 5321W        W 9372   4.941   3.777   1.673 -0.0282  0.5325  0.0272
 5322W        W 9373   5.984   1.369  11.513 -0.1733 -0.1192 -0.2141
 5323W        W 9374   6.889  10.162  12.217 -0.0932 -0.0506  0.1568
 5324W        W 9375   9.435   0.778   0.156 -0.0979 -0.1553 -0.0914
 5325W        W 9376   2.439   2.439  12.363 -0.1094  0.0940  0.2598
 5326W        W 9377   2.361  10.035   4.347 -0.2986  0.2091  0.0679
 5327W        W 9378   0.176   9.972   4.119 -0.0981  0.0418 -0.0769
 5328W        W 9379   8.129   4.337   3.009 -0.0571  0.0430  0.2030
 5329W        W 9380   1.324   4.727  13.400 -0.0548 -0.0512 -0.1347
 5330W        W 9381   0.065   8.693   4.034  0.2110 -0.2259 -0.1918
 5331W        W 9382   0.237   9.764  10.923 -0.1041  0.2350  0.0820
 5332W        W 9383   4.820   5.941  11.781 -0.0144 -0.3041  0.0319
 5333W        W 9384   0.257   5.560   2.194  0.2498 -0.2075  0.1654
 5334W        W 9385   3.879   6.425   4.047 -0.3097 -0.1191 -0.0364
 5335W        W 9386   5.905   7.828   3.758  0.2075 -0.0370  0.1034
 5336W        W 9387   0.532   7.647   9.358 -0.0406 -0.2481 -0.1461
 5337W        W 9388   7.017   7.505  11.975 -0.0015 -0.0177  0.0751
 5338W        W 9389   1.458   9.003  13.061 -0.3984 -0.3030 -0.0297
 5339W        W 9390   9.608   0.343  13.303  0.4434 -0.0640  0.2219
 5340W        W 9391   8.753   4.894  12.590 -0.1524  0.1170 -0.1047
 5341W        W 9392   4.969   8.628   9.041  0.0133 -0.3776  0.0424
 5342W        W 9393   6.493   2.931  10.433 -0.1397 -0.0613 -0.1479
 5343W        W 9394   3.986   4.940   1.317 -0.1216 -0.5719  0.0641
 5344W        W 9395   8.312   8.703   5.230  0.2836  0.0758  0.1179
 5345W        W 9396   2.607   1.303   0.820 -0.1544  0.0037 -0.0196
 5346W        W 9397   5.235   8.694   0.683  0.0589  0.1015 -0.0018
 5347W        W 9398   5.280  10.075  13.952  0.1043  0.0852  0.0924
 5348W        W 9399   6.073   3.050   0.876 -0.0181 -0.3040  0.0445
 5349W        W 9400   0.671   2.450  13.531  0.0996 -0.0077  0.3811
 5350W        W 9401   3.312   8.313  13.665 -0.0418  0.1967 -0.2390
 5351W        W 9402   4.162   6.348  12.899  0.1255 -0.2025  0.0005
 5352W        W 9403   9.630   1.642  13.964 -0.3730 -0.0708 -0.2057
 5353W        W 9404   5.309   1.042   9.316 -0.4015  0.2259 -0.1938
 5354W        W 9405   9.720   9.549   4.942  0.2659 -0.1046 -0.0970
 5355W        W 9406  10.106   9.294   9.289  0.2072 -0.1159  0.1119
 5356W        W 9407   1.156   6.111   3.880 -0.1522 -0.0536 -0.1641
 5357W        W 9408   8.947   1.670   3.756  0.0572  0.0101 -0.1739
 5358W        W 9409   2.211   8.806  10.575 -0.2516  0.1403  0.0073
 5359W        W 9410   4.638   3.024  13.653  0.1856  0.3830 -0.0189
 5360W        W 9411   4.223   0.225   0.711  0.1824  0.0347 -0.4696
 5361W        W 9412  10.034   1.994  11.352 -0.0501 -0.4578 -0.2120
 5362W        W 9413   6.742   6.629   4.256 -0.2115  0.0008  0.1357
 5363W        W 9414   3.466   2.291  10.231  0.3564 -0.3598 -0.3022
 5364W        W 9415   7.439   8.937   2.116  0.0114 -0.1764  0.2379
 5365W        W 9416   3.545   2.161   3.596 -0.0097  0.0760 -0.0024
 5366W        W 9417   5.067   5.670   2.884  0.1036  0.1045 -0.2366
 5367W        W 9418   0.110   1.261   5.456 -0.0156  0.1637  0.1250
 5368W        W 9419   1.288   9.283   4.152 -0.1509 -0.0382  0.1519
 5369W        W 9420   7.418   5.501   2.428 -0.0710  0.0680 -0.1013
 5370W        W 9421   2.583   7.280  11.930 -0.1254  0.1610  0.2875
 5371W        W 9422   6.691  10.175   3.779 -0.0024 -0.0133  0.1186
 5372W        W 9423   8.706   7.391   8.414 -0.2794 -0.2302  0.2674
 5373W        W 9424   9.526   1.004  10.297  0.2874  0.0741  0.0664
 5374W        W 9425   6.447   1.102  11.531  0.1132  0.0752 -0.1000
 5375W        W 9426   3.821   5.893  11.640  0.0760 -0.1286  0.1949
 5376W        W 9427   9.736   5.264  13.880 -0.1239  0.0379  0.0887
 5377W        W 9428   3.981   5.127  10.913 -0.1250 -0.0337 -0.0414
 5378W        W 9429   1.446   2.555  12.600 -0.0266 -0.1528  0.2011
 5379W        W 9430   8.651   1.002  10.950 -0.1757  0.3117 -0.0677
 5380W        W 9431   5.300   6.966   1.637 -0.0792  0.1016 -0.0066
 5381W        W 9432   9.264   6.234   2.468  0.1754 -0.1042  0.1680
 5382W        W 9433   5.035   8.110   2.273 -0.0846 -0.0030 -0.2620
 5383W        W 9434   0.792   6.039  12.012  0.0225 -0.0659  0.1756
 5384W        W 9435   5.391   9.199  12.842  0.1447 -0.3310  0.1006
 5385W        W 9436   6.762   3.166   2.844  0.0911  0.0126  0.2838
 5386W        W 9437   0.285   4.557  12.975 -0.0362 -0.4475  0.1136
 5387W        W 9438   6.051   2.605  13.375 -0.2539 -0.1657  0.0400
 5388W        W 9439   1.694   9.242   3.538  0.2419  0.0646 -0.3459
 5389W        W 9440   4.099   6.315   0.069 -0.3219 -0.1102 -0.0351
 5390W        W 9441   8.170   7.152   9.694 -0.0160 -0.0422  0.1711
 5391W        W 9442   6.334   8.338   1.333  0.0941  0.0596  0.0760
 5392W        W 9443   7.940   7.478   9.331  0.0119 -0.3030 -0.0881
 5393W        W 9444   8.056   7.964   9.028 -0.4757  0.1721 -0.2817
 5394W        W 9445   8.429   9.919   3.150  0.0542  0.1080 -0.0313
 5395W        W 9446   6.141   9.887  13.899 -0.1019 -0.1464  0.1806
 5396W        W 9447   7.140   5.897   8.480  0.5338 -0.1321  0.1460
 5397W        W 9448   8.004   9.694   4.367 -0.2009 -0.0565  0.0790
 5398W        W 9449   9.320   7.440  12.343  0.1743  0.0073  0.0063
 5399W        W 9450   7.687   8.626   0.091  0.0819 -0.2995 -0.1030
 5400W        W 9451   2.256   3.330   2.037 -0.3010 -0.2372  0.1530
 5401W        W 9452   4.124   7.387   0.582  0.1993 -0.0432  0.0509
 5402W        W 9453   4.866   5.258   5.093 -0.0556 -0.1506 -0.0975
 5403W        W 9454   4.999   9.384   4.348  0.2405  0.2873  0.3546
 5404W        W 9455   1.348   1.082   4.574 -0.2172 -0.2182  0.1335
 5405W        W 9456   9.809   8.727   4.922  0.1228  0.1465  0.1252
 5406W        W 9457   8.276   0.191   4.700  0.2746  0.1052 -0.1970
 5407W        W 9458   0.758  10.050   2.229  0.2213  0.2661  0.0794
 5408W        W 9459   9.055   9.228   8.804 -0.2574  0.1328 -0.0595
 5409W        W 9460   9.212   3.737  12.749 -0.3551 -0.1062 -0.1340
 5410W        W 9461   6.473   3.783   4.173 -0.0818  0.1800 -0.0773
 5411W        W 9462   7.841   7.173  12.250  0.0157 -0.0707  0.0789
 5412W        W 9463   8.285   1.371  12.608 -0.0555  0.1761  0.0685
 5413W        W 9464   0.268   7.467  10.424  0.2856 -0.0901  0.2181
 5414W        W 9465   7.017   4.764   1.549  0.2248 -0.2791 -0.4191
 5415W        W 9466   9.351   4.515  11.071 -0.1235 -0.0178  0.0643
 5416W        W 9467   1.372   7.883  11.732  0.0357 -0.0174 -0.0188
 5417W        W 9468   4.255   5.314   2.575 -0.1722 -0.2075 -0.1119
 5418W        W 9469   4.151   9.255  13.436 -0.1719 -0.3160  0.1918
 5419W        W 9470   6.255   6.221  10.496 -0.0328 -0.1839 -0.2934
 5420W        W 9471   3.897   3.363   4.452 -0.5370 -0.1429  0.0008
 5421W        W 9472   2.826   5.184   4.343  0.0424  0.0727  0.1365
 5422W        W 9473   4.340   4.292   4.012 -0.0636  0.2253 -0.2552
 5423W        W 9474   6.810   8.353  11.727  0.0619 -0.2629  0.1721
 5424W        W 9475   4.769   8.281  13.661 -0.0742 -0.2531  0.2199
 5425W        W 9476   2.514   0.265   4.021 -0.0941  0.1053  0.2353
 5426W        W 9477   3.472   8.758  12.327  0.1254 -0.1026  0.2368
 5427W        W 9478   5.862   5.377   2.470  0.1415  0.0166 -0.0458
 5428W        W 9479   6.856   6.013   4.021  0.0055 -0.2228 -0.1852
 5429W        W 9480   9.830  10.176  11.017  0.2265 -0.2859 -0.1133
 5430W        W 9481   0.574   7.764  12.914 -0.1040 -0.1810  0.2976
 5431W        W 9482   4.601   0.657  11.008  0.1640 -0.0171  0.0066
 5432W        W 9483   6.495   4.664   1.346  0.0476 -0.0141 -0.1293
 5433W        W 9484   6.207   6.855   5.239 -0.0621 -0.0307  0.0070
 5434W        W 9485   3.619   4.973  10.491 -0.0737 -0.0732  0.1515
 5435W        W 9486   0.137   0.823  10.673  0.5125  0.0883  0.0059
 5436W        W 9487   9.958   2.494   4.107  0.0654  0.2570  0.0462
 5437W        W 9488   3.429   8.230   0.173  0.5298 -0.2444  0.3186
 5438W        W 9489   9.926   8.761  11.408 -0.0845  0.0040 -0.4320
 5439W        W 9490   0.812   0.699   5.480  0.1148 -0.1945  0.1898
 5440W        W 9491   9.760   7.040   0.925 -0.2683 -0.1035  0.1233
 5441W        W 9492   0.229   6.466  10.464  0.0001  0.1310  0.0889
 5442W        W 9493   5.933   2.729   0.430 -0.1304 -0.0394 -0.0830
 5443W        W 9494   8.334   8.471  10.043  0.2896 -0.0354  0.0246
 5444W        W 9495   9.923   2.315   1.116 -0.1937  0.0457  0.0631
 5445W        W 9496   3.189   7.155   1.835  0.0768 -0.1621  0.1119
 5446W        W 9497   8.525   6.521  10.200  0.1802  0.1218  0.0657
 5447W        W 9498   2.546   2.919  13.860  0.2219 -0.0331  0.4956
 5448W        W 9499   1.964   4.790   1.317 -0.3160 -0.1163  0.1037
 5449W        W 9500   8.937   2.907   4.477 -0.2342 -0.0860  0.1250
 5450W        W 9501   4.345   3.205  13.223  0.0458  0.1463 -0.0020
 5451W        W 9502   7.446   5.084   9.024 -0.1809 -0.3245  0.4063
 5452W        W 9503   7.571   3.626   2.879  0.0405 -0.0439 -0.1013
 5453W        W 9504   2.555   9.284   3.410  0.0570 -0.0582  0.0827
 5454W        W 9505   7.631   2.150   0.465 -0.0296  0.0392 -0.1917
 5455W        W 9506   1.005   6.928   4.288  0.1438 -0.1618  0.0437
 5456W        W 9507   7.820   3.781   2.472  0.0224  0.1564 -0.1012
 5457W        W 9508   6.114   6.963   0.376  0.3022  0.0357 -0.0704
 5458W        W 9509   1.723   1.417   0.620 -0.2048 -0.0473 -0.0589
 5459W        W 9510   0.538   9.418  10.217  0.2164  0.0823  0.1020
 5460W        W 9511   0.429   3.667  12.780  0.0834  0.2240  0.1076
 5461W        W 9512   5.165   2.194   9.395 -0.2724 -0.1485  0.0960
 5462W        W 9513   9.049   8.809  13.948 -0.1834 -0.0621  0.2689
 5463W        W 9514   1.159   6.766  12.281 -0.2735 -0.0861 -0.1737
 5464W        W 9515   2.210   3.787  11.841 -0.1216 -0.0054  0.4056
 5465W        W 9516   2.594  10.024   9.900  0.1668  0.1860  0.0901
 5466W        W 9517   7.040   3.548   4.124 -0.0268  0.4318  0.2280
 5467W        W 9518   2.829   7.839  12.334 -0.2675 -0.2220 -0.2628
 5468W        W 9519   4.317   7.880   0.861  0.1793  0.1646 -0.2833
 5469W        W 9520   2.188   8.970   2.048 -0.1617 -0.4670  0.2720
 5470W        W 9521   2.816   2.546  11.024 -0.0255  0.0897 -0.0503
 5471W        W 9522   1.951   5.678  12.643  0.0798  0.3700  0.0047
 5472W        W 9523   6.190   9.601  12.636  0.0362 -0.0395  0.0917
 5473W        W 9524   7.628   5.721   9.481  0.2882 -0.4770 -0.1822
 5474W        W 9525   8.939   9.689   9.397 -0.2135 -0.3408  0.1910
 5475W        W 9526   6.201   2.002   9.520  0.1179 -0.2965  0.0486
 5476W        W 9527   6.047   9.358  13.033  0.1376 -0.2147 -0.1703
 5477W        W 9528   8.286  10.096  12.081 -0.1886 -0.0858  0.2432
 5478W        W 9529   0.214   3.768   8.965 -0.2103  0.1504  0.0671
 5479W        W 9530   9.404   2.948  12.700  0.1257 -0.0728  0.1133
 5480W        W 9531   0.681   2.062  12.105 -0.2041  0.1532  0.0231
 5481W        W 9532   6.815   8.779  10.138  0.1456 -0.3056  0.0697
 5482W        W 9533   8.900   3.344   0.085  0.1002  0.1559 -0.0548
 5483W        W 9534   7.074   8.658  12.065 -0.0277 -0.0043  0.2980
 5484W        W 9535   8.518   7.608   1.184 -0.0085  0.1109  0.0966
 5485W        W 9536   5.460   9.981  13.060 -0.4050 -0.0333  0.0021
 5486W        W 9537   6.649  10.076   0.094  0.0943  0.0119  0.2423
 5487W        W 9538   7.992   2.728   2.947  0.1962 -0.1391 -0.2483
 5488W        W 9539   5.004   2.658   0.512  0.0067  0.1505  0.0067
 5489W        W 9540   9.834   6.060   2.684 -0.3449 -0.0277 -0.2173
 5490W        W 9541   7.463   8.827  13.030  0.0556  0.0779  0.1472
 5491W        W 9542   7.096   3.204   0.259  0.2532 -0.0193 -0.3564
 5492W        W 9543   4.653   0.544   1.648 -0.2801  0.2921  0.0260
 5493W        W 9544   6.043  10.043   3.355  0.0002 -0.0306  0.2062
 5494W        W 9545   9.461   2.375   4.088  0.1817  0.0837  0.0512
 5495W        W 9546   6.144   4.761  13.353  0.0144 -0.0429 -0.0926
 5496W        W 9547   7.724   6.870   1.340 -0.1603  0.0289 -0.0935
 5497W        W 9548   5.880   4.697  13.899  0.1658  0.1217  0.1445
 5498W        W 9549   8.341  10.143   0.326  0.1470  0.0156  0.0088
 5499W        W 9550   0.905   1.231  13.155  0.2112  0.3269 -0.0637
 5500W        W 9551   8.259   2.956   3.988  0.0166  0.1536  0.2551
 5501W        W 9552  10.152   6.881   0.611 -0.1045 -0.1231  0.1137
 5502W        W 9553   0.732   4.326   3.577 -0.0255  0.1990 -0.0889
 5503W        W 9554   9.177   3.099  11.362 -0.0532  0.2214  0.0985
 5504W        W 9555   0.716   0.545  10.516 -0.1850 -0.3251 -0.1734
 5505W        W 9556   5.593   9.015   9.494 -0.1874 -0.0305  0.1791
 5506W        W 9557   0.802   2.001   0.327 -0.1051 -0.0289  0.1253
 5507W        W 9558   6.038   4.271  10.722  0.2112 -0.0454  0.0743
 5508W        W 9559   9.760   4.072   4.685 -0.0382  0.0171 -0.0176
 5509W        W 9560   6.122   8.966  12.027 -0.0762  0.0885  0.0169
 5510W        W 9561   9.202   6.869   2.346 -0.0461  0.0193  0.2357
 5511W        W 9562   4.790   0.819   0.295  0.0879 -0.4016  0.1243
 5512W        W 9563   8.718   2.828   0.108  0.0865  0.3238  0.2292
 5513W        W 9564   9.671   2.036  10.861  0.1054 -0.2253 -0.0256
 5514W        W 9565   3.024   5.340   1.609 -0.0758  0.0677 -0.4095
 5515W        W 9566   5.663   0.535   1.404  0.2313  0.1019  0.0697
 5516W        W 9567   9.274   8.477  10.591  0.2454 -0.1199  0.2348
 5517W        W 9568   7.264   3.354  11.697  0.0283  0.1011  0.2891
 5518W        W 9569   8.818   9.272  12.132  0.1660  0.0024 -0.0611
 5519W        W 9570   2.435   9.057   1.562  0.1219 -0.3343  0.1425
 5520W        W 9571   6.876   0.115   4.641 -0.3182 -0.0608 -0.1268
 5521W        W 9572   6.937   8.578   2.504 -0.3061 -0.1131 -0.2537
 5522W        W 9573   8.099   1.634  11.914 -0.0798  0.1639  0.0192
 5523W        W 9574   0.753   2.081   9.272 -0.1267  0.0935  0.2543
 5524W        W 9575   8.019   7.793  10.396  0.0351  0.1367  0.3086
 5525W        W 9576   9.176   2.048  12.149 -0.1116 -0.0361  0.0631
 5526W        W 9577   4.013   6.897   1.651  0.2030  0.1375  0.1734
 5527W        W 9578   0.708   9.564  13.960  0.0616 -0.0487  0.0211
 5528W        W 9579   0.512   8.200  13.186  0.1496 -0.2427  0.2174
 5529W        W 9580   5.031   3.802  13.290  0.1245 -0.3388 -0.0461
 5530W        W 9581   5.634   2.767  13.053  0.0583 -0.2863  0.2456
 5531W        W 9582   0.473   4.958  11.252 -0.1079 -0.0403 -0.4585
 5532W        W 9583   2.779   4.524  10.118 -0.4077  0.2629  0.0734
 5533W        W 9584   8.063   3.578   2.972 -0.1173  0.0059 -0.3355
 5534W        W 9585   0.204   8.620  13.047 -0.0425  0.1312 -0.1407
 5535W        W 9586   5.721   2.586   9.353 -0.1937  0.1889 -0.1350
 5536W        W 9587   4.466   7.707   4.084  0.1283 -0.3011  0.0677
 5537W        W 9588   9.306   9.099   2.123 -0.0033  0.1125  0.4571
 5538W        W 9589   2.359   4.353   2.209  0.1210  0.0900 -0.0139
 5539W        W 9590   3.196   7.337   1.332  0.3350 -0.3267 -0.0719
 5540W        W 9591  10.029   7.462   1.021 -0.0580 -0.3108 -0.3904
 5541W        W 9592   5.890   6.833   1.306  0.1391  0.0548 -0.0713
 5542W        W 9593   6.901   3.888   4.552 -0.2866  0.0643  0.0496
 5543W        W 9594   2.592   4.156  11.826 -0.0735  0.2101 -0.0197
 5544W        W 9595   9.366   1.590   1.398  0.2407 -0.2106 -0.0373
 5545W        W 9596   9.968   5.530  10.922 -0.5084  0.1874 -0.0659
 5546W        W 9597   4.548  10.035   9.904 -0.0130  0.0020  0.0974
 5547W        W 9598   5.294   5.510   3.728 -0.1797 -0.2500  0.1235
 5548W        W 9599   2.233   7.928  10.443  0.3430 -0.1237  0.0872
 5549W        W 9600   4.243   9.354   2.935  0.3074  0.2545 -0.3897
 5550W        W 9601   8.283   3.930   2.645  0.0092 -0.1036  0.2820
 5551W        W 9602   2.039   2.682   1.879 -0.0095 -0.0157 -0.2889
 5552W        W 9603   7.213   3.532  12.608  0.1349  0.1288 -0.1327
 5553W        W 9604   7.146  10.059   0.111  0.2505 -0.1330 -0.0462
 5554W        W 9605   2.695   8.208  11.842  0.0167  0.0541 -0.0215
 5555W        W 9606   9.953  10.056   9.736 -0.1536 -0.0755 -0.3884
 5556W        W 9607   8.139   4.234  11.035 -0.0386  0.1475 -0.1867
 5557W        W 9608   9.727   9.909   3.113 -0.1200  0.0563 -0.0691
 5558W        W 9609   8.903   8.115  10.540  0.2425 -0.1286 -0.5892
 5559W        W 9610   9.270   1.493   4.314 -0.0717  0.2533  0.0172
 5560W        W 9611   6.853   0.597   2.079  0.2293 -0.0463 -0.3188
 5561W        W 9612   6.962   7.230   3.559  0.0362 -0.1275  0.0519
 5562W        W 9613   9.955   5.040   4.465  0.0841  0.1283  0.4946
 5563W        W 9614   8.593   2.558   4.105 -0.1652 -0.0404  0.1340
 5564W        W 9615   7.966   8.216  10.202  0.1232  0.2140 -0.0929
 5565W        W 9616  10.108   0.663  11.565 -0.1656 -0.0924 -0.3687
 5566W        W 9617   5.307   3.188   2.867  0.0909 -0.0341 -0.0886
 5567W        W 9618   3.366   2.471  11.741 -0.4435 -0.0531  0.2654
 5568W        W 9619   0.238   3.456  11.631 -0.1534  0.2015  0.0455
 5569W        W 9620   3.672   0.218   4.543  0.1924 -0.0745 -0.1693
 5570W        W 9621   1.260   3.062  12.841  0.0170 -0.1406 -0.4747
 5571W        W 9622  10.098  10.094  10.583  0.0733 -0.1008  0.0617
 5572W        W 9623   6.045   1.784   1.598  0.0920  0.2499 -0.1526
 5573W        W 9624   5.562   3.488  13.774  0.3614 -0.1991  0.1150
 5574W        W 9625   1.879   3.270  10.362 -0.0293 -0.3081  0.2398
 5575W        W 9626   2.284   6.767  11.926 -0.0505  0.4638 -0.1935
 5576W        W 9627   4.836   2.713  10.040  0.1149  0.0746  0.1980
 5577W        W 9628   7.470   2.041  10.903  0.0880  0.0002  0.1411
 5578W        W 9629   1.281   2.310  10.965 -0.2490  0.3249 -0.0821
 5579W        W 9630   0.117   7.341   0.611  0.2407  0.0203 -0.0902
 5580W        W 9631   6.346   7.764   4.015  0.2304  0.2546 -0.0109
 5581W        W 9632   5.434   7.235   2.008 -0.1203  0.3370 -0.0475
 5582W        W 9633   7.809   8.177  10.778 -0.1180 -0.1699 -0.2307
 5583W        W 9634   9.684   3.733  12.928  0.1688 -0.0498 -0.1746
 5584W        W 9635   6.979   8.659   9.534 -0.1553 -0.1356 -0.0270
 5585W        W 9636   5.340   3.976   3.115 -0.1331  0.0776 -0.0127
 5586W        W 9637   7.599   1.638   0.579 -0.1028 -0.0597 -0.0156
 5587W        W 9638   7.009   7.262  13.449 -0.1702 -0.0309  0.0487
 5588W        W 9639   9.267   3.151   4.232 -0.0553 -0.0069  0.2295
 5589W        W 9640   0.596   6.147  12.546  0.1516 -0.0157 -0.1384
 5590W        W 9641   9.553   0.180   3.607  0.1196 -0.0875 -0.0297
 5591W        W 9642   1.784   8.973   4.396 -0.0866 -0.1151 -0.1464
 5592W        W 9643   7.140   2.408   5.009  0.1067 -0.2615  0.0633
 5593W        W 9644   2.650   2.559   4.635 -0.2288  0.1395 -0.4124
 5594W        W 9645   9.284   1.836   2.060  0.0268  0.1090  0.1869
 5595W        W 9646   5.296   2.527   2.862  0.0653 -0.0795 -0.2045
 5596W        W 9647   3.563   4.391  11.133  0.0372 -0.0029  0.0117
 5597W        W 9648   1.652   5.544  12.149 -0.2729  0.0166 -0.0253
 5598W        W 9649   6.345   8.243  13.196  0.0287  0.1103 -0.4241
 5599W        W 9650   8.783   7.336  10.327  0.4749 -0.1058 -0.2445
 5600W        W 9651   7.772   1.295   2.644 -0.0867  0.0505  0.1011
 5601W        W 9652   1.862   1.515   1.485  0.0537 -0.1979  0.2916
 5602W        W 9653   7.025   2.908   0.684  0.2173 -0.4018 -0.2213
 5603W        W 9654   6.593   9.343   3.046 -0.2845  0.1972 -0.1932
 5604W        W 9655   7.840   7.502  11.870  0.1035 -0.1407 -0.2281
 5605W        W 9656   2.609   1.046  12.482 -0.4756 -0.1754  0.2396
 5606W        W 9657   4.926   7.621  11.894 -0.0875 -0.2353 -0.1091
 5607W        W 9658   0.856   9.609   2.086  0.0465  0.2281 -0.1661
 5608W        W 9659   5.989   9.127   2.257  0.0983  0.0286 -0.0174
 5609W        W 9660   0.046   1.887  10.789  0.0783 -0.0254  0.2735
 5610W        W 9661   5.775  10.132  13.623 -0.3243  0.2583  0.1865
 5611W        W 9662   6.618   3.383  10.635  0.0903 -0.1014 -0.1598
 5612W        W 9663   7.084   4.774   3.144  0.2105  0.0214 -0.0623
 5613W        W 9664   4.414   3.886   9.293  0.1948  0.0950  0.1590
 5614W        W 9665   7.905   7.468   0.428  0.0499  0.1950 -0.0231
 5615W        W 9666   2.794   1.657   8.866  0.3296 -0.1119 -0.1587
 5616W        W 9667   4.016   1.651  12.842 -0.1877 -0.0947 -0.1117
 5617W        W 9668   1.825   0.629  12.076 -0.0462  0.0099  0.1070
 5618W        W 9669   3.585   3.486   2.042  0.2155 -0.0459 -0.1899
 5619W        W 9670   9.704   3.274   0.726 -0.0647 -0.3097  0.0484
 5620W        W 9671   9.785   2.279   4.573  0.4252  0.2728 -0.1753
 5621W        W 9672   8.811   0.877   0.900  0.1712  0.3856  0.1445
 5622W        W 9673   0.903   5.873   0.601  0.1147  0.1604 -0.0743
 5623W        W 9674   7.029   0.414   3.665  0.0215 -0.2674  0.0850
 5624W        W 9675   9.378   0.834  13.345  0.2284 -0.0109  0.1552
 5625W        W 9676   1.212   0.706   8.984  0.0481  0.0299 -0.0032
 5626W        W 9677   3.609   6.441  10.881  0.2098  0.0963 -0.1561
 5627W        W 9678   8.393   8.854  10.821 -0.0384  0.2680  0.1425
 5628W        W 9679   8.138   4.966   0.310 -0.0014  0.3695 -0.0393
 5629W        W 9680   9.031   7.732  11.866 -0.1237  0.0756 -0.1859
 5630W        W 9681   4.369   2.611   2.713 -0.1373  0.0417  0.3698
 5631W        W 9682   2.818   8.139   4.148  0.1645  0.0610  0.6550
 5632W        W 9683   7.966   9.856   0.654 -0.0461 -0.2197 -0.2431
 5633W        W 9684   7.479   3.542  13.644  0.0273 -0.3722 -0.2071
 5634W        W 9685   8.672   7.177  13.362 -0.1956 -0.2190 -0.1079
 5635W        W 9686   4.714   8.636   0.633 -0.1378 -0.2366 -0.0533
 5636W        W 9687   1.026   5.806   3.409 -0.1676  0.1352 -0.1511
 5637W        W 9688   1.014   8.038   1.284 -0.1034 -0.1836 -0.1083
 5638W        W 9689   9.368   8.291   3.598 -0.0225 -0.1101 -0.1877
 5639W        W 9690   9.342   3.427  10.788  0.1155 -0.1676  0.1888
 5640W        W 9691   6.574   5.631   1.089 -0.0959  0.3572 -0.1085
 5641W        W 9692   7.092   6.463  12.400 -0.4039  0.0002  0.0767
 5642W        W 9693   0.236   1.824  11.827 -0.1491  0.1053  0.0275
 5643W        W 9694   8.179   0.698  10.837  0.0422  0.1372  0.3474
 5644W        W 9695   5.880   5.519   1.594 -0.0151  0.0773  0.0599
 5645W        W 9696   3.308   0.975   2.898  0.0726  0.1663  0.0033
 5646W        W 9697   7.274  10.140   9.693 -0.0285  0.0443 -0.1957
 5647W        W 9698   4.636   2.073   3.293  0.1488  0.1906 -0.2782
 5648W        W 9699   1.428   8.579  13.326 -0.1538 -0.2442 -0.2385
 5649W        W 9700   3.358   9.347  12.360  0.0292  0.0073  0.0194
 5650W        W 9701   5.622   7.022   3.507  0.0766  0.0748  0.0533
 5651W        W 9702   1.758   7.828  12.103 -0.1453  0.3683  0.1192
 5652W        W 9703   7.023   2.551  12.365  0.2151  0.0035  0.1786
 5653W        W 9704   3.520   0.058  11.810  0.0725  0.0116  0.1430
 5654W        W 9705   8.169   8.704   4.218  0.2149  0.0646 -0.0363
 5655W        W 9706   2.140   5.046   2.552 -0.0743 -0.0680 -0.4217
 5656W        W 9707   2.775   6.300   2.970 -0.1090 -0.0876 -0.0155
 5657W        W 9708   3.274   2.296  13.390 -0.0405 -0.0752  0.0440
 5658W        W 9709   7.763   8.170   2.688  0.0828 -0.0317  0.0534
 5659W        W 9710   3.172   0.672  12.568 -0.2202 -0.0303  0.0804
 5660W        W 9711   8.142   1.877   1.976  0.1880  0.1388  0.2155
 5661W        W 9712   5.636   0.884   4.724 -0.0275 -0.2473  0.3369
 5662W        W 9713   8.113   6.730   0.961  0.2121  0.3323 -0.1541
 5663W        W 9714   9.458   6.894   4.605 -0.0947  0.1357 -0.1952
 5664W        W 9715   6.540   2.013   2.102  0.1329  0.2101  0.1732
 5665W        W 9716   3.923   2.312  12.759 -0.3198  0.4339  0.2707
 5666W        W 9717   3.509   6.546  12.779  0.0345 -0.1375  0.3639
 5667W        W 9718   5.127   7.560  10.183 -0.0955  0.1949  0.2874
 5668W        W 9719   7.783   4.773   2.940 -0.1116 -0.1264 -0.0303
 5669W        W 9720   7.467   5.101  11.598  0.0217 -0.0585  0.1599
 5670W        W 9721   6.146   5.824   9.331 -0.0603  0.1292 -0.0278
 5671W        W 9722   4.088   7.463   9.978 -0.0989 -0.2824  0.1813
 5672W        W 9723   9.643   5.165  13.001 -0.0124 -0.2606 -0.4310
 5673W        W 9724   2.370   6.271   3.928  0.0975 -0.0312  0.0662
 5674W        W 9725   4.224   8.417   3.538  0.1115 -0.0016  0.1510
 5675W        W 9726   8.139   0.917   0.445  0.2879 -0.1366  0.0077
 5676W        W 9727   3.528   1.329  13.473  0.0800  0.1903  0.0428
 5677W        W 9728   8.632   4.005  12.180  0.2244 -0.0828  0.2783
 5678W        W 9729   5.895   9.778   1.893  0.2315 -0.2839 -0.0105
 5679W        W 9730   6.724   9.431  12.837 -0.0345 -0.1813  0.1038
 5680W        W 9731   8.387   2.540  13.402  0.4921  0.2022 -0.2035
 5681W        W 9732   8.149   2.369   3.218 -0.0685 -0.0386  0.1259
 5682W        W 9733   8.883   8.462   1.088  0.1196 -0.2420 -0.1985
 5683W        W 9734   2.729   7.011   1.822 -0.0004 -0.1776 -0.0658
 5684W        W 9735   5.714   9.089   1.860 -0.1682 -0.0175 -0.1468
 5685W        W 9736   7.189   0.757  11.980 -0.0382  0.0173 -0.2444
 5686W        W 9737   2.251   3.466   1.072  0.0320  0.0881 -0.3125
 5687W        W 9738   7.001   5.301   1.882 -0.2115 -0.0134  0.4451
 5688W        W 9739   1.753   2.748   4.781 -0.1960 -0.1263 -0.0202
 5689W        W 9740   3.266   5.840  11.701  0.1115 -0.0017 -0.4665
 5690W        W 9741   3.800   9.984   9.595 -0.3519  0.2404 -0.0496
 5691W        W 9742   3.549   1.486  12.934  0.0905  0.4003  0.2226
 5692W        W 9743   4.794   9.039  10.239 -0.1822 -0.2482  0.1534
 5693W        W 9744   3.837   3.441   0.093  0.1269 -0.0799  0.1782
 5694W        W 9745   2.239   6.374  12.359  0.2014 -0.3403  0.2861
 5695W        W 9746   6.414   8.824   1.104  0.0677 -0.0979 -0.2735
 5696W        W 9747   0.509   1.906  10.869  0.0950 -0.1070 -0.0295
 5697W        W 9748   3.054   8.999  12.187 -0.3818 -0.1758  0.0953
 5698W        W 9749   7.116   9.856  10.586  0.0921 -0.2904 -0.0794
 5699W        W 9750   0.615   2.302  11.197 -0.1860 -0.1919  0.1196
 5700W        W 9751   1.929   4.305  11.212  0.1550 -0.0638  0.1962
 5701W        W 9752   9.133   1.244   3.859 -0.1876  0.1389 -0.1054
 5702W        W 9753   4.195   8.851   2.942 -0.0033 -0.1496 -0.1546
 5703W        W 9754   0.007   6.032   4.948  0.0824 -0.1240  0.1247
 5704W        W 9755   4.768   8.003  12.226  0.1795 -0.1312 -0.2211
 5705W        W 9756   5.248   0.213  11.395 -0.1036  0.2058  0.7970
 5706W        W 9757   0.681   4.790   1.249 -0.3411 -0.1913  0.3339
 5707W        W 9758   6.453   5.281   4.257  0.1274  0.2472 -0.0598
 5708W        W 9759   2.512   7.820   3.460  0.0024 -0.3775  0.1273
 5709W        W 9760   5.935   8.203   4.549 -0.0285 -0.0317 -0.0145
 5710W        W 9761   1.160   5.753  13.231  0.2081 -0.1690  0.2696
 5711W        W 9762   9.058   6.773   2.768 -0.1462  0.1444 -0.3388
 5712W        W 9763   6.905   3.763  13.919 -0.0411 -0.4269  0.1860
 5713W        W 9764   0.475   2.763   1.425 -0.0160  0.1231  0.2302
 5714W        W 9765  10.124   2.729   4.543  0.3508 -0.2193 -0.0780
 5715W        W 9766   7.235   7.166   0.773 -0.0704  0.0647 -0.0465
 5716W        W 9767   0.372   2.693  10.812 -0.0750  0.3490 -0.2931
 5717W        W 9768   9.879   8.663   0.724 -0.1649 -0.2814 -0.0179
 5718W        W 9769   6.359   4.496   9.418 -0.1810 -0.1100  0.0879
 5719W        W 9770   3.770   3.900   9.840  0.1767  0.0648 -0.0464
 5720W        W 9771   9.291   4.133   8.501  0.1214  0.0087  0.1199
 5721W        W 9772   2.248   3.651   0.444  0.0297  0.0951 -0.2790
 5722W        W 9773   0.684  10.050  13.251 -0.1872  0.0574  0.3683
 5723W        W 9774   4.567   3.006   1.818 -0.1802 -0.1061  0.0376
 5724W        W 9775   8.713   3.346   4.533  0.2657 -0.1900 -0.1694
 5725W        W 9776   5.543   4.626   0.273 -0.0803  0.0808 -0.0706
 5726W        W 9777   6.414   4.653   0.855  0.0089  0.1939 -0.1209
 5727W        W 9778   2.176   1.580  12.824  0.2256 -0.1230  0.1175
 5728W        W 9779   1.548   7.626   3.882  0.0851  0.0260  0.0288
 5729W        W 9780   8.023   5.195   9.980 -0.0235  0.0591  0.1750
 5730W        W 9781   0.010   3.824   2.555  0.0708  0.1971 -0.1049
 5731W        W 9782   8.830   7.387   3.251 -0.2539 -0.1151  0.3991
 5732W        W 9783   9.049  10.158   1.590  0.0959  0.1773  0.1809
 5733W        W 9784   5.367   2.894   2.457  0.5720  0.0302 -0.3211
 5734W        W 9785   6.105   6.887   4.177  0.3192  0.1531  0.0090
 5735W        W 9786   7.943   2.695  12.509 -0.0753  0.0538  0.1278
 5736W        W 9787   5.157   0.306   3.943 -0.0456 -0.0944  0.3355
 5737W        W 9788   2.062   3.748   9.716  0.2817 -0.3263  0.0987
 5738W        W 9789   3.716   9.071  13.738 -0.5327  0.0597 -0.0142
 5739W        W 9790   8.711   4.115  10.341 -0.2312  0.1535 -0.4097
 5740W        W 9791   0.557   0.367   1.519  0.0751 -0.0525  0.1028
 5741W        W 9792   7.117   5.990   2.628  0.0604 -0.2918 -0.0278
 5742W        W 9793   2.598   0.678   3.605 -0.0345 -0.0783  0.1232
 5743W        W 9794   8.524   1.542   0.780  0.1571  0.0299 -0.0128
 5744W        W 9795   9.225   0.015   0.815 -0.1427  0.0841 -0.1489
 5745W        W 9796   6.212   8.349   3.733 -0.1896 -0.2169 -0.2567
 5746W        W 9797   1.437   0.230   1.176  0.0331  0.2386  0.0834
 5747W        W 9798   0.169   8.146   3.220 -0.0635  0.0871  0.3811
 5748W        W 9799   2.413   4.878   5.257  0.0120 -0.1769  0.0205
 5749W        W 9800   8.582   9.046  11.714 -0.3796  0.0297 -0.1581
 5750W        W 9801   2.434   5.646  10.602  0.2743  0.1429 -0.3377
 5751W        W 9802   2.332   4.567  11.530 -0.1100  0.2245 -0.0007
 5752W        W 9803   2.667   6.038   0.322  0.0137  0.0243  0.3956
 5753W        W 9804   5.605   4.642   3.785  0.2593 -0.3198 -0.2306
 5754W        W 9805   0.406   3.555   0.311 -0.0560 -0.1201 -0.3304
 5755W        W 9806   2.148   6.367   1.747  0.4244 -0.1405 -0.1762
 5756W        W 9807   4.404   4.218  10.100 -0.0911 -0.0553 -0.3406
 5757W        W 9808   9.347   4.544   0.663  0.1973  0.0748 -0.1202
 5758W        W 9809   8.113   8.541   3.588  0.0298  0.2036 -0.3145
 5759W        W 9810   7.990   9.034   9.312 -0.0869 -0.1699 -0.2950
 5760W        W 9811  10.127   6.000  11.667 -0.1603 -0.1915 -0.3075
 5761W        W 9812   1.365   7.166  12.497  0.0444 -0.0535  0.1038
 5762W        W 9813   5.404  10.161   1.377  0.1216  0.1012  0.2392
 5763W        W 9814   5.923   7.266   9.603 -0.0658 -0.1209 -0.0383
 5764W        W 9815   7.798   9.631   1.970  0.2263 -0.0947 -0.0566
 5765W        W 9816   2.862   5.373   2.494  0.1205  0.3891  0.0675
 5766W        W 9817   8.517   1.490   2.114  0.1907  0.0639 -0.1249
 5767W        W 9818   6.517   4.647   4.063  0.2015 -0.1231 -0.0610
 5768W        W 9819   6.787   6.445  10.484 -0.2336 -0.1977  0.0095
 5769W        W 9820   6.072   5.284   2.000  0.1484  0.0480 -0.2902
 5770W        W 9821   7.065   1.125   3.196  0.0007 -0.0070  0.2141
 5771W        W 9822   0.512   3.197  10.931 -0.1110 -0.0339  0.4236
 5772W        W 9823   6.471   8.576   9.585  0.1134 -0.0525  0.1136
 5773W        W 9824   1.485   2.027  12.233  0.1480  0.1232 -0.3315
 5774W        W 9825   1.509   1.084   1.610 -0.1970 -0.2163  0.0805
 5775W        W 9826   2.951   9.438   0.358 -0.1603  0.0682 -0.1814
 5776W        W 9827   5.493   2.561   5.440 -0.0285  0.1283 -0.1091
 5777W        W 9828   9.919   2.942  10.330  0.1316 -0.2508 -0.0681
 5778W        W 9829   8.806   0.003  11.086  0.2121  0.0861  0.0076
 5779W        W 9830   9.274   8.664   4.944  0.1838 -0.1701 -0.0867
 5780W        W 9831   4.685   7.754  13.648 -0.1270  0.0678  0.1652
 5781W        W 9832   3.730   9.693   2.670 -0.3609 -0.3492  0.1004
 5782W        W 9833   3.490   2.540   0.342 -0.2196 -0.1089  0.0113
 5783W        W 9834   3.659   0.402  13.889  0.0945  0.0716  0.2821
 5784W        W 9835   7.095   4.426   1.198  0.0056  0.1951 -0.1696
 5785W        W 9836   6.392   9.076  12.828 -0.1576  0.0960 -0.0355
 5786W        W 9837   9.062   5.239   0.254 -0.0501  0.1069  0.0802
 5787W        W 9838   0.549   2.346  13.019 -0.0134  0.3717 -0.0259
 5788W        W 9839   6.644   0.585   1.130  0.0930  0.0403 -0.2195
 5789W        W 9840   1.204   6.552  10.427  0.0998  0.1436 -0.0978
 5790W        W 9841   7.906   4.677   1.038  0.1990  0.1573 -0.0902
 5791W        W 9842   3.342   6.769   9.966 -0.0070  0.0643 -0.2396
 5792W        W 9843   7.768   3.893  13.862 -0.0479 -0.0642  0.3753
 5793W        W 9844   5.767  10.149   2.821  0.1241  0.0056  0.0954
 5794W        W 9845   0.453   6.302   9.551  0.0574 -0.0348  0.0851
 5795W        W 9846   9.455   4.847   3.024  0.1738  0.1536 -0.3055
 5796W        W 9847   2.734   5.027   3.301 -0.1703  0.1475 -0.1076
 5797W        W 9848   2.523   0.625  10.070  0.3760 -0.0109  0.0580
 5798W        W 9849   6.528   5.854   2.634 -0.4331  0.3498 -0.0868
 5799W        W 9850   7.034   9.241   2.178  0.2663 -0.3265  0.0051
 5800W        W 9851   6.398   3.195   4.132  0.1651 -0.1308  0.0796
 5801W        W 9852   0.722   3.454   9.680 -0.2042  0.0131 -0.1531
 5802W        W 9853   0.077   4.966  11.662 -0.0114 -0.2911  0.2111
 5803W        W 9854   9.434   5.430   3.563 -0.0039 -0.1011  0.3781
 5804W        W 9855   2.130   2.375  12.871  0.3162 -0.2578 -0.1189
 5805W        W 9856   7.565   4.433  12.506 -0.0963 -0.1454 -0.0177
 5806W        W 9857   0.577   0.116  10.280  0.1122  0.1498  0.2412
 5807W        W 9858   9.054   5.347   1.163 -0.1010  0.2978 -0.2394
 5808W        W 9859   8.489   2.552   4.614 -0.1012 -0.0387 -0.0554
 5809W        W 9860   1.323   9.047  10.188 -0.0503 -0.1189 -0.0198
 5810W        W 9861   4.554   2.731  12.358 -0.4448 -0.2348  0.1731
 5811W        W 9862   1.126   7.309   0.017  0.0934 -0.2606 -0.0427
 5812W        W 9863   0.895   2.588  11.477  0.1956  0.0513  0.3547
 5813W        W 9864   5.042   0.507   4.422  0.4511  0.0264 -0.1001
 5814W        W 9865   1.464   4.000  12.565  0.0276 -0.1899 -0.1282
 5815W        W 9866   2.051   4.346   4.253 -0.1034  0.0602 -0.2241
 5816W        W 9867   2.994   7.259  10.343 -0.1614  0.2557 -0.2104
 5817W        W 9868   6.510   0.276  13.630  0.2111 -0.0812 -0.1552
 5818W        W 9869   4.170   4.654   3.459  0.0264  0.0239 -0.0582
 5819W        W 9870   0.459   3.929   3.744  0.1668 -0.1419  0.1047
 5820W        W 9871   3.675   3.061   1.675 -0.3594 -0.1972 -0.0120
 5821W        W 9872   0.976   3.296  10.777 -0.0895 -0.2105  0.0227
 5822W        W 9873   7.059   0.431   9.795  0.1699  0.1040  0.2392
 5823W        W 9874   4.656   9.475   2.702 -0.1077 -0.0931  0.0643
 5824W        W 9875   7.028   0.260  11.204 -0.5676  0.3276  0.0533
 5825W        W 9876   8.730   5.984  11.029  0.2972 -0.0473  0.1333
 5826W        W 9877   8.965   5.228  10.435  0.0774 -0.0584  0.1191
 5827W        W 9878   1.349   4.698  10.593  0.1983 -0.4588 -0.0295
 5828W        W 9879   5.401   3.865  10.144  0.0350  0.0784 -0.0974
 5829W        W 9880   7.019   9.358  10.191  0.0830  0.1282  0.1312
 5830W        W 9881   1.677   0.125   0.027 -0.1167 -0.3114 -0.3037
 5831W        W 9882   2.014   6.044   2.844 -0.1193 -0.3332 -0.2760
 5832W        W 9883   4.008   1.180  12.618  0.2810 -0.4140  0.3537
 5833W        W 9884   0.593   5.830  10.987  0.2518 -0.0306  0.0352
 5834W        W 9885   7.344   1.708  10.058  0.1565 -0.1203 -0.0138
 5835W        W 9886   1.634   5.310  12.996  0.3978 -0.2739 -0.2636
 5836W        W 9887   1.411   3.244   9.534 -0.1178 -0.4332  0.2511
 5837W        W 9888   9.352   0.675   2.869 -0.4306 -0.0399  0.1089
 5838W        W 9889   5.800   1.941   4.504 -0.0526  0.0769 -0.0635
 5839W        W 9890   2.340   5.086  13.321  0.1768 -0.0879 -0.3168
 5840W        W 9891   9.394   9.891   1.214 -0.1660 -0.2202  0.2413
 5841W        W 9892   3.092   1.071   0.358 -0.1780  0.1486  0.0337
 5842W        W 9893   2.157   2.506   9.805 -0.1294  0.1221 -0.0049
 5843W        W 9894   6.437   2.686   3.975 -0.5534  0.0159 -0.3132
 5844W        W 9895   6.382   9.199  10.976 -0.0666  0.0634 -0.0180
 5845W        W 9896   1.172   8.037  12.200  0.1202  0.0170  0.1998
 5846W        W 9897   9.574   1.582   9.676 -0.0518 -0.1281 -0.3542
 5847W        W 9898   8.630   0.006   1.915  0.3048  0.2343  0.1219
 5848W        W 9899   9.816   8.801   4.301 -0.1664 -0.0357 -0.0213
 5849W        W 9900   8.901   0.890   1.408 -0.0007  0.0005  0.0962
 5850W        W 9901   6.048   6.326   1.566  0.3243  0.3010 -0.3282
 5851W        W 9902   5.098   0.173   0.443 -0.1981  0.0019 -0.2673
 5852W        W 9903   1.931   4.785  13.382 -0.1599 -0.0413  0.0557
 5853W        W 9904   6.193   6.404   4.337 -0.0296 -0.0800 -0.0912
 5854W        W 9905   5.603   6.855   2.302  0.1411  0.1068  0.0421
 5855W        W 9906   8.244   1.678   2.500 -0.2955  0.1268  0.2101
 5856W        W 9907   4.181   3.327   3.858  0.0018 -0.2354  0.1618
 5857W        W 9908   9.931   3.820   4.331 -0.1520  0.4354  0.2420
 5858W        W 9909   7.668   3.318  12.945 -0.1964 -0.1510  0.0515
 5859W        W 9910   4.570   8.297   1.071  0.0554  0.0458  0.2059
 5860W        W 9911   2.360   4.049  11.385 -0.1352 -0.0476  0.1417
 5861W        W 9912   0.830   6.776   2.913  0.0291  0.1626 -0.0953
 5862W        W 9913   3.698   6.827  13.733 -0.1403  0.2934  0.2869
 5863W        W 9914   8.294   1.744  10.907  0.1798 -0.1998 -0.2089
 5864W        W 9915   8.378   7.964  13.045  0.0906  0.1929 -0.3317
 5865W        W 9916   0.775   2.032   0.889  0.1375  0.1309  0.0591
 5866W        W 9917   8.962   6.825   1.941 -0.1956 -0.3704  0.1690
 5867W        W 9918   3.168   8.634   0.336  0.1407  0.1250  0.0941
 5868W        W 9919   8.286   0.428   5.158 -0.1291 -0.3137 -0.1447
 5869W        W 9920   8.371   7.545   3.161  0.0040 -0.0986 -0.2120
 5870W        W 9921   9.464   3.633   8.498 -0.2136 -0.0525  0.0097
 5871W        W 9922   0.959   6.675  11.217  0.0229  0.2559 -0.2026
 5872W        W 9923   0.214   2.606   1.872 -0.0506  0.1085 -0.2570
 5873W        W 9924   7.024   2.371   3.983  0.0479 -0.0534 -0.0346
 5874W        W 9925   6.881   8.308   0.544  0.3455  0.0296 -0.1875
 5875W        W 9926   7.479  10.154   2.917  0.0253 -0.1001 -0.4060
 5876W        W 9927   8.996   1.666  12.610 -0.0573  0.0561 -0.1462
 5877W        W 9928   8.217   1.780   0.188  0.1757 -0.0930 -0.0775
 5878W        W 9929   5.859   6.481   9.042 -0.0192  0.1031 -0.0389
 5879W        W 9930   0.187   2.137   2.297 -0.2116 -0.0285  0.2311
 5880W        W 9931   5.123   2.907   1.998  0.2617 -0.0259  0.2812
 5881W        W 9932   0.506   8.447   1.362  0.4381  0.0162  0.0718
 5882W        W 9933   5.777   0.805   0.924  0.2894  0.1805  0.0505
 5883W        W 9934   4.799   2.581   9.145 -0.1154  0.0394 -0.1969
 5884W        W 9935   2.512   2.200   3.046  0.0371 -0.2390  0.0768
 5885W        W 9936   8.821   0.391  11.424 -0.2603  0.0580 -0.0556
 5886W        W 9937   4.055   8.299  10.407  0.2323  0.1764  0.1109
 5887W        W 9938   5.329   5.415  12.463  0.0313  0.0529 -0.0464
 5888W        W 9939   1.230   4.597  13.918 -0.2991  0.0284  0.0961
 5889W        W 9940   8.070   6.925  10.150  0.0850  0.1457 -0.2616
 5890W        W 9941   4.780   1.403   1.201 -0.1375  0.1047  0.4062
 5891W        W 9942   6.511   0.707  10.536 -0.1254 -0.1500 -0.1047
 5892W        W 9943   2.369   6.774   2.076  0.0093 -0.1936 -0.2343
 5893W        W 9944   4.446   2.976   1.151  0.1986  0.0489  0.0800
 5894W        W 9945   6.492   2.361   2.571 -0.1215  0.2269 -0.1555
 5895W        W 9946   8.950   7.490   0.825  0.0215 -0.1828  0.1633
 5896W        W 9947   6.085   7.851  12.193 -0.0957  0.0074  0.2059
 5897W        W 9948   4.196   9.299   4.691 -0.0033 -0.1735 -0.2480
 5898W        W 9949   7.937   0.967   9.470 -0.1060  0.1657  0.0909
 5899W        W 9950   8.168   3.755  10.850 -0.0119  0.2579 -0.2079
 5900W        W 9951   6.705   5.790  13.261  0.0273  0.0363  0.1883
 5901W        W 9952   4.808   8.934   4.142 -0.0369 -0.1053  0.2012
 5902W        W 9953   3.706   0.543   2.013  0.3302  0.0117  0.2801
 5903W        W 9954   8.016   5.827   0.415 -0.0337 -0.1900  0.1372
 5904W        W 9955   5.238   4.786  11.086  0.1373  0.1375  0.0103
 5905W        W 9956   8.511   0.400   8.402 -0.0650  0.0873  0.0780
 5906W        W 9957   3.595   8.587  12.800 -0.0946  0.1396  0.1290
 5907W        W 9958   8.794   6.537   2.367 -0.0364  0.2171 -0.1360
 5908W        W 9959   6.577   7.927   0.574  0.1794 -0.2821  0.0547
 5909W        W 9960   0.840   9.661   3.798  0.1149 -0.2355  0.2828
 5910W        W 9961   8.463   9.115   2.120  0.0903  0.1159  0.0759
 5911W        W 9962   4.649   9.608   1.686  0.1385  0.0345  0.0123
 5912W        W 9963   2.973   6.391   1.565  0.1826  0.0121  0.2746
 5913W        W 9964   0.648   8.188  12.197 -0.1838 -0.1193 -0.1336
 5914W        W 9965   2.945   9.560  13.123 -0.1444  0.1286  0.3091
 5915W        W 9966   0.929   5.403  13.683  0.1237  0.2673 -0.2319
 5916W        W 9967   8.295   3.074  12.499  0.1809 -0.1980 -0.2133
 5917W        W 9968   5.538   2.662  11.127 -0.2003 -0.0251  0.0104
 5918W        W 9969   1.605   2.214   2.020  0.2132 -0.1030 -0.1845
 5919W        W 9970   3.340   3.117   3.260 -0.0403 -0.0217  0.1168
 5920W        W 9971   7.332   6.167   3.095  0.3120  0.3225  0.4557
 5921W        W 9972   2.269   6.152  11.929  0.1312 -0.1201  0.0758
 5922W        W 9973   4.139   7.098  12.690 -0.3115  0.2973 -0.1188
 5923W        W 9974   6.341   6.088  11.647 -0.1803  0.0570  0.1491
 5924W        W 9975   7.168   5.882  11.193 -0.1364 -0.3030  0.0057
 5925W        W 9976   2.973   0.709  11.152  0.1553  0.2686  0.1732
 5926W        W 9977   1.946   0.119  13.551 -0.0881 -0.0536  0.1825
 5927W        W 9978   6.608   8.543  12.833  0.0258  0.2304  0.2514
 5928W        W 9979   3.753   3.120  13.303 -0.1359 -0.1165 -0.3565
 5929W        W 9980   7.013   1.933   4.318 -0.2807 -0.0530  0.0226
 5930W        W 9981   5.893   6.507  13.582 -0.0474 -0.1613 -0.0277
 5931W        W 9982   1.359   2.795  11.650  0.4376 -0.0890 -0.0442
 5932W        W 9983   0.713   6.345  10.180 -0.0930  0.1874 -0.1705
 5933W        W 9984   9.118   0.178   2.036  0.2291 -0.2770 -0.0691
 5934W        W 9985   3.846   0.603   9.751  0.2698  0.2676  0.0548
 5935W        W 9986   5.501   3.872  13.414  0.1308  0.0707  0.0125
 5936W        W 9987   5.019   5.069   1.652 -0.1778  0.1324  0.1981
 5937W        W 9988   2.113   6.893   2.963 -0.3990 -0.2551 -0.2099
 5938W        W 9989   2.845   5.117   0.533  0.2547  0.2015  0.0853
 5939W        W 9990   3.959  10.144   2.666 -0.0157  0.3172 -0.0741
 5940W        W 9991  10.171   8.993   3.003 -0.0598 -0.1793  0.1547
 5941W        W 9992   8.252   7.784  11.684  0.0217 -0.0074  0.0855
 5942W        W 9993   0.314   5.384   0.377  0.3392 -0.1014 -0.0217
 5943W        W 9994   8.598   9.757  10.317  0.1101 -0.1182  0.2861
 5944W        W 9995   0.218   1.013  11.821 -0.2661 -0.1429  0.1152
 5945W        W 9996   8.555   9.838   3.616  0.2022 -0.0973  0.0109
 5946W        W 9997   3.633   7.903  13.861  0.0039 -0.0667  0.1994
 5947W        W 9998   8.564   8.134  11.849  0.0515 -0.0578 -0.0145
 5948W        W 9999   3.252   7.623   3.222  0.0006  0.0484  0.1309
 5949W        W10000   0.591   5.245   3.104 -0.1671 -0.1288  0.1835
 5950W        W10001   8.895   4.382   8.702  0.2306 -0.0240  0.3036
 5951W        W10002   8.004   1.779  13.591 -0.4619 -0.2559 -0.1083
 5952W        W10003   2.875   2.236  13.103 -0.2183  0.4468  0.2051
 5953W        W10004   3.252   1.611   4.951 -0.0879 -0.1261 -0.3206
 5954W        W10005   0.445  10.032   2.703 -0.2367 -0.1716  0.1687
 5955W        W10006   9.052   6.739   0.721  0.0095 -0.2198  0.0957
 5956W        W10007   7.049   6.851   2.502  0.1028  0.0002 -0.3843
 5957W        W10008   1.539   1.778   2.872 -0.1127 -0.1850  0.2313
 5958W        W10009   5.813   2.284   5.180 -0.3960  0.0800 -0.1325
 5959W        W10010   5.639   1.834  13.934 -0.2042  0.1448 -0.2280
 5960W        W10011   8.860   1.005   2.942 -0.1786  0.0222 -0.1348
 5961W        W10012   1.342   6.902   1.416 -0.0668  0.2084  0.3680
 5962W        W10013   3.586   8.633  10.397 -0.2167 -0.0317  0.2376
 5963W        W10014   6.436   6.579   1.353  0.1379 -0.2174  0.1976
 5964W        W10015   4.521   0.774   0.814  0.5036  0.0518 -0.2253
 5965W        W10016   1.955   4.445   3.235 -0.0409 -0.0896 -0.0320
 5966W        W10017   9.316   6.450   2.012  0.1349 -0.0277 -0.0319
 5967W        W10018   5.748   9.897  10.576 -0.1685 -0.3312  0.2477
 5968W        W10019   0.189   6.548   0.276  0.2821 -0.0000 -0.3726
 5969W        W10020   9.006   9.477  12.741 -0.0918  0.2801 -0.0682
 5970W        W10021   7.790   0.765   3.352  0.1432 -0.0729 -0.0493
 5971W        W10022   8.307   9.621   0.167 -0.1578  0.0718 -0.1543
 5972W        W10023   5.116   3.098   3.713  0.1250 -0.3728  0.3682
 5973W        W10024   2.699   9.543  10.525  0.4957  0.1385 -0.1298
 5974W        W10025   6.737   4.273   4.852 -0.0914  0.0964 -0.0483
 5975W        W10026   6.241   6.118   8.966  0.1955  0.0392  0.1505
 5976W        W10027   7.719   7.923  11.298  0.0639 -0.2192  0.1356
 5977W        W10028   7.749   7.127   1.767 -0.0919 -0.0624 -0.0518
 5978W        W10029   4.041  10.004  11.933 -0.0142  0.1145 -0.0814
 5979W        W10030   7.289   5.454   5.250 -0.3934  0.0316 -0.0722
 5980W        W10031   8.486   4.261   3.968  0.0775 -0.1425  0.1181
 5981W        W10032   9.470   5.484   9.594  0.0200  0.1249  0.5155
 5982W        W10033   9.703   1.888   3.312 -0.0461  0.0395 -0.1142
 5983W        W10034   4.226   1.563  11.245  0.1929 -0.2049  0.0405
 5984W        W10035   1.609   1.343   2.045  0.0334  0.1193 -0.1798
 5985W        W10036   3.833   9.406  11.049 -0.0277  0.0990  0.1289
 5986W        W10037   5.075   7.423  11.431  0.1132  0.1267 -0.1092
 5987W        W10038   3.647   6.002   2.740 -0.2719  0.1459  0.0773
 5988W        W10039   9.782   9.046  12.422  0.0663 -0.3250 -0.0726
 5989W        W10040   6.674   8.985  10.542 -0.1621  0.5892 -0.1970
 5990W        W10041   0.482   2.292  12.508 -0.0246  0.1792  0.2997
 5991W        W10042   2.888   7.212  12.364  0.2221 -0.1184 -0.3002
 5992W        W10043   2.876   9.617   3.768 -0.0697 -0.1055 -0.0005
 5993W        W10044   6.513   0.561  11.424 -0.0563 -0.3302  0.0757
 5994W        W10045   0.074   9.357   2.240  0.0036  0.2018  0.0563
 5995W        W10046   5.667  10.149  12.668 -0.1661  0.2518  0.1886
 5996W        W10047   4.636   1.591   4.851 -0.1888 -0.0180 -0.0782
 5997W        W10048   6.202   8.212   0.375 -0.1657 -0.4140 -0.0579
 5998W        W10049   6.425   3.475   0.921 -0.1230  0.0407  0.2067
 5999W        W10050   3.554   5.155   3.164 -0.0189  0.1684  0.3622
 6000W        W10051   6.935   0.471  10.723  0.2595 -0.0553  0.0239
 6001W        W10052   2.929   0.782  13.305  0.1407 -0.2621  0.1878
 6002W        W10053   6.999   2.534  12.903 -0.0643 -0.0903  0.2060
 6003W        W10054   3.842   0.664   4.403  0.0222 -0.0863 -0.0837
 6004W        W10055   7.824   9.767   0.070  0.0624  0.0055 -0.0094
 6005W        W10056   0.110   0.242   3.958 -0.2867 -0.3884  0.2295
 6006W        W10057   1.865   2.168   1.042 -0.1969  0.2915 -0.0371
 6007W        W10058   8.896   3.305  11.007  0.0229 -0.2843  0.1933
 6008W        W10059   8.381   2.116  13.714 -0.0954  0.1807 -0.2278
 6009W        W10060   4.160   2.774   1.535 -0.0429 -0.1358 -0.2092
 6010W        W10061   5.064   9.405   2.329 -0.0413 -0.2035 -0.0027
 6011W        W10062   3.224   5.090  10.065 -0.0236 -0.2060  0.0156
 6012W        W10063   7.424   7.817   2.229  0.0302 -0.0408 -0.1674
 6013W        W10064   4.966   3.857   2.316  0.0445  0.0306  0.1200
 6014W        W10065   5.374   1.004   0.630 -0.1443 -0.0546  0.0279
 6015W        W10066   7.349   8.581   4.784  0.1015  0.1019 -0.1078
 6016W        W10067   7.922   7.798   4.739 -0.1232  0.1828  0.0774
 6017W        W10068   9.636   1.729   4.599  0.1454 -0.1031  0.0840
 6018W        W10069   9.117   3.390   5.796  0.0521  0.0756 -0.0192
 6019W        W10070   9.069   4.092   0.583 -0.1987 -0.1749 -0.0506
 6020W        W10071   3.234   4.575  13.377  0.2880 -0.3345  0.2415
 6021W        W10072   8.544   8.832   0.002 -0.0804  0.1121  0.0185
 6022W        W10073   3.962   0.743   3.866 -0.0157  0.1596  0.0128
 6023W        W10074   2.435   3.523  11.163  0.1437  0.0988 -0.2581
 6024W        W10075   4.406   2.874  10.907  0.0374 -0.1890  0.2902
 6025W        W10076   1.039   1.087  10.360 -0.3539 -0.0135  0.0447
 6026W        W10077   6.806   0.054   1.403 -0.0543 -0.0771  0.0651
 6027W        W10078   2.660   6.045  12.435  0.0962  0.1161 -0.1580
 6028W        W10079   4.308   9.701  13.511  0.2547 -0.1744  0.0884
 6029W        W10080   1.280   2.590   2.589  0.2387  0.1420  0.0588
 6030W        W10081   3.633   8.513   0.587  0.0413  0.2200  0.1269
 6031W        W10082   0.205   6.181  10.081 -0.0524  0.3722  0.0518
 6032W        W10083   9.630   9.628  11.522  0.0582 -0.1306  0.2236
 6033W        W10084   8.083   9.574  11.142 -0.1714 -0.1332 -0.0959
 6034W        W10085   3.344  10.040   4.502  0.0687 -0.1199 -0.1053
 6035W        W10086   1.762   0.739   4.303 -0.0354  0.1987  0.0081
 6036W        W10087   0.268   8.533  12.310  0.0646 -0.0462 -0.0081
 6037W        W10088   4.998   4.665   3.046  0.0190  0.3620  0.1099
 6038W        W10089   7.026   2.036  13.644  0.0597 -0.1265  0.1917
 6039W        W10090   6.761   8.190   1.676 -0.1094  0.1363  0.0180
 6040W        W10091   6.360  10.137  12.260 -0.4259 -0.2077 -0.1100
 6041W        W10092   4.929   2.954   1.334  0.1195  0.1242 -0.0891
 6042W        W10093   0.161   3.093   3.663 -0.0557  0.0473  0.0832
 6043W        W10094  10.117   7.940   0.362 -0.2259  0.1160  0.1645
 6044W        W10095   1.690   5.557   1.607 -0.0019  0.0903  0.1004
 6045W        W10096   9.352   7.355   3.307  0.2178 -0.0550  0.0050
 6046W        W10097   3.783   4.497   0.287  0.0786 -0.0099 -0.1830
 6047W        W10098   8.815   7.966   3.172  0.3754  0.1218 -0.1339
 6048W        W10099   7.833   0.889  10.350 -0.0015 -0.1664 -0.1149
 6049W        W10100   8.148   9.681  11.691  0.4123  0.0644 -0.1765
 6050W        W10101   8.682   1.473  11.143  0.0514 -0.1495  0.0202
 6051W        W10102   2.084   1.315   9.542  0.0954 -0.1840 -0.1489
 6052W        W10103   1.212   0.787   0.668  0.1187 -0.0455 -0.0525
 6053W        W10104   8.661   8.958   0.880 -0.1505 -0.1053  0.2587
 6054W        W10105   7.404   3.831   3.835  0.0209 -0.1217 -0.0698
 6055W        W10106   5.863   3.125  10.184  0.1955  0.0460 -0.1312
 6056W        W10107   8.996   8.470  12.982 -0.0280 -0.1593  0.1049
 6057W        W10108   5.223   4.238  13.575  0.0581  0.0541 -0.3082
 6058W        W10109   3.063   5.798  12.168 -0.2278  0.0163 -0.0205
 6059W        W10110   3.442   0.961   9.664  0.0256  0.1629 -0.0311
 6060W        W10111   0.542   6.067   4.807 -0.1976 -0.2357 -0.1306
 6061W        W10112   5.088   3.601   3.851 -0.2047 -0.2957 -0.0321
 6062W        W10113   0.969   1.271   3.949  0.1256 -0.1027  0.0405
 6063W        W10114   1.537   9.059   1.305 -0.1075  0.1264 -0.3167
 6064W        W10115   0.030   8.271  11.924 -0.3563  0.0814 -0.1457
 6065W        W10116   1.792   9.120   2.962  0.0092 -0.3917 -0.2431
 6066W        W10117   6.706   0.604  13.161 -0.2236 -0.3106  0.2641
 6067W        W10118   6.764   7.897   4.264  0.0462  0.0821 -0.2491
 6068W        W10119   4.008   1.725  10.829  0.0395  0.1038 -0.0378
 6069W        W10120   7.325   3.228   4.418  0.0472 -0.1709  0.4656
 6070W        W10121   2.317   5.212   2.105 -0.2103  0.0916  0.0382
 6071W        W10122   7.260   8.122   5.569  0.2676 -0.2848  0.0120
 6072W        W10123   5.649   8.977   0.603  0.1216  0.2082 -0.2283
 6073W        W10124  10.148   8.888   2.512 -0.2097 -0.0769 -0.0663
 6074W        W10125   5.378   3.926   3.595  0.2676  0.2312  0.0379
 6075W        W10126   5.245   4.600  12.821 -0.2578 -0.1744  0.2200
 6076W        W10127   5.716   4.071   0.964 -0.3449 -0.1208 -0.1112
 6077W        W10128   3.948   6.316   2.517 -0.1378  0.3516 -0.0376
 6078W        W10129   1.422   1.748   1.820  0.3287  0.1366 -0.1716
 6079W        W10130   7.133   8.424  12.800 -0.1184 -0.0921 -0.0116
 6080W        W10131   8.342   2.086   4.070  0.0903 -0.0383 -0.0759
 6081W        W10132   2.243   1.459   1.933  0.0053 -0.2129  0.1438
 6082W        W10133   9.226   4.107   4.593  0.0703  0.0718  0.0091
 6083W        W10134   3.145   4.609  13.900  0.1309  0.1095 -0.0996
 6084W        W10135   9.123   4.677  12.309 -0.1886  0.2683  0.0905
 6085W        W10136   9.853  10.163   4.037  0.0448 -0.1736 -0.2259
 6086W        W10137   5.208   5.171   2.118  0.2366 -0.2040  0.2145
 6087W        W10138   1.075   5.064   1.074 -0.2028  0.1828  0.3211
 6088W        W10139   4.027   5.159  10.320 -0.0840 -0.1246  0.0355
 6089W        W10140   9.309   7.487   3.862 -0.0417 -0.0813 -0.1574
 6090W        W10141   6.936   6.540  10.943  0.1293  0.0403 -0.1130
 6091W        W10142   7.260   6.739   1.158 -0.1472 -0.2603 -0.0048
 6092W        W10143   3.029   5.605   1.200  0.0210 -0.1036 -0.0151
 6093W        W10144   0.582   2.357   8.876 -0.0174 -0.0665  0.1850
 6094W        W10145   9.790   4.823  10.318  0.1242 -0.1925 -0.1690
 6095W        W10146   2.204   3.821   3.957 -0.1627 -0.1540 -0.2750
 6096W        W10147   4.313   5.379  12.958 -0.1023  0.0442  0.0002
 6097W        W10148   3.298   2.315  12.881 -0.0157 -0.0322  0.0961
 6098W        W10149   6.445   0.863   1.943  0.2118  0.0501  0.0284
 6099W        W10150   9.101   8.205  11.749  0.2375 -0.2732 -0.2889
 6100W        W10151   3.157   0.458  13.013  0.1785 -0.3763 -0.2411
 6101W        W10152   3.170   4.817   2.400 -0.0786  0.2999 -0.0942
 6102W        W10153   9.974   7.423  12.847  0.1661 -0.1019 -0.0356
 6103W        W10154   9.816   7.525   0.561  0.0745 -0.0451  0.4749
 6104W        W10155   7.105   4.118   0.671  0.0791  0.0717 -0.1053
 6105W        W10156   8.487   7.860  10.385  0.0053  0.0436 -0.0218
 6106W        W10157   8.358   0.926   1.464 -0.1990 -0.2580 -0.1477
 6107W        W10158   1.351   0.343   0.711  0.0959  0.0656 -0.3186
 6108W        W10159   0.944   3.604   1.745  0.0395  0.2421  0.0654
 6109W        W10160   4.249   6.648  10.187 -0.1440 -0.3785  0.0591
 6110W        W10161   6.957   7.536   1.105 -0.4044  0.0347  0.1791
 6111W        W10162   5.662   5.969  13.715  0.2674 -0.0121 -0.1173
 6112W        W10163   4.111   4.537  12.985 -0.2648 -0.1002 -0.0533
 6113W        W10164   5.211   6.784  12.197  0.1309 -0.1362 -0.1615
 6114W        W10165  10.044   2.743   3.553  0.0777  0.0253 -0.2823
 6115W        W10166   9.017   4.481  12.755  0.1941  0.0879  0.0613
 6116W        W10167   8.376   9.219   3.924  0.2210  0.1198 -0.0439
 6117W        W10168   6.338   1.845   4.283 -0.0493 -0.0708  0.1197
 6118W        W10169   1.293   2.209  10.483 -0.2878  0.0226 -0.0347
 6119W        W10170   7.349   9.098   4.626  0.1630  0.2847  0.2203
 6120W        W10171   8.455   2.325   3.594 -0.1405 -0.0517 -0.2336
 6121W        W10172   1.132   6.171  12.858 -0.0225 -0.0696 -0.2711
 6122W        W10173   7.365   2.653  10.258  0.1472 -0.1212  0.1072
 6123W        W10174   1.456   3.435   2.972  0.0646  0.3936  0.2403
 6124W        W10175   5.665   9.639  11.802 -0.2395  0.0190  0.0726
 6125W        W10176   2.186   4.812  11.077  0.0930 -0.1645 -0.1553
 6126W        W10177   6.520   4.245   3.815  0.2186 -0.1642  0.3588
 6127W        W10178   4.943   4.250  10.038  0.4568 -0.0471  0.0258
 6128W        W10179   1.744   8.525   0.310  0.0778 -0.0293  0.0633
 6129W        W10180   8.319   5.054   1.337  0.0184  0.0165  0.0636
 6130W        W10181   1.644   5.450  11.655  0.1922 -0.1365  0.1654
 6131W        W10182   1.694   6.455   1.104 -0.1483  0.0016 -0.1028
 6132W        W10183  10.039   7.723   9.889 -0.0700  0.2830 -0.0043
 6133W        W10184   6.577   8.637   2.895 -0.1934 -0.1409  0.2049
 6134W        W10185   7.460   9.552   9.782 -0.0228  0.3582  0.3399
 6135W        W10186   2.764   1.247   1.272 -0.2279 -0.2200  0.3278
 6136W        W10187   8.601   4.221   1.276 -0.0322 -0.1604  0.1798
 6137W        W10188   0.471   9.583   2.473  0.0170  0.0752 -0.0642
 6138W        W10189   3.387   5.973  10.606  0.0427  0.5951  0.1256
 6139W        W10190   0.387   0.053   0.536 -0.0567  0.4401  0.1446
 6140W        W10191   9.192   1.889   2.631  0.0081 -0.4029 -0.2229
 6141W        W10192   7.519   9.903   1.568  0.0016 -0.0700  0.2433
 6142W        W10193   4.138   2.475   1.143  0.2518 -0.1056  0.2916
 6143W        W10194   7.315   9.526   0.184 -0.3536 -0.1918 -0.2958
 6144W        W10195   7.625   6.821   3.050 -0.0504 -0.2316 -0.1391
 6145W        W10196  10.081   3.200   2.622 -0.4147  0.0894 -0.3298
 6146W        W10197   6.717   3.402  11.150  0.0577  0.1349  0.0184
 6147W        W10198   4.594   5.013   4.709  0.0413  0.1423  0.2410
 6148W        W10199   9.176   0.487   3.300  0.1251  0.0247  0.1125
 6149W        W10200   0.719   2.200   5.054  0.4071  0.1060 -0.2218
 6150W        W10201   5.578   1.991   1.701 -0.0965  0.0679  0.0538
 6151W        W10202   2.318   0.118   1.707  0.2579  0.0204  0.1056
 6152W        W10203   0.203   7.746   4.094  0.0417 -0.1392  0.1920
 6153W        W10204   8.440   0.593  10.041 -0.0990 -0.3182  0.2168
 6154W        W10205   5.986   0.274  12.128  0.0851  0.0337  0.1590
 6155W        W10206   8.092   0.927   8.427 -0.1228 -0.2186 -0.2134
 6156W        W10207   8.709   3.371  12.976 -0.1863  0.0478  0.2359
 6157W        W10208   6.366   4.280  13.386 -0.1920 -0.3318  0.1056
 6158W        W10209   9.914   0.855   4.067  0.2460  0.0804 -0.0216
 6159W        W10210   1.189   5.677  12.283  0.2065 -0.3280  0.2706
 6160W        W10211   6.664   4.565  11.777 -0.0055 -0.2828 -0.0105
 6161W        W10212   1.193   6.205   1.723  0.1234 -0.0818 -0.2201
 6162W        W10213   0.112   8.492   2.795  0.1036 -0.0907  0.0660
 6163W        W10214   4.298   9.111  11.567 -0.2077 -0.0402  0.0960
 6164W        W10215   7.821   0.551   0.606  0.1342  0.2179  0.0425
 6165W        W10216   3.980   1.545  13.320 -0.0439 -0.1284 -0.0578
 6166W        W10217   0.581   5.446  11.375 -0.2095 -0.2700  0.1915
 6167W        W10218   9.868   2.513  11.476 -0.3077 -0.0840  0.1390
 6168W        W10219   8.390   3.254   3.587  0.0868 -0.1538  0.0054
 6169W        W10220   2.942   4.087  13.161  0.2098 -0.2386  0.1157
 6170W        W10221   6.915   5.038  13.660 -0.1350  0.0276  0.3236
 6171W        W10222   0.149   7.301  12.136 -0.2881 -0.2731 -0.2448
 6172W        W10223   2.133   6.537   0.736 -0.3700 -0.1386  0.0778
 6173W        W10224   1.779   2.867   0.412  0.1430  0.2100  0.0568
 6174W        W10225   6.999   1.472   4.461  0.0010 -0.1546  0.1686
 6175W        W10226   6.214   3.285  11.862  0.0108 -0.0479 -0.1321
 6176W        W10227   1.408   4.782  11.231  0.2274  0.0725 -0.0585
 6177W        W10228   8.344   6.021  11.286  0.4944  0.0088 -0.2112
 6178W        W10229   4.222   1.607   2.990 -0.0089  0.1539  0.2587
 6179W        W10230   9.165   5.037   1.561  0.0228  0.1722  0.0230
 6180W        W10231   1.878   3.460   1.652  0.0274  0.1633  0.0223
 6181W        W10232   1.823   3.713   0.743  0.2155  0.0384  0.0621
 6182W        W10233   6.228   1.790   1.077  0.3252  0.1335  0.1032
 6183W        W10234   5.347   8.566   2.855 -0.1162 -0.1181 -0.2047
 6184W        W10235   7.692   1.873  13.193 -0.1457 -0.0604 -0.0745
 6185W        W10236   1.345   9.788  11.809  0.0363 -0.0083 -0.1684
 6186W        W10237   1.126   4.313  12.867  0.5602 -0.0516 -0.1297
 6187W        W10238   9.692   2.979  11.202 -0.2870  0.1381  0.0302
 6188W        W10239   3.480   5.399   9.726  0.0330  0.1283  0.1003
 6189W        W10240   2.672   3.868  10.754  0.1088 -0.0471 -0.2820
 6190W        W10241   3.393  10.172  13.700 -0.0264 -0.0697 -0.5737
 6191W        W10242   7.921   3.163   1.154  0.0848  0.0138  0.1022
 6192W        W10243   1.928   4.976   0.306  0.0033 -0.0364 -0.0336
 6193W        W10244   7.426   5.643  11.527 -0.1533  0.1370  0.0906
 6194W        W10245   5.777   5.198  11.361  0.0519 -0.3487  0.0383
 6195W        W10246   6.206   9.601   2.291 -0.3041 -0.0943  0.1684
 6196W        W10247   9.247   4.965   9.391 -0.2678  0.2825  0.0744
 6197W        W10248   4.485   1.512  10.713  0.1041  0.0177  0.1508
 6198W        W10249   1.798   2.652  11.486  0.1613  0.5274 -0.0926
 6199W        W10250  10.082   3.155  11.746 -0.1228 -0.1378 -0.2844
 6200W        W10251   1.612   2.434  11.958 -0.0685  0.1249  0.0416
 6201W        W10252   9.657   7.110  12.599 -0.0436  0.2759 -0.1026
 6202W        W10253   5.379   5.352   2.625 -0.0135 -0.2292 -0.1906
 6203W        W10254   6.708   5.667   3.248 -0.1770  0.0523 -0.0746
 6204W        W10255   8.755   5.602   2.205 -0.2725 -0.1920  0.1605
 6205W        W10256   5.057   3.397   5.130 -0.2214 -0.0993  0.2099
 6206W        W10257   9.404   3.758  11.840  0.0962  0.0074 -0.0565
 6207W        W10258   9.726   0.354  10.679 -0.0810  0.0826  0.0026
 6208W        W10259   6.483   5.245   0.117  0.1735  0.4330 -0.1059
 6209W        W10260   5.386   8.413   3.952 -0.2815 -0.3296  0.2817
 6210W        W10261   8.516   4.741   3.699 -0.0554  0.2804  0.0794
 6211W        W10262   6.520   3.042  12.134  0.3027 -0.0553 -0.0137
 6212W        W10263   3.610   7.587  10.556 -0.0808  0.1134  0.0485
 6213W        W10264   5.019   8.964  13.835 -0.0458 -0.2665 -0.1722
 6214W        W10265   4.929   2.076   0.613 -0.0216  0.2223  0.1161
 6215W        W10266   7.780   6.716   9.724 -0.2209  0.0875 -0.2070
 6216W        W10267   4.366   6.593   1.957  0.1288  0.2173 -0.1658
 6217W        W10268   4.106   5.439   1.592  0.0107  0.0316 -0.0665
 6218W        W10269   1.299   3.577   4.340 -0.0888  0.2804  0.3508
 6219W        W10270   0.562   5.424   3.577 -0.0905  0.1293  0.0707
 6220W        W10271   8.595   6.959   9.985 -0.1900 -0.0243 -0.0773
 6221W        W10272   3.899   0.297   4.059  0.4078 -0.2802 -0.0868
 6222W        W10273   0.618   6.745   3.965 -0.1183 -0.0550  0.1166
 6223W        W10274   4.511   0.825   2.318  0.1039  0.1673  0.1080
 6224W        W10275   7.077   7.900   0.278  0.0535  0.0601  0.1816
 6225W        W10276   9.674   3.992   2.493 -0.1287 -0.4600 -0.0424
 6226W        W10277   0.532   0.540  10.974 -0.1345  0.0551  0.2478
 6227W        W10278   4.094   7.936   1.933 -0.1988  0.0654  0.4428
 6228W        W10279   1.651   9.555  12.117  0.2197 -0.0794 -0.4014
 6229W        W10280   7.078   9.596  11.050  0.1090  0.1048  0.0331
 6230W        W10281   6.355   5.305   2.478 -0.0166 -0.1298 -0.2640
 6231W        W10282  10.087   5.620   4.162  0.2535  0.1762 -0.0260
 6232W        W10283   3.904   8.368  12.515 -0.1322  0.2269  0.2292
 6233W        W10284   6.718   3.000  12.748  0.2913 -0.4223  0.0523
 6234W        W10285   3.207   9.998  11.442 -0.0694  0.1521 -0.0535
 6235W        W10286   3.420   4.055  13.378 -0.0955  0.1133 -0.3659
 6236W        W10287   6.761   6.374   2.575  0.0350 -0.0893 -0.4288
 6237W        W10288   0.652   1.953   2.898 -0.1528  0.1286 -0.0122
 6238W        W10289   8.436   0.960  13.941 -0.1888  0.1763  0.0334
 6239W        W10290   1.946   2.523   5.314  0.1110 -0.1998 -0.0900
 6240W        W10291   4.242   5.565   9.432 -0.2068 -0.2065  0.0749
 6241W        W10292   2.457   9.009  13.720  0.0921 -0.0119  0.0201
 6242W        W10293   3.726   3.026   0.436  0.0124  0.1170  0.1334
 6243W        W10294   9.774   0.841  10.698 -0.3261  0.0594  0.1127
 6244W        W10295   4.256   8.507  12.808  0.1909 -0.0586  0.2148
 6245W        W10296   6.545   8.697  13.306 -0.1261 -0.0140  0.0100
 6246W        W10297   4.354   2.999  11.481  0.1413  0.0032 -0.1380
 6247W        W10298   6.765   8.758  10.966  0.3836 -0.0773  0.0036
 6248W        W10299   1.447   8.211   4.317  0.0092  0.0935  0.1125
 6249W        W10300   5.567   9.538   2.162 -0.0149 -0.2037 -0.0385
 6250W        W10301   8.664   5.840   9.165 -0.0520 -0.0029 -0.2911
 6251W        W10302   0.898   8.563  10.854 -0.0505 -0.0215 -0.0932
 6252W        W10303   3.515   0.784   1.014  0.1127  0.1480  0.3007
 6253W        W10304   5.575   4.213   0.515 -0.3023  0.1044 -0.0548
 6254W        W10305   7.670   7.947   4.288 -0.0774  0.0798  0.0912
 6255W        W10306  10.131   5.364  13.012 -0.2346  0.1152 -0.3395
 6256W        W10307   8.434   9.969  11.394  0.1726  0.1623 -0.0908
 6257W        W10308   8.218   2.252   0.595 -0.2334 -0.3432  0.2013
 6258W        W10309   1.962   1.027   2.937 -0.0479  0.1396 -0.2552
 6259W        W10310   1.826   6.120  11.015  0.3224 -0.1432 -0.1031
 6260W        W10311   0.260   6.158  10.887 -0.0940  0.0037  0.1911
 6261W        W10312   5.169   2.801  11.589 -0.0285 -0.1054 -0.1319
 6262W        W10313   3.740   3.316   2.935  0.2314 -0.0685  0.1077
 6263W        W10314   3.799   0.581  10.430  0.2039  0.1373 -0.3149
 6264W        W10315   0.726   2.906   9.931  0.2279  0.2177  0.3320
 6265W        W10316   7.711   1.215   1.825 -0.3405 -0.1261 -0.2602
 6266W        W10317   8.001   2.102   1.468  0.5166 -0.1299 -0.2258
 6267W        W10318   4.932   6.246   1.946 -0.3687  0.1690 -0.1951
 6268W        W10319   5.117   1.977   3.505  0.1751 -0.2312  0.2360
 6269W        W10320   2.800   6.939   0.244 -0.1921  0.0518 -0.5064
 6270W        W10321   5.803   9.169   4.087 -0.1816  0.2911  0.0318
 6271W        W10322   0.932   3.565   0.140 -0.1941 -0.2141  0.0550
 6272W        W10323   8.092   4.171   0.171 -0.0782  0.0425 -0.3336
 6273W        W10324   7.054   5.035  10.530 -0.1172 -0.1888 -0.0073
 6274W        W10325   7.289   4.455   4.382  0.1281 -0.2935 -0.2788
 6275W        W10326   2.269   0.195  10.939 -0.1846 -0.0107 -0.0307
 6276W        W10327   4.578   2.859   4.524  0.1384 -0.0886 -0.1841
 6277W        W10328   5.811   2.050   0.795  0.3467 -0.0907  0.0908
 6278W        W10329   9.522   5.054   1.876  0.1989  0.0339  0.0007
 6279W        W10330   6.261   6.778  12.977 -0.0753 -0.0917  0.1149
 6280W        W10331   0.373   0.438   4.461 -0.0491  0.2065  0.3304
 6281W        W10332   4.714   4.105   4.289 -0.1791  0.1386  0.1773
 6282W        W10333   4.869   7.099  12.015  0.1599  0.0819 -0.1763
 6283W        W10334   9.390   3.254   9.514  0.2455 -0.1179 -0.0209
 6284W        W10335   4.186   0.709  10.091 -0.0568  0.1593  0.0714
 6285W        W10336   8.175   4.806   2.553 -0.1975 -0.1643  0.1977
 6286W        W10337   8.948   9.256   0.094 -0.0362 -0.1186 -0.1665
 6287W        W10338   8.800   4.855  11.933 -0.2088  0.0827 -0.1299
 6288W        W10339   8.837   1.943  13.797 -0.2634 -0.1005  0.0215
 6289W        W10340   8.957   6.919  10.358  0.0210  0.2115 -0.1111
 6290W        W10341   0.804   8.294  13.909 -0.0107 -0.0084  0.1943
 6291W        W10342   8.732   5.692  10.165  0.1296  0.0809  0.0678
 6292W        W10343   9.941   0.359   9.214  0.1959 -0.0456  0.1229
 6293W        W10344   6.557   2.547  12.444  0.0359  0.0696 -0.0396
 6294W        W10345   2.504   0.230   2.189  0.3723  0.3548 -0.0344
 6295W        W10346   0.763  10.020  11.598 -0.0132 -0.0193 -0.3792
 6296W        W10347   3.263   0.307  11.342 -0.2104  0.1706 -0.2575
 6297W        W10348   7.300   0.126   1.813 -0.1551  0.1526 -0.2133
 6298W        W10349   6.506   7.029   4.483  0.2175  0.0629 -0.0395
 6299W        W10350   1.757   8.689  10.660 -0.0907  0.2970  0.2113
 6300W        W10351   2.609   5.928   1.172  0.2732  0.0609  0.1818
 6301W        W10352   1.726   7.729   3.194 -0.1049 -0.2641 -0.1187
 6302W        W10353   8.356   7.432   2.197  0.1068  0.0017  0.0040
 6303W        W10354   0.673   5.519  13.286 -0.2070 -0.0145  0.1814
 6304W        W10355   4.310   6.637   0.933  0.0490  0.2371  0.2455
 6305W        W10356   5.446   2.706   0.207  0.1638  0.4467  0.1245
 6306W        W10357   6.818   6.808   3.004 -0.3974 -0.0212 -0.2833
 6307W        W10358   6.388   3.510   1.788 -0.1759 -0.0115 -0.2766
 6308W        W10359   6.591   9.352   4.771  0.1379  0.3666 -0.1767
 6309W        W10360   3.744   0.401  12.249  0.1206 -0.0159 -0.1387
 6310W        W10361   0.459   5.189  13.814 -0.1645  0.3514 -0.2712
 6311W        W10362   9.300   3.479   0.427 -0.1132 -0.1035  0.3235
 6312W        W10363   6.214   4.064   9.315 -0.0372  0.0857 -0.3238
 6313W        W10364   1.470   4.324   1.320 -0.1399  0.2266 -0.0237
 6314W        W10365   8.854   0.305  12.645  0.0852  0.3192 -0.1125
 6315W        W10366   9.856   9.539   3.606 -0.0074 -0.3069  0.1493
 6316W        W10367   7.084   7.523   9.719 -0.4263 -0.2647  0.1486
 6317W        W10368   8.105   7.112   8.962  0.2028  0.1268  0.1488
 6318W        W10369   2.439   4.612   1.360  0.0327 -0.0786 -0.1010
 6319W        W10370   4.549   8.708   9.399  0.0425  0.0596 -0.1355
 6320W        W10371   5.369   6.361   2.288  0.1259  0.0992  0.0547
 6321W        W10372   2.092   2.066  10.934 -0.3457 -0.0526  0.1300
 6322W        W10373   5.008   1.203  13.538 -0.2288  0.0825 -0.5203
 6323W        W10374   4.527   9.380   1.251 -0.2174 -0.0067  0.2357
 6324W        W10375   6.892   0.657   0.683 -0.2360 -0.0956 -0.3792
 6325W        W10376   5.462   9.187   1.372  0.4062 -0.3578 -0.0330
 6326W        W10377   9.256   1.230   2.756  0.0217 -0.0635  0.3487
 6327W        W10378   1.003   5.543  11.081 -0.0124 -0.1559  0.1085
 6328W        W10379   2.249   2.785   2.370 -0.0354 -0.0637 -0.1645
 6329W        W10380   4.473   9.929   9.412  0.0508 -0.1600  0.3276
 6330W        W10381   6.088   5.881   1.352  0.1036 -0.1074  0.0353
 6331W        W10382   6.751   0.016  13.241 -0.1767  0.0098  0.2018
 6332W        W10383   7.603   5.725  10.859 -0.0236  0.0492 -0.0473
 6333W        W10384   0.422   8.626  13.547  0.2494 -0.0473 -0.3445
 6334W        W10385   6.187   5.629  13.859 -0.1302  0.0917  0.0141
 6335W        W10386   9.630   7.787  10.171 -0.0403 -0.1699 -0.1904
 6336W        W10387   3.791   9.954  11.450  0.0718 -0.2562 -0.2280
 6337W        W10388   0.677   0.255   4.022  0.0191  0.2323  0.1701
 6338W        W10389   6.164   2.522  10.150 -0.0779 -0.1750 -0.2239
 6339W        W10390   3.612   3.773  10.336 -0.0455  0.1040  0.0002
 6340W        W10391   0.283   9.968   9.833 -0.2615 -0.1359  0.0899
 6341W        W10392   7.604   2.151  10.014 -0.0107  0.1343 -0.2776
 6342W        W10393   2.609   2.541  12.835 -0.1569  0.1350 -0.0379
 6343W        W10394   0.171   8.047   1.278 -0.1925 -0.0649  0.1702
 6344W        W10395   7.895   9.199   2.161  0.0116 -0.0984  0.1941
 6345W        W10396   6.402   8.914   4.974 -0.0084 -0.1187 -0.2440
 6346W        W10397   2.904   9.718   0.996  0.0050  0.0736 -0.0887
 6347W        W10398   7.689   9.984   9.948 -0.0392 -0.0120  0.0455
 6348W        W10399   0.211   3.948   0.602  0.1045  0.0103 -0.0240
 6349W        W10400   8.558   3.342   1.405  0.1749  0.2623  0.1771
 6350W        W10401   5.823   3.087  12.723  0.1323  0.0974  0.0105
 6351W        W10402   6.922   6.275   9.681 -0.1283  0.1268  0.0008
 6352W        W10403   2.623   2.096  10.732 -0.1601 -0.0680  0.2045
 6353W        W10404   6.341   2.935   3.532 -0.1130  0.1124  0.2218
 6354W        W10405   2.265   8.189   3.950  0.0302  0.1482 -0.1504
 6355W        W10406   2.296   6.372   3.089 -0.0694  0.0590  0.1371
 6356W        W10407   5.786   1.804   4.013 -0.0987 -0.2887  0.0308
 6357W        W10408   2.788   0.914   0.003 -0.0448 -0.1934 -0.2377
 6358W        W10409   9.368   9.420   9.205  0.2058 -0.2045 -0.2279
 6359W        W10410   7.004   7.935  12.706  0.0544 -0.2106  0.1324
 6360W        W10411   5.511   2.731  12.040 -0.2621 -0.2602 -0.1244
 6361W        W10412   5.204   9.450   2.853  0.1040  0.1296  0.2071
 6362W        W10413   2.065   2.425  13.402  0.2409 -0.1522 -0.2674
 6363W        W10414   9.511   3.753   1.965 -0.1843  0.0740  0.1430
 6364W        W10415   4.806   9.558  13.494 -0.1344  0.1363  0.1009
 6365W        W10416   8.783   1.373   4.192 -0.2021 -0.6196 -0.0455
 6366W        W10417   9.075   7.720   3.507 -0.1202 -0.0524 -0.1083
 6367W        W10418   0.621   1.286   2.092 -0.2095  0.1334  0.0055
 6368W        W10419   7.990  10.019   2.935  0.1098  0.1431 -0.0565
 6369W        W10420   7.047   6.303  12.976 -0.0424 -0.0254  0.0972
 6370W        W10421   2.948   0.025   2.047  0.0041 -0.1584  0.1203
 6371W        W10422   2.149   3.650  13.395 -0.1372 -0.2412  0.1519
 6372W        W10423   7.044   2.191   0.685 -0.2972  0.0295  0.0252
 6373W        W10424   2.174   8.172   2.313 -0.1907  0.1386 -0.2577
 6374W        W10425   0.131   8.256   3.823  0.2484 -0.1807 -0.2172
 6375W        W10426   0.628   9.082  13.718  0.2785 -0.0968 -0.0391
 6376W        W10427   0.469   8.469   1.864 -0.2520  0.0737 -0.0682
 6377W        W10428   2.539   5.019   0.146  0.0320 -0.1897 -0.1223
 6378W        W10429   2.697   0.597  12.277  0.0002 -0.2696 -0.3220
 6379W        W10430   9.669   7.390   9.856 -0.0915  0.0178  0.3495
 6380W        W10431   6.661   5.829  10.495  0.1443 -0.2866 -0.0112
 6381W        W10432   0.058   8.576   1.625 -0.1629  0.0833  0.0904
 6382W        W10433   5.533   3.166  12.354  0.0920  0.1320  0.1115
 6383W        W10434  10.061   8.580   3.352  0.0057 -0.1981 -0.0045
 6384W        W10435   5.335   1.966   0.889 -0.1802  0.2792 -0.0824
 6385W        W10436   2.267   8.544   1.254  0.1969 -0.0430  0.1303
 6386W        W10437   4.988   0.029   2.460  0.1335  0.0567  0.0932
 6387W        W10438   9.005   7.358  11.472 -0.1687 -0.1690  0.2781
 6388W        W10439   2.961   5.009  12.124 -0.0863  0.2790  0.0014
 6389W        W10440   2.200   6.142  13.874  0.0193  0.2480 -0.0521
 6390W        W10441   0.840   0.718   9.569 -0.0690  0.0149  0.1457
 6391W        W10442  10.172   0.076   4.699 -0.0862 -0.0609  0.0664
 6392W        W10443   1.797   1.293  13.139 -0.0209 -0.0258 -0.3610
 6393W        W10444   5.132   0.801  11.159 -0.1105  0.0361 -0.0819
 6394W        W10445   6.721   5.809   9.732  0.1026  0.0363  0.1944
 6395W        W10446   0.195   9.723   1.475  0.0345  0.2556  0.0631
 6396W        W10447   7.310   0.147  10.143 -0.5098  0.0294  0.2548
 6397W        W10448   8.691   6.872   3.147 -0.0426 -0.2646 -0.1302
 6398W        W10449   8.271   7.552  13.429 -0.0380  0.1648  0.0255
 6399W        W10450   0.216   9.235  11.051  0.1696 -0.2538 -0.0898
 6400W        W10451   9.194   8.419   9.171 -0.0190 -0.2696 -0.4009
 6401W        W10452   3.265   9.796  12.491 -0.1914 -0.0576  0.0534
 6402W        W10453   2.583   9.127  11.322 -0.1058 -0.1941 -0.0468
 6403W        W10454   3.579   3.789   2.898  0.1136  0.1566  0.3828
 6404W        W10455   5.928   0.157   0.692 -0.1421  0.0531  0.1079
 6405W        W10456   0.911   8.474   9.278  0.1561  0.4016  0.0683
 6406W        W10457   7.364   1.420  11.938 -0.0816  0.0316 -0.3851
 6407W        W10458   3.574   0.723   9.276  0.1380  0.1351 -0.0259
 6408W        W10459   1.284   8.252  12.903 -0.1157  0.0441  0.0835
 6409W        W10460   9.794   1.863   1.487  0.1317 -0.4994 -0.2104
 6410W        W10461   2.434   9.174  10.246  0.2079  0.1881  0.0280
 6411W        W10462   4.644   6.629  12.185 -0.0685  0.2102 -0.1218
 6412W        W10463   9.824   7.264  11.203 -0.1656  0.0395  0.1538
 6413W        W10464   3.341   7.398  13.148 -0.2269  0.0657 -0.0198
 6414W        W10465   8.085   4.102  11.960  0.0328 -0.0955 -0.0266
 6415W        W10466   4.167   7.403   2.628  0.0581 -0.1584  0.1251
 6416W        W10467   4.645   3.058   5.017 -0.1757  0.0664 -0.1211
 6417W        W10468   5.529   5.639   4.628 -0.2808 -0.2034  0.0162
 6418W        W10469   7.170   6.740   0.103 -0.3305  0.0537 -0.0274
 6419W        W10470   9.475   7.579  12.816 -0.2307  0.1954 -0.1538
 6420W        W10471   2.002   9.061   3.923  0.1857  0.3076  0.0781
 6421W        W10472   5.951   5.362   4.344  0.0405 -0.1140 -0.2200
 6422W        W10473   8.379   5.962   2.926 -0.0559 -0.0576 -0.1197
 6423W        W10474   0.114   7.826  13.000  0.3103  0.3839  0.2121
 6424W        W10475   9.195   7.795   1.863 -0.1106 -0.1310  0.0770
 6425W        W10476   8.473   8.606   2.160  0.0668  0.0623  0.2370
 6426W        W10477   7.124   8.521  11.311 -0.0154  0.0292 -0.0250
 6427W        W10478   0.334   2.269   3.266 -0.1031  0.2903  0.1101
 6428W        W10479   3.767   3.387   9.730  0.1964  0.0557 -0.1679
 6429W        W10480   7.802   1.791   2.692 -0.1378 -0.0304 -0.1083
 6430W        W10481   0.197   6.661   9.969 -0.0111 -0.0237 -0.0388
 6431W        W10482   2.311   9.458   3.844  0.2995  0.4088  0.3816
 6432W        W10483   5.479   8.375  11.404 -0.2026 -0.0828 -0.0624
 6433W        W10484   8.297   0.129  13.408  0.0012  0.2158 -0.3205
 6434W        W10485   7.090   1.228  13.031 -0.0999  0.0128  0.0711
 6435W        W10486   7.633   9.677  11.428 -0.2842  0.0683  0.1284
 6436W        W10487   6.248   4.759   5.565  0.1223 -0.1713  0.0256
 6437W        W10488   7.291   8.213  12.276  0.2684  0.1380  0.2696
 6438W        W10489   9.988   0.491  12.050 -0.0335  0.2672 -0.0955
 6439W        W10490   6.231   6.964  13.461 -0.1453  0.0830  0.1485
 6440W        W10491   4.044   7.818   2.861 -0.2182 -0.0470 -0.0530
 6441W        W10492   9.857   7.246   1.425  0.1510 -0.5125 -0.0509
 6442W        W10493   1.205   5.348   9.281 -0.3151  0.0872  0.4078
 6443W        W10494   1.778   7.229   1.670  0.0206 -0.1214  0.0339
 6444W        W10495   9.314   6.711  11.594  0.0923 -0.2095 -0.1136
 6445W        W10496   5.958   6.355  11.801  0.0743  0.1091  0.1992
 6446W        W10497   4.555   4.767  13.284  0.1830  0.0776 -0.1052
 6447W        W10498   6.212   8.070  10.882 -0.0619  0.3422 -0.1241
 6448W        W10499   2.662   1.164  13.542 -0.1300 -0.3030  0.0151
 6449W        W10500   5.178   2.287   0.074 -0.2757 -0.0340  0.1304
 6450W        W10501   9.268   2.998   0.927 -0.1627 -0.1799  0.1398
 6451W        W10502   1.174   2.802   9.697  0.0588 -0.2233 -0.0649
 6452W        W10503   2.695   5.877  13.722 -0.1968 -0.2153 -0.0470
 6453W        W10504   6.146   9.662  10.770  0.1641 -0.3547 -0.4988
 6454W        W10505   9.675   1.513  11.448 -0.0488  0.2587  0.1739
 6455W        W10506   9.707   0.807   9.856 -0.1368  0.2051 -0.0779
 6456W        W10507   9.383   6.918   5.096  0.0487 -0.0657  0.0710
 6457W        W10508   5.734   9.563   9.474  0.0062 -0.0499 -0.2625
 6458W        W10509   2.978   5.067   2.019  0.2164 -0.0097 -0.0593
 6459W        W10510   1.034   3.142   3.504  0.3107  0.1676 -0.0164
 6460W        W10511   1.609   0.912   3.407 -0.2933  0.0136 -0.1111
 6461W        W10512   0.562   0.373   2.730 -0.0533  0.0409 -0.0153
 6462W        W10513   0.312   1.296  10.898  0.2150  0.2692  0.3269
 6463W        W10514   6.077   5.469   3.863  0.0563  0.3650  0.0014
 6464W        W10515   8.834   2.683   9.393  0.1087  0.3152 -0.0451
 6465W        W10516   0.959   2.721   3.264  0.2875  0.2751  0.0880
 6466W        W10517   6.923   0.875  11.516 -0.0030 -0.0732 -0.1786
 6467W        W10518   6.104   8.691  13.017  0.0636  0.2010  0.0444
 6468W        W10519   6.086   6.475   2.161  0.2988  0.1587 -0.4387
 6469W        W10520   6.174   2.289   2.981 -0.1830  0.2859 -0.2273
 6470W        W10521   6.405   2.503  10.798 -0.1588 -0.0798  0.2894
 6471W        W10522   5.712   5.550  11.736 -0.0170  0.0410 -0.0033
 6472W        W10523   9.405   1.663  12.985 -0.1122  0.1069  0.0815
 6473W        W10524   5.977   8.016  12.957  0.2320  0.1038  0.0760
 6474W        W10525   0.493   3.808   1.494 -0.2027  0.0846  0.1215
 6475W        W10526   8.890   1.868   4.332  0.1465 -0.0123  0.2808
 6476W        W10527   3.272   3.031  13.462 -0.1203  0.0670  0.1070
 6477W        W10528   0.319   9.974  11.447  0.0146 -0.1991 -0.0110
 6478W        W10529   2.643   6.264  10.449  0.2144 -0.0973  0.2807
 6479W        W10530   6.515   4.816  13.833  0.1162 -0.1303  0.3279
 6480W        W10531   8.641   4.784  13.590 -0.2458  0.1924 -0.0293
 6481W        W10532   1.189   0.722   3.424  0.1278  0.4104  0.0633
 6482W        W10533   2.937   0.063  11.747  0.0481 -0.1986 -0.1736
 6483W        W10534   4.766  10.077   0.163 -0.0363 -0.0826 -0.3383
 6484W        W10535   0.224   3.656   4.687 -0.2582  0.1727  0.1749
 6485W        W10536   7.056   4.851  13.067 -0.1562 -0.0125  0.2384
 6486W        W10537   3.685   4.431   9.822 -0.2679 -0.0661  0.0548
 6487W        W10538   7.604   9.351  11.050  0.1395  0.1100 -0.0899
 6488W        W10539   8.603   6.510   9.087 -0.2749 -0.0143  0.0218
 6489W        W10540   5.446   7.825   4.119  0.1776  0.1498 -0.0399
 6490W        W10541   2.453   7.903   2.682 -0.2289 -0.0679  0.1185
 6491W        W10542   7.681   4.126   4.113 -0.1962  0.2501 -0.2431
 6492W        W10543   2.118   0.599  11.079 -0.7423  0.0827  0.2611
 6493W        W10544   0.929   0.953   0.294 -0.0133 -0.1020  0.0653
 6494W        W10545   5.862   8.230   4.044 -0.0002 -0.0091 -0.1100
 6495W        W10546   0.518   3.500   3.950  0.0734 -0.2010  0.0393
 6496W        W10547   2.908  10.121   3.355  0.0695  0.0285 -0.1257
 6497W        W10548   9.226   6.515   4.405  0.5608 -0.0178 -0.0824
 6498W        W10549   5.201   0.929  10.615  0.1185 -0.1698 -0.0882
 6499W        W10550   8.487   8.396   8.251  0.0201 -0.1699  0.0270
 6500W        W10551   1.554   1.903  11.759 -0.1191 -0.1700  0.0940
 6501W        W10552   0.585   4.944   1.730  0.1253  0.1143 -0.0113
 6502W        W10553   8.714   3.344  11.618 -0.1763 -0.0602  0.2856
 6503W        W10554   5.820   2.227   9.751  0.1461  0.0352 -0.0030
 6504W        W10555   5.585   4.705   1.473 -0.1254  0.1187 -0.0315
 6505W        W10556   2.483   6.905  12.349  0.0402  0.0786 -0.2048
 6506W        W10557   4.537   7.497   2.075 -0.0663 -0.3573  0.1111
 6507W        W10558   3.767   2.802   3.627 -0.4121  0.0025 -0.3162
 6508W        W10559   2.202   6.567   3.573  0.1726 -0.2306  0.0315
 6509W        W10560   6.415   5.552   1.562  0.2177 -0.3135  0.0686
 6510W        W10561   8.596   0.014   5.077 -0.2653  0.2088  0.1006
 6511W        W10562   4.476   7.488  12.675  0.2241  0.1078  0.0631
 6512W        W10563   5.437   1.361   2.331 -0.1348 -0.0103  0.0081
 6513W        W10564   6.870   4.463  12.653 -0.1755 -0.0214  0.1612
 6514W        W10565   2.335   2.546   8.983 -0.0953 -0.2671  0.1700
 6515W        W10566   9.502   5.921   1.669 -0.1710  0.0681  0.0017
 6516W        W10567   6.733   0.281  12.723  0.3064 -0.2039 -0.1648
 6517W        W10568   5.106   1.537   0.686 -0.0372  0.3439 -0.2381
 6518W        W10569   3.308   2.138  12.165  0.0306 -0.1629  0.4167
 6519W        W10570   5.327   7.539   1.500  0.3007 -0.1201 -0.0603
 6520W        W10571  10.162   4.459  10.314  0.1965  0.1697  0.2285
 6521W        W10572   6.179   1.417   0.719  0.3754  0.1326 -0.3948
 6522W        W10573   8.059   6.069   1.527  0.2047 -0.3530 -0.1616
 6523W        W10574   3.306   4.132  10.084  0.1127 -0.0067  0.2088
 6524W        W10575   8.666   7.165  12.860 -0.1759 -0.3142  0.2657
 6525W        W10576   2.376   1.629  10.040 -0.1793  0.1824 -0.0631
 6526W        W10577   2.811   4.500   3.660 -0.0081  0.3248  0.2858
 6527W        W10578   1.197   2.160   2.970 -0.1796  0.2840 -0.2422
 6528W        W10579   6.888   4.270  11.262 -0.2076  0.0893 -0.1650
 6529W        W10580   3.986   1.976   0.691 -0.0426 -0.0337  0.0781
 6530W        W10581   3.039   2.680   0.385 -0.1890 -0.0464  0.0581
 6531W        W10582   9.206   5.232  10.940 -0.0692  0.3751  0.0699
 6532W        W10583   4.761   2.569   1.730 -0.2213  0.0015 -0.2392
 6533W        W10584   1.110   9.867  13.448  0.0155 -0.1828 -0.1753
 6534W        W10585   8.748   4.849   1.737 -0.0454 -0.1546 -0.1638
 6535W        W10586   5.797   0.892   0.059 -0.0928 -0.2125 -0.0697
 6536W        W10587   7.730   9.126   2.740  0.0104  0.0483 -0.0009
 6537W        W10588   3.399   3.455   0.506 -0.0634 -0.1155 -0.1090
 6538W        W10589   1.042   3.842   3.533  0.1151 -0.0297 -0.1890
 6539W        W10590   2.443   3.830   2.401  0.0317 -0.3943  0.0134
 6540W        W10591   9.377   5.764   2.612 -0.2378  0.1757 -0.0947
 6541W        W10592   6.475   7.557  10.859 -0.4364 -0.1817  0.0972
 6542W        W10593   2.382   6.031  11.404  0.1724  0.3350  0.1041
 6543W        W10594   8.424   8.312  10.538  0.0378 -0.0290 -0.0138
 6544W        W10595   2.352   3.613   3.474  0.0102 -0.0220  0.1514
 6545W        W10596   2.816   5.030  11.631 -0.3849 -0.0105  0.0799
 6546W        W10597   1.606   5.088   0.782  0.0722 -0.1472 -0.0002
 6547W        W10598   0.407   2.859   4.661 -0.1214  0.1228  0.0956
 6548W        W10599   0.071   1.194   1.380  0.1134 -0.0136 -0.1446
 6549W        W10600   7.688   2.603   3.365  0.1907  0.0103  0.3813
 6550W        W10601   7.650   0.940   2.226 -0.0798  0.2081  0.2156
 6551W        W10602   2.029   3.173   4.155  0.2900  0.1645  0.2024
 6552W        W10603   9.923   6.358   4.488 -0.1820 -0.3417  0.1769
 6553W        W10604   8.007   0.965  11.688 -0.3854  0.2155 -0.1410
 6554W        W10605   4.882   7.816  12.731  0.0101 -0.1671  0.1526
 6555W        W10606   5.146   9.164   0.381 -0.2453  0.1695 -0.1158
 6556W        W10607   4.975   3.948  12.828  0.2697 -0.1716  0.0710
 6557W        W10608   5.352   5.274   3.235 -0.3352 -0.3949 -0.2118
 6558W        W10609   1.508   9.638   3.223 -0.1987 -0.2041  0.0358
 6559W        W10610   3.467   3.481  12.545  0.0927  0.2470  0.2612
 6560W        W10611   1.573   7.446   0.203  0.1293 -0.2858  0.6262
 6561W        W10612   1.139   2.660  13.564  0.1320  0.0531  0.1101
 6562W        W10613   1.309   0.999   9.385 -0.1713  0.0667 -0.0672
 6563W        W10614   5.601   9.410  12.200 -0.0515 -0.0120  0.1806
 6564W        W10615   8.082   2.988   9.846  0.0830 -0.4194 -0.2162
 6565W        W10616   5.063   8.225   0.784  0.2054 -0.0095  0.3580
 6566W        W10617  10.001   5.212  10.511  0.2044 -0.2715  0.0755
 6567W        W10618   7.708   1.651   3.217  0.2264  0.0195 -0.1040
 6568W        W10619   1.394   0.601   4.616 -0.3080 -0.1198  0.0098
 6569W        W10620   2.418   9.149   0.220  0.1028  0.1017  0.0576
 6570W        W10621   1.302   0.425   0.195  0.4500  0.2133  0.1506
 6571W        W10622   0.956   8.930   2.134 -0.1616 -0.2586  0.1748
 6572W        W10623   1.605   7.762  11.223  0.0676  0.0124 -0.2366
 6573W        W10624   9.645   7.682  13.654  0.5480  0.0550 -0.1484
 6574W        W10625   5.718   5.289  13.070 -0.1982  0.1588  0.1368
 6575W        W10626   3.020   9.274   0.784 -0.4756  0.0142 -0.0072
 6576W        W10627   0.703   2.948   3.822  0.1980  0.0247 -0.1019
 6577W        W10628   6.106   3.206  10.596 -0.1294  0.2129  0.1550
 6578W        W10629   7.077   5.349   0.093 -0.0181  0.0904  0.2474
 6579W        W10630   3.756   4.175   5.471  0.1241 -0.0078 -0.1010
 6580W        W10631   7.943   0.772   1.758 -0.0966  0.1383  0.2066
 6581W        W10632   1.296   2.975   2.303  0.0514  0.2749 -0.0162
 6582W        W10633   2.995   2.979   2.899  0.0680  0.0806  0.1343
 6583W        W10634   8.339   7.009   1.770 -0.3708  0.1693  0.0518
 6584W        W10635   8.563   8.444   3.190 -0.1792  0.0729  0.3650
 6585W        W10636   4.327   8.102  10.796  0.3044 -0.0130  0.2961
 6586W        W10637   4.681   9.256  12.083  0.1499 -0.1134  0.1326
 6587W        W10638   1.907   2.361  12.331  0.0660 -0.1441 -0.3388
 6588W        W10639   1.099   6.224  12.338 -0.3179  0.2206 -0.1612
 6589W        W10640   7.524   9.392   0.649  0.1710  0.1885 -0.0024
 6590W        W10641   3.629   3.472   0.993 -0.0023 -0.0580 -0.0084
 6591W        W10642   6.043   2.832   4.291  0.3763  0.1943 -0.3251
 6592W        W10643   7.448   4.295  12.965  0.0437 -0.0226 -0.0421
 6593W        W10644   9.746   1.537   2.915  0.1798 -0.1127 -0.2751
 6594W        W10645   3.163   0.406   1.103 -0.1681 -0.0631  0.0197
 6595W        W10646   5.453  10.068  11.699 -0.0493 -0.0574  0.0429
 6596W        W10647   2.375   9.801  12.143 -0.2026 -0.1124  0.1292
 6597W        W10648   1.351   3.795   0.409 -0.0608  0.0414 -0.0680
 6598W        W10649   9.218   1.678   0.856  0.0549 -0.0539 -0.0390
 6599W        W10650   9.248   6.411  10.251 -0.2506  0.2857  0.1339
 6600W        W10651   7.015   5.246   9.167 -0.1808 -0.4514 -0.0442
 6601W        W10652   4.210   1.820   3.593 -0.2100  0.0650  0.1958
 6602W        W10653   7.644   6.613  11.297 -0.5035 -0.0287 -0.3959
 6603W        W10654  10.126   5.471   0.783 -0.0203 -0.2367  0.0772
 6604W        W10655   0.940   1.699  13.383  0.0269 -0.0667 -0.2769
 6605W        W10656   9.274   0.133   4.537 -0.1030 -0.2474 -0.3982
 6606W        W10657   8.455   6.397  12.234 -0.5364 -0.0726  0.4966
 6607W        W10658   9.250   4.809  10.597 -0.2485  0.4685 -0.3195
 6608W        W10659   9.329   2.648  11.437  0.0050  0.1466 -0.1162
 6609W        W10660   5.226   2.062  10.416 -0.1956  0.1444 -0.0572
 6610W        W10661   4.512   8.321  11.924  0.1417 -0.1540 -0.1884
 6611W        W10662   8.249   7.101  12.581 -0.1110  0.2983 -0.3287
 6612W        W10663   9.056   2.499   4.924 -0.1436 -0.1323 -0.2520
 6613W        W10664   1.035   9.488  10.937  0.0207  0.1174 -0.0054
 6614W        W10665   9.736   1.378  10.120 -0.0148  0.2013 -0.1914
 6615W        W10666   9.113   9.476  11.693  0.0189 -0.0079  0.1448
 6616W        W10667   0.113   5.816  11.235  0.4112  0.2008  0.1011
 6617W        W10668   5.718   5.613  10.074  0.2733  0.2348  0.3223
 6618W        W10669   0.135   0.449   1.886 -0.0612 -0.3374  0.0584
 6619W        W10670   9.210   2.028  10.650 -0.2741  0.3127  0.1016
 6620W        W10671   2.689   6.469  12.166  0.2892 -0.0547  0.0833
 6621W        W10672   8.954   2.687   5.408  0.3463  0.0637  0.0698
 6622W        W10673   3.937   2.921   5.138  0.0421 -0.1086 -0.0846
 6623W        W10674   0.908   2.107   8.341 -0.2103  0.1035 -0.1864
 6624W        W10675   9.944   6.365   3.621  0.1687  0.0873  0.0853
 6625W        W10676   3.744   4.616   2.225 -0.0074 -0.0869 -0.0776
 6626W        W10677   3.616   8.747   3.494 -0.3581  0.1148 -0.0687
 6627W        W10678   0.019   3.758   1.992  0.2272 -0.2408 -0.0196
 6628W        W10679   4.520   1.656  13.031  0.2382 -0.1938  0.1716
 6629W        W10680  10.040   4.110   0.282  0.0329 -0.1941  0.2402
 6630W        W10681   4.322   9.219   2.260  0.1560 -0.0883  0.1350
 6631W        W10682   8.697   5.937   4.213  0.1243  0.0274  0.0616
 6632W        W10683   3.135   3.682   0.109 -0.0864  0.0819 -0.1927
 6633W        W10684   6.402   8.158   2.923  0.0118  0.1746  0.1765
 6634W        W10685   2.784   0.587   4.493  0.0809 -0.0852  0.1588
 6635W        W10686   6.332   4.196  11.930  0.0478  0.0384 -0.0549
 6636W        W10687   0.790   1.401   0.131 -0.0185  0.1651 -0.1226
 6637W        W10688   2.646   8.539   0.966  0.0570  0.0692  0.4104
 6638W        W10689   8.642   3.546  12.511 -0.0418 -0.2889 -0.0624
 6639W        W10690   1.394   6.353  10.887  0.1849  0.0259  0.1767
 6640W        W10691   3.985  10.126  10.672  0.0362  0.0816  0.0704
 6641W        W10692   4.307   4.813  10.552 -0.1805  0.1104 -0.2383
 6642W        W10693   3.840   2.479   9.950 -0.0902  0.1835  0.1449
 6643W        W10694   3.925   2.920  11.166  0.0666 -0.1494  0.0724
 6644W        W10695   4.713   5.315   2.106 -0.0285 -0.0895  0.1242
 6645W        W10696   1.414   4.679   1.003  0.0066  0.1066 -0.2117
 6646W        W10697   3.123   6.795  13.116  0.1914 -0.0209 -0.0839
 6647W        W10698   5.571   0.931  12.439  0.0643 -0.2646 -0.1045
 6648W        W10699   5.054   6.414  13.355  0.1767 -0.3745  0.1096
 6649W        W10700   2.310   1.116  10.051  0.2016 -0.0163  0.0778
 6650W        W10701   5.118  10.021   0.993 -0.5216  0.1554 -0.0974
 6651W        W10702   9.686   8.418   1.305  0.1051 -0.0214 -0.2246
 6652W        W10703   9.292   4.517   4.273 -0.1836  0.0711 -0.2727
 6653W        W10704   1.660   7.443  11.566 -0.1129 -0.1225  0.1763
 6654W        W10705   9.792   3.907   1.248 -0.0554  0.1571 -0.0848
 6655W        W10706   8.553   6.093  12.634  0.5566 -0.4378  0.3130
 6656W        W10707   7.177   1.778  12.934  0.1515 -0.0904  0.0069
 6657W        W10708   4.089   6.168  10.183  0.3064 -0.2439 -0.1267
 6658W        W10709   9.262   9.536   2.344 -0.4305  0.1559 -0.1818
 6659W        W10710   6.679   7.584  13.872  0.4459 -0.1508 -0.2179
 6660W        W10711   0.269   5.225   1.064  0.4351 -0.0350 -0.0951
 6661W        W10712   9.231   8.668   1.365 -0.0410 -0.2345 -0.1471
 6662W        W10713   7.297   1.816   3.952  0.2633 -0.0784  0.2482
 6663W        W10714   7.091   1.881  11.815 -0.1336  0.0679 -0.0583
 6664W        W10715   9.028   1.258  13.373 -0.3230  0.0648  0.0232
 6665W        W10716   4.583   2.154   9.088  0.1454  0.1305 -0.3289
 6666W        W10717   6.059   0.664   0.389 -0.0936  0.2831 -0.0559
 6667W        W10718   6.920   0.490  12.277 -0.1160 -0.1598 -0.2459
 6668W        W10719   0.738   6.421   2.566  0.1301  0.3364 -0.1780
 6669W        W10720   0.064   3.279  11.216  0.2155  0.0438  0.0159
 6670W        W10721   2.933   0.451  10.433 -0.2211 -0.0471  0.1343
 6671W        W10722   4.035   7.565  11.885 -0.1468 -0.2442 -0.1065
 6672W        W10723   2.688   0.274   5.442 -0.0504 -0.1299  0.2474
 6673W        W10724   9.950   8.616  12.140  0.0265 -0.1051 -0.1679
 6674W        W10725   4.269   7.716  10.358 -0.2653 -0.1799  0.1501
 6675W        W10726   2.957   3.198   0.449  0.0926  0.0717 -0.0164
 6676W        W10727   8.564   3.185   2.599  0.1141  0.0227 -0.0649
 6677W        W10728   2.650   4.866   0.921  0.0995 -0.3556  0.1150
 6678W        W10729   9.457   7.971   2.669 -0.1108 -0.2518 -0.0025
 6679W        W10730   4.786   2.301   4.213 -0.4208 -0.0963 -0.0052
 6680W        W10731   7.619   2.312   1.796 -0.2791 -0.0863 -0.1010
 6681W        W10732   8.914   7.428   4.151  0.0320  0.1134 -0.2895
 6682W        W10733   5.580   3.064  11.419 -0.1463 -0.1101  0.0263
 6683W        W10734   0.506   6.642  11.647 -0.1304 -0.4571  0.0689
 6684W        W10735   3.157   3.896  10.528  0.2782 -0.2772 -0.1583
 6685W        W10736   1.406   5.276  12.554 -0.1059 -0.0420  0.2395
 6686W        W10737   2.689   5.900   2.506 -0.0681 -0.1469  0.0174
 6687W        W10738   6.631   3.699  10.163 -0.0085 -0.0215 -0.1588
 6688W        W10739   0.861   4.037  13.234  0.3692  0.2688 -0.0717
 6689W        W10740   3.405   5.674   3.072  0.1327 -0.2255  0.0875
 6690W        W10741   8.918   7.730   4.813  0.1423 -0.0517  0.0583
 6691W        W10742   8.503   9.654  12.779  0.1886 -0.0343  0.1082
 6692W        W10743   6.445   5.019  12.518  0.3234 -0.2719 -0.0832
 6693W        W10744   1.807   0.044  10.949 -0.2580  0.0035 -0.0014
 6694W        W10745   9.800   3.534   2.326 -0.1165 -0.0525 -0.1666
 6695W        W10746   6.471   0.382   1.604 -0.0292  0.3290  0.0569
 6696W        W10747   6.112   9.523   4.835 -0.0457  0.2027  0.0970
 6697W        W10748   2.543   1.175   9.609  0.1607 -0.0041  0.0697
 6698W        W10749   7.236   3.873  11.887 -0.2719  0.1742  0.1876
 6699W        W10750   5.870   6.321   1.027 -0.2696 -0.1099  0.0136
 6700W        W10751   8.050   6.740  12.266  0.1929 -0.0298 -0.0506
 6701W        W10752   7.576   7.626   2.712 -0.1397  0.1420 -0.0758
 6702W        W10753   1.553   8.642  10.207 -0.3380  0.1656 -0.0337
 6703W        W10754   8.662   0.056   0.761 -0.2448 -0.2324 -0.2015
 6704W        W10755  10.152   9.515  13.359  0.0191  0.1667  0.0458
 6705W        W10756   3.683   6.282   1.506  0.1449 -0.0040 -0.1568
 6706W        W10757   4.945   9.715   3.649 -0.2116 -0.0773  0.2905
 6707W        W10758   5.275   3.416   4.547 -0.4251  0.1514 -0.0046
 6708W        W10759   4.443   6.130   0.797 -0.2105  0.1444  0.1046
 6709W        W10760   6.862   7.020   1.172  0.3540  0.0167  0.0387
 6710W        W10761   2.352   4.071   1.353 -0.4029 -0.1499 -0.0784
 6711W        W10762   6.663   6.780   0.289 -0.3244  0.0364 -0.4529
 6712W        W10763   8.310   7.964   9.917 -0.0007 -0.0297 -0.0638
 6713W        W10764   5.120   4.096   1.314 -0.2051  0.2630 -0.0275
 6714W        W10765  10.134   6.429   1.386 -0.0045  0.1471  0.0154
 6715W        W10766   2.346   0.522  11.815  0.0751 -0.1740 -0.1351
 6716W        W10767   5.896   7.362   3.394  0.0037 -0.0487  0.2832
 6717W        W10768   5.843   7.466   2.266  0.0415  0.0430  0.0914
 6718W        W10769   9.568   3.799   9.755 -0.4538 -0.1243  0.2322
 6719W        W10770   0.014   7.044  12.593  0.3824 -0.0118  0.5300
 6720W        W10771   9.057   3.466   1.800  0.2487  0.2567  0.2782
 6721W        W10772   7.834   1.959   9.584 -0.2323 -0.2221 -0.0317
 6722W        W10773   2.939   8.094   3.348 -0.5104 -0.0607 -0.0201
 6723W        W10774   5.101   9.451  12.427  0.0750 -0.2012  0.0753
 6724W        W10775   3.389   3.541  10.791  0.0759  0.0822  0.1578
 6725W        W10776   8.340   8.883   3.007 -0.2928  0.1173 -0.0516
 6726W        W10777   4.393   3.657   0.610 -0.0706 -0.0489 -0.1150
 6727W        W10778   4.206   0.181  11.039 -0.1677 -0.0143 -0.2691
 6728W        W10779   5.409   0.859   2.367  0.0179  0.1052  0.1719
 6729W        W10780   6.250   1.036  13.161 -0.4358  0.0484 -0.1924
 6730W        W10781   4.962   8.498  12.226 -0.0616  0.2353  0.1565
 6731W        W10782   8.486   6.745   2.689 -0.2789  0.1224  0.2076
 6732W        W10783   2.779   1.943   4.119  0.0522  0.0567 -0.2583
 6733W        W10784   0.921   0.301   4.471  0.3135 -0.4632  0.0643
 6734W        W10785   7.541   8.618   2.970  0.0613  0.1963  0.1578
 6735W        W10786   0.464   1.048  12.978 -0.1509  0.0026  0.0049
 6736W        W10787   5.626   2.630   4.073 -0.0004  0.0991  0.0150
 6737W        W10788   9.041   9.239   3.411 -0.0265  0.1472 -0.0246
 6738W        W10789   5.235   5.984   4.401  0.0174 -0.0746 -0.5081
 6739W        W10790   3.739   3.338   5.537  0.1566 -0.0043 -0.0488
 6740W        W10791   1.608   4.683   1.774  0.1828 -0.1490 -0.0827
 6741W        W10792   1.336   6.742  13.616 -0.0630  0.1035 -0.0061
 6742W        W10793   5.520  10.106   1.895 -0.1884 -0.0529  0.2715
 6743W        W10794   5.144   4.469   0.563  0.1858  0.1237  0.0677
 6744W        W10795   6.078   5.645   2.857 -0.2013 -0.5332 -0.1561
 6745W        W10796   9.708   6.981   2.434  0.1925 -0.2739 -0.0754
 6746W        W10797   1.116   9.510  10.154  0.0125  0.1076 -0.3582
 6747W        W10798   8.174   1.256   1.802 -0.4513  0.0022  0.1593
 6748W        W10799   1.928   3.788   2.245  0.1704  0.0347  0.1105
 6749W        W10800   0.540   8.229   0.899 -0.0545  0.1981  0.0813
 6750W        W10801   9.658   0.412  13.841 -0.2458 -0.2532 -0.1928
 6751W        W10802   4.038   6.310   0.530  0.0214 -0.1907 -0.0717
 6752W        W10803   4.648   2.075  11.288 -0.0207 -0.0327  0.2705
 6753W        W10804   3.395   5.526  13.114  0.1790 -0.0428 -0.0686
 6754W        W10805   5.062   2.676   4.381 -0.0103  0.0281  0.2015
 6755W        W10806   4.975   1.463  11.941 -0.1570  0.0350 -0.0031
 6756W        W10807   5.891   1.136   3.547  0.0993 -0.0708  0.2251
 6757W        W10808   2.475   0.102   0.636 -0.2158  0.1627  0.1179
 6758W        W10809   3.651   0.233  13.221 -0.0482  0.2104 -0.2777
 6759W        W10810   3.649   6.752   2.044 -0.2137 -0.0610 -0.1616
 6760W        W10811   7.934   0.369  13.678  0.3308  0.1062 -0.0825
 6761W        W10812   9.256   5.768  12.166 -0.0115  0.0231 -0.0463
 6762W        W10813   4.351   2.316   1.778 -0.2304 -0.2384 -0.1587
 6763W        W10814   1.850   4.235   0.596  0.1760  0.2561 -0.2649
 6764W        W10815   7.844   1.997   3.997 -0.0211  0.3880 -0.1229
 6765W        W10816   8.845   7.168   0.455  0.1352  0.1434 -0.1817
 6766W        W10817   2.986   2.327   2.261  0.0744 -0.0646 -0.2676
 6767W        W10818   7.814   5.227  12.552  0.0891  0.0593  0.1741
 6768W        W10819   5.439   7.770   2.230  0.1455 -0.1443 -0.1301
 6769W        W10820   3.544   7.304  10.185  0.0416 -0.2731  0.0003
 6770W        W10821   6.725   1.536  10.184  0.0351 -0.0821  0.2719
 6771W        W10822   8.866   0.111  13.400 -0.0051  0.0885  0.1557
 6772W        W10823   1.156   9.567  12.656  0.0284  0.2180 -0.0112
 6773W        W10824   6.605   3.673   4.889  0.1842 -0.0417 -0.1680
 6774W        W10825   4.117   8.917   3.443  0.2793  0.1538  0.0102
 6775W        W10826   6.002   8.649  13.518  0.4439  0.1940  0.2158
 6776W        W10827   4.063   1.628   1.568 -0.1603  0.2036  0.0635
 6777W        W10828   2.434   2.365  11.783 -0.1204  0.2912  0.1220
 6778W        W10829   5.399   5.182  13.946  0.1647 -0.0284 -0.0236
 6779W        W10830   7.121   2.442   2.686  0.2586  0.2164  0.1704
 6780W        W10831  10.132   0.336   2.902 -0.1176  0.1126  0.0856
 6781W        W10832   5.526   2.971   0.635  0.2507 -0.2095  0.0118
 6782W        W10833   1.565   7.570  12.998  0.0146  0.0763  0.1744
 6783W        W10834   9.785   5.798   0.624  0.1538 -0.0003  0.0700
 6784W        W10835   3.828   9.907   0.723 -0.5370  0.0520  0.1875
 6785W        W10836   5.793   8.707  11.705 -0.1049  0.1443 -0.6648
 6786W        W10837   6.316   2.563  11.991 -0.1099 -0.0023 -0.0962
 6787W        W10838   6.210   1.789   9.063 -0.1612 -0.1247 -0.2684
 6788W        W10839   1.155   0.952   2.904  0.2378 -0.1931  0.0070
 6789W        W10840   4.336   6.951  11.340  0.1550  0.1850  0.4436
 6790W        W10841   6.892   9.708   2.147 -0.3636  0.2927  0.1612
 6791W        W10842   8.894   5.804  12.971  0.2780 -0.3918  0.0321
 6792W        W10843   6.206   9.005   3.163 -0.0481 -0.2542 -0.1141
 6793W        W10844   1.321   1.377  13.401  0.0434 -0.2375 -0.0178
 6794W        W10845   7.925   8.182  13.967 -0.0705  0.5407 -0.2300
 6795W        W10846   7.010   2.118   1.186 -0.2111  0.0876 -0.0270
 6796W        W10847   9.090   8.814   4.485 -0.0927 -0.1426 -0.2766
 6797W        W10848   7.358   2.863  11.689  0.1384 -0.3340  0.0244
 6798W        W10849   0.334   7.090   2.875  0.2718 -0.0721 -0.0343
 6799W        W10850   6.067   4.497   1.213  0.1515 -0.2338  0.0503
 6800W        W10851   2.013   9.512  10.494 -0.0868  0.2921 -0.2493
 6801W        W10852   4.646   6.556   3.565  0.1792  0.0623  0.3989
 6802W        W10853   2.574  10.080  11.315  0.0673 -0.1016 -0.0038
 6803W        W10854   4.157   9.588   1.945  0.1287 -0.1883 -0.1365
 6804W        W10855   3.850   3.737  12.757  0.0103 -0.1494 -0.0642
 6805W        W10856   2.308   6.939   0.047  0.2789 -0.0653 -0.1593
 6806W        W10857   4.908   7.930   2.840  0.0298 -0.0333  0.0148
 6807W        W10858   7.542   4.545   9.048  0.0343  0.1049  0.0064
 6808W        W10859   4.773   3.846  10.985 -0.0926 -0.1321 -0.1286
 6809W        W10860   3.920   8.920  13.058 -0.0725  0.3012  0.3202
 6810W        W10861   1.785   9.388  11.629 -0.0138  0.1299  0.2546
 6811W        W10862   0.242   9.862   2.161 -0.3561 -0.0658 -0.3196
 6812W        W10863   2.700   6.519  11.621  0.0233  0.1252  0.3002
 6813W        W10864   0.862   0.552   3.053  0.0407  0.3343 -0.0257
 6814W        W10865   3.009  10.163  10.554  0.1111 -0.0900 -0.0048
 6815W        W10866   0.613   3.362  12.324  0.1779 -0.2812 -0.1021
 6816W        W10867   7.348   8.262   1.234  0.0799  0.2625  0.2949
 6817W        W10868   4.304  10.068   5.412 -0.1467 -0.0892  0.0762
 6818W        W10869   4.386   8.437  12.373 -0.1808 -0.1070 -0.2071
 6819W        W10870   9.202   0.545  12.192  0.0406  0.2546  0.0501
 6820W        W10871   7.735   6.742   5.208 -0.0192  0.3564  0.2024
 6821W        W10872   7.402   2.727  13.040 -0.2307  0.1070  0.4171
 6822W        W10873   4.974   2.677  12.877 -0.0190 -0.4158  0.0582
 6823W        W10874   1.535   6.872   2.966  0.0885  0.1918 -0.2444
 6824W        W10875   5.739   8.433  13.875 -0.0547  0.0284 -0.2593
 6825W        W10876   0.806   3.535  11.909 -0.0627  0.0356 -0.0200
 6826W        W10877   0.224   4.654  12.091 -0.2099  0.0414 -0.0900
 6827W        W10878   4.982   0.292   1.322  0.2670 -0.0639  0.2244
 6828W        W10879   2.995   1.100  11.458  0.0734 -0.0302 -0.2957
 6829W        W10880   7.592   9.029   4.196 -0.0260 -0.1609 -0.0597
 6830W        W10881   8.701   0.736  12.241 -0.1900  0.4959  0.0813
 6831W        W10882   7.336   7.244  10.667  0.2279  0.0908 -0.0371
 6832W        W10883   4.963   0.696   2.100 -0.3263  0.0819  0.0275
 6833W        W10884   2.721   3.524   2.044 -0.2094  0.3572 -0.0541
 6834W        W10885   6.903   3.363   1.853  0.0305 -0.1361 -0.0384
 6835W        W10886   8.653   4.276  13.187  0.1203  0.1107 -0.3200
 6836W        W10887   1.329   6.941   0.937  0.4150 -0.4015  0.1654
 6837W        W10888  10.170   3.555  12.925  0.0047  0.2248  0.0732
 6838W        W10889   8.054   3.905   5.033 -0.3200  0.0797 -0.2357
 6839W        W10890   2.638   4.912   2.373  0.0579 -0.0672  0.0187
 6840W        W10891   8.324   5.126  11.918  0.0731 -0.2631  0.0486
 6841W        W10892   9.916   6.042  13.487  0.0984  0.0314 -0.0899
 6842W        W10893   7.902   4.849  12.155 -0.4451 -0.2676  0.1380
 6843W        W10894  10.048   5.477   1.328 -0.2311 -0.1355  0.0257
 6844W        W10895   5.893   6.083   3.058  0.3549  0.1755  0.0653
 6845W        W10896   8.047   1.977   3.509  0.0570  0.4946 -0.3443
 6846W        W10897   0.244   6.148  12.065 -0.2761  0.1944  0.0458
 6847W        W10898   8.608   9.485   1.019 -0.1123  0.0956  0.0988
 6848W        W10899   7.161   8.909  11.642  0.1970  0.1119  0.1858
 6849W        W10900   6.858   1.922   9.845 -0.0896 -0.0781  0.1352
 6850W        W10901   6.436   9.906   1.280 -0.2210 -0.1107 -0.0461
 6851W        W10902   3.169   1.022  13.652 -0.0495 -0.3176  0.4933
 6852W        W10903   0.113   2.035  10.057  0.0811 -0.1210  0.0687
 6853W        W10904   0.471   5.904  10.366 -0.0695 -0.2040  0.0244
 6854W        W10905   8.621   7.356   4.609 -0.2538  0.0345  0.0499
 6855W        W10906   1.766   3.579   4.075 -0.0350 -0.1013 -0.3873
 6856W        W10907   8.376   2.438  10.597 -0.2634 -0.0610  0.2380
 6857W        W10908   4.673   4.644  10.241  0.1293 -0.1327 -0.1412
 6858W        W10909   6.686   6.373  11.368  0.2256 -0.2217  0.3481
 6859W        W10910   8.263   6.170   9.281 -0.1406  0.2893  0.0203
 6860W        W10911   1.721   7.818   2.471  0.0158  0.3694 -0.3162
 6861W        W10912   1.006   2.638  12.828 -0.2357 -0.2567 -0.2551
 6862W        W10913   1.715   8.754  12.574 -0.0800  0.4468  0.2831
 6863W        W10914   9.775   2.625  12.806  0.1438  0.3520 -0.0429
 6864W        W10915   5.536   8.270   2.478 -0.3242 -0.2612  0.0340
 6865W        W10916   9.399  10.031   2.275 -0.2537  0.1683  0.0247
 6866W        W10917   3.115   6.344  11.224  0.0496 -0.0695  0.2083
 6867W        W10918   9.932   0.577  10.284  0.0596 -0.2743 -0.4839
 6868W        W10919   5.129   8.242  13.217  0.1206 -0.2246  0.2144
 6869W        W10920   3.671   2.131   0.080 -0.0767 -0.0208 -0.3713
 6870W        W10921   4.802   2.980  11.914 -0.1963  0.0449 -0.0790
 6871W        W10922   1.951   9.781  11.840 -0.0634  0.3038  0.0395
 6872W        W10923   9.827   9.287   0.662  0.0231  0.0504  0.0687
 6873W        W10924   4.981   0.624   5.384 -0.2203 -0.1619 -0.1968
 6874W        W10925   8.968   7.130   3.666 -0.0285  0.0355  0.5603
 6875W        W10926   5.136   0.557   9.220  0.2679 -0.0199  0.0426
 6876W        W10927   9.238   4.086   1.609  0.1490  0.1240 -0.1017
 6877W        W10928   1.845   3.807  11.439 -0.1205  0.0614  0.1406
 6878W        W10929   6.594   7.120   0.746  0.2530  0.0329 -0.0954
 6879W        W10930   2.255   8.638  13.369 -0.3297 -0.3441  0.0436
 6880W        W10931   8.123   5.238   5.043  0.2020  0.2346  0.2200
 6881W        W10932   0.079   4.947   0.560  0.0690 -0.1100 -0.1827
 6882W        W10933   1.904   9.870   4.347 -0.2447 -0.2655  0.1948
 6883W        W10934   2.154   5.589  11.786 -0.2636 -0.2258 -0.2770
 6884W        W10935   6.542   8.298  10.050  0.1663  0.0669  0.1554
 6885W        W10936   2.760   4.320   0.769 -0.1097  0.0233 -0.3658
 6886W        W10937   7.278   3.080   2.035 -0.3775 -0.3729  0.0720
 6887W        W10938   3.884   7.392  10.949  0.1659 -0.4598 -0.0048
 6888W        W10939   0.274   0.904   4.663  0.2714 -0.0901  0.0821
 6889W        W10940   8.315   2.702   2.604  0.0346 -0.1650  0.1396
 6890W        W10941   2.455   2.641   1.592  0.0062  0.1000  0.1584
 6891W        W10942   0.756   0.807  13.402  0.0825 -0.1040  0.0049
 6892W        W10943   4.463   9.416  13.041  0.1402 -0.1469 -0.0885
 6893W        W10944   1.136   7.089   3.157 -0.0301  0.3302  0.1555
 6894W        W10945   7.797   4.051   4.578  0.2995 -0.1285  0.0118
 6895W        W10946   0.603   5.073  10.742  0.2876  0.2104  0.0808
 6896W        W10947   9.933   0.440   1.014  0.3041 -0.1670 -0.2807
 6897W        W10948   5.249   5.663  12.931  0.2069  0.0267 -0.2633
 6898W        W10949   8.881   2.173   3.905 -0.0802 -0.0908 -0.3645
 6899W        W10950   2.926   8.509   2.895  0.0076  0.1262 -0.1636
 6900W        W10951   7.965   5.623  10.358  0.0467 -0.2182  0.1029
 6901W        W10952   2.462   2.147   2.498  0.2445  0.2194 -0.0714
 6902W        W10953   6.095   1.641   2.097 -0.1560 -0.0436  0.0111
 6903W        W10954   5.874   6.608  12.715 -0.0851 -0.0437  0.2095
 6904W        W10955   7.415   1.348   0.202  0.2909  0.0713 -0.0360
 6905W        W10956   3.457   3.002   2.245 -0.4043  0.3114 -0.0844
 6906W        W10957   3.721   0.227  11.002  0.1961  0.1584  0.1377
 6907W        W10958   2.972   6.362  12.805 -0.2338 -0.0202 -0.2083
 6908W        W10959   4.844   0.239   2.920  0.2899 -0.0313  0.1557
 6909W        W10960   8.841   0.827  13.231  0.2799  0.1820 -0.0650
 6910W        W10961   8.261   2.097  12.180 -0.2245 -0.0299  0.0240
 6911W        W10962   8.913   0.463   0.613  0.2962 -0.2630  0.1246
 6912W        W10963   8.621   8.071   0.464 -0.3319  0.2994 -0.1417
 6913W        W10964   3.153   2.867   4.794 -0.3994 -0.1552  0.0279
 6914W        W10965   9.201   5.998   3.505 -0.2248  0.2976  0.1102
 6915W        W10966   7.652   5.149   4.945 -0.1494 -0.0262  0.0637
 6916W        W10967   4.193   0.770  12.429 -0.0774 -0.3936 -0.0692
 6917W        W10968   6.015   8.483  12.173  0.0818 -0.1969  0.0587
 6918W        W10969   6.323   3.324  10.121  0.0129 -0.2378 -0.0914
 6919W        W10970   6.843   0.074  10.381  0.1035  0.1106  0.1736
 6920W        W10971   1.506   3.610   4.771 -0.0877  0.2110 -0.2473
 6921W        W10972   5.198   3.956   0.365 -0.0446  0.0793 -0.2609
 6922W        W10973   2.137   4.608  11.992  0.2021  0.1616 -0.2443
 6923W        W10974   3.062   6.260   3.564 -0.1131  0.0607 -0.0594
 6924W        W10975   2.260   2.030   3.500  0.2950  0.0515  0.2077
 6925W        W10976   9.279   0.493   2.400  0.0679 -0.1719  0.3908
 6926W        W10977   8.855   5.744  12.505 -0.3885  0.0514  0.0045
 6927W        W10978   3.983   7.083   0.976 -0.1395  0.1455  0.1204
 6928W        W10979   6.084   3.643   4.937 -0.0163 -0.2769 -0.0884
 6929W        W10980   6.436   3.931   2.648  0.1614  0.0332 -0.0867
 6930W        W10981   2.870   0.265  12.623  0.0500 -0.1973  0.0722
 6931W        W10982   7.560   1.283  10.371  0.0799 -0.4788  0.0056
 6932W        W10983   4.159   9.724   9.820 -0.3965  0.0615  0.1975
 6933W        W10984   6.162   3.458  11.025  0.1082 -0.0909  0.1006
 6934W        W10985   1.138   2.303   9.533  0.1916 -0.0565  0.1608
 6935W        W10986   7.490   7.762  12.757  0.0083 -0.0298 -0.5503
 6936W        W10987   5.673   1.628   3.508  0.1591  0.0542 -0.1064
 6937W        W10988   3.874   8.798   0.975 -0.0272 -0.1899  0.2558
 6938W        W10989   9.607   7.563  10.719  0.0555 -0.0930  0.1327
 6939W        W10990   5.855   5.184  10.515 -0.2118  0.0317 -0.1232
 6940W        W10991   4.273  10.112   4.010 -0.2227  0.2349 -0.0256
 6941W        W10992   1.666   3.064   2.665  0.1888  0.2462  0.0224
 6942W        W10993   6.059   0.347  13.880  0.1530  0.1115 -0.2565
 6943W        W10994   0.395   3.069  11.911 -0.1444 -0.1816  0.0144
 6944W        W10995   4.819   4.848   9.286  0.1699 -0.3585  0.0965
 6945W        W10996   6.042  10.112   9.531 -0.0532  0.0760 -0.1408
 6946W        W10997   4.374   6.731   3.137 -0.0220  0.2376  0.1229
 6947W        W10998  10.149   6.210   9.023  0.0175 -0.1511 -0.0031
 6948W        W10999   9.953   0.881   3.048 -0.2681 -0.1017  0.1080
 6949W        W11000   8.785   4.117   9.695 -0.0314 -0.0782  0.4786
 6950W        W11001   5.479   8.049  13.511 -0.1851  0.1084 -0.2356
 6951W        W11002   1.359   2.964   0.859  0.0585 -0.1009 -0.2529
 6952W        W11003   2.360   2.571   3.391 -0.0271  0.3209  0.0387
 6953W        W11004   6.862   1.094   2.218  0.2384  0.0227  0.2357
 6954W        W11005   0.036   8.874  10.530  0.0330  0.1880 -0.0242
 6955W        W11006   1.893   5.627  10.812  0.0413 -0.0175  0.1440
 6956W        W11007   1.358   3.936  13.095  0.1301 -0.0892  0.0457
 6957W        W11008   3.263   9.813   4.064 -0.0943  0.2117 -0.5045
 6958W        W11009   8.407   9.225   0.525 -0.0593 -0.2289 -0.1918
 6959W        W11010   4.095   1.486  12.232  0.0687  0.0558 -0.3360
 6960W        W11011   8.640   2.041   0.736 -0.1548  0.1150  0.0491
 6961W        W11012   1.065   2.029   2.096 -0.1170  0.0272  0.3839
 6962W        W11013   0.726   0.950  10.812  0.3028 -0.0704 -0.0318
 6963W        W11014   9.163   3.981   3.673  0.0089 -0.2110  0.1113
 6964W        W11015   6.974   0.665   2.935 -0.1122 -0.1426  0.1294
 6965W        W11016   6.686   6.834  11.278  0.1901  0.0952 -0.0010
 6966W        W11017   6.883   7.330  11.030 -0.2741  0.1551  0.0435
 6967W        W11018   2.603   7.379   0.470 -0.0955  0.3148  0.0372
 6968W        W11019   0.709   3.380  11.459 -0.0193  0.0265 -0.1408
 6969W        W11020   5.567   4.009   4.627  0.0856 -0.0668 -0.0770
 6970W        W11021   8.270   3.186  11.667 -0.2892 -0.0078  0.1661
 6971W        W11022   1.665   8.382   2.540  0.2435 -0.3240 -0.1064
 6972W        W11023   9.280   2.846   3.108 -0.0759 -0.0694 -0.7172
 6973W        W11024   4.726   1.384   9.735  0.2643 -0.0133 -0.0617
 6974W        W11025   8.764   7.284  12.372 -0.1640 -0.2711 -0.1285
 6975W        W11026   3.430   7.890   3.705 -0.0660  0.1498 -0.1018
 6976W        W11027  10.134   6.381   9.640 -0.0134 -0.0087  0.0879
 6977W        W11028   7.155   2.384   4.520  0.0895  0.0765  0.1365
 6978W        W11029   5.952   2.055  12.006  0.0702  0.0309  0.1322
 6979W        W11030   1.811   3.745  12.986  0.1218 -0.3208 -0.2643
 6980W        W11031   3.778   3.805   2.368 -0.0816  0.3167  0.2534
 6981W        W11032   6.837   8.215  13.109 -0.0340  0.0791  0.2118
 6982W        W11033   5.142   0.662   3.046  0.2549  0.0225  0.0207
 6983W        W11034   2.378   1.566   3.231  0.0422  0.2301  0.0392
 6984W        W11035   5.648   0.496  11.164 -0.0267 -0.3569  0.0083
 6985W        W11036   8.529   7.866   9.243 -0.1748  0.1251  0.0365
 6986W        W11037   0.406   9.077   2.643  0.0142  0.2091 -0.0453
 6987W        W11038   0.213   9.850   0.131 -0.0325 -0.1476  0.1399
 6988W        W11039   1.004   3.259   4.008  0.0963  0.1261 -0.0174
 6989W        W11040   7.246   0.882  10.509 -0.2157  0.4019  0.0455
 6990W        W11041   6.248   0.084   0.271 -0.1469  0.2313  0.0905
 6991W        W11042   7.773   7.391   2.329  0.1053  0.1175  0.2161
 6992W        W11043   7.000   6.575   1.946 -0.1086 -0.2034 -0.2058
 6993W        W11044   0.050   9.434  10.640  0.2415  0.0526  0.2853
 6994W        W11045   6.350   9.183   4.054 -0.2019  0.0844 -0.0512
 6995W        W11046   3.367   1.697  11.047  0.0454  0.3130  0.1612
 6996W        W11047   1.957   3.350   3.157  0.1181  0.0571 -0.2831
 6997W        W11048   4.695   2.317   9.636  0.2473 -0.0953  0.0521
 6998W        W11049   6.983   5.422  11.710  0.1370  0.3013  0.0826
 6999W        W11050   8.124   5.353   2.385  0.1813  0.0074 -0.5791
 7000W        W11051   8.196   0.919  12.482 -0.0640  0.2679 -0.1775
 7001W        W11052   4.637   5.622   1.655  0.0209  0.0618  0.3233
 7002W        W11053   1.882   1.683   3.301  0.4685 -0.0279 -0.1348
 7003W        W11054   8.321   7.355  10.201 -0.4237 -0.0007  0.0676
 7004W        W11055   4.629   0.199   9.595  0.1259 -0.1141  0.2649
 7005W        W11056   0.632   7.578   5.017  0.0962  0.2545  0.0908
 7006W        W11057   5.693   6.026   9.183  0.0177  0.3039  0.1226
 7007W        W11058   5.299   4.224   4.032 -0.0062 -0.0480 -0.2547
 7008W        W11059   9.999   4.863   8.860  0.0304 -0.0704  0.0756
 7009W        W11060   4.220   1.032   4.348  0.0297  0.1104 -0.0193
 7010W        W11061   4.176   6.724  11.807 -0.0485 -0.4343  0.0590
 7011W        W11062   1.733   0.584   1.525  0.5741 -0.0958 -0.0402
 7012W        W11063   5.772   0.228  13.067 -0.1707 -0.0564  0.2064
 7013W        W11064   9.927   4.606  11.844  0.0140 -0.0292 -0.0078
 7014W        W11065   0.897   9.462   4.698  0.0586  0.0586 -0.3371
 7015W        W11066   9.219   2.163   0.692  0.1493 -0.0530  0.0045
 7016W        W11067   1.954   9.775   9.143 -0.0088  0.3028 -0.0716
 7017W        W11068   3.821   9.083   1.976 -0.1907 -0.0570  0.4583
 7018W        W11069   4.573  10.041   2.676  0.3963  0.0773  0.4040
 7019W        W11070   7.891   9.764  12.137 -0.1028 -0.1890  0.0190
 7020W        W11071   9.178   7.149  10.779  0.0589  0.3120  0.5480
 7021W        W11072   5.757   7.663   1.824  0.0514  0.3688 -0.2230
 7022W        W11073   5.171   8.036  11.105  0.1791 -0.0982  0.0273
 7023W        W11074   9.531  10.054  10.609 -0.3685  0.0844  0.1396
 7024W        W11075   7.761   4.546   4.501 -0.1572 -0.1844 -0.0029
 7025W        W11076   2.792   3.320  10.013 -0.1271  0.1734 -0.1947
 7026W        W11077   7.283   2.091  12.383 -0.2479 -0.3549 -0.1878
 7027W        W11078  10.087   6.800  13.871  0.2529 -0.1059  0.2506
 7028W        W11079   5.390   7.298  10.515 -0.1083  0.1988  0.0673
 7029W        W11080   3.147   1.833  13.033 -0.1187  0.1888  0.2104
 7030W        W11081   1.344   2.258   3.939 -0.0629 -0.2753 -0.2640
 7031W        W11082   3.433   3.109  10.025 -0.2679 -0.2165 -0.0602
 7032W        W11083   7.595   5.988   2.648  0.1642  0.0016  0.0156
 7033W        W11084   5.776   6.990   3.030  0.2730 -0.1078 -0.1964
 7034W        W11085   5.504   5.373   0.972  0.1673 -0.0627  0.0248
 7035W        W11086   3.253   6.782  10.482  0.0921 -0.0785 -0.1452
 7036W        W11087   7.437   8.608  12.463 -0.0811  0.1140 -0.0633
 7037W        W11088   3.179   4.009   3.000  0.2680  0.0972  0.1411
 7038W        W11089   0.386   8.937   2.144  0.0225 -0.1419 -0.4102
 7039W        W11090   8.289   2.623   0.242  0.2973 -0.0213  0.1766
 7040W        W11091   8.502   5.111   2.150 -0.1984  0.1287  0.0213
 7041W        W11092   8.495   4.803  13.071  0.1482 -0.1112 -0.0409
 7042W        W11093   6.552   2.696  11.549 -0.0098 -0.0140 -0.0088
 7043W        W11094   8.228   8.175   0.839  0.1767 -0.2291  0.0074
 7044W        W11095   5.537   8.744   1.085  0.3755 -0.0969 -0.2199
 7045W        W11096   2.491   1.210  10.543 -0.0653 -0.0948 -0.1708
 7046W        W11097   4.709  10.178   3.747 -0.3398  0.5342 -0.0923
 7047W        W11098   6.253   6.199  11.150  0.0077  0.2041 -0.0148
 7048W        W11099   1.388   1.231   0.907 -0.3828 -0.0392 -0.4315
 7049W        W11100   1.794   1.138   1.167 -0.2159  0.0114 -0.1142
 7050W        W11101   3.225   3.879   2.516 -0.1657 -0.1861 -0.2141
 7051W        W11102   8.032   0.980   4.379  0.1873 -0.1410  0.1113
 7052W        W11103   0.401   1.787   0.600  0.0711  0.1949  0.2045
 7053W        W11104   6.201   2.491   9.545 -0.3018  0.0162  0.3463
 7054W        W11105   0.970   2.854   4.283  0.3723 -0.1681  0.2043
 7055W        W11106   5.125   8.624   2.346  0.0018  0.2986  0.1303
 7056W        W11107   5.785   6.809   0.830  0.1291 -0.3115  0.0540
 7057W        W11108   8.734   4.598   4.339  0.1763 -0.1134  0.0481
 7058W        W11109   4.344   9.308  12.547  0.0556  0.0050 -0.1823
 7059W        W11110   7.221   6.895  11.134  0.3609 -0.1050 -0.0012
 7060W        W11111   2.517   9.952   2.368 -0.0168  0.1542 -0.1559
 7061W        W11112   6.579   4.276   9.020  0.2106  0.2127  0.0496
 7062W        W11113   3.198   2.287  13.925 -0.0761  0.0667  0.0501
 7063W        W11114   2.510   6.544  12.747  0.1806  0.2371 -0.0972
 7064W        W11115   8.312   6.362   9.776  0.1920 -0.1005 -0.0340
 7065W        W11116   6.637   8.949   3.380  0.1149  0.0957 -0.0755
 7066W        W11117   2.680   3.679   1.174  0.1035 -0.0188  0.2973
 7067W        W11118   6.086   5.804  11.957 -0.1190 -0.2876  0.2450
 7068W        W11119   8.501   0.212   2.512  0.1494 -0.0990 -0.1436
 7069W        W11120   8.158   5.264  12.940 -0.0691  0.2116  0.0723
 7070W        W11121   4.509   8.395   1.557  0.2821  0.1458 -0.1358
 7071W        W11122   2.525   2.459   5.172 -0.0506 -0.0155  0.0926
 7072W        W11123   0.004   6.843   4.460  0.2995 -0.1565  0.2047
 7073W        W11124   8.949   9.155   9.439 -0.1499  0.0728  0.0722
 7074W        W11125   0.713   8.075  10.996 -0.0012  0.3121 -0.0274
 7075W        W11126   7.898   2.580   2.268 -0.0132  0.2479 -0.1326
 7076W        W11127   5.774   6.060  11.414 -0.0195  0.2530 -0.0417
 7077W        W11128   8.260   6.075   0.061  0.2360  0.1211 -0.0334
 7078W        W11129   8.648   4.957   0.156  0.0127  0.2363 -0.2678
 7079W        W11130   1.327   2.100  12.865  0.3487 -0.2409  0.0617
 7080W        W11131   4.750   0.054   4.276 -0.1375 -0.0005  0.0439
 7081W        W11132   8.752   1.744   9.326 -0.2271  0.1526  0.3743
 7082W        W11133   8.803   1.251   1.730 -0.0602  0.0743 -0.0531
 7083W        W11134   8.068   3.484   9.960 -0.3838  0.0333 -0.1297
 7084W        W11135   1.733   1.781  13.081 -0.0486  0.1365  0.0057
 7085W        W11136   5.021   1.266   0.136 -0.0658  0.2069  0.3523
 7086W        W11137   7.401   0.526  13.680 -0.0566  0.0159  0.0464
 7087W        W11138   6.280   8.018   9.522  0.0892  0.2513 -0.3500
 7088W        W11139   6.064   2.111   2.482 -0.2143 -0.2236 -0.0396
 7089W        W11140   0.838   0.682   1.823  0.0395 -0.0099  0.0806
 7090W        W11141   9.169   4.612   9.670  0.2288 -0.1080 -0.2107
 7091W        W11142   5.833  10.015  11.297  0.0164 -0.1027 -0.0460
 7092W        W11143   4.112   0.291  13.575  0.2026 -0.0687 -0.0344
 7093W        W11144   7.685   0.339   1.590 -0.2421 -0.1403  0.0631
 7094W        W11145   2.668   3.182   1.184 -0.1854  0.2490 -0.1067
 7095W        W11146   6.417   9.182  13.281 -0.1094 -0.1212 -0.0993
 7096W        W11147   1.996   9.322   0.570 -0.0219  0.3247  0.0865
 7097W        W11148   3.698   8.697   0.114 -0.2969 -0.0914 -0.0491
 7098W        W11149   3.992   0.079   3.235 -0.1538 -0.0140 -0.1160
 7099W        W11150   2.230   1.961  12.304  0.0865  0.0483  0.2336
 7100W        W11151   3.581   8.691   1.595  0.0645 -0.1352 -0.0807
 7101W        W11152   6.622   8.652   1.566  0.1493  0.2035  0.2760
 7102W        W11153   5.604   4.404  10.909 -0.0476 -0.2630  0.0918
 7103W        W11154   8.143   0.166   9.931 -0.1435 -0.0952  0.1009
 7104W        W11155   8.944   7.762  10.128 -0.0109 -0.0865  0.4713
 7105W        W11156   7.627   1.523  10.830  0.0657 -0.0013 -0.0277
 7106W        W11157   0.108   1.355   4.389  0.5352 -0.0707 -0.1658
 7107W        W11158   2.225   0.537   0.630  0.1120  0.3380 -0.1829
 7108W        W11159   2.893   2.359   1.220 -0.0895 -0.2232  0.2974
 7109W        W11160   9.059   0.862   1.914 -0.1887 -0.2984 -0.2170
 7110W        W11161   6.758   0.699   3.368  0.2267  0.1661  0.1449
 7111W        W11162   9.590   1.301  13.253  0.2464  0.1099 -0.0692
 7112W        W11163   1.503   7.743   4.369  0.3281 -0.2565  0.0302
 7113W        W11164   2.961   3.481  13.259 -0.0147 -0.1500 -0.4877
 7114W        W11165   5.222   5.111  12.877 -0.1495 -0.1220 -0.0058
 7115W        W11166   5.351   9.553  10.790 -0.1071 -0.2443 -0.0698
 7116W        W11167   3.899   7.624   0.213  0.1182  0.2967  0.2801
 7117W        W11168   4.483   1.087  13.895 -0.1493 -0.1165 -0.0976
 7118W        W11169   8.100   8.319   2.300  0.0143  0.3569 -0.0172
 7119W        W11170   9.433  10.033   0.371  0.3453  0.2921  0.4555
 7120W        W11171   7.446   9.528  10.389 -0.1443 -0.0141 -0.0766
 7121W        W11172   0.152   6.693   3.156  0.1894  0.1248  0.0773
 7122W        W11173   5.836   8.076   2.098 -0.0411  0.0237 -0.1354
 7123W        W11174   2.501   1.673   5.066 -0.0252  0.2089  0.0986
 7124W        W11175   6.047   4.704   2.096  0.1920  0.0204  0.1789
 7125W        W11176   7.398   4.259  10.511  0.1425  0.0807 -0.4210
 7126W        W11177   1.759   8.266  13.130 -0.1543  0.1316  0.1076
 7127W        W11178   7.657   3.085   3.235 -0.1558 -0.0730 -0.2863
 7128W        W11179   7.234   8.965  11.076  0.2341 -0.3881 -0.1001
 7129W        W11180   4.918   7.868   3.349  0.0276 -0.1016 -0.0229
 7130W        W11181   4.402   7.315  11.696 -0.0469  0.3007 -0.0175
 7131W        W11182   5.260   5.880   9.419 -0.0987 -0.0295 -0.2002
 7132W        W11183   2.795   2.848   2.063 -0.3951 -0.1755  0.1388
 7133W        W11184   8.435   6.861   0.564  0.1856 -0.1288 -0.0776
 7134W        W11185   0.952   0.324   1.012  0.2197  0.1464 -0.0832
 7135W        W11186   3.609   1.960  12.698 -0.2925  0.2219  0.0956
 7136W        W11187   8.493   8.552   0.576  0.0440 -0.3561 -0.0169
 7137W        W11188   1.645   8.762  13.769 -0.0219 -0.2558 -0.0285
 7138W        W11189   6.378   0.710  12.740 -0.3045  0.0758  0.1576
 7139W        W11190   4.040   5.901  12.257  0.1835  0.2150  0.0630
 7140W        W11191   6.038   0.875   9.928 -0.0684 -0.0236 -0.0426
 7141W        W11192   5.585   1.610   2.880  0.3290  0.0838  0.1292
 7142W        W11193   1.597   5.681   3.352 -0.2600 -0.0176  0.1137
 7143W        W11194   9.956   1.603  11.049 -0.2460  0.0076 -0.3059
 7144W        W11195   2.587   0.165  10.309  0.0096  0.2232 -0.0243
 7145W        W11196   0.771   3.887   2.581 -0.2097 -0.2228 -0.0407
 7146W        W11197   7.274   2.059   2.275 -0.1805 -0.1306 -0.1947
 7147W        W11198   2.572   0.779   2.438  0.1424 -0.1682 -0.0750
 7148W        W11199   3.288   0.148   2.751 -0.0329 -0.2490 -0.1291
 7149W        W11200   0.529   6.348   3.252  0.5697 -0.0523  0.1682
 7150W        W11201   7.328   6.237  12.014  0.1288  0.0368 -0.3825
 7151W        W11202   7.213   4.095  12.436  0.1325  0.0519 -0.1123
 7152W        W11203   4.738   9.610   0.043 -0.1586 -0.1538  0.0760
 7153W        W11204   8.000   7.761   1.004 -0.0993 -0.2238  0.1998
 7154W        W11205   0.286   1.417   5.024  0.0940 -0.2590 -0.2051
 7155W        W11206   6.747   5.725   0.191  0.2907 -0.2575  0.1794
 7156W        W11207   1.883   8.566   2.140 -0.1686  0.0236 -0.2715
 7157W        W11208   3.546   5.000  13.879  0.1961  0.0116  0.0182
 7158W        W11209   4.533   3.430   2.764 -0.0867 -0.0507 -0.0250
 7159W        W11210   1.206   4.313  10.973  0.0428 -0.0275 -0.2750
 7160W        W11211   8.914   4.535  10.138 -0.0867 -0.0380  0.1698
 7161W        W11212   1.318   3.508   0.867 -0.0467 -0.1708  0.0384
 7162W        W11213   5.698   3.556   2.880  0.2797 -0.0916 -0.1879
 7163W        W11214   0.884   2.029  13.784  0.0015 -0.1604 -0.0844
 7164W        W11215   2.810   4.640   0.389  0.1504  0.4690  0.1818
 7165W        W11216   9.141   6.993  12.595  0.0575 -0.3829  0.1333
 7166W        W11217   5.689   1.487   1.704  0.0495  0.1427 -0.1560
 7167W        W11218   5.039   7.479  10.900  0.0692 -0.4021 -0.1478
 7168W        W11219   8.765   7.227   2.727 -0.1103  0.0552  0.1946
 7169W        W11220   1.366   8.828   1.721  0.1093  0.1815  0.5516
 7170W        W11221   0.004   1.896  13.330  0.0924 -0.1281  0.0241
 7171W        W11222   2.824   6.494  13.920 -0.2332  0.1639 -0.4829
 7172W        W11223   8.029   1.248   3.097  0.1104  0.1060 -0.0599
 7173W        W11224   5.396   2.507   9.723 -0.0715 -0.0134 -0.0132
 7174W        W11225   5.619   7.028   3.981 -0.0795  0.0260 -0.0166
 7175W        W11226   6.772   7.358   2.121 -0.4741 -0.0625  0.2130
 7176W        W11227   7.037   7.929  13.632  0.1892  0.1626  0.0209
 7177W        W11228   5.445   8.443   9.987 -0.0649  0.0002 -0.0359
 7178W        W11229   8.429   5.243  13.393 -0.0442 -0.0401  0.1455
 7179W        W11230   8.330   1.323   1.141 -0.1252 -0.1086 -0.1577
 7180W        W11231   7.554   8.928  10.735 -0.1282  0.2833 -0.1193
 7181W        W11232   2.529   5.840   3.011  0.0814  0.2885 -0.0048
 7182W        W11233   6.473   3.894   0.194 -0.1465 -0.2804 -0.2524
 7183W        W11234   9.771   6.020  12.501 -0.0926 -0.1391  0.1255
 7184W        W11235   0.929   2.003   8.801 -0.0586 -0.0324 -0.0764
 7185W        W11236   5.120   2.549  10.424  0.2339 -0.1705 -0.1447
 7186W        W11237   2.642   1.611   1.670  0.0302  0.0484 -0.0461
 7187W        W11238   0.486   7.722  12.247  0.0768  0.0639 -0.1253
 7188W        W11239  10.162   6.330  13.792 -0.0813  0.0696  0.1181
 7189W        W11240   6.835   6.237   3.061 -0.1683  0.1705 -0.1079
 7190W        W11241   3.111   8.847   1.759 -0.1332 -0.0793 -0.2206
 7191W        W11242   5.490   4.180   0.021  0.2211  0.0943 -0.2252
 7192W        W11243   1.662   8.232   0.804  0.0272 -0.0338  0.1169
 7193W        W11244   4.083   7.332   3.725  0.1825 -0.2368  0.1902
 7194W        W11245   9.959   7.865   3.873 -0.2536  0.1041 -0.0404
 7195W        W11246   1.077   3.704  13.657 -0.1125  0.1694  0.3606
 7196W        W11247   0.155   8.000  11.158 -0.0299 -0.0032 -0.0271
 7197W        W11248   1.033   1.789   4.707  0.3253 -0.1555 -0.0142
 7198W        W11249   7.152   6.524   9.098 -0.0781  0.1979  0.0683
 7199W        W11250   1.880   3.193   3.663  0.0858 -0.1704  0.0930
 7200W        W11251   0.309   8.147  13.682  0.0818 -0.1629 -0.1188
 7201W        W11252   5.158   3.682  11.247  0.2369  0.1737  0.0169
 7202W        W11253   4.222   3.200   4.810 -0.1312 -0.1394  0.2621
 7203W        W11254   9.005   5.156   3.657 -0.0229  0.2094 -0.1603
 7204W        W11255   5.931   3.328   0.484  0.0922  0.1505 -0.1577
 7205W        W11256   6.198   1.461  10.097 -0.1460 -0.2048 -0.0065
 7206W        W11257   8.925   2.388   2.496 -0.1968  0.1942  0.0569
 7207W        W11258   9.602   5.811   4.029 -0.0122  0.0231 -0.0019
 7208W        W11259   0.049   2.423  13.596  0.1137  0.0786 -0.0295
 7209W        W11260   6.610   5.882   0.669  0.0154 -0.1599  0.0140
 7210W        W11261   4.737   0.965  12.708 -0.2282  0.2000 -0.0443
 7211W        W11262   1.004   0.963  11.263 -0.1268 -0.1107 -0.1357
 7212W        W11263   8.479   6.967  10.503  0.0667 -0.0342  0.2176
 7213W        W11264   0.993   6.680   0.608  0.1921 -0.2836 -0.0405
 7214W        W11265   9.603   2.638  13.926  0.0693  0.1484  0.1163
 7215W        W11266   5.707   1.804   1.207  0.2458 -0.1234 -0.1921
 7216W        W11267   2.829   7.512   1.959 -0.0554  0.2861  0.2217
 7217W        W11268   6.918   9.936   0.565  0.0125  0.0645  0.2734
 7218W        W11269   7.930   0.853   2.761 -0.0704  0.0353  0.2271
 7219W        W11270   3.419   0.878  13.138 -0.2770 -0.0478  0.0866
 7220W        W11271   1.476   4.129  10.463  0.0641  0.1143 -0.1011
 7221W        W11272   5.707   6.734   1.775 -0.0539 -0.2529 -0.0855
 7222W        W11273   3.950   2.036  12.324 -0.1063 -0.1646  0.2474
 7223W        W11274   5.356   8.961   3.733  0.0537 -0.0812 -0.2202
 7224W        W11275   8.863   0.846   3.996 -0.2551 -0.1630  0.1557
 7225W        W11276   4.840   9.939  10.345  0.3715 -0.0015  0.0419
 7226W        W11277   9.195   1.422   0.118  0.2736  0.1732  0.0850
 7227W        W11278   9.535   9.161  10.088 -0.0948 -0.1420 -0.0966
 7228W        W11279   9.742   7.128   0.256  0.2308 -0.1008  0.0926
 7229W        W11280   1.768   8.556   1.248  0.0024 -0.0568 -0.2813
 7230W        W11281   8.117   8.379  11.812 -0.1097  0.1421  0.1470
 7231W        W11282   0.393   4.026   2.104 -0.1888 -0.1846 -0.3043
 7232W        W11283  10.009   6.499  10.786 -0.0151  0.0846 -0.1226
 7233W        W11284  10.018   6.083  13.022 -0.0683 -0.1274  0.1595
 7234W        W11285   3.954   5.885  13.748 -0.1803  0.0726  0.1610
 7235W        W11286   6.162   7.230  11.552 -0.0924  0.1103 -0.1787
 7236W        W11287   9.244   8.431  13.461 -0.1469 -0.3347 -0.1922
 7237W        W11288   4.114   4.638  10.117  0.1385 -0.2121  0.0613
 7238W        W11289   1.086   0.540   2.410  0.0819  0.3679 -0.1110
 7239W        W11290  10.159   2.737   1.250  0.4659 -0.1898  0.0567
 7240W        W11291   7.978   2.933  12.959 -0.3658 -0.0231 -0.2977
 7241W        W11292   3.777   3.973   0.946 -0.2101 -0.0477  0.3321
 7242W        W11293   1.885   0.127   1.374  0.3452  0.0370 -0.2224
 7243W        W11294   2.578   3.399   0.734 -0.0689 -0.2305  0.1746
 7244W        W11295   9.020   9.959  11.533 -0.2082 -0.0263 -0.0876
 7245W        W11296   0.530   6.945  12.315 -0.0342 -0.0349 -0.0116
 7246W        W11297   6.558   9.932  13.605 -0.1188  0.1651  0.4164
 7247W        W11298   0.231   2.725   0.306  0.2187  0.1804  0.1073
 7248W        W11299   6.767   5.112   2.937  0.0915 -0.1768 -0.1076
 7249W        W11300   9.971   6.300  12.112 -0.1165  0.1692 -0.1049
 7250W        W11301   3.135   3.382   2.292 -0.0301 -0.0552 -0.1196
 7251W        W11302   3.206   3.573   3.968 -0.0965 -0.3131 -0.2065
 7252W        W11303   9.562   5.786  13.739  0.3117 -0.3408 -0.2487
 7253W        W11304   1.883   4.620   2.649  0.1543  0.1418  0.1194
 7254W        W11305   3.380   2.987   0.100 -0.1412  0.2436 -0.0390
 7255W        W11306   1.071   3.275   4.650  0.1995  0.4754  0.0499
 7256W        W11307   4.661   7.849   9.975  0.0693 -0.5943  0.1008
 7257W        W11308   2.056   3.553  13.964 -0.3394 -0.3167 -0.0410
 7258W        W11309   9.768   3.595  13.581 -0.0636 -0.0171 -0.1520
 7259W        W11310   5.382   1.138  13.190 -0.1556  0.0949  0.2092
 7260W        W11311   6.165   7.941   1.670 -0.0668 -0.0992  0.0310
 7261W        W11312   9.646   0.705  12.399 -0.1172  0.3074  0.0183
 7262W        W11313   4.080   3.748  11.700 -0.0014  0.0089  0.0254
 7263W        W11314   0.196   9.559  12.913 -0.1939 -0.0734  0.0911
 7264W        W11315   8.764   7.756  13.749 -0.2107 -0.0778  0.2447
 7265W        W11316   8.410   3.526  12.045 -0.1660  0.0136 -0.0634
 7266W        W11317   4.343   8.282   2.235  0.2194 -0.0932 -0.1010
 7267W        W11318   7.369   5.640   2.983  0.1422 -0.1497  0.0510
 7268W        W11319   1.791   5.567   4.102 -0.2327  0.2225 -0.0141
 7269W        W11320   2.111   8.094   3.341 -0.1765 -0.1874 -0.2170
 7270W        W11321   7.786   2.665  11.868  0.0705 -0.3604 -0.2373
 7271W        W11322   0.735   5.030  13.208 -0.0220 -0.1731 -0.0170
 7272W        W11323  10.177   8.149  12.405 -0.2242 -0.1867 -0.0702
 7273W        W11324   1.310   2.655   0.385  0.2675  0.0769  0.0203
 7274W        W11325   9.715   0.517  11.284 -0.1390 -0.0367 -0.2430
 7275W        W11326   6.092   4.324   1.642  0.3265  0.3580  0.2092
 7276W        W11327   3.657   7.306   1.428 -0.1677 -0.1021  0.0046
 7277W        W11328   8.935   3.438  13.561  0.1760  0.0998  0.2258
 7278W        W11329   2.466   8.820  12.011 -0.2348  0.0104  0.0394
 7279W        W11330   6.111   4.865   9.639 -0.1474  0.3017  0.2169
 7280W        W11331   6.500   1.541   2.327 -0.2573  0.0141  0.0254
 7281W        W11332   6.497   9.454   3.566  0.1291  0.0178 -0.1569
 7282W        W11333   9.132  10.042   3.634 -0.0623 -0.0800  0.0095
 7283W        W11334   2.863   3.452   3.536  0.2281  0.1319  0.0052
 7284W        W11335   8.968   3.758  10.795 -0.1019 -0.0306  0.0690
 7285W        W11336   7.660   5.915  10.060  0.1954 -0.0750 -0.2249
 7286W        W11337   9.380   9.087   1.617  0.2963 -0.1605 -0.1160
 7287W        W11338   0.870   3.373   2.684  0.0233  0.3351  0.0224
 7288W        W11339   0.975   1.623   1.109  0.0101  0.1485  0.0758
 7289W        W11340   5.399   8.290   1.226  0.1747 -0.3590 -0.1491
 7290W        W11341   8.991   2.191   2.954 -0.3509 -0.1417 -0.1643
 7291W        W11342   7.018   8.237   2.091  0.1291 -0.0402  0.2897
 7292W        W11343   6.041   2.084   3.589 -0.2136 -0.1967  0.0168
 7293W        W11344   8.253   5.065  13.800  0.1907  0.6031 -0.0102
 7294W        W11345   3.811   0.973  10.029  0.2540  0.1241 -0.1822
 7295W        W11346   9.124   2.267  11.678 -0.0077 -0.1151 -0.3688
 7296W        W11347   7.331   0.177   1.283  0.1257 -0.3724 -0.0071
 7297W        W11348   8.449   7.117   3.500  0.2866  0.1159 -0.0715
 7298W        W11349   2.314   5.135  11.594 -0.1217  0.0160 -0.1609
 7299W        W11350   6.647   5.172   4.732 -0.2420 -0.0682 -0.2216
 7300W        W11351   1.599   8.367  11.977  0.1228  0.3131  0.1799
 7301W        W11352   9.600   3.562   2.798  0.1644  0.4111 -0.2542
 7302W        W11353   1.460   0.126   1.655 -0.4282 -0.3292 -0.1572
 7303W        W11354   6.667   3.907   0.885 -0.1502  0.0218  0.2883
 7304W        W11355   9.769   8.713   3.747 -0.1180 -0.0041  0.3542
 7305W        W11356   3.871   1.177   0.031 -0.1283 -0.0190 -0.1263
 7306W        W11357   4.210   8.552   0.275  0.0390  0.0674 -0.0035
 7307W        W11358   9.528   3.088   2.640  0.0865  0.4640 -0.1081
 7308W        W11359   2.817   9.939   0.436 -0.2291  0.1097 -0.1314
 7309W        W11360   0.429   4.170   0.139 -0.1129  0.1633 -0.2272
 7310W        W11361   2.609   7.900   0.041  0.1877  0.0659  0.3609
 7311W        W11362   0.683   4.432   0.568 -0.1752 -0.0518  0.1536
 7312W        W11363   8.155   8.588   5.687 -0.2959 -0.1443 -0.1801
 7313W        W11364   2.526   2.979  10.387  0.2715  0.0053 -0.2245
 7314W        W11365   0.565   5.344  10.053  0.0021 -0.4498  0.1014
 7315W        W11366   7.668   9.179  13.968  0.0849 -0.0563 -0.1219
 7316W        W11367   7.227   4.444  10.009  0.1389 -0.1149  0.0989
 7317W        W11368   7.778   9.811   2.404  0.1520  0.0305 -0.5357
 7318W        W11369   1.490  10.089   3.477  0.4134  0.0647  0.1883
 7319W        W11370   2.383   0.377  12.749 -0.1114  0.1483 -0.1431
 7320W        W11371   1.839   9.794   0.006 -0.1552 -0.1208  0.2891
 7321W        W11372   3.279   2.113   1.356 -0.0845 -0.3849 -0.0327
 7322W        W11373   8.404   4.585   1.036  0.0258  0.0476  0.0750
 7323W        W11374   9.304   8.851   9.597  0.3186  0.0706  0.1503
 7324W        W11375   3.338   0.509  13.452 -0.1073 -0.2243 -0.1188
 7325W        W11376   2.769   1.849   3.344  0.1550  0.0258 -0.1679
 7326W        W11377   5.602   0.968   1.612  0.1417 -0.2697  0.0510
 7327W        W11378   1.436   4.966  11.709  0.0051  0.0244 -0.1057
 7328W        W11379   0.103   2.780   3.050  0.3065 -0.2779 -0.1107
 7329W        W11380   4.780   4.538  13.657  0.2198 -0.5665 -0.2385
 7330W        W11381   0.798   1.943  12.985  0.3292  0.0553 -0.0350
 7331W        W11382   3.759   2.804  11.978  0.1877  0.1547 -0.2039
 7332W        W11383   2.026   1.545  10.581  0.2136 -0.1369  0.2334
 7333W        W11384   1.031   7.780   1.916 -0.0983  0.0051 -0.0982
 7334W        W11385   8.805   3.801   1.475 -0.2438  0.2096 -0.1331
 7335W        W11386   4.009   8.928  12.551  0.0150 -0.0138  0.1471
 7336W        W11387   6.221   3.052   5.219  0.0221 -0.0007 -0.1003
 7337W        W11388   6.659   9.204   1.701 -0.1665  0.4104  0.2944
 7338W        W11389   1.376   0.588  12.679 -0.0059 -0.0504  0.1751
 7339W        W11390   8.175   0.259   1.819 -0.1861  0.0352  0.0506
 7340W        W11391   3.931   2.224  10.447  0.2393 -0.0476  0.1705
 7341W        W11392   8.747   4.623  11.503 -0.2077 -0.3312  0.1305
 7342W        W11393   5.196   9.825   4.265 -0.0085 -0.2180 -0.5323
 7343W        W11394   2.959   3.270  13.801 -0.0410 -0.0718  0.1645
 7344W        W11395   4.657   9.795   3.263  0.0330  0.1588  0.3261
 7345W        W11396   8.434   8.958  10.344  0.1396  0.2568  0.1633
 7346W        W11397   8.370   0.356  12.627 -0.2200  0.1287  0.1247
 7347W        W11398   4.670   1.533  13.851  0.0417  0.0694 -0.0192
 7348W        W11399   2.284   1.540   9.065 -0.1591 -0.5061  0.0739
 7349W        W11400   2.149   6.054   0.408 -0.1413  0.0909  0.3749
 7350W        W11401   4.169   4.300  12.572 -0.2216 -0.3021 -0.5240
 7351W        W11402   4.131   4.825   0.130 -0.2500 -0.0699  0.0876
 7352W        W11403   3.176   8.053  11.994  0.3452 -0.0268 -0.0775
 7353W        W11404   5.148   4.769  13.280 -0.3664 -0.3226 -0.1769
 7354W        W11405   2.834  10.175   2.822  0.2159 -0.4836 -0.3271
 7355W        W11406   9.131   2.328  10.256  0.0493 -0.0426 -0.2774
 7356W        W11407   7.864  10.076  13.408 -0.1237  0.1685 -0.2630
 7357W        W11408   2.516   4.765   1.923  0.3079 -0.0468 -0.1495
 7358W        W11409   8.303   6.221   5.217  0.2102 -0.1572  0.4980
 7359W        W11410   7.959   3.443   3.862 -0.0844  0.0759 -0.1913
 7360W        W11411   8.432   8.705   9.484 -0.2220  0.1432 -0.0815
 7361W        W11412   5.707   2.884   2.844  0.0222 -0.0996  0.0884
 7362W        W11413   1.352   1.180  13.970 -0.5922 -0.1906  0.1071
 7363W        W11414   6.309   1.440   5.538 -0.0328  0.0273 -0.1996
 7364W        W11415   7.458   2.939  12.210 -0.2901 -0.1127  0.1237
 7365W        W11416   9.045   9.963  12.843  0.0288  0.0550  0.1516
 7366W        W11417   5.495   4.922   2.850  0.0043 -0.0605  0.1888
 7367W        W11418  10.082   4.228   2.247 -0.1510  0.1485 -0.0090
 7368W        W11419  10.160   8.523   1.119 -0.0507 -0.0925  0.0838
 7369W        W11420   9.538   6.732   0.585  0.0320  0.0595 -0.0055
 7370W        W11421   3.098   5.552   0.697 -0.0924  0.0988 -0.3417
 7371W        W11422  10.101   4.213  12.161 -0.3189 -0.1230 -0.0221
 7372W        W11423   8.885   2.222   8.596 -0.1759  0.1322 -0.2020
 7373W        W11424   5.533   2.225  12.282 -0.0595  0.1351  0.1537
 7374W        W11425   4.760   1.952  11.765  0.2316  0.0306  0.0417
 7375W        W11426   6.227   2.331   0.884  0.0219  0.0534 -0.0592
 7376W        W11427   2.746   7.362   0.927 -0.4492  0.2051 -0.2133
 7377W        W11428   8.601   5.310   5.100  0.0832  0.0686  0.1996
 7378W        W11429   9.250   7.867  13.226 -0.3303 -0.0680 -0.2396
 7379W        W11430   0.051   9.754  10.219  0.4462  0.0989 -0.3208
 7380W        W11431   5.337   3.412  13.265 -0.1138 -0.0553  0.0884
 7381W        W11432   9.518   8.560   4.563 -0.1015 -0.1166  0.1954
 7382W        W11433   5.368   2.211   4.311 -0.0680 -0.0611 -0.1965
 7383W        W11434   2.164   7.946  12.465  0.1831  0.0331  0.3257
 7384W        W11435   6.741   3.354  11.718 -0.2539 -0.0864  0.1942
 7385W        W11436   5.364   7.885   2.732 -0.1690 -0.0409 -0.1356
 7386W        W11437   8.878   9.720  11.107 -0.2797  0.0626  0.2036
 7387W        W11438   6.029   0.641   5.568 -0.1184  0.2889  0.0037
 7388W        W11439   8.286   3.310   0.828 -0.0007  0.0230 -0.1014
 7389W        W11440   5.942   1.570  10.491 -0.2479  0.1338  0.2013
 7390W        W11441   3.929   2.230   3.250 -0.0682 -0.1270  0.0764
 7391W        W11442   1.402   6.950  11.431  0.2409 -0.3808  0.1393
 7392W        W11443   9.456   1.165  11.060 -0.2365  0.0017 -0.1091
 7393W        W11444   6.013   0.831  11.421 -0.2749  0.4774 -0.0364
 7394W        W11445   2.855   8.824   2.505 -0.1697  0.0102 -0.0627
 7395W        W11446   5.302   7.119  12.594 -0.0103 -0.0142  0.0335
 7396W        W11447   9.868   8.312   4.069  0.1661  0.1593  0.1110
 7397W        W11448   4.270   7.808  11.285 -0.1038  0.0388  0.0978
 7398W        W11449   0.709   5.928   1.830 -0.2857  0.3317 -0.1131
 7399W        W11450   2.215   7.453  10.695 -0.1055 -0.1768  0.1228
 7400W        W11451   8.039   4.475   3.947  0.1728 -0.0825  0.1692
 7401W        W11452   8.127   2.236   9.843 -0.1518  0.0907 -0.3323
 7402W        W11453   9.637   7.281  13.237  0.2517 -0.2412  0.0857
 7403W        W11454   0.528   8.486   3.469  0.2142  0.0693 -0.1586
 7404W        W11455   4.286   5.922   2.866  0.3338  0.0253  0.1709
 7405W        W11456   7.042   9.912   1.696  0.0363 -0.0531  0.3471
 7406W        W11457   2.570   5.129   1.457 -0.1175 -0.2810 -0.1112
 7407W        W11458   5.477   3.429   2.435  0.0176 -0.4545 -0.2821
 7408W        W11459   6.467   4.462   1.861 -0.1252 -0.3000  0.1136
 7409W        W11460   3.093   9.801   1.692 -0.1971  0.1308  0.2022
 7410W        W11461   1.898   9.290   2.430 -0.1318  0.4818  0.1909
 7411W        W11462   1.299   7.285   9.940 -0.0347  0.0446  0.1874
 7412W        W11463   0.121   3.469  12.136  0.1405 -0.0131 -0.0599
 7413W        W11464   6.085   8.350   2.488  0.1631  0.1648 -0.1301
 7414W        W11465   2.661   2.223   3.697  0.0247  0.0847 -0.1721
 7415W        W11466   7.438   7.508   1.753 -0.0853 -0.1696 -0.0423
 7416W        W11467   2.863   0.736   1.407 -0.0505  0.0359  0.2144
 7417W        W11468   6.887   2.118  10.831 -0.1008 -0.1204  0.1295
 7418W        W11469   0.222   3.254   1.613 -0.2032  0.4765 -0.3166
 7419W        W11470   6.943   4.060  10.212  0.1809  0.3856 -0.1055
 7420W        W11471   2.258   0.764  13.047 -0.3091 -0.4918  0.0284
 7421W        W11472   1.362   4.740  10.068 -0.1055  0.0057  0.0449
 7422W        W11473   1.634   5.955   1.339 -0.1767 -0.2710 -0.0446
 7423W        W11474   6.221   4.246   2.222  0.0547 -0.3375  0.1829
 7424W        W11475   2.664   2.447   4.120  0.2358  0.1340 -0.3310
 7425W        W11476   9.030   3.166   1.328  0.1100 -0.1366 -0.0495
 7426W        W11477   5.108   0.473  10.305 -0.1290 -0.1104 -0.0074
 7427W        W11478   1.869   4.664   0.785  0.1075 -0.2873 -0.1531
 7428W        W11479   2.588   5.575   3.426 -0.0348  0.0130  0.0690
 7429W        W11480   2.458   6.160   0.757 -0.1156  0.0457  0.0002
 7430W        W11481   5.182   0.128   9.493  0.1327  0.0444  0.2155
 7431W        W11482   9.595   0.666   2.018  0.0251  0.2278  0.0034
 7432W        W11483   8.138   1.340  13.763 -0.1672  0.2430 -0.1647
 7433W        W11484   1.243   3.673  12.279  0.1292 -0.1492  0.0270
 7434W        W11485   6.323   3.795   9.769  0.0925 -0.2652 -0.1581
 7435W        W11486   4.105   5.286  11.476  0.1880 -0.0230  0.0710
 7436W        W11487   0.783   6.483  12.843 -0.1811 -0.0363  0.0068
 7437W        W11488   0.063   6.029  12.490 -0.0196  0.1155 -0.0497
 7438W        W11489   0.980   1.354   4.516  0.0296 -0.2184  0.1078
 7439W        W11490   6.206   9.333   8.885  0.0613 -0.1635  0.0918
 7440W        W11491   1.147   5.453  11.600  0.0550 -0.0798 -0.1838
 7441W        W11492   2.190   3.197  12.031  0.0348 -0.4446  0.3068
 7442W        W11493   9.323   5.747  11.679  0.1291  0.1413 -0.0032
 7443W        W11494  10.023   0.270   3.426 -0.0901 -0.1225  0.1053
 7444W        W11495   4.095   8.792  13.611 -0.2223 -0.0768  0.2130
 7445W        W11496   6.526   7.741   1.412  0.0451  0.5201  0.0045
 7446W        W11497   8.861   1.748  10.282  0.0356  0.2362  0.2307
 7447W        W11498   1.154   6.789   0.083 -0.1448 -0.0149  0.0707
 7448W        W11499  10.127   0.977  10.154 -0.0932 -0.0609 -0.0191
 7449W        W11500   6.525   8.837   4.434 -0.0004  0.0608 -0.1114
 7450W        W11501   1.721   7.663  13.550 -0.0673  0.1225 -0.0614
 7451W        W11502   3.433   1.429  13.916  0.1477 -0.0861  0.1031
 7452W        W11503   6.011   7.574  11.102  0.2190 -0.0754 -0.0185
 7453W        W11504   0.078   2.428  13.030  0.1667  0.0411 -0.2958
 7454W        W11505   8.561   3.541   2.989  0.2821 -0.0847  0.0950
 7455W        W11506   3.934   7.763   1.320  0.0194 -0.1895 -0.2020
 7456W        W11507   6.597   5.061  13.261  0.0533 -0.3206  0.0563
 7457W        W11508   4.384   9.735  12.321  0.0886  0.1740 -0.4720
 7458W        W11509   6.077   5.907   1.828  0.0048 -0.0254  0.1941
 7459W        W11510   2.888   9.508  11.412  0.3700 -0.1016 -0.0369
 7460W        W11511   4.604   3.219   0.610 -0.0022  0.0218 -0.0691
 7461W        W11512   3.770   1.203   3.009  0.2027 -0.0335 -0.0369
 7462W        W11513   7.026   3.037  10.457  0.2218  0.2920  0.1198
 7463W        W11514   5.278   6.909  11.608 -0.1601 -0.0269 -0.0883
 7464W        W11515   1.166   4.230  13.572 -0.2912  0.1230 -0.1439
 7465W        W11516   7.094   6.838  10.449  0.3068 -0.1210 -0.0308
 7466W        W11517   6.870   0.201   3.212 -0.0774  0.1989  0.1298
 7467W        W11518   5.587   7.131   0.475  0.1336 -0.0424 -0.1723
 7468W        W11519   3.924   1.467  10.242 -0.2175 -0.0408  0.2215
 7469W        W11520   9.855   2.672  13.422 -0.1470  0.0862  0.2895
 7470W        W11521   6.018   4.846   4.277 -0.2672 -0.3986  0.2893
 7471W        W11522   9.073   4.640   3.819 -0.0080  0.0298 -0.1237
 7472W        W11523   6.916   5.699   1.479  0.1561  0.0914  0.0392
 7473W        W11524   2.653   6.166  10.945  0.0706 -0.1113  0.1233
 7474W        W11525   9.879   9.368  13.879  0.2029 -0.1032 -0.1415
 7475W        W11526   9.771   3.878   3.792  0.0042 -0.1791 -0.1361
 7476W        W11527   4.130   8.995  11.093  0.0427 -0.1099 -0.4730
 7477W        W11528   3.232   4.148  11.458  0.2921  0.0610 -0.1552
 7478W        W11529   5.064   8.085  10.276  0.0723  0.0708  0.1813
 7479W        W11530   7.995   7.392   1.407 -0.0478 -0.0398  0.5100
 7480W        W11531   2.281   2.843   1.003 -0.0963 -0.1438 -0.0688
 7481W        W11532   1.763   2.381   0.330  0.1069 -0.2034 -0.1964
 7482W        W11533   4.215   7.597  13.806  0.0293 -0.1646 -0.0185
 7483W        W11534   7.731   2.896  11.260 -0.3531  0.0123 -0.0275
 7484W        W11535   2.637   8.279  10.628 -0.2308 -0.0081  0.0483
 7485W        W11536   9.692   1.808  13.389 -0.1065  0.0208 -0.0094
 7486W        W11537   0.569   3.490   3.461 -0.1169 -0.2864  0.4344
 7487W        W11538   5.331   1.732   4.524 -0.0969 -0.1058 -0.1996
 7488W        W11539   8.941   3.555  12.067  0.0675  0.4023 -0.2077
 7489W        W11540   8.940   8.724  10.897  0.0562  0.2472 -0.1450
 7490W        W11541   4.786   1.837   4.394 -0.1577  0.3025  0.0282
 7491W        W11542   0.242   7.853   4.718  0.0067  0.3812  0.1419
 7492W        W11543  10.122   8.203  13.245 -0.1434  0.0213  0.0106
 7493W        W11544   1.274   9.546   1.258 -0.0507  0.0735  0.2489
 7494W        W11545   8.236   7.387  10.824 -0.0917  0.0991  0.2466
 7495W        W11546   8.201   1.829   9.320 -0.0357 -0.1667  0.0904
 7496W        W11547   9.462   2.709   3.653 -0.4039 -0.2572 -0.4029
 7497W        W11548   2.248  10.122  13.195 -0.0308  0.0928 -0.0395
 7498W        W11549   9.547   9.445   1.290 -0.0872 -0.1111  0.0329
 7499W        W11550   6.066   7.544   1.194  0.0442 -0.2163 -0.1155
 7500W        W11551   0.416   6.714  13.818  0.0586  0.2213  0.1992
 7501W        W11552   5.842   0.263   3.623 -0.0435 -0.1151  0.1096
 7502W        W11553   9.484   6.281  13.648 -0.2234  0.0708 -0.0415
 7503W        W11554   7.171   4.427   2.329 -0.1652 -0.2058  0.2065
 7504W        W11555   3.146   3.155  12.357  0.3128  0.2627  0.1182
 7505W        W11556   8.255   3.509   2.311  0.4087  0.4638 -0.0362
 7506W        W11557   6.672   0.753  11.928  0.2496  0.0646 -0.2833
 7507W        W11558   4.193   9.369  12.059 -0.0805 -0.4315 -0.3895
 7508W        W11559   7.279   2.864  13.940  0.0173 -0.0159 -0.0180
 7509W        W11560   5.136   3.695  13.789  0.1009 -0.0034  0.1793
 7510W        W11561   6.125   6.972   3.617  0.1147  0.1724 -0.0731
 7511W        W11562   8.954   4.864  11.081 -0.1213  0.3487 -0.2382
 7512W        W11563   6.057   9.284   0.597 -0.2069 -0.1805  0.0722
 7513W        W11564   4.647   6.089  13.430 -0.2955  0.2607 -0.0869
 7514W        W11565   8.733   9.195  13.286 -0.3661 -0.5179 -0.0793
 7515W        W11566   4.634   4.992   2.447  0.2261 -0.3736 -0.0899
 7516W        W11567   8.573   6.488  11.322  0.0442  0.0456 -0.2872
 7517W        W11568   8.192   2.798   3.486  0.0123  0.0902  0.0215
 7518W        W11569   0.016   2.672   5.131  0.0182  0.2175  0.2057
 7519W        W11570   3.519  10.141  10.519  0.1169 -0.2384  0.1708
 7520W        W11571   0.391   0.063   3.609  0.0673 -0.1771 -0.2330
 7521W        W11572   2.373   6.548  13.670 -0.2533 -0.1430 -0.3053
 7522W        W11573   5.948   4.605   2.969  0.3473  0.0228 -0.0350
 7523W        W11574   3.703   1.797   5.200  0.0982  0.0446 -0.1567
 7524W        W11575   1.549  10.081   0.523  0.0564 -0.1520 -0.2769
 7525W        W11576   0.385   2.239   0.042 -0.4563 -0.0638  0.0506
 7526W        W11577   0.175   7.225   1.875 -0.0591  0.2300  0.0678
 7527W        W11578  10.013   4.935   4.992  0.0841  0.0402 -0.2622
 7528W        W11579   3.808   8.432  10.768 -0.4433  0.0758  0.3406
 7529W        W11580   2.045   0.177   4.113 -0.2603 -0.3878 -0.0903
 7530W        W11581   4.514   0.065   3.240 -0.2253  0.4930 -0.0086
 7531W        W11582   5.741   0.510  13.523 -0.3140 -0.0402  0.0073
 7532W        W11583   0.971   6.808  13.205  0.4105  0.5919 -0.0596
 7533W        W11584   2.038   0.003   9.409 -0.1036 -0.0073 -0.3736
 7534W        W11585   9.518   5.562   0.250  0.3061  0.0980  0.2382
 7535W        W11586   2.855   8.616  13.574 -0.0043 -0.2555  0.1530
 7536W        W11587   9.768   2.963   4.115 -0.1077  0.0303 -0.2484
 7537W        W11588   0.187   2.078   0.948  0.2846  0.1896  0.1094
 7538W        W11589   3.522   9.243   0.869  0.0432  0.2666 -0.3245
 7539W        W11590   1.255   8.705   3.508  0.0829  0.0164 -0.0882
 7540W        W11591  10.146   2.951  12.182  0.1815  0.3117  0.2793
 7541W        W11592   6.546   7.974  10.512 -0.0715  0.3207 -0.1142
 7542W        W11593   4.206   4.326  10.535 -0.0888 -0.0831  0.0979
 7543W        W11594   6.843   6.304  13.961  0.0902 -0.2458 -0.2352
 7544W        W11595   8.324   7.060   1.252  0.0867  0.1413 -0.1421
 7545W        W11596   4.766   7.070   1.753 -0.1425 -0.1751 -0.0989
 7546W        W11597   8.756   6.062   3.288 -0.1972 -0.0460 -0.2092
 7547W        W11598   8.890   9.238  10.849 -0.1616 -0.1513 -0.1651
 7548W        W11599   6.203  10.059   3.833 -0.2235 -0.1596 -0.0744
 7549W        W11600   9.109   8.041   0.171 -0.3718 -0.2312  0.3775
 7550W        W11601   5.681   4.939  13.482 -0.1580 -0.2555 -0.0150
 7551W        W11602   7.062   3.252   1.372  0.1361  0.0882 -0.3589
 7552W        W11603   9.925   0.278   1.521  0.1478  0.0260 -0.1809
 7553W        W11604   7.227  10.062  11.872  0.1489 -0.1421  0.1053
 7554W        W11605   8.741   4.791  10.575 -0.0771  0.3188 -0.3061
 7555W        W11606   4.954   6.176   0.610 -0.2266  0.0105 -0.0305
 7556W        W11607   5.949   3.887  13.753  0.1450  0.0618 -0.0796
 7557W        W11608   0.919   9.267   1.753 -0.1015 -0.0148 -0.2019
 7558W        W11609   6.675   8.109   0.047  0.0220 -0.0230 -0.0608
 7559W        W11610  10.072   4.423  13.358  0.3264 -0.1143 -0.1988
 7560W        W11611   5.959   2.224   9.137  0.2916  0.0365 -0.0324
 7561W        W11612   0.135   7.352   3.770 -0.1322 -0.1139  0.2116
 7562W        W11613   8.774   8.321  13.929  0.3287  0.3709  0.3309
 7563W        W11614   1.697   3.310  13.668  0.3068 -0.3033  0.0423
 7564W        W11615   5.892   1.705   0.391  0.0404  0.0908 -0.1335
 7565W        W11616   4.470   1.395  11.710 -0.2413 -0.0275 -0.1169
 7566W        W11617   3.541   1.211  12.473  0.3404 -0.0953 -0.2749
 7567W        W11618   1.010   4.402   0.957  0.2298  0.0667 -0.0208
 7568W        W11619   2.851   6.934  13.690 -0.0681 -0.0079  0.1000
 7569W        W11620   1.817   3.034   9.157  0.1174 -0.1829 -0.0541
 7570W        W11621   9.317   1.885   3.955 -0.2829 -0.1365  0.3117
 7571W        W11622   7.382   4.818   1.221  0.0218  0.0899  0.1928
 7572W        W11623   0.289   1.808  11.325  0.0927  0.1385  0.1911
 7573W        W11624   8.457   0.809   3.761  0.1479 -0.0630 -0.0420
 7574W        W11625   6.230   3.031   0.196  0.0175  0.0285 -0.1392
 7575W        W11626   6.820   2.592   1.411  0.3064 -0.0875 -0.1505
 7576W        W11627   6.340   2.582   2.094 -0.2609 -0.1502  0.0844
 7577W        W11628   0.319   2.791  13.380 -0.1122  0.3720 -0.0343
 7578W        W11629   3.210   5.637  10.116  0.0193  0.1218  0.2118
 7579W        W11630   2.366   1.642  10.891 -0.1464 -0.0223 -0.0181
 7580W        W11631   5.077   4.293   4.869  0.1749 -0.1528 -0.0144
 7581W        W11632   2.741   4.423  11.315  0.1107 -0.0626  0.0940
 7582W        W11633   0.528   2.876  12.377  0.0144  0.1882 -0.0881
 7583W        W11634   5.598   3.457   3.677 -0.2765 -0.1380  0.0174
 7584W        W11635   0.191   1.298  12.638 -0.1939 -0.0614 -0.1619
 7585W        W11636   7.863   4.295   1.794 -0.0639 -0.3060 -0.0277
 7586W        W11637   6.914   5.503   4.178  0.1808  0.2464  0.3236
 7587W        W11638   1.886   9.192  10.875  0.2773  0.1267  0.2265
 7588W        W11639   7.649   9.633   2.847  0.0523  0.0465  0.3036
 7589W        W11640   3.299   3.796   1.847  0.1703 -0.0120  0.1686
 7590W        W11641   1.357   5.738   2.189  0.1346 -0.1776  0.0474
 7591W        W11642   5.337   6.061   4.957 -0.0414 -0.0532  0.0494
 7592W        W11643   9.567   4.762  12.615  0.0827 -0.0374 -0.4318
 7593W        W11644   7.125   7.289  11.518  0.3455 -0.4475 -0.6460
 7594W        W11645   0.364   1.521   3.072 -0.1086 -0.2321 -0.0689
 7595W        W11646   4.073   1.127  13.558 -0.3107  0.1608  0.1539
 7596W        W11647   9.047   9.869  10.633 -0.1543 -0.0389 -0.1850
 7597W        W11648   5.888   6.876  11.765 -0.0363  0.1306  0.1886
 7598W        W11649   0.063  10.012  13.201  0.0040 -0.1551  0.0067
 7599W        W11650   1.614   3.795  13.606 -0.0475  0.1024 -0.3100
 7600W        W11651   4.794   4.094  11.403 -0.2401  0.0712  0.0396
 7601W        W11652   7.316   9.067   0.322 -0.0454 -0.3815  0.1434
 7602W        W11653   0.926   6.256   3.005  0.0950 -0.1394  0.0376
 7603W        W11654   9.548   2.478  10.527  0.1247  0.3089 -0.0736
 7604W        W11655   7.175   3.403  10.762  0.0605 -0.2445  0.1709
 7605W        W11656   7.181   7.778   3.565  0.0466 -0.1650 -0.1140
 7606W        W11657   5.217   8.588  11.034  0.1944 -0.1997  0.2556
 7607W        W11658   2.380   0.708   2.964 -0.1079  0.2839 -0.1139
 7608W        W11659   3.194   8.186   0.611  0.1761  0.0897 -0.1922
 7609W        W11660   9.383   1.851  10.141 -0.3597 -0.1694 -0.1906
 7610W        W11661   9.986   2.594  10.701  0.1172  0.0032 -0.0131
 7611W        W11662   3.378   4.369   1.137  0.0778  0.1655  0.2573
 7612W        W11663   8.284   8.720  12.613  0.1085  0.1180  0.1041
 7613W        W11664   4.525   7.399  11.204  0.1882  0.1523  0.1986
 7614W        W11665   1.811   2.194   4.200 -0.1004 -0.2545 -0.2132
 7615W        W11666   7.915   4.234  12.814 -0.0236  0.1289  0.3273
 7616W        W11667   3.644   9.659   1.770  0.1789  0.1847 -0.3225
 7617W        W11668   9.223   1.411  10.084  0.0782  0.2982  0.0691
 7618W        W11669   2.837   1.984   4.900  0.0224 -0.0516  0.0875
 7619W        W11670   4.571   1.678  12.172 -0.2906  0.2141  0.1154
 7620W        W11671   4.537   5.545  11.408 -0.0628  0.2136  0.0377
 7621W        W11672   9.071   4.936  13.819  0.1043  0.1370 -0.1704
 7622W        W11673   8.426   2.804   0.698 -0.5644 -0.1751  0.0955
 7623W        W11674   7.081   1.154   0.471 -0.1009  0.0407 -0.0844
 7624W        W11675   9.992   2.453  10.175  0.2562  0.1530  0.0360
 7625W        W11676   5.903   3.551  11.477 -0.0287  0.2621 -0.3129
 7626W        W11677   5.440   3.399   9.939  0.1134 -0.1862 -0.1197
 7627W        W11678   8.494   5.379   9.360 -0.1762  0.1340  0.1901
 7628W        W11679   7.915   8.835  11.748  0.0660 -0.2380 -0.1689
 7629W        W11680   6.681   0.930   2.636 -0.2195  0.3396 -0.1130
 7630W        W11681   1.384   7.684   0.965 -0.0964 -0.3356 -0.0563
 7631W        W11682   7.190   9.041   8.383  0.0624 -0.2534 -0.0940
 7632W        W11683   6.105   2.947   9.343 -0.1216 -0.4681 -0.1160
 7633W        W11684   4.385   7.229   0.214  0.0639 -0.0151  0.1628
 7634W        W11685   2.742   4.796  13.696 -0.0168  0.0775 -0.1632
 7635W        W11686   4.636   3.462   2.048 -0.2334 -0.2974  0.0824
 7636W        W11687   4.944   9.512  10.080  0.2583 -0.0535  0.0801
 7637W        W11688   3.627   7.995   3.204 -0.0977  0.2736  0.2639
 7638W        W11689   2.839   2.801   0.893 -0.1231 -0.3120 -0.0043
 7639W        W11690   7.563   2.913   2.493  0.1330 -0.5358  0.3871
 7640W        W11691   0.977   2.483  13.968 -0.0289  0.3253 -0.0456
 7641W        W11692   6.672   0.703   3.877  0.0975 -0.0461 -0.2236
 7642W        W11693   9.144   1.746  11.671 -0.4014 -0.1584 -0.0526
 7643W        W11694   0.172   6.197   2.738  0.1670 -0.1476  0.0198
 7644W        W11695   7.502   5.497  13.236  0.1444  0.1260  0.1653
 7645W        W11696   1.400   9.631  13.820 -0.0011  0.1096  0.2517
 7646W        W11697   0.659   7.535  13.787  0.0223 -0.1823 -0.1048
 7647W        W11698   1.143   5.740   1.656  0.0712  0.1839 -0.0557
 7648W        W11699   5.049   0.817   3.811 -0.4044 -0.0749  0.1397
 7649W        W11700   0.322   8.867   1.107  0.3426 -0.0043  0.2703
 7650W        W11701   2.207   3.090  13.563 -0.1711  0.0101 -0.3420
 7651W        W11702   2.864   2.120  13.609  0.1124 -0.0560  0.0981
 7652W        W11703   9.288   1.038  12.107 -0.1277  0.1650 -0.0123
 7653W        W11704   8.985   2.844   2.697 -0.0239 -0.1710  0.2040
 7654W        W11705   2.403   1.843  11.799 -0.4473 -0.2683  0.3303
 7655W        W11706   0.053   8.998  12.346 -0.1318 -0.1670  0.0439
 7656W        W11707   6.927   6.232  13.475  0.2503  0.0594  0.0255
 7657W        W11708   1.333   9.670   3.785 -0.0421 -0.2424 -0.2456
 7658W        W11709   8.752   8.834   3.391 -0.2375  0.0934 -0.1802
 7659W        W11710   8.728   7.234   1.462 -0.0797 -0.0052 -0.3925
 7660W        W11711   8.243   6.987  13.067 -0.1197 -0.0677 -0.1807
 7661W        W11712   3.765   8.030   0.857  0.1412 -0.0947  0.0084
 7662W        W11713   6.813   4.081  11.711 -0.0651 -0.0733  0.1047
 7663W        W11714   4.213   9.635   2.469  0.2621 -0.1256 -0.0628
 7664W        W11715   1.749   5.530   0.493  0.0804  0.1280  0.0328
 7665W        W11716   7.237   1.229  13.606 -0.1566  0.1950 -0.0777
 7666W        W11717   5.882   4.062   4.978 -0.2462 -0.0345 -0.1586
 7667W        W11718   4.061   2.694  12.406 -0.0435 -0.2327 -0.1889
 7668W        W11719   7.107   7.172  10.010 -0.0336  0.2040  0.0660
 7669W        W11720  10.072   7.779   3.362 -0.0178 -0.0632  0.2414
 7670W        W11721   1.295   5.697   0.186 -0.1018 -0.3000  0.3605
 7671W        W11722   7.615   8.304  12.830 -0.3005 -0.0020 -0.4142
 7672W        W11723   2.456   8.568   2.229  0.1743 -0.3631 -0.0988
 7673W        W11724   1.907   5.007   3.955 -0.2784  0.3386  0.1908
 7674W        W11725   9.787   1.965   4.141  0.0611  0.0305  0.1147
 7675W        W11726   5.406   1.533   5.297  0.2883 -0.0120  0.0940
 7676W        W11727   4.926   9.267  11.558  0.4216  0.0206 -0.1620
 7677W        W11728   9.657   9.237  13.318  0.0787  0.0601  0.0668
 7678W        W11729   6.613   7.476  11.450  0.1069  0.2914  0.0607
 7679W        W11730   8.885   0.462   2.790  0.4181  0.1376 -0.0031
 7680W        W11731   9.636   6.555   0.154 -0.2771 -0.1699  0.1343
 7681W        W11732   7.782   8.310   3.277  0.0039  0.0584  0.0238
 7682W        W11733   5.125   2.606  12.366 -0.1320  0.2690 -0.0581
 7683W        W11734   3.898   8.430   3.147  0.3133  0.0903  0.1619
 7684W        W11735   0.265   7.495   2.300  0.1171  0.0136 -0.1476
 7685W        W11736   6.430   9.672   0.469 -0.0896 -0.2877  0.2325
 7686W        W11737   3.112   2.112   0.430  0.2308 -0.0661 -0.0201
 7687W        W11738   3.795   5.031   0.383  0.2177 -0.2997 -0.0830
 7688W        W11739   3.103   7.812  13.761  0.0470 -0.0335 -0.2407
 7689W        W11740   9.728   4.159  11.757  0.1061  0.2605  0.2272
 7690W        W11741   6.994   1.009   4.757 -0.2721 -0.0561  0.0678
 7691W        W11742   7.789   4.036   3.201 -0.3616 -0.1340  0.0771
 7692W        W11743   7.302   9.283  13.166 -0.3690  0.1778  0.1228
 7693W        W11744   3.303   6.476   0.088  0.0388 -0.1326 -0.4742
 7694W        W11745   0.687   5.317   1.298 -0.0386 -0.1073  0.1822
 7695W        W11746   7.782   0.093   4.366  0.1381 -0.0650 -0.0291
 7696W        W11747   7.562   1.994  12.749  0.2070 -0.1609  0.0870
 7697W        W11748   1.616   4.003  10.931  0.0069  0.2320 -0.2623
 7698W        W11749   9.349   0.669   3.800 -0.0384 -0.0257 -0.1338
 7699W        W11750   9.496   2.701   0.489 -0.1664  0.0875 -0.0385
 7700W        W11751   1.438   4.692   3.021  0.2143 -0.0306  0.0821
 7701W        W11752   5.563   2.838   3.618  0.1674  0.2588 -0.0969
 7702W        W11753   0.024   4.784   1.128 -0.1797 -0.0019 -0.0292
 7703W        W11754   8.522   5.536   2.733  0.1207  0.0061  0.6541
 7704W        W11755   9.045   9.074   9.944 -0.3343 -0.2439  0.1355
 7705W        W11756   0.579   6.374  11.211  0.2066  0.2303 -0.1565
 7706W        W11757   9.001   6.704   9.835  0.2093  0.0047  0.2091
 7707W        W11758   9.409   5.957  13.287 -0.0160  0.1976  0.1656
 7708W        W11759   8.921   4.457   9.196 -0.1135 -0.0285 -0.0386
 7709W        W11760   7.532   2.408   3.841 -0.0201  0.2032  0.2850
 7710W        W11761   2.500   8.193   1.916 -0.0731 -0.0245 -0.2088
 7711W        W11762   1.373   8.425  10.679 -0.3596  0.0467  0.2545
 7712W        W11763   7.507   4.732  10.344  0.2267 -0.2148 -0.1154
 7713W        W11764   7.356   4.183   4.811  0.1973 -0.0658  0.1475
 7714W        W11765   8.096   1.762   5.473 -0.0273  0.0289 -0.0479
 7715W        W11766   9.768   4.707   0.911  0.2123 -0.1334  0.2468
 7716W        W11767  10.047   3.743  11.776 -0.2191  0.0862 -0.2193
 7717W        W11768   0.458   4.451   4.302 -0.1380 -0.1608 -0.0898
 7718W        W11769   2.858   2.416  11.999 -0.3046 -0.2405  0.0354
 7719W        W11770   8.535   0.715  11.757  0.3502 -0.3612 -0.1267
 7720W        W11771   7.028   4.780   8.929  0.3978 -0.3192  0.1858
 7721W        W11772   5.457   9.885   9.755  0.0915 -0.0811 -0.0528
 7722W        W11773   1.147   7.744  10.304  0.0091  0.1830 -0.1116
 7723W        W11774   4.264   9.053  10.411 -0.1446 -0.0294  0.0398
 7724W        W11775   3.374   4.245   2.249 -0.2625 -0.2808 -0.1771
 7725W        W11776   3.065   6.051   2.143  0.1558 -0.2007  0.3357
 7726W        W11777   7.715   7.702  10.812  0.4618  0.0669  0.1824
 7727W        W11778   0.408   3.538   2.906 -0.1361 -0.1311  0.0783
 7728W        W11779   5.347   3.537   5.513 -0.0333 -0.3303 -0.4207
 7729W        W11780   7.048   9.263   3.398 -0.2461 -0.1617 -0.1413
 7730W        W11781   1.896   1.806   1.882  0.1313 -0.2012 -0.0806
 7731W        W11782   2.506   4.978  10.175  0.1142  0.0123 -0.1923
 7732W        W11783   7.676   2.381   2.679  0.2696  0.0368  0.0999
 7733W        W11784   5.560   3.018   1.858  0.2245 -0.0590 -0.1127
 7734W        W11785   8.451   0.510  13.107 -0.0015  0.0803 -0.1132
 7735W        W11786   1.193   0.087  11.811  0.0044 -0.0564 -0.1730
 7736W        W11787   6.519   6.228  13.104  0.3073 -0.2777  0.1384
 7737W        W11788   5.560   2.376  10.685 -0.0652  0.1832 -0.0064
 7738W        W11789   9.178   7.229  13.004 -0.0789 -0.0228  0.3035
 7739W        W11790   6.865   5.238   1.409  0.0403  0.1787  0.3409
 7740W        W11791   9.304   7.671  11.120 -0.1461  0.0854 -0.0046
 7741W        W11792   8.780   4.007  12.726 -0.1172  0.0985  0.1732
 7742W        W11793   2.708   8.562   1.651 -0.2967 -0.3082  0.1477
 7743W        W11794   9.946   2.346   1.624 -0.1285 -0.0305  0.0335
 7744W        W11795   1.020   4.875   2.749 -0.2292 -0.2053 -0.1256
 7745W        W11796   4.023   0.442   2.413  0.0267  0.0658 -0.3502
 7746W        W11797   9.569   1.107   3.728 -0.0779  0.0861 -0.4420
 7747W        W11798   9.718   7.076  10.692 -0.0678 -0.2184  0.3050
 7748W        W11799   2.571   5.673  12.791 -0.1159 -0.1838 -0.0171
 7749W        W11800  10.043   7.966  13.752  0.0432  0.1268  0.3893
 7750W        W11801   5.315   1.049  12.025  0.4716  0.1593  0.0195
 7751W        W11802   1.080   4.245   2.720 -0.1754 -0.0606 -0.2325
 7752W        W11803   7.226   9.001   0.801 -0.1693 -0.1738  0.0662
 7753W        W11804   6.636   2.331   1.746 -0.0525  0.1873 -0.4334
 7754W        W11805   6.703   6.061  10.931 -0.0599  0.2022  0.0902
 7755W        W11806   5.320   6.958  13.949  0.0226  0.0826 -0.0674
 7756W        W11807   7.006   9.884   9.356  0.0542 -0.0792  0.0254
 7757W        W11808   6.265   8.508  11.696  0.1539 -0.0670 -0.2048
 7758W        W11809   9.248   1.688  11.172 -0.2686  0.1687  0.0210
 7759W        W11810   8.378   2.185   2.266  0.0267  0.1716 -0.1715
 7760W        W11811   8.796   7.778  10.979 -0.0406 -0.0157 -0.2025
 7761W        W11812   5.312   4.307   2.343 -0.1794  0.0411 -0.1796
 7762W        W11813   3.540   6.598  12.227  0.2372 -0.0183 -0.2552
 7763W        W11814   2.150   9.458   1.003  0.2060 -0.0176  0.0008
 7764W        W11815   5.713   6.995  12.279  0.0317  0.2233  0.0366
 7765W        W11816   1.157   9.623  11.407 -0.0965 -0.0155  0.0009
 7766W        W11817   1.269   8.626  11.243  0.0111  0.0670 -0.1594
 7767W        W11818   9.279   2.551  12.362  0.0445  0.2236 -0.0977
 7768W        W11819   2.000   1.686   4.370  0.0621  0.1329 -0.1351
 7769W        W11820   1.119   8.425   2.625  0.1576  0.1462  0.1482
 7770W        W11821   0.978   3.728  12.756  0.1015 -0.1202  0.5828
 7771W        W11822   4.622   0.343   0.372 -0.1384  0.2239 -0.3425
 7772W        W11823   5.145   2.054   2.540  0.3406  0.0696  0.0647
 7773W        W11824   6.330   1.644  11.237  0.0996 -0.0021 -0.1834
 7774W        W11825   9.977   1.233   9.598 -0.1652  0.0145 -0.0560
 7775W        W11826   0.929   8.190  10.556 -0.0268  0.0056 -0.1410
 7776W        W11827   3.820   2.972  13.903  0.2212 -0.1281  0.2505
 7777W        W11828   6.073   0.801  12.302  0.1142 -0.0621  0.0770
 7778W        W11829   3.676   5.183  12.911 -0.3055 -0.2608 -0.1433
 7779W        W11830   8.005   5.662   9.814  0.0578 -0.1448  0.0562
 7780W        W11831   0.843   5.856  11.478 -0.1588 -0.1319  0.2981
 7781W        W11832   7.928   7.845   3.015  0.1279 -0.1091 -0.1792
 7782W        W11833   6.134   5.291  12.219 -0.0236  0.3436 -0.2259
 7783W        W11834   2.300   1.383   1.322 -0.1787  0.0257  0.1126
 7784W        W11835   4.287   2.603   4.189  0.1583  0.1440 -0.0968
 7785W        W11836   8.680   2.866  10.775 -0.1366 -0.2900 -0.1981
 7786W        W11837   3.586   2.481  12.447 -0.1860  0.1386  0.2222
 7787W        W11838   3.292   5.125   2.718 -0.2352 -0.3487 -0.2348
 7788W        W11839   0.568   1.016  12.463 -0.0017  0.0052  0.1037
 7789W        W11840   4.518   3.657  11.427 -0.0783 -0.0049 -0.0944
 7790W        W11841   0.935   6.786   1.889  0.4298  0.0218 -0.0220
 7791W        W11842   0.463   7.677   2.882 -0.0684  0.0320 -0.1477
 7792W        W11843   2.358   4.922   4.751 -0.2591  0.0278  0.0304
 7793W        W11844   3.383   3.066   0.834  0.0352  0.0868 -0.0951
 7794W        W11845   0.475   1.487  13.585 -0.2759 -0.2247 -0.0521
 7795W        W11846   9.853   3.549  10.455 -0.1018  0.2505  0.0587
 7796W        W11847   7.088   2.120   1.686  0.1211 -0.4276 -0.0950
 7797W        W11848   9.433   7.207   2.855  0.3018  0.0505 -0.0952
 7798W        W11849   2.540   3.310   0.207  0.0350 -0.1031 -0.0276
 7799W        W11850   3.478   6.280  11.610 -0.1384  0.0523 -0.3389
 7800W        W11851   9.036   6.303   1.021 -0.0649 -0.1807 -0.0154
 7801W        W11852   0.291   2.659   9.749  0.1257 -0.1524  0.3403
 7802W        W11853   0.495   1.526  13.060  0.3400 -0.1619 -0.0083
 7803W        W11854   7.395   7.770  12.122  0.0863 -0.0599 -0.0242
 7804W        W11855   9.627   6.382   4.053 -0.1402 -0.1149  0.4237
 7805W        W11856   7.902   0.542   4.870 -0.0305  0.0637 -0.0696
 7806W        W11857   5.769   5.059  11.981  0.2641 -0.0585 -0.1341
 7807W        W11858   3.243   5.936   0.357 -0.0889 -0.1525  0.0203
 7808W        W11859   0.058   6.021   0.398  0.0972 -0.0131  0.1865
 7809W        W11860   2.839   7.901  10.963  0.1760 -0.2628  0.1392
 7810W        W11861   8.452   5.258  10.405 -0.2972  0.0881  0.0360
 7811W        W11862   3.483   5.529   2.555 -0.1478 -0.2006  0.0287
 7812W        W11863   6.493   9.307  11.802 -0.1131 -0.0444  0.0124
 7813W        W11864   3.345   3.445   4.614 -0.2128  0.0720 -0.1914
 7814W        W11865   1.988   5.382  13.955  0.0714  0.0822 -0.1918
 7815W        W11866   5.754   7.813   3.259 -0.2977 -0.0599  0.0701
 7816W        W11867   1.864   6.582  12.650  0.2750 -0.0718  0.2213
 7817W        W11868   8.003  10.088   9.536  0.1899 -0.0520 -0.0707
 7818W        W11869   8.174   9.440   9.087  0.1351  0.4451 -0.0616
 7819W        W11870   2.646   0.727   9.037  0.4487  0.0493 -0.1787
 7820W        W11871   7.902   0.072   0.363  0.0644 -0.2625  0.0654
 7821W        W11872   8.614   6.500  10.820  0.4806  0.0770 -0.1317
 7822W        W11873   2.946   3.453  11.023  0.1796  0.5279  0.1500
 7823W        W11874   9.877   5.137   2.263 -0.1838 -0.1001 -0.2236
 7824W        W11875   8.354   4.430  10.581 -0.1761 -0.0003 -0.2918
 7825W        W11876   1.452   4.088   2.337  0.1539  0.0651  0.0700
 7826W        W11877   8.090   7.762   4.047 -0.0692  0.3681 -0.3602
 7827W        W11878   5.107   5.553   1.762  0.0708  0.0685 -0.3217
 7828W        W11879   7.995   4.079   9.681 -0.0860 -0.5164  0.3322
 7829W        W11880   9.231   5.190  12.432  0.1140  0.0194  0.0908
 7830W        W11881   1.359   3.636  11.529  0.1031  0.0776  0.1048
 7831W        W11882   0.324   3.723  13.358  0.1019 -0.3559  0.3377
 7832W        W11883   7.879   9.516  10.063  0.0638  0.1875 -0.0563
 7833W        W11884   5.950   6.113  12.353 -0.0461  0.0125  0.0850
 7834W        W11885   8.171   1.598   4.250  0.2170 -0.0383  0.1320
 7835W        W11886   7.448   6.557  12.792  0.2001  0.0851  0.0171
 7836W        W11887   5.330   1.081   2.878 -0.1369 -0.3964 -0.1408
 7837W        W11888   0.184   6.423   4.728  0.3433  0.1022 -0.1119
 7838W        W11889   0.518   8.916  10.655 -0.1939  0.2417 -0.0124
 7839W        W11890   2.959   2.338  12.495 -0.0165 -0.0955  0.0026
 7840W        W11891   9.120   5.603   1.626 -0.0430  0.0874 -0.0094
 7841W        W11892   1.391   8.683   4.417  0.1804  0.1237  0.1695
 7842W        W11893   9.653   7.960   0.114 -0.2449  0.1819 -0.0831
 7843W        W11894   2.118   2.375   3.809 -0.1188  0.1076 -0.1354
 7844W        W11895   5.424   3.639   9.465  0.0917  0.1546  0.2190
 7845W        W11896   0.742   9.265   0.856 -0.2810 -0.4348 -0.1296
 7846W        W11897   3.710   4.051   1.467 -0.1077  0.0748 -0.1646
 7847W        W11898   0.912   6.939  12.641  0.2518 -0.0224 -0.4118
 7848W        W11899   2.398   0.288   2.673 -0.1643 -0.0794 -0.1202
 7849W        W11900   8.964   8.972  12.882  0.1489  0.0065 -0.1606
 7850W        W11901   2.418   7.740  12.027 -0.1901 -0.1122 -0.0297
 7851W        W11902   7.865   4.845   9.255  0.0912  0.0178 -0.0557
 7852W        W11903   8.434   8.086   8.786  0.2531  0.2971 -0.0081
 7853W        W11904  10.036   8.067  10.780 -0.2316  0.0931 -0.0801
 7854W        W11905   0.345   2.499   9.288  0.1998  0.0736 -0.1907
 7855W        W11906   4.514   1.088  11.274  0.0339  0.0922  0.1185
 7856W        W11907   5.280   2.679   9.164 -0.1886 -0.0946  0.2419
 7857W        W11908   1.884   6.804   1.982 -0.1140 -0.2564  0.3189
 7858W        W11909   3.167   7.313   2.302  0.0210  0.0157  0.2200
 7859W        W11910   0.354   4.400   1.253 -0.1176  0.0907  0.0259
 7860W        W11911   4.841   3.306  13.220  0.0999 -0.1394 -0.0731
 7861W        W11912   3.475   5.140   2.147 -0.0916 -0.0490  0.1009
 7862W        W11913   1.338   4.292   1.843  0.1593 -0.0674 -0.1013
 7863W        W11914   7.717   5.091  13.041 -0.2047 -0.0271 -0.0134
 7864W        W11915   9.757   9.361  10.437 -0.1426  0.0771  0.0894
 7865W        W11916   4.359   6.016  11.509  0.1425 -0.0665  0.1918
 7866W        W11917   6.779   1.547   4.020 -0.1893 -0.0779  0.1958
 7867W        W11918   6.885   9.531   1.384  0.2077  0.1444  0.1693
 7868W        W11919   2.291   7.118  12.884  0.0585  0.1526 -0.5235
 7869W        W11920   4.947   7.614   2.439 -0.1883  0.1515 -0.0783
 7870W        W11921   6.172   5.909   0.376 -0.2319 -0.0576 -0.2329
 7871W        W11922   3.338   8.399   3.268 -0.3982  0.1296  0.2978
 7872W        W11923   8.199   0.043   3.438  0.0127  0.2070  0.0987
 7873W        W11924   4.101   0.289   0.115 -0.0925 -0.1401  0.1451
 7874W        W11925   5.997   8.921   1.419 -0.0254  0.0241 -0.0911
 7875W        W11926   5.049   2.235   9.966  0.0500  0.0480 -0.2155
 7876W        W11927   5.368   8.975  11.333 -0.0195 -0.0405 -0.0117
 7877W        W11928   9.867   1.786  11.800  0.1145  0.1987  0.1707
 7878W        W11929   7.378   4.061   1.898 -0.2010  0.4634  0.1960
 7879W        W11930   3.229   7.353  10.776  0.3478 -0.3501  0.0330
 7880W        W11931   2.303   0.696   4.194  0.2913  0.2822  0.0073
 7881W        W11932   8.313   9.966   1.126 -0.0591  0.1809 -0.0183
 7882W        W11933  10.083   6.817  12.161  0.1675 -0.0878  0.2285
 7883W        W11934   7.503   0.834  12.433 -0.2794  0.1804 -0.1211
 7884W        W11935   1.555   1.077   2.497 -0.0062 -0.0263  0.0645
 7885W        W11936   5.624   4.187  10.437 -0.1758  0.1733  0.1550
 7886W        W11937   4.776   8.877   1.560  0.0581  0.0181 -0.0834
 7887W        W11938   7.395   9.690   3.284 -0.1439  0.0191  0.1673
 7888W        W11939   2.143   8.346  11.435  0.0447 -0.1270 -0.0436
 7889W        W11940   3.370   2.583   1.270 -0.1337 -0.2322 -0.4155
 7890W        W11941   2.009   8.919   9.439 -0.1519 -0.0229 -0.0629
 7891W        W11942   5.062   3.843  11.741  0.1557 -0.1838  0.0023
 7892W        W11943   3.990   7.285  11.392  0.1163  0.0831 -0.1373
 7893W        W11944   8.472   8.923  13.002  0.0626 -0.3564  0.1476
 7894W        W11945   7.663   1.286  11.302 -0.2039 -0.0955 -0.1858
 7895W        W11946   6.313   8.170  12.523 -0.0608  0.1593 -0.0539
 7896W        W11947   6.218   4.678  10.501 -0.0275  0.0172 -0.1574
 7897W        W11948   9.378   0.697   4.779 -0.2583  0.2015 -0.2066
 7898W        W11949   8.635   0.075  13.823 -0.1810 -0.2621 -0.0605
 7899W        W11950   2.004   9.574  12.457  0.1091 -0.0264  0.1844
 7900W        W11951   3.894   4.062   3.180  0.0042 -0.0655  0.1929
 7901W        W11952   9.653   5.944  11.314 -0.1540  0.3172 -0.2385
 7902W        W11953   0.627   4.344  12.139 -0.1787  0.0589  0.1925
 7903W        W11954   4.768   7.082  12.487 -0.0783  0.4159  0.2315
 7904W        W11955   9.646   2.922  12.212  0.0211 -0.1438 -0.0158
 7905W        W11956   7.457   0.730   1.358 -0.0976  0.1077 -0.1555
 7906W        W11957   3.278   6.625  13.610  0.1122  0.2565 -0.1758
 7907W        W11958   6.549   9.976  12.736 -0.2335 -0.1536  0.0121
 7908W        W11959   4.651   4.540   3.626 -0.1153 -0.0438  0.0722
 7909W        W11960   5.749   7.657  13.737 -0.0032 -0.0250  0.0714
 7910W        W11961   6.986   0.188  13.676 -0.2154  0.0027 -0.1130
 7911W        W11962   0.067   7.280   3.212  0.0439  0.1251 -0.3781
 7912W        W11963   5.264   8.699  13.031 -0.2658 -0.2071 -0.2918
 7913W        W11964   4.316   4.065   1.095  0.2416 -0.2815  0.1778
 7914W        W11965   0.419   5.787   0.725 -0.2163  0.0605  0.1219
 7915W        W11966   6.395   5.695  10.988  0.1427 -0.0505  0.1090
 7916W        W11967   6.843   0.137   0.914 -0.0495 -0.1232 -0.1877
 7917W        W11968   3.798   5.516  11.947  0.2881  0.0246 -0.2128
 7918W        W11969   3.515   8.329  11.718 -0.0328 -0.0779  0.2936
 7919W        W11970   7.661   5.387   0.939 -0.0152 -0.1821 -0.0771
 7920W        W11971   4.276   1.620   0.303  0.3908 -0.0914  0.2057
 7921W        W11972   2.643   7.677  10.519 -0.0007 -0.1634  0.1465
 7922W        W11973   1.285   7.141  13.037  0.3038  0.1592 -0.2080
 7923W        W11974   7.738   5.783   1.228 -0.2216 -0.0794  0.1171
 7924W        W11975   7.535   8.511   4.254 -0.0108 -0.1882 -0.0080
 7925W        W11976   7.932   3.486   0.228 -0.0870 -0.1991  0.0440
 7926W        W11977   7.742   9.217  13.430  0.3165  0.2141 -0.0297
 7927W        W11978   5.549   6.653   0.342 -0.2492 -0.1468 -0.2931
 7928W        W11979   9.765   5.195   1.007 -0.0024 -0.1363  0.2167
 7929W        W11980   3.080   2.996  11.228 -0.1098  0.1107 -0.0208
 7930W        W11981   9.567  10.102   1.754  0.0903  0.1052  0.0942
 7931W        W11982   4.741   1.361   2.853 -0.3772  0.0141 -0.3418
 7932W        W11983   0.004   2.784  11.238  0.2641  0.0632 -0.3338
 7933W        W11984   5.595   9.682   2.982 -0.0659 -0.0354 -0.1580
 7934W        W11985   0.527   8.225   2.807 -0.1069 -0.0800 -0.3553
 7935W        W11986   3.470   7.244  11.243 -0.1167  0.2585 -0.0094
 7936W        W11987   1.195   7.857   2.388 -0.0145  0.2559  0.2902
 7937W        W11988   4.101   3.343  13.652  0.2888  0.3920 -0.1984
 7938W        W11989   5.330   4.864  10.081 -0.2483  0.0992 -0.2069
 7939W        W11990   2.271   6.422  11.162  0.1221  0.0794  0.1050
 7940W        W11991   4.719   0.852   1.233 -0.3082  0.1312 -0.1006
 7941W        W11992   0.030   5.206   3.011  0.2700  0.1805 -0.0223
 7942W        W11993   5.888   8.000   8.579 -0.3058 -0.1626 -0.0316
 7943W        W11994   2.737   9.212  11.818  0.2790  0.2119 -0.0967
 7944W        W11995   9.257   8.109  10.192 -0.3607 -0.0277  0.1376
 7945W        W11996   8.388   5.752  12.969  0.0732  0.0039 -0.2254
 7946W        W11997   1.761   9.059  12.060 -0.1525  0.1720 -0.1102
 7947W        W11998   5.781   3.444   5.773 -0.0261 -0.1556 -0.2158
 7948W        W11999   9.261  10.009  13.374  0.0929 -0.0272  0.1137
 7949W        W12000   3.928   4.705   3.962  0.1822  0.0795 -0.2414
 7950W        W12001   3.179   6.706  11.584  0.2051 -0.1242  0.0953
 7951W        W12002   6.607   1.867   1.622 -0.0418  0.0841 -0.0830
 7952W        W12003   0.256   9.504   3.859  0.1695 -0.0260  0.2025
 7953W        W12004   9.584   4.856   3.563 -0.1273  0.0528  0.0205
 7954W        W12005   7.221   6.960   1.731  0.2758  0.0320  0.1114
 7955W        W12006   1.140   3.193  11.251 -0.0310 -0.2896  0.2013
 7956W        W12007   3.955   2.866   9.615 -0.1059 -0.0759 -0.0105
 7957W        W12008   2.059   4.460   1.701  0.3320  0.1482  0.1543
 7958W        W12009   3.745   6.279   0.994  0.0396 -0.2570 -0.0690
 7959W        W12010   9.670   9.968   4.498  0.1853  0.0607  0.0674
 7960W        W12011   0.982   4.252   1.464 -0.2020 -0.1208  0.0599
 7961W        W12012   4.233   8.908   0.668 -0.1551 -0.0537  0.3779
 7962W        W12013   2.802   0.052   1.001 -0.0436 -0.3090  0.0389
 7963W        W12014   8.572  10.139  12.928  0.1859  0.0096 -0.3745
 7964W        W12015   4.476   7.554  12.172  0.0167  0.0639  0.0291
 7965W        W12016  10.161   1.310   2.834 -0.1324  0.1713  0.2697
 7966W        W12017   6.972   9.703   4.478  0.3847  0.0831 -0.0650
 7967W        W12018   0.742   4.444  13.741  0.0568 -0.0153 -0.1453
 7968W        W12019   5.990   4.074   2.897  0.2104 -0.1404  0.0922
 7969W        W12020   1.771   5.916  13.900  0.0056  0.1215  0.2013
 7970W        W12021   8.797   1.079  10.291 -0.1989  0.3048  0.4411
 7971W        W12022   0.739   3.989   3.181  0.0119 -0.1573  0.2085
 7972W        W12023   3.123   6.393  10.737  0.0491  0.2023  0.0624
 7973W        W12024   7.119   8.054   2.579 -0.2534  0.3286  0.3451
 7974W        W12025   3.389   7.804  10.957  0.1126  0.1262 -0.0079
 7975W        W12026   0.087   2.892   4.108 -0.0173  0.2098  0.0199
 7976W        W12027   7.638   5.928   3.511  0.2492  0.3141 -0.2560
 7977W        W12028   0.239   8.072   9.985 -0.3369  0.0220  0.0746
 7978W        W12029   4.185   5.010  12.600  0.2796  0.0207 -0.2175
 7979W        W12030   4.566   4.913   3.141  0.0135 -0.1670  0.0023
 7980W        W12031   7.524   1.115   0.979  0.1655  0.0300  0.1456
 7981W        W12032   4.118   5.754  11.180  0.0932  0.1351  0.0982
 7982W        W12033   2.915   4.342   4.903  0.0434  0.1400 -0.1253
 7983W        W12034   8.271   0.114   9.116  0.2769 -0.1263  0.2482
 7984W        W12035   8.791  10.085   4.022 -0.1264 -0.0898  0.0719
 7985W        W12036   4.674   9.751   4.072  0.0715 -0.1152  0.2576
 7986W        W12037   3.796   4.327   4.234 -0.1722  0.3057 -0.1381
 7987W        W12038   3.288   0.496  10.752 -0.1028 -0.1929 -0.0012
 7988W        W12039   8.172   8.008   3.532  0.0707  0.0330 -0.0765
 7989W        W12040   3.129   1.568   1.504 -0.1227 -0.2506 -0.0756
 7990W        W12041   6.630   1.641  11.976  0.1872 -0.1645  0.0526
 7991W        W12042   0.171   4.442   0.748 -0.0552  0.0816  0.2089
 7992W        W12043   3.037   3.508   0.870  0.0842  0.0711 -0.3637
 7993W        W12044   1.455   2.600   1.279  0.3098  0.3279 -0.0845
 7994W        W12045   3.837   0.926  12.162 -0.2457 -0.0842  0.1307
 7995W        W12046   4.224   0.638  10.699  0.0780 -0.0682 -0.1526
 7996W        W12047   8.580   2.199   1.584 -0.0714 -0.1444  0.0103
 7997W        W12048   0.101   0.521   0.648 -0.1796  0.2419 -0.0406
 7998W        W12049   0.732   1.385   3.459 -0.1934 -0.0569 -0.2962
 7999W        W12050   5.263   8.660  11.818 -0.2360  0.2646  0.0521
 8000W        W12051   4.114   8.351   1.243 -0.2277 -0.1140 -0.2584
 8001W        W12052   2.161   1.882   1.307 -0.1599  0.2369 -0.1335
 8002W        W12053   6.951   2.993  10.948  0.0965 -0.0732  0.0697
 8003W        W12054   0.107   8.019   2.627 -0.0564  0.1383  0.0816
 8004W        W12055   8.381   7.490   1.676  0.4218 -0.0054  0.0097
 8005W        W12056   7.597   3.695  11.541 -0.0750  0.3102  0.2802
 8006W        W12057   5.863   4.658  10.176 -0.0373  0.3305 -0.0954
 8007W        W12058   9.483   7.635   0.927 -0.0488 -0.1483 -0.0349
 8008W        W12059   7.653   1.834  12.068 -0.1403  0.0551 -0.0362
 8009W        W12060   5.549   2.959   4.605 -0.1948 -0.0060  0.1228
 8010W        W12061   7.351   5.732  12.065  0.0991 -0.0302  0.3787
 8011W        W12062   4.353   3.346  11.845 -0.1423 -0.0350 -0.0564
 8012W        W12063   4.569   5.116   0.602 -0.3052 -0.3643 -0.1536
 8013W        W12064   1.386   2.417   3.429  0.1055 -0.0098  0.0898
 8014W        W12065   7.183   4.934   0.509 -0.0340  0.0348  0.0565
 8015W        W12066   3.382   7.504   0.132  0.0982 -0.0392  0.2445
 8016W        W12067   9.605   6.347  13.056 -0.2467 -0.2876  0.0114
 8017W        W12068   6.697   8.657   3.934  0.0852 -0.1286  0.2039
 8018W        W12069   8.786   3.214   0.879 -0.2926  0.1163 -0.0818
 8019W        W12070   3.621   2.968  12.430 -0.0399  0.1716 -0.3265
 8020W        W12071   4.426   1.582   5.431 -0.2132  0.1089 -0.1592
 8021W        W12072   2.894   7.748  11.714 -0.2024  0.3243 -0.0364
 8022W        W12073   6.710   4.714  12.233 -0.1964 -0.3296 -0.2301
 8023W        W12074   3.471   2.438   2.361 -0.0317  0.3365 -0.1228
 8024W        W12075   4.850   9.783  12.180 -0.0561  0.1554 -0.0343
 8025W        W12076   6.095   0.461   9.634 -0.3658  0.2236 -0.1868
 8026W        W12077   6.537   0.330   8.914 -0.0125 -0.0386 -0.1141
 8027W        W12078   6.199   3.605   3.014  0.0481 -0.0271  0.1497
 8028W        W12079   4.809   3.825   3.201 -0.1354 -0.0852  0.2182
 8029W        W12080   8.269   2.563  11.946  0.1571  0.1277 -0.0652
 8030W        W12081   9.216   2.832  10.971  0.2162 -0.0594 -0.0966
 8031W        W12082   4.297   0.560   4.212  0.1061 -0.0926  0.0258
 8032W        W12083   7.194   2.814   4.696  0.1618 -0.0296  0.4293
 8033W        W12084   0.932  10.068   3.513 -0.0073  0.0631  0.1089
 8034W        W12085   3.954   5.780   9.775 -0.2845  0.1847  0.0356
 8035W        W12086   2.925   4.073   9.753 -0.1292  0.3815 -0.0127
 8036W        W12087   9.225   6.135   2.984  0.0157 -0.1568 -0.2588
 8037W        W12088  10.041   1.217  13.056 -0.0148 -0.0465 -0.1214
 8038W        W12089   6.065   9.540   3.184 -0.0767  0.2716  0.1524
 8039W        W12090   3.160   3.502   3.031  0.3516 -0.0286 -0.0958
 8040W        W12091   1.112   4.340   3.208  0.0315 -0.0974 -0.1674
 8041W        W12092   4.076   7.039   2.158 -0.0512 -0.2753  0.4458
 8042W        W12093   8.238   4.924  10.869  0.0353 -0.1708 -0.1333
 8043W        W12094   3.273   8.197   9.918  0.4922 -0.2038 -0.0562
 8044W        W12095   9.389   3.936   3.153  0.0739 -0.4251  0.0634
 8045W        W12096   3.513   7.722   2.670  0.1102  0.0485 -0.0239
 8046W        W12097   6.414   8.691   2.379  0.3161 -0.1581  0.0039
 8047W        W12098   9.339   5.618  12.654 -0.2087 -0.1117 -0.2029
 8048W        W12099   6.313   2.521   4.495  0.2100  0.2056  0.0910
 8049W        W12100   8.931   1.746  13.130  0.0103 -0.0099  0.2601
 8050W        W12101   1.553   4.584   4.159  0.0870 -0.2012 -0.0048
 8051W        W12102   7.998   6.429   3.552 -0.0695  0.0206  0.3019
 8052W        W12103   9.241   1.258  11.555  0.0614 -0.0889  0.0262
 8053W        W12104   8.713   5.848   1.767  0.1532 -0.0068  0.0750
 8054W        W12105   8.914   0.976   4.496  0.2101 -0.2179  0.2705
 8055W        W12106   8.375   7.237   4.062 -0.1129  0.6015  0.0379
 8056W        W12107   8.233   2.612  10.112  0.0500 -0.1181  0.0834
 8057W        W12108   7.224   7.144   2.868  0.1640  0.0064  0.0482
 8058W        W12109   7.528   8.331   2.210 -0.2444 -0.0029 -0.2043
 8059W        W12110   9.346   0.967   2.313  0.0991 -0.0536 -0.1238
 8060W        W12111   4.497   0.012  12.108 -0.1102  0.1056  0.0997
 8061W        W12112   4.238   0.807   1.382 -0.1489 -0.4412 -0.0506
 8062W        W12113   1.609   4.890   2.269 -0.0996 -0.1208  0.0971
 8063W        W12114   7.735   9.357   3.441 -0.0052  0.0219  0.2093
 8064W        W12115   6.541   0.274   9.466  0.2350  0.2309  0.1409
 8065W        W12116   1.745   3.337   0.365  0.2408  0.2333  0.2589
 8066W        W12117   5.357   1.926   0.403  0.1474 -0.3534 -0.1525
 8067W        W12118   8.665   3.160   1.872  0.3855 -0.1852 -0.1680
 8068W        W12119   9.141   8.719   1.885  0.0131  0.0105  0.1393
 8069W        W12120   3.268   9.874   2.949  0.0206  0.2533  0.2255
 8070W        W12121   9.540   2.653   1.855  0.2526 -0.1216 -0.0095
 8071W        W12122   5.838   1.853  12.451  0.2465  0.0287 -0.1908
 8072W        W12123   1.954   8.058   1.866  0.2719  0.0681 -0.0337
 8073W        W12124   6.692   2.343   5.881 -0.3307  0.0266 -0.3774
 8074W        W12125   2.073   6.895   2.473  0.0062 -0.1992  0.2566
 8075W        W12126   3.788   0.594  11.789  0.3109 -0.0014  0.0197
 8076W        W12127   8.619   3.676   1.023 -0.0710 -0.1122  0.0451
 8077W        W12128   3.490   9.096  11.147 -0.1597  0.0684  0.1225
 8078W        W12129   1.087   6.989   2.484  0.2944  0.0832 -0.3218
 8079W        W12130   7.262   7.982  11.150 -0.2430 -0.1259 -0.2439
 8080W        W12131   8.433   4.361  10.055  0.0297 -0.1440 -0.0718
 8081W        W12132   4.190   1.578   9.784  0.0378 -0.2203 -0.1460
 8082W        W12133   4.158   2.361  11.960 -0.0775 -0.1846 -0.2506
 8083W        W12134   6.515   5.521  10.077  0.3371  0.2638  0.1508
 8084W        W12135   3.244   2.442  11.240  0.3376 -0.2793 -0.0300
 8085W        W12136   1.925   8.059   2.858 -0.0183 -0.0773  0.0864
 8086W        W12137   0.501   5.861   9.863  0.2357 -0.0946 -0.0831
 8087W        W12138   3.311   1.887  13.666  0.3536 -0.6194 -0.1077
 8088W        W12139   7.484   2.973   1.412 -0.1396 -0.0352  0.2175
 8089W        W12140   8.717   1.303  12.930 -0.4531 -0.1844 -0.3424
 8090W        W12141   5.998   9.882  12.972 -0.0944  0.0447  0.1546
 8091W        W12142   8.864   6.703   1.485  0.0637  0.2559  0.4112
 8092W        W12143   6.565   5.240  11.464 -0.2346  0.0439  0.1870
 8093W        W12144   0.808   3.889   0.521  0.1137 -0.3765 -0.1690
 8094W        W12145   8.305   5.671  13.685  0.0316 -0.1682 -0.0111
 8095W        W12146   4.135   0.113   9.786  0.0078 -0.0471  0.0934
 8096W        W12147   9.425   7.159  11.473 -0.1620 -0.1425 -0.1612
 8097W        W12148   9.833   1.672   3.756  0.1340 -0.0514  0.1596
 8098W        W12149   0.467   1.741  12.452 -0.2043 -0.3209 -0.2735
 8099W        W12150   3.685   7.900  12.078  0.0391  0.1509 -0.2122
 8100W        W12151   2.220   8.146  13.322  0.1225 -0.1409 -0.0335
 8101W        W12152  10.008   1.357   4.799  0.2578  0.0586  0.0854
 8102W        W12153   2.110   2.404   4.894 -0.0723  0.2953  0.3092
 8103W        W12154   2.252   3.438  10.024 -0.3568  0.2982 -0.1335
 8104W        W12155   7.955   2.699  13.790 -0.0502 -0.0320 -0.5369
 8105W        W12156   4.319   5.604  13.531 -0.0729  0.0867  0.1117
 8106W        W12157   5.068   3.373  10.394  0.0831 -0.0719 -0.1378
 8107W        W12158   3.127   5.107   9.533  0.2004  0.1226  0.2098
 8108W        W12159   5.616   8.867  10.227 -0.0464  0.3923  0.2020
 8109W        W12160   9.867   5.205   3.761 -0.1707 -0.3344 -0.0070
 8110W        W12161   7.308   8.020  13.247  0.2113 -0.2244  0.0987
 8111W        W12162   8.780   8.541  11.526  0.1850 -0.0133  0.0632
 8112W        W12163   1.166   1.477  11.495  0.0724 -0.0881  0.0453
 8113W        W12164   5.650   5.941   2.569  0.1865  0.3045 -0.2213
 8114W        W12165   7.756   6.801  11.794 -0.0822 -0.0071 -0.1639
 8115W        W12166   6.698   2.299   4.785 -0.4812  0.0710  0.1918
 8116W        W12167   7.366   5.980   4.078 -0.0305 -0.4450  0.1615
 8117W        W12168   8.941   8.913   5.345 -0.3130  0.0314 -0.0523
 8118W        W12169   7.608   4.408  13.723  0.0828 -0.1136 -0.0558
 8119W        W12170   7.366   8.293  13.802 -0.0453 -0.1569  0.1196
 8120W        W12171   6.358   8.949  13.746 -0.0876 -0.0778 -0.1798
 8121W        W12172   0.580   2.564  11.936  0.0073 -0.1652 -0.4823
 8122W        W12173   0.571   9.298   3.406  0.0989  0.1648 -0.3608
 8123W        W12174   8.762   8.742  12.043 -0.1375 -0.4503  0.1605
 8124W        W12175   8.114   9.220  11.526  0.0125 -0.1248  0.0496
 8125W        W12176   2.216   7.083  11.191 -0.1999 -0.1308 -0.0140
 8126W        W12177   4.677   4.957   1.234  0.0260  0.1044  0.0374
 8127W        W12178   2.154   8.999  12.580  0.1076 -0.3240 -0.0055
 8128W        W12179   3.089   4.702   0.762  0.2420 -0.0488 -0.0042
 8129W        W12180   0.969   3.844  10.250  0.1113 -0.0401 -0.2107
 8130W        W12181   1.958   3.638  12.323 -0.1218 -0.0502 -0.2320
 8131W        W12182   6.267   3.119  11.408 -0.3978 -0.0595  0.4341
 8132W        W12183   7.914   8.249   1.285  0.3007  0.0478  0.0523
 8133W        W12184   0.075   9.416   0.290  0.2591  0.3683  0.0554
 8134W        W12185   3.542   8.659  13.328 -0.1427  0.1157 -0.1479
 8135W        W12186   5.090   3.617   2.806 -0.0624  0.0726  0.0802
 8136W        W12187   0.742   3.369  10.239  0.1741 -0.0492 -0.0840
 8137W        W12188   5.296   2.929  10.111 -0.1755 -0.1457 -0.1203
 8138W        W12189   9.069   1.559   9.654 -0.2827 -0.1353 -0.0814
 8139W        W12190   2.237   5.226   3.258 -0.0991 -0.1615 -0.0643
 8140W        W12191   7.529   5.145   0.198  0.4658  0.2593 -0.1732
 8141W        W12192   5.416   0.257   0.964 -0.2063 -0.2684 -0.1232
 8142W        W12193   9.305   3.889  13.649  0.0469 -0.0987  0.3456
 8143W        W12194   0.565   9.687   4.994  0.0582 -0.1654  0.2682
 8144W        W12195   6.594   9.690   8.814 -0.2664  0.1293 -0.0971
 8145W        W12196   9.776   4.363  11.281  0.4412 -0.0833 -0.1139
 8146W        W12197   3.839   6.302   1.987 -0.0309 -0.1504 -0.0603
 8147W        W12198   6.554   4.200   9.961 -0.0760  0.0287  0.0947
 8148W        W12199   0.881   2.997   1.860  0.1902 -0.1087 -0.0372
 8149W        W12200   1.072   0.964  12.430 -0.1451  0.2737  0.0632
 8150W        W12201   9.189   0.042  13.864 -0.4905  0.0273 -0.2856
 8151W        W12202   5.948   8.549   8.690 -0.1953 -0.1941 -0.0759
 8152W        W12203   0.621   5.840   2.966 -0.2006  0.3245 -0.0828
 8153W        W12204   4.563   2.265  10.828 -0.4822  0.1907  0.6033
 8154W        W12205   8.496   3.047  11.221 -0.0309  0.0826 -0.0508
 8155W        W12206   2.370   9.724  10.180 -0.1165  0.2932 -0.3564
 8156W        W12207   1.725   3.483   9.921  0.0891  0.0801  0.2946
 8157W        W12208   5.785   3.888   9.751 -0.2464 -0.0543 -0.1627
 8158W        W12209   2.452   7.845   0.498  0.2863  0.3627 -0.0258
 8159W        W12210   1.101   0.581  11.570 -0.1589  0.2196  0.0238
 8160W        W12211   7.292   4.090  13.925 -0.1713 -0.1088  0.0688
 8161W        W12212   6.351   3.458   4.524  0.0773  0.1163 -0.3149
 8162W        W12213   9.164   5.260   3.026  0.0154  0.2943  0.0023
 8163W        W12214   1.687   4.405  13.629  0.2226 -0.2924  0.0640
 8164W        W12215  10.102   3.226  13.447 -0.0743 -0.0143  0.1326
 8165W        W12216   1.816   3.706   3.572  0.0150  0.0669 -0.0708
 8166W        W12217   6.136   6.601  12.257 -0.0084  0.2984 -0.1478
 8167W        W12218   3.147   8.426  10.350 -0.0284 -0.2525  0.1551
 8168W        W12219   3.894   2.039  13.608  0.0563  0.0111 -0.0502
 8169W        W12220   1.077   2.154  10.049  0.0440 -0.1411 -0.3214
 8170W        W12221   8.239   8.156  11.362  0.1817 -0.1129 -0.2600
 8171W        W12222   3.127   7.273   0.505 -0.4112  0.1200  0.0158
 8172W        W12223   7.524   0.013  12.929 -0.1533  0.0944  0.0680
 8173W        W12224   5.908   4.285   5.438  0.1033 -0.0185 -0.1438
 8174W        W12225   4.082   8.288  11.179  0.1004 -0.3102  0.1166
 8175W        W12226   8.623   9.511  11.516  0.1443 -0.1872 -0.1360
 8176W        W12227   3.861   8.173   2.316 -0.0330  0.0805  0.3162
 8177W        W12228   4.865   6.768  13.005 -0.1013  0.0906  0.0421
 8178W        W12229   4.958   5.697   4.057 -0.0687 -0.1055  0.2250
 8179W        W12230   0.608   9.538  11.298 -0.2825 -0.0098  0.1085
 8180W        W12231   6.365   3.808   3.547  0.0150 -0.0957  0.0410
 8181W        W12232   3.141   7.892  10.481  0.1243 -0.1499 -0.1334
 8182W        W12233   9.501   4.806   0.026 -0.0820 -0.3170  0.3379
 8183W        W12234   9.867   1.632   9.126 -0.2132 -0.2077  0.1907
 8184W        W12235   4.023   3.703   1.285  0.0677  0.0254  0.2201
 8185W        W12236   3.029   1.270   9.648 -0.0114 -0.5733  0.0989
 8186W        W12237   3.634   7.396  13.675 -0.0521  0.0897 -0.4171
 8187W        W12238   8.265   5.720   8.856  0.2161  0.4432 -0.2334
 8188W        W12239  10.103   9.131   1.007  0.0969  0.2379  0.0137
 8189W        W12240   2.205   2.561   4.336  0.0154  0.0613 -0.5934
 8190W        W12241   5.705   9.755   4.112  0.1618  0.3252  0.2742
 8191W        W12242   9.292   7.993  13.692  0.2334 -0.3521 -0.2836
 8192W        W12243   7.899   6.375  10.106  0.1526 -0.3244  0.2402
 8193W        W12244   0.417   1.552   9.753 -0.0764  0.0671  0.0893
 8194W        W12245   0.547   8.888   1.590  0.2688 -0.0455  0.0254
 8195W        W12246   7.897   2.381  11.228 -0.1609 -0.0029 -0.0786
 8196W        W12247   4.328   3.157   4.261  0.0814 -0.1591  0.3160
 8197W        W12248   1.937   3.961   9.234 -0.1294 -0.0753  0.2991
 8198W        W12249   2.207   0.386   3.660  0.0589  0.2537  0.0957
 8199W        W12250   1.425   4.486  11.937  0.0550  0.0475  0.2737
 8200W        W12251   1.749   4.213  12.225  0.0118  0.1266  0.2899
 8201W        W12252   9.309   4.448   3.315 -0.0011 -0.2810  0.0677
 8202W        W12253   1.595   1.426   3.618  0.3381 -0.0504 -0.0394
 8203W        W12254   8.896   9.988   2.339 -0.2009  0.0312  0.2107
 8204W        W12255   4.577   1.409  10.200  0.2064 -0.1371 -0.1083
 8205W        W12256   8.133   4.823  10.335 -0.1899 -0.1990 -0.1745
 8206W        W12257   5.670   8.966  13.179 -0.1409 -0.0554 -0.1097
 8207W        W12258   7.756   0.313  11.052  0.3204  0.0466  0.1550
 8208W        W12259   3.756   6.902  11.624 -0.2269  0.0207  0.0069
 8209W        W12260   7.118   3.781   5.140  0.4263 -0.2355 -0.1352
 8210W        W12261   4.362   8.835   1.919 -0.0031  0.4046  0.0826
 8211W        W12262   4.442   8.756   9.972  0.2162 -0.1926 -0.0344
 8212W        W12263   4.394   7.744   0.290  0.0170  0.1598 -0.0545
 8213W        W12264   7.205   4.782   9.490 -0.0487 -0.1021  0.3015
 8214W        W12265   3.918   0.271  11.469 -0.4069 -0.1192 -0.0660
 8215W        W12266   7.853   0.528   9.240  0.2466 -0.0689 -0.0176
 8216W        W12267   9.463   0.191   1.258 -0.1270  0.0146 -0.0583
 8217W        W12268   6.321   1.287   2.797 -0.2168  0.0572  0.0399
 8218W        W12269   7.872   3.641  11.933 -0.2355 -0.0515 -0.1863
 8219W        W12270   5.750   7.234   1.578  0.2195  0.1151 -0.4173
 8220W        W12271   8.780   9.882   1.274 -0.1500 -0.4150 -0.0134
 8221W        W12272   2.211   8.876   4.673 -0.0079  0.1917  0.0151
 8222W        W12273   5.976   2.653  10.608 -0.2230  0.1502 -0.0465
 8223W        W12274   8.003   2.700   0.921 -0.0800  0.1016  0.2208
 8224W        W12275   1.556  10.172   2.637 -0.0167 -0.1710 -0.0367
 8225W        W12276   7.451   0.086   2.411  0.2739  0.0941  0.5722
 8226W        W12277   5.923   3.664  10.193  0.0449  0.3193 -0.0482
 8227W        W12278   3.959   2.405   3.856  0.1141 -0.1642 -0.0033
 8228W        W12279   3.271   8.821  13.791 -0.1964  0.0126  0.0031
 8229W        W12280   8.649   0.522   1.701 -0.1920 -0.1007 -0.0969
 8230W        W12281   9.364   3.018   0.152 -0.0373 -0.2504  0.3403
 8231W        W12282   6.001   7.363   3.917 -0.2971 -0.0873 -0.1761
 8232W        W12283   7.992   2.200  12.607 -0.0774  0.2630  0.0817
 8233W        W12284   9.391   3.517  10.145 -0.2058 -0.2734  0.1619
 8234W        W12285   6.489   7.607  11.947  0.7673 -0.0794  0.1561
 8235W        W12286   1.805   3.243  13.204 -0.3062 -0.3555 -0.0084
 8236W        W12287   5.273   2.436   1.941  0.0266  0.1273 -0.0137
 8237W        W12288   9.967   4.475   3.717  0.0164 -0.0463 -0.0298
 8238W        W12289   6.001   3.861   4.384 -0.0191  0.0557 -0.3195
 8239W        W12290   7.847   6.179   9.613  0.1414  0.3387  0.1056
 8240W        W12291   7.717   8.225   4.798  0.4288  0.3120 -0.0861
 8241W        W12292   0.018   3.577   3.885 -0.1923  0.0489 -0.2439
 8242W        W12293   0.954   4.889  13.665 -0.1841 -0.0618 -0.1835
 8243W        W12294   5.042   4.869  11.586 -0.2021  0.0513 -0.2129
 8244W        W12295   1.639   3.046  10.811  0.3466 -0.1257  0.0720
 8245W        W12296   8.634   6.035   0.938 -0.1039  0.2315 -0.1843
 8246W        W12297   9.152   2.503   0.226 -0.2980  0.0832  0.0832
 8247W        W12298   7.546   6.850  10.176  0.1416  0.3179 -0.1209
 8248W        W12299   2.801   4.325  13.580 -0.3014  0.1668  0.0556
 8249W        W12300   6.080   0.717   3.774 -0.0183 -0.2166 -0.0586
 8250W        W12301   6.250   7.266   4.832 -0.0099  0.0884  0.0876
 8251W        W12302   0.502   1.629   4.526 -0.0228  0.0367 -0.2783
 8252W        W12303   5.906   8.879   0.070 -0.2809 -0.0176 -0.0318
 8253W        W12304   8.491   3.186   0.370  0.2708  0.1868  0.0325
 8254W        W12305   9.450   6.773  12.122 -0.2183 -0.1186  0.2111
 8255W        W12306   7.389   3.410   2.489  0.0401 -0.3261 -0.0789
 8256W        W12307   9.720   2.977   9.217  0.0048 -0.0611  0.2918
 8257W        W12308   4.664   7.789  10.977  0.1104 -0.1601 -0.0836
 8258W        W12309   1.051   8.837  13.531 -0.1098 -0.0823 -0.4260
 8259W        W12310   3.356   5.080  13.428 -0.2614 -0.1879 -0.0539
 8260W        W12311   0.123   3.812   3.349  0.1901 -0.1703  0.0709
 8261W        W12312   4.041   8.714   2.322  0.1135 -0.0360 -0.0877
 8262W        W12313   6.056   2.364  11.537  0.1145  0.0948 -0.0784
 8263W        W12314   6.135   5.166  10.073 -0.0795 -0.1005 -0.1346
 8264W        W12315   0.983   0.088   2.643 -0.0308  0.1083  0.0610
 8265W        W12316   2.129   2.164   1.744  0.2547  0.1330  0.1215
 8266W        W12317   6.433   1.404  12.449  0.2087 -0.1139  0.3372
 8267W        W12318   9.808   3.458  11.023 -0.1068  0.4581 -0.1685
 8268W        W12319   3.727   1.574   0.703 -0.0062  0.1467  0.0598
 8269W        W12320   5.643   9.713  13.894 -0.1849  0.2954  0.0529
 8270W        W12321   4.385   7.996  12.733  0.2355  0.2206  0.0933
 8271W        W12322   6.273   6.774   9.263  0.0662 -0.1286  0.0659
 8272W        W12323   3.477   1.579   2.845  0.1827  0.2149 -0.1739
 8273W        W12324   5.804   2.516   1.754  0.2768  0.0764 -0.2810
 8274W        W12325   7.280   2.775   4.184  0.0548 -0.1582  0.1658
 8275W        W12326   5.631   1.921   2.209  0.2772 -0.2908  0.1279
 8276W        W12327   3.645   8.085   1.811  0.0248 -0.1318 -0.0109
 8277W        W12328   4.901   1.690   5.468  0.1007  0.1523  0.0139
 8278W        W12329   7.656   4.881   9.788  0.0951  0.0519 -0.0925
 8279W        W12330   0.981   2.303   4.296  0.0428 -0.0041  0.2193
 8280W        W12331   5.506   7.124   1.175 -0.0270  0.0025 -0.2686
 8281W        W12332   7.101   4.072   9.749 -0.2707 -0.2950  0.1658
 8282W        W12333   6.946   3.346   0.849 -0.0485  0.1811 -0.1465
 8283W        W12334   2.285   3.368  10.689  0.3996 -0.2791  0.0978
 8284W        W12335   0.023   6.524  11.749  0.0357  0.1643  0.0826
 8285W        W12336   9.755   7.494   2.546 -0.2053  0.1049 -0.2986
 8286W        W12337   9.006   5.813   9.658  0.0981  0.3619 -0.2927
 8287W        W12338   9.571   9.150   3.554  0.3149  0.2277 -0.0752
 8288W        W12339   2.982   5.878   3.294 -0.3386  0.4508  0.1011
 8289W        W12340   9.632   8.860  10.461 -0.1773 -0.1734 -0.1142
 8290W        W12341   6.055   4.793  12.356 -0.0659  0.1521 -0.0016
 8291W        W12342   3.927   2.573   1.974  0.1405  0.2762  0.2731
 8292W        W12343   9.842   9.747   0.298  0.4875  0.0504  0.0962
 8293W        W12344   4.975   0.101  12.308  0.2988 -0.2870  0.0913
 8294W        W12345   1.313   5.813   9.551  0.2168  0.0096  0.1888
 8295W        W12346   4.855   5.282  13.144 -0.0876 -0.0772  0.2103
 8296W        W12347   6.367   4.872   2.920 -0.2899  0.0509  0.0790
 8297W        W12348   8.266   0.011   4.236  0.0722  0.4059  0.2757
 8298W        W12349   4.279   7.422   1.216 -0.3495 -0.0240  0.0304
 8299W        W12350   7.911   6.132   3.113 -0.0087  0.1447 -0.0797
 8300W        W12351   5.342   7.336  12.055  0.0287 -0.0184 -0.0727
 8301W        W12352   9.071   7.687   1.247  0.0039  0.3986  0.0801
 8302W        W12353   4.955   6.315  10.780  0.2598 -0.0855 -0.3488
 8303W        W12354   7.311   4.806  13.870  0.1269 -0.1563 -0.0976
 8304W        W12355   3.450   3.768   5.372  0.0986  0.0609  0.0339
 8305W        W12356   5.801   4.063  11.632 -0.2505  0.2246 -0.1224
 8306W        W12357   7.696   7.364   4.877  0.1085 -0.0899  0.0493
 8307W        W12358   5.916   4.524  11.858  0.1387  0.0695  0.1656
 8308W        W12359   2.323   2.804  11.463 -0.1602  0.0854  0.0001
 8309W        W12360   0.312   2.302  10.530  0.0126  0.1844 -0.2735
 8310W        W12361   6.458   9.142   0.296  0.0754  0.2258 -0.1124
 8311W        W12362   2.626   0.814   0.491 -0.2391  0.1523 -0.2118
 8312W        W12363   9.516   9.405   2.928  0.1205  0.2801 -0.0295
 8313W        W12364   2.120   3.089   0.091  0.0768 -0.1099 -0.1836
 8314W        W12365   1.401   7.240  13.620 -0.5151 -0.0315 -0.2227
 8315W        W12366   5.320   1.956  12.633 -0.1656 -0.2185 -0.0218
 8316W        W12367   3.371   5.828   3.677 -0.0203 -0.2630 -0.0703
 8317W        W12368   3.229   4.934  12.954  0.1257  0.0192 -0.1892
 8318W        W12369   0.439   6.806  12.880  0.5936 -0.2106 -0.0410
 8319W        W12370   0.937   6.296   3.506  0.1706 -0.0742 -0.1069
 8320W        W12371   3.672   1.561   3.726 -0.0789  0.3266 -0.1329
 8321W        W12372   6.085   4.871   1.627  0.0228 -0.0220  0.0389
 8322W        W12373   8.246   4.790   4.296 -0.4212  0.0451  0.0851
 8323W        W12374   1.937   3.386  11.083 -0.1646 -0.1303  0.0142
 8324W        W12375   2.087   7.468   0.327 -0.1970  0.0491 -0.2117
 8325W        W12376   7.069   9.400   2.887 -0.0108 -0.0508 -0.4117
 8326W        W12377   4.321   2.550   9.945  0.0615 -0.2498  0.1848
 8327W        W12378   9.976   9.487  12.530  0.0183  0.2081 -0.0854
 8328W        W12379   3.256   2.864   5.535 -0.0564 -0.0247 -0.0600
 8329W        W12380   8.224   6.244  10.566  0.1856 -0.0099 -0.1315
 8330W        W12381   1.244   1.594  12.394  0.3963 -0.0925 -0.0903
 8331W        W12382   7.374   1.158   4.423 -0.1946 -0.2209  0.3027
 8332W        W12383   3.943   3.262  11.554 -0.1124 -0.3122  0.0665
 8333W        W12384   0.557   2.558   2.915 -0.2344  0.0641 -0.2935
 8334W        W12385  10.041   6.839   3.645 -0.2020 -0.0353 -0.2449
 8335W        W12386   0.405   3.050   2.696 -0.3711 -0.1225  0.0846
 8336W        W12387   8.601   3.497   5.030  0.2352  0.0249  0.3310
 8337W        W12388   1.021   3.488   3.164  0.1026 -0.1369  0.3083
 8338W        W12389   8.913   2.414   1.925 -0.3177  0.1430  0.3038
 8339W        W12390   2.706   9.301   2.366  0.0794 -0.2100 -0.2902
 8340W        W12391   3.667   1.305   5.064  0.0852 -0.3838  0.1909
 8341W        W12392   6.245   6.716  10.393 -0.3330  0.0857  0.0355
 8342W        W12393   0.767   2.361  10.648 -0.1334  0.1518  0.0770
 8343W        W12394   1.974   0.337  13.132 -0.1172  0.0648  0.1904
 8344W        W12395   2.643   7.394   2.507  0.2666 -0.1290 -0.4379
 8345W        W12396   1.395   9.344   1.704 -0.2420  0.1029 -0.3118
 8346W        W12397   6.804   3.050   3.410 -0.3399 -0.0560 -0.0588
 8347W        W12398   3.274   3.847   4.358 -0.0776 -0.1769 -0.0986
 8348W        W12399   1.529   3.396   2.318  0.1542 -0.0218  0.1429
 8349W        W12400   6.829   8.986  13.542 -0.0320  0.1485 -0.4020
 8350W        W12401   1.914   3.272  12.731 -0.3631 -0.2825 -0.1943
 8351W        W12402   8.194   7.221  11.763  0.1341 -0.0355  0.0522
 8352W        W12403   7.916   1.173   1.366 -0.0441 -0.2004  0.2699
 8353W        W12404   0.937   9.167  10.480  0.1436 -0.3407  0.4051
 8354W        W12405   9.445   6.406   3.561 -0.1580 -0.0041  0.2210
 8355W        W12406   9.159   2.293  11.162 -0.0889  0.4454  0.0614
 8356W        W12407   1.223   6.565   2.682  0.0535  0.2831  0.1089
 8357W        W12408   7.161   8.121   8.709  0.0189 -0.0072 -0.1639
 8358W        W12409   9.048   6.075  13.608 -0.0974 -0.1742  0.0918
 8359W        W12410   3.707   1.776   4.653  0.2250  0.0347  0.1801
 8360W        W12411   4.033   8.442   1.808 -0.3144 -0.3144  0.0201
 8361W        W12412   6.484   9.657   1.817  0.1197  0.2063 -0.3390
 8362W        W12413   2.816   9.382   1.646  0.0938 -0.1465  0.0871
 8363W        W12414   5.142   5.657   2.318  0.0023  0.1072 -0.0813
 8364W        W12415   4.915   1.142   2.419  0.0692 -0.0439 -0.0728
 8365W        W12416   9.933   6.915  13.028 -0.0090  0.3321  0.0605
 8366W        W12417   4.297   6.254   3.255 -0.1898 -0.0405 -0.2554
 8367W        W12418   1.410   3.442   3.486 -0.1216 -0.0167 -0.3168
 8368W        W12419   6.321   0.998   0.981  0.1736  0.5253  0.1391
 8369W        W12420   8.072   9.450   0.918  0.1912  0.3596 -0.0029
 8370W        W12421   2.411   9.586  13.303 -0.1845  0.0103  0.3533
 8371W        W12422   3.761   9.290   9.607  0.0910  0.2680 -0.1523
 8372W        W12423   1.260   2.217   1.659 -0.0581  0.2058  0.1775
 8373W        W12424   8.350   5.411   0.433  0.1017 -0.2248 -0.0618
 8374W        W12425   2.402   1.168   3.833 -0.0377  0.3119  0.0532
 8375W        W12426   4.171   0.387  11.987 -0.1365 -0.0447 -0.1598
 8376W        W12427  10.178   2.305   9.596 -0.2162  0.0684 -0.0806
 8377W        W12428   9.796   6.425   2.273  0.3432  0.0363  0.0401
 8378W        W12429   1.784   5.393   2.306 -0.0543 -0.2582  0.0289
 8379W        W12430   1.304   0.162  10.718 -0.3639  0.1533  0.1433
 8380W        W12431   0.504   5.928   3.457 -0.1889 -0.2224  0.2563
 8381W        W12432   9.039   9.790   0.700  0.2775  0.0750  0.0597
 8382W        W12433   3.253   8.766   9.946  0.2813  0.2743  0.2044
 8383W        W12434   9.389   2.245   5.672 -0.3540  0.2099  0.2800
 8384W        W12435   6.311   8.646  11.049  0.2076 -0.1466 -0.0600
 8385W        W12436   2.982   2.060  11.082  0.1260 -0.0186 -0.1270
 8386W        W12437   0.925   4.097   0.105 -0.1716  0.0725  0.0015
 8387W        W12438   9.822   6.747   3.175  0.0002 -0.1429 -0.0135
 8388W        W12439   4.059   1.151   1.751 -0.0191  0.2970 -0.2199
 8389W        W12440   8.418   4.353  12.723 -0.0513 -0.2416  0.0360
 8390W        W12441   0.451   9.471   1.852  0.2182 -0.0571 -0.0666
 8391W        W12442   5.302   8.272   0.343 -0.0078 -0.1276  0.3114
 8392W        W12443   4.340   1.310   2.252  0.2976  0.0812  0.0173
 8393W        W12444   1.221   5.260   2.392  0.0038 -0.2924 -0.1743
 8394W        W12445   3.791   5.446   3.494  0.2589 -0.4002  0.0386
 8395W        W12446   5.091   6.576   0.301  0.1678 -0.0797  0.2034
 8396W        W12447   9.647   5.723   1.103  0.1130 -0.0766  0.0209
 8397W        W12448   8.835   1.102  11.946  0.2203 -0.1073 -0.0731
 8398W        W12449   8.643   1.999  10.692 -0.0344 -0.1830 -0.0712
 8399W        W12450   8.152   2.998  13.405 -0.2642 -0.3659 -0.2317
 8400W        W12451   6.136   2.085  13.898 -0.1197  0.1519 -0.0734
 8401W        W12452   3.063   0.834   3.420  0.3697 -0.1325  0.1614
 8402W        W12453   9.935   2.966   0.377  0.2863  0.0638  0.0207
 8403W        W12454   6.143   5.305  11.669  0.0416  0.1202 -0.1340
 8404W        W12455   9.056   6.357  11.225  0.2230  0.4346  0.2187
 8405W        W12456   6.625   6.578  12.223  0.1376 -0.0855 -0.2756
 8406W        W12457   6.421   0.366   4.125  0.0843  0.0541  0.0430
 8407W        W12458   7.942   1.873  11.192 -0.0637 -0.2811  0.3596
 8408W        W12459   1.029   0.293  12.356 -0.2523  0.3237 -0.1508
 8409W        W12460   3.542   7.770   0.514  0.3685 -0.0008  0.2046
 8410W        W12461   1.488   6.398   3.076 -0.0709 -0.1388 -0.0913
 8411W        W12462   7.908   0.550  12.658 -0.4918 -0.2148 -0.1244
 8412W        W12463   1.903   5.058   1.742  0.2261  0.1572  0.0542
 8413W        W12464   5.027   9.576   1.227  0.0510 -0.0997 -0.0426
 8414W        W12465   1.268   3.665   2.600  0.3336  0.1099  0.2931
 8415W        W12466   6.610   9.755  10.162 -0.2344 -0.1377  0.4257
 8416W        W12467   6.273   3.126   2.980  0.2372  0.0467 -0.4424
 8417W        W12468   6.233   8.372   9.082  0.2916 -0.1049  0.2857
 8418W        W12469   2.671   1.688  10.437 -0.2795  0.0076  0.0933
 8419W        W12470   1.203   2.714  10.704  0.1258  0.2003  0.0553
 8420W        W12471   5.237   5.695  12.000  0.2191 -0.1268 -0.0871
 8421W        W12472   7.491   8.511  10.435 -0.0816 -0.0138  0.0801
 8422W        W12473   7.819   3.775   1.997  0.0060  0.0059 -0.1943
 8423W        W12474   5.832   1.100   0.543 -0.3405 -0.1376 -0.0637
 8424W        W12475   2.596   2.087   1.535  0.0619 -0.0011  0.0841
 8425W        W12476   7.997   3.448  10.483  0.0357  0.1457 -0.0138
 8426W        W12477   1.988   2.848  11.080 -0.1340 -0.0141  0.3021
 8427W        W12478   1.057   3.151   9.244 -0.4551 -0.2428 -0.2279
 8428W        W12479   7.311   5.990   1.340  0.3795 -0.0086  0.0164
 8429W        W12480   4.734   3.360   1.563 -0.2335 -0.0220  0.4605
 8430W        W12481   1.918   6.234   3.358 -0.2083 -0.2033  0.1670
 8431W        W12482   7.807   5.493   8.921  0.0202 -0.0966  0.0651
 8432W        W12483   8.050   5.839  10.875 -0.0414 -0.0806 -0.2326
 8433W        W12484   3.141   9.057   2.185 -0.1096 -0.2021 -0.0630
 8434W        W12485   1.825   2.274  10.324 -0.0595  0.1361 -0.0267
 8435W        W12486   7.738   7.116  10.980 -0.2786 -0.1809  0.1318
 8436W        W12487   2.500   0.164  13.619 -0.0921  0.1387  0.1483
 8437W        W12488   0.491   2.467   1.018  0.2011 -0.1245 -0.2328
 8438W        W12489   4.359   0.098  11.599  0.0389  0.2825 -0.0092
 8439W        W12490   0.614   4.078   4.583 -0.0234 -0.0603  0.3349
 8440W        W12491   1.704   8.785   3.341 -0.0260  0.4397 -0.0957
 8441W        W12492   3.718   5.536   9.289 -0.0760 -0.1117  0.0151
 8442W        W12493   8.536   0.479   1.034 -0.1985  0.3754  0.1568
 8443W        W12494   4.137   5.018  13.204 -0.1599  0.3441  0.3869
 8444W        W12495   7.251   6.562   2.844  0.1550 -0.1565 -0.0231
 8445W        W12496   8.078   7.922   0.435 -0.1857 -0.0728  0.1121
 8446W        W12497   8.573   2.175   9.480 -0.2186 -0.1936  0.1766
 8447W        W12498  10.102   2.050   3.590  0.2686  0.0877  0.1821
 8448ION    NA+12499   8.498   8.719   3.840  0.2869 -0.0378  0.1350
 8449ION    NA+12500   1.436   5.278   1.932  0.2012 -0.2108 -0.1590
 8450ION    NA+12501   3.458  10.050   9.236 -0.1262  0.0498 -0.0576
 8451ION    NA+12502   4.975   3.961   5.316 -0.1658  0.1000 -0.0910
 8452ION    NA+12503   1.631   9.057   2.072  0.2118  0.3011 -0.2066
 8453ION    NA+12504   5.292   1.599   1.367  0.2394 -0.1230  0.4230
 8454ION    NA+12505   7.954   3.897  10.192 -0.1128 -0.0468  0.1222
 8455ION    NA+12506   0.102   8.723   4.579  0.0807  0.0945 -0.0275
 8456ION    NA+12507   6.547   7.669   5.072  0.0365  0.4097  0.0004
 8457ION    NA+12508   2.130  10.119   3.424  0.0428 -0.1230  0.0331
 8458ION    NA+12509   1.794  10.019  12.334 -0.1640  0.1595 -0.0006
 8459ION    NA+12510   1.750   7.823   0.538  0.3851  0.0131 -0.3879
 8460ION    NA+12511   4.040   0.640   5.206  0.1682 -0.0966 -0.0887
 8461ION    NA+12512   1.781   6.681   3.387 -0.0893  0.2855  0.4189
 8462ION    NA+12513   1.720   6.028   1.888  0.4469 -0.0401 -0.0117
 8463ION    NA+12514   0.911   7.378  12.271  0.2009  0.1028  0.1727
 8464ION    NA+12515   1.402   1.327  11.942  0.0169  0.2644 -0.0046
 8465ION    NA+12516   1.256   9.401   2.774 -0.0951  0.1702  0.2393
 8466ION    NA+12517   9.151   3.034  13.204  0.4384 -0.2819  0.0769
 8467ION    NA+12518   1.380   4.520   9.601  0.0248  0.1895 -0.2298
 8468ION    NA+12519   8.931   2.537   3.333 -0.0556 -0.2659 -0.2005
 8469ION    NA+12520   2.327   4.551   3.593 -0.1056 -0.3077 -0.1098
 8470ION    NA+12521   6.096   0.574   4.564 -0.0291 -0.2855  0.2649
 8471ION    NA+12522   3.938   4.140  10.966  0.4004  0.2351 -0.0468
 8472ION    NA+12523   4.946   8.632   1.175  0.0090  0.1657  0.0276
 8473ION    NA+12524   7.605   0.103   9.194 -0.2552 -0.1680  0.1072
 8474ION    NA+12525   9.814   1.430   4.231 -0.1054 -0.1535  0.2077
 8475ION    NA+12526   6.290   4.194  12.900 -0.0212 -0.1026 -0.2632
 8476ION    NA+12527   0.515   0.295   5.299  0.2478 -0.0299  0.0437
 8477ION    NA+12528   0.182   1.162  13.922  0.5196  0.2315 -0.0379
 8478ION    NA+12529   9.546   5.306   2.707 -0.2082  0.1261 -0.2833
 8479ION    NA+12530   3.342   5.214  12.455 -0.0248  0.1895 -0.0104
 8480ION    NA+12531   5.783   6.768  13.172 -0.5846 -0.0337  0.3292
 8481ION    NA+12532   1.077   2.553   2.117 -0.2658  0.0724 -0.0976
 8482ION    NA+12533   0.560   1.947   1.359 -0.0164 -0.0779  0.0119
 8483ION    NA+12534   5.426   4.915   0.650 -0.0005 -0.2154 -0.0339
 8484ION    NA+12535   9.464   2.572   5.304  0.3046  0.1025 -0.0753
 8485ION    NA+12536   2.892   0.585  11.735 -0.1531 -0.0857  0.0537
 8486ION    NA+12537   7.188   2.354   3.198  0.4054  0.1181 -0.4038
 8487ION    NA+12538   9.890   4.399   1.297 -0.0068  0.1777  0.0720
 8488ION    NA+12539   7.675   4.609  13.250 -0.2057  0.2182  0.0921
 8489ION    NA+12540   4.308   5.698   4.065  0.1225 -0.0094 -0.1109
 8490ION    NA+12541   3.706   7.026  10.673  0.0094  0.1327 -0.1859
 8491ION    NA+12542   6.415   9.896   4.701  0.0250  0.1142  0.1805
 8492ION    NA+12543   6.429   3.109   2.097 -0.0562  0.3235 -0.1312
 8493ION    NA+12544   3.247   2.009   5.298 -0.0657 -0.1994 -0.0594
 8494ION    NA+12545   0.133   7.536   1.475  0.1558  0.2732  0.0228
 8495ION    NA+12546   4.152   7.421   1.706 -0.0211  0.1518 -0.2481
 8496ION    NA+12547   1.959   9.245  13.008 -0.0982 -0.1683 -0.2459
 8497ION    NA+12548   6.817   9.078   1.145 -0.0356  0.0904 -0.0692
 8498ION    NA+12549   6.170   9.311   5.324  0.0278  0.0803 -0.0346
 8499ION    NA+12550   5.753   2.455   4.585  0.2149 -0.0304  0.1901
 8500ION    NA+12551   9.428   9.667   5.336 -0.0660 -0.0411 -0.0713
 8501ION    NA+12552   8.877   2.495   9.807 -0.0411 -0.0852 -0.0131
 8502ION    NA+12553   2.712   1.966  12.224 -0.1415 -0.0643 -0.1498
 8503ION    NA+12554   7.367   1.768   5.360 -0.0084  0.0737 -0.1538
 8504ION    NA+12555   8.367   1.414   5.170 -0.3648  0.0121  0.3479
 8505ION    NA+12556   2.400   1.281   2.686 -0.1169 -0.0181 -0.0622
 8506ION    NA+12557   9.191   4.745   8.948  0.1228  0.3269 -0.2030
 8507ION    NA+12558   4.968   3.072  12.378  0.0438 -0.0193 -0.0499
 8508ION    NA+12559   2.040   5.102   9.989  0.1285 -0.1695 -0.1467
 8509ION    NA+12560   8.321   4.030   1.673 -0.1834 -0.0342  0.4123
 8510ION    NA+12561   0.380   9.786   1.019  0.0811  0.0224  0.2295
 8511ION    NA+12562   7.903   7.611  13.923  0.4021 -0.0908 -0.0031
 8512ION    NA+12563   4.947   7.319  13.853 -0.1922  0.0416  0.2805
 8513ION    NA+12564   6.047   1.178  12.713  0.0789 -0.1614  0.4941
 8514ION    NA+12565   6.880   3.681  13.409 -0.0427  0.0547 -0.2202
 8515ION    NA+12566   3.152   3.407  11.537  0.1294 -0.0820  0.1350
 8516ION    NA+12567   2.007   9.347   9.686  0.0170 -0.0226 -0.0912
 8517ION    NA+12568   1.098   6.149   0.241  0.1032  0.1657 -0.0780
 8518ION    NA+12569   6.019   2.338  12.367  0.0171 -0.0785  0.1098
 8519ION    NA+12570   0.345   7.946  10.617 -0.0962  0.2007 -0.1782
 8520ION    NA+12571   3.904  10.008  13.600 -0.3043  0.0222 -0.1052
 8521ION    NA+12572   1.618   0.260   9.245  0.1428  0.1510 -0.1893
 8522ION    NA+12573   5.507   7.925   9.023  0.0397 -0.4009 -0.1741
 8523ION    NA+12574   8.403   5.597   3.257 -0.1371 -0.0807  0.1764
 8524ION    NA+12575   4.936   0.939   8.969 -0.1707 -0.1496  0.0305
 8525ION    NA+12576   4.457   2.502   3.234  0.0320 -0.2020 -0.0948
 8526ION    NA+12577   8.217   0.656   3.218  0.0549 -0.2137 -0.1316
 8527ION    NA+12578   7.919   3.567  13.279 -0.2429  0.0134  0.2455
 8528ION    NA+12579   5.444   6.351   0.744  0.0673 -0.1701 -0.0016
 8529ION    NA+12580   3.792   1.811   9.369  0.0410  0.3403 -0.2087
 8530ION    NA+12581   5.335   2.370  12.970 -0.0986  0.1030  0.0157
 8531ION    NA+12582   9.492   6.228   0.756 -0.0769 -0.1758  0.3271
 8532ION    NA+12583   1.671   8.280   3.349 -0.3250 -0.0289  0.0582
 8533ION    NA+12584   4.386   1.947  12.624  0.2634  0.1837 -0.0546
 8534ION    NA+12585   6.604   7.151   2.661 -0.0355 -0.0084  0.0391
 8535ION    NA+12586   5.604   3.996  11.176 -0.1279  0.1225  0.1401
 8536ION    NA+12587   5.055   6.676  11.135  0.1901  0.2718  0.0402
 8537ION    CL-12588   1.405   0.880   3.880  0.1736  0.0484  0.0890
 8538ION    CL-12589   0.614   3.438   9.131  0.0708  0.3616 -0.1802
 8539ION    CL-12590   0.212   7.097   1.027 -0.0976  0.0982  0.1752
 8540ION    CL-12591   6.410   6.251   9.580 -0.0928 -0.1143 -0.1070
 8541ION    CL-12592   0.264   6.331  12.903  0.0452 -0.2229  0.1414
 8542ION    CL-12593   9.384   7.824   9.761  0.0779  0.1535  0.0446
 8543ION    CL-12594   0.980   1.087  11.789 -0.1784 -0.1697  0.0504
 8544ION    CL-12595   9.238   7.742   4.435  0.0316  0.1832 -0.1606
 8545ION    CL-12596   0.656   9.511   1.348 -0.2842 -0.1822 -0.0374
 8546ION    CL-12597   0.942   6.349  13.798  0.4363  0.1229  0.0401
 8547ION    CL-12598   4.227   6.968  10.772 -0.0546  0.1467  0.2107
 8548ION    CL-12599   7.853   0.283   3.140 -0.0994 -0.0022  0.0744
 8549ION    CL-12600   6.777   3.126   9.966  0.2524  0.0656 -0.0592
 8550ION    CL-12601   4.854   2.251  12.604 -0.0584 -0.1995  0.2554
 8551ION    CL-12602   8.857   4.309   3.521 -0.0439 -0.0315  0.1634
 8552ION    CL-12603   5.454   1.690  10.128  0.0423 -0.4125 -0.2455
 8553ION    CL-12604   8.599   5.738   3.735  0.1621  0.0029 -0.3235
 8554ION    CL-12605   2.629   2.688   9.983 -0.2385  0.1375 -0.5185
 8555ION    CL-12606   9.416   6.872  10.144  0.1445 -0.0578  0.0260
 8556ION    CL-12607   1.843   1.589  11.017 -0.0289  0.1161  0.3899
 8557ION    CL-12608   1.952   6.924   0.397  0.0790  0.0128  0.0494
 8558ION    CL-12609   7.908   3.201   4.312  0.0213  0.2643 -0.1207
 8559ION    CL-12610   8.656   9.060   4.476  0.3426  0.1222 -0.1840
 8560ION    CL-12611   5.575   2.634  12.577  0.0684 -0.2436  0.2427
 8561ION    CL-12612   9.463   3.627   4.609 -0.2342  0.0777  0.0174
 8562ION    CL-12613   8.946  10.160   9.257  0.1228  0.0383 -0.2735
 8563ION    CL-12614   6.583   3.045   1.598  0.2102  0.0817 -0.0103
 8564ION    CL-12615   0.581   2.079   1.848 -0.0473  0.1126  0.1243
 8565ION    CL-12616   4.040   9.611   3.947 -0.2172 -0.3340 -0.0833
 8566ION    CL-12617   7.844   7.231  13.471  0.3780 -0.0628 -0.0070
 8567ION    CL-12618   6.293   2.143  12.765  0.0913 -0.0137 -0.5031
 8568ION    CL-12619   1.793   4.578   3.720  0.1670  0.1689 -0.3831
 8569ION    CL-12620   1.957   5.395   3.645 -0.2345 -0.1361  0.1362
 8570ION    CL-12621   1.397   7.490  12.070 -0.0668  0.2412 -0.1208
 8571ION    CL-12622   1.265   5.586  10.448  0.1603  0.0097  0.0787
 8572ION    CL-12623   1.618   6.448   1.608  0.0362 -0.1894  0.1868
 8573ION    CL-12624   1.796   7.197   3.273  0.1144 -0.0094  0.1885
 8574ION    CL-12625   9.472   5.304  10.431  0.3593 -0.0192 -0.0898
 8575ION    CL-12626   8.732   4.219   1.818 -0.1392  0.1655  0.2815
 8576ION    CL-12627   0.261   2.306  11.585 -0.1903 -0.1106  0.2540
 8577ION    CL-12628   8.634   7.004   2.258 -0.0668  0.1320 -0.2233
 8578ION    CL-12629   6.328   6.304  12.656  0.1086  0.0169  0.1078
 8579ION    CL-12630   1.555   7.308  11.028  0.0227 -0.0120 -0.0994
 8580ION    CL-12631   4.086  10.136  13.162 -0.1359  0.0592 -0.1648
 8581ION    CL-12632   6.525   4.682  12.943  0.1962  0.0352  0.5042
 8582ION    CL-12633   3.770   5.002  11.760 -0.3404  0.2737 -0.0966
 8583ION    CL-12634   1.256   9.345   2.222 -0.1402  0.2161 -0.0530
 8584ION    CL-12635   8.813   7.928  11.460  0.0856 -0.1217  0.1030
 8585ION    CL-12636   3.097   0.253  12.178  0.1156 -0.0200 -0.0199
 8586ION    CL-12637   9.031   5.342   2.547  0.1884 -0.0410 -0.0969
 8587ION    CL-12638   2.108   9.724  12.934  0.0422  0.0952 -0.0430
 8588ION    CL-12639   5.544   9.469   4.480  0.0689  0.0831 -0.0105
 8589ION    CL-12640   3.476   3.934  11.012 -0.4443 -0.1923  0.1369
 8590ION    CL-12641   7.821   8.703  10.137 -0.3801 -0.0262  0.0075
 8591ION    CL-12642   0.924   1.353   9.632  0.0562  0.2208  0.2460
 8592ION    CL-12643   4.506   3.639   4.345 -0.1060  0.2209  0.0413
 8593ION    CL-12644   3.485   6.552   2.851  0.0714 -0.2793 -0.0439
 8594ION    CL-12645   9.314   2.084   4.442 -0.0351  0.1264  0.3790
 8595ION    CL-12646   7.908   4.165  10.574 -0.2530 -0.0413 -0.4970
 8596ION    CL-12647   0.009   0.919  12.305 -0.1461  0.0558  0.2052
 8597ION    CL-12648   3.662   7.247   1.935 -0.1684 -0.0544  0.2541
 8598ION    CL-12649   9.340   1.315   1.850  0.1227  0.1046 -0.0008
 8599ION    CL-12650   0.498   4.595  10.127 -0.0519 -0.2200  0.0835
 8600ION    CL-12651   1.291   9.982  12.345 -0.0764  0.0104 -0.0507
 8601ION    CL-12652   6.736   7.760   2.726 -0.2631  0.0398  0.1229
 8602ION    CL-12653   6.092   1.151   4.659  0.1450 -0.0576 -0.0870
 8603ION    CL-12654   9.180   6.442   0.369 -0.2349 -0.1773 -0.0717
 8604ION    CL-12655   8.451   3.503  13.399  0.0210  0.0667  0.3188
 8605ION    CL-12656   3.769   8.751   2.748  0.3116  0.0265  0.1253
 8606ION    CL-12657   8.101   5.675   9.339  0.2514  0.0121  0.3937
 8607ION    CL-12658   8.531   2.864   9.839 -0.1096  0.0524 -0.1185
 8608ION    CL-12659   3.958   9.433  10.179 -0.1708  0.1040 -0.0674
 8609ION    CL-12660   6.223   2.095   4.830 -0.2786 -0.2672  0.0601
 8610ION    CL-12661   6.028   7.047   2.597 -0.2366  0.1001 -0.1611
 8611ION    CL-12662   7.904   6.238   2.278 -0.0649 -0.0140  0.3304
 8612ION    CL-12663   9.902   4.947   1.456 -0.0365 -0.0717  0.2689
 8613ION    CL-12664   5.502   1.606  12.244  0.2402  0.0722  0.1219
 8614ION    CL-12665   5.446   1.187   1.148  0.2060 -0.3879 -0.1738
 8615ION    CL-12666   9.950   8.380   0.178 -0.0226 -0.0892  0.1028
 8616ION    CL-12667  10.118   1.463  13.494 -0.2868  0.0024  0.1929
 8617ION    CL-12668   7.454   0.626   9.495 -0.0670  0.0131  0.0961
 8618ION    CL-12669   1.908   3.964   3.112 -0.0785  0.2139 -0.1774
 8619ION    CL-12670   5.775  10.121  10.067 -0.2786  0.1035 -0.1823
 8620ION    CL-12671   1.829   6.489   2.702  0.1465  0.1631 -0.3007
 8621ION    CL-12672   7.571   3.846   9.615  0.0843 -0.2741 -0.1604
 8622ION    CL-12673   4.053   5.242   3.893 -0.1058 -0.0185 -0.0254
 8623ION    CL-12674   5.005   8.291   1.621 -0.0285 -0.2042 -0.2937
 8624ION    CL-12675   3.107   1.798  12.458 -0.0517 -0.0127  0.0034
 8625ION    CL-12676   1.898   9.779   3.683 -0.0114  0.0654  0.0875
  10.18207  10.18207  13.97836
