#include "../../martini_v2.2.itp"
#include "cg.itp"
#include "../../martini_v2.0_solvents.itp"
#include "../../martini_v2.0_lipids_all_201506.itp"
#include "../../martini_v2.0_ions.itp"


[ system ]
; name
Protein in INSANE! Membrane UpperLeaflet>POPC=1.0 LowerLeaflet>POPC=1.0

[ molecules ]
; name  number
AU            10
POPC          3114
POPC          3114
W           166533
NA+           1833
CL-           1833
