Protein in INSANE! Membrane UpperLeaflet>POPC=1.0 LowerLeaflet>POPC=1.0
11125
    1AU     AUC    1   5.244   5.292   5.992
    1AU     AUC    2   5.397   5.279   5.918
    1AU     AUC    3   5.385   5.278   6.066
    1AU     AUC    4   5.109   5.295   5.903
    1AU     AUC    5   5.098   5.289   6.070
    1AU     AUC    6   5.160   5.442   5.990
    1AU     AUC    7   5.341   5.427   6.000
    1AU     AUC    8   5.138   5.164   5.976
    1AU     AUC    9   5.334   5.147   5.997
    1AU     AUC   10   5.239   5.201   6.138
    1AU     AUC   11   5.254   5.384   6.134
    1AU     AUC   12   5.237   5.218   5.833
    1AU     AUC   13   5.256   5.395   5.850
    1AU     AUC   14   5.518   5.289   5.819
    1AU     AUC   15   5.576   5.279   6.013
    1AU     AUC   16   5.521   5.275   6.167
    1AU     AUC   17   4.962   5.324   5.826
    1AU     AUC   18   4.910   5.325   6.034
    1AU     AUC   19   4.977   5.297   6.167
    1AU     AUC   20   5.080   5.565   5.997
    1AU     AUC   21   5.221   5.625   6.006
    1AU     AUC   22   5.437   5.548   6.004
    1AU     AUC   23   5.083   5.015   5.981
    1AU     AUC   24   5.238   4.980   5.971
    1AU     AUC   25   5.374   5.005   5.978
    1AU     AUC   26   5.236   5.132   6.264
    1AU     AUC   27   5.238   5.287   6.308
    1AU     AUC   28   5.260   5.450   6.265
    1AU     AUC   29   5.251   5.142   5.715
    1AU     AUC   30   5.269   5.296   5.671
    1AU     AUC   31   5.271   5.469   5.723
    1AU     AUC   32   5.398   5.185   6.265
    1AU     AUC   33   5.440   5.353   6.252
    1AU     AUC   34   5.410   5.185   5.738
    1AU     AUC   35   5.399   5.416   5.723
    1AU     AUC   36   5.098   5.188   6.249
    1AU     AUC   37   5.082   5.400   6.254
    1AU     AUC   38   5.078   5.239   5.714
    1AU     AUC   39   5.118   5.436   5.708
    1AU     AUC   40   5.531   5.412   5.858
    1AU     AUC   41   5.531   5.455   6.078
    1AU     AUC   42   4.988   5.456   5.878
    1AU     AUC   43   4.989   5.459   6.086
    1AU     AUC   44   5.500   5.117   5.878
    1AU     AUC   45   5.482   5.073   6.115
    1AU     AUC   46   4.984   5.119   5.879
    1AU     AUC   47   4.968   5.151   6.089
    1AU     AUC   48   5.133   5.534   6.192
    1AU     AUC   49   5.351   5.527   6.170
    1AU     AUC   50   5.142   5.032   6.162
    1AU     AUC   51   5.314   5.032   6.157
    1AU     AUC   52   5.159   5.556   5.836
    1AU     AUC   53   5.371   5.545   5.849
    1AU     AUC   54   5.148   5.047   5.794
    1AU     AUC   55   5.334   5.039   5.814
    1AU    AUSL   56   5.514   5.278   6.312
    1AU    AUSL   57   5.518   4.936   6.395
    1AU     AUL   58   5.335   5.160   6.695
    1AU       S   59   5.799   4.588   6.593
    1AU     LIG   60   5.942   4.433   6.990
    1AU     LIG   61   6.033   4.035   7.214
    1AU     LIG   62   6.251   3.703   7.460
    1AU     LIG   63   6.340   3.523   7.888
    1AU       S   64   5.994   5.218   6.771
    1AU     LIG   65   6.060   5.296   7.240
    1AU     LIG   66   6.190   5.107   7.658
    1AU     LIG   67   6.483   5.045   8.033
    1AU     LIG   68   6.843   5.136   8.340
    1AU    AUSL   69   5.315   5.124   6.426
    1AU    AUSL   70   5.209   5.376   6.418
    1AU     AUL   71   5.195   5.402   6.720
    1AU       S   72   5.790   4.990   6.919
    1AU     LIG   73   5.883   4.812   7.344
    1AU     LIG   74   5.861   4.713   7.809
    1AU     LIG   75   5.756   4.629   8.266
    1AU     LIG   76   5.890   4.679   8.712
    1AU       S   77   4.761   5.474   6.959
    1AU     LIG   78   4.710   5.407   7.425
    1AU     LIG   79   4.677   5.233   7.872
    1AU     LIG   80   4.530   5.228   8.318
    1AU     LIG   81   4.533   5.415   8.749
    1AU    AUSL   82   5.441   5.395   6.561
    1AU    AUSL   83   5.664   5.487   6.401
    1AU     AUL   84   5.573   5.176   6.515
    1AU       S   85   5.633   5.496   7.002
    1AU     LIG   86   5.751   5.681   7.433
    1AU     LIG   87   5.706   5.882   7.881
    1AU     LIG   88   5.760   5.962   8.360
    1AU     LIG   89   5.789   5.910   8.838
    1AU       S   90   5.919   5.718   6.671
    1AU     LIG   91   6.233   5.734   7.002
    1AU     LIG   92   6.619   5.990   7.114
    1AU     LIG   93   6.917   6.281   7.347
    1AU     LIG   94   7.283   6.400   7.632
    1AU    AUSL   95   5.652   5.383   5.508
    1AU    AUSL   96   5.573   5.634   5.603
    1AU     AUL   97   5.371   5.639   5.392
    1AU       S   98   5.895   5.386   5.172
    1AU     LIG   99   6.147   5.263   4.837
    1AU     LIG  100   6.186   5.114   4.400
    1AU     LIG  101   6.268   5.043   3.937
    1AU     LIG  102   6.469   5.022   3.506
    1AU       S  103   5.831   5.891   5.348
    1AU     LIG  104   5.945   6.054   4.908
    1AU     LIG  105   6.177   6.329   4.575
    1AU     LIG  106   6.448   6.639   4.337
    1AU     LIG  107   6.689   6.925   4.071
    1AU    AUSL  108   5.440   5.244   5.382
    1AU    AUSL  109   5.519   5.175   5.640
    1AU     AUL  110   5.674   5.143   5.618
    1AU       S  111   5.833   4.839   5.230
    1AU     LIG  112   6.078   4.469   5.025
    1AU     LIG  113   6.389   4.154   4.803
    1AU     LIG  114   6.675   3.887   4.522
    1AU     LIG  115   7.011   3.795   4.189
    1AU       S  116   5.604   5.223   5.002
    1AU     LIG  117   5.793   4.895   4.714
    1AU     LIG  118   5.834   4.770   4.252
    1AU     LIG  119   5.850   4.788   3.773
    1AU     LIG  120   6.012   4.854   3.329
    1AU    AUSL  121   5.386   5.430   5.591
    1AU    AUSL  122   5.226   5.198   5.545
    1AU     AUL  123   5.146   5.128   5.452
    1AU       S  124   5.025   5.086   4.965
    1AU     LIG  125   4.815   4.821   4.616
    1AU     LIG  126   4.677   4.682   4.172
    1AU     LIG  127   4.550   4.726   3.711
    1AU     LIG  128   4.600   4.826   3.241
    1AU       S  129   5.685   5.522   5.009
    1AU     LIG  130   5.747   5.386   4.535
    1AU     LIG  131   5.808   5.257   4.070
    1AU     LIG  132   5.927   5.282   3.608
    1AU     LIG  133   5.887   5.472   3.177
    1AU    AUSL  134   4.956   5.312   6.333
    1AU    AUSL  135   5.102   5.618   6.278
    1AU     AUL  136   5.260   5.616   6.549
    1AU       S  137   4.570   5.317   6.795
    1AU     LIG  138   4.296   5.268   7.158
    1AU     LIG  139   4.256   5.123   7.603
    1AU     LIG  140   4.130   5.022   8.054
    1AU     LIG  141   3.871   5.089   8.456
    1AU       S  142   4.821   5.956   6.704
    1AU     LIG  143   4.714   6.012   7.159
    1AU     LIG  144   4.516   6.343   7.440
    1AU     LIG  145   4.254   6.678   7.653
    1AU     LIG  146   4.063   6.863   8.048
    1AU    AUSL  147   5.058   5.203   6.565
    1AU    AUSL  148   4.813   5.082   6.411
    1AU     AUL  149   5.134   4.969   6.578
    1AU       S  150   4.547   4.838   6.638
    1AU     LIG  151   4.118   4.684   6.637
    1AU     LIG  152   3.914   4.329   6.825
    1AU     LIG  153   3.704   4.003   7.067
    1AU     LIG  154   3.459   3.742   7.354
    1AU       S  155   4.778   5.165   6.949
    1AU     LIG  156   4.632   4.897   7.294
    1AU     LIG  157   4.586   4.741   7.739
    1AU     LIG  158   4.531   4.716   8.199
    1AU     LIG  159   4.452   4.552   8.631
    1AU    AUSL  160   4.993   5.277   5.642
    1AU    AUSL  161   4.921   5.023   5.580
    1AU     AUL  162   5.111   4.852   5.449
    1AU       S  163   4.722   5.172   5.100
    1AU     LIG  164   4.395   5.020   4.837
    1AU     LIG  165   4.313   4.989   4.374
    1AU     LIG  166   4.139   4.990   3.924
    1AU     LIG  167   3.704   5.005   3.686
    1AU       S  168   4.588   4.775   5.352
    1AU     LIG  169   4.342   4.433   5.110
    1AU     LIG  170   4.080   4.097   4.868
    1AU     LIG  171   3.794   3.871   4.562
    1AU     LIG  172   3.661   3.663   4.160
    1AU    AUSL  173   5.063   5.391   5.405
    1AU    AUSL  174   4.847   5.494   5.553
    1AU     AUL  175   5.212   5.416   5.380
    1AU       S  176   4.588   5.642   5.243
    1AU     LIG  177   4.303   5.922   4.974
    1AU     LIG  178   4.041   6.183   4.654
    1AU     LIG  179   3.710   6.436   4.412
    1AU     LIG  180   3.242   6.441   4.253
    1AU       S  181   4.907   5.373   4.963
    1AU     LIG  182   4.716   5.311   4.524
    1AU     LIG  183   4.660   5.185   4.048
    1AU     LIG  184   4.621   5.227   3.576
    1AU     LIG  185   4.712   5.369   3.127
    1AU    AUSL  186   5.810   5.511   5.940
    1AU    AUSL  187   5.610   5.416   5.777
    1AU     AUL  188   5.819   5.725   6.062
    1AU       S  189   6.050   5.753   5.510
    1AU     LIG  190   6.279   5.715   5.124
    1AU     LIG  191   6.469   5.974   4.808
    1AU     LIG  192   6.730   6.271   4.554
    1AU     LIG  193   6.994   6.568   4.288
    1AU       S  194   6.305   5.596   5.907
    1AU     LIG  195   6.755   5.845   5.947
    1AU     LIG  196   7.204   6.083   5.992
    1AU     LIG  197   7.439   6.524   6.065
    1AU     LIG  198   7.704   6.790   6.359
    1AU    AUSL  199   5.838   5.266   5.823
    1AU    AUSL  200   5.845   5.080   6.046
    1AU     AUL  201   5.854   5.454   6.206
    1AU       S  202   6.281   5.347   5.727
    1AU     LIG  203   6.756   5.389   5.706
    1AU     LIG  204   7.193   5.592   5.770
    1AU     LIG  205   7.643   5.748   5.725
    1AU     LIG  206   8.040   5.506   5.586
    1AU       S  207   6.233   4.842   6.089
    1AU     LIG  208   6.659   4.691   6.258
    1AU     LIG  209   7.133   4.562   6.289
    1AU     LIG  210   7.585   4.421   6.299
    1AU     LIG  211   8.029   4.509   6.438
    1AU    AUSL  212   5.674   5.299   6.069
    1AU    AUSL  213   5.591   5.555   6.113
    1AU     AUL  214   5.592   5.700   6.224
    1AU       S  215   5.891   5.977   6.519
    1AU     LIG  216   6.232   6.210   6.795
    1AU     LIG  217   6.536   6.506   7.052
    1AU     LIG  218   6.771   6.910   7.209
    1AU     LIG  219   6.874   7.412   7.189
    1AU       S  220   6.318   5.329   6.047
    1AU     LIG  221   6.745   5.410   6.221
    1AU     LIG  222   7.166   5.636   6.274
    1AU     LIG  223   7.619   5.734   6.384
    1AU     LIG  224   8.040   5.892   6.560
    1AU    AUSL  225   4.935   5.626   6.025
    1AU    AUSL  226   4.818   5.549   6.319
    1AU     AUL  227   4.796   5.658   5.991
    1AU       S  228   4.518   5.759   6.602
    1AU     LIG  229   4.304   5.765   6.986
    1AU     LIG  230   4.114   6.089   7.251
    1AU     LIG  231   3.872   6.349   7.562
    1AU     LIG  232   3.593   6.442   7.940
    1AU       S  233   4.435   6.005   6.035
    1AU     LIG  234   4.020   6.192   5.881
    1AU     LIG  235   3.641   6.505   5.919
    1AU     LIG  236   3.212   6.732   5.979
    1AU     LIG  237   2.761   6.668   6.078
    1AU    AUSL  238   4.865   5.433   5.827
    1AU    AUSL  239   4.905   5.700   5.738
    1AU     AUL  240   4.684   5.435   5.854
    1AU       S  241   4.301   5.664   5.656
    1AU     LIG  242   3.823   5.640   5.759
    1AU     LIG  243   3.369   5.824   5.688
    1AU     LIG  244   3.067   6.125   5.458
    1AU     LIG  245   2.594   6.166   5.454
    1AU       S  246   4.642   6.029   5.542
    1AU     LIG  247   4.395   6.327   5.285
    1AU     LIG  248   4.242   6.580   4.908
    1AU     LIG  249   3.917   6.863   4.683
    1AU     LIG  250   3.650   7.275   4.725
    1AU    AUSL  251   4.823   5.390   6.095
    1AU    AUSL  252   4.646   5.195   5.985
    1AU     AUL  253   4.617   5.492   6.128
    1AU       S  254   4.235   5.041   6.014
    1AU     LIG  255   3.889   5.068   5.756
    1AU     LIG  256   3.491   4.842   5.720
    1AU     LIG  257   3.041   4.699   5.778
    1AU     LIG  258   2.607   4.797   5.604
    1AU       S  259   4.215   5.396   6.392
    1AU     LIG  260   3.747   5.501   6.280
    1AU     LIG  261   3.315   5.690   6.413
    1AU     LIG  262   2.890   5.922   6.379
    1AU     LIG  263   2.493   6.218   6.346
    1AU    AUSL  264   5.676   4.853   5.974
    1AU    AUSL  265   5.590   5.042   6.158
    1AU     AUL  266   5.773   5.187   6.307
    1AU       S  267   5.976   4.533   5.955
    1AU     LIG  268   6.328   4.282   6.194
    1AU     LIG  269   6.792   4.195   6.131
    1AU     LIG  270   7.254   4.074   6.096
    1AU     LIG  271   7.625   3.829   6.287
    1AU       S  272   5.960   4.683   6.444
    1AU     LIG  273   6.329   4.537   6.649
    1AU     LIG  274   6.447   4.256   6.996
    1AU     LIG  275   6.660   3.976   7.308
    1AU     LIG  276   6.919   3.824   7.676
    1AU    AUSL  277   5.625   5.104   5.886
    1AU    AUSL  278   5.539   4.903   5.716
    1AU     AUL  279   5.890   5.006   5.730
    1AU       S  280   6.165   4.669   5.945
    1AU     LIG  281   6.576   4.526   5.781
    1AU     LIG  282   7.061   4.495   5.790
    1AU     LIG  283   7.524   4.387   5.780
    1AU     LIG  284   7.912   4.328   5.543
    1AU       S  285   5.749   4.592   5.431
    1AU     LIG  286   5.933   4.184   5.451
    1AU     LIG  287   6.203   3.884   5.199
    1AU     LIG  288   6.458   3.587   4.907
    1AU     LIG  289   6.697   3.145   4.854
    1AU    AUSL  290   4.743   4.927   5.987
    1AU    AUSL  291   4.867   5.129   5.835
    1AU     AUL  292   4.723   5.236   5.656
    1AU       S  293   4.413   4.844   5.568
    1AU     LIG  294   4.035   4.780   5.343
    1AU     LIG  295   3.800   4.463   5.108
    1AU     LIG  296   3.513   4.146   4.911
    1AU     LIG  297   3.195   3.943   4.619
    1AU       S  298   4.329   4.756   6.046
    1AU     LIG  299   3.891   4.586   5.965
    1AU     LIG  300   3.420   4.523   6.118
    1AU     LIG  301   2.989   4.433   6.337
    1AU     LIG  302   2.615   4.086   6.323
    1AU    AUSL  303   4.864   5.117   6.133
    1AU    AUSL  304   4.889   4.860   6.232
    1AU     AUL  305   4.684   5.240   6.271
    1AU       S  306   4.596   4.598   6.467
    1AU     LIG  307   4.311   4.198   6.512
    1AU     LIG  308   4.019   3.819   6.690
    1AU     LIG  309   3.715   3.488   6.933
    1AU     LIG  310   3.263   3.347   7.079
    1AU       S  311   4.271   4.921   6.217
    1AU     LIG  312   3.777   4.981   6.259
    1AU     LIG  313   3.289   5.022   6.174
    1AU     LIG  314   2.816   4.923   6.187
    1AU     LIG  315   2.493   4.669   6.439
    1AU    AUSL  316   5.302   5.799   6.341
    1AU    AUSL  317   4.894   5.799   6.230
    1AU     AUL  318   5.001   5.514   6.525
    1AU       S  319   4.755   6.144   6.441
    1AU     LIG  320   4.427   6.275   6.821
    1AU     LIG  321   4.180   6.592   7.130
    1AU     LIG  322   3.970   6.999   7.328
    1AU     LIG  323   3.744   7.449   7.361
    1AU       S  324   5.273   6.164   6.533
    1AU     LIG  325   5.502   6.385   6.850
    1AU     LIG  326   5.518   6.830   6.960
    1AU     LIG  327   5.526   7.286   7.069
    1AU     LIG  328   5.652   7.669   7.293
    1AU    AUSL  329   5.135   5.860   6.111
    1AU    AUSL  330   5.339   5.892   5.898
    1AU     AUL  331   4.949   5.896   5.941
    1AU       S  332   5.175   6.313   6.233
    1AU     LIG  333   5.182   6.687   6.549
    1AU     LIG  334   5.257   7.161   6.645
    1AU     LIG  335   5.207   7.631   6.802
    1AU     LIG  336   4.963   8.069   6.879
    1AU       S  337   5.374   6.296   5.732
    1AU     LIG  338   5.563   6.734   5.529
    1AU     LIG  339   5.720   7.193   5.342
    1AU     LIG  340   5.989   7.640   5.307
    1AU     LIG  341   6.184   8.109   5.282
    1AU    AUSL  342   5.339   5.687   6.094
    1AU    AUSL  343   5.400   5.539   6.320
    1AU     AUL  344   5.578   5.902   6.043
    1AU       S  345   5.671   5.909   6.711
    1AU     LIG  346   5.843   6.058   7.092
    1AU     LIG  347   6.211   6.205   7.336
    1AU     LIG  348   6.510   6.494   7.581
    1AU     LIG  349   6.714   6.668   7.981
    1AU       S  350   5.452   6.286   6.330
    1AU     LIG  351   5.689   6.687   6.476
    1AU     LIG  352   5.787   7.139   6.635
    1AU     LIG  353   5.852   7.589   6.794
    1AU     LIG  354   5.880   8.040   6.684
    1AU    AUSL  355   5.284   4.922   6.236
    1AU    AUSL  356   5.501   4.769   6.173
    1AU     AUL  357   5.407   4.905   6.592
    1AU       S  358   5.232   4.360   6.509
    1AU     LIG  359   5.016   4.059   6.776
    1AU     LIG  360   4.895   3.617   6.817
    1AU     LIG  361   4.890   3.152   6.859
    1AU     LIG  362   4.762   2.744   7.060
    1AU       S  363   5.728   4.436   6.365
    1AU     LIG  364   6.027   4.119   6.592
    1AU     LIG  365   6.288   3.791   6.837
    1AU     LIG  366   6.573   3.509   7.088
    1AU     LIG  367   6.933   3.264   7.292
    1AU    AUSL  368   5.081   4.899   6.036
    1AU    AUSL  369   5.066   5.055   6.324
    1AU     AUL  370   5.256   4.832   6.358
    1AU       S  371   4.986   4.307   6.332
    1AU     LIG  372   4.720   3.868   6.393
    1AU     LIG  373   4.629   3.355   6.443
    1AU     LIG  374   4.586   2.858   6.562
    1AU     LIG  375   4.540   2.401   6.738
    1AU       S  376   4.776   4.633   6.690
    1AU     LIG  377   4.454   4.418   6.953
    1AU     LIG  378   4.233   4.027   7.108
    1AU     LIG  379   4.001   3.698   7.367
    1AU     LIG  380   4.047   3.491   7.797
    1AU    AUSL  381   5.240   4.684   6.105
    1AU    AUSL  382   5.153   4.708   5.840
    1AU     AUL  383   4.867   4.671   6.013
    1AU       S  384   5.120   4.272   5.712
    1AU     LIG  385   4.914   3.793   5.661
    1AU     LIG  386   4.794   3.284   5.604
    1AU     LIG  387   4.803   2.794   5.519
    1AU     LIG  388   4.691   2.459   5.216
    1AU       S  389   5.255   4.272   6.213
    1AU     LIG  390   5.226   3.822   6.338
    1AU     LIG  391   5.159   3.360   6.449
    1AU     LIG  392   5.305   2.928   6.619
    1AU     LIG  393   5.642   2.612   6.762
    1AU    AUSL  394   5.316   5.734   5.654
    1AU    AUSL  395   5.472   5.646   5.864
    1AU     AUL  396   5.626   5.696   5.858
    1AU       S  397   5.370   6.158   5.441
    1AU     LIG  398   5.601   6.395   5.143
    1AU     LIG  399   5.544   6.836   4.986
    1AU     LIG  400   5.474   7.254   4.753
    1AU     LIG  401   5.540   7.537   4.352
    1AU       S  402   5.861   6.060   5.588
    1AU     LIG  403   6.232   6.214   5.300
    1AU     LIG  404   6.481   6.473   4.970
    1AU     LIG  405   6.779   6.773   4.724
    1AU     LIG  406   7.113   7.131   4.682
    1AU    AUSL  407   5.147   5.701   5.870
    1AU    AUSL  408   5.117   5.532   5.643
    1AU     AUL  409   5.106   5.652   5.502
    1AU       S  410   5.106   6.225   5.573
    1AU     LIG  411   5.126   6.601   5.296
    1AU     LIG  412   5.211   7.069   5.299
    1AU     LIG  413   5.162   7.530   5.206
    1AU     LIG  414   4.869   7.910   5.151
    1AU       S  415   4.774   5.926   5.263
    1AU     LIG  416   4.716   6.221   4.897
    1AU     LIG  417   4.496   6.376   4.508
    1AU     LIG  418   4.190   6.662   4.282
    1AU     LIG  419   4.178   7.036   3.967
    1AU    AUSL  420   5.174   4.969   5.702
    1AU    AUSL  421   4.927   4.854   5.795
    1AU     AUL  422   5.271   4.804   5.674
    1AU       S  423   4.584   4.596   5.578
    1AU     LIG  424   4.185   4.358   5.596
    1AU     LIG  425   3.930   4.033   5.357
    1AU     LIG  426   3.743   3.705   5.053
    1AU     LIG  427   3.481   3.348   4.842
    1AU       S  428   5.284   4.354   5.466
    1AU     LIG  429   5.289   3.915   5.321
    1AU     LIG  430   5.019   3.537   5.199
    1AU     LIG  431   4.847   3.105   5.107
    1AU     LIG  432   4.777   2.759   4.801
    1AU    AUSL  433   5.358   4.877   5.933
    1AU    AUSL  434   5.387   4.978   5.495
    1AU     AUL  435   5.431   4.738   5.895
    1AU       S  436   5.458   4.280   5.723
    1AU     LIG  437   5.399   3.840   5.826
    1AU     LIG  438   5.295   3.427   5.616
    1AU     LIG  439   5.265   2.989   5.423
    1AU     LIG  440   5.385   2.509   5.443
    1AU       S  441   5.569   4.718   5.188
    1AU     LIG  442   5.602   4.272   5.058
    1AU     LIG  443   5.889   4.009   4.810
    1AU     LIG  444   6.162   3.778   4.505
    1AU     LIG  445   6.413   3.651   4.121
    2POPC   NC3  446  10.143   5.907   8.084
    2POPC   PO4  447   0.014   5.353   7.956
    2POPC   GL1  448  10.307   5.443   7.661
    2POPC   GL2  449   9.993   5.562   7.726
    2POPC   C1A  450  10.167   5.353   7.268
    2POPC   D2A  451  10.353   5.389   6.878
    2POPC   C3A  452  10.133   5.427   6.461
    2POPC   C4A  453  10.133   5.395   5.968
    2POPC   C1B  454  10.251   5.861   7.422
    2POPC   C2B  455  10.261   5.933   6.991
    2POPC   C3B  456  10.056   5.948   6.614
    2POPC   C4B  457  10.209   5.848   6.208
    3POPC   NC3  458   0.478   9.284   8.326
    3POPC   PO4  459   0.679   9.625   7.815
    3POPC   GL1  460   0.486   9.480   7.458
    3POPC   GL2  461   0.296   9.195   7.495
    3POPC   C1A  462   0.236   9.580   7.153
    3POPC   D2A  463   0.397   9.712   6.803
    3POPC   C3A  464   0.105   9.678   6.522
    3POPC   C4A  465   0.275   9.723   6.146
    3POPC   C1B  466   0.282   8.992   7.092
    3POPC   C2B  467   0.596   9.071   6.746
    3POPC   C3B  468   0.473   9.336   6.408
    3POPC   C4B  469   0.502   9.312   5.920
    4POPC   NC3  470   9.436   7.314   8.210
    4POPC   PO4  471   8.926   6.973   8.041
    4POPC   GL1  472   9.107   7.212   7.746
    4POPC   GL2  473   9.460   7.120   7.737
    4POPC   C1A  474   9.160   7.041   7.327
    4POPC   D2A  475   9.090   6.841   6.932
    4POPC   C3A  476   9.152   7.140   6.584
    4POPC   C4A  477   9.207   7.113   6.157
    4POPC   C1B  478   9.710   7.159   7.368
    4POPC   C2B  479   9.797   6.979   6.973
    4POPC   C3B  480   9.884   7.197   6.608
    4POPC   C4B  481   9.625   7.398   6.299
    5POPC   NC3  482   5.910   8.543   8.104
    5POPC   PO4  483   5.731   9.215   8.135
    5POPC   GL1  484   5.903   8.940   7.789
    5POPC   GL2  485   5.613   8.933   7.539
    5POPC   C1A  486   6.087   8.985   7.390
    5POPC   D2A  487   5.833   9.210   7.061
    5POPC   C3A  488   5.787   9.060   6.633
    5POPC   C4A  489   5.668   8.804   6.291
    5POPC   C1B  490   5.740   8.674   7.191
    5POPC   C2B  491   5.680   8.550   6.766
    5POPC   C3B  492   5.527   8.320   6.409
    5POPC   C4B  493   5.700   8.244   5.994
    6POPC   NC3  494   6.434   1.983   8.145
    6POPC   PO4  495   6.033   2.445   8.009
    6POPC   GL1  496   6.345   2.173   7.677
    6POPC   GL2  497   6.470   1.829   7.660
    6POPC   C1A  498   6.553   2.072   7.220
    6POPC   D2A  499   6.309   2.108   6.792
    6POPC   C3A  500   6.446   2.196   6.333
    6POPC   C4A  501   6.192   2.359   5.962
    6POPC   C1B  502   6.660   1.559   7.348
    6POPC   C2B  503   6.720   1.670   6.927
    6POPC   C3B  504   6.614   1.783   6.555
    6POPC   C4B  505   6.324   1.717   6.201
    7POPC   NC3  506   8.644   5.858   7.915
    7POPC   PO4  507   8.858   5.243   8.157
    7POPC   GL1  508   8.688   5.350   7.713
    7POPC   GL2  509   8.473   5.607   7.524
    7POPC   C1A  510   8.920   5.487   7.344
    7POPC   D2A  511   8.997   5.636   6.888
    7POPC   C3A  512   8.912   5.498   6.446
    7POPC   C4A  513   8.908   5.649   6.039
    7POPC   C1B  514   8.505   5.622   7.083
    7POPC   C2B  515   8.489   5.398   6.698
    7POPC   C3B  516   8.408   5.567   6.287
    7POPC   C4B  517   8.041   5.696   6.057
    8POPC   NC3  518   3.730   9.687   8.066
    8POPC   PO4  519   3.060   9.735   8.202
    8POPC   GL1  520   3.274   9.730   7.796
    8POPC   GL2  521   3.373   9.379   7.791
    8POPC   C1A  522   3.354   9.808   7.344
    8POPC   D2A  523   3.181   9.705   6.912
    8POPC   C3A  524   3.470   9.565   6.588
    8POPC   C4A  525   3.467   9.418   6.145
    8POPC   C1B  526   3.444   9.201   7.394
    8POPC   C2B  527   3.450   9.213   6.966
    8POPC   C3B  528   3.555   9.041   6.554
    8POPC   C4B  529   3.745   8.953   6.165
    9POPC   NC3  530   2.608   7.868   8.409
    9POPC   PO4  531   3.050   8.223   8.095
    9POPC   GL1  532   2.685   7.981   7.884
    9POPC   GL2  533   2.450   8.183   7.710
    9POPC   C1A  534   2.602   7.773   7.440
    9POPC   D2A  535   2.852   7.664   7.053
    9POPC   C3A  536   2.680   7.724   6.634
    9POPC   C4A  537   2.507   7.516   6.268
    9POPC   C1B  538   2.878   8.211   7.452
    9POPC   C2B  539   3.020   8.156   7.030
    9POPC   C3B  540   3.014   8.103   6.562
    9POPC   C4B  541   2.801   7.960   6.172
   10POPC   NC3  542   8.489   6.991   8.197
   10POPC   PO4  543   8.443   7.550   8.348
   10POPC   GL1  544   8.633   7.397   7.882
   10POPC   GL2  545   8.580   7.050   7.680
   10POPC   C1A  546   8.732   7.447   7.374
   10POPC   D2A  547   8.573   7.682   6.963
   10POPC   C3A  548   8.418   7.507   6.525
   10POPC   C4A  549   8.421   7.518   6.052
   10POPC   C1B  550   8.657   6.960   7.229
   10POPC   C2B  551   8.687   7.139   6.800
   10POPC   C3B  552   8.701   7.033   6.339
   10POPC   C4B  553   8.776   7.172   5.891
   11POPC   NC3  554   6.148   9.068   8.225
   11POPC   PO4  555   6.330   8.392   8.184
   11POPC   GL1  556   6.307   8.585   7.757
   11POPC   GL2  557   6.615   8.741   7.723
   11POPC   C1A  558   6.363   8.582   7.280
   11POPC   D2A  559   6.669   8.414   6.970
   11POPC   C3A  560   6.546   8.501   6.542
   11POPC   C4A  561   6.443   8.533   6.093
   11POPC   C1B  562   6.734   8.906   7.337
   11POPC   C2B  563   6.596   8.919   6.905
   11POPC   C3B  564   6.634   8.985   6.474
   11POPC   C4B  565   6.199   8.958   6.258
   12POPC   NC3  566   5.076   1.149   8.104
   12POPC   PO4  567   5.268   1.805   8.068
   12POPC   GL1  568   4.942   1.571   7.767
   12POPC   GL2  569   4.875   1.254   7.671
   12POPC   C1A  570   4.738   1.520   7.290
   12POPC   D2A  571   5.022   1.414   6.918
   12POPC   C3A  572   4.847   1.592   6.563
   12POPC   C4A  573   4.892   1.472   6.148
   12POPC   C1B  574   4.941   1.046   7.295
   12POPC   C2B  575   4.723   1.021   6.907
   12POPC   C3B  576   4.934   1.092   6.498
   12POPC   C4B  577   4.684   0.986   6.150
   13POPC   NC3  578   0.216   9.511   7.880
   13POPC   PO4  579   9.997   9.420   8.052
   13POPC   GL1  580  10.218   9.556   7.720
   13POPC   GL2  581  10.313   9.203   7.669
   13POPC   C1A  582  10.162   9.825   7.353
   13POPC   D2A  583  10.303   9.772   6.932
   13POPC   C3A  584  10.109   9.896   6.551
   13POPC   C4A  585  10.234   9.686   6.181
   13POPC   C1B  586  10.306   9.319   7.256
   13POPC   C2B  587  10.409   9.265   6.831
   13POPC   C3B  588  10.083   9.358   6.552
   13POPC   C4B  589  10.031   9.206   6.147
   14POPC   NC3  590   1.664   5.538   8.407
   14POPC   PO4  591   1.022   5.490   8.196
   14POPC   GL1  592   1.113   5.562   7.736
   14POPC   GL2  593   1.332   5.300   7.586
   14POPC   C1A  594   1.109   5.827   7.351
   14POPC   D2A  595   1.260   5.677   6.915
   14POPC   C3A  596   1.105   5.868   6.500
   14POPC   C4A  597   1.155   5.673   6.097
   14POPC   C1B  598   0.932   5.365   7.295
   14POPC   C2B  599   0.816   5.378   6.832
   14POPC   C3B  600   0.851   5.376   6.364
   14POPC   C4B  601   0.845   5.296   5.882
   15POPC   NC3  602   8.548   3.384   8.006
   15POPC   PO4  603   8.623   4.019   7.805
   15POPC   GL1  604   8.716   3.671   7.499
   15POPC   GL2  605   8.704   3.274   7.522
   15POPC   C1A  606   8.833   3.531   7.066
   15POPC   D2A  607   8.624   3.440   6.673
   15POPC   C3A  608   8.887   3.309   6.345
   15POPC   C4A  609   8.848   3.551   5.985
   15POPC   C1B  610   8.371   3.410   7.218
   15POPC   C2B  611   8.216   3.684   6.878
   15POPC   C3B  612   8.108   3.532   6.467
   15POPC   C4B  613   8.406   3.419   6.173
   16POPC   NC3  614   0.500   2.751   8.067
   16POPC   PO4  615   0.296   2.095   8.167
   16POPC   GL1  616   0.356   2.384   7.741
   16POPC   GL2  617   0.126   2.670   7.713
   16POPC   C1A  618   0.113   2.391   7.310
   16POPC   D2A  619   0.151   2.632   6.915
   16POPC   C3A  620   0.478   2.541   6.584
   16POPC   C4A  621   0.146   2.488   6.272
   16POPC   C1B  622   0.404   2.808   7.344
   16POPC   C2B  623   0.457   3.048   6.958
   16POPC   C3B  624   0.315   3.026   6.526
   16POPC   C4B  625   0.493   2.863   6.155
   17POPC   NC3  626   8.881   7.725   8.256
   17POPC   PO4  627   8.576   8.177   7.926
   17POPC   GL1  628   8.636   7.978   7.575
   17POPC   GL2  629   8.927   7.775   7.690
   17POPC   C1A  630   8.613   8.244   7.214
   17POPC   D2A  631   8.325   8.236   6.903
   17POPC   C3A  632   8.482   8.052   6.584
   17POPC   C4A  633   8.599   8.168   6.179
   17POPC   C1B  634   9.030   7.902   7.252
   17POPC   C2B  635   8.956   8.101   6.840
   17POPC   C3B  636   8.945   7.912   6.438
   17POPC   C4B  637   8.898   7.500   6.283
   18POPC   NC3  638   2.827  10.106   8.388
   18POPC   PO4  639   3.308  10.266   7.928
   18POPC   GL1  640   3.626  10.264   7.632
   18POPC   GL2  641   3.925  10.116   7.781
   18POPC   C1A  642   3.548  10.309   7.210
   18POPC   D2A  643   3.427  10.167   6.782
   18POPC   C3A  644   3.602  10.398   6.401
   18POPC   C4A  645   3.406  10.331   5.971
   18POPC   C1B  646   3.866   9.857   7.414
   18POPC   C2B  647   3.762   9.837   7.003
   18POPC   C3B  648   3.828   9.919   6.589
   18POPC   C4B  649   3.545   9.924   6.242
   19POPC   NC3  650   9.630   8.116   8.050
   19POPC   PO4  651   9.314   7.700   8.425
   19POPC   GL1  652   9.399   7.667   7.873
   19POPC   GL2  653   9.422   7.949   7.632
   19POPC   C1A  654   9.335   7.519   7.412
   19POPC   D2A  655   9.108   7.454   6.998
   19POPC   C3A  656   9.317   7.632   6.619
   19POPC   C4A  657   9.328   7.762   6.139
   19POPC   C1B  658   9.583   8.164   7.312
   19POPC   C2B  659   9.459   8.031   6.925
   19POPC   C3B  660   9.438   8.122   6.496
   19POPC   C4B  661   9.693   8.118   6.133
   20POPC   NC3  662   8.427   9.197   8.244
   20POPC   PO4  663   8.999   8.959   8.063
   20POPC   GL1  664   8.750   9.067   7.677
   20POPC   GL2  665   8.532   9.368   7.710
   20POPC   C1A  666   8.616   9.162   7.223
   20POPC   D2A  667   8.741   9.093   6.807
   20POPC   C3A  668   8.523   9.123   6.443
   20POPC   C4A  669   8.826   9.281   6.162
   20POPC   C1B  670   8.893   9.538   7.413
   20POPC   C2B  671   8.956   9.583   6.946
   20POPC   C3B  672   8.700   9.591   6.561
   20POPC   C4B  673   8.319   9.775   6.417
   21POPC   NC3  674   9.366   4.612   8.468
   21POPC   PO4  675   9.387   4.465   7.863
   21POPC   GL1  676   9.505   4.755   7.620
   21POPC   GL2  677   9.536   5.034   7.801
   21POPC   C1A  678   9.502   4.786   7.193
   21POPC   D2A  679   9.222   4.815   6.905
   21POPC   C3A  680   9.321   4.696   6.508
   21POPC   C4A  681   9.011   4.649   6.222
   21POPC   C1B  682   9.660   5.229   7.417
   21POPC   C2B  683   9.366   5.324   7.103
   21POPC   C3B  684   9.295   5.273   6.690
   21POPC   C4B  685   9.444   5.166   6.314
   22POPC   NC3  686   0.837   0.889   8.083
   22POPC   PO4  687   1.414   0.767   8.028
   22POPC   GL1  688   1.172   0.888   7.680
   22POPC   GL2  689   1.037   1.217   7.753
   22POPC   C1A  690   1.188   1.088   7.275
   22POPC   D2A  691   1.401   1.105   6.903
   22POPC   C3A  692   1.212   0.906   6.582
   22POPC   C4A  693   1.162   1.095   6.205
   22POPC   C1B  694   1.246   1.532   7.529
   22POPC   C2B  695   1.234   1.581   7.092
   22POPC   C3B  696   1.080   1.458   6.682
   22POPC   C4B  697   1.393   1.519   6.377
   23POPC   NC3  698   6.890   8.735   8.148
   23POPC   PO4  699   7.321   9.233   8.198
   23POPC   GL1  700   7.059   9.090   7.804
   23POPC   GL2  701   7.134   8.726   7.701
   23POPC   C1A  702   7.217   9.048   7.343
   23POPC   D2A  703   7.108   8.792   6.983
   23POPC   C3A  704   7.237   8.891   6.549
   23POPC   C4A  705   7.044   8.811   6.156
   23POPC   C1B  706   6.979   8.443   7.389
   23POPC   C2B  707   7.169   8.262   7.024
   23POPC   C3B  708   7.064   8.426   6.619
   23POPC   C4B  709   6.917   8.335   6.224
   24POPC   NC3  710   0.081   6.430   8.219
   24POPC   PO4  711   9.973   6.365   8.109
   24POPC   GL1  712   9.856   6.442   7.687
   24POPC   GL2  713  10.157   6.289   7.644
   24POPC   C1A  714   9.817   6.264   7.225
   24POPC   D2A  715   9.988   6.477   6.835
   24POPC   C3A  716   9.781   6.384   6.468
   24POPC   C4A  717   9.778   6.078   6.185
   24POPC   C1B  718  10.301   6.397   7.259
   24POPC   C2B  719  10.476   6.403   6.841
   24POPC   C3B  720  10.319   6.358   6.407
   24POPC   C4B  721  10.447   6.581   6.021
   25POPC   NC3  722   5.408   0.370   8.227
   25POPC   PO4  723   4.715   0.156   8.190
   25POPC   GL1  724   4.844   0.387   7.783
   25POPC   GL2  725   4.934   0.750   7.752
   25POPC   C1A  726   4.933   0.261   7.307
   25POPC   D2A  727   5.056   0.393   6.872
   25POPC   C3A  728   4.973   0.191   6.453
   25POPC   C4A  729   5.272   0.188   6.087
   25POPC   C1B  730   4.631   0.666   7.420
   25POPC   C2B  731   4.554   0.546   6.987
   25POPC   C3B  732   4.729   0.640   6.566
   25POPC   C4B  733   5.046   0.650   6.224
   26POPC   NC3  734   5.949   1.250   8.029
   26POPC   PO4  735   5.448   0.821   8.045
   26POPC   GL1  736   5.358   1.044   7.627
   26POPC   GL2  737   5.443   1.407   7.694
   26POPC   C1A  738   5.431   1.126   7.143
   26POPC   D2A  739   5.843   1.220   6.886
   26POPC   C3A  740   5.821   1.132   6.444
   26POPC   C4A  741   5.436   1.045   6.241
   26POPC   C1B  742   5.701   1.510   7.298
   26POPC   C2B  743   5.515   1.605   6.869
   26POPC   C3B  744   5.428   1.545   6.411
   26POPC   C4B  745   5.742   1.482   6.068
   27POPC   NC3  746   9.401   5.181   8.263
   27POPC   PO4  747   9.699   5.783   8.182
   27POPC   GL1  748   9.494   5.761   7.785
   27POPC   GL2  749   9.706   5.974   7.634
   27POPC   C1A  750   9.314   5.788   7.349
   27POPC   D2A  751   9.475   5.913   6.922
   27POPC   C3A  752   9.255   5.874   6.519
   27POPC   C4A  753   9.315   5.959   6.098
   27POPC   C1B  754   9.802   5.713   7.269
   27POPC   C2B  755   9.824   5.469   6.908
   27POPC   C3B  756   9.670   5.598   6.549
   27POPC   C4B  757   9.696   5.575   6.151
   28POPC   NC3  758   5.328   9.120   7.915
   28POPC   PO4  759   5.718   9.705   8.020
   28POPC   GL1  760   5.551   9.509   7.700
   28POPC   GL2  761   5.846   9.396   7.606
   28POPC   C1A  762   5.391   9.324   7.300
   28POPC   D2A  763   5.225   9.440   6.906
   28POPC   C3A  764   5.349   9.294   6.501
   28POPC   C4A  765   5.403   9.545   6.144
   28POPC   C1B  766   5.802   9.703   7.310
   28POPC   C2B  767   5.616   9.799   6.932
   28POPC   C3B  768   5.731   9.616   6.554
   28POPC   C4B  769   5.931   9.410   6.224
   29POPC   NC3  770   9.515   2.606   8.383
   29POPC   PO4  771   9.727   3.221   8.166
   29POPC   GL1  772   9.646   2.858   7.858
   29POPC   GL2  773   9.274   2.757   7.774
   29POPC   C1A  774   9.623   2.704   7.406
   29POPC   D2A  775   9.283   2.758   7.080
   29POPC   C3A  776   9.406   2.863   6.675
   29POPC   C4A  777   9.623   2.619   6.360
   29POPC   C1B  778   9.211   2.399   7.458
   29POPC   C2B  779   9.151   2.256   7.033
   29POPC   C3B  780   9.213   2.379   6.610
   29POPC   C4B  781   9.224   2.351   6.171
   30POPC   NC3  782   2.685   3.444   8.512
   30POPC   PO4  783   2.295   3.288   8.151
   30POPC   GL1  784   2.324   3.460   7.750
   30POPC   GL2  785   2.333   3.154   7.572
   30POPC   C1A  786   2.567   3.556   7.354
   30POPC   D2A  787   2.715   3.356   6.970
   30POPC   C3A  788   2.574   3.501   6.542
   30POPC   C4A  789   2.449   3.455   6.102
   30POPC   C1B  790   2.803   3.094   7.457
   30POPC   C2B  791   2.970   2.912   7.058
   30POPC   C3B  792   2.958   3.064   6.623
   30POPC   C4B  793   3.154   3.259   6.250
   31POPC   NC3  794   4.699  10.174   8.341
   31POPC   PO4  795   4.182   9.820   8.123
   31POPC   GL1  796   4.454   9.935   7.805
   31POPC   GL2  797   4.424  10.251   7.678
   31POPC   C1A  798   4.415   9.842   7.356
   31POPC   D2A  799   4.297  10.020   6.944
   31POPC   C3A  800   4.332   9.809   6.561
   31POPC   C4A  801   4.424   9.950   6.168
   31POPC   C1B  802   4.105  10.289   7.328
   31POPC   C2B  803   3.909  10.346   6.875
   31POPC   C3B  804   4.146  10.300   6.498
   31POPC   C4B  805   4.151   0.047   6.159
   32POPC   NC3  806   2.802   5.310   8.611
   32POPC   PO4  807   2.354   5.229   8.157
   32POPC   GL1  808   2.430   5.340   7.657
   32POPC   GL2  809   2.428   5.720   7.607
   32POPC   C1A  810   2.585   5.441   7.205
   32POPC   D2A  811   2.689   5.630   6.793
   32POPC   C3A  812   2.867   5.404   6.408
   32POPC   C4A  813   3.109   5.472   6.001
   32POPC   C1B  814   2.443   5.944   7.179
   32POPC   C2B  815   2.272   5.945   6.744
   32POPC   C3B  816   2.428   5.717   6.367
   32POPC   C4B  817   2.401   5.875   5.928
   33POPC   NC3  818   5.684  10.154   8.150
   33POPC   PO4  819   6.307  10.091   7.965
   33POPC   GL1  820   5.970  10.064   7.645
   33POPC   GL2  821   5.600  10.117   7.662
   33POPC   C1A  822   5.808  10.195   7.223
   33POPC   D2A  823   5.953  10.369   6.867
   33POPC   C3A  824   5.816  10.121   6.527
   33POPC   C4A  825   5.971  10.110   6.111
   33POPC   C1B  826   5.311  10.311   7.328
   33POPC   C2B  827   5.427  10.282   6.880
   33POPC   C3B  828   5.334  10.333   6.460
   33POPC   C4B  829   5.479  10.219   6.049
   34POPC   NC3  830   6.191   9.651   7.915
   34POPC   PO4  831   6.589   9.122   8.134
   34POPC   GL1  832   6.414   9.226   7.711
   34POPC   GL2  833   6.700   9.365   7.530
   34POPC   C1A  834   6.245   9.449   7.306
   34POPC   D2A  835   6.115   9.615   6.913
   34POPC   C3A  836   6.233   9.310   6.622
   34POPC   C4A  837   6.486   9.396   6.237
   34POPC   C1B  838   6.658   9.674   7.178
   34POPC   C2B  839   6.608   9.604   6.761
   34POPC   C3B  840   6.786   9.760   6.424
   34POPC   C4B  841   6.922   9.864   6.048
   35POPC   NC3  842   0.607   1.847   7.913
   35POPC   PO4  843  10.400   1.763   7.978
   35POPC   GL1  844   0.173   1.642   7.753
   35POPC   GL2  845   0.195   1.938   7.608
   35POPC   C1A  846   0.225   1.535   7.326
   35POPC   D2A  847   0.398   1.669   6.951
   35POPC   C3A  848   0.515   1.506   6.602
   35POPC   C4A  849   0.408   1.698   6.225
   35POPC   C1B  850   0.467   2.030   7.311
   35POPC   C2B  851   0.391   2.175   6.930
   35POPC   C3B  852   0.264   2.066   6.546
   35POPC   C4B  853   0.561   2.174   6.193
   36POPC   NC3  854   3.390   1.088   8.325
   36POPC   PO4  855   3.110   1.431   7.915
   36POPC   GL1  856   3.364   1.135   7.684
   36POPC   GL2  857   3.517   0.787   7.626
   36POPC   C1A  858   3.285   1.096   7.266
   36POPC   D2A  859   3.042   1.070   6.933
   36POPC   C3A  860   3.309   1.188   6.596
   36POPC   C4A  861   3.186   1.340   6.208
   36POPC   C1B  862   3.784   1.029   7.322
   36POPC   C2B  863   3.797   1.252   6.953
   36POPC   C3B  864   3.843   1.095   6.574
   36POPC   C4B  865   3.692   1.200   6.197
   37POPC   NC3  866   9.784   4.284   8.045
   37POPC   PO4  867   0.002   4.403   8.012
   37POPC   GL1  868  10.352   4.449   7.667
   37POPC   GL2  869  10.081   4.210   7.637
   37POPC   C1A  870  10.430   4.442   7.277
   37POPC   D2A  871  10.155   4.453   6.973
   37POPC   C3A  872  10.376   4.479   6.639
   37POPC   C4A  873  10.245   4.613   6.243
   37POPC   C1B  874  10.259   3.957   7.308
   37POPC   C2B  875  10.148   3.940   6.910
   37POPC   C3B  876   9.993   4.179   6.574
   37POPC   C4B  877  10.132   4.120   6.160
   38POPC   NC3  878   7.599   0.144   7.851
   38POPC   PO4  879   7.669   0.783   7.993
   38POPC   GL1  880   7.928   0.530   7.698
   38POPC   GL2  881   7.966   0.168   7.534
   38POPC   C1A  882   7.897   0.610   7.270
   38POPC   D2A  883   7.864   0.871   6.948
   38POPC   C3A  884   7.802   0.685   6.577
   38POPC   C4A  885   8.009   0.747   6.245
   38POPC   C1B  886   7.985   0.119   7.141
   38POPC   C2B  887   7.718   0.252   6.843
   38POPC   C3B  888   7.942   0.191   6.476
   38POPC   C4B  889   7.961   0.273   6.063
   39POPC   NC3  890   8.038   1.998   8.094
   39POPC   PO4  891   7.466   1.622   8.192
   39POPC   GL1  892   7.582   1.701   7.745
   39POPC   GL2  893   7.922   1.766   7.666
   39POPC   C1A  894   7.622   1.631   7.281
   39POPC   D2A  895   7.855   1.700   6.902
   39POPC   C3A  896   7.591   1.643   6.526
   39POPC   C4A  897   7.586   1.799   6.152
   39POPC   C1B  898   7.973   2.018   7.338
   39POPC   C2B  899   8.146   2.133   6.932
   39POPC   C3B  900   7.893   2.064   6.541
   39POPC   C4B  901   7.928   2.181   6.135
   40POPC   NC3  902  10.352   7.889   7.995
   40POPC   PO4  903   9.851   7.352   8.002
   40POPC   GL1  904   9.845   7.597   7.617
   40POPC   GL2  905   9.939   7.951   7.642
   40POPC   C1A  906   9.787   7.674   7.172
   40POPC   D2A  907   9.966   7.947   6.849
   40POPC   C3A  908  10.043   7.831   6.409
   40POPC   C4A  909  10.414   7.792   6.108
   40POPC   C1B  910  10.261   7.825   7.336
   40POPC   C2B  911  10.464   7.998   6.970
   40POPC   C3B  912  10.397   8.199   6.562
   40POPC   C4B  913  10.203   8.262   6.148
   41POPC   NC3  914   2.182   4.759   8.053
   41POPC   PO4  915   1.695   5.290   8.023
   41POPC   GL1  916   1.879   5.264   7.591
   41POPC   GL2  917   1.843   4.925   7.536
   41POPC   C1A  918   2.216   5.099   7.253
   41POPC   D2A  919   2.193   4.963   6.794
   41POPC   C3A  920   2.398   5.163   6.415
   41POPC   C4A  921   2.317   4.948   6.003
   41POPC   C1B  922   1.756   5.200   7.105
   41POPC   C2B  923   1.693   5.125   6.667
   41POPC   C3B  924   1.931   4.908   6.341
   41POPC   C4B  925   1.799   4.640   5.977
   42POPC   NC3  926   7.722   8.486   8.213
   42POPC   PO4  927   8.348   8.436   8.429
   42POPC   GL1  928   8.135   8.404   7.913
   42POPC   GL2  929   7.848   8.604   7.741
   42POPC   C1A  930   8.119   8.365   7.394
   42POPC   D2A  931   7.918   8.523   6.982
   42POPC   C3A  932   7.932   8.309   6.547
   42POPC   C4A  933   8.158   8.388   6.149
   42POPC   C1B  934   7.681   8.827   7.373
   42POPC   C2B  935   7.619   8.913   6.923
   42POPC   C3B  936   7.750   8.820   6.471
   42POPC   C4B  937   7.522   8.969   6.093
   43POPC   NC3  938   1.170   5.920   8.082
   43POPC   PO4  939   1.262   6.610   8.111
   43POPC   GL1  940   1.374   6.287   7.801
   43POPC   GL2  941   1.085   6.247   7.657
   43POPC   C1A  942   1.499   6.146   7.395
   43POPC   D2A  943   1.269   6.199   7.025
   43POPC   C3A  944   1.449   6.350   6.661
   43POPC   C4A  945   1.493   6.163   6.269
   43POPC   C1B  946   1.185   6.606   7.411
   43POPC   C2B  947   1.189   6.815   7.030
   43POPC   C3B  948   1.242   6.904   6.596
   43POPC   C4B  949   1.150   6.591   6.306
   44POPC   NC3  950   1.440   3.193   8.382
   44POPC   PO4  951   0.881   3.019   8.031
   44POPC   GL1  952   1.149   3.196   7.690
   44POPC   GL2  953   1.256   3.560   7.743
   44POPC   C1A  954   1.221   3.320   7.263
   44POPC   D2A  955   1.159   3.589   6.922
   44POPC   C3A  956   1.258   3.314   6.629
   44POPC   C4A  957   1.080   3.278   6.264
   44POPC   C1B  958   1.469   3.757   7.365
   44POPC   C2B  959   1.663   3.538   7.012
   44POPC   C3B  960   1.608   3.689   6.616
   44POPC   C4B  961   1.426   3.627   6.237
   45POPC   NC3  962   1.178   9.515   7.906
   45POPC   PO4  963   0.790   8.992   8.149
   45POPC   GL1  964   0.826   9.148   7.679
   45POPC   GL2  965   0.998   9.474   7.453
   45POPC   C1A  966   0.774   9.109   7.229
   45POPC   D2A  967   1.084   9.336   6.961
   45POPC   C3A  968   0.925   9.457   6.588
   45POPC   C4A  969   0.915   9.180   6.248
   45POPC   C1B  970   1.390   9.617   7.294
   45POPC   C2B  971   1.469   9.740   6.894
   45POPC   C3B  972   1.427   9.491   6.566
   45POPC   C4B  973   1.263   9.524   6.186
   46POPC   NC3  974   8.836   2.514   8.406
   46POPC   PO4  975   8.430   3.010   8.263
   46POPC   GL1  976   8.491   2.818   7.789
   46POPC   GL2  977   8.751   2.540   7.793
   46POPC   C1A  978   8.363   2.872   7.310
   46POPC   D2A  979   8.590   3.001   6.942
   46POPC   C3A  980   8.425   2.990   6.514
   46POPC   C4A  981   8.605   2.943   6.109
   46POPC   C1B  982   8.810   2.663   7.333
   46POPC   C2B  983   8.654   2.474   6.934
   46POPC   C3B  984   8.721   2.573   6.495
   46POPC   C4B  985   9.060   2.810   6.295
   47POPC   NC3  986   0.562   8.602   8.014
   47POPC   PO4  987   0.111   9.096   8.087
   47POPC   GL1  988   0.148   8.766   7.732
   47POPC   GL2  989   0.501   8.735   7.529
   47POPC   C1A  990   0.072   8.500   7.369
   47POPC   D2A  991   0.200   8.451   6.955
   47POPC   C3A  992   0.272   8.704   6.617
   47POPC   C4A  993   0.129   8.562   6.207
   47POPC   C1B  994   0.653   8.636   7.108
   47POPC   C2B  995   0.811   8.413   6.753
   47POPC   C3B  996   0.858   8.702   6.422
   47POPC   C4B  997   0.513   8.877   6.187
   48POPC   NC3  998   2.829   0.568   8.115
   48POPC   PO4  999   2.661  10.446   8.084
   48POPC   GL1 1000   2.608   0.284   7.727
   48POPC   GL2 1001   2.665   0.636   7.612
   48POPC   C1A 1002   2.575   0.242   7.282
   48POPC   D2A 1003   2.588   0.525   6.950
   48POPC   C3A 1004   2.719   0.345   6.562
   48POPC   C4A 1005   2.477   0.365   6.181
   48POPC   C1B 1006   2.974   0.681   7.285
   48POPC   C2B 1007   3.092   0.574   6.855
   48POPC   C3B 1008   3.037   0.766   6.519
   48POPC   C4B 1009   2.900   0.661   6.180
   49POPC   NC3 1010   9.648   0.262   8.373
   49POPC   PO4 1011   9.634   0.738   7.906
   49POPC   GL1 1012   9.597   0.464   7.591
   49POPC   GL2 1013   9.252   0.459   7.609
   49POPC   C1A 1014   9.525   0.363   7.162
   49POPC   D2A 1015   9.168   0.226   6.920
   49POPC   C3A 1016   9.350   0.250   6.517
   49POPC   C4A 1017   9.649   0.193   6.192
   49POPC   C1B 1018   9.293   0.789   7.295
   49POPC   C2B 1019   9.258   0.748   6.852
   49POPC   C3B 1020   9.309   0.769   6.407
   49POPC   C4B 1021   9.284   0.504   6.037
   50POPC   NC3 1022   3.824   0.994   7.958
   50POPC   PO4 1023   4.526   1.142   8.175
   50POPC   GL1 1024   4.432   1.015   7.772
   50POPC   GL2 1025   4.255   0.727   7.779
   50POPC   C1A 1026   4.416   1.120   7.335
   50POPC   D2A 1027   4.340   1.372   6.955
   50POPC   C3A 1028   4.433   1.270   6.529
   50POPC   C4A 1029   4.401   1.564   6.177
   50POPC   C1B 1030   4.127   0.660   7.359
   50POPC   C2B 1031   4.156   0.880   6.971
   50POPC   C3B 1032   4.215   0.733   6.584
   50POPC   C4B 1033   4.174   0.952   6.208
   51POPC   NC3 1034   3.175   2.718   8.029
   51POPC   PO4 1035   3.745   2.741   8.088
   51POPC   GL1 1036   3.599   2.726   7.643
   51POPC   GL2 1037   3.389   2.420   7.630
   51POPC   C1A 1038   3.598   2.936   7.196
   51POPC   D2A 1039   3.431   2.986   6.763
   51POPC   C3A 1040   3.637   3.040   6.356
   51POPC   C4A 1041   3.567   3.167   5.907
   51POPC   C1B 1042   3.275   2.509   7.197
   51POPC   C2B 1043   3.152   2.529   6.765
   51POPC   C3B 1044   3.334   2.633   6.372
   51POPC   C4B 1045   3.251   2.352   5.998
   52POPC   NC3 1046   2.508   1.198   7.935
   52POPC   PO4 1047   2.855   1.621   8.361
   52POPC   GL1 1048   2.692   1.625   7.762
   52POPC   GL2 1049   2.833   1.259   7.547
   52POPC   C1A 1050   2.649   1.593   7.237
   52POPC   D2A 1051   2.891   1.530   6.809
   52POPC   C3A 1052   2.764   1.213   6.478
   52POPC   C4A 1053   2.564   1.346   6.079
   52POPC   C1B 1054   2.594   1.019   7.248
   52POPC   C2B 1055   2.356   0.987   6.873
   52POPC   C3B 1056   2.468   0.788   6.506
   52POPC   C4B 1057   2.432   0.868   6.089
   53POPC   NC3 1058   3.463   7.954   8.085
   53POPC   PO4 1059   3.921   8.462   7.997
   53POPC   GL1 1060   3.679   8.341   7.615
   53POPC   GL2 1061   3.353   8.160   7.647
   53POPC   C1A 1062   3.550   8.229   7.179
   53POPC   D2A 1063   3.433   8.292   6.771
   53POPC   C3A 1064   3.491   8.017   6.414
   53POPC   C4A 1065   3.300   8.072   6.007
   53POPC   C1B 1066   3.282   7.826   7.350
   53POPC   C2B 1067   3.360   7.786   6.895
   53POPC   C3B 1068   3.169   7.612   6.512
   53POPC   C4B 1069   3.170   7.592   6.069
   54POPC   NC3 1070   3.628   8.824   7.908
   54POPC   PO4 1071   3.061   9.004   7.996
   54POPC   GL1 1072   3.044   8.926   7.583
   54POPC   GL2 1073   3.262   8.657   7.570
   54POPC   C1A 1074   2.948   8.698   7.182
   54POPC   D2A 1075   3.241   8.753   6.882
   54POPC   C3A 1076   3.183   8.662   6.493
   54POPC   C4A 1077   3.207   8.941   6.159
   54POPC   C1B 1078   3.610   8.733   7.241
   54POPC   C2B 1079   3.785   8.657   6.808
   54POPC   C3B 1080   3.667   8.499   6.375
   54POPC   C4B 1081   3.507   8.557   5.934
   55POPC   NC3 1082   1.386   4.159   8.127
   55POPC   PO4 1083   0.979   4.596   8.099
   55POPC   GL1 1084   0.932   4.356   7.721
   55POPC   GL2 1085   1.075   4.044   7.729
   55POPC   C1A 1086   1.175   4.411   7.321
   55POPC   D2A 1087   1.262   4.593   6.896
   55POPC   C3A 1088   1.012   4.511   6.549
   55POPC   C4A 1089   1.094   4.419   6.131
   55POPC   C1B 1090   1.002   3.933   7.294
   55POPC   C2B 1091   1.331   4.073   6.949
   55POPC   C3B 1092   1.256   4.053   6.500
   55POPC   C4B 1093   0.936   3.745   6.401
   56POPC   NC3 1094   9.143   8.516   8.091
   56POPC   PO4 1095   9.650   8.833   8.002
   56POPC   GL1 1096   9.487   8.573   7.678
   56POPC   GL2 1097   9.218   8.799   7.631
   56POPC   C1A 1098   9.507   8.694   7.224
   56POPC   D2A 1099   9.298   8.513   6.847
   56POPC   C3A 1100   9.477   8.628   6.521
   56POPC   C4A 1101   9.454   8.588   6.096
   56POPC   C1B 1102   9.176   9.099   7.287
   56POPC   C2B 1103   9.246   9.019   6.842
   56POPC   C3B 1104   9.082   8.928   6.419
   56POPC   C4B 1105   9.276   9.062   6.021
   57POPC   NC3 1106   1.096   7.843   8.150
   57POPC   PO4 1107   1.369   8.320   7.857
   57POPC   GL1 1108   1.267   7.953   7.663
   57POPC   GL2 1109   0.897   7.914   7.678
   57POPC   C1A 1110   1.409   7.994   7.252
   57POPC   D2A 1111   1.502   7.747   6.926
   57POPC   C3A 1112   1.342   7.875   6.559
   57POPC   C4A 1113   1.536   7.848   6.207
   57POPC   C1B 1114   0.847   7.744   7.276
   57POPC   C2B 1115   0.978   7.929   6.921
   57POPC   C3B 1116   0.816   7.923   6.523
   57POPC   C4B 1117   0.978   7.955   6.162
   58POPC   NC3 1118   2.103   7.322   7.986
   58POPC   PO4 1119   1.479   7.583   8.027
   58POPC   GL1 1120   1.623   7.294   7.677
   58POPC   GL2 1121   1.930   7.290   7.518
   58POPC   C1A 1122   1.552   7.080   7.282
   58POPC   D2A 1123   1.762   7.297   6.926
   58POPC   C3A 1124   1.625   7.226   6.484
   58POPC   C4A 1125   1.694   6.798   6.267
   58POPC   C1B 1126   2.337   7.327   7.350
   58POPC   C2B 1127   2.397   7.418   6.927
   58POPC   C3B 1128   2.117   7.460   6.598
   58POPC   C4B 1129   2.069   7.209   6.217
   59POPC   NC3 1130   6.928   9.473   8.184
   59POPC   PO4 1131   7.567   9.848   8.122
   59POPC   GL1 1132   7.278   9.595   7.820
   59POPC   GL2 1133   7.482   9.334   7.669
   59POPC   C1A 1134   7.132   9.567   7.351
   59POPC   D2A 1135   6.916   9.285   7.027
   59POPC   C3A 1136   7.010   9.335   6.603
   59POPC   C4A 1137   7.017   9.318   6.175
   59POPC   C1B 1138   7.618   9.354   7.276
   59POPC   C2B 1139   7.402   9.358   6.931
   59POPC   C3B 1140   7.550   9.296   6.565
   59POPC   C4B 1141   7.554   9.450   6.205
   60POPC   NC3 1142   0.561   7.548   7.863
   60POPC   PO4 1143   0.668   8.166   8.080
   60POPC   GL1 1144   0.459   8.225   7.678
   60POPC   GL2 1145   0.188   7.993   7.600
   60POPC   C1A 1146   0.561   8.175   7.262
   60POPC   D2A 1147   0.466   8.033   6.874
   60POPC   C3A 1148   0.399   8.228   6.502
   60POPC   C4A 1149   0.622   8.343   6.180
   60POPC   C1B 1150   0.308   7.709   7.252
   60POPC   C2B 1151   0.514   7.548   6.856
   60POPC   C3B 1152   0.294   7.729   6.476
   60POPC   C4B 1153   0.456   7.890   6.066
   61POPC   NC3 1154   2.636   1.958   8.160
   61POPC   PO4 1155   2.030   2.180   8.288
   61POPC   GL1 1156   2.299   2.185   7.796
   61POPC   GL2 1157   2.635   2.130   7.682
   61POPC   C1A 1158   2.383   2.043   7.271
   61POPC   D2A 1159   2.579   1.922   6.821
   61POPC   C3A 1160   2.471   2.170   6.408
   61POPC   C4A 1161   2.345   2.203   5.919
   61POPC   C1B 1162   2.970   1.969   7.420
   61POPC   C2B 1163   3.077   2.052   6.985
   61POPC   C3B 1164   3.007   2.047   6.547
   61POPC   C4B 1165   2.767   1.719   6.341
   62POPC   NC3 1166   4.160   2.554   8.082
   62POPC   PO4 1167   4.570   3.060   7.919
   62POPC   GL1 1168   4.346   2.778   7.571
   62POPC   GL2 1169   4.087   2.502   7.580
   62POPC   C1A 1170   4.205   2.723   7.104
   62POPC   D2A 1171   3.959   2.986   6.806
   62POPC   C3A 1172   4.151   3.082   6.417
   62POPC   C4A 1173   4.039   2.963   6.018
   62POPC   C1B 1174   3.775   2.460   7.238
   62POPC   C2B 1175   3.681   2.553   6.799
   62POPC   C3B 1176   3.907   2.588   6.400
   62POPC   C4B 1177   4.339   2.496   6.274
   63POPC   NC3 1178   2.818   8.622   8.006
   63POPC   PO4 1179   2.320   9.109   8.142
   63POPC   GL1 1180   2.553   8.994   7.767
   63POPC   GL2 1181   2.603   8.650   7.567
   63POPC   C1A 1182   2.623   9.093   7.356
   63POPC   D2A 1183   2.511   8.891   6.997
   63POPC   C3A 1184   2.734   8.888   6.622
   63POPC   C4A 1185   2.599   8.882   6.216
   63POPC   C1B 1186   2.482   8.405   7.214
   63POPC   C2B 1187   2.651   8.418   6.809
   63POPC   C3B 1188   2.675   8.418   6.384
   63POPC   C4B 1189   3.001   8.470   6.071
   64POPC   NC3 1190   5.838   0.519   7.954
   64POPC   PO4 1191   5.337  10.446   8.027
   64POPC   GL1 1192   5.567   0.141   7.729
   64POPC   GL2 1193   5.383   0.459   7.668
   64POPC   C1A 1194   5.659   0.173   7.289
   64POPC   D2A 1195   5.555   0.255   6.852
   64POPC   C3A 1196   5.745   0.125   6.460
   64POPC   C4A 1197   5.794   0.144   6.031
   64POPC   C1B 1198   5.639   0.682   7.324
   64POPC   C2B 1199   5.666   0.745   6.867
   64POPC   C3B 1200   5.491   0.598   6.486
   64POPC   C4B 1201   5.818   0.610   6.245
   65POPC   NC3 1202   8.929   4.374   7.908
   65POPC   PO4 1203   9.450   4.110   8.333
   65POPC   GL1 1204   9.332   3.974   7.846
   65POPC   GL2 1205   9.628   3.889   7.674
   65POPC   C1A 1206   9.280   4.159   7.351
   65POPC   D2A 1207   9.416   4.327   6.932
   65POPC   C3A 1208   9.096   4.239   6.617
   65POPC   C4A 1209   9.192   4.099   6.217
   65POPC   C1B 1210   9.723   3.920   7.220
   65POPC   C2B 1211   9.670   3.811   6.776
   65POPC   C3B 1212   9.646   3.904   6.351
   65POPC   C4B 1213   9.636   4.359   6.245
   66POPC   NC3 1214   1.446  10.213   8.289
   66POPC   PO4 1215   0.896   0.045   8.142
   66POPC   GL1 1216   1.160  10.393   7.765
   66POPC   GL2 1217   1.329  10.069   7.753
   66POPC   C1A 1218   1.338  10.479   7.357
   66POPC   D2A 1219   1.284  10.228   6.943
   66POPC   C3A 1220   1.425  10.391   6.604
   66POPC   C4A 1221   1.328  10.405   6.218
   66POPC   C1B 1222   1.084  10.015   7.366
   66POPC   C2B 1223   0.956   9.846   6.933
   66POPC   C3B 1224   1.071   9.962   6.486
   66POPC   C4B 1225   1.165   9.979   6.022
   67POPC   NC3 1226  10.330   1.330   8.138
   67POPC   PO4 1227   0.484   1.157   8.160
   67POPC   GL1 1228   0.228   1.133   7.775
   67POPC   GL2 1229   0.534   1.279   7.658
   67POPC   C1A 1230   0.269   1.039   7.300
   67POPC   D2A 1231   0.100   1.237   6.936
   67POPC   C3A 1232   0.199   1.090   6.557
   67POPC   C4A 1233   0.263   0.984   6.142
   67POPC   C1B 1234   0.760   1.445   7.314
   67POPC   C2B 1235   0.749   1.185   6.969
   67POPC   C3B 1236   0.722   1.044   6.556
   67POPC   C4B 1237   0.715   1.296   6.187
   68POPC   NC3 1238   8.709   6.589   7.907
   68POPC   PO4 1239   8.345   6.088   7.650
   68POPC   GL1 1240   8.752   6.213   7.529
   68POPC   GL2 1241   8.916   6.566   7.457
   68POPC   C1A 1242   8.848   5.994   7.194
   68POPC   D2A 1243   8.615   6.006   6.770
   68POPC   C3A 1244   8.787   6.043   6.365
   68POPC   C4A 1245   8.910   6.194   5.967
   68POPC   C1B 1246   8.697   6.469   7.089
   68POPC   C2B 1247   8.692   6.576   6.676
   68POPC   C3B 1248   8.571   6.531   6.274
   68POPC   C4B 1249   8.398   6.853   5.954
   69POPC   NC3 1250   7.744   9.422   8.074
   69POPC   PO4 1251   8.154   8.870   8.079
   69POPC   GL1 1252   8.017   9.100   7.684
   69POPC   GL2 1253   8.008   9.453   7.647
   69POPC   C1A 1254   8.080   9.135   7.216
   69POPC   D2A 1255   8.081   9.081   6.759
   69POPC   C3A 1256   8.036   9.332   6.389
   69POPC   C4A 1257   8.332   9.403   6.050
   69POPC   C1B 1258   8.016   9.673   7.280
   69POPC   C2B 1259   7.900   9.566   6.862
   69POPC   C3B 1260   7.814   9.805   6.500
   69POPC   C4B 1261   7.947   9.741   6.062
   70POPC   NC3 1262   1.272   4.977   8.102
   70POPC   PO4 1263   1.748   4.433   8.149
   70POPC   GL1 1264   1.449   4.614   7.738
   70POPC   GL2 1265   1.132   4.815   7.665
   70POPC   C1A 1266   1.423   4.866   7.288
   70POPC   D2A 1267   1.259   5.148   6.992
   70POPC   C3A 1268   1.193   5.027   6.590
   70POPC   C4A 1269   1.426   4.774   6.302
   70POPC   C1B 1270   0.891   4.854   7.319
   70POPC   C2B 1271   0.794   4.813   6.935
   70POPC   C3B 1272   0.699   4.917   6.546
   70POPC   C4B 1273   0.930   4.894   6.169
   71POPC   NC3 1274  10.407   2.236   7.920
   71POPC   PO4 1275   9.822   2.241   8.338
   71POPC   GL1 1276   9.878   2.222   7.844
   71POPC   GL2 1277   9.984   1.920   7.728
   71POPC   C1A 1278  10.009   2.268   7.360
   71POPC   D2A 1279  10.277   2.241   6.964
   71POPC   C3A 1280  10.219   2.020   6.566
   71POPC   C4A 1281  10.439   1.932   6.173
   71POPC   C1B 1282  10.262   1.826   7.349
   71POPC   C2B 1283  10.369   1.712   6.953
   71POPC   C3B 1284   0.012   1.596   6.568
   71POPC   C4B 1285  10.485   1.418   6.186
   72POPC   NC3 1286   7.333   1.377   8.558
   72POPC   PO4 1287   7.184   0.928   8.124
   72POPC   GL1 1288   7.175   1.001   7.659
   72POPC   GL2 1289   6.954   1.283   7.727
   72POPC   C1A 1290   6.976   0.939   7.256
   72POPC   D2A 1291   6.744   0.977   6.866
   72POPC   C3A 1292   6.962   0.962   6.492
   72POPC   C4A 1293   7.166   0.913   6.075
   72POPC   C1B 1294   7.158   1.427   7.366
   72POPC   C2B 1295   7.097   1.335   6.948
   72POPC   C3B 1296   7.016   1.447   6.546
   72POPC   C4B 1297   7.254   1.406   6.175
   73POPC   NC3 1298  10.466   3.956   7.918
   73POPC   PO4 1299   0.628   3.949   8.013
   73POPC   GL1 1300   0.544   4.028   7.622
   73POPC   GL2 1301   0.357   4.329   7.610
   73POPC   C1A 1302   0.380   3.921   7.229
   73POPC   D2A 1303   0.119   4.116   6.937
   73POPC   C3A 1304   0.010   4.002   6.528
   73POPC   C4A 1305   0.124   4.281   6.223
   73POPC   C1B 1306   0.674   4.364   7.264
   73POPC   C2B 1307   0.792   4.164   6.883
   73POPC   C3B 1308   0.589   4.150   6.494
   73POPC   C4B 1309   0.597   4.485   6.217
   74POPC   NC3 1310   1.687   6.431   8.168
   74POPC   PO4 1311   1.861   6.940   7.991
   74POPC   GL1 1312   1.652   6.706   7.671
   74POPC   GL2 1313   1.858   6.380   7.665
   74POPC   C1A 1314   1.660   6.589   7.210
   74POPC   D2A 1315   1.672   6.793   6.816
   74POPC   C3A 1316   2.047   6.907   6.635
   74POPC   C4A 1317   2.293   6.717   6.304
   74POPC   C1B 1318   1.989   6.188   7.247
   74POPC   C2B 1319   2.022   6.403   6.865
   74POPC   C3B 1320   1.958   6.335   6.460
   74POPC   C4B 1321   1.979   5.943   6.242
   75POPC   NC3 1322   9.986   0.279   7.901
   75POPC   PO4 1323  10.191   0.876   8.214
   75POPC   GL1 1324  10.109   0.874   7.768
   75POPC   GL2 1325  10.391   0.682   7.701
   75POPC   C1A 1326  10.022   0.615   7.350
   75POPC   D2A 1327  10.045   0.306   7.008
   75POPC   C3A 1328   9.820   0.438   6.640
   75POPC   C4A 1329   9.920   0.611   6.234
   75POPC   C1B 1330   0.023   0.583   7.268
   75POPC   C2B 1331   0.022   0.524   6.843
   75POPC   C3B 1332  10.388   0.646   6.453
   75POPC   C4B 1333  10.348   0.254   6.226
   76POPC   NC3 1334   6.489   7.963   8.220
   76POPC   PO4 1335   6.900   7.584   8.034
   76POPC   GL1 1336   6.550   7.798   7.740
   76POPC   GL2 1337   6.219   8.037   7.798
   76POPC   C1A 1338   6.509   8.128   7.409
   76POPC   D2A 1339   6.221   8.140   7.066
   76POPC   C3A 1340   6.400   8.045   6.695
   76POPC   C4A 1341   6.496   8.051   6.280
   76POPC   C1B 1342   6.162   7.750   7.405
   76POPC   C2B 1343   6.347   7.618   6.991
   76POPC   C3B 1344   6.296   7.589   6.517
   76POPC   C4B 1345   6.038   7.840   6.214
   77POPC   NC3 1346   1.885   8.966   8.109
   77POPC   PO4 1347   1.603   8.434   8.319
   77POPC   GL1 1348   1.819   8.529   7.832
   77POPC   GL2 1349   2.195   8.609   7.886
   77POPC   C1A 1350   1.654   8.577   7.331
   77POPC   D2A 1351   1.608   8.803   6.905
   77POPC   C3A 1352   1.714   8.640   6.470
   77POPC   C4A 1353   1.783   8.724   6.005
   77POPC   C1B 1354   2.131   8.744   7.437
   77POPC   C2B 1355   2.076   8.618   7.004
   77POPC   C3B 1356   2.242   8.660   6.607
   77POPC   C4B 1357   2.211   8.561   6.215
   78POPC   NC3 1358   1.964   9.980   8.250
   78POPC   PO4 1359   1.669   0.066   8.038
   78POPC   GL1 1360   1.793  10.289   7.638
   78POPC   GL2 1361   2.091  10.116   7.394
   78POPC   C1A 1362   1.632  10.083   7.258
   78POPC   D2A 1363   1.832  10.115   6.821
   78POPC   C3A 1364   1.596   9.953   6.443
   78POPC   C4A 1365   1.664   9.784   6.048
   78POPC   C1B 1366   2.140  10.481   7.167
   78POPC   C2B 1367   2.320   0.077   6.774
   78POPC   C3B 1368   2.180  10.364   6.412
   78POPC   C4B 1369   2.089   9.942   6.333
   79POPC   NC3 1370   0.500   7.175   8.371
   79POPC   PO4 1371   0.089   7.487   7.902
   79POPC   GL1 1372   0.279   7.143   7.686
   79POPC   GL2 1373   0.631   7.029   7.752
   79POPC   C1A 1374   0.381   7.206   7.262
   79POPC   D2A 1375   0.161   7.180   6.894
   79POPC   C3A 1376   0.365   7.209   6.498
   79POPC   C4A 1377   0.681   7.477   6.289
   79POPC   C1B 1378   0.630   6.762   7.343
   79POPC   C2B 1379   0.396   6.707   6.925
   79POPC   C3B 1380   0.276   6.673   6.483
   79POPC   C4B 1381   0.454   6.866   6.136
   80POPC   NC3 1382   1.869   0.842   8.050
   80POPC   PO4 1383   2.111   1.477   7.932
   80POPC   GL1 1384   2.060   1.108   7.642
   80POPC   GL2 1385   1.689   0.985   7.585
   80POPC   C1A 1386   2.162   1.284   7.254
   80POPC   D2A 1387   2.180   1.635   6.995
   80POPC   C3A 1388   2.361   1.488   6.632
   80POPC   C4A 1389   2.168   1.196   6.358
   80POPC   C1B 1390   1.816   0.926   7.153
   80POPC   C2B 1391   1.891   1.221   6.804
   80POPC   C3B 1392   1.676   1.112   6.418
   80POPC   C4B 1393   1.539   0.745   6.221
   81POPC   NC3 1394   2.891  10.080   7.889
   81POPC   PO4 1395   2.213  10.064   7.867
   81POPC   GL1 1396   2.540  10.277   7.576
   81POPC   GL2 1397   2.913  10.422   7.544
   81POPC   C1A 1398   2.562  10.218   7.138
   81POPC   D2A 1399   2.367  10.025   6.795
   81POPC   C3A 1400   2.607  10.031   6.428
   81POPC   C4A 1401   2.675  10.425   6.273
   81POPC   C1B 1402   3.055  10.200   7.160
   81POPC   C2B 1403   2.964  10.404   6.743
   81POPC   C3B 1404   3.111  10.197   6.374
   81POPC   C4B 1405   3.052   9.751   6.347
   82POPC   NC3 1406   7.910  10.158   8.230
   82POPC   PO4 1407   8.229   9.596   8.097
   82POPC   GL1 1408   8.102   9.953   7.782
   82POPC   GL2 1409   7.799  10.181   7.734
   82POPC   C1A 1410   8.170  10.168   7.360
   82POPC   D2A 1411   8.229   9.990   6.928
   82POPC   C3A 1412   8.213  10.262   6.569
   82POPC   C4A 1413   7.946  10.247   6.203
   82POPC   C1B 1414   7.657  10.283   7.300
   82POPC   C2B 1415   7.779  10.233   6.860
   82POPC   C3B 1416   7.543  10.267   6.493
   82POPC   C4B 1417   7.529  10.441   6.001
   83POPC   NC3 1418   1.420   7.079   8.069
   83POPC   PO4 1419   0.846   7.450   8.212
   83POPC   GL1 1420   1.066   7.421   7.773
   83POPC   GL2 1421   1.152   7.075   7.640
   83POPC   C1A 1422   1.290   7.515   7.366
   83POPC   D2A 1423   1.243   7.309   6.950
   83POPC   C3A 1424   1.071   7.444   6.602
   83POPC   C4A 1425   1.200   7.474   6.172
   83POPC   C1B 1426   0.888   7.210   7.313
   83POPC   C2B 1427   0.746   7.088   6.912
   83POPC   C3B 1428   0.747   6.855   6.556
   83POPC   C4B 1429   0.927   7.052   6.223
   84POPC   NC3 1430   6.928   9.997   8.136
   84POPC   PO4 1431   7.163   0.101   7.983
   84POPC   GL1 1432   7.229  10.402   7.612
   84POPC   GL2 1433   7.291  10.101   7.762
   84POPC   C1A 1434   7.157  10.138   7.252
   84POPC   D2A 1435   6.951   9.964   6.900
   84POPC   C3A 1436   6.831  10.240   6.582
   84POPC   C4A 1437   7.095  10.325   6.235
   84POPC   C1B 1438   7.547   9.830   7.459
   84POPC   C2B 1439   7.487   9.840   6.998
   84POPC   C3B 1440   7.303   9.776   6.563
   84POPC   C4B 1441   7.438   9.930   6.147
   85POPC   NC3 1442   4.436   0.540   8.225
   85POPC   PO4 1443   3.825   0.536   8.000
   85POPC   GL1 1444   3.982   0.254   7.690
   85POPC   GL2 1445   4.330   0.224   7.825
   85POPC   C1A 1446   3.881   0.222   7.251
   85POPC   D2A 1447   3.896   0.453   6.913
   85POPC   C3A 1448   3.924   0.281   6.548
   85POPC   C4A 1449   3.924   0.512   6.165
   85POPC   C1B 1450   4.411   0.205   7.384
   85POPC   C2B 1451   4.326   0.098   6.957
   85POPC   C3B 1452   4.451   0.214   6.553
   85POPC   C4B 1453   4.434   0.495   6.191
   86POPC   NC3 1454   1.601   2.361   8.394
   86POPC   PO4 1455   1.511   2.979   7.986
   86POPC   GL1 1456   1.648   2.811   7.590
   86POPC   GL2 1457   2.004   2.770   7.645
   86POPC   C1A 1458   1.629   2.544   7.219
   86POPC   D2A 1459   1.660   2.359   6.791
   86POPC   C3A 1460   1.494   2.516   6.469
   86POPC   C4A 1461   1.775   2.668   6.191
   86POPC   C1B 1462   2.151   2.494   7.350
   86POPC   C2B 1463   2.072   2.590   6.964
   86POPC   C3B 1464   2.125   2.581   6.557
   86POPC   C4B 1465   2.331   2.622   6.182
   87POPC   NC3 1466   8.423   5.090   8.076
   87POPC   PO4 1467   8.844   4.590   8.341
   87POPC   GL1 1468   9.051   4.851   7.924
   87POPC   GL2 1469   8.741   4.841   7.752
   87POPC   C1A 1470   9.092   5.003   7.428
   87POPC   D2A 1471   8.848   5.145   6.998
   87POPC   C3A 1472   8.858   4.987   6.580
   87POPC   C4A 1473   8.646   5.101   6.208
   87POPC   C1B 1474   8.630   4.812   7.307
   87POPC   C2B 1475   8.772   4.552   6.939
   87POPC   C3B 1476   8.638   4.475   6.507
   87POPC   C4B 1477   8.427   4.639   6.146
   88POPC   NC3 1478  10.167   9.847   8.166
   88POPC   PO4 1479   9.805  10.396   8.158
   88POPC   GL1 1480   9.970  10.288   7.736
   88POPC   GL2 1481  10.315  10.132   7.759
   88POPC   C1A 1482   9.808  10.449   7.318
   88POPC   D2A 1483   9.583  10.409   6.922
   88POPC   C3A 1484   9.830  10.358   6.568
   88POPC   C4A 1485  10.036  10.353   6.183
   88POPC   C1B 1486  10.304  10.340   7.349
   88POPC   C2B 1487  10.195  10.282   6.939
   88POPC   C3B 1488   0.030  10.183   6.656
   88POPC   C4B 1489  10.475  10.120   6.240
   89POPC   NC3 1490   0.682   1.968   8.412
   89POPC   PO4 1491   1.336   1.988   8.301
   89POPC   GL1 1492   1.399   2.101   7.879
   89POPC   GL2 1493   1.096   1.979   7.794
   89POPC   C1A 1494   1.461   1.981   7.443
   89POPC   D2A 1495   1.353   2.092   7.066
   89POPC   C3A 1496   1.277   1.946   6.658
   89POPC   C4A 1497   1.420   2.013   6.248
   89POPC   C1B 1498   0.965   1.985   7.378
   89POPC   C2B 1499   0.854   1.898   6.990
   89POPC   C3B 1500   0.757   1.960   6.616
   89POPC   C4B 1501   0.927   1.771   6.298
   90POPC   NC3 1502   8.641   5.085   8.549
   90POPC   PO4 1503   8.287   5.548   8.035
   90POPC   GL1 1504   8.158   5.253   7.657
   90POPC   GL2 1505   8.230   4.911   7.632
   90POPC   C1A 1506   8.302   5.177   7.193
   90POPC   D2A 1507   8.408   4.892   6.817
   90POPC   C3A 1508   8.199   5.017   6.428
   90POPC   C4A 1509   8.104   5.152   5.998
   90POPC   C1B 1510   8.132   4.693   7.214
   90POPC   C2B 1511   7.895   4.820   6.812
   90POPC   C3B 1512   7.695   4.921   6.370
   90POPC   C4B 1513   7.440   4.861   5.969
   91POPC   NC3 1514   5.579   2.172   7.962
   91POPC   PO4 1515   6.102   1.684   8.013
   91POPC   GL1 1516   5.777   1.840   7.658
   91POPC   GL2 1517   5.859   2.207   7.548
   91POPC   C1A 1518   5.579   1.993   7.203
   91POPC   D2A 1519   5.751   2.098   6.789
   91POPC   C3A 1520   5.512   2.246   6.403
   91POPC   C4A 1521   5.550   1.951   6.074
   91POPC   C1B 1522   6.089   1.905   7.282
   91POPC   C2B 1523   6.049   1.678   6.933
   91POPC   C3B 1524   5.926   1.672   6.524
   91POPC   C4B 1525   5.970   2.069   6.320
   92POPC   NC3 1526   1.688   8.042   8.059
   92POPC   PO4 1527   2.274   7.711   8.155
   92POPC   GL1 1528   2.133   7.745   7.682
   92POPC   GL2 1529   1.772   7.786   7.621
   92POPC   C1A 1530   2.100   7.754   7.188
   92POPC   D2A 1531   2.327   8.029   6.872
   92POPC   C3A 1532   2.325   8.008   6.397
   92POPC   C4A 1533   2.039   7.715   6.176
   92POPC   C1B 1534   1.947   8.172   7.430
   92POPC   C2B 1535   1.824   8.179   6.996
   92POPC   C3B 1536   1.858   7.968   6.611
   92POPC   C4B 1537   1.878   8.201   6.226
   93POPC   NC3 1538   9.564   3.665   8.213
   93POPC   PO4 1539   8.849   3.698   8.213
   93POPC   GL1 1540   9.083   3.524   7.822
   93POPC   GL2 1541   9.436   3.391   7.782
   93POPC   C1A 1542   9.230   3.661   7.387
   93POPC   D2A 1543   9.213   3.855   6.959
   93POPC   C3A 1544   9.139   3.697   6.563
   93POPC   C4A 1545   9.312   3.596   6.142
   93POPC   C1B 1546   9.279   3.158   7.408
   93POPC   C2B 1547   9.309   3.341   6.968
   93POPC   C3B 1548   9.538   3.366   6.576
   93POPC   C4B 1549   9.470   3.112   6.223
   94POPC   NC3 1550   0.525   4.422   8.093
   94POPC   PO4 1551   0.270   5.008   8.319
   94POPC   GL1 1552   0.278   4.826   7.817
   94POPC   GL2 1553   0.621   4.789   7.743
   94POPC   C1A 1554   0.347   4.743   7.310
   94POPC   D2A 1555   0.364   4.553   6.858
   94POPC   C3A 1556   0.239   4.758   6.451
   94POPC   C4A 1557   0.200   4.735   5.982
   94POPC   C1B 1558   0.495   5.187   7.495
   94POPC   C2B 1559   0.387   5.184   7.032
   94POPC   C3B 1560   0.326   5.276   6.587
   94POPC   C4B 1561   0.450   5.143   6.147
   95POPC   NC3 1562   1.242   8.670   8.132
   95POPC   PO4 1563   1.608   9.269   7.916
   95POPC   GL1 1564   1.388   8.888   7.689
   95POPC   GL2 1565   1.030   8.670   7.652
   95POPC   C1A 1566   1.252   8.922   7.268
   95POPC   D2A 1567   1.074   8.828   6.885
   95POPC   C3A 1568   1.280   8.999   6.552
   95POPC   C4A 1569   1.304   8.808   6.172
   95POPC   C1B 1570   1.100   8.413   7.241
   95POPC   C2B 1571   1.331   8.342   6.835
   95POPC   C3B 1572   1.252   8.344   6.375
   95POPC   C4B 1573   1.062   8.416   5.950
   96POPC   NC3 1574   6.814   0.759   7.924
   96POPC   PO4 1575   6.164   0.818   8.096
   96POPC   GL1 1576   6.391   0.995   7.769
   96POPC   GL2 1577   6.425   1.336   7.791
   96POPC   C1A 1578   6.469   0.933   7.348
   96POPC   D2A 1579   6.112   0.856   7.128
   96POPC   C3A 1580   6.186   0.877   6.710
   96POPC   C4A 1581   6.260   0.873   6.294
   96POPC   C1B 1582   6.191   1.369   7.378
   96POPC   C2B 1583   6.364   1.292   6.963
   96POPC   C3B 1584   6.466   1.293   6.510
   96POPC   C4B 1585   6.689   1.173   6.117
   97POPC   NC3 1586   3.261   1.754   8.197
   97POPC   PO4 1587   3.792   1.359   8.253
   97POPC   GL1 1588   3.650   1.536   7.825
   97POPC   GL2 1589   3.398   1.819   7.709
   97POPC   C1A 1590   3.609   1.517   7.355
   97POPC   D2A 1591   3.377   1.579   6.964
   97POPC   C3A 1592   3.496   1.669   6.515
   97POPC   C4A 1593   3.270   1.859   6.152
   97POPC   C1B 1594   3.493   2.022   7.304
   97POPC   C2B 1595   3.584   2.060   6.872
   97POPC   C3B 1596   3.549   2.184   6.447
   97POPC   C4B 1597   3.755   2.181   6.051
   98POPC   NC3 1598   6.384   0.521   8.386
   98POPC   PO4 1599   5.825   0.170   8.261
   98POPC   GL1 1600   6.087   0.066   7.844
   98POPC   GL2 1601   6.314   0.374   7.772
   98POPC   C1A 1602   6.163   0.040   7.358
   98POPC   D2A 1603   6.036   0.361   7.015
   98POPC   C3A 1604   6.146   0.391   6.587
   98POPC   C4A 1605   6.250   0.383   6.153
   98POPC   C1B 1606   6.518   0.402   7.357
   98POPC   C2B 1607   6.502   0.548   6.963
   98POPC   C3B 1608   6.607   0.588   6.549
   98POPC   C4B 1609   6.721   0.653   6.155
   99POPC   NC3 1610   1.274   2.599   7.911
   99POPC   PO4 1611   0.759   2.268   8.052
   99POPC   GL1 1612   0.856   2.429   7.632
   99POPC   GL2 1613   0.830   2.779   7.597
   99POPC   C1A 1614   0.772   2.447   7.171
   99POPC   D2A 1615   1.045   2.387   6.803
   99POPC   C3A 1616   1.015   2.336   6.360
   99POPC   C4A 1617   0.883   2.573   5.988
   99POPC   C1B 1618   1.178   2.797   7.304
   99POPC   C2B 1619   1.307   2.833   6.886
   99POPC   C3B 1620   1.063   2.830   6.512
   99POPC   C4B 1621   1.276   2.851   6.143
  100POPC   NC3 1622   1.957   4.008   8.121
  100POPC   PO4 1623   2.317   4.351   7.892
  100POPC   GL1 1624   1.917   4.403   7.676
  100POPC   GL2 1625   1.651   4.131   7.704
  100POPC   C1A 1626   1.690   4.435   7.278
  100POPC   D2A 1627   1.762   4.683   6.912
  100POPC   C3A 1628   1.784   4.443   6.525
  100POPC   C4A 1629   2.140   4.365   6.233
  100POPC   C1B 1630   1.926   3.994   7.377
  100POPC   C2B 1631   1.886   4.004   6.940
  100POPC   C3B 1632   2.056   3.945   6.532
  100POPC   C4B 1633   1.739   4.021   6.237
  101POPC   NC3 1634   8.134   2.671   8.135
  101POPC   PO4 1635   8.158   3.208   7.800
  101POPC   GL1 1636   7.965   2.813   7.653
  101POPC   GL2 1637   8.093   2.425   7.694
  101POPC   C1A 1638   7.854   2.981   7.238
  101POPC   D2A 1639   8.077   3.163   6.886
  101POPC   C3A 1640   7.928   3.045   6.510
  101POPC   C4A 1641   8.079   3.043   6.092
  101POPC   C1B 1642   8.002   2.505   7.254
  101POPC   C2B 1643   8.170   2.659   6.880
  101POPC   C3B 1644   8.028   2.551   6.502
  101POPC   C4B 1645   8.273   2.556   6.159
  102POPC   NC3 1646   1.260   0.320   8.014
  102POPC   PO4 1647   0.596   0.497   8.023
  102POPC   GL1 1648   0.768   0.234   7.684
  102POPC   GL2 1649   1.052   0.398   7.536
  102POPC   C1A 1650   0.833  10.485   7.303
  102POPC   D2A 1651   1.066   0.174   6.948
  102POPC   C3A 1652   0.916  10.478   6.560
  102POPC   C4A 1653   0.762   0.164   6.194
  102POPC   C1B 1654   1.404   0.598   7.305
  102POPC   C2B 1655   1.507   0.578   6.864
  102POPC   C3B 1656   1.331   0.374   6.497
  102POPC   C4B 1657   1.211   0.363   6.056
  103POPC   NC3 1658  10.375   4.934   8.107
  103POPC   PO4 1659   9.743   4.786   8.246
  103POPC   GL1 1660   9.963   4.719   7.853
  103POPC   GL2 1661  10.041   5.027   7.722
  103POPC   C1A 1662   9.957   4.662   7.394
  103POPC   D2A 1663   9.955   4.944   7.021
  103POPC   C3A 1664   9.843   4.743   6.613
  103POPC   C4A 1665   9.911   4.990   6.234
  103POPC   C1B 1666  10.393   4.935   7.439
  103POPC   C2B 1667  10.467   4.880   6.993
  103POPC   C3B 1668  10.302   4.973   6.606
  103POPC   C4B 1669  10.454   5.114   6.226
  104POPC   NC3 1670  10.248   7.142   7.911
  104POPC   PO4 1671   0.308   6.825   8.128
  104POPC   GL1 1672   0.004   6.703   7.751
  104POPC   GL2 1673  10.153   6.834   7.530
  104POPC   C1A 1674   0.103   6.792   7.328
  104POPC   D2A 1675  10.288   6.857   7.030
  104POPC   C3A 1676  10.347   6.894   6.627
  104POPC   C4A 1677  10.098   6.807   6.356
  104POPC   C1B 1678  10.210   7.282   7.295
  104POPC   C2B 1679  10.260   7.512   6.916
  104POPC   C3B 1680  10.375   7.421   6.508
  104POPC   C4B 1681  10.107   7.372   6.181
  105POPC   NC3 1682   8.087   5.982   8.006
  105POPC   PO4 1683   8.321   6.573   8.174
  105POPC   GL1 1684   8.231   6.597   7.720
  105POPC   GL2 1685   7.926   6.391   7.687
  105POPC   C1A 1686   8.227   6.617   7.256
  105POPC   D2A 1687   8.227   6.336   6.893
  105POPC   C3A 1688   8.127   6.473   6.490
  105POPC   C4A 1689   8.225   6.169   6.184
  105POPC   C1B 1690   7.711   6.546   7.310
  105POPC   C2B 1691   7.748   6.551   6.844
  105POPC   C3B 1692   7.663   6.270   6.479
  105POPC   C4B 1693   7.727   6.114   6.074
  106POPC   NC3 1694   1.755   1.827   8.126
  106POPC   PO4 1695   1.734   2.499   7.974
  106POPC   GL1 1696   1.828   2.246   7.623
  106POPC   GL2 1697   1.923   1.871   7.634
  106POPC   C1A 1698   1.883   2.087   7.165
  106POPC   D2A 1699   2.104   2.089   6.768
  106POPC   C3A 1700   1.905   2.154   6.369
  106POPC   C4A 1701   1.844   2.215   5.941
  106POPC   C1B 1702   1.741   1.589   7.288
  106POPC   C2B 1703   1.678   1.698   6.852
  106POPC   C3B 1704   1.889   1.638   6.474
  106POPC   C4B 1705   2.234   1.760   6.210
  107POPC   NC3 1706   9.550   6.215   8.131
  107POPC   PO4 1707   8.939   6.211   7.997
  107POPC   GL1 1708   9.257   6.241   7.690
  107POPC   GL2 1709   9.352   6.584   7.749
  107POPC   C1A 1710   9.270   6.274   7.242
  107POPC   D2A 1711   9.073   6.248   6.822
  107POPC   C3A 1712   9.221   6.387   6.439
  107POPC   C4A 1713   9.396   6.504   6.067
  107POPC   C1B 1714   9.538   6.682   7.342
  107POPC   C2B 1715   9.501   6.551   6.893
  107POPC   C3B 1716   9.523   6.808   6.541
  107POPC   C4B 1717   9.662   6.914   6.161
  108POPC   NC3 1718   2.186   2.588   8.107
  108POPC   PO4 1719   2.846   2.383   8.067
  108POPC   GL1 1720   2.871   2.576   7.645
  108POPC   GL2 1721   2.526   2.666   7.638
  108POPC   C1A 1722   2.777   2.417   7.244
  108POPC   D2A 1723   2.527   2.405   6.912
  108POPC   C3A 1724   2.628   2.677   6.635
  108POPC   C4A 1725   2.858   2.502   6.325
  108POPC   C1B 1726   2.472   2.840   7.188
  108POPC   C2B 1727   2.298   3.056   6.855
  108POPC   C3B 1728   2.335   3.061   6.417
  108POPC   C4B 1729   2.715   2.980   6.195
  109POPC   NC3 1730   6.634  10.415   7.982
  109POPC   PO4 1731   6.671   9.716   7.883
  109POPC   GL1 1732   6.523   9.943   7.555
  109POPC   GL2 1733   6.777  10.156   7.576
  109POPC   C1A 1734   6.279  10.019   7.195
  109POPC   D2A 1735   6.379  10.053   6.759
  109POPC   C3A 1736   6.218   9.788   6.426
  109POPC   C4A 1737   6.236   9.704   5.936
  109POPC   C1B 1738   6.665  10.370   7.183
  109POPC   C2B 1739   6.454   0.058   6.819
  109POPC   C3B 1740   6.246  10.411   6.427
  109POPC   C4B 1741   6.506  10.120   6.186
  110POPC   NC3 1742   2.086   5.539   7.953
  110POPC   PO4 1743   1.686   5.970   8.232
  110POPC   GL1 1744   1.598   5.775   7.786
  110POPC   GL2 1745   1.905   5.858   7.614
  110POPC   C1A 1746   1.583   5.648   7.308
  110POPC   D2A 1747   1.769   5.838   6.903
  110POPC   C3A 1748   1.578   5.709   6.505
  110POPC   C4A 1749   1.637   5.566   6.080
  110POPC   C1B 1750   2.080   5.604   7.263
  110POPC   C2B 1751   2.173   5.464   6.865
  110POPC   C3B 1752   2.004   5.462   6.473
  110POPC   C4B 1753   2.130   5.458   6.072
  111POPC   NC3 1754   0.774   3.463   7.967
  111POPC   PO4 1755   0.168   3.073   8.005
  111POPC   GL1 1756   0.450   3.168   7.694
  111POPC   GL2 1757   0.372   3.538   7.665
  111POPC   C1A 1758   0.713   3.286   7.340
  111POPC   D2A 1759   0.643   3.555   6.971
  111POPC   C3A 1760   0.724   3.324   6.607
  111POPC   C4A 1761   0.594   3.380   6.162
  111POPC   C1B 1762   0.217   3.421   7.269
  111POPC   C2B 1763   0.063   3.601   6.890
  111POPC   C3B 1764   0.289   3.582   6.519
  111POPC   C4B 1765   0.354   3.839   6.144
  112POPC   NC3 1766   6.435   2.668   8.035
  112POPC   PO4 1767   6.900   3.054   7.970
  112POPC   GL1 1768   6.681   2.886   7.598
  112POPC   GL2 1769   6.685   2.536   7.622
  112POPC   C1A 1770   6.515   2.999   7.165
  112POPC   D2A 1771   6.440   3.105   6.715
  112POPC   C3A 1772   6.696   2.976   6.330
  112POPC   C4A 1773   6.749   3.031   5.862
  112POPC   C1B 1774   6.392   2.532   7.292
  112POPC   C2B 1775   6.530   2.576   6.850
  112POPC   C3B 1776   6.322   2.653   6.467
  112POPC   C4B 1777   5.905   2.596   6.313
  113POPC   NC3 1778  10.102   8.934   8.052
  113POPC   PO4 1779  10.071   8.255   8.053
  113POPC   GL1 1780  10.120   8.463   7.652
  113POPC   GL2 1781   9.951   8.790   7.577
  113POPC   C1A 1782  10.091   8.311   7.227
  113POPC   D2A 1783   9.805   8.427   6.921
  113POPC   C3A 1784   9.903   8.358   6.540
  113POPC   C4A 1785   9.926   8.691   6.278
  113POPC   C1B 1786  10.174   8.819   7.190
  113POPC   C2B 1787  10.255   8.675   6.776
  113POPC   C3B 1788  10.351   8.922   6.423
  113POPC   C4B 1789   0.031   9.251   6.199
  114POPC   NC3 1790  10.157   3.078   8.041
  114POPC   PO4 1791  10.018   3.833   8.016
  114POPC   GL1 1792   9.978   3.507   7.734
  114POPC   GL2 1793  10.352   3.413   7.689
  114POPC   C1A 1794   9.717   3.416   7.341
  114POPC   D2A 1795   9.721   3.057   7.047
  114POPC   C3A 1796   9.904   3.005   6.621
  114POPC   C4A 1797   9.943   3.263   6.240
  114POPC   C1B 1798  10.207   3.449   7.256
  114POPC   C2B 1799  10.013   3.448   6.862
  114POPC   C3B 1800  10.095   3.679   6.479
  114POPC   C4B 1801  10.405   3.614   6.174
  115POPC   NC3 1802   7.353   0.487   8.183
  115POPC   PO4 1803   6.704   0.354   8.106
  115POPC   GL1 1804   6.905   0.351   7.659
  115POPC   GL2 1805   7.258   0.499   7.678
  115POPC   C1A 1806   7.034   0.236   7.262
  115POPC   D2A 1807   7.001   0.473   6.894
  115POPC   C3A 1808   6.960   0.233   6.538
  115POPC   C4A 1809   6.664   0.126   6.259
  115POPC   C1B 1810   7.383   0.629   7.269
  115POPC   C2B 1811   7.331   0.844   6.863
  115POPC   C3B 1812   7.310   0.617   6.481
  115POPC   C4B 1813   7.445   0.239   6.393
  116POPC   NC3 1814   9.229  10.194   8.193
  116POPC   PO4 1815   9.251   0.399   8.190
  116POPC   GL1 1816   9.416   0.050   7.850
  116POPC   GL2 1817   9.470  10.174   7.765
  116POPC   C1A 1818   9.286  10.454   7.393
  116POPC   D2A 1819   9.187  10.102   7.096
  116POPC   C3A 1820   9.151  10.267   6.666
  116POPC   C4A 1821   9.391  10.275   6.306
  116POPC   C1B 1822   9.659   9.974   7.416
  116POPC   C2B 1823   9.773   9.921   6.979
  116POPC   C3B 1824   9.590   9.875   6.566
  116POPC   C4B 1825   9.761   9.919   6.148
  117POPC   NC3 1826   7.517   1.217   7.949
  117POPC   PO4 1827   8.200   1.480   7.975
  117POPC   GL1 1828   8.123   1.289   7.559
  117POPC   GL2 1829   7.837   1.044   7.560
  117POPC   C1A 1830   8.309   0.981   7.262
  117POPC   D2A 1831   8.369   0.951   6.809
  117POPC   C3A 1832   8.045   1.187   6.558
  117POPC   C4A 1833   7.981   1.465   6.195
  117POPC   C1B 1834   7.538   1.115   7.265
  117POPC   C2B 1835   7.583   1.278   6.863
  117POPC   C3B 1836   7.531   1.102   6.456
  117POPC   C4B 1837   7.667   1.045   6.030
  118POPC   NC3 1838   9.398   9.221   8.005
  118POPC   PO4 1839   9.068   9.788   8.020
  118POPC   GL1 1840   9.335   9.651   7.660
  118POPC   GL2 1841   9.685   9.472   7.632
  118POPC   C1A 1842   9.401   9.578   7.209
  118POPC   D2A 1843   9.564   9.422   6.821
  118POPC   C3A 1844   9.220   9.433   6.514
  118POPC   C4A 1845   9.105   9.838   6.373
  118POPC   C1B 1846   9.748   9.162   7.266
  118POPC   C2B 1847   9.782   8.948   6.831
  118POPC   C3B 1848   9.616   9.094   6.421
  118POPC   C4B 1849   9.584   9.456   6.154
  119POPC   NC3 1850   0.415   5.490   8.144
  119POPC   PO4 1851   0.742   6.039   7.942
  119POPC   GL1 1852   0.612   5.735   7.681
  119POPC   GL2 1853   0.263   5.716   7.696
  119POPC   C1A 1854   0.611   5.775   7.262
  119POPC   D2A 1855   0.817   5.900   6.912
  119POPC   C3A 1856   0.595   5.772   6.555
  119POPC   C4A 1857   0.620   5.854   6.141
  119POPC   C1B 1858   0.154   5.550   7.306
  119POPC   C2B 1859   0.252   5.695   6.917
  119POPC   C3B 1860   0.047   5.743   6.571
  119POPC   C4B 1861   0.159   5.583   6.210
  120POPC   NC3 1862   4.231   1.517   8.276
  120POPC   PO4 1863   4.410   2.134   8.121
  120POPC   GL1 1864   4.343   1.927   7.707
  120POPC   GL2 1865   4.431   1.556   7.742
  120POPC   C1A 1866   4.028   2.041   7.357
  120POPC   D2A 1867   4.084   2.231   6.904
  120POPC   C3A 1868   4.075   2.085   6.456
  120POPC   C4A 1869   4.261   2.043   6.001
  120POPC   C1B 1870   4.123   1.542   7.391
  120POPC   C2B 1871   3.962   1.721   6.978
  120POPC   C3B 1872   4.011   1.579   6.559
  120POPC   C4B 1873   3.905   1.702   6.150
  121POPC   NC3 1874   2.155   9.542   8.073
  121POPC   PO4 1875   1.531   9.772   8.126
  121POPC   GL1 1876   1.757   9.757   7.666
  121POPC   GL2 1877   2.100   9.650   7.606
  121POPC   C1A 1878   1.894   9.653   7.167
  121POPC   D2A 1879   2.083   9.619   6.752
  121POPC   C3A 1880   1.896   9.476   6.387
  121POPC   C4A 1881   1.632   9.193   6.164
  121POPC   C1B 1882   2.148   9.264   7.415
  121POPC   C2B 1883   2.066   9.138   6.990
  121POPC   C3B 1884   2.292   9.167   6.596
  121POPC   C4B 1885   2.141   9.087   6.181
  122POPC   NC3 1886   8.695   1.603   8.017
  122POPC   PO4 1887   8.402   2.263   8.195
  122POPC   GL1 1888   8.492   2.049   7.798
  122POPC   GL2 1889   8.872   2.033   7.774
  122POPC   C1A 1890   8.408   1.782   7.403
  122POPC   D2A 1891   8.343   1.534   7.001
  122POPC   C3A 1892   8.324   1.789   6.610
  122POPC   C4A 1893   8.346   1.878   6.173
  122POPC   C1B 1894   8.757   2.148   7.352
  122POPC   C2B 1895   8.718   1.952   6.940
  122POPC   C3B 1896   8.785   2.048   6.490
  122POPC   C4B 1897   8.718   2.256   6.086
  123POPC   NC3 1898   8.619   9.840   7.953
  123POPC   PO4 1899   8.815  10.379   8.293
  123POPC   GL1 1900   8.910  10.404   7.819
  123POPC   GL2 1901   8.974  10.085   7.614
  123POPC   C1A 1902   8.752  10.491   7.380
  123POPC   D2A 1903   8.463  10.472   7.027
  123POPC   C3A 1904   8.654   0.057   6.648
  123POPC   C4A 1905   8.930   0.080   6.294
  123POPC   C1B 1906   8.688   9.997   7.243
  123POPC   C2B 1907   8.713  10.052   6.793
  123POPC   C3B 1908   8.668  10.145   6.358
  123POPC   C4B 1909   8.359  10.089   5.993
  124POPC   NC3 1910   1.908   3.195   7.935
  124POPC   PO4 1911   1.569   3.736   8.143
  124POPC   GL1 1912   1.795   3.628   7.722
  124POPC   GL2 1913   1.654   3.313   7.525
  124POPC   C1A 1914   2.057   3.515   7.329
  124POPC   D2A 1915   2.234   3.595   6.941
  124POPC   C3A 1916   2.033   3.420   6.605
  124POPC   C4A 1917   1.952   3.558   6.199
  124POPC   C1B 1918   1.875   3.045   7.189
  124POPC   C2B 1919   1.788   2.955   6.738
  124POPC   C3B 1920   1.661   3.147   6.349
  124POPC   C4B 1921   1.905   3.113   5.969
  125POPC   NC3 1922   4.859   2.025   8.007
  125POPC   PO4 1923   5.278   2.390   7.695
  125POPC   GL1 1924   5.223   1.973   7.600
  125POPC   GL2 1925   4.841   1.989   7.496
  125POPC   C1A 1926   5.210   1.667   7.318
  125POPC   D2A 1927   4.977   1.898   7.007
  125POPC   C3A 1928   5.202   1.955   6.670
  125POPC   C4A 1929   5.095   1.930   6.262
  125POPC   C1B 1930   4.486   1.943   7.178
  125POPC   C2B 1931   4.429   1.840   6.747
  125POPC   C3B 1932   4.601   2.023   6.380
  125POPC   C4B 1933   4.849   2.401   6.287
  126POPC   NC3 1934   2.816   9.315   8.224
  126POPC   PO4 1935   2.450   9.838   8.300
  126POPC   GL1 1936   2.588   9.680   7.855
  126POPC   GL2 1937   2.840   9.437   7.743
  126POPC   C1A 1938   2.554   9.714   7.389
  126POPC   D2A 1939   2.486   9.449   7.031
  126POPC   C3A 1940   2.655   9.552   6.647
  126POPC   C4A 1941   2.409   9.554   6.281
  126POPC   C1B 1942   2.996   9.436   7.341
  126POPC   C2B 1943   2.949   9.202   6.972
  126POPC   C3B 1944   3.082   9.246   6.564
  126POPC   C4B 1945   2.853   9.311   6.207
  127POPC   NC3 1946   7.363   2.058   8.078
  127POPC   PO4 1947   6.787   2.350   8.105
  127POPC   GL1 1948   7.051   2.190   7.707
  127POPC   GL2 1949   7.065   1.820   7.704
  127POPC   C1A 1950   7.456   2.110   7.424
  127POPC   D2A 1951   7.630   2.166   6.994
  127POPC   C3A 1952   7.374   2.319   6.667
  127POPC   C4A 1953   7.447   2.282   6.248
  127POPC   C1B 1954   7.039   1.902   7.253
  127POPC   C2B 1955   7.248   1.831   6.859
  127POPC   C3B 1956   7.123   1.911   6.412
  127POPC   C4B 1957   6.819   1.678   6.115
  128POPC   NC3 1958   3.544   0.165   7.972
  128POPC   PO4 1959   3.242   0.756   8.040
  128POPC   GL1 1960   3.147   0.396   7.669
  128POPC   GL2 1961   3.451   0.250   7.505
  128POPC   C1A 1962   3.100   0.200   7.180
  128POPC   D2A 1963   3.430   0.186   6.826
  128POPC   C3A 1964   3.222   0.267   6.412
  128POPC   C4A 1965   3.021   0.194   5.998
  128POPC   C1B 1966   3.477   0.560   7.203
  128POPC   C2B 1967   3.533   0.823   6.899
  128POPC   C3B 1968   3.564   0.657   6.530
  128POPC   C4B 1969   3.414   0.771   6.168
  129POPC   NC3 1970   8.077   1.009   8.001
  129POPC   PO4 1971   8.668   0.768   8.032
  129POPC   GL1 1972   8.615   1.103   7.724
  129POPC   GL2 1973   8.856   0.917   7.535
  129POPC   C1A 1974   8.709   1.384   7.352
  129POPC   D2A 1975   8.857   1.452   6.892
  129POPC   C3A 1976   8.558   1.359   6.535
  129POPC   C4A 1977   8.458   0.981   6.298
  129POPC   C1B 1978   8.829   0.965   7.087
  129POPC   C2B 1979   8.868   0.988   6.646
  129POPC   C3B 1980   8.954   1.154   6.251
  129POPC   C4B 1981   9.215   0.982   5.939
  130POPC   NC3 1982   8.303   7.998   8.253
  130POPC   PO4 1983   7.663   8.019   8.264
  130POPC   GL1 1984   7.749   8.088   7.803
  130POPC   GL2 1985   8.107   7.952   7.695
  130POPC   C1A 1986   7.612   8.306   7.374
  130POPC   D2A 1987   7.675   8.073   6.956
  130POPC   C3A 1988   7.454   8.104   6.536
  130POPC   C4A 1989   7.436   8.467   6.249
  130POPC   C1B 1990   8.113   7.879   7.227
  130POPC   C2B 1991   7.924   7.626   6.880
  130POPC   C3B 1992   7.858   7.614   6.441
  130POPC   C4B 1993   8.129   7.887   6.272
  131POPC   NC3 1994   7.303   7.802   8.089
  131POPC   PO4 1995   7.260   8.450   8.104
  131POPC   GL1 1996   7.247   8.183   7.747
  131POPC   GL2 1997   6.882   8.174   7.828
  131POPC   C1A 1998   7.441   7.846   7.402
  131POPC   D2A 1999   7.261   7.753   6.961
  131POPC   C3A 2000   7.340   7.604   6.515
  131POPC   C4A 2001   7.455   7.706   6.077
  131POPC   C1B 2002   6.951   7.914   7.427
  131POPC   C2B 2003   6.776   7.910   7.022
  131POPC   C3B 2004   6.909   7.949   6.607
  131POPC   C4B 2005   6.975   7.825   6.196
  132POPC   NC3 2006   0.219   0.744   8.121
  132POPC   PO4 2007  10.434   0.139   7.918
  132POPC   GL1 2008   0.271   0.318   7.634
  132POPC   GL2 2009   0.397   0.676   7.616
  132POPC   C1A 2010   0.511   0.387   7.220
  132POPC   D2A 2011   0.476   0.746   6.929
  132POPC   C3A 2012   0.399   0.631   6.518
  132POPC   C4A 2013   0.352   0.493   6.150
  132POPC   C1B 2014   0.748   0.836   7.385
  132POPC   C2B 2015   0.983   0.691   7.015
  132POPC   C3B 2016   0.868   0.514   6.621
  132POPC   C4B 2017   0.838   0.687   6.216
  133POPC   NC3 2018   4.203   8.062   8.061
  133POPC   PO4 2019   3.796   7.644   8.081
  133POPC   GL1 2020   3.864   7.865   7.686
  133POPC   GL2 2021   4.189   7.728   7.663
  133POPC   C1A 2022   3.944   7.914   7.209
  133POPC   D2A 2023   3.927   8.138   6.781
  133POPC   C3A 2024   3.989   7.916   6.356
  133POPC   C4A 2025   3.687   7.663   6.069
  133POPC   C1B 2026   4.388   8.054   7.425
  133POPC   C2B 2027   4.435   8.075   7.008
  133POPC   C3B 2028   4.521   8.076   6.583
  133POPC   C4B 2029   4.468   8.068   6.153
  134POPC   NC3 2030   8.576   8.616   8.066
  134POPC   PO4 2031   9.152   8.066   8.048
  134POPC   GL1 2032   9.038   8.277   7.667
  134POPC   GL2 2033   8.786   8.531   7.629
  134POPC   C1A 2034   9.116   8.393   7.294
  134POPC   D2A 2035   8.888   8.704   7.111
  134POPC   C3A 2036   8.794   8.576   6.702
  134POPC   C4A 2037   9.032   8.408   6.353
  134POPC   C1B 2038   8.452   8.731   7.424
  134POPC   C2B 2039   8.379   8.744   6.997
  134POPC   C3B 2040   8.304   8.659   6.568
  134POPC   C4B 2041   8.595   8.667   6.236
  135POPC   NC3 2042   0.431  10.477   8.025
  135POPC   PO4 2043   0.140   9.846   8.186
  135POPC   GL1 2044   0.329  10.026   7.745
  135POPC   GL2 2045   0.694  10.146   7.702
  135POPC   C1A 2046   0.324  10.372   7.387
  135POPC   D2A 2047   0.153   0.059   7.004
  135POPC   C3A 2048   0.373   0.106   6.583
  135POPC   C4A 2049   0.291  10.490   6.141
  135POPC   C1B 2050   0.588   9.968   7.270
  135POPC   C2B 2051   0.554  10.205   6.886
  135POPC   C3B 2052   0.508  10.094   6.451
  135POPC   C4B 2053   0.689  10.162   6.063
  136POPC   NC3 2054   9.779   1.085   8.155
  136POPC   PO4 2055   9.957   1.612   8.270
  136POPC   GL1 2056   9.925   1.433   7.820
  136POPC   GL2 2057  10.244   1.385   7.637
  136POPC   C1A 2058   9.820   1.553   7.383
  136POPC   D2A 2059   9.974   1.369   7.001
  136POPC   C3A 2060   9.786   1.520   6.626
  136POPC   C4A 2061  10.016   1.633   6.291
  136POPC   C1B 2062  10.263   1.069   7.326
  136POPC   C2B 2063  10.213   0.912   6.916
  136POPC   C3B 2064  10.200   1.177   6.567
  136POPC   C4B 2065  10.162   1.046   6.175
  137POPC   NC3 2066   0.628   6.472   7.997
  137POPC   PO4 2067   0.124   5.986   8.171
  137POPC   GL1 2068   0.163   6.205   7.730
  137POPC   GL2 2069   0.489   6.274   7.567
  137POPC   C1A 2070   0.183   6.074   7.256
  137POPC   D2A 2071   0.424   6.192   6.907
  137POPC   C3A 2072   0.288   6.169   6.504
  137POPC   C4A 2073   0.150   6.099   6.105
  137POPC   C1B 2074   0.796   6.281   7.256
  137POPC   C2B 2075   0.863   6.463   6.870
  137POPC   C3B 2076   0.789   6.278   6.503
  137POPC   C4B 2077   0.585   6.373   6.142
  138POPC   NC3 2078   9.137   0.803   7.969
  138POPC   PO4 2079   9.163   1.525   8.107
  138POPC   GL1 2080   9.114   1.322   7.726
  138POPC   GL2 2081   9.454   1.182   7.713
  138POPC   C1A 2082   9.202   1.287   7.281
  138POPC   D2A 2083   9.473   1.261   6.966
  138POPC   C3A 2084   9.315   1.292   6.575
  138POPC   C4A 2085   9.428   1.497   6.189
  138POPC   C1B 2086   9.737   1.055   7.370
  138POPC   C2B 2087   9.731   0.822   6.999
  138POPC   C3B 2088   9.742   0.969   6.598
  138POPC   C4B 2089   9.665   1.065   6.175
  139POPC   NC3 2090   2.209   0.026   7.902
  139POPC   PO4 2091   2.385   0.750   8.023
  139POPC   GL1 2092   2.130   0.546   7.711
  139POPC   GL2 2093   1.737   0.482   7.728
  139POPC   C1A 2094   2.214   0.636   7.310
  139POPC   D2A 2095   2.043   0.477   6.967
  139POPC   C3A 2096   1.952   0.735   6.646
  139POPC   C4A 2097   2.041   0.598   6.274
  139POPC   C1B 2098   1.784   0.261   7.378
  139POPC   C2B 2099   1.677   0.101   6.984
  139POPC   C3B 2100   1.828   0.212   6.573
  139POPC   C4B 2101   1.706   0.255   6.151
  140POPC   NC3 2102   5.324   9.547   8.196
  140POPC   PO4 2103   4.840   9.071   8.049
  140POPC   GL1 2104   4.815   9.232   7.685
  140POPC   GL2 2105   5.029   9.472   7.669
  140POPC   C1A 2106   4.919   9.071   7.298
  140POPC   D2A 2107   4.691   9.099   6.949
  140POPC   C3A 2108   4.886   9.126   6.601
  140POPC   C4A 2109   4.727   9.014   6.230
  140POPC   C1B 2110   4.853   9.569   7.249
  140POPC   C2B 2111   4.771   9.629   6.795
  140POPC   C3B 2112   4.822   9.591   6.378
  140POPC   C4B 2113   4.929   9.491   5.959
  141POPC   NC3 2114   9.570   1.868   8.199
  141POPC   PO4 2115   9.192   2.377   8.130
  141POPC   GL1 2116   9.390   2.077   7.779
  141POPC   GL2 2117   9.467   1.714   7.730
  141POPC   C1A 2118   9.568   2.028   7.336
  141POPC   D2A 2119   9.853   1.917   6.983
  141POPC   C3A 2120   9.712   2.124   6.599
  141POPC   C4A 2121   9.620   2.027   6.182
  141POPC   C1B 2122   9.132   1.775   7.406
  141POPC   C2B 2123   9.269   1.754   6.967
  141POPC   C3B 2124   9.267   1.851   6.527
  141POPC   C4B 2125   9.099   1.878   6.091
  142POPC   NC3 2126  10.204   1.996   8.317
  142POPC   PO4 2127  10.161   2.609   8.017
  142POPC   GL1 2128  10.107   2.701   7.610
  142POPC   GL2 2129  10.013   3.033   7.543
  142POPC   C1A 2130  10.088   2.716   7.146
  142POPC   D2A 2131   9.787   2.555   6.889
  142POPC   C3A 2132  10.074   2.513   6.568
  142POPC   C4A 2133  10.040   2.335   6.186
  142POPC   C1B 2134  10.435   3.004   7.365
  142POPC   C2B 2135  10.447   3.107   6.939
  142POPC   C3B 2136  10.365   3.246   6.544
  142POPC   C4B 2137  10.306   2.893   6.307
  143POPC   NC3 2138   4.511   9.499   8.063
  143POPC   PO4 2139   3.916   9.178   8.000
  143POPC   GL1 2140   4.252   9.201   7.721
  143POPC   GL2 2141   4.143   9.539   7.680
  143POPC   C1A 2142   4.438   9.295   7.346
  143POPC   D2A 2143   4.336   9.499   6.983
  143POPC   C3A 2144   4.416   9.314   6.563
  143POPC   C4A 2145   4.429   9.437   6.110
  143POPC   C1B 2146   3.929   9.358   7.283
  143POPC   C2B 2147   3.889   9.381   6.808
  143POPC   C3B 2148   3.939   9.359   6.399
  143POPC   C4B 2149   3.988   9.673   6.186
  144POPC   NC3 2150   4.922   8.599   8.123
  144POPC   PO4 2151   5.499   8.705   7.994
  144POPC   GL1 2152   5.152   8.714   7.664
  144POPC   GL2 2153   4.785   8.719   7.653
  144POPC   C1A 2154   5.220   8.675   7.238
  144POPC   D2A 2155   5.364   8.951   6.940
  144POPC   C3A 2156   5.252   8.784   6.582
  144POPC   C4A 2157   5.120   8.590   6.250
  144POPC   C1B 2158   4.764   8.429   7.290
  144POPC   C2B 2159   4.819   8.591   6.869
  144POPC   C3B 2160   4.652   8.565   6.460
  144POPC   C4B 2161   4.530   8.565   6.034
  145POPC   NC3 2162   8.680   4.130   8.255
  145POPC   PO4 2163   8.360   4.642   8.052
  145POPC   GL1 2164   8.436   4.444   7.624
  145POPC   GL2 2165   8.773   4.369   7.445
  145POPC   C1A 2166   8.324   4.207   7.242
  145POPC   D2A 2167   8.295   4.320   6.830
  145POPC   C3A 2168   8.231   4.044   6.441
  145POPC   C4A 2169   7.949   4.137   6.059
  145POPC   C1B 2170   8.803   4.062   7.149
  145POPC   C2B 2171   8.670   3.944   6.762
  145POPC   C3B 2172   8.715   3.900   6.334
  145POPC   C4B 2173   8.751   4.235   6.041
  146POPC   NC3 2174   7.135   2.695   8.100
  146POPC   PO4 2175   7.720   2.352   8.073
  146POPC   GL1 2176   7.501   2.528   7.700
  146POPC   GL2 2177   7.168   2.690   7.598
  146POPC   C1A 2178   7.491   2.593   7.238
  146POPC   D2A 2179   7.670   2.700   6.859
  146POPC   C3A 2180   7.455   2.863   6.534
  146POPC   C4A 2181   7.661   2.736   6.186
  146POPC   C1B 2182   6.991   2.413   7.238
  146POPC   C2B 2183   6.874   2.184   6.842
  146POPC   C3B 2184   6.883   2.382   6.472
  146POPC   C4B 2185   7.096   2.661   6.249
  147POPC   NC3 2186   4.911  10.392   7.855
  147POPC   PO4 2187   4.905   9.779   8.169
  147POPC   GL1 2188   5.161   9.929   7.823
  147POPC   GL2 2189   4.891   9.985   7.556
  147POPC   C1A 2190   5.308   9.813   7.373
  147POPC   D2A 2191   5.082   9.955   7.010
  147POPC   C3A 2192   5.225   9.849   6.579
  147POPC   C4A 2193   5.013  10.019   6.200
  147POPC   C1B 2194   4.693  10.270   7.248
  147POPC   C2B 2195   4.811  10.424   6.886
  147POPC   C3B 2196   4.678  10.216   6.550
  147POPC   C4B 2197   4.639  10.402   6.173
  148POPC   NC3 2198   8.667   0.311   8.188
  148POPC   PO4 2199   8.008   0.070   8.044
  148POPC   GL1 2200   8.407   0.235   7.745
  148POPC   GL2 2201   8.749   0.399   7.695
  148POPC   C1A 2202   8.378   0.429   7.306
  148POPC   D2A 2203   8.194   0.477   6.858
  148POPC   C3A 2204   8.394   0.455   6.449
  148POPC   C4A 2205   8.427   0.087   6.150
  148POPC   C1B 2206   8.882   0.477   7.276
  148POPC   C2B 2207   8.705   0.507   6.901
  148POPC   C3B 2208   8.900   0.498   6.559
  148POPC   C4B 2209   8.836   0.658   6.202
  149POPC   NC3 2210   4.218   8.814   8.056
  149POPC   PO4 2211   4.598   8.281   8.088
  149POPC   GL1 2212   4.336   8.488   7.676
  149POPC   GL2 2213   4.025   8.732   7.582
  149POPC   C1A 2214   4.419   8.789   7.284
  149POPC   D2A 2215   4.175   8.996   6.954
  149POPC   C3A 2216   4.160   8.889   6.490
  149POPC   C4A 2217   4.240   8.987   6.048
  149POPC   C1B 2218   4.056   8.435   7.222
  149POPC   C2B 2219   4.284   8.510   6.823
  149POPC   C3B 2220   4.167   8.398   6.394
  149POPC   C4B 2221   4.022   8.547   6.008
  150POPC   NC3 2222   9.822  10.323   4.076
  150POPC   PO4 2223   9.178  10.269   3.705
  150POPC   GL1 2224   9.296   9.917   4.172
  150POPC   GL2 2225   9.562  10.008   4.381
  150POPC   C1A 2226   9.132  10.080   4.677
  150POPC   D2A 2227   9.031  10.315   5.093
  150POPC   C3A 2228   9.228  10.204   5.494
  150POPC   C4A 2229   9.208  10.029   5.911
  150POPC   C1B 2230   9.675  10.173   4.778
  150POPC   C2B 2231   9.842  10.069   5.177
  150POPC   C3B 2232   9.858  10.356   5.528
  150POPC   C4B 2233   9.657  10.309   5.858
  151POPC   NC3 2234   6.350   9.875   3.896
  151POPC   PO4 2235   6.840  10.107   3.671
  151POPC   GL1 2236   6.778   9.997   4.138
  151POPC   GL2 2237   6.530  10.273   4.223
  151POPC   C1A 2238   6.508   9.863   4.537
  151POPC   D2A 2239   6.292   9.980   4.923
  151POPC   C3A 2240   6.533   9.949   5.257
  151POPC   C4A 2241   6.560   9.980   5.689
  151POPC   C1B 2242   6.230  10.345   4.575
  151POPC   C2B 2243   6.250   0.003   5.019
  151POPC   C3B 2244   6.351  10.430   5.447
  151POPC   C4B 2245   6.278  10.440   5.884
  152POPC   NC3 2246   0.798   9.562   4.104
  152POPC   PO4 2247   1.253   9.096   3.935
  152POPC   GL1 2248   1.206   9.314   4.301
  152POPC   GL2 2249   1.448   9.542   4.241
  152POPC   C1A 2250   0.969   9.210   4.681
  152POPC   D2A 2251   1.007   8.998   5.079
  152POPC   C3A 2252   0.786   9.145   5.453
  152POPC   C4A 2253   1.002   9.373   5.782
  152POPC   C1B 2254   1.448   9.671   4.641
  152POPC   C2B 2255   1.373   9.371   4.947
  152POPC   C3B 2256   1.270   9.343   5.352
  152POPC   C4B 2257   1.509   9.472   5.706
  153POPC   NC3 2258   1.266  10.314   3.953
  153POPC   PO4 2259   0.745   9.942   3.774
  153POPC   GL1 2260   0.862  10.123   4.195
  153POPC   GL2 2261   1.131   9.918   4.253
  153POPC   C1A 2262   1.108  10.268   4.598
  153POPC   D2A 2263   0.887  10.270   4.964
  153POPC   C3A 2264   0.937  10.257   5.415
  153POPC   C4A 2265   1.043  10.436   5.806
  153POPC   C1B 2266   0.949   9.789   4.682
  153POPC   C2B 2267   1.110   9.808   5.092
  153POPC   C3B 2268   1.169   9.818   5.527
  153POPC   C4B 2269   1.486  10.096   5.656
  154POPC   NC3 2270   1.118   1.419   4.050
  154POPC   PO4 2271   1.561   0.860   3.878
  154POPC   GL1 2272   1.434   1.070   4.278
  154POPC   GL2 2273   1.133   0.998   4.467
  154POPC   C1A 2274   1.470   1.321   4.706
  154POPC   D2A 2275   1.305   1.419   5.131
  154POPC   C3A 2276   1.550   1.484   5.521
  154POPC   C4A 2277   1.546   1.253   5.917
  154POPC   C1B 2278   0.919   1.373   4.655
  154POPC   C2B 2279   0.791   1.484   5.040
  154POPC   C3B 2280   0.846   1.217   5.367
  154POPC   C4B 2281   1.062   1.262   5.714
  155POPC   NC3 2282   8.800   7.809   3.904
  155POPC   PO4 2283   8.242   8.257   3.813
  155POPC   GL1 2284   8.298   8.082   4.235
  155POPC   GL2 2285   8.645   7.995   4.339
  155POPC   C1A 2286   8.285   8.036   4.691
  155POPC   D2A 2287   8.563   8.134   5.013
  155POPC   C3A 2288   8.519   8.025   5.440
  155POPC   C4A 2289   8.279   7.992   5.809
  155POPC   C1B 2290   8.828   7.826   4.685
  155POPC   C2B 2291   8.807   7.692   5.108
  155POPC   C3B 2292   9.019   7.852   5.487
  155POPC   C4B 2293   8.849   7.846   5.909
  156POPC   NC3 2294   2.704   1.159   3.833
  156POPC   PO4 2295   3.164   1.537   3.642
  156POPC   GL1 2296   3.092   1.264   4.138
  156POPC   GL2 2297   2.731   1.278   4.315
  156POPC   C1A 2298   3.108   1.336   4.643
  156POPC   D2A 2299   3.062   1.027   4.996
  156POPC   C3A 2300   3.033   1.153   5.419
  156POPC   C4A 2301   2.872   1.038   5.840
  156POPC   C1B 2302   2.550   1.271   4.699
  156POPC   C2B 2303   2.636   1.452   5.113
  156POPC   C3B 2304   2.572   1.316   5.530
  156POPC   C4B 2305   2.309   0.993   5.619
  157POPC   NC3 2306   0.602   3.300   3.986
  157POPC   PO4 2307  10.453   3.422   3.848
  157POPC   GL1 2308   0.148   3.495   4.265
  157POPC   GL2 2309   0.354   3.204   4.399
  157POPC   C1A 2310   0.074   3.580   4.710
  157POPC   D2A 2311   0.284   3.469   5.080
  157POPC   C3A 2312   0.148   3.428   5.486
  157POPC   C4A 2313   0.374   3.146   5.743
  157POPC   C1B 2314   0.612   3.426   4.671
  157POPC   C2B 2315   0.823   3.451   5.040
  157POPC   C3B 2316   0.758   3.345   5.451
  157POPC   C4B 2317   0.559   3.646   5.723
  158POPC   NC3 2318   8.777   5.376   3.854
  158POPC   PO4 2319   8.843   6.052   3.943
  158POPC   GL1 2320   8.827   5.758   4.308
  158POPC   GL2 2321   8.495   5.760   4.293
  158POPC   C1A 2322   8.938   5.543   4.732
  158POPC   D2A 2323   8.742   5.494   5.131
  158POPC   C3A 2324   8.852   5.530   5.540
  158POPC   C4A 2325   8.521   5.382   5.805
  158POPC   C1B 2326   8.451   5.669   4.720
  158POPC   C2B 2327   8.255   5.683   5.109
  158POPC   C3B 2328   8.423   5.833   5.464
  158POPC   C4B 2329   8.501   5.888   5.880
  159POPC   NC3 2330   7.884   4.986   3.787
  159POPC   PO4 2331   8.435   4.971   3.884
  159POPC   GL1 2332   8.265   4.783   4.285
  159POPC   GL2 2333   7.886   4.803   4.307
  159POPC   C1A 2334   8.231   4.854   4.760
  159POPC   D2A 2335   8.100   4.697   5.191
  159POPC   C3A 2336   7.814   4.819   5.561
  159POPC   C4A 2337   7.916   4.662   5.976
  159POPC   C1B 2338   7.763   5.039   4.718
  159POPC   C2B 2339   7.823   5.180   5.184
  159POPC   C3B 2340   7.578   5.259   5.598
  159POPC   C4B 2341   7.623   5.344   6.048
  160POPC   NC3 2342   2.006  10.249   3.866
  160POPC   PO4 2343   1.508   0.197   3.845
  160POPC   GL1 2344   1.752   0.031   4.211
  160POPC   GL2 2345   1.578  10.247   4.350
  160POPC   C1A 2346   2.081  10.481   4.610
  160POPC   D2A 2347   2.224  10.438   5.082
  160POPC   C3A 2348   2.000   0.080   5.495
  160POPC   C4A 2349   2.136   0.070   5.941
  160POPC   C1B 2350   1.652  10.158   4.794
  160POPC   C2B 2351   1.873  10.068   5.206
  160POPC   C3B 2352   1.989  10.085   5.665
  160POPC   C4B 2353   1.784  10.258   6.060
  161POPC   NC3 2354   1.892   4.490   4.046
  161POPC   PO4 2355   1.848   3.827   3.856
  161POPC   GL1 2356   2.027   4.011   4.235
  161POPC   GL2 2357   1.775   4.095   4.441
  161POPC   C1A 2358   2.195   3.984   4.699
  161POPC   D2A 2359   1.948   4.091   5.082
  161POPC   C3A 2360   2.182   4.002   5.488
  161POPC   C4A 2361   2.237   3.945   5.962
  161POPC   C1B 2362   1.782   4.473   4.695
  161POPC   C2B 2363   1.794   4.664   5.090
  161POPC   C3B 2364   1.798   4.427   5.446
  161POPC   C4B 2365   1.801   4.170   5.778
  162POPC   NC3 2366   7.031   0.569   4.018
  162POPC   PO4 2367   7.626   0.416   3.879
  162POPC   GL1 2368   7.560   0.581   4.277
  162POPC   GL2 2369   7.326   0.306   4.332
  162POPC   C1A 2370   7.464   0.553   4.746
  162POPC   D2A 2371   7.481   0.430   5.197
  162POPC   C3A 2372   7.439   0.678   5.594
  162POPC   C4A 2373   7.536   0.557   6.021
  162POPC   C1B 2374   7.082   0.205   4.721
  162POPC   C2B 2375   7.169   0.059   5.138
  162POPC   C3B 2376   7.205   0.156   5.598
  162POPC   C4B 2377   7.084   0.315   6.013
  163POPC   NC3 2378   7.947   0.105   3.934
  163POPC   PO4 2379   8.593   0.057   3.813
  163POPC   GL1 2380   8.358   0.160   4.229
  163POPC   GL2 2381   8.196   0.516   4.197
  163POPC   C1A 2382   7.999   0.202   4.558
  163POPC   D2A 2383   7.700   0.044   4.864
  163POPC   C3A 2384   7.912   0.113   5.258
  163POPC   C4A 2385   7.704   0.241   5.625
  163POPC   C1B 2386   7.977   0.715   4.564
  163POPC   C2B 2387   7.923   0.535   4.948
  163POPC   C3B 2388   7.923   0.635   5.350
  163POPC   C4B 2389   7.937   0.683   5.747
  164POPC   NC3 2390   8.830  10.204   4.062
  164POPC   PO4 2391   8.774   9.578   3.906
  164POPC   GL1 2392   8.878   9.733   4.361
  164POPC   GL2 2393   8.657   9.998   4.485
  164POPC   C1A 2394   8.845   9.692   4.845
  164POPC   D2A 2395   8.656   9.971   5.173
  164POPC   C3A 2396   8.808   9.905   5.596
  164POPC   C4A 2397   8.733   9.771   6.042
  164POPC   C1B 2398   8.680  10.370   4.725
  164POPC   C2B 2399   8.483  10.474   5.121
  164POPC   C3B 2400   8.540  10.358   5.543
  164POPC   C4B 2401   8.790  10.312   5.888
  165POPC   NC3 2402   2.214   2.615   3.915
  165POPC   PO4 2403   1.545   2.645   3.846
  165POPC   GL1 2404   1.602   2.724   4.271
  165POPC   GL2 2405   1.957   2.750   4.329
  165POPC   C1A 2406   1.557   2.770   4.722
  165POPC   D2A 2407   1.793   2.739   5.121
  165POPC   C3A 2408   1.541   2.854   5.376
  165POPC   C4A 2409   1.563   2.803   5.736
  165POPC   C1B 2410   2.072   2.636   4.730
  165POPC   C2B 2411   2.301   2.452   5.050
  165POPC   C3B 2412   2.158   2.350   5.448
  165POPC   C4B 2413   2.035   2.634   5.761
  166POPC   NC3 2414   6.692   8.353   3.858
  166POPC   PO4 2415   6.148   8.837   3.848
  166POPC   GL1 2416   6.147   8.792   4.373
  166POPC   GL2 2417   6.506   8.809   4.537
  166POPC   C1A 2418   6.262   8.450   4.750
  166POPC   D2A 2419   6.506   8.563   5.126
  166POPC   C3A 2420   6.339   8.523   5.554
  166POPC   C4A 2421   6.193   8.177   5.826
  166POPC   C1B 2422   6.229   8.952   4.863
  166POPC   C2B 2423   6.219   9.024   5.284
  166POPC   C3B 2424   6.560   8.983   5.531
  166POPC   C4B 2425   6.619   8.998   5.959
  167POPC   NC3 2426  10.225   7.215   3.973
  167POPC   PO4 2427   9.801   6.813   3.849
  167POPC   GL1 2428   9.839   7.064   4.297
  167POPC   GL2 2429  10.198   7.156   4.456
  167POPC   C1A 2430   9.868   7.040   4.787
  167POPC   D2A 2431   9.968   6.878   5.148
  167POPC   C3A 2432  10.013   7.110   5.493
  167POPC   C4A 2433  10.073   6.986   5.878
  167POPC   C1B 2434  10.245   7.425   4.842
  167POPC   C2B 2435  10.421   7.212   5.223
  167POPC   C3B 2436   0.025   6.960   5.646
  167POPC   C4B 2437  10.498   7.062   6.140
  168POPC   NC3 2438   8.270   1.557   4.218
  168POPC   PO4 2439   8.144   0.924   3.887
  168POPC   GL1 2440   8.193   1.061   4.265
  168POPC   GL2 2441   7.811   1.102   4.264
  168POPC   C1A 2442   8.391   1.118   4.684
  168POPC   D2A 2443   8.176   0.965   5.050
  168POPC   C3A 2444   8.321   0.951   5.476
  168POPC   C4A 2445   8.180   1.099   5.884
  168POPC   C1B 2446   7.908   1.229   4.689
  168POPC   C2B 2447   7.835   1.329   5.126
  168POPC   C3B 2448   7.796   1.127   5.519
  168POPC   C4B 2449   7.609   1.456   5.769
  169POPC   NC3 2450   4.896   8.432   4.037
  169POPC   PO4 2451   4.829   9.140   3.947
  169POPC   GL1 2452   4.897   9.016   4.348
  169POPC   GL2 2453   4.621   8.780   4.336
  169POPC   C1A 2454   4.750   9.030   4.775
  169POPC   D2A 2455   4.613   9.018   5.202
  169POPC   C3A 2456   4.815   8.758   5.433
  169POPC   C4A 2457   4.946   8.705   5.805
  169POPC   C1B 2458   4.759   8.485   4.665
  169POPC   C2B 2459   4.915   8.420   5.080
  169POPC   C3B 2460   4.985   8.279   5.512
  169POPC   C4B 2461   4.922   8.209   5.966
  170POPC   NC3 2462   7.780   6.503   3.912
  170POPC   PO4 2463   7.552   7.018   4.094
  170POPC   GL1 2464   7.823   6.709   4.398
  170POPC   GL2 2465   8.036   6.421   4.340
  170POPC   C1A 2466   7.945   6.526   4.840
  170POPC   D2A 2467   7.742   6.344   5.217
  170POPC   C3A 2468   7.764   6.565   5.617
  170POPC   C4A 2469   7.981   6.571   5.993
  170POPC   C1B 2470   8.216   6.129   4.628
  170POPC   C2B 2471   8.349   6.196   5.034
  170POPC   C3B 2472   8.222   6.399   5.377
  170POPC   C4B 2473   8.047   6.116   5.691
  171POPC   NC3 2474   5.674   2.263   3.960
  171POPC   PO4 2475   5.339   1.672   3.848
  171POPC   GL1 2476   5.548   1.683   4.235
  171POPC   GL2 2477   5.865   1.864   4.219
  171POPC   C1A 2478   5.737   1.617   4.641
  171POPC   D2A 2479   5.839   1.551   5.037
  171POPC   C3A 2480   5.552   1.682   5.320
  171POPC   C4A 2481   5.519   2.020   5.576
  171POPC   C1B 2482   5.873   2.110   4.649
  171POPC   C2B 2483   5.776   2.116   5.111
  171POPC   C3B 2484   5.933   2.312   5.507
  171POPC   C4B 2485   5.685   2.403   5.892
  172POPC   NC3 2486   1.459   3.800   4.114
  172POPC   PO4 2487   0.945   3.436   3.724
  172POPC   GL1 2488   0.969   3.605   4.180
  172POPC   GL2 2489   0.994   3.275   4.362
  172POPC   C1A 2490   1.063   3.726   4.647
  172POPC   D2A 2491   1.292   3.704   5.072
  172POPC   C3A 2492   1.011   3.776   5.446
  172POPC   C4A 2493   1.039   3.589   5.866
  172POPC   C1B 2494   1.309   3.247   4.700
  172POPC   C2B 2495   1.228   3.166   5.113
  172POPC   C3B 2496   1.362   3.365   5.479
  172POPC   C4B 2497   1.421   3.255   5.886
  173POPC   NC3 2498   0.759   2.289   4.010
  173POPC   PO4 2499   0.722   2.888   4.154
  173POPC   GL1 2500   0.580   2.582   4.388
  173POPC   GL2 2501   0.259   2.685   4.447
  173POPC   C1A 2502   0.667   2.394   4.759
  173POPC   D2A 2503   0.484   2.483   5.144
  173POPC   C3A 2504   0.647   2.647   5.541
  173POPC   C4A 2505   0.404   2.478   5.831
  173POPC   C1B 2506   0.499   2.909   4.798
  173POPC   C2B 2507   0.451   2.999   5.224
  173POPC   C3B 2508   0.161   2.750   5.465
  173POPC   C4B 2509   0.016   2.814   5.870
  174POPC   NC3 2510   1.856   7.164   3.998
  174POPC   PO4 2511   2.527   7.198   3.920
  174POPC   GL1 2512   2.244   7.113   4.313
  174POPC   GL2 2513   1.932   7.315   4.465
  174POPC   C1A 2514   2.171   7.004   4.767
  174POPC   D2A 2515   2.122   7.254   5.150
  174POPC   C3A 2516   2.142   6.943   5.466
  174POPC   C4A 2517   2.055   6.844   5.876
  174POPC   C1B 2518   1.682   7.156   4.792
  174POPC   C2B 2519   1.690   6.982   5.196
  174POPC   C3B 2520   1.696   7.148   5.606
  174POPC   C4B 2521   1.665   7.415   5.959
  175POPC   NC3 2522   7.205   7.315   4.039
  175POPC   PO4 2523   6.757   7.893   3.905
  175POPC   GL1 2524   7.019   7.930   4.335
  175POPC   GL2 2525   7.379   7.964   4.373
  175POPC   C1A 2526   7.109   7.749   4.765
  175POPC   D2A 2527   7.277   7.747   5.210
  175POPC   C3A 2528   7.073   7.729   5.633
  175POPC   C4A 2529   7.064   7.389   5.950
  175POPC   C1B 2530   7.336   8.227   4.733
  175POPC   C2B 2531   7.385   8.413   5.129
  175POPC   C3B 2532   7.245   8.205   5.484
  175POPC   C4B 2533   7.252   8.141   5.901
  176POPC   NC3 2534   1.570   2.180   3.749
  176POPC   PO4 2535   1.576   1.545   4.111
  176POPC   GL1 2536   1.482   1.865   4.367
  176POPC   GL2 2537   1.134   1.815   4.404
  176POPC   C1A 2538   1.407   1.835   4.814
  176POPC   D2A 2539   1.372   1.971   5.194
  176POPC   C3A 2540   1.095   1.749   5.474
  176POPC   C4A 2541   1.243   1.657   5.922
  176POPC   C1B 2542   0.886   1.911   4.778
  176POPC   C2B 2543   0.919   2.191   5.152
  176POPC   C3B 2544   0.747   2.155   5.561
  176POPC   C4B 2545   0.993   2.093   5.907
  177POPC   NC3 2546   5.032   0.588   3.835
  177POPC   PO4 2547   4.405   0.568   4.033
  177POPC   GL1 2548   4.641   0.567   4.402
  177POPC   GL2 2549   4.914   0.353   4.279
  177POPC   C1A 2550   4.702   0.726   4.839
  177POPC   D2A 2551   4.576   0.436   5.111
  177POPC   C3A 2552   4.652   0.328   5.507
  177POPC   C4A 2553   4.801   0.300   5.923
  177POPC   C1B 2554   4.916   0.270   4.720
  177POPC   C2B 2555   5.112   0.414   5.092
  177POPC   C3B 2556   5.152   0.377   5.535
  177POPC   C4B 2557   4.904   0.738   5.704
  178POPC   NC3 2558   3.481   1.782   3.923
  178POPC   PO4 2559   2.867   1.688   4.060
  178POPC   GL1 2560   3.190   1.750   4.352
  178POPC   GL2 2561   3.372   2.045   4.363
  178POPC   C1A 2562   3.147   1.854   4.796
  178POPC   D2A 2563   3.366   1.910   5.168
  178POPC   C3A 2564   3.241   1.610   5.448
  178POPC   C4A 2565   2.983   1.559   5.806
  178POPC   C1B 2566   3.332   2.329   4.743
  178POPC   C2B 2567   3.511   2.429   5.130
  178POPC   C3B 2568   3.659   2.319   5.526
  178POPC   C4B 2569   3.462   2.000   5.687
  179POPC   NC3 2570   6.578   2.282   3.938
  179POPC   PO4 2571   6.882   1.692   4.010
  179POPC   GL1 2572   6.675   1.883   4.307
  179POPC   GL2 2573   6.366   1.838   4.117
  179POPC   C1A 2574   6.671   2.011   4.758
  179POPC   D2A 2575   6.720   1.908   5.190
  179POPC   C3A 2576   6.456   2.144   5.468
  179POPC   C4A 2577   6.556   2.038   5.862
  179POPC   C1B 2578   6.246   1.773   4.560
  179POPC   C2B 2579   6.226   1.895   5.004
  179POPC   C3B 2580   6.064   1.810   5.423
  179POPC   C4B 2581   6.001   1.891   5.837
  180POPC   NC3 2582   8.979   0.278   3.790
  180POPC   PO4 2583   9.298  10.385   4.178
  180POPC   GL1 2584   8.927   0.145   4.336
  180POPC   GL2 2585   8.759   0.479   4.250
  180POPC   C1A 2586   8.894   0.348   4.760
  180POPC   D2A 2587   9.142   0.374   5.142
  180POPC   C3A 2588   8.936   0.175   5.465
  180POPC   C4A 2589   8.794   0.320   5.837
  180POPC   C1B 2590   8.482   0.611   4.631
  180POPC   C2B 2591   8.412   0.486   5.095
  180POPC   C3B 2592   8.342   0.374   5.542
  180POPC   C4B 2593   8.386   0.589   5.947
  181POPC   NC3 2594  10.368   0.479   3.893
  181POPC   PO4 2595   9.686   0.520   3.924
  181POPC   GL1 2596   9.900   0.303   4.219
  181POPC   GL2 2597  10.196   0.353   4.359
  181POPC   C1A 2598   9.805   0.144   4.633
  181POPC   D2A 2599   9.668   0.425   4.972
  181POPC   C3A 2600   9.836   0.430   5.410
  181POPC   C4A 2601   9.986   0.284   5.824
  181POPC   C1B 2602  10.165   0.444   4.763
  181POPC   C2B 2603  10.177   0.639   5.117
  181POPC   C3B 2604  10.334   0.696   5.497
  181POPC   C4B 2605  10.374   0.656   5.934
  182POPC   NC3 2606   8.392   2.624   3.961
  182POPC   PO4 2607   8.940   3.063   3.865
  182POPC   GL1 2608   8.904   2.872   4.276
  182POPC   GL2 2609   8.572   3.002   4.346
  182POPC   C1A 2610   9.062   2.758   4.695
  182POPC   D2A 2611   8.964   2.919   5.087
  182POPC   C3A 2612   8.956   2.605   5.386
  182POPC   C4A 2613   8.910   2.636   5.818
  182POPC   C1B 2614   8.578   2.597   4.599
  182POPC   C2B 2615   8.608   2.498   5.028
  182POPC   C3B 2616   8.506   2.838   5.329
  182POPC   C4B 2617   8.308   2.798   5.713
  183POPC   NC3 2618   4.632  10.172   3.867
  183POPC   PO4 2619   5.229   0.030   3.857
  183POPC   GL1 2620   5.214  10.391   4.269
  183POPC   GL2 2621   5.042  10.084   4.161
  183POPC   C1A 2622   5.318  10.453   4.710
  183POPC   D2A 2623   5.055  10.416   5.086
  183POPC   C3A 2624   5.237  10.356   5.482
  183POPC   C4A 2625   4.995  10.346   5.812
  183POPC   C1B 2626   4.794  10.220   4.548
  183POPC   C2B 2627   4.783  10.013   4.966
  183POPC   C3B 2628   4.943   9.910   5.358
  183POPC   C4B 2629   4.725   9.916   5.761
  184POPC   NC3 2630   9.159   1.229   3.898
  184POPC   PO4 2631   9.716   1.339   4.222
  184POPC   GL1 2632   9.635   0.997   4.451
  184POPC   GL2 2633   9.305   1.054   4.363
  184POPC   C1A 2634   9.865   0.873   4.770
  184POPC   D2A 2635   9.705   0.881   5.168
  184POPC   C3A 2636   9.898   1.055   5.478
  184POPC   C4A 2637   9.564   1.255   5.703
  184POPC   C1B 2638   9.359   1.261   4.781
  184POPC   C2B 2639   9.408   1.342   5.208
  184POPC   C3B 2640   9.105   1.205   5.494
  184POPC   C4B 2641   9.034   1.447   5.845
  185POPC   NC3 2642   2.476   8.756   3.980
  185POPC   PO4 2643   2.877   8.247   3.747
  185POPC   GL1 2644   2.761   8.430   4.234
  185POPC   GL2 2645   2.389   8.505   4.408
  185POPC   C1A 2646   2.774   8.669   4.674
  185POPC   D2A 2647   2.941   8.714   5.094
  185POPC   C3A 2648   2.744   9.042   5.372
  185POPC   C4A 2649   2.851   8.897   5.793
  185POPC   C1B 2650   2.212   8.384   4.789
  185POPC   C2B 2651   2.433   8.544   5.104
  185POPC   C3B 2652   2.637   8.561   5.487
  185POPC   C4B 2653   2.549   8.393   5.890
  186POPC   NC3 2654   7.272  10.226   3.804
  186POPC   PO4 2655   6.855   0.147   4.080
  186POPC   GL1 2656   7.119  10.336   4.304
  186POPC   GL2 2657   7.305   9.990   4.255
  186POPC   C1A 2658   6.890  10.192   4.646
  186POPC   D2A 2659   6.717  10.363   5.008
  186POPC   C3A 2660   6.853  10.303   5.428
  186POPC   C4A 2661   6.801  10.394   5.836
  186POPC   C1B 2662   7.277   9.872   4.695
  186POPC   C2B 2663   7.129  10.048   5.082
  186POPC   C3B 2664   7.009   9.831   5.460
  186POPC   C4B 2665   7.215  10.119   5.740
  187POPC   NC3 2666   7.105   9.240   3.796
  187POPC   PO4 2667   7.549   9.540   4.091
  187POPC   GL1 2668   7.444   9.258   4.405
  187POPC   GL2 2669   7.112   9.194   4.304
  187POPC   C1A 2670   7.232   9.327   4.798
  187POPC   D2A 2671   7.306   9.587   5.120
  187POPC   C3A 2672   7.333   9.391   5.466
  187POPC   C4A 2673   7.271   9.574   5.817
  187POPC   C1B 2674   6.933   9.589   4.471
  187POPC   C2B 2675   6.831   9.672   4.932
  187POPC   C3B 2676   6.874   9.314   5.266
  187POPC   C4B 2677   7.041   9.055   5.673
  188POPC   NC3 2678   9.202   8.840   3.903
  188POPC   PO4 2679   9.767   8.574   3.835
  188POPC   GL1 2680   9.711   8.815   4.191
  188POPC   GL2 2681   9.447   8.618   4.307
  188POPC   C1A 2682   9.761   8.778   4.656
  188POPC   D2A 2683   9.601   8.817   5.077
  188POPC   C3A 2684   9.849   8.848   5.437
  188POPC   C4A 2685   9.755   8.919   5.859
  188POPC   C1B 2686   9.225   8.772   4.710
  188POPC   C2B 2687   9.114   8.684   5.142
  188POPC   C3B 2688   9.288   8.713   5.576
  188POPC   C4B 2689   8.978   8.672   5.906
  189POPC   NC3 2690   3.641  10.101   3.760
  189POPC   PO4 2691   2.976   9.712   3.882
  189POPC   GL1 2692   3.156   9.758   4.268
  189POPC   GL2 2693   3.409   9.984   4.197
  189POPC   C1A 2694   2.998   9.850   4.693
  189POPC   D2A 2695   3.081  10.079   5.073
  189POPC   C3A 2696   3.018   9.874   5.473
  189POPC   C4A 2697   3.220   9.819   5.874
  189POPC   C1B 2698   3.428  10.124   4.630
  189POPC   C2B 2699   3.603  10.051   5.065
  189POPC   C3B 2700   3.494  10.164   5.503
  189POPC   C4B 2701   3.822   0.008   5.727
  190POPC   NC3 2702   8.339   9.345   3.907
  190POPC   PO4 2703   8.385  10.028   3.983
  190POPC   GL1 2704   8.410   9.605   4.301
  190POPC   GL2 2705   8.709   9.254   4.273
  190POPC   C1A 2706   8.455   9.361   4.672
  190POPC   D2A 2707   8.607   9.190   5.054
  190POPC   C3A 2708   8.748   9.477   5.304
  190POPC   C4A 2709   8.695   9.429   5.695
  190POPC   C1B 2710   8.956   9.223   4.665
  190POPC   C2B 2711   9.145   9.200   5.086
  190POPC   C3B 2712   9.099   9.186   5.542
  190POPC   C4B 2713   9.157   9.536   5.874
  191POPC   NC3 2714   2.610   0.457   3.854
  191POPC   PO4 2715   3.108   0.823   3.760
  191POPC   GL1 2716   2.774   0.790   4.180
  191POPC   GL2 2717   2.829   0.439   4.302
  191POPC   C1A 2718   2.729   0.777   4.675
  191POPC   D2A 2719   2.551   0.921   5.072
  191POPC   C3A 2720   2.700   0.779   5.403
  191POPC   C4A 2721   2.648   0.580   5.760
  191POPC   C1B 2722   2.537   0.288   4.611
  191POPC   C2B 2723   2.451   0.410   5.021
  191POPC   C3B 2724   2.459   0.271   5.417
  191POPC   C4B 2725   2.599   0.075   5.762
  192POPC   NC3 2726   8.778   6.529   3.886
  192POPC   PO4 2727   8.152   6.775   3.975
  192POPC   GL1 2728   8.483   6.646   4.293
  192POPC   GL2 2729   8.543   6.292   4.281
  192POPC   C1A 2730   8.461   6.609   4.743
  192POPC   D2A 2731   8.746   6.545   5.104
  192POPC   C3A 2732   8.743   6.746   5.538
  192POPC   C4A 2733   8.920   6.693   5.976
  192POPC   C1B 2734   8.741   6.117   4.666
  192POPC   C2B 2735   8.806   5.994   5.094
  192POPC   C3B 2736   8.756   6.206   5.485
  192POPC   C4B 2737   8.479   6.388   5.798
  193POPC   NC3 2738   9.737   8.081   3.858
  193POPC   PO4 2739   9.035   8.222   3.971
  193POPC   GL1 2740   9.222   8.169   4.344
  193POPC   GL2 2741   9.550   8.069   4.338
  193POPC   C1A 2742   9.467   8.335   4.752
  193POPC   D2A 2743   9.590   8.085   5.103
  193POPC   C3A 2744   9.422   8.217   5.498
  193POPC   C4A 2745   9.208   8.199   5.897
  193POPC   C1B 2746   9.337   7.851   4.709
  193POPC   C2B 2747   9.321   7.647   5.114
  193POPC   C3B 2748   9.554   7.711   5.518
  193POPC   C4B 2749   9.851   7.695   5.886
  194POPC   NC3 2750   1.184   2.926   3.977
  194POPC   PO4 2751   1.094   2.269   3.714
  194POPC   GL1 2752   1.263   2.300   4.178
  194POPC   GL2 2753   1.098   2.577   4.317
  194POPC   C1A 2754   1.211   2.288   4.688
  194POPC   D2A 2755   1.347   2.475   5.080
  194POPC   C3A 2756   1.179   2.438   5.530
  194POPC   C4A 2757   1.372   2.411   5.961
  194POPC   C1B 2758   1.031   2.790   4.721
  194POPC   C2B 2759   0.930   2.755   5.144
  194POPC   C3B 2760   1.073   2.932   5.548
  194POPC   C4B 2761   0.873   3.072   5.868
  195POPC   NC3 2762   6.600   1.026   3.474
  195POPC   PO4 2763   7.185   1.066   3.864
  195POPC   GL1 2764   7.181   0.999   4.255
  195POPC   GL2 2765   7.138   1.321   4.424
  195POPC   C1A 2766   7.004   0.784   4.620
  195POPC   D2A 2767   7.058   0.975   4.994
  195POPC   C3A 2768   7.026   0.690   5.282
  195POPC   C4A 2769   6.895   0.732   5.684
  195POPC   C1B 2770   7.451   1.050   4.661
  195POPC   C2B 2771   7.550   0.924   5.099
  195POPC   C3B 2772   7.297   1.142   5.438
  195POPC   C4B 2773   7.003   1.297   5.737
  196POPC   NC3 2774   1.869   1.234   3.931
  196POPC   PO4 2775   2.414   1.541   3.804
  196POPC   GL1 2776   2.240   1.477   4.247
  196POPC   GL2 2777   2.209   1.098   4.309
  196POPC   C1A 2778   2.037   1.383   4.680
  196POPC   D2A 2779   2.101   1.137   5.045
  196POPC   C3A 2780   2.098   1.402   5.393
  196POPC   C4A 2781   2.116   1.414   5.839
  196POPC   C1B 2782   1.814   0.952   4.585
  196POPC   C2B 2783   1.630   0.960   5.048
  196POPC   C3B 2784   1.781   1.009   5.499
  196POPC   C4B 2785   1.933   0.957   5.952
  197POPC   NC3 2786   3.357   9.224   4.055
  197POPC   PO4 2787   4.076   9.147   4.051
  197POPC   GL1 2788   3.747   9.166   4.371
  197POPC   GL2 2789   3.634   9.533   4.347
  197POPC   C1A 2790   3.721   9.175   4.829
  197POPC   D2A 2791   3.676   9.194   5.270
  197POPC   C3A 2792   3.837   9.597   5.395
  197POPC   C4A 2793   3.701   9.770   5.765
  197POPC   C1B 2794   3.367   9.514   4.691
  197POPC   C2B 2795   3.351   9.632   5.112
  197POPC   C3B 2796   3.344   9.495   5.504
  197POPC   C4B 2797   3.014   9.369   5.736
  198POPC   NC3 2798   8.417  10.197   3.529
  198POPC   PO4 2799   7.753  10.192   3.809
  198POPC   GL1 2800   7.958  10.216   4.221
  198POPC   GL2 2801   7.654  10.393   4.322
  198POPC   C1A 2802   8.203  10.233   4.597
  198POPC   D2A 2803   8.187   9.948   4.947
  198POPC   C3A 2804   8.097  10.125   5.363
  198POPC   C4A 2805   8.075  10.418   5.723
  198POPC   C1B 2806   7.732  10.052   4.623
  198POPC   C2B 2807   7.654  10.015   5.046
  198POPC   C3B 2808   7.557  10.263   5.392
  198POPC   C4B 2809   7.726  10.042   5.735
  199POPC   NC3 2810   4.910   1.871   3.775
  199POPC   PO4 2811   4.483   2.255   3.935
  199POPC   GL1 2812   4.712   1.940   4.255
  199POPC   GL2 2813   5.010   1.697   4.269
  199POPC   C1A 2814   4.645   1.680   4.653
  199POPC   D2A 2815   4.765   1.804   5.082
  199POPC   C3A 2816   4.830   1.658   5.503
  199POPC   C4A 2817   4.757   1.890   5.897
  199POPC   C1B 2818   5.181   1.720   4.706
  199POPC   C2B 2819   5.237   2.005   5.088
  199POPC   C3B 2820   5.023   2.134   5.478
  199POPC   C4B 2821   5.161   2.269   5.885
  200POPC   NC3 2822   2.517   1.975   4.107
  200POPC   PO4 2823   2.055   2.235   3.689
  200POPC   GL1 2824   1.887   2.266   4.134
  200POPC   GL2 2825   2.011   1.963   4.268
  200POPC   C1A 2826   1.705   2.307   4.563
  200POPC   D2A 2827   1.824   2.234   5.026
  200POPC   C3A 2828   1.664   2.332   5.451
  200POPC   C4A 2829   1.465   2.019   5.681
  200POPC   C1B 2830   1.893   1.858   4.685
  200POPC   C2B 2831   1.805   1.699   5.108
  200POPC   C3B 2832   1.933   1.857   5.551
  200POPC   C4B 2833   1.754   1.723   5.985
  201POPC   NC3 2834   3.002   3.515   4.031
  201POPC   PO4 2835   2.418   3.130   3.898
  201POPC   GL1 2836   2.357   3.294   4.293
  201POPC   GL2 2837   2.720   3.292   4.430
  201POPC   C1A 2838   2.299   3.441   4.704
  201POPC   D2A 2839   2.608   3.344   5.027
  201POPC   C3A 2840   2.528   3.317   5.437
  201POPC   C4A 2841   2.830   3.266   5.790
  201POPC   C1B 2842   2.722   3.713   4.706
  201POPC   C2B 2843   2.562   3.849   5.167
  201POPC   C3B 2844   2.626   3.762   5.666
  201POPC   C4B 2845   2.888   3.705   6.071
  202POPC   NC3 2846   5.229   9.364   3.890
  202POPC   PO4 2847   4.661   9.719   3.985
  202POPC   GL1 2848   4.843   9.660   4.389
  202POPC   GL2 2849   5.152   9.505   4.362
  202POPC   C1A 2850   4.950   9.553   4.818
  202POPC   D2A 2851   4.642   9.504   5.076
  202POPC   C3A 2852   4.705   9.454   5.499
  202POPC   C4A 2853   4.634   9.112   5.753
  202POPC   C1B 2854   5.270   9.183   4.684
  202POPC   C2B 2855   5.120   9.058   5.128
  202POPC   C3B 2856   5.121   9.134   5.594
  202POPC   C4B 2857   5.199   9.070   6.062
  203POPC   NC3 2858   9.180   2.660   3.907
  203POPC   PO4 2859   9.439   2.103   3.710
  203POPC   GL1 2860   9.472   2.295   4.150
  203POPC   GL2 2861   9.385   2.592   4.350
  203POPC   C1A 2862   9.425   2.185   4.613
  203POPC   D2A 2863   9.387   2.253   5.064
  203POPC   C3A 2864   9.781   2.381   5.288
  203POPC   C4A 2865   9.757   2.336   5.759
  203POPC   C1B 2866   9.579   2.638   4.750
  203POPC   C2B 2867   9.440   2.764   5.128
  203POPC   C3B 2868   9.424   2.629   5.523
  203POPC   C4B 2869   9.419   2.735   5.903
  204POPC   NC3 2870   2.241   5.120   4.079
  204POPC   PO4 2871   1.601   4.920   3.987
  204POPC   GL1 2872   1.733   5.163   4.322
  204POPC   GL2 2873   1.939   4.872   4.404
  204POPC   C1A 2874   1.701   5.435   4.737
  204POPC   D2A 2875   1.884   5.432   5.162
  204POPC   C3A 2876   1.639   5.416   5.555
  204POPC   C4A 2877   1.814   5.130   5.890
  204POPC   C1B 2878   2.060   5.053   4.798
  204POPC   C2B 2879   2.219   4.930   5.197
  204POPC   C3B 2880   2.085   4.833   5.563
  204POPC   C4B 2881   2.208   4.466   5.737
  205POPC   NC3 2882   2.231   5.752   3.645
  205POPC   PO4 2883   1.633   5.736   3.892
  205POPC   GL1 2884   1.977   5.575   4.129
  205POPC   GL2 2885   2.157   5.877   4.158
  205POPC   C1A 2886   2.169   5.534   4.566
  205POPC   D2A 2887   2.140   5.784   4.915
  205POPC   C3A 2888   2.269   5.755   5.370
  205POPC   C4A 2889   2.165   5.355   5.586
  205POPC   C1B 2890   1.813   5.904   4.500
  205POPC   C2B 2891   1.703   6.027   4.906
  205POPC   C3B 2892   1.783   5.928   5.334
  205POPC   C4B 2893   1.932   5.811   5.745
  206POPC   NC3 2894   5.829   0.702   4.022
  206POPC   PO4 2895   6.006   0.062   3.981
  206POPC   GL1 2896   5.781   0.050   4.367
  206POPC   GL2 2897   5.847   0.407   4.437
  206POPC   C1A 2898   5.804   0.081   4.815
  206POPC   D2A 2899   5.532   0.124   5.164
  206POPC   C3A 2900   5.672   0.322   5.536
  206POPC   C4A 2901   6.082   0.355   5.666
  206POPC   C1B 2902   5.524   0.491   4.747
  206POPC   C2B 2903   5.577   0.656   5.144
  206POPC   C3B 2904   5.405   0.811   5.536
  206POPC   C4B 2905   5.439   0.633   5.912
  207POPC   NC3 2906   6.595   1.339   3.936
  207POPC   PO4 2907   6.622   0.710   3.838
  207POPC   GL1 2908   6.670   0.998   4.269
  207POPC   GL2 2909   6.335   1.169   4.362
  207POPC   C1A 2910   6.704   1.196   4.690
  207POPC   D2A 2911   6.551   0.951   5.040
  207POPC   C3A 2912   6.594   1.124   5.478
  207POPC   C4A 2913   6.526   1.553   5.683
  207POPC   C1B 2914   6.199   1.308   4.760
  207POPC   C2B 2915   6.305   1.415   5.181
  207POPC   C3B 2916   6.078   1.309   5.563
  207POPC   C4B 2917   6.209   1.281   5.997
  208POPC   NC3 2918   6.936   3.158   3.613
  208POPC   PO4 2919   6.790   2.688   4.004
  208POPC   GL1 2920   7.108   2.661   4.320
  208POPC   GL2 2921   7.182   2.293   4.311
  208POPC   C1A 2922   7.220   2.937   4.692
  208POPC   D2A 2923   7.184   3.156   5.094
  208POPC   C3A 2924   7.248   2.991   5.518
  208POPC   C4A 2925   7.249   3.058   5.983
  208POPC   C1B 2926   7.301   2.441   4.736
  208POPC   C2B 2927   7.234   2.637   5.113
  208POPC   C3B 2928   7.437   2.522   5.449
  208POPC   C4B 2929   7.346   2.571   5.830
  209POPC   NC3 2930   9.861   3.794   3.620
  209POPC   PO4 2931  10.362   4.107   3.874
  209POPC   GL1 2932  10.188   4.194   4.250
  209POPC   GL2 2933  10.314   4.440   4.375
  209POPC   C1A 2934   9.923   4.187   4.616
  209POPC   D2A 2935   9.709   4.321   4.993
  209POPC   C3A 2936   9.925   4.088   5.289
  209POPC   C4A 2937  10.015   4.091   5.670
  209POPC   C1B 2938  10.438   4.088   4.675
  209POPC   C2B 2939  10.387   3.934   5.088
  209POPC   C3B 2940  10.417   4.254   5.400
  209POPC   C4B 2941  10.381   4.414   5.786
  210POPC   NC3 2942   7.765   3.371   4.131
  210POPC   PO4 2943   8.224   3.742   4.025
  210POPC   GL1 2944   8.109   3.584   4.446
  210POPC   GL2 2945   8.092   3.201   4.510
  210POPC   C1A 2946   8.181   3.547   4.903
  210POPC   D2A 2947   8.133   3.181   5.177
  210POPC   C3A 2948   8.076   3.291   5.626
  210POPC   C4A 2949   7.987   3.614   5.955
  210POPC   C1B 2950   7.739   3.309   4.828
  210POPC   C2B 2951   7.635   3.323   5.306
  210POPC   C3B 2952   7.539   3.447   5.749
  210POPC   C4B 2953   7.641   3.309   6.189
  211POPC   NC3 2954   0.332   8.915   3.980
  211POPC   PO4 2955   0.597   8.323   3.973
  211POPC   GL1 2956   0.532   8.520   4.328
  211POPC   GL2 2957   0.193   8.621   4.366
  211POPC   C1A 2958   0.447   8.376   4.727
  211POPC   D2A 2959   0.472   8.089   5.039
  211POPC   C3A 2960   0.415   8.297   5.415
  211POPC   C4A 2961   0.512   8.567   5.754
  211POPC   C1B 2962   0.435   8.921   4.644
  211POPC   C2B 2963   0.448   9.086   5.043
  211POPC   C3B 2964   0.330   8.881   5.401
  211POPC   C4B 2965   0.168   8.954   5.802
  212POPC   NC3 2966   2.346   6.770   3.880
  212POPC   PO4 2967   1.699   6.731   3.956
  212POPC   GL1 2968   1.780   6.813   4.377
  212POPC   GL2 2969   2.085   6.616   4.356
  212POPC   C1A 2970   1.777   6.645   4.799
  212POPC   D2A 2971   1.710   6.442   5.182
  212POPC   C3A 2972   1.733   6.618   5.569
  212POPC   C4A 2973   1.843   6.384   5.968
  212POPC   C1B 2974   2.130   6.270   4.675
  212POPC   C2B 2975   2.174   6.233   5.126
  212POPC   C3B 2976   2.106   6.260   5.554
  212POPC   C4B 2977   2.356   6.400   5.890
  213POPC   NC3 2978  10.141   4.521   3.859
  213POPC   PO4 2979  10.022   5.209   3.750
  213POPC   GL1 2980   9.974   4.915   4.145
  213POPC   GL2 2981  10.288   4.940   4.233
  213POPC   C1A 2982   9.973   4.706   4.607
  213POPC   D2A 2983  10.198   4.464   4.975
  213POPC   C3A 2984  10.017   4.575   5.400
  213POPC   C4A 2985   9.881   4.545   5.850
  213POPC   C1B 2986  10.224   5.148   4.629
  213POPC   C2B 2987  10.167   4.971   5.037
  213POPC   C3B 2988  10.075   5.070   5.464
  213POPC   C4B 2989  10.212   4.911   5.832
  214POPC   NC3 2990   3.358   2.582   3.738
  214POPC   PO4 2991   3.203   3.120   4.088
  214POPC   GL1 2992   3.518   2.794   4.238
  214POPC   GL2 2993   3.293   2.553   4.294
  214POPC   C1A 2994   3.728   2.703   4.678
  214POPC   D2A 2995   3.724   2.935   5.088
  214POPC   C3A 2996   3.796   2.806   5.534
  214POPC   C4A 2997   3.634   2.666   5.948
  214POPC   C1B 2998   3.261   2.861   4.683
  214POPC   C2B 2999   3.211   2.829   5.127
  214POPC   C3B 3000   3.196   2.616   5.543
  214POPC   C4B 3001   3.147   2.850   5.940
  215POPC   NC3 3002   1.553   8.772   3.821
  215POPC   PO4 3003   2.138   9.180   3.845
  215POPC   GL1 3004   2.020   8.914   4.196
  215POPC   GL2 3005   1.784   8.628   4.255
  215POPC   C1A 3006   2.044   8.837   4.644
  215POPC   D2A 3007   1.885   8.696   5.051
  215POPC   C3A 3008   2.097   8.741   5.425
  215POPC   C4A 3009   2.306   8.819   5.782
  215POPC   C1B 3010   1.682   8.431   4.657
  215POPC   C2B 3011   1.677   8.172   5.014
  215POPC   C3B 3012   1.892   8.225   5.379
  215POPC   C4B 3013   2.052   8.357   5.767
  216POPC   NC3 3014   0.509   9.491   3.677
  216POPC   PO4 3015  10.414   9.020   3.770
  216POPC   GL1 3016  10.479   9.139   4.261
  216POPC   GL2 3017   0.330   9.301   4.317
  216POPC   C1A 3018   0.017   9.244   4.735
  216POPC   D2A 3019   0.172   9.558   5.054
  216POPC   C3A 3020   0.286   9.386   5.454
  216POPC   C4A 3021   0.020   9.523   5.776
  216POPC   C1B 3022   0.527   9.470   4.706
  216POPC   C2B 3023   0.693   9.533   5.157
  216POPC   C3B 3024   0.668   9.727   5.642
  216POPC   C4B 3025   0.775   9.677   6.136
  217POPC   NC3 3026   4.156   7.901   3.895
  217POPC   PO4 3027   3.657   8.276   3.877
  217POPC   GL1 3028   3.827   8.074   4.280
  217POPC   GL2 3029   4.191   7.961   4.404
  217POPC   C1A 3030   3.798   7.828   4.692
  217POPC   D2A 3031   3.796   8.047   5.105
  217POPC   C3A 3032   3.937   7.839   5.496
  217POPC   C4A 3033   4.182   7.751   5.877
  217POPC   C1B 3034   4.399   8.131   4.817
  217POPC   C2B 3035   4.371   8.022   5.265
  217POPC   C3B 3036   4.645   7.892   5.633
  217POPC   C4B 3037   4.783   7.686   6.023
  218POPC   NC3 3038   0.605   7.050   4.027
  218POPC   PO4 3039   0.053   7.096   3.666
  218POPC   GL1 3040   0.154   7.123   4.211
  218POPC   GL2 3041   0.408   7.412   4.336
  218POPC   C1A 3042   0.164   7.147   4.702
  218POPC   D2A 3043   0.411   7.320   5.068
  218POPC   C3A 3044   0.309   7.368   5.514
  218POPC   C4A 3045   0.288   7.430   5.973
  218POPC   C1B 3046   0.689   7.166   4.658
  218POPC   C2B 3047   0.871   7.038   5.044
  218POPC   C3B 3048   0.813   7.274   5.398
  218POPC   C4B 3049   0.673   7.142   5.789
  219POPC   NC3 3050   0.896   0.559   4.228
  219POPC   PO4 3051   0.318   0.340   3.878
  219POPC   GL1 3052   0.426   0.371   4.265
  219POPC   GL2 3053   0.159   0.583   4.316
  219POPC   C1A 3054   0.474   0.503   4.722
  219POPC   D2A 3055   0.741   0.406   5.050
  219POPC   C3A 3056   0.773   0.681   5.393
  219POPC   C4A 3057   0.719   0.457   5.775
  219POPC   C1B 3058   0.095   0.199   4.604
  219POPC   C2B 3059   0.076   0.321   5.030
  219POPC   C3B 3060   0.342   0.372   5.365
  219POPC   C4B 3061   0.186   0.316   5.730
  220POPC   NC3 3062   6.448   2.801   4.294
  220POPC   PO4 3063   6.113   2.319   4.045
  220POPC   GL1 3064   6.342   2.273   4.430
  220POPC   GL2 3065   6.686   2.380   4.423
  220POPC   C1A 3066   6.338   2.387   4.877
  220POPC   D2A 3067   6.429   2.755   5.144
  220POPC   C3A 3068   6.366   2.671   5.593
  220POPC   C4A 3069   6.258   2.875   6.006
  220POPC   C1B 3070   6.816   2.566   4.796
  220POPC   C2B 3071   6.797   2.420   5.205
  220POPC   C3B 3072   6.874   2.604   5.614
  220POPC   C4B 3073   6.656   2.552   6.022
  221POPC   NC3 3074   1.745   8.150   4.049
  221POPC   PO4 3075   1.583   7.521   3.985
  221POPC   GL1 3076   2.006   7.738   4.207
  221POPC   GL2 3077   2.006   8.068   4.455
  221POPC   C1A 3078   2.259   7.673   4.636
  221POPC   D2A 3079   2.199   7.924   5.013
  221POPC   C3A 3080   2.128   7.709   5.400
  221POPC   C4A 3081   2.148   7.423   5.742
  221POPC   C1B 3082   1.752   7.782   4.667
  221POPC   C2B 3083   1.745   7.589   5.054
  221POPC   C3B 3084   1.624   7.648   5.464
  221POPC   C4B 3085   1.816   7.893   5.771
  222POPC   NC3 3086   1.077   7.781   3.883
  222POPC   PO4 3087   1.371   8.406   4.017
  222POPC   GL1 3088   1.323   8.213   4.369
  222POPC   GL2 3089   1.396   7.880   4.277
  222POPC   C1A 3090   1.179   8.263   4.787
  222POPC   D2A 3091   0.964   8.205   5.177
  222POPC   C3A 3092   1.290   8.253   5.486
  222POPC   C4A 3093   1.535   8.300   5.875
  222POPC   C1B 3094   1.244   7.774   4.631
  222POPC   C2B 3095   1.293   7.819   5.042
  222POPC   C3B 3096   1.113   7.776   5.406
  222POPC   C4B 3097   1.285   7.854   5.788
  223POPC   NC3 3098   0.223   7.923   3.917
  223POPC   PO4 3099   0.734   7.824   3.583
  223POPC   GL1 3100   0.662   7.848   4.156
  223POPC   GL2 3101   0.352   8.002   4.384
  223POPC   C1A 3102   0.766   7.924   4.634
  223POPC   D2A 3103   0.807   7.637   4.998
  223POPC   C3A 3104   0.609   7.772   5.398
  223POPC   C4A 3105   0.781   8.092   5.692
  223POPC   C1B 3106   0.255   7.717   4.748
  223POPC   C2B 3107   0.091   7.725   5.183
  223POPC   C3B 3108   0.149   7.835   5.630
  223POPC   C4B 3109   0.131   8.222   5.847
  224POPC   NC3 3110  10.176   3.729   4.063
  224POPC   PO4 3111   9.784   3.325   3.644
  224POPC   GL1 3112   9.856   3.260   4.139
  224POPC   GL2 3113  10.194   3.219   4.253
  224POPC   C1A 3114   9.916   3.428   4.623
  224POPC   D2A 3115  10.163   3.415   5.044
  224POPC   C3A 3116  10.015   3.575   5.478
  224POPC   C4A 3117   9.956   3.686   5.951
  224POPC   C1B 3118  10.435   3.088   4.614
  224POPC   C2B 3119  10.466   2.986   5.041
  224POPC   C3B 3120  10.283   3.081   5.441
  224POPC   C4B 3121  10.251   3.254   5.839
  225POPC   NC3 3122   1.859   0.505   3.964
  225POPC   PO4 3123   2.349   0.850   3.870
  225POPC   GL1 3124   2.285   0.587   4.265
  225POPC   GL2 3125   1.926   0.456   4.446
  225POPC   C1A 3126   2.243   0.737   4.691
  225POPC   D2A 3127   1.944   0.561   4.950
  225POPC   C3A 3128   2.098   0.627   5.342
  225POPC   C4A 3129   2.141   0.531   5.770
  225POPC   C1B 3130   1.627   0.178   4.672
  225POPC   C2B 3131   1.684   0.106   5.087
  225POPC   C3B 3132   1.616   0.466   5.337
  225POPC   C4B 3133   1.619   0.595   5.751
  226POPC   NC3 3134   7.299   1.531   3.980
  226POPC   PO4 3135   7.889   1.578   3.988
  226POPC   GL1 3136   7.632   1.571   4.366
  226POPC   GL2 3137   7.344   1.814   4.383
  226POPC   C1A 3138   7.516   1.549   4.776
  226POPC   D2A 3139   7.604   1.785   5.107
  226POPC   C3A 3140   7.312   1.697   5.420
  226POPC   C4A 3141   7.200   1.757   5.825
  226POPC   C1B 3142   7.174   1.941   4.770
  226POPC   C2B 3143   7.234   2.135   5.159
  226POPC   C3B 3144   7.047   2.144   5.556
  226POPC   C4B 3145   7.016   2.199   6.000
  227POPC   NC3 3146   7.875   7.981   3.934
  227POPC   PO4 3147   8.403   7.563   4.024
  227POPC   GL1 3148   8.148   7.625   4.357
  227POPC   GL2 3149   7.878   7.872   4.424
  227POPC   C1A 3150   8.067   7.561   4.779
  227POPC   D2A 3151   8.165   7.806   5.143
  227POPC   C3A 3152   8.113   7.597   5.540
  227POPC   C4A 3153   7.921   7.574   5.924
  227POPC   C1B 3154   7.640   7.826   4.798
  227POPC   C2B 3155   7.697   8.009   5.185
  227POPC   C3B 3156   7.654   7.905   5.613
  227POPC   C4B 3157   7.757   8.103   6.008
  228POPC   NC3 3158   4.338   2.680   3.910
  228POPC   PO4 3159   3.779   2.291   3.872
  228POPC   GL1 3160   3.790   2.331   4.298
  228POPC   GL2 3161   4.064   2.536   4.323
  228POPC   C1A 3162   3.921   2.241   4.729
  228POPC   D2A 3163   3.997   2.498   5.091
  228POPC   C3A 3164   4.170   2.438   5.444
  228POPC   C4A 3165   4.097   2.492   5.839
  228POPC   C1B 3166   4.279   2.657   4.712
  228POPC   C2B 3167   4.365   2.852   5.145
  228POPC   C3B 3168   4.323   2.905   5.603
  228POPC   C4B 3169   4.556   2.890   6.018
  229POPC   NC3 3170   9.661   5.386   4.002
  229POPC   PO4 3171   9.139   5.118   3.665
  229POPC   GL1 3172   9.238   4.951   4.168
  229POPC   GL2 3173   9.516   5.039   4.315
  229POPC   C1A 3174   9.170   5.071   4.663
  229POPC   D2A 3175   9.333   5.314   5.055
  229POPC   C3A 3176   9.219   5.142   5.505
  229POPC   C4A 3177   9.084   5.163   5.958
  229POPC   C1B 3178   9.691   5.129   4.715
  229POPC   C2B 3179   9.667   4.900   5.121
  229POPC   C3B 3180   9.531   4.733   5.526
  229POPC   C4B 3181   9.446   4.772   5.991
  230POPC   NC3 3182   7.935   7.192   3.926
  230POPC   PO4 3183   7.475   7.681   3.963
  230POPC   GL1 3184   7.616   7.448   4.362
  230POPC   GL2 3185   7.909   7.202   4.424
  230POPC   C1A 3186   7.603   7.313   4.812
  230POPC   D2A 3187   7.748   7.484   5.213
  230POPC   C3A 3188   7.527   7.406   5.628
  230POPC   C4A 3189   7.560   7.205   6.059
  230POPC   C1B 3190   8.087   7.015   4.795
  230POPC   C2B 3191   8.021   6.900   5.273
  230POPC   C3B 3192   7.957   7.066   5.734
  230POPC   C4B 3193   8.065   7.158   6.200
  231POPC   NC3 3194  10.475   6.275   3.980
  231POPC   PO4 3195   9.919   6.021   4.032
  231POPC   GL1 3196  10.097   6.304   4.317
  231POPC   GL2 3197  10.178   6.663   4.246
  231POPC   C1A 3198  10.255   6.234   4.717
  231POPC   D2A 3199  10.066   6.328   5.105
  231POPC   C3A 3200  10.244   6.084   5.436
  231POPC   C4A 3201  10.227   6.171   5.833
  231POPC   C1B 3202  10.333   6.738   4.704
  231POPC   C2B 3203  10.432   6.688   5.159
  231POPC   C3B 3204  10.143   6.596   5.554
  231POPC   C4B 3205   9.926   6.516   5.989
  232POPC   NC3 3206   5.619  10.302   3.940
  232POPC   PO4 3207   5.913   9.735   3.904
  232POPC   GL1 3208   5.877   9.993   4.267
  232POPC   GL2 3209   5.516   9.975   4.310
  232POPC   C1A 3210   5.794  10.072   4.717
  232POPC   D2A 3211   5.863  10.193   5.136
  232POPC   C3A 3212   6.057   9.985   5.475
  232POPC   C4A 3213   5.814  10.304   5.663
  232POPC   C1B 3214   5.215   9.966   4.631
  232POPC   C2B 3215   5.366  10.013   5.028
  232POPC   C3B 3216   5.516   9.939   5.417
  232POPC   C4B 3217   5.242   9.873   5.772
  233POPC   NC3 3218   0.511  10.409   3.881
  233POPC   PO4 3219   0.353   9.735   4.043
  233POPC   GL1 3220   0.397   9.979   4.358
  233POPC   GL2 3221   0.273  10.310   4.307
  233POPC   C1A 3222   0.478   9.986   4.776
  233POPC   D2A 3223   0.536   9.998   5.208
  233POPC   C3A 3224   0.217   9.882   5.468
  233POPC   C4A 3225   0.229  10.083   5.812
  233POPC   C1B 3226   0.570  10.470   4.598
  233POPC   C2B 3227   0.423  10.469   5.004
  233POPC   C3B 3228   0.257  10.391   5.400
  233POPC   C4B 3229   0.551  10.477   5.698
  234POPC   NC3 3230  10.461   9.992   4.029
  234POPC   PO4 3231  10.261   0.039   3.977
  234POPC   GL1 3232  10.260  10.340   4.369
  234POPC   GL2 3233  10.076  10.055   4.459
  234POPC   C1A 3234  10.231  10.393   4.800
  234POPC   D2A 3235  10.034   0.077   5.104
  234POPC   C3A 3236  10.295   0.178   5.433
  234POPC   C4A 3237  10.381  10.449   5.816
  234POPC   C1B 3238  10.448   9.901   4.669
  234POPC   C2B 3239   0.047  10.076   5.039
  234POPC   C3B 3240  10.303  10.170   5.387
  234POPC   C4B 3241  10.146  10.018   5.796
  235POPC   NC3 3242   3.472   0.584   4.006
  235POPC   PO4 3243   3.343  10.439   3.822
  235POPC   GL1 3244   3.543   0.060   4.221
  235POPC   GL2 3245   3.319   0.263   4.370
  235POPC   C1A 3246   3.694   0.090   4.706
  235POPC   D2A 3247   3.706   0.021   5.204
  235POPC   C3A 3248   3.405   0.174   5.534
  235POPC   C4A 3249   3.510   0.323   5.967
  235POPC   C1B 3250   3.061   0.262   4.726
  235POPC   C2B 3251   2.960   0.499   5.055
  235POPC   C3B 3252   2.967   0.369   5.447
  235POPC   C4B 3253   3.162   0.617   5.742
  236POPC   NC3 3254   9.695   6.370   3.825
  236POPC   PO4 3255   9.158   6.619   4.125
  236POPC   GL1 3256   9.608   6.566   4.279
  236POPC   GL2 3257   9.592   6.212   4.418
  236POPC   C1A 3258   9.839   6.568   4.658
  236POPC   D2A 3259   9.541   6.681   4.949
  236POPC   C3A 3260   9.645   6.529   5.327
  236POPC   C4A 3261   9.656   6.760   5.659
  236POPC   C1B 3262   9.605   6.186   4.912
  236POPC   C2B 3263   9.208   6.321   5.165
  236POPC   C3B 3264   9.213   6.424   5.596
  236POPC   C4B 3265   9.604   6.207   5.720
  237POPC   NC3 3266   1.197   4.612   3.945
  237POPC   PO4 3267   0.878   5.198   3.898
  237POPC   GL1 3268   1.165   4.986   4.301
  237POPC   GL2 3269   1.440   4.693   4.393
  237POPC   C1A 3270   1.080   4.800   4.753
  237POPC   D2A 3271   0.972   5.051   5.129
  237POPC   C3A 3272   1.072   4.945   5.569
  237POPC   C4A 3273   1.319   5.140   5.925
  237POPC   C1B 3274   1.549   4.955   4.736
  237POPC   C2B 3275   1.483   5.116   5.141
  237POPC   C3B 3276   1.571   4.887   5.517
  237POPC   C4B 3277   1.370   4.531   5.722
  238POPC   NC3 3278   8.617   8.392   4.029
  238POPC   PO4 3279   8.346   8.937   4.090
  238POPC   GL1 3280   8.586   8.751   4.397
  238POPC   GL2 3281   8.933   8.657   4.323
  238POPC   C1A 3282   8.711   8.779   4.795
  238POPC   D2A 3283   8.594   8.607   5.168
  238POPC   C3A 3284   8.704   8.873   5.468
  238POPC   C4A 3285   8.564   8.982   5.852
  238POPC   C1B 3286   8.920   8.339   4.688
  238POPC   C2B 3287   9.069   8.171   5.087
  238POPC   C3B 3288   8.908   8.354   5.497
  238POPC   C4B 3289   8.516   8.463   5.745
  239POPC   NC3 3290   7.216   8.072   3.889
  239POPC   PO4 3291   6.980   8.755   3.847
  239POPC   GL1 3292   6.985   8.701   4.286
  239POPC   GL2 3293   7.162   8.439   4.309
  239POPC   C1A 3294   6.996   8.884   4.702
  239POPC   D2A 3295   7.204   8.917   5.109
  239POPC   C3A 3296   6.968   8.638   5.357
  239POPC   C4A 3297   6.820   8.566   5.758
  239POPC   C1B 3298   7.464   8.702   4.594
  239POPC   C2B 3299   7.713   8.775   4.992
  239POPC   C3B 3300   7.601   8.873   5.454
  239POPC   C4B 3301   7.321   8.636   5.744
  240POPC   NC3 3302   4.285   0.968   3.814
  240POPC   PO4 3303   3.835   1.494   3.904
  240POPC   GL1 3304   3.984   1.191   4.185
  240POPC   GL2 3305   4.302   1.174   4.265
  240POPC   C1A 3306   3.987   1.274   4.649
  240POPC   D2A 3307   4.281   1.311   5.010
  240POPC   C3A 3308   4.177   1.189   5.446
  240POPC   C4A 3309   4.068   1.300   5.871
  240POPC   C1B 3310   4.274   0.874   4.586
  240POPC   C2B 3311   4.214   0.791   4.991
  240POPC   C3B 3312   4.237   0.678   5.394
  240POPC   C4B 3313   4.389   0.802   5.771
  241POPC   NC3 3314   9.939   9.219   3.909
  241POPC   PO4 3315  10.007   9.906   3.995
  241POPC   GL1 3316   9.835   9.609   4.249
  241POPC   GL2 3317  10.190   9.556   4.346
  241POPC   C1A 3318   9.820   9.682   4.695
  241POPC   D2A 3319  10.159   9.568   4.968
  241POPC   C3A 3320  10.209   9.672   5.402
  241POPC   C4A 3321   9.970   9.559   5.792
  241POPC   C1B 3322  10.009   9.219   4.578
  241POPC   C2B 3323  10.073   9.044   4.978
  241POPC   C3B 3324  10.350   9.178   5.274
  241POPC   C4B 3325  10.211   9.144   5.673
  242POPC   NC3 3326   6.317   7.771   3.983
  242POPC   PO4 3327   6.306   8.409   4.100
  242POPC   GL1 3328   6.627   8.335   4.358
  242POPC   GL2 3329   6.525   8.019   4.389
  242POPC   C1A 3330   6.837   8.395   4.725
  242POPC   D2A 3331   6.947   8.143   5.073
  242POPC   C3A 3332   6.705   8.180   5.426
  242POPC   C4A 3333   6.721   8.076   5.832
  242POPC   C1B 3334   6.510   8.009   4.839
  242POPC   C2B 3335   6.557   7.751   5.198
  242POPC   C3B 3336   6.404   7.746   5.619
  242POPC   C4B 3337   6.533   7.608   6.035
  243POPC   NC3 3338   8.590   0.810   3.891
  243POPC   PO4 3339   8.656   1.518   3.920
  243POPC   GL1 3340   8.739   1.202   4.231
  243POPC   GL2 3341   8.976   1.434   4.337
  243POPC   C1A 3342   8.888   1.008   4.650
  243POPC   D2A 3343   8.682   0.914   5.055
  243POPC   C3A 3344   8.805   0.722   5.447
  243POPC   C4A 3345   8.717   0.966   5.821
  243POPC   C1B 3346   8.742   1.535   4.713
  243POPC   C2B 3347   8.808   1.409   5.133
  243POPC   C3B 3348   8.625   1.383   5.542
  243POPC   C4B 3349   8.543   1.421   6.016
  244POPC   NC3 3350   2.571   9.425   3.826
  244POPC   PO4 3351   2.929   8.939   4.053
  244POPC   GL1 3352   2.574   9.168   4.272
  244POPC   GL2 3353   2.710   9.495   4.310
  244POPC   C1A 3354   2.307   9.292   4.628
  244POPC   D2A 3355   2.339   9.046   5.024
  244POPC   C3A 3356   2.280   9.223   5.425
  244POPC   C4A 3357   2.495   9.274   5.840
  244POPC   C1B 3358   2.827   9.360   4.712
  244POPC   C2B 3359   2.811   9.549   5.114
  244POPC   C3B 3360   2.574   9.633   5.486
  244POPC   C4B 3361   2.709   9.736   5.918
  245POPC   NC3 3362   5.790   8.619   4.031
  245POPC   PO4 3363   5.319   8.253   4.077
  245POPC   GL1 3364   5.277   8.661   4.301
  245POPC   GL2 3365   5.562   8.811   4.444
  245POPC   C1A 3366   5.209   8.694   4.759
  245POPC   D2A 3367   5.435   8.515   5.088
  245POPC   C3A 3368   5.332   8.688   5.444
  245POPC   C4A 3369   5.452   8.674   5.852
  245POPC   C1B 3370   5.801   8.656   4.741
  245POPC   C2B 3371   5.960   8.592   5.151
  245POPC   C3B 3372   5.826   8.474   5.537
  245POPC   C4B 3373   5.977   8.690   5.891
  246POPC   NC3 3374   9.414   3.123   3.833
  246POPC   PO4 3375   9.699   3.736   4.050
  246POPC   GL1 3376   9.427   3.487   4.317
  246POPC   GL2 3377   9.384   3.106   4.331
  246POPC   C1A 3378   9.431   3.628   4.720
  246POPC   D2A 3379   9.691   3.733   5.036
  246POPC   C3A 3380   9.491   3.668   5.451
  246POPC   C4A 3381   9.604   3.372   5.796
  246POPC   C1B 3382   9.516   3.134   4.759
  246POPC   C2B 3383   9.632   3.244   5.179
  246POPC   C3B 3384   9.306   3.115   5.488
  246POPC   C4B 3385   9.080   3.124   5.878
  247POPC   NC3 3386   0.230   1.801   3.796
  247POPC   PO4 3387   0.793   1.831   4.043
  247POPC   GL1 3388   0.514   1.629   4.363
  247POPC   GL2 3389   0.138   1.690   4.308
  247POPC   C1A 3390   0.380   1.743   4.783
  247POPC   D2A 3391   0.496   1.932   5.145
  247POPC   C3A 3392   0.579   1.683   5.458
  247POPC   C4A 3393   0.748   1.669   5.837
  247POPC   C1B 3394   0.197   2.129   4.507
  247POPC   C2B 3395   0.088   2.156   4.965
  247POPC   C3B 3396   0.164   2.219   5.429
  247POPC   C4B 3397   0.313   1.973   5.792
  248POPC   NC3 3398   9.454   0.143   3.837
  248POPC   PO4 3399   9.042   0.752   3.827
  248POPC   GL1 3400   9.257   0.584   4.212
  248POPC   GL2 3401   9.415   0.331   4.358
  248POPC   C1A 3402   9.302   0.674   4.702
  248POPC   D2A 3403   9.187   0.883   5.094
  248POPC   C3A 3404   9.335   0.713   5.501
  248POPC   C4A 3405   9.678   0.720   5.797
  248POPC   C1B 3406   9.329   0.083   4.767
  248POPC   C2B 3407   9.513  10.495   5.173
  248POPC   C3B 3408   9.439   0.189   5.576
  248POPC   C4B 3409   9.225   0.041   5.897
  249POPC   NC3 3410   8.528   3.417   3.875
  249POPC   PO4 3411   8.815   4.051   3.782
  249POPC   GL1 3412   8.743   3.757   4.193
  249POPC   GL2 3413   8.925   3.417   4.231
  249POPC   C1A 3414   8.577   3.482   4.585
  249POPC   D2A 3415   8.622   3.294   5.024
  249POPC   C3A 3416   8.436   3.571   5.355
  249POPC   C4A 3417   8.451   3.768   5.773
  249POPC   C1B 3418   9.032   3.276   4.664
  249POPC   C2B 3419   9.160   3.399   5.086
  249POPC   C3B 3420   8.932   3.466   5.482
  249POPC   C4B 3421   8.590   3.227   5.691
  250POPC   NC3 3422  10.186   5.666   3.806
  250POPC   PO4 3423   0.342   5.641   3.978
  250POPC   GL1 3424   0.107   5.602   4.349
  250POPC   GL2 3425  10.359   5.850   4.261
  250POPC   C1A 3426   0.070   5.480   4.792
  250POPC   D2A 3427   0.009   5.313   5.205
  250POPC   C3A 3428  10.251   5.547   5.465
  250POPC   C4A 3429  10.455   5.739   5.780
  250POPC   C1B 3430  10.150   5.703   4.598
  250POPC   C2B 3431  10.156   5.818   5.017
  250POPC   C3B 3432   9.797   5.884   5.317
  250POPC   C4B 3433   9.887   5.790   5.746
  251POPC   NC3 3434   9.141   9.793   3.726
  251POPC   PO4 3435   9.480   9.197   3.847
  251POPC   GL1 3436   9.252   9.401   4.162
  251POPC   GL2 3437   9.306   9.117   4.336
  251POPC   C1A 3438   9.304   9.612   4.581
  251POPC   D2A 3439   9.388   9.792   4.991
  251POPC   C3A 3440   9.260   9.668   5.380
  251POPC   C4A 3441   9.590   9.843   5.641
  251POPC   C1B 3442   9.508   9.192   4.709
  251POPC   C2B 3443   9.658   9.353   5.032
  251POPC   C3B 3444   9.832   9.344   5.356
  251POPC   C4B 3445   9.558   9.320   5.657
  252POPC   NC3 3446   3.104   5.504   4.060
  252POPC   PO4 3447   2.460   5.498   3.943
  252POPC   GL1 3448   2.625   5.591   4.310
  252POPC   GL2 3449   2.584   5.938   4.426
  252POPC   C1A 3450   2.650   5.501   4.744
  252POPC   D2A 3451   2.414   5.371   5.088
  252POPC   C3A 3452   2.651   5.300   5.497
  252POPC   C4A 3453   2.610   5.369   5.958
  252POPC   C1B 3454   2.596   5.989   4.896
  252POPC   C2B 3455   2.767   5.731   5.233
  252POPC   C3B 3456   2.821   5.755   5.684
  252POPC   C4B 3457   2.836   6.158   5.930
  253POPC   NC3 3458   2.045   3.415   3.839
  253POPC   PO4 3459   1.399   3.349   4.060
  253POPC   GL1 3460   1.768   3.226   4.241
  253POPC   GL2 3461   1.885   3.535   4.320
  253POPC   C1A 3462   1.899   3.135   4.663
  253POPC   D2A 3463   1.714   3.247   5.069
  253POPC   C3A 3464   1.915   3.201   5.466
  253POPC   C4A 3465   2.142   3.507   5.704
  253POPC   C1B 3466   1.820   3.644   4.748
  253POPC   C2B 3467   2.084   3.595   5.136
  253POPC   C3B 3468   1.765   3.701   5.398
  253POPC   C4B 3469   1.667   3.683   5.797
  254POPC   NC3 3470   0.285   4.230   3.799
  254POPC   PO4 3471   0.921   4.201   3.844
  254POPC   GL1 3472   0.569   4.305   4.202
  254POPC   GL2 3473   0.222   4.148   4.274
  254POPC   C1A 3474   0.455   4.402   4.643
  254POPC   D2A 3475   0.236   4.334   5.013
  254POPC   C3A 3476   0.400   4.430   5.411
  254POPC   C4A 3477   0.389   4.244   5.797
  254POPC   C1B 3478   0.467   3.899   4.544
  254POPC   C2B 3479   0.543   3.900   4.986
  254POPC   C3B 3480   0.313   3.923   5.383
  254POPC   C4B 3481  10.489   3.877   5.740
  255POPC   NC3 3482   5.049   1.299   3.945
  255POPC   PO4 3483   4.698   0.845   3.626
  255POPC   GL1 3484   4.721   0.961   4.089
  255POPC   GL2 3485   4.999   0.886   4.258
  255POPC   C1A 3486   4.714   1.163   4.545
  255POPC   D2A 3487   4.799   1.278   4.970
  255POPC   C3A 3488   4.642   1.008   5.315
  255POPC   C4A 3489   4.630   1.242   5.727
  255POPC   C1B 3490   5.159   0.831   4.656
  255POPC   C2B 3491   5.132   0.920   5.099
  255POPC   C3B 3492   5.094   1.219   5.429
  255POPC   C4B 3493   5.128   1.140   5.869
  256POPC   NC3 3494   7.943   8.780   3.891
  256POPC   PO4 3495   7.572   8.306   4.038
  256POPC   GL1 3496   7.858   8.382   4.336
  256POPC   GL2 3497   7.936   8.726   4.393
  256POPC   C1A 3498   7.850   8.306   4.774
  256POPC   D2A 3499   8.096   8.349   5.157
  256POPC   C3A 3500   7.805   8.398   5.506
  256POPC   C4A 3501   7.789   8.598   5.895
  256POPC   C1B 3502   8.203   8.681   4.761
  256POPC   C2B 3503   8.179   8.902   5.164
  256POPC   C3B 3504   8.139   8.833   5.620
  256POPC   C4B 3505   8.137   8.903   6.116
  257POPC   NC3 3506   2.800   4.421   3.632
  257POPC   PO4 3507   2.346   4.673   4.043
  257POPC   GL1 3508   2.247   4.444   4.427
  257POPC   GL2 3509   2.497   4.193   4.338
  257POPC   C1A 3510   2.250   4.475   4.896
  257POPC   D2A 3511   2.585   4.464   5.200
  257POPC   C3A 3512   2.639   4.264   5.585
  257POPC   C4A 3513   2.626   4.467   5.993
  257POPC   C1B 3514   2.673   4.214   4.752
  257POPC   C2B 3515   2.989   4.137   5.068
  257POPC   C3B 3516   3.144   4.278   5.471
  257POPC   C4B 3517   3.044   4.175   5.904
  258POPC   NC3 3518   5.734   1.353   3.852
  258POPC   PO4 3519   5.392   0.865   3.967
  258POPC   GL1 3520   5.445   1.172   4.317
  258POPC   GL2 3521   5.808   1.212   4.340
  258POPC   C1A 3522   5.407   1.261   4.800
  258POPC   D2A 3523   5.591   1.156   5.218
  258POPC   C3A 3524   5.549   1.305   5.640
  258POPC   C4A 3525   5.253   1.638   5.813
  258POPC   C1B 3526   5.820   0.952   4.717
  258POPC   C2B 3527   6.042   0.967   5.118
  258POPC   C3B 3528   5.915   0.821   5.513
  258POPC   C4B 3529   5.827   0.974   5.910
  259POPC   NC3 3530   9.250   5.894   4.077
  259POPC   PO4 3531   9.746   5.710   3.682
  259POPC   GL1 3532   9.669   5.726   4.331
  259POPC   GL2 3533   9.393   5.539   4.498
  259POPC   C1A 3534   9.701   5.683   4.832
  259POPC   D2A 3535   9.891   5.398   5.100
  259POPC   C3A 3536   9.679   5.392   5.453
  259POPC   C4A 3537   9.686   5.172   5.818
  259POPC   C1B 3538   9.243   5.916   4.726
  259POPC   C2B 3539   9.282   5.822   5.160
  259POPC   C3B 3540   9.196   5.908   5.577
  259POPC   C4B 3541   9.343   5.563   5.792
  260POPC   NC3 3542   6.111   9.302   3.892
  260POPC   PO4 3543   5.522   9.020   3.993
  260POPC   GL1 3544   5.782   9.216   4.262
  260POPC   GL2 3545   5.653   9.494   4.262
  260POPC   C1A 3546   5.815   9.185   4.709
  260POPC   D2A 3547   5.620   9.004   5.074
  260POPC   C3A 3548   5.750   8.989   5.501
  260POPC   C4A 3549   5.674   9.135   5.905
  260POPC   C1B 3550   5.542   9.607   4.696
  260POPC   C2B 3551   5.391   9.494   5.126
  260POPC   C3B 3552   5.478   9.469   5.580
  260POPC   C4B 3553   5.744   9.748   5.839
  261POPC   NC3 3554   9.364   6.983   3.914
  261POPC   PO4 3555   9.687   7.578   3.796
  261POPC   GL1 3556   9.552   7.560   4.233
  261POPC   GL2 3557   9.347   7.285   4.321
  261POPC   C1A 3558   9.636   7.451   4.674
  261POPC   D2A 3559   9.785   7.443   5.087
  261POPC   C3A 3560   9.538   7.214   5.376
  261POPC   C4A 3561   9.618   7.254   5.804
  261POPC   C1B 3562   9.121   7.388   4.692
  261POPC   C2B 3563   9.263   7.118   4.962
  261POPC   C3B 3564   9.189   6.831   5.281
  261POPC   C4B 3565   9.206   6.954   5.681
  262POPC   NC3 3566   2.741   1.812   3.636
  262POPC   PO4 3567   2.953   2.389   3.937
  262POPC   GL1 3568   2.869   2.170   4.419
  262POPC   GL2 3569   2.725   1.781   4.526
  262POPC   C1A 3570   2.714   2.130   4.885
  262POPC   D2A 3571   3.009   2.273   5.189
  262POPC   C3A 3572   2.973   2.070   5.595
  262POPC   C4A 3573   2.826   2.088   6.015
  262POPC   C1B 3574   2.379   1.754   4.742
  262POPC   C2B 3575   2.251   1.937   5.100
  262POPC   C3B 3576   2.491   1.967   5.436
  262POPC   C4B 3577   2.514   1.750   5.789
  263POPC   NC3 3578   4.117   1.950   3.895
  263POPC   PO4 3579   4.648   1.532   3.931
  263POPC   GL1 3580   4.276   1.673   4.297
  263POPC   GL2 3581   4.224   2.041   4.365
  263POPC   C1A 3582   4.101   1.760   4.775
  263POPC   D2A 3583   3.855   1.992   5.159
  263POPC   C3A 3584   3.963   1.876   5.583
  263POPC   C4A 3585   4.339   1.653   5.664
  263POPC   C1B 3586   4.451   2.164   4.709
  263POPC   C2B 3587   4.344   2.086   5.113
  263POPC   C3B 3588   4.511   2.089   5.512
  263POPC   C4B 3589   4.617   2.401   5.816
  264POPC   NC3 3590   3.000  10.165   3.935
  264POPC   PO4 3591   2.378   0.052   3.938
  264POPC   GL1 3592   2.669  10.396   4.259
  264POPC   GL2 3593   2.667  10.007   4.280
  264POPC   C1A 3594   2.782  10.317   4.699
  264POPC   D2A 3595   2.770   0.005   5.114
  264POPC   C3A 3596   2.993  10.371   5.495
  264POPC   C4A 3597   2.908  10.198   5.892
  264POPC   C1B 3598   2.495   9.826   4.671
  264POPC   C2B 3599   2.561  10.005   5.088
  264POPC   C3B 3600   2.512  10.144   5.514
  264POPC   C4B 3601   2.390  10.124   5.965
  265POPC   NC3 3602   4.233   0.293   3.722
  265POPC   PO4 3603   3.831   0.812   3.809
  265POPC   GL1 3604   3.933   0.673   4.242
  265POPC   GL2 3605   4.006   0.303   4.234
  265POPC   C1A 3606   3.804   0.632   4.696
  265POPC   D2A 3607   3.561   0.494   5.081
  265POPC   C3A 3608   3.789   0.489   5.497
  265POPC   C4A 3609   3.857   0.847   5.783
  265POPC   C1B 3610   4.239   0.357   4.639
  265POPC   C2B 3611   4.088   0.290   5.017
  265POPC   C3B 3612   4.190   0.124   5.381
  265POPC   C4B 3613   4.217   0.327   5.763
  266POPC   NC3 3614   1.297   6.942   3.875
  266POPC   PO4 3615   0.922   7.382   4.071
  266POPC   GL1 3616   1.089   7.066   4.315
  266POPC   GL2 3617   1.418   7.215   4.342
  266POPC   C1A 3618   1.315   6.833   4.631
  266POPC   D2A 3619   1.287   6.704   5.054
  266POPC   C3A 3620   1.247   6.890   5.489
  266POPC   C4A 3621   1.344   6.980   5.951
  266POPC   C1B 3622   1.197   7.305   4.766
  266POPC   C2B 3623   1.305   7.320   5.208
  266POPC   C3B 3624   1.220   7.369   5.666
  266POPC   C4B 3625   0.839   7.603   5.823
  267POPC   NC3 3626   7.566   2.425   3.873
  267POPC   PO4 3627   7.966   2.968   4.014
  267POPC   GL1 3628   7.944   2.553   4.201
  267POPC   GL2 3629   7.629   2.532   4.360
  267POPC   C1A 3630   8.069   2.430   4.593
  267POPC   D2A 3631   8.140   2.689   4.964
  267POPC   C3A 3632   8.146   2.473   5.358
  267POPC   C4A 3633   7.884   2.504   5.763
  267POPC   C1B 3634   7.727   2.814   4.651
  267POPC   C2B 3635   7.662   2.873   5.056
  267POPC   C3B 3636   7.828   2.856   5.409
  267POPC   C4B 3637   7.699   2.976   5.760
  268POPC   NC3 3638   1.656   9.313   3.856
  268POPC   PO4 3639   1.584  10.007   3.742
  268POPC   GL1 3640   1.844   9.843   4.155
  268POPC   GL2 3641   1.991   9.499   4.203
  268POPC   C1A 3642   1.967   9.743   4.643
  268POPC   D2A 3643   2.199   9.608   5.048
  268POPC   C3A 3644   1.951   9.605   5.446
  268POPC   C4A 3645   2.100   9.600   5.880
  268POPC   C1B 3646   1.765   9.257   4.522
  268POPC   C2B 3647   1.862   9.222   4.942
  268POPC   C3B 3648   1.741   9.126   5.334
  268POPC   C4B 3649   1.897   9.137   5.736
  269POPC   NC3 3650   9.131   1.800   3.817
  269POPC   PO4 3651   8.797   2.413   3.962
  269POPC   GL1 3652   8.978   2.223   4.297
  269POPC   GL2 3653   8.791   1.911   4.269
  269POPC   C1A 3654   8.936   2.186   4.749
  269POPC   D2A 3655   8.677   1.968   5.047
  269POPC   C3A 3656   8.730   2.146   5.455
  269POPC   C4A 3657   8.686   1.848   5.777
  269POPC   C1B 3658   8.464   2.088   4.573
  269POPC   C2B 3659   8.206   2.137   4.973
  269POPC   C3B 3660   8.258   1.970   5.386
  269POPC   C4B 3661   8.311   2.214   5.773
  270POPC   NC3 3662   2.857   2.842   3.951
  270POPC   PO4 3663   2.417   2.394   4.266
  270POPC   GL1 3664   2.498   2.792   4.334
  270POPC   GL2 3665   2.834   2.756   4.425
  270POPC   C1A 3666   2.468   2.955   4.730
  270POPC   D2A 3667   2.201   3.042   5.061
  270POPC   C3A 3668   2.309   2.858   5.418
  270POPC   C4A 3669   2.377   3.012   5.831
  270POPC   C1B 3670   2.853   2.594   4.788
  270POPC   C2B 3671   2.718   2.715   5.156
  270POPC   C3B 3672   2.645   2.467   5.490
  270POPC   C4B 3673   2.722   2.579   5.856
  271POPC   NC3 3674  10.143   8.676   3.606
  271POPC   PO4 3675  10.181   8.023   3.705
  271POPC   GL1 3676  10.150   8.343   4.083
  271POPC   GL2 3677  10.213   8.701   4.131
  271POPC   C1A 3678   9.964   8.347   4.518
  271POPC   D2A 3679  10.051   8.505   4.973
  271POPC   C3A 3680   9.928   8.353   5.361
  271POPC   C4A 3681   9.827   8.429   5.773
  271POPC   C1B 3682  10.280   8.776   4.588
  271POPC   C2B 3683   0.015   8.756   4.995
  271POPC   C3B 3684  10.348   8.692   5.438
  271POPC   C4B 3685  10.246   8.694   5.888
  272POPC   NC3 3686   8.861   4.798   3.893
  272POPC   PO4 3687   9.177   5.432   4.088
  272POPC   GL1 3688   8.809   5.243   4.336
  272POPC   GL2 3689   8.768   4.905   4.361
  272POPC   C1A 3690   8.648   5.142   4.770
  272POPC   D2A 3691   8.921   5.021   5.102
  272POPC   C3A 3692   8.708   5.033   5.458
  272POPC   C4A 3693   8.783   4.790   5.806
  272POPC   C1B 3694   8.842   4.664   4.730
  272POPC   C2B 3695   8.610   4.633   5.055
  272POPC   C3B 3696   8.543   4.538   5.425
  272POPC   C4B 3697   8.299   4.795   5.676
  273POPC   NC3 3698  10.155   3.079   3.755
  273POPC   PO4 3699   9.653   2.742   3.949
  273POPC   GL1 3700   9.876   2.784   4.341
  273POPC   GL2 3701  10.232   2.700   4.307
  273POPC   C1A 3702   9.986   2.937   4.756
  273POPC   D2A 3703   9.939   2.843   5.160
  273POPC   C3A 3704   9.809   2.958   5.576
  273POPC   C4A 3705   9.924   2.813   5.980
  273POPC   C1B 3706  10.357   2.564   4.732
  273POPC   C2B 3707  10.289   2.498   5.170
  273POPC   C3B 3708  10.180   2.569   5.575
  273POPC   C4B 3709  10.411   2.318   5.856
  274POPC   NC3 3710   0.300   0.805   3.844
  274POPC   PO4 3711   0.880   0.972   4.033
  274POPC   GL1 3712   0.593   0.976   4.403
  274POPC   GL2 3713   0.252   1.097   4.271
  274POPC   C1A 3714   0.600   0.975   4.888
  274POPC   D2A 3715   0.251   0.824   5.179
  274POPC   C3A 3716   0.320   0.791   5.651
  274POPC   C4A 3717   0.665   0.967   5.818
  274POPC   C1B 3718   0.207   1.279   4.667
  274POPC   C2B 3719   0.307   1.345   5.091
  274POPC   C3B 3720   0.353   1.244   5.467
  274POPC   C4B 3721   0.352   1.383   5.837
  275POPC   NC3 3722   4.256   9.576   3.797
  275POPC   PO4 3723   4.244  10.329   3.680
  275POPC   GL1 3724   4.180  10.300   4.124
  275POPC   GL2 3725   3.878  10.181   4.245
  275POPC   C1A 3726   4.282  10.349   4.574
  275POPC   D2A 3727   4.542  10.472   4.937
  275POPC   C3A 3728   4.614  10.318   5.370
  275POPC   C4A 3729   4.378  10.303   5.753
  275POPC   C1B 3730   3.927  10.002   4.660
  275POPC   C2B 3731   4.106  10.201   5.058
  275POPC   C3B 3732   3.990  10.108   5.490
  275POPC   C4B 3733   3.958  10.123   5.996
  276POPC   NC3 3734   6.552   8.803   4.047
  276POPC   PO4 3735   6.559   9.445   3.917
  276POPC   GL1 3736   6.592   9.249   4.294
  276POPC   GL2 3737   6.267   9.290   4.404
  276POPC   C1A 3738   6.635   9.251   4.754
  276POPC   D2A 3739   6.352   9.467   5.041
  276POPC   C3A 3740   6.452   9.503   5.477
  276POPC   C4A 3741   6.743   9.474   5.775
  276POPC   C1B 3742   6.052   9.629   4.621
  276POPC   C2B 3743   5.882   9.680   5.068
  276POPC   C3B 3744   5.960   9.462   5.460
  276POPC   C4B 3745   6.169   9.202   5.794
  277POPC   NC3 3746   1.370   5.336   3.938
  277POPC   PO4 3747   1.096   5.935   4.017
  277POPC   GL1 3748   1.069   5.559   4.280
  277POPC   GL2 3749   1.425   5.596   4.350
  277POPC   C1A 3750   1.116   5.328   4.688
  277POPC   D2A 3751   0.917   5.550   5.026
  277POPC   C3A 3752   1.065   5.446   5.443
  277POPC   C4A 3753   0.870   5.764   5.701
  277POPC   C1B 3754   1.295   5.803   4.694
  277POPC   C2B 3755   1.402   5.657   5.100
  277POPC   C3B 3756   1.293   5.880   5.445
  277POPC   C4B 3757   1.464   5.990   5.801
  278POPC   NC3 3758   1.152   3.836   3.683
  278POPC   PO4 3759   1.476   4.268   4.068
  278POPC   GL1 3760   1.253   4.184   4.396
  278POPC   GL2 3761   1.008   4.433   4.401
  278POPC   C1A 3762   1.413   4.134   4.805
  278POPC   D2A 3763   1.361   4.372   5.170
  278POPC   C3A 3764   1.406   4.073   5.486
  278POPC   C4A 3765   1.314   4.021   5.926
  278POPC   C1B 3766   0.909   4.223   4.788
  278POPC   C2B 3767   0.852   4.245   5.227
  278POPC   C3B 3768   0.913   4.269   5.658
  278POPC   C4B 3769   0.801   4.027   6.010
  279POPC   NC3 3770  10.005   1.411   3.871
  279POPC   PO4 3771  10.335   2.020   3.831
  279POPC   GL1 3772  10.146   1.946   4.231
  279POPC   GL2 3773   9.949   2.254   4.333
  279POPC   C1A 3774  10.276   1.877   4.652
  279POPC   D2A 3775  10.393   1.615   4.990
  279POPC   C3A 3776   0.064   1.729   5.350
  279POPC   C4A 3777  10.431   1.653   5.735
  279POPC   C1B 3778   9.936   2.272   4.792
  279POPC   C2B 3779  10.086   2.010   5.107
  279POPC   C3B 3780  10.166   2.053   5.499
  279POPC   C4B 3781  10.018   1.919   5.873
  280POPC   NC3 3782   9.247   4.091   3.982
  280POPC   PO4 3783   9.789   4.248   3.667
  280POPC   GL1 3784   9.696   4.252   4.150
  280POPC   GL2 3785   9.532   4.531   4.203
  280POPC   C1A 3786   9.423   4.134   4.596
  280POPC   D2A 3787   9.260   4.035   5.040
  280POPC   C3A 3788   9.439   4.196   5.432
  280POPC   C4A 3789   9.556   4.018   5.854
  280POPC   C1B 3790   9.464   4.646   4.647
  280POPC   C2B 3791   9.253   4.585   5.032
  280POPC   C3B 3792   9.048   4.599   5.405
  280POPC   C4B 3793   9.156   4.416   5.792
  281POPC   NC3 3794   2.623   7.863   3.790
  281POPC   PO4 3795   2.154   8.342   4.010
  281POPC   GL1 3796   2.467   8.015   4.257
  281POPC   GL2 3797   2.537   7.629   4.227
  281POPC   C1A 3798   2.644   8.124   4.686
  281POPC   D2A 3799   2.760   8.153   5.150
  281POPC   C3A 3800   2.398   8.136   5.446
  281POPC   C4A 3801   2.350   7.924   5.845
  281POPC   C1B 3802   2.800   7.648   4.618
  281POPC   C2B 3803   2.651   7.657   5.009
  281POPC   C3B 3804   2.641   7.701   5.427
  281POPC   C4B 3805   2.724   7.577   5.825
  282POPC   NC3 3806   0.695   6.148   3.960
  282POPC   PO4 3807   0.258   6.634   4.075
  282POPC   GL1 3808   0.489   6.511   4.391
  282POPC   GL2 3809   0.715   6.724   4.385
  282POPC   C1A 3810   0.378   6.517   4.818
  282POPC   D2A 3811   0.291   6.238   5.150
  282POPC   C3A 3812   0.117   6.400   5.524
  282POPC   C4A 3813   0.378   6.578   5.744
  282POPC   C1B 3814   0.888   6.598   4.745
  282POPC   C2B 3815   0.808   6.504   5.143
  282POPC   C3B 3816   0.756   6.750   5.466
  282POPC   C4B 3817   0.893   6.696   5.877
  283POPC   NC3 3818  10.092   7.585   3.586
  283POPC   PO4 3819  10.444   7.582   4.129
  283POPC   GL1 3820  10.051   7.619   4.352
  283POPC   GL2 3821  10.013   7.886   4.232
  283POPC   C1A 3822   9.880   7.873   4.722
  283POPC   D2A 3823  10.087   7.933   5.098
  283POPC   C3A 3824  10.128   7.618   5.411
  283POPC   C4A 3825  10.335   7.430   5.737
  283POPC   C1B 3826  10.347   8.020   4.572
  283POPC   C2B 3827  10.489   8.229   4.930
  283POPC   C3B 3828  10.424   8.203   5.361
  283POPC   C4B 3829  10.168   8.039   5.695
  284POPC   NC3 3830   8.412   7.122   4.158
  284POPC   PO4 3831   8.921   6.973   3.760
  284POPC   GL1 3832   8.906   7.073   4.207
  284POPC   GL2 3833   8.806   7.433   4.309
  284POPC   C1A 3834   8.841   6.959   4.661
  284POPC   D2A 3835   8.752   7.066   5.109
  284POPC   C3A 3836   9.019   7.313   5.377
  284POPC   C4A 3837   9.164   7.463   5.770
  284POPC   C1B 3838   8.556   7.398   4.737
  284POPC   C2B 3839   8.311   7.309   5.139
  284POPC   C3B 3840   8.419   7.174   5.521
  284POPC   C4B 3841   8.621   7.544   5.586
  285POPC   NC3 3842   6.436   0.294   3.935
  285POPC   PO4 3843   6.122   1.054   3.920
  285POPC   GL1 3844   6.272   0.676   4.246
  285POPC   GL2 3845   6.611   0.516   4.344
  285POPC   C1A 3846   6.237   0.629   4.712
  285POPC   D2A 3847   6.085   0.468   5.119
  285POPC   C3A 3848   6.389   0.649   5.406
  285POPC   C4A 3849   6.357   0.812   5.810
  285POPC   C1B 3850   6.563   0.228   4.655
  285POPC   C2B 3851   6.648   0.395   5.024
  285POPC   C3B 3852   6.744   0.284   5.408
  285POPC   C4B 3853   6.586   0.339   5.783
  286POPC   NC3 3854   4.480   9.328   4.189
  286POPC   PO4 3855   3.877   9.756   3.954
  286POPC   GL1 3856   4.215   9.782   4.264
  286POPC   GL2 3857   4.115   9.506   4.490
  286POPC   C1A 3858   4.423   9.847   4.659
  286POPC   D2A 3859   4.183   9.697   5.006
  286POPC   C3A 3860   4.392   9.843   5.360
  286POPC   C4A 3861   4.237   9.734   5.745
  286POPC   C1B 3862   4.248   9.198   4.792
  286POPC   C2B 3863   4.126   9.011   5.162
  286POPC   C3B 3864   4.208   9.255   5.518
  286POPC   C4B 3865   3.918   9.322   5.847
  287POPC   NC3 3866   8.422   4.150   3.989
  287POPC   PO4 3867   9.007   4.449   4.159
  287POPC   GL1 3868   8.647   4.420   4.328
  287POPC   GL2 3869   8.792   4.159   4.514
  287POPC   C1A 3870   8.366   4.379   4.660
  287POPC   D2A 3871   8.521   4.141   4.989
  287POPC   C3A 3872   8.329   4.078   5.375
  287POPC   C4A 3873   8.338   4.275   5.791
  287POPC   C1B 3874   8.959   3.805   4.672
  287POPC   C2B 3875   8.823   3.763   5.074
  287POPC   C3B 3876   8.852   4.061   5.413
  287POPC   C4B 3877   9.075   3.918   5.747
  288POPC   NC3 3878   8.247   1.671   3.696
  288POPC   PO4 3879   7.862   2.110   3.777
  288POPC   GL1 3880   7.761   2.059   4.215
  288POPC   GL2 3881   8.005   1.934   4.402
  288POPC   C1A 3882   7.659   2.099   4.688
  288POPC   D2A 3883   7.728   2.364   5.037
  288POPC   C3A 3884   7.774   2.137   5.417
  288POPC   C4A 3885   7.543   2.111   5.764
  288POPC   C1B 3886   8.021   1.709   4.795
  288POPC   C2B 3887   8.304   1.512   5.103
  288POPC   C3B 3888   8.140   1.493   5.538
  288POPC   C4B 3889   7.977   1.810   5.798
  289POPC   NC3 3890   9.875   2.122   3.826
  289POPC   PO4 3891   9.519   1.493   3.765
  289POPC   GL1 3892   9.618   1.805   4.111
  289POPC   GL2 3893   9.332   1.814   4.272
  289POPC   C1A 3894   9.772   1.838   4.577
  289POPC   D2A 3895   9.639   1.774   4.988
  289POPC   C3A 3896   9.619   1.929   5.402
  289POPC   C4A 3897   9.531   1.756   5.772
  289POPC   C1B 3898   9.217   1.733   4.660
  289POPC   C2B 3899   9.143   1.778   5.061
  289POPC   C3B 3900   9.113   1.796   5.475
  289POPC   C4B 3901   9.217   2.190   5.687
  290POPC   NC3 3902   3.276   8.477   3.674
  290POPC   PO4 3903   3.012   7.829   4.035
  290POPC   GL1 3904   3.355   7.840   4.348
  290POPC   GL2 3905   3.372   7.499   4.357
  290POPC   C1A 3906   3.443   8.182   4.707
  290POPC   D2A 3907   3.285   8.247   5.146
  290POPC   C3A 3908   3.514   8.129   5.546
  290POPC   C4A 3909   3.802   8.122   5.911
  290POPC   C1B 3910   3.303   7.674   4.805
  290POPC   C2B 3911   3.416   7.721   5.230
  290POPC   C3B 3912   3.157   7.769   5.590
  290POPC   C4B 3913   2.872   8.079   5.680
  291POPC   NC3 3914   0.381   5.189   3.946
  291POPC   PO4 3915   0.089   4.603   3.979
  291POPC   GL1 3916   0.247   4.731   4.320
  291POPC   GL2 3917   0.238   5.105   4.435
  291POPC   C1A 3918   0.044   4.728   4.707
  291POPC   D2A 3919   0.175   4.847   5.061
  291POPC   C3A 3920   0.023   4.798   5.443
  291POPC   C4A 3921   0.119   5.166   5.703
  291POPC   C1B 3922   0.600   4.903   4.626
  291POPC   C2B 3923   0.647   4.688   5.020
  291POPC   C3B 3924   0.558   4.905   5.413
  291POPC   C4B 3925   0.662   4.722   5.781
  292POPC   NC3 3926   0.968   8.588   3.854
  292POPC   PO4 3927   0.711   9.154   3.911
  292POPC   GL1 3928   0.881   8.899   4.272
  292POPC   GL2 3929   1.247   8.785   4.329
  292POPC   C1A 3930   0.889   8.677   4.688
  292POPC   D2A 3931   0.675   8.620   5.104
  292POPC   C3A 3932   0.947   8.645   5.473
  292POPC   C4A 3933   0.901   8.877   5.859
  292POPC   C1B 3934   1.412   8.872   4.740
  292POPC   C2B 3935   1.387   8.612   5.115
  292POPC   C3B 3936   1.593   8.662   5.508
  292POPC   C4B 3937   1.391   8.984   5.718
  293POPC   NC3 3938   7.930   9.776   3.976
  293POPC   PO4 3939   7.925   9.201   3.713
  293POPC   GL1 3940   7.941   9.232   4.220
  293POPC   GL2 3941   7.927   9.567   4.429
  293POPC   C1A 3942   7.989   9.143   4.699
  293POPC   D2A 3943   8.147   9.432   5.053
  293POPC   C3A 3944   8.270   9.313   5.461
  293POPC   C4A 3945   8.281   9.726   5.655
  293POPC   C1B 3946   7.692   9.551   4.778
  293POPC   C2B 3947   7.686   9.272   5.121
  293POPC   C3B 3948   7.811   9.515   5.499
  293POPC   C4B 3949   7.882   9.259   5.851
  294POPC   NC3 3950   3.477   1.161   3.821
  294POPC   PO4 3951   3.238   0.797   4.324
  294POPC   GL1 3952   3.550   1.045   4.420
  294POPC   GL2 3953   3.543   1.391   4.317
  294POPC   C1A 3954   3.574   1.085   4.856
  294POPC   D2A 3955   3.790   0.950   5.201
  294POPC   C3A 3956   3.469   0.884   5.441
  294POPC   C4A 3957   3.368   1.091   5.796
  294POPC   C1B 3958   3.585   1.599   4.711
  294POPC   C2B 3959   3.783   1.486   5.108
  294POPC   C3B 3960   3.703   1.369   5.516
  294POPC   C4B 3961   3.534   1.547   5.868
  295POPC   NC3 3962   3.231   8.230   4.085
  295POPC   PO4 3963   3.505   8.833   3.854
  295POPC   GL1 3964   3.516   8.641   4.245
  295POPC   GL2 3965   3.205   8.647   4.389
  295POPC   C1A 3966   3.639   8.706   4.651
  295POPC   D2A 3967   3.462   8.773   5.039
  295POPC   C3A 3968   3.525   8.611   5.417
  295POPC   C4A 3969   3.136   8.501   5.584
  295POPC   C1B 3970   3.214   9.012   4.661
  295POPC   C2B 3971   3.162   9.176   5.067
  295POPC   C3B 3972   3.227   9.002   5.448
  295POPC   C4B 3973   3.474   9.072   5.759
  296POPC   NC3 3974   2.954   7.362   4.063
  296POPC   PO4 3975   3.495   7.031   4.109
  296POPC   GL1 3976   3.134   7.028   4.417
  296POPC   GL2 3977   2.790   6.904   4.272
  296POPC   C1A 3978   3.087   7.216   4.845
  296POPC   D2A 3979   3.017   7.386   5.282
  296POPC   C3A 3980   3.042   7.192   5.731
  296POPC   C4A 3981   2.929   7.168   6.200
  296POPC   C1B 3982   2.632   7.173   4.618
  296POPC   C2B 3983   2.608   7.147   5.063
  296POPC   C3B 3984   2.570   7.206   5.504
  296POPC   C4B 3985   2.500   7.098   5.938
  297POPC   NC3 3986   1.495   6.231   3.978
  297POPC   PO4 3987   0.906   6.694   3.882
  297POPC   GL1 3988   1.157   6.517   4.236
  297POPC   GL2 3989   0.947   6.246   4.393
  297POPC   C1A 3990   1.375   6.335   4.640
  297POPC   D2A 3991   1.219   6.183   5.038
  297POPC   C3A 3992   1.281   6.382   5.442
  297POPC   C4A 3993   1.356   6.485   5.862
  297POPC   C1B 3994   0.759   6.097   4.796
  297POPC   C2B 3995   0.776   6.011   5.262
  297POPC   C3B 3996   0.843   6.260   5.640
  297POPC   C4B 3997   1.025   6.158   6.044
  298POPC   NC3 3998   0.776   5.642   3.831
  298POPC   PO4 3999   0.314   6.131   3.700
  298POPC   GL1 4000   0.323   6.060   4.250
  298POPC   GL2 4001   0.619   5.841   4.362
  298POPC   C1A 4002   0.235   6.000   4.676
  298POPC   D2A 4003   0.432   5.751   4.991
  298POPC   C3A 4004   0.219   5.784   5.356
  298POPC   C4A 4005   0.406   6.029   5.683
  298POPC   C1B 4006   0.602   5.446   4.593
  298POPC   C2B 4007   0.500   5.241   4.995
  298POPC   C3B 4008   0.560   5.409   5.403
  298POPC   C4B 4009   0.424   5.543   5.791
  299POPC   NC3 4010   1.256   0.552   3.703
  299POPC   PO4 4011   0.895   0.132   4.052
  299POPC   GL1 4012   1.248   0.193   4.317
  299POPC   GL2 4013   1.422   0.514   4.248
  299POPC   C1A 4014   1.125   0.247   4.752
  299POPC   D2A 4015   1.176   0.140   5.162
  299POPC   C3A 4016   1.170   0.347   5.529
  299POPC   C4A 4017   1.521   0.099   5.716
  299POPC   C1B 4018   1.432   0.643   4.676
  299POPC   C2B 4019   1.200   0.668   5.056
  299POPC   C3B 4020   1.272   0.879   5.426
  299POPC   C4B 4021   1.145   0.783   5.813
  300POPC   NC3 4022   3.929   8.677   3.966
  300POPC   PO4 4023   4.459   8.223   4.027
  300POPC   GL1 4024   4.203   8.456   4.342
  300POPC   GL2 4025   4.106   8.802   4.439
  300POPC   C1A 4026   3.959   8.335   4.700
  300POPC   D2A 4027   3.912   8.554   5.086
  300POPC   C3A 4028   3.975   8.365   5.475
  300POPC   C4A 4029   4.292   8.237   5.717
  300POPC   C1B 4030   4.330   8.688   4.805
  300POPC   C2B 4031   4.420   8.527   5.208
  300POPC   C3B 4032   4.320   8.736   5.582
  300POPC   C4B 4033   3.907   8.860   5.633
  301POPC   NC3 4034   9.677   0.974   3.960
  301POPC   PO4 4035  10.396   1.022   3.858
  301POPC   GL1 4036  10.213   1.125   4.229
  301POPC   GL2 4037  10.074   0.821   4.252
  301POPC   C1A 4038  10.183   1.356   4.622
  301POPC   D2A 4039   9.910   1.344   5.010
  301POPC   C3A 4040   9.980   1.572   5.411
  301POPC   C4A 4041  10.011   1.407   5.845
  301POPC   C1B 4042  10.379   0.870   4.622
  301POPC   C2B 4043  10.358   1.088   5.004
  301POPC   C3B 4044  10.361   1.246   5.375
  301POPC   C4B 4045  10.432   1.127   5.761
  302W        W 4046  10.390   3.571   8.975
  303W        W 4047   3.400   7.435   2.211
  304W        W 4048   7.988   2.756   1.856
  305W        W 4049   6.083   0.499   0.262
  306W        W 4050   9.210   2.122   8.590
  307W        W 4051   9.853   3.080   8.671
  308W        W 4052   8.204   5.506   9.710
  309W        W 4053   2.277   3.565   0.841
  310W        W 4054  10.015   3.176   0.987
  311W        W 4055   0.247   7.405  10.548
  312W        W 4056   5.255   1.863   2.183
  313W        W 4057   9.757   7.174   9.575
  314W        W 4058   9.867   7.989   8.948
  315W        W 4059   8.433   5.670   0.076
  316W        W 4060   9.025   0.829   3.252
  317W        W 4061   5.249   6.457   1.662
  318W        W 4062   8.014   6.171   1.457
  319W        W 4063   5.651  10.453  11.898
  320W        W 4064   6.519  10.337   1.445
  321W        W 4065   1.854   5.695  11.741
  322W        W 4066   3.502   6.670  11.483
  323W        W 4067   6.438   8.063   0.338
  324W        W 4068   8.977   7.667   9.857
  325W        W 4069   0.970   1.861   9.791
  326W        W 4070  10.315   1.798   9.102
  327W        W 4071   4.629   0.757  10.127
  328W        W 4072  10.005   8.583  10.915
  329W        W 4073   9.752   2.275   0.767
  330W        W 4074   1.962   6.941   2.848
  331W        W 4075   1.361   6.998   1.773
  332W        W 4076   9.556   2.106  11.775
  333W        W 4077   6.343   3.127  10.004
  334W        W 4078   2.165   2.844   2.513
  335W        W 4079   0.398   1.016   9.406
  336W        W 4080   8.744   2.206   2.175
  337W        W 4081   8.911   8.820  10.586
  338W        W 4082   4.965   0.455   1.500
  339W        W 4083   2.739   9.473  11.143
  340W        W 4084   3.518   7.373   2.990
  341W        W 4085   9.102   0.873   2.745
  342W        W 4086   1.362   2.548   0.091
  343W        W 4087   2.369   4.688   2.658
  344W        W 4088   6.698   0.142   3.513
  345W        W 4089  10.467   4.198   9.663
  346W        W 4090   7.009  10.299   1.713
  347W        W 4091   7.410   3.680   9.893
  348W        W 4092   1.648   6.792  10.299
  349W        W 4093  10.327   5.062   2.038
  350W        W 4094   8.437   5.608   0.608
  351W        W 4095   3.565   6.899  11.022
  352W        W 4096   6.982   4.131   1.893
  353W        W 4097   4.694   4.166  10.388
  354W        W 4098   8.520   7.619   9.078
  355W        W 4099   5.149  10.108  10.716
  356W        W 4100   8.545   7.667   9.598
  357W        W 4101   6.437   9.130   2.056
  358W        W 4102   2.251   1.300   1.687
  359W        W 4103   7.574   4.684   9.375
  360W        W 4104   0.889   0.838   0.291
  361W        W 4105   4.811   8.451   9.714
  362W        W 4106   5.299   4.773   0.329
  363W        W 4107   8.401   3.200   1.911
  364W        W 4108   0.430   0.793   1.393
  365W        W 4109   8.907   8.150   0.211
  366W        W 4110   5.184   3.037  11.389
  367W        W 4111   9.466   2.576   3.507
  368W        W 4112   2.147   1.798   3.116
  369W        W 4113   4.853   0.937   1.770
  370W        W 4114   8.471   0.227   1.760
  371W        W 4115   8.980   9.107  10.156
  372W        W 4116   9.240   1.384   1.118
  373W        W 4117   8.053   6.051   2.910
  374W        W 4118   6.153   3.719   0.686
  375W        W 4119   4.916   7.934   0.229
  376W        W 4120   8.729   9.759  10.946
  377W        W 4121   0.954   8.636   9.473
  378W        W 4122   5.685   9.450  10.216
  379W        W 4123   1.012   7.164   2.587
  380W        W 4124   1.887   0.967   1.755
  381W        W 4125   4.586   9.905   9.796
  382W        W 4126   6.704   9.702  11.720
  383W        W 4127   0.959   4.673   2.972
  384W        W 4128   7.132   3.550  10.473
  385W        W 4129   8.121   7.310   1.651
  386W        W 4130   4.782   2.184   2.891
  387W        W 4131   9.660   9.862   0.743
  388W        W 4132   8.472   9.556   3.096
  389W        W 4133   6.698   4.589   9.155
  390W        W 4134   7.018   9.458  10.228
  391W        W 4135   0.762   7.751   0.026
  392W        W 4136   5.438   7.577  10.490
  393W        W 4137   7.501   6.260  11.810
  394W        W 4138   1.647   0.523   1.727
  395W        W 4139   7.910   1.193   3.004
  396W        W 4140   0.926   3.756   8.779
  397W        W 4141   3.523   2.396  11.377
  398W        W 4142   4.056   9.624   9.782
  399W        W 4143   3.109   5.277   2.800
  400W        W 4144   7.190   4.340   3.325
  401W        W 4145   9.402   8.076   2.582
  402W        W 4146   7.697   1.428   9.501
  403W        W 4147   2.318   5.515   8.583
  404W        W 4148   8.168   3.768   2.920
  405W        W 4149   9.792   8.573   1.534
  406W        W 4150   7.585   4.587   3.129
  407W        W 4151   0.764  10.363   0.643
  408W        W 4152   2.597   2.767   2.212
  409W        W 4153   8.111   9.286   9.296
  410W        W 4154   1.746   4.491   8.682
  411W        W 4155   0.397   4.362   9.935
  412W        W 4156   7.905  10.273  10.566
  413W        W 4157   1.172   9.165  11.190
  414W        W 4158   7.044   8.197  11.940
  415W        W 4159   1.268   3.606   9.613
  416W        W 4160   6.356   9.768  11.324
  417W        W 4161   3.662   0.453   0.481
  418W        W 4162   9.252   7.199   2.918
  419W        W 4163   6.702   9.396  11.233
  420W        W 4164   8.066   1.247  10.130
  421W        W 4165   7.866   0.441   0.012
  422W        W 4166   7.741   2.697   8.829
  423W        W 4167  10.188   3.434   3.363
  424W        W 4168   0.976  10.494   1.714
  425W        W 4169   4.201   2.499  11.779
  426W        W 4170   4.764   4.128   2.217
  427W        W 4171   5.302   6.119   3.409
  428W        W 4172   7.390   8.529   3.637
  429W        W 4173   2.047   0.854   3.359
  430W        W 4174   4.263   0.820   1.881
  431W        W 4175  10.091   6.837  11.779
  432W        W 4176   1.982   9.115   1.239
  433W        W 4177   7.530   7.675   2.699
  434W        W 4178   1.784   2.100   0.390
  435W        W 4179   9.919   2.805  10.055
  436W        W 4180   0.229   4.635   9.542
  437W        W 4181   4.454   3.170   3.655
  438W        W 4182   6.517   5.019  11.577
  439W        W 4183   7.960   1.637   3.272
  440W        W 4184   1.874   0.656   8.908
  441W        W 4185   4.996   6.692   0.312
  442W        W 4186   3.732   3.744   1.951
  443W        W 4187   4.109   8.524  10.938
  444W        W 4188   1.252   0.438   2.782
  445W        W 4189   4.545   1.707   1.926
  446W        W 4190   8.217   5.742   9.208
  447W        W 4191   6.908   9.907   0.359
  448W        W 4192   3.462   0.815   0.810
  449W        W 4193   9.549   5.579   2.180
  450W        W 4194   6.640   9.966   3.016
  451W        W 4195   9.224   4.502   3.689
  452W        W 4196   5.090   5.243  11.404
  453W        W 4197   6.748   9.484   2.911
  454W        W 4198  10.335  10.365   2.480
  455W        W 4199   8.398   0.227  11.343
  456W        W 4200   2.857   1.315   8.791
  457W        W 4201   6.082   3.787  11.199
  458W        W 4202   0.763   8.628   1.764
  459W        W 4203   2.152   7.195   1.282
  460W        W 4204   9.499   9.571   2.462
  461W        W 4205   6.685   4.096  11.838
  462W        W 4206   6.938   4.142   9.297
  463W        W 4207   3.139   2.393   2.926
  464W        W 4208   8.171   3.749   0.311
  465W        W 4209   1.774   2.258  11.872
  466W        W 4210   8.029   1.194   3.495
  467W        W 4211   1.495  10.313  11.893
  468W        W 4212   5.492   6.634   9.424
  469W        W 4213   2.084   0.805   0.899
  470W        W 4214   5.955   8.167   0.502
  471W        W 4215  10.372   2.017   1.561
  472W        W 4216   6.629   4.073   9.695
  473W        W 4217   9.037   0.291   9.137
  474W        W 4218   8.046   4.711   2.931
  475W        W 4219   5.128   2.502   1.720
  476W        W 4220   3.083   8.241   2.584
  477W        W 4221   7.413   8.938  11.724
  478W        W 4222   2.883   0.339  11.800
  479W        W 4223  10.379   0.221   1.660
  480W        W 4224   1.958   0.875   0.405
  481W        W 4225   9.309   8.387   3.579
  482W        W 4226   9.815   6.416   9.036
  483W        W 4227   6.046   9.175  11.939
  484W        W 4228   9.372   6.629  10.858
  485W        W 4229   7.533   8.854   9.292
  486W        W 4230   2.392   4.238   9.877
  487W        W 4231   5.494   3.289   1.266
  488W        W 4232   4.502   9.964  11.321
  489W        W 4233   5.229   3.742   1.167
  490W        W 4234   5.030   0.738   9.783
  491W        W 4235   5.102   0.801   9.279
  492W        W 4236   1.325   4.995   3.546
  493W        W 4237   8.123   4.183  10.025
  494W        W 4238   2.879   2.350   3.411
  495W        W 4239   8.530   8.435  11.461
  496W        W 4240   9.769   2.358  10.291
  497W        W 4241   2.357   6.285   8.800
  498W        W 4242   5.962   6.295   9.479
  499W        W 4243   6.132   3.734   1.202
  500W        W 4244   2.806   7.416   0.988
  501W        W 4245   9.325   5.157  10.501
  502W        W 4246   6.862   2.119   1.666
  503W        W 4247   7.214   5.355   2.103
  504W        W 4248   6.105   6.032   2.529
  505W        W 4249   3.252   1.370   2.491
  506W        W 4250   0.066   3.888   0.821
  507W        W 4251   0.192   1.284   2.277
  508W        W 4252  10.076   3.965   8.721
  509W        W 4253   7.307   5.866   8.124
  510W        W 4254   2.783   5.867   9.468
  511W        W 4255  10.153   4.256  10.076
  512W        W 4256   2.160   5.189   2.920
  513W        W 4257   3.833   2.789  11.534
  514W        W 4258   8.312   6.495   0.039
  515W        W 4259   6.863   0.118  10.804
  516W        W 4260   6.649   4.556   1.912
  517W        W 4261   5.649   6.525   3.254
  518W        W 4262   6.182   3.731   2.833
  519W        W 4263   7.710   3.570   2.917
  520W        W 4264   6.561   5.953   1.814
  521W        W 4265   4.607   5.455   2.402
  522W        W 4266   2.921   3.385   0.312
  523W        W 4267   5.062   0.826   0.678
  524W        W 4268   1.416   7.600   1.143
  525W        W 4269   2.819   2.725  11.759
  526W        W 4270   6.526   1.431   2.718
  527W        W 4271   1.790   5.888   9.383
  528W        W 4272   3.590   2.349   2.219
  529W        W 4273  10.007   0.035  10.462
  530W        W 4274   6.520   1.674  10.062
  531W        W 4275   5.819   6.227   4.199
  532W        W 4276   6.697   7.028   0.105
  533W        W 4277   7.714   4.326  11.839
  534W        W 4278   9.314   8.577   9.504
  535W        W 4279   9.076  10.215  10.873
  536W        W 4280   9.130   4.675  10.557
  537W        W 4281   4.229   1.254  10.589
  538W        W 4282   9.891   4.749   1.237
  539W        W 4283   1.664   6.106   0.754
  540W        W 4284   9.652   4.165  10.047
  541W        W 4285   3.458   2.290   3.313
  542W        W 4286   0.470   5.266   9.780
  543W        W 4287   0.410   4.520   2.444
  544W        W 4288   2.400   6.039  10.317
  545W        W 4289   5.543  10.456  10.472
  546W        W 4290   1.936   0.681   2.176
  547W        W 4291   7.669   3.547   8.924
  548W        W 4292   7.963   1.869   9.328
  549W        W 4293   6.635   5.461   0.463
  550W        W 4294   9.811   7.175  10.550
  551W        W 4295  10.159   4.663  10.398
  552W        W 4296   3.751   6.618  10.642
  553W        W 4297   9.606   2.641   3.031
  554W        W 4298   7.555   1.147  11.476
  555W        W 4299   6.665   8.585   2.664
  556W        W 4300   4.573   1.785   3.335
  557W        W 4301   5.010   2.761   7.998
  558W        W 4302   4.201   0.577   9.905
  559W        W 4303   6.470   5.674   2.257
  560W        W 4304   8.909   5.039   9.526
  561W        W 4305   8.928   2.167   0.489
  562W        W 4306   8.477   2.792   2.221
  563W        W 4307   2.175   4.714   9.878
  564W        W 4308   1.394   0.717   0.342
  565W        W 4309   7.879   7.445   1.218
  566W        W 4310   6.904   3.145   1.209
  567W        W 4311  10.108   5.050  10.062
  568W        W 4312   0.793   2.776   9.707
  569W        W 4313   5.233   4.331   2.312
  570W        W 4314   1.207   4.760   9.628
  571W        W 4315   6.584   5.886   0.202
  572W        W 4316   2.024   8.006  11.916
  573W        W 4317   4.726   4.952  11.635
  574W        W 4318   0.650   1.692   1.730
  575W        W 4319   7.100   5.587  11.924
  576W        W 4320   3.339   1.873   2.186
  577W        W 4321   8.855   4.251   1.535
  578W        W 4322   0.374   9.897   1.759
  579W        W 4323   0.489   5.644   1.897
  580W        W 4324   8.488   8.882   8.742
  581W        W 4325   6.060   6.936   2.765
  582W        W 4326   6.245   6.536   9.853
  583W        W 4327   2.729   5.194   3.165
  584W        W 4328   7.151   6.527   9.379
  585W        W 4329   3.785   2.584   0.045
  586W        W 4330   3.259   8.232   0.554
  587W        W 4331   9.349   7.294   9.196
  588W        W 4332   6.685   9.248   0.667
  589W        W 4333   3.066   3.338   2.573
  590W        W 4334   9.416   7.542   2.488
  591W        W 4335   9.054   4.116   0.413
  592W        W 4336   4.514   4.110   0.686
  593W        W 4337   5.211   7.072   9.312
  594W        W 4338   5.125   9.942   9.045
  595W        W 4339   1.960   6.710   9.889
  596W        W 4340   3.778   6.079  10.487
  597W        W 4341   5.911   9.735   3.404
  598W        W 4342   9.436   3.779   0.440
  599W        W 4343   0.879   0.332  10.499
  600W        W 4344   2.356   4.576   0.993
  601W        W 4345   6.653   1.791   8.638
  602W        W 4346   2.735   3.568   3.350
  603W        W 4347   7.700   3.863   3.915
  604W        W 4348   6.045   3.221  10.800
  605W        W 4349   1.299   3.810   9.136
  606W        W 4350   9.543   4.733   1.942
  607W        W 4351   0.886   8.340  11.195
  608W        W 4352   3.623   1.521   3.440
  609W        W 4353   1.180   7.522   8.772
  610W        W 4354   4.789   1.033   1.201
  611W        W 4355   7.679   2.833   1.353
  612W        W 4356   1.344   2.391  11.054
  613W        W 4357   4.609   2.162  10.585
  614W        W 4358   3.262   9.754   9.152
  615W        W 4359   9.294   6.286   9.850
  616W        W 4360   4.100   8.389   9.061
  617W        W 4361   6.978   1.843  11.008
  618W        W 4362   4.117   5.999  11.774
  619W        W 4363   3.422   1.005   2.119
  620W        W 4364   9.031   1.685   0.657
  621W        W 4365   5.144   3.834   0.657
  622W        W 4366   3.356   5.023   9.843
  623W        W 4367   2.139   5.699  10.001
  624W        W 4368   4.576   2.828   8.815
  625W        W 4369   1.580   0.263   9.073
  626W        W 4370   6.967   7.062   3.509
  627W        W 4371   7.677   1.048   9.841
  628W        W 4372   2.398   7.350   0.237
  629W        W 4373   7.616   4.128  10.028
  630W        W 4374   6.130   8.360   1.863
  631W        W 4375   4.809   4.600   2.444
  632W        W 4376   7.260   3.625  11.970
  633W        W 4377   3.613   6.144   2.678
  634W        W 4378   4.740   7.349   0.960
  635W        W 4379   2.428   6.543  10.083
  636W        W 4380   7.501   0.835  11.861
  637W        W 4381   5.041   6.495  10.353
  638W        W 4382   3.214  10.296  11.393
  639W        W 4383   9.857   8.494   9.046
  640W        W 4384   9.209   5.725   0.698
  641W        W 4385   0.400   5.967   0.369
  642W        W 4386  10.109   2.805   1.753
  643W        W 4387   5.520   5.131  10.925
  644W        W 4388   2.146   2.081   9.946
  645W        W 4389   3.293   8.411  10.487
  646W        W 4390   4.733   0.015   2.012
  647W        W 4391  10.064   8.278   9.936
  648W        W 4392   5.662   4.135   9.533
  649W        W 4393   4.084   2.355   2.313
  650W        W 4394   4.502   4.226   1.195
  651W        W 4395   7.999  10.420   0.419
  652W        W 4396   9.507   6.727   9.965
  653W        W 4397   0.040   6.564  11.065
  654W        W 4398   1.773   6.939   3.333
  655W        W 4399   9.034   4.272   1.012
  656W        W 4400   1.950   8.792  10.481
  657W        W 4401   8.640   7.221   2.299
  658W        W 4402   9.825   1.371   0.264
  659W        W 4403   3.333   5.069   8.374
  660W        W 4404   2.337   2.085   1.001
  661W        W 4405   9.307   7.705   2.980
  662W        W 4406   6.817   5.992   8.651
  663W        W 4407   5.232   5.770   9.084
  664W        W 4408   7.620   5.690   2.115
  665W        W 4409   4.844   2.683  11.260
  666W        W 4410   9.083   2.325   1.375
  667W        W 4411   5.654   5.593   1.083
  668W        W 4412   5.910   8.640   1.487
  669W        W 4413   4.067   3.285   2.307
  670W        W 4414   6.104   0.327   2.486
  671W        W 4415   9.438   9.471   8.962
  672W        W 4416   3.841   0.030   1.678
  673W        W 4417   4.987   3.231   3.635
  674W        W 4418  10.078   3.631   1.707
  675W        W 4419   1.217   4.204   1.956
  676W        W 4420   0.490   3.389   3.471
  677W        W 4421   8.058   8.627  11.008
  678W        W 4422   6.512   3.602  11.726
  679W        W 4423   5.364  10.393   2.944
  680W        W 4424   5.070   6.051   1.404
  681W        W 4425   7.997   1.754   0.814
  682W        W 4426   0.826   0.952  11.804
  683W        W 4427   9.825   6.983   0.960
  684W        W 4428   1.943   3.671  11.920
  685W        W 4429   6.549   0.551   2.215
  686W        W 4430   0.310   2.077   1.845
  687W        W 4431   0.352   3.959  10.545
  688W        W 4432   6.227   4.691   0.516
  689W        W 4433   9.626   0.588   0.095
  690W        W 4434   0.515   4.736   1.964
  691W        W 4435   9.948   2.305   1.724
  692W        W 4436  10.228   7.801   9.730
  693W        W 4437   6.729   7.252   2.209
  694W        W 4438   0.846   8.584   2.254
  695W        W 4439   2.341   1.564   9.992
  696W        W 4440   8.641   6.527   1.898
  697W        W 4441   4.743   0.365   3.466
  698W        W 4442   1.868  10.468   3.414
  699W        W 4443   0.277   4.820  11.133
  700W        W 4444   7.185   1.889   8.551
  701W        W 4445   2.023   3.961   9.339
  702W        W 4446   3.721   7.624   2.592
  703W        W 4447   8.933   3.119   0.560
  704W        W 4448   7.793   3.124   3.136
  705W        W 4449   3.783   0.101   3.621
  706W        W 4450   8.041   8.422   3.093
  707W        W 4451   4.746   0.344   0.030
  708W        W 4452   5.175   6.037   1.930
  709W        W 4453   8.581   9.482   2.609
  710W        W 4454   1.231   5.752   8.600
  711W        W 4455   5.602   3.428   8.981
  712W        W 4456   7.910   5.245   9.106
  713W        W 4457   1.006   8.103   9.491
  714W        W 4458   2.300   7.014   8.909
  715W        W 4459   6.948  10.447   8.441
  716W        W 4460   7.145   7.384   1.885
  717W        W 4461   1.631  10.333   2.432
  718W        W 4462   3.245   0.352   0.779
  719W        W 4463   5.165   7.877  10.832
  720W        W 4464   7.097   4.226  10.930
  721W        W 4465   8.429   8.865   9.275
  722W        W 4466   5.682   8.927   2.185
  723W        W 4467   9.780   6.953   9.126
  724W        W 4468   5.117   7.165   0.479
  725W        W 4469   5.510   5.119   2.615
  726W        W 4470   6.444   7.437   0.364
  727W        W 4471   8.167   4.879   8.512
  728W        W 4472   6.416   7.477  11.241
  729W        W 4473   7.723   0.545   9.881
  730W        W 4474   1.408   1.405   1.754
  731W        W 4475   0.313   7.909   2.284
  732W        W 4476   1.574   8.403   1.649
  733W        W 4477   6.035   4.232  11.469
  734W        W 4478   0.093   4.704   0.421
  735W        W 4479   3.640   9.940  10.003
  736W        W 4480   9.537   5.271  10.978
  737W        W 4481   9.694   0.141   9.997
  738W        W 4482   3.776   1.847   0.412
  739W        W 4483   1.265   3.798   0.029
  740W        W 4484   0.388   5.775  11.039
  741W        W 4485  10.006   2.935   3.286
  742W        W 4486   1.154   7.808   3.303
  743W        W 4487   5.662   1.833   0.035
  744W        W 4488   2.095   9.203   8.843
  745W        W 4489   7.562   6.651   1.109
  746W        W 4490   5.663   9.588   8.858
  747W        W 4491   5.666   2.239   2.895
  748W        W 4492  10.056   3.524  10.723
  749W        W 4493   7.455   9.720   8.968
  750W        W 4494   1.735   7.593  11.821
  751W        W 4495   1.446   0.064  11.305
  752W        W 4496   4.332   6.660   1.598
  753W        W 4497   9.967   8.799  10.012
  754W        W 4498   0.578   0.007  10.801
  755W        W 4499   4.192  10.055   2.421
  756W        W 4500   5.330  10.075   9.539
  757W        W 4501   4.522   1.319   8.727
  758W        W 4502   0.442   0.831  11.001
  759W        W 4503   9.425   9.886   9.425
  760W        W 4504   2.070   3.167   0.022
  761W        W 4505   9.039   2.710  11.242
  762W        W 4506   7.236   7.907   9.132
  763W        W 4507   3.288   7.938   2.244
  764W        W 4508   1.351   1.972  10.743
  765W        W 4509   6.981   2.612   1.854
  766W        W 4510   8.973   3.118   0.056
  767W        W 4511   2.589  10.488   8.996
  768W        W 4512   2.162   8.923  11.830
  769W        W 4513   6.561   4.049   1.000
  770W        W 4514   9.921   9.999   9.284
  771W        W 4515   3.102   6.244   3.718
  772W        W 4516   1.729  10.412   1.284
  773W        W 4517   2.263   9.481   2.744
  774W        W 4518   9.611   8.447   0.302
  775W        W 4519   3.350   1.930  10.366
  776W        W 4520   1.273   0.658   1.178
  777W        W 4521   7.413   8.182  10.069
  778W        W 4522   2.744   6.436  10.977
  779W        W 4523   3.790   4.771   0.574
  780W        W 4524   7.708   5.771   1.321
  781W        W 4525   6.176   7.066  11.458
  782W        W 4526   0.352   2.291   1.388
  783W        W 4527   6.154   5.485   0.990
  784W        W 4528   5.546   6.034  10.240
  785W        W 4529   5.089   3.343   2.209
  786W        W 4530   0.818   6.187  11.454
  787W        W 4531   5.753   1.249  10.263
  788W        W 4532   6.347   9.551   3.229
  789W        W 4533   5.586   6.729   2.793
  790W        W 4534   0.083   2.109   8.630
  791W        W 4535   4.299   3.079   1.876
  792W        W 4536   6.643   0.334   1.348
  793W        W 4537   2.678   5.616   9.009
  794W        W 4538   0.161   9.454   3.300
  795W        W 4539   3.230   0.767   1.686
  796W        W 4540   0.268   6.582  10.576
  797W        W 4541   3.107   4.264   2.797
  798W        W 4542   4.293   9.359   8.881
  799W        W 4543   1.249   1.889   2.984
  800W        W 4544   3.009   4.300   8.569
  801W        W 4545   8.269   1.061  10.991
  802W        W 4546   7.254   2.825   0.024
  803W        W 4547   5.214   6.505   1.165
  804W        W 4548   7.219   4.210   8.557
  805W        W 4549  10.017   3.991  10.910
  806W        W 4550   4.782   0.350  11.525
  807W        W 4551   4.150   2.767   9.602
  808W        W 4552   8.873   0.260   8.647
  809W        W 4553   6.788   5.351   1.298
  810W        W 4554   9.335   4.076   1.385
  811W        W 4555   8.967   7.913   1.793
  812W        W 4556   7.008   7.545  10.373
  813W        W 4557   0.945   0.824  10.222
  814W        W 4558   3.727   3.974   3.728
  815W        W 4559   4.671   9.348  10.953
  816W        W 4560   7.523   7.289   3.631
  817W        W 4561  10.252   9.500  10.475
  818W        W 4562   6.949   3.680   9.534
  819W        W 4563  10.227   7.461  10.568
  820W        W 4564   5.620   2.238  11.189
  821W        W 4565   1.040   1.404   8.981
  822W        W 4566   0.116   5.549   9.538
  823W        W 4567   5.184   0.987   3.512
  824W        W 4568   3.599   4.250   1.828
  825W        W 4569   3.758   7.845   2.091
  826W        W 4570   7.116   1.193   0.790
  827W        W 4571   5.979   8.372  11.491
  828W        W 4572   2.490   6.901   2.945
  829W        W 4573   6.700   1.492   2.226
  830W        W 4574   8.063   2.889  11.228
  831W        W 4575   4.500   1.648   0.904
  832W        W 4576   8.547   9.486  10.553
  833W        W 4577   2.671   2.651   9.440
  834W        W 4578   7.943  10.170  10.082
  835W        W 4579   2.566   0.741   3.403
  836W        W 4580   7.429   5.637   8.578
  837W        W 4581   7.934   6.548  11.186
  838W        W 4582   6.033   3.287   0.935
  839W        W 4583   5.612   6.743   1.927
  840W        W 4584   9.185   1.086   2.133
  841W        W 4585   7.120   4.724   0.238
  842W        W 4586   4.856   6.188   0.352
  843W        W 4587   1.100   9.671  11.320
  844W        W 4588   0.741   9.835   2.487
  845W        W 4589   4.774   4.723   0.432
  846W        W 4590   4.739   3.677   9.497
  847W        W 4591   2.222   7.375  11.764
  848W        W 4592   6.201   4.234  11.950
  849W        W 4593   9.810   9.973   3.235
  850W        W 4594   6.576   8.359  10.357
  851W        W 4595   2.890   2.668  10.308
  852W        W 4596   7.862   4.610   8.189
  853W        W 4597   3.338   5.758   2.831
  854W        W 4598   1.875   1.795   2.360
  855W        W 4599   3.091   6.475   2.197
  856W        W 4600   4.068   8.619  11.436
  857W        W 4601   3.349   8.532   1.431
  858W        W 4602   2.080   2.374   2.355
  859W        W 4603   7.742   2.480   9.995
  860W        W 4604   2.306   3.852   3.173
  861W        W 4605   6.673   7.084  11.420
  862W        W 4606   0.497   8.469   3.260
  863W        W 4607   2.750   5.992   0.052
  864W        W 4608   6.683   4.790   2.396
  865W        W 4609   1.306   7.266  11.645
  866W        W 4610   8.932   7.469  10.897
  867W        W 4611   1.171   9.375   3.081
  868W        W 4612   3.657   2.754  10.035
  869W        W 4613   8.063   6.459  10.702
  870W        W 4614   6.452   3.240   0.548
  871W        W 4615   8.655   3.603   2.061
  872W        W 4616   9.530   6.629   1.186
  873W        W 4617   4.164   9.824  10.964
  874W        W 4618   1.443   0.538   2.300
  875W        W 4619   7.888   3.287  10.488
  876W        W 4620   0.316   3.223   9.114
  877W        W 4621   1.766   5.068   3.245
  878W        W 4622   4.135   0.366  10.757
  879W        W 4623   2.587   6.563   2.145
  880W        W 4624   0.528   0.910   9.919
  881W        W 4625   7.537   9.972   1.035
  882W        W 4626   2.055   1.012  11.798
  883W        W 4627   7.397   4.979   9.785
  884W        W 4628   8.461   4.645  10.793
  885W        W 4629  10.051   0.925  10.608
  886W        W 4630   9.652   6.634   2.206
  887W        W 4631   9.356   6.117  10.792
  888W        W 4632   5.001   2.607   8.991
  889W        W 4633   8.491   4.586   8.803
  890W        W 4634   4.672   2.205  11.455
  891W        W 4635  10.234   7.950   1.452
  892W        W 4636   9.100   2.846   0.974
  893W        W 4637   6.571   5.126   0.876
  894W        W 4638   8.192   3.629   8.927
  895W        W 4639  10.409   3.237   9.420
  896W        W 4640   0.716   9.770  10.454
  897W        W 4641   0.864   0.952   1.203
  898W        W 4642   8.125   4.794  11.231
  899W        W 4643   9.392   9.430  10.478
  900W        W 4644   0.488   7.577   0.836
  901W        W 4645   4.003   7.687   1.279
  902W        W 4646   3.587  10.035   0.489
  903W        W 4647   4.723   1.740   8.949
  904W        W 4648   5.624   9.394  11.753
  905W        W 4649   4.267   3.633   0.671
  906W        W 4650   7.519   7.657  10.295
  907W        W 4651   0.811   8.063   2.428
  908W        W 4652   2.548   1.168  11.459
  909W        W 4653   0.938   9.140   1.894
  910W        W 4654   0.812   3.086   2.328
  911W        W 4655   8.010   9.320   3.174
  912W        W 4656   7.533   0.999   3.322
  913W        W 4657   8.541   0.516   0.616
  914W        W 4658   8.402   1.977  11.971
  915W        W 4659   6.988   1.482   0.401
  916W        W 4660   6.534   2.751   3.281
  917W        W 4661   2.252   9.336  11.261
  918W        W 4662   8.101   1.388   9.169
  919W        W 4663   1.808   7.211   8.843
  920W        W 4664   2.162   4.106  10.728
  921W        W 4665   6.519   0.728   0.399
  922W        W 4666   9.883   2.735  11.119
  923W        W 4667   6.395   6.817  10.565
  924W        W 4668   0.928   8.751  10.354
  925W        W 4669   3.535   0.924   1.299
  926W        W 4670   3.320   6.802   0.216
  927W        W 4671  10.018   7.344  11.870
  928W        W 4672   8.868   4.214  10.496
  929W        W 4673   7.018   6.952   9.973
  930W        W 4674   1.529   8.125  11.887
  931W        W 4675   9.072   9.478  11.833
  932W        W 4676   0.589   9.134  11.123
  933W        W 4677   5.486   6.651   4.069
  934W        W 4678   8.399  10.045   8.370
  935W        W 4679   0.573   4.827   0.543
  936W        W 4680   9.324   6.167   8.885
  937W        W 4681   6.614   3.764   1.423
  938W        W 4682   9.334   6.449  10.360
  939W        W 4683   4.387  10.348   2.895
  940W        W 4684   3.886   7.331   2.195
  941W        W 4685   8.410   0.733  11.362
  942W        W 4686   4.560   5.772  11.896
  943W        W 4687   8.723   9.300   2.155
  944W        W 4688   3.687   6.070   1.282
  945W        W 4689   8.319   9.436   0.874
  946W        W 4690   5.177   5.245   9.556
  947W        W 4691   7.903   4.048   1.127
  948W        W 4692   1.824   1.604   0.539
  949W        W 4693   5.078   5.200   0.821
  950W        W 4694   1.712   4.162   3.177
  951W        W 4695   3.168   8.453   9.560
  952W        W 4696   9.931   3.131   9.201
  953W        W 4697   6.100   2.467  10.366
  954W        W 4698   1.906   9.410  10.822
  955W        W 4699   5.620   6.479   2.358
  956W        W 4700   2.597   9.971   9.112
  957W        W 4701   1.005   9.063   2.431
  958W        W 4702   3.820   9.389  11.779
  959W        W 4703   2.692   8.030   3.302
  960W        W 4704   4.592   4.067   8.907
  961W        W 4705   3.667   7.574   3.433
  962W        W 4706   2.389   0.296  11.819
  963W        W 4707   5.658   8.034  11.301
  964W        W 4708   1.416   5.655   2.474
  965W        W 4709   5.253   0.946  11.339
  966W        W 4710   7.550   7.006   8.681
  967W        W 4711   2.911   3.195   8.912
  968W        W 4712   2.638   8.973   9.998
  969W        W 4713   5.648   7.556   8.857
  970W        W 4714   4.086   2.212   8.885
  971W        W 4715   5.972   6.798   9.499
  972W        W 4716   9.836  10.277  11.445
  973W        W 4717   4.242   0.327   2.735
  974W        W 4718   7.460   1.062   2.821
  975W        W 4719   4.292   8.626   2.735
  976W        W 4720   1.841   5.074   9.970
  977W        W 4721   8.873   4.545   2.010
  978W        W 4722   3.201   6.115   9.644
  979W        W 4723   9.013   0.845  11.419
  980W        W 4724   5.556   1.679  10.525
  981W        W 4725   2.805   8.079   1.800
  982W        W 4726   6.662   8.088   2.771
  983W        W 4727   6.654  10.027   1.018
  984W        W 4728   6.695   4.454   0.640
  985W        W 4729   4.827   9.792   0.857
  986W        W 4730  10.419   1.415   0.835
  987W        W 4731  10.315   4.708  11.408
  988W        W 4732   3.544   5.273   9.415
  989W        W 4733   5.466   4.326   1.670
  990W        W 4734   0.167   0.193   2.088
  991W        W 4735   0.846   7.134   3.578
  992W        W 4736   4.562   2.673   2.751
  993W        W 4737   1.164   6.078  10.844
  994W        W 4738   9.072   9.727   2.203
  995W        W 4739   8.797   9.859  11.512
  996W        W 4740   6.879   8.282   2.298
  997W        W 4741   0.214   9.202   2.415
  998W        W 4742   8.939   0.047  10.482
  999W        W 4743  10.287   3.249  11.358
 1000W        W 4744   2.355   2.093   2.049
 1001W        W 4745   7.824   3.292   1.124
 1002W        W 4746   0.789   0.518  11.565
 1003W        W 4747   4.969   4.506   3.049
 1004W        W 4748   2.286   7.834   0.357
 1005W        W 4749   9.872   9.219   2.626
 1006W        W 4750   4.037   3.950   9.154
 1007W        W 4751   5.351   7.903   2.648
 1008W        W 4752   6.592   5.714  11.724
 1009W        W 4753   5.945   2.234  10.780
 1010W        W 4754   5.688   8.563   0.713
 1011W        W 4755  10.307  10.012  11.781
 1012W        W 4756   1.675   9.061   9.115
 1013W        W 4757   2.629   2.795   3.513
 1014W        W 4758   7.428   1.319   1.693
 1015W        W 4759   1.159   1.856   1.620
 1016W        W 4760   3.145   6.124  11.775
 1017W        W 4761   7.923   9.140   0.789
 1018W        W 4762   3.526   7.693   1.654
 1019W        W 4763   3.684   4.678   8.210
 1020W        W 4764   7.093   4.757  10.387
 1021W        W 4765   9.407   3.735  10.145
 1022W        W 4766   8.568   5.658   3.081
 1023W        W 4767   4.002   4.434   1.551
 1024W        W 4768   9.145   3.579  11.337
 1025W        W 4769   9.542   6.358   0.174
 1026W        W 4770   2.647   2.615   3.034
 1027W        W 4771   9.327   7.825  11.506
 1028W        W 4772   8.394  10.187   0.199
 1029W        W 4773   5.565   0.019   8.883
 1030W        W 4774   5.796   9.878   9.600
 1031W        W 4775   1.322   0.769   9.532
 1032W        W 4776   1.236   5.094   3.027
 1033W        W 4777   5.671  10.390   1.985
 1034W        W 4778   5.764   0.658   1.300
 1035W        W 4779   1.870   8.598   3.148
 1036W        W 4780   1.146   1.036   3.602
 1037W        W 4781  10.446   1.783  10.109
 1038W        W 4782   2.348   3.725  11.080
 1039W        W 4783   8.867   5.745   2.663
 1040W        W 4784   8.131   9.266   9.804
 1041W        W 4785   5.220   3.543   1.712
 1042W        W 4786   1.809   8.408  10.193
 1043W        W 4787   5.584   3.684  11.958
 1044W        W 4788   8.332   3.317  10.804
 1045W        W 4789   6.569   8.548   9.840
 1046W        W 4790   2.804   0.397   9.790
 1047W        W 4791   7.546   0.299   2.250
 1048W        W 4792  10.238   5.096   3.277
 1049W        W 4793   1.299   5.925   3.369
 1050W        W 4794   4.586   1.886  11.053
 1051W        W 4795   4.287   3.326  11.259
 1052W        W 4796   8.257  10.215   8.843
 1053W        W 4797   9.740   4.011   1.695
 1054W        W 4798  10.195   5.952   8.997
 1055W        W 4799   2.568   4.523   8.751
 1056W        W 4800   6.672   7.540   1.749
 1057W        W 4801   5.786   6.199  11.521
 1058W        W 4802   6.878   5.169   9.562
 1059W        W 4803   0.923   3.569  10.815
 1060W        W 4804   4.069   0.201  11.236
 1061W        W 4805   9.993   3.234   9.731
 1062W        W 4806   0.849   8.001   2.952
 1063W        W 4807   1.354   9.976  10.613
 1064W        W 4808   0.598   0.546   9.128
 1065W        W 4809   7.107   1.074   8.923
 1066W        W 4810   0.769   2.619   2.992
 1067W        W 4811   8.696   7.309  11.855
 1068W        W 4812   7.155   3.381   8.940
 1069W        W 4813   4.416  10.495   2.399
 1070W        W 4814   7.842   5.183  11.436
 1071W        W 4815   9.536   7.119  10.982
 1072W        W 4816   4.146  10.063  10.038
 1073W        W 4817   7.015   6.082   9.622
 1074W        W 4818   0.164   7.519   9.642
 1075W        W 4819   7.097   4.632   4.246
 1076W        W 4820   7.458   0.853  10.895
 1077W        W 4821   5.253   8.296   0.483
 1078W        W 4822   4.740   9.301   0.937
 1079W        W 4823   9.256   1.611   1.994
 1080W        W 4824   5.147   8.976   1.967
 1081W        W 4825   3.631   8.561   8.965
 1082W        W 4826   6.936   0.174  11.820
 1083W        W 4827   9.896   1.854   1.461
 1084W        W 4828   7.570   5.406  10.999
 1085W        W 4829   8.665   6.826   1.470
 1086W        W 4830   5.781   4.642   1.372
 1087W        W 4831   5.118  10.416   1.507
 1088W        W 4832   8.344   6.210   2.161
 1089W        W 4833   6.143   3.688   1.710
 1090W        W 4834  10.336   1.207   2.624
 1091W        W 4835   3.564   2.724   1.852
 1092W        W 4836   5.253   8.998  11.458
 1093W        W 4837   1.773   7.172   9.830
 1094W        W 4838   9.883   7.058   2.999
 1095W        W 4839   3.680   9.606   0.222
 1096W        W 4840   6.864   2.231  10.694
 1097W        W 4841   9.426   1.205   9.970
 1098W        W 4842   5.360   0.425  10.590
 1099W        W 4843   3.271  10.174  10.875
 1100W        W 4844   8.148   8.389   0.307
 1101W        W 4845   6.514   3.347   2.782
 1102W        W 4846   4.630   7.872   2.320
 1103W        W 4847   2.308   8.352   1.386
 1104W        W 4848   6.082   9.678  10.480
 1105W        W 4849   6.097   1.032   0.188
 1106W        W 4850   3.266   0.519   2.710
 1107W        W 4851   3.900   4.659   2.732
 1108W        W 4852   2.839   3.528  11.788
 1109W        W 4853   5.276   1.355  11.008
 1110W        W 4854   2.942   4.598   9.626
 1111W        W 4855   6.214   1.302  10.556
 1112W        W 4856   3.192   4.619  11.590
 1113W        W 4857   6.553  10.219   0.547
 1114W        W 4858   9.865   1.395  10.686
 1115W        W 4859   0.147   8.317   0.367
 1116W        W 4860   3.405   3.665  10.411
 1117W        W 4861   0.179   6.195   9.866
 1118W        W 4862   4.949   5.638  10.273
 1119W        W 4863   6.165   6.496   1.224
 1120W        W 4864   5.636   3.131  11.140
 1121W        W 4865   4.713   9.117   9.142
 1122W        W 4866   9.533   9.585   0.036
 1123W        W 4867   5.010   4.519   1.882
 1124W        W 4868   1.742   6.010   9.903
 1125W        W 4869   2.193   9.479   9.843
 1126W        W 4870   0.386   2.750   1.166
 1127W        W 4871   2.944   5.950   0.524
 1128W        W 4872   2.224   0.940  10.556
 1129W        W 4873   0.187   1.675  11.074
 1130W        W 4874   3.527   1.702  11.990
 1131W        W 4875   9.965   6.169   1.378
 1132W        W 4876   8.026   7.181   8.512
 1133W        W 4877   5.969   7.478   1.506
 1134W        W 4878   3.688   3.518   1.470
 1135W        W 4879   8.504   5.934   9.595
 1136W        W 4880   1.039   5.986   9.530
 1137W        W 4881   2.829   8.871   2.159
 1138W        W 4882   4.797   3.148   2.703
 1139W        W 4883   9.899   6.021   0.012
 1140W        W 4884   5.008   4.201   8.648
 1141W        W 4885  10.390   7.232   0.219
 1142W        W 4886   9.561   7.070  11.931
 1143W        W 4887   7.584   5.780  11.921
 1144W        W 4888   3.715   1.427   9.351
 1145W        W 4889   0.784   7.027  10.596
 1146W        W 4890   9.186   1.746  10.802
 1147W        W 4891   8.944   3.320   1.084
 1148W        W 4892  10.317   0.468   0.695
 1149W        W 4893   0.310   6.999  10.247
 1150W        W 4894   8.407   5.049   9.628
 1151W        W 4895   0.291   2.732   3.143
 1152W        W 4896   4.413   9.538  10.126
 1153W        W 4897   7.885  10.224   9.578
 1154W        W 4898   2.681   5.654   1.724
 1155W        W 4899   7.184   7.008   0.203
 1156W        W 4900   5.435   7.287   3.712
 1157W        W 4901   8.328  10.498  11.790
 1158W        W 4902   6.464   1.395   9.608
 1159W        W 4903   1.766   4.281   0.629
 1160W        W 4904   9.877   8.905  11.569
 1161W        W 4905   3.519   7.552   1.162
 1162W        W 4906   1.677   3.144   2.990
 1163W        W 4907   6.972   6.054   0.950
 1164W        W 4908   0.492   2.095   0.926
 1165W        W 4909   7.159   9.321   3.279
 1166W        W 4910   2.687   1.930   9.920
 1167W        W 4911   3.703   8.857   0.902
 1168W        W 4912   1.356   0.875  10.533
 1169W        W 4913   9.972   5.717  10.300
 1170W        W 4914   8.755  10.037  10.513
 1171W        W 4915   3.121   9.805  11.353
 1172W        W 4916   1.828   5.739  11.225
 1173W        W 4917   1.020   1.399   3.267
 1174W        W 4918   9.554   7.043   3.444
 1175W        W 4919  10.358   9.864   1.691
 1176W        W 4920   5.737   7.011   2.360
 1177W        W 4921   7.364   5.664   9.101
 1178W        W 4922   2.848   4.832   2.808
 1179W        W 4923   9.487   3.580   3.323
 1180W        W 4924   9.556   4.503   0.428
 1181W        W 4925   5.665   1.306   8.735
 1182W        W 4926   7.044   3.968   2.389
 1183W        W 4927   5.648   3.740   1.991
 1184W        W 4928   7.690   3.832  11.849
 1185W        W 4929   7.170   2.654  10.633
 1186W        W 4930  10.424   4.368   0.763
 1187W        W 4931   7.189   1.244  11.860
 1188W        W 4932   2.931   2.967   8.431
 1189W        W 4933   5.540   2.232   8.801
 1190W        W 4934   8.186   1.912   2.847
 1191W        W 4935   3.325   0.505   2.214
 1192W        W 4936   7.941   7.376   2.699
 1193W        W 4937   0.270   1.350   9.821
 1194W        W 4938   2.425   1.879   8.652
 1195W        W 4939   0.631   8.915   0.941
 1196W        W 4940   6.166   6.004   1.031
 1197W        W 4941   9.083   3.748  10.536
 1198W        W 4942   4.279   1.193   0.902
 1199W        W 4943   2.689   3.745   0.611
 1200W        W 4944   7.890   5.107   0.212
 1201W        W 4945   7.845   8.285  11.330
 1202W        W 4946   7.928   6.615  11.688
 1203W        W 4947   1.232   7.348   3.068
 1204W        W 4948   1.428   6.478  11.016
 1205W        W 4949   7.571   7.910  11.057
 1206W        W 4950   1.645   2.712   3.267
 1207W        W 4951   6.054   1.965   0.749
 1208W        W 4952   2.180   8.580   2.295
 1209W        W 4953   6.874   7.847   9.979
 1210W        W 4954   1.372   5.566   9.413
 1211W        W 4955   1.880   5.916  10.398
 1212W        W 4956   1.797   7.707   8.642
 1213W        W 4957   7.189   1.481  11.321
 1214W        W 4958   2.280   3.785   8.887
 1215W        W 4959  10.022   3.806  10.281
 1216W        W 4960   0.031   9.370   1.434
 1217W        W 4961   9.848   5.485   9.846
 1218W        W 4962   7.644   9.484   8.553
 1219W        W 4963   3.163   2.774   9.355
 1220W        W 4964   7.298   4.418   0.599
 1221W        W 4965   2.956   7.565   8.635
 1222W        W 4966   4.014   7.946   3.358
 1223W        W 4967   3.479   3.162   3.350
 1224W        W 4968   8.193   4.688   0.169
 1225W        W 4969   5.593   1.665   2.515
 1226W        W 4970   3.179   4.109  10.841
 1227W        W 4971   9.524   0.705  11.600
 1228W        W 4972   5.652   8.463   0.211
 1229W        W 4973   2.166   7.336  11.257
 1230W        W 4974   4.584   5.028  10.804
 1231W        W 4975   3.764   1.325  10.367
 1232W        W 4976   2.293   8.380   8.897
 1233W        W 4977   8.943   0.045   1.898
 1234W        W 4978   6.010   5.808   9.574
 1235W        W 4979   0.749  10.155   3.333
 1236W        W 4980   5.712   9.577   2.974
 1237W        W 4981   9.411   1.723   1.513
 1238W        W 4982   3.511   1.686   0.799
 1239W        W 4983   6.941   0.287   9.523
 1240W        W 4984   9.483   0.971   0.917
 1241W        W 4985   9.385   9.627   2.986
 1242W        W 4986   9.306   5.091   9.198
 1243W        W 4987   1.493   7.771   2.923
 1244W        W 4988   2.177   5.793   2.331
 1245W        W 4989   6.181   6.483   3.880
 1246W        W 4990   5.283   3.807   2.352
 1247W        W 4991   0.528   8.294   9.485
 1248W        W 4992   6.222   2.718  10.782
 1249W        W 4993   5.157   3.728   7.989
 1250W        W 4994   4.279   3.891  10.341
 1251W        W 4995   7.393   6.784   3.684
 1252W        W 4996   5.387   7.082  10.564
 1253W        W 4997   5.977   8.381   9.556
 1254W        W 4998   7.205   7.318   0.659
 1255W        W 4999   5.100   0.715   2.158
 1256W        W 5000   4.755   2.705  10.755
 1257W        W 5001   3.376   2.798   0.270
 1258W        W 5002   7.962   0.959   8.869
 1259W        W 5003   5.991   3.904  10.198
 1260W        W 5004   2.185   5.780   8.988
 1261W        W 5005   2.773   4.696   1.946
 1262W        W 5006   9.722   7.153   1.457
 1263W        W 5007   8.574   3.374   3.361
 1264W        W 5008   5.029   7.996   9.788
 1265W        W 5009   1.698   4.686   9.678
 1266W        W 5010   9.114   8.183   9.227
 1267W        W 5011   7.437   5.231   3.601
 1268W        W 5012   6.504   7.410   2.698
 1269W        W 5013   4.576   8.125  10.036
 1270W        W 5014   4.524   9.701   8.536
 1271W        W 5015   7.795  10.422  11.949
 1272W        W 5016   4.105   1.394   0.417
 1273W        W 5017   1.289   6.473   0.320
 1274W        W 5018   8.105   8.908   0.331
 1275W        W 5019   0.135   6.869   8.627
 1276W        W 5020   4.604   5.034   2.680
 1277W        W 5021   9.344   2.419   9.962
 1278W        W 5022  10.135   0.404   9.959
 1279W        W 5023   1.820   1.662  10.052
 1280W        W 5024   1.272   2.188   1.183
 1281W        W 5025   7.955   8.840   3.358
 1282W        W 5026  10.272   6.449   9.672
 1283W        W 5027   0.471   3.464  10.599
 1284W        W 5028   7.049   5.381   0.771
 1285W        W 5029   5.594   9.426   1.468
 1286W        W 5030   3.534   8.318   3.285
 1287W        W 5031   7.470   5.031   0.479
 1288W        W 5032   7.238   9.294   1.871
 1289W        W 5033   9.129   1.345   0.230
 1290W        W 5034   2.876   4.043   3.258
 1291W        W 5035   9.759   0.501   1.852
 1292W        W 5036   1.826   5.566   0.248
 1293W        W 5037   3.115  10.487   9.617
 1294W        W 5038   1.845  10.329  11.532
 1295W        W 5039  10.258   1.960   2.055
 1296W        W 5040   6.873   7.607   1.229
 1297W        W 5041   6.487   3.539  10.742
 1298W        W 5042   8.754  10.430   9.461
 1299W        W 5043   3.212   6.013   2.370
 1300W        W 5044   4.440   4.621   0.816
 1301W        W 5045  10.462   5.422   2.388
 1302W        W 5046   3.062   0.686   3.271
 1303W        W 5047   6.710   5.558  10.841
 1304W        W 5048   8.908   7.650   0.368
 1305W        W 5049   8.445   8.640   3.307
 1306W        W 5050   2.405   0.281   9.454
 1307W        W 5051   8.404   1.798   0.456
 1308W        W 5052   0.793   2.445   8.584
 1309W        W 5053   0.699   4.136   2.238
 1310W        W 5054   6.924   2.257   8.830
 1311W        W 5055   4.644   7.077   1.656
 1312W        W 5056   0.383   6.416  11.898
 1313W        W 5057   3.152   7.646   3.208
 1314W        W 5058   4.195   7.861   9.805
 1315W        W 5059   2.469   9.583   8.772
 1316W        W 5060   7.679   6.529   1.567
 1317W        W 5061   6.841   2.312  11.742
 1318W        W 5062   1.166   7.589  11.263
 1319W        W 5063   4.612   9.945   2.685
 1320W        W 5064   7.794   6.022   4.139
 1321W        W 5065   4.838   1.319  11.257
 1322W        W 5066   6.558   5.878   2.729
 1323W        W 5067   9.914   7.504   1.833
 1324W        W 5068   6.484   0.980   9.290
 1325W        W 5069   2.386   1.477   9.007
 1326W        W 5070   4.762   6.507   1.835
 1327W        W 5071   4.625   6.155  10.374
 1328W        W 5072   6.988   9.446   1.442
 1329W        W 5073   4.142   4.698   9.969
 1330W        W 5074   2.703   3.252  10.864
 1331W        W 5075   4.209   0.350   1.228
 1332W        W 5076   7.696   8.310   0.524
 1333W        W 5077   9.364   0.230   9.553
 1334W        W 5078   2.814   1.440   9.822
 1335W        W 5079   3.247   4.070  11.347
 1336W        W 5080   7.425   9.753   0.451
 1337W        W 5081   1.208   6.500   1.763
 1338W        W 5082  10.407   0.159   1.139
 1339W        W 5083   8.845   3.161   9.534
 1340W        W 5084   6.080   7.370   3.063
 1341W        W 5085   5.080   7.421  10.068
 1342W        W 5086   7.695   7.340   9.927
 1343W        W 5087   3.814   2.239   1.788
 1344W        W 5088   2.591   3.130  11.983
 1345W        W 5089   3.937   2.618   8.579
 1346W        W 5090   7.856   7.022   9.527
 1347W        W 5091   3.895   3.642  11.061
 1348W        W 5092   6.075   0.364   0.871
 1349W        W 5093   2.186   4.376   8.428
 1350W        W 5094   6.221   0.049  10.842
 1351W        W 5095   7.545   2.916   2.289
 1352W        W 5096   5.551   4.364  11.413
 1353W        W 5097   8.204   5.811   3.874
 1354W        W 5098   8.992   7.688   9.343
 1355W        W 5099   4.740   7.234   9.478
 1356W        W 5100   7.929   1.166   1.939
 1357W        W 5101   7.866   8.363   9.830
 1358W        W 5102   3.694   1.392   1.455
 1359W        W 5103   7.432   7.440  11.258
 1360W        W 5104   6.572   6.910   2.714
 1361W        W 5105   8.505   4.571   3.114
 1362W        W 5106   7.920   5.105   8.091
 1363W        W 5107   4.572  10.354  10.045
 1364W        W 5108   5.792   4.632   2.927
 1365W        W 5109   9.709  10.444   1.267
 1366W        W 5110  10.073   0.513  11.813
 1367W        W 5111   5.108   6.153  11.049
 1368W        W 5112   2.306   6.242   3.782
 1369W        W 5113   1.974   1.167   8.789
 1370W        W 5114   1.800   3.205  10.988
 1371W        W 5115   4.108   2.379   0.452
 1372W        W 5116   9.318   0.483   8.702
 1373W        W 5117   2.894   4.017   2.373
 1374W        W 5118   8.951   2.712  10.737
 1375W        W 5119   4.475   6.775  11.814
 1376W        W 5120   0.153   9.327  11.278
 1377W        W 5121  10.276   6.331   2.531
 1378W        W 5122   5.836   7.679   1.961
 1379W        W 5123   2.672   9.958   3.227
 1380W        W 5124   8.387   4.169   9.572
 1381W        W 5125   5.727   8.316   1.152
 1382W        W 5126   4.714   3.220   9.702
 1383W        W 5127   2.624   1.215  10.274
 1384W        W 5128   7.804  10.359   1.253
 1385W        W 5129   8.292   0.264   0.238
 1386W        W 5130   7.067   8.811   3.341
 1387W        W 5131   7.836   9.372   2.653
 1388W        W 5132   2.273   9.837   1.424
 1389W        W 5133   5.994   2.966  10.350
 1390W        W 5134   7.164   7.852   1.662
 1391W        W 5135   1.704   2.639   9.539
 1392W        W 5136   5.427   0.866  10.861
 1393W        W 5137  10.052   0.636   3.167
 1394W        W 5138   1.269   0.534  11.402
 1395W        W 5139   8.538   1.790   1.416
 1396W        W 5140   2.446   2.208   9.560
 1397W        W 5141   1.934   3.305   1.520
 1398W        W 5142   5.715   8.224   2.753
 1399W        W 5143   1.012   2.328   9.579
 1400W        W 5144   0.698   2.893  11.415
 1401W        W 5145   7.680   1.992  10.267
 1402W        W 5146   5.467   0.832   3.099
 1403W        W 5147   3.942   5.644  10.221
 1404W        W 5148   2.918   4.582  10.960
 1405W        W 5149   8.954   6.219   2.803
 1406W        W 5150   5.564   2.045   0.978
 1407W        W 5151   1.595   7.998  10.042
 1408W        W 5152   2.656   6.995   3.432
 1409W        W 5153   7.596   1.402   3.615
 1410W        W 5154   2.787   3.744   1.940
 1411W        W 5155  10.355   3.049   8.920
 1412W        W 5156   9.116   6.690   2.669
 1413W        W 5157   1.206   3.327   0.237
 1414W        W 5158   4.956   0.650   8.245
 1415W        W 5159   3.573   3.225  10.680
 1416W        W 5160   1.432   2.255   9.311
 1417W        W 5161   0.447   6.887  10.959
 1418W        W 5162   2.150   7.687   1.202
 1419W        W 5163   1.333   4.316   8.999
 1420W        W 5164   2.608   2.687   0.810
 1421W        W 5165   9.077   5.541   9.298
 1422W        W 5166   0.293   4.131  11.944
 1423W        W 5167   2.400   0.882   1.938
 1424W        W 5168   2.387   6.099   9.795
 1425W        W 5169   5.010   3.764   9.036
 1426W        W 5170   8.902   5.293   0.443
 1427W        W 5171   6.213   5.492   0.080
 1428W        W 5172   1.482   5.067   1.908
 1429W        W 5173   0.247   0.559   0.972
 1430W        W 5174   6.147   8.397  10.080
 1431W        W 5175   0.317   0.393  11.361
 1432W        W 5176   9.487   4.150   0.066
 1433W        W 5177   7.981   8.753   1.696
 1434W        W 5178  10.264   8.423   3.139
 1435W        W 5179   4.816   4.561   1.409
 1436W        W 5180   0.923   0.320   0.312
 1437W        W 5181   8.847   9.866   3.265
 1438W        W 5182   1.072  10.364   0.163
 1439W        W 5183   7.996   4.621   2.412
 1440W        W 5184  10.473  10.122   9.103
 1441W        W 5185   8.771   5.479   9.724
 1442W        W 5186   8.842   9.045  11.989
 1443W        W 5187   4.766   1.248   0.732
 1444W        W 5188   7.967   6.497   2.650
 1445W        W 5189   5.438   2.144  10.728
 1446W        W 5190   4.210   5.855  10.639
 1447W        W 5191   2.220   2.194  11.135
 1448W        W 5192   5.213   4.243   3.618
 1449W        W 5193   3.697   5.895   2.219
 1450W        W 5194   1.777   9.553   9.030
 1451W        W 5195   5.282   0.062  10.980
 1452W        W 5196   6.109   9.918   2.960
 1453W        W 5197   2.155   6.529   1.880
 1454W        W 5198   8.133   5.726   8.496
 1455W        W 5199   1.656   4.601   0.247
 1456W        W 5200   7.642   3.267  11.932
 1457W        W 5201   2.842   5.760  10.381
 1458W        W 5202   6.634   6.649   3.150
 1459W        W 5203   6.812   2.078  10.206
 1460W        W 5204   5.763   3.753   2.513
 1461W        W 5205   5.175   1.762   0.831
 1462W        W 5206   3.791   3.542   9.380
 1463W        W 5207  10.209   6.038   0.932
 1464W        W 5208   4.231   1.416   9.579
 1465W        W 5209   3.005   0.876   2.407
 1466W        W 5210   3.558   0.146  11.278
 1467W        W 5211   4.677   0.326   9.884
 1468W        W 5212   1.702   3.142   2.487
 1469W        W 5213   1.017   8.312   0.474
 1470W        W 5214   3.534   6.706   8.680
 1471W        W 5215   2.267   5.471  11.990
 1472W        W 5216   6.432   5.221   2.577
 1473W        W 5217   2.268   0.313   3.492
 1474W        W 5218   7.534   1.499   0.730
 1475W        W 5219   9.732  10.123  10.350
 1476W        W 5220   9.590   2.228   1.271
 1477W        W 5221   1.800   7.292  10.358
 1478W        W 5222   0.786   4.213   3.292
 1479W        W 5223   1.677   7.633  11.315
 1480W        W 5224   8.549   5.276   1.285
 1481W        W 5225   5.718   7.123   4.099
 1482W        W 5226   4.573   8.142   8.968
 1483W        W 5227   9.824   7.677   9.377
 1484W        W 5228   5.003   7.903   8.807
 1485W        W 5229   8.753   5.831   0.953
 1486W        W 5230   3.272   6.321   1.454
 1487W        W 5231   6.859   8.128   8.871
 1488W        W 5232   8.988   3.354   1.586
 1489W        W 5233   9.500   4.725  10.957
 1490W        W 5234   2.787   4.590   0.697
 1491W        W 5235   9.847   2.214   0.183
 1492W        W 5236  10.391   6.099   0.286
 1493W        W 5237   3.145   5.656   1.943
 1494W        W 5238   7.872   7.198  10.394
 1495W        W 5239   6.162   0.538  10.748
 1496W        W 5240   7.850   9.757  11.447
 1497W        W 5241   3.964   8.412   3.066
 1498W        W 5242   0.269   8.547   9.125
 1499W        W 5243   5.304   4.491   1.213
 1500W        W 5244   8.476   6.376   1.263
 1501W        W 5245   7.556   9.526   3.569
 1502W        W 5246   3.733  10.080   9.118
 1503W        W 5247   8.585   0.972   2.920
 1504W        W 5248   4.269   1.491  11.103
 1505W        W 5249   3.582   4.311   0.446
 1506W        W 5250   4.541   6.957   0.628
 1507W        W 5251   8.436   9.003   2.499
 1508W        W 5252   2.035   7.708   2.172
 1509W        W 5253   8.480   8.276  11.946
 1510W        W 5254   1.792   2.137   2.741
 1511W        W 5255   5.669   1.298   0.251
 1512W        W 5256   7.072   7.600   3.594
 1513W        W 5257   0.199   5.937  11.888
 1514W        W 5258   9.436   5.030   1.263
 1515W        W 5259   4.274   1.119  10.008
 1516W        W 5260   0.004   8.399  10.984
 1517W        W 5261   9.333   0.545  10.478
 1518W        W 5262   3.162   6.975   2.152
 1519W        W 5263   7.656   4.165   8.306
 1520W        W 5264   1.475   5.473  11.463
 1521W        W 5265   5.117   0.025   3.360
 1522W        W 5266   9.538   5.443   0.973
 1523W        W 5267   9.031   5.862   3.163
 1524W        W 5268   8.776   7.059   2.774
 1525W        W 5269   3.749   8.640   2.658
 1526W        W 5270   2.745  10.408  11.586
 1527W        W 5271   3.489   2.773  10.977
 1528W        W 5272   7.284   2.318   9.754
 1529W        W 5273   3.163   9.198   3.608
 1530W        W 5274  10.301   6.186   3.032
 1531W        W 5275   1.853   3.726  10.911
 1532W        W 5276   7.496   6.098   9.383
 1533W        W 5277   6.027   7.421   2.567
 1534W        W 5278   5.628   8.310   3.630
 1535W        W 5279   2.229   5.796   1.452
 1536W        W 5280   5.532   6.851   0.409
 1537W        W 5281   3.344   1.113   3.346
 1538W        W 5282  10.340   6.436   9.108
 1539W        W 5283   6.770   8.468   0.294
 1540W        W 5284   9.823   5.251  10.444
 1541W        W 5285   4.475   7.538   1.480
 1542W        W 5286   3.688   6.718   9.181
 1543W        W 5287   1.466   5.547   2.982
 1544W        W 5288   5.593   3.097   9.388
 1545W        W 5289   7.555   8.904   1.955
 1546W        W 5290  10.177   5.961   9.863
 1547W        W 5291   9.776   6.117   8.600
 1548W        W 5292   6.122   9.888   9.998
 1549W        W 5293   9.854   3.266  11.126
 1550W        W 5294   6.101   6.475  11.821
 1551W        W 5295   4.487   7.481   1.996
 1552W        W 5296   2.405   7.584  10.156
 1553W        W 5297   4.461   7.244  11.070
 1554W        W 5298   5.614   1.296   9.253
 1555W        W 5299   7.232   4.461   9.020
 1556W        W 5300   7.669   6.949   0.329
 1557W        W 5301  10.238   4.973   2.535
 1558W        W 5302   8.919   6.248   3.489
 1559W        W 5303   8.095   1.269  11.457
 1560W        W 5304   6.758   5.675   9.856
 1561W        W 5305   1.531   1.849   1.978
 1562W        W 5306   4.864   5.652   9.420
 1563W        W 5307   5.121   1.209   3.020
 1564W        W 5308   3.591   3.731   8.934
 1565W        W 5309   7.477   6.761  11.866
 1566W        W 5310   5.680   2.805   1.592
 1567W        W 5311   3.709   5.876   3.157
 1568W        W 5312   6.120   5.932  11.819
 1569W        W 5313   2.820   0.727  11.492
 1570W        W 5314   7.357   2.356  11.764
 1571W        W 5315   5.291   9.309   2.949
 1572W        W 5316   9.646   5.444   9.357
 1573W        W 5317   2.166   8.056  10.180
 1574W        W 5318   8.033   4.475   3.925
 1575W        W 5319   9.580   0.460   0.599
 1576W        W 5320   4.512   0.728   0.906
 1577W        W 5321   2.188   4.084   0.852
 1578W        W 5322   1.388   9.364  11.611
 1579W        W 5323   1.062   8.390  10.694
 1580W        W 5324   1.597   0.765   0.795
 1581W        W 5325   7.827   1.156   2.472
 1582W        W 5326   9.188   5.613   3.600
 1583W        W 5327   1.846   9.245   0.347
 1584W        W 5328   9.935   0.262   2.767
 1585W        W 5329   1.390   8.444   9.275
 1586W        W 5330   8.851   0.794   9.030
 1587W        W 5331   6.545   5.028  11.064
 1588W        W 5332   8.959   7.908   3.362
 1589W        W 5333   5.414   7.102   8.771
 1590W        W 5334   1.837   8.037   9.115
 1591W        W 5335   6.357   2.427  11.936
 1592W        W 5336   1.231   1.137   0.031
 1593W        W 5337   3.354   8.746   0.447
 1594W        W 5338   5.719   0.190  11.435
 1595W        W 5339   7.108   6.579   1.526
 1596W        W 5340   7.989   7.692  10.627
 1597W        W 5341   9.265   2.387  10.469
 1598W        W 5342   9.825   6.138   2.320
 1599W        W 5343   7.267   2.937   0.913
 1600W        W 5344   0.952   5.160   0.568
 1601W        W 5345  10.349   4.514   1.255
 1602W        W 5346   3.562   3.661   9.817
 1603W        W 5347   8.959   3.586   0.282
 1604W        W 5348   6.013   5.202  10.126
 1605W        W 5349   9.761   8.161  10.770
 1606W        W 5350   8.874   4.377   2.564
 1607W        W 5351   7.388   6.566   1.959
 1608W        W 5352   1.305   5.733   9.927
 1609W        W 5353   0.014   8.748   2.253
 1610W        W 5354   7.604   8.097   1.477
 1611W        W 5355   6.940   4.541  11.817
 1612W        W 5356   5.495   6.222   2.783
 1613W        W 5357   8.195   0.674   9.679
 1614W        W 5358   6.023   9.175   1.734
 1615W        W 5359   5.317   9.868   0.937
 1616W        W 5360   7.657   9.558  11.020
 1617W        W 5361   7.098   3.577   2.067
 1618W        W 5362   4.720   3.648   0.923
 1619W        W 5363   8.510   1.486   9.953
 1620W        W 5364   8.426   3.800   2.466
 1621W        W 5365   2.511   1.618   0.899
 1622W        W 5366   4.133   6.574   9.384
 1623W        W 5367   3.355   2.302   9.627
 1624W        W 5368   9.627   3.469  11.550
 1625W        W 5369   6.135   0.317   1.398
 1626W        W 5370   5.203   3.914   9.508
 1627W        W 5371   4.890   9.034   2.854
 1628W        W 5372   3.244   7.465   3.680
 1629W        W 5373   9.405   9.762   1.751
 1630W        W 5374   1.600  10.471   2.946
 1631W        W 5375   8.500   2.784   9.471
 1632W        W 5376   4.103   4.135   1.949
 1633W        W 5377   1.324   9.447   9.263
 1634W        W 5378   2.827   7.354   0.489
 1635W        W 5379   8.949   3.160  11.020
 1636W        W 5380   5.021  10.476   0.324
 1637W        W 5381   1.236   2.740   1.451
 1638W        W 5382   8.531   5.525  10.551
 1639W        W 5383   2.673   6.030   2.890
 1640W        W 5384   0.220   2.719   9.122
 1641W        W 5385   6.990   6.101   3.561
 1642W        W 5386   4.450   5.670  10.234
 1643W        W 5387   4.286   1.409   3.563
 1644W        W 5388   4.084   6.126   2.891
 1645W        W 5389   7.176   3.206  11.699
 1646W        W 5390   5.936   5.636  10.414
 1647W        W 5391   1.417   6.893   2.848
 1648W        W 5392   0.916   2.697  10.185
 1649W        W 5393   7.225   3.697   2.915
 1650W        W 5394   4.987   5.177   0.323
 1651W        W 5395   7.047   0.366   1.679
 1652W        W 5396   6.030   2.451   2.214
 1653W        W 5397   5.586   2.447   1.951
 1654W        W 5398   7.827   5.695   8.895
 1655W        W 5399   2.166   7.788  11.464
 1656W        W 5400   8.535   0.692   1.536
 1657W        W 5401   5.511  10.232  11.444
 1658W        W 5402   4.773   8.083  11.692
 1659W        W 5403   4.610   5.967   1.171
 1660W        W 5404  10.349   3.118   2.960
 1661W        W 5405   1.949   1.368   9.256
 1662W        W 5406   4.755   3.637  10.488
 1663W        W 5407   0.524   5.221   0.894
 1664W        W 5408   0.531   9.371   0.715
 1665W        W 5409   9.806   2.347   9.778
 1666W        W 5410   2.763   7.859   2.819
 1667W        W 5411   1.230   6.566   2.268
 1668W        W 5412   0.977   9.413   8.420
 1669W        W 5413   6.133   1.048  11.449
 1670W        W 5414   2.233   6.814   2.429
 1671W        W 5415   2.134   4.311   0.132
 1672W        W 5416   0.393   6.560   8.967
 1673W        W 5417   3.942   3.175   3.609
 1674W        W 5418   5.473   3.407   3.699
 1675W        W 5419   4.712   1.268   2.647
 1676W        W 5420   5.171   1.208   1.486
 1677W        W 5421   3.913   8.942   3.048
 1678W        W 5422   1.604   9.175  10.485
 1679W        W 5423   1.107   8.487   1.413
 1680W        W 5424   6.196   1.407   2.320
 1681W        W 5425   3.824   2.812   0.548
 1682W        W 5426   7.566   3.090   9.176
 1683W        W 5427   1.357   2.452  11.580
 1684W        W 5428   5.111   2.232   0.626
 1685W        W 5429   6.359   7.302  10.418
 1686W        W 5430   9.822   1.796  11.451
 1687W        W 5431   1.004   1.403   1.431
 1688W        W 5432   6.386   1.990   1.553
 1689W        W 5433   5.664   8.523   3.165
 1690W        W 5434   4.213   6.735   2.388
 1691W        W 5435   2.299   0.848   2.897
 1692W        W 5436   5.643   3.275   1.791
 1693W        W 5437   7.361   6.858   0.705
 1694W        W 5438   4.477   2.173   0.077
 1695W        W 5439   2.743   5.649  11.254
 1696W        W 5440   7.608   4.080   3.036
 1697W        W 5441  10.240   5.727  11.803
 1698W        W 5442   8.056   1.667  11.782
 1699W        W 5443   5.609   3.159   3.283
 1700W        W 5444   7.902   1.953  10.740
 1701W        W 5445   2.089   4.209   1.847
 1702W        W 5446   5.537  10.259   0.369
 1703W        W 5447   2.243  10.385   9.781
 1704W        W 5448   5.236   2.041   2.674
 1705W        W 5449   2.316   5.148   0.375
 1706W        W 5450   4.780   7.153   8.990
 1707W        W 5451   2.835   9.028   9.028
 1708W        W 5452  10.060   9.441   1.678
 1709W        W 5453   6.949   6.565   0.023
 1710W        W 5454   5.661   2.205   0.495
 1711W        W 5455   9.673   1.795  10.953
 1712W        W 5456   5.543   7.327   1.237
 1713W        W 5457   0.285   4.707   0.943
 1714W        W 5458   9.867   8.067  11.260
 1715W        W 5459   7.340   9.669  11.506
 1716W        W 5460   4.165   9.127   0.728
 1717W        W 5461   9.267   5.467   0.099
 1718W        W 5462   4.632   8.225   2.702
 1719W        W 5463   0.244   2.874  10.889
 1720W        W 5464   6.401   2.473   0.859
 1721W        W 5465   3.341   0.733  10.031
 1722W        W 5466   2.789   1.416  11.861
 1723W        W 5467   0.646   5.066   2.762
 1724W        W 5468  10.255   3.209   0.302
 1725W        W 5469   2.712   7.206   9.803
 1726W        W 5470   2.926   9.029  10.477
 1727W        W 5471   2.853   6.978   0.127
 1728W        W 5472   7.668   7.980   0.977
 1729W        W 5473   0.788  10.097   2.032
 1730W        W 5474   3.949   5.207  11.462
 1731W        W 5475   6.174   2.406   1.351
 1732W        W 5476  10.254   6.512  10.627
 1733W        W 5477   6.257   8.552   0.340
 1734W        W 5478   4.151   6.872   0.238
 1735W        W 5479   2.153   6.091  10.781
 1736W        W 5480   2.618   5.525   2.210
 1737W        W 5481  10.480   6.990  10.755
 1738W        W 5482   5.097   3.114  10.890
 1739W        W 5483   3.051   1.864   1.731
 1740W        W 5484   7.447   7.140   2.725
 1741W        W 5485   6.126   3.406   2.420
 1742W        W 5486   0.264   6.199  11.431
 1743W        W 5487   7.534   8.614   1.454
 1744W        W 5488   9.137   7.102   2.383
 1745W        W 5489   8.678   4.806   0.385
 1746W        W 5490   1.155   7.576   9.379
 1747W        W 5491   4.337   9.955   0.907
 1748W        W 5492   2.472   9.885  11.927
 1749W        W 5493   4.152   2.245   1.418
 1750W        W 5494   7.711   4.825  11.778
 1751W        W 5495   9.160   3.506   2.939
 1752W        W 5496   2.805   6.110   9.001
 1753W        W 5497   0.483   7.356   0.347
 1754W        W 5498   1.489   1.960   9.742
 1755W        W 5499   9.127   7.527   0.802
 1756W        W 5500  10.450   0.794   2.897
 1757W        W 5501   4.965   3.333   1.329
 1758W        W 5502   2.300   3.506  11.580
 1759W        W 5503   9.844   1.384   2.616
 1760W        W 5504   4.982   1.250   9.013
 1761W        W 5505   4.328   3.741   2.186
 1762W        W 5506   9.847   8.363  11.831
 1763W        W 5507   7.436   4.055   1.649
 1764W        W 5508   2.645   3.567   2.393
 1765W        W 5509   4.598   7.240   3.425
 1766W        W 5510   3.256   1.381   9.575
 1767W        W 5511   0.393   8.061   9.002
 1768W        W 5512   8.370   7.022   3.121
 1769W        W 5513   5.852   8.899   8.837
 1770W        W 5514   3.531   6.416  11.930
 1771W        W 5515   2.467   5.213  11.152
 1772W        W 5516   2.900   9.898   1.289
 1773W        W 5517   3.526   4.524   1.383
 1774W        W 5518   7.002  10.470  11.345
 1775W        W 5519   2.891   7.652  10.053
 1776W        W 5520   9.483   2.632   2.016
 1777W        W 5521   5.131   8.311  10.569
 1778W        W 5522   2.695   8.610   8.672
 1779W        W 5523   0.580   3.517   1.616
 1780W        W 5524   5.483   4.699  10.133
 1781W        W 5525   2.308   7.291   2.714
 1782W        W 5526   4.098   6.676   8.865
 1783W        W 5527   5.350   7.981   1.256
 1784W        W 5528   0.054   5.726  11.418
 1785W        W 5529   7.507   0.727   8.993
 1786W        W 5530   5.499   2.658   9.134
 1787W        W 5531   5.725   9.547   0.948
 1788W        W 5532   3.027   2.208   1.356
 1789W        W 5533   8.889   8.559  11.845
 1790W        W 5534   3.298   1.452  11.098
 1791W        W 5535   2.840   6.245  10.514
 1792W        W 5536   8.312   2.105   4.049
 1793W        W 5537   1.141   6.982   0.441
 1794W        W 5538   5.948   6.964   1.357
 1795W        W 5539   2.105   4.273   2.864
 1796W        W 5540   7.142   8.181   1.255
 1797W        W 5541   5.717   5.593  10.912
 1798W        W 5542   4.191   2.859   0.184
 1799W        W 5543   5.947   1.202   1.911
 1800W        W 5544   6.153   6.162   0.266
 1801W        W 5545   5.196   2.872   0.276
 1802W        W 5546  10.492   2.123  11.070
 1803W        W 5547   3.089   2.713  11.310
 1804W        W 5548   6.569   1.884   2.540
 1805W        W 5549   9.872   9.862   1.389
 1806W        W 5550   4.858   9.862  11.693
 1807W        W 5551   7.415   7.294  11.768
 1808W        W 5552   6.044   1.620   9.291
 1809W        W 5553   9.464   8.484   2.263
 1810W        W 5554   3.888   3.639  10.545
 1811W        W 5555   4.904   7.497  11.098
 1812W        W 5556   3.713   9.546   1.491
 1813W        W 5557   3.582   2.667   3.011
 1814W        W 5558   5.169   3.407   9.406
 1815W        W 5559   4.583   6.906   1.185
 1816W        W 5560  10.496   9.121  11.906
 1817W        W 5561   1.911   0.397   9.444
 1818W        W 5562   3.565   9.008   1.377
 1819W        W 5563   6.155   0.634   9.516
 1820W        W 5564   2.048   3.780   1.261
 1821W        W 5565   3.530   2.239   1.357
 1822W        W 5566   5.559   6.059   9.733
 1823W        W 5567   4.209   9.139   9.841
 1824W        W 5568   5.750  10.074   0.814
 1825W        W 5569   8.581   8.567   2.287
 1826W        W 5570   7.052   0.990  11.406
 1827W        W 5571   9.537   2.634   2.528
 1828W        W 5572   0.142   4.072   2.329
 1829W        W 5573   1.689   2.372   9.987
 1830W        W 5574   6.198   7.485   9.975
 1831W        W 5575   6.560   4.533   0.137
 1832W        W 5576   7.668   7.475   2.239
 1833W        W 5577  10.212   2.373   2.410
 1834W        W 5578   6.504   2.819   9.480
 1835W        W 5579   7.548   3.950   0.737
 1836W        W 5580   4.742   0.237   2.945
 1837W        W 5581   8.674   1.724   2.871
 1838W        W 5582   4.069   6.474  11.938
 1839W        W 5583   8.876   7.055   3.269
 1840W        W 5584   6.880   6.807   0.552
 1841W        W 5585   2.777   9.407   1.410
 1842W        W 5586   4.423   4.579   2.797
 1843W        W 5587   7.922   2.796   0.360
 1844W        W 5588   6.145   8.947   2.445
 1845W        W 5589   5.045  10.423  11.436
 1846W        W 5590   1.705   3.784   0.765
 1847W        W 5591   2.182   2.624   9.749
 1848W        W 5592   5.640   7.045   3.282
 1849W        W 5593   0.685   4.865   9.554
 1850W        W 5594   1.297   9.562   2.105
 1851W        W 5595   3.869   7.090   3.250
 1852W        W 5596   6.954   3.284   0.694
 1853W        W 5597   4.343   4.718   1.305
 1854W        W 5598  10.174   8.276  10.478
 1855W        W 5599   8.832   4.957   9.023
 1856W        W 5600   0.961   7.987   8.630
 1857W        W 5601   3.684   4.931   2.331
 1858W        W 5602   1.407   4.093  11.503
 1859W        W 5603   7.924   9.058  11.858
 1860W        W 5604   7.168   9.791   1.754
 1861W        W 5605  10.319   9.866   3.258
 1862W        W 5606   8.471   4.699   2.627
 1863W        W 5607   0.286   2.725   1.699
 1864W        W 5608  10.404   1.128   1.899
 1865W        W 5609   9.718   8.751   1.021
 1866W        W 5610   6.964   1.703   3.449
 1867W        W 5611   2.079   2.722  10.948
 1868W        W 5612   0.364   0.474   3.407
 1869W        W 5613   4.539   6.768  11.268
 1870W        W 5614   5.166   3.499   2.731
 1871W        W 5615   3.668   6.273   9.456
 1872W        W 5616   1.732   2.723   2.209
 1873W        W 5617   9.503   5.673   3.162
 1874W        W 5618   5.843   3.794   8.669
 1875W        W 5619   3.051   0.854   1.152
 1876W        W 5620   5.156   9.270  10.766
 1877W        W 5621   8.520   8.136   2.558
 1878W        W 5622   5.907   2.974   9.784
 1879W        W 5623   0.211   5.564   2.873
 1880W        W 5624   2.309   4.211   1.366
 1881W        W 5625   6.596   2.003   0.816
 1882W        W 5626   1.816   9.894  10.934
 1883W        W 5627   0.675   8.058   1.021
 1884W        W 5628  10.374   2.695   9.840
 1885W        W 5629   1.714   1.782  11.590
 1886W        W 5630   0.945   7.806   1.912
 1887W        W 5631   1.241   3.765   0.524
 1888W        W 5632   6.290   2.617   9.900
 1889W        W 5633   0.808   1.870  10.271
 1890W        W 5634   8.306   6.105   0.861
 1891W        W 5635   1.831   8.109   1.252
 1892W        W 5636   4.834   4.009   9.867
 1893W        W 5637   9.295   0.703   1.803
 1894W        W 5638  10.454   7.065   3.147
 1895W        W 5639   3.183   5.656   0.001
 1896W        W 5640   5.744   7.727   2.887
 1897W        W 5641   1.743   3.994   8.917
 1898W        W 5642   9.301  10.077   3.229
 1899W        W 5643   7.500   8.705   9.981
 1900W        W 5644   3.798   7.347   0.793
 1901W        W 5645   8.546   0.445   9.271
 1902W        W 5646   3.643   6.067   0.690
 1903W        W 5647   2.830   7.184   8.937
 1904W        W 5648   6.089   4.426   9.460
 1905W        W 5649   3.434   2.769   8.502
 1906W        W 5650   3.197   1.799  11.465
 1907W        W 5651   9.501   5.238   1.770
 1908W        W 5652  10.259   7.704   9.098
 1909W        W 5653   3.846   6.111   0.219
 1910W        W 5654   6.441   2.355   2.476
 1911W        W 5655   4.979   6.251   9.068
 1912W        W 5656   5.686   4.068   0.698
 1913W        W 5657   1.204   7.892   0.273
 1914W        W 5658   4.457   0.019   9.558
 1915W        W 5659   0.518   8.316  10.826
 1916W        W 5660   4.193   4.866   1.782
 1917W        W 5661   1.748   6.623   2.492
 1918W        W 5662  10.227   5.659   1.358
 1919W        W 5663   6.292   3.625   0.196
 1920W        W 5664   7.640   9.447   2.176
 1921W        W 5665   8.107   6.591   9.277
 1922W        W 5666   7.031   5.794   0.475
 1923W        W 5667   6.424   4.883   2.988
 1924W        W 5668   6.453   6.368  10.303
 1925W        W 5669  10.360   2.669   0.407
 1926W        W 5670   6.036   1.130   9.515
 1927W        W 5671   1.409   8.963   9.565
 1928W        W 5672  10.437   4.593   3.031
 1929W        W 5673   9.532   5.866   0.329
 1930W        W 5674   3.699   9.977  11.060
 1931W        W 5675   5.231   0.394   3.006
 1932W        W 5676   6.375   1.902   9.598
 1933W        W 5677   3.195   2.063   3.666
 1934W        W 5678   4.537   3.607   9.985
 1935W        W 5679   8.336   8.056  10.493
 1936W        W 5680   2.897   3.685  11.061
 1937W        W 5681   9.910   6.195   0.528
 1938W        W 5682   0.790   2.695   1.954
 1939W        W 5683   0.197   1.931   0.506
 1940W        W 5684   7.994   4.226   0.289
 1941W        W 5685   8.048   4.375   8.615
 1942W        W 5686   9.874   3.547   8.927
 1943W        W 5687   9.447   4.606   0.966
 1944W        W 5688   0.049   0.025   3.542
 1945W        W 5689   3.139   7.830   9.046
 1946W        W 5690   3.375   0.853   0.309
 1947W        W 5691  10.313   0.023   8.825
 1948W        W 5692  10.038   1.215   8.622
 1949W        W 5693   6.108   7.468   9.079
 1950W        W 5694   7.464   3.114   0.414
 1951W        W 5695   6.177   1.238   0.975
 1952W        W 5696   5.067   1.603   1.785
 1953W        W 5697  10.460   2.143   2.805
 1954W        W 5698   5.679   3.707   1.485
 1955W        W 5699   6.611   2.547  10.360
 1956W        W 5700   1.465   9.155   3.423
 1957W        W 5701   8.047   0.247   1.467
 1958W        W 5702   0.771   0.225   2.783
 1959W        W 5703   1.363   3.679  11.072
 1960W        W 5704   6.888   2.880   9.046
 1961W        W 5705   4.790   9.436  10.462
 1962W        W 5706   0.219   6.954   0.498
 1963W        W 5707   0.970   5.647   1.686
 1964W        W 5708   2.334   5.560   1.001
 1965W        W 5709   4.733   6.614   8.598
 1966W        W 5710   8.561   3.695   1.576
 1967W        W 5711   2.636   0.819  11.052
 1968W        W 5712   5.565   7.419   0.169
 1969W        W 5713   0.752   5.073   8.992
 1970W        W 5714   1.309   1.476   9.849
 1971W        W 5715   1.777  10.305   9.041
 1972W        W 5716   5.765   5.421   0.619
 1973W        W 5717   4.948   6.989  10.317
 1974W        W 5718   9.842   5.997   2.856
 1975W        W 5719   7.171   4.115   9.744
 1976W        W 5720  10.490   5.568   3.354
 1977W        W 5721   5.420   8.067   3.207
 1978W        W 5722   7.958   7.371   0.390
 1979W        W 5723   4.784   4.953   9.404
 1980W        W 5724   5.377   6.203   8.744
 1981W        W 5725   6.647   4.958   0.385
 1982W        W 5726  10.190   4.559   2.095
 1983W        W 5727   8.351   1.349   0.760
 1984W        W 5728   0.053   6.673  11.576
 1985W        W 5729   8.227   4.137   0.742
 1986W        W 5730   2.628   4.480   9.250
 1987W        W 5731   4.587   2.673   9.315
 1988W        W 5732   1.788   5.648   1.668
 1989W        W 5733   4.268   7.954   1.949
 1990W        W 5734  10.465   4.568  11.931
 1991W        W 5735   3.636   5.408  11.818
 1992W        W 5736   1.712   3.798   9.814
 1993W        W 5737   2.941   0.721   0.648
 1994W        W 5738   6.004   1.605   9.785
 1995W        W 5739   0.455   4.275   8.709
 1996W        W 5740  10.411   2.332   9.069
 1997W        W 5741   4.512   3.598   8.100
 1998W        W 5742   9.494  10.362   0.771
 1999W        W 5743   9.294   8.785   1.873
 2000W        W 5744   8.769   5.270   3.334
 2001W        W 5745   8.994  10.289   2.852
 2002W        W 5746  10.187   7.882  10.884
 2003W        W 5747   9.722   9.145   8.417
 2004W        W 5748   0.519   6.981   2.415
 2005W        W 5749   3.066   7.651   1.893
 2006W        W 5750  10.283   5.827   2.658
 2007W        W 5751   2.318   9.923   2.438
 2008W        W 5752   4.665   7.633   9.773
 2009W        W 5753   7.816   4.631   9.879
 2010W        W 5754   5.068   5.167   1.906
 2011W        W 5755   0.523   6.387  11.025
 2012W        W 5756   6.843   3.148   3.120
 2013W        W 5757   2.133   2.562  11.472
 2014W        W 5758   5.472   6.901   0.965
 2015W        W 5759   2.356  10.423   3.142
 2016W        W 5760   8.500   3.584   0.991
 2017W        W 5761   6.016   6.991   9.969
 2018W        W 5762   3.717   3.084  11.964
 2019W        W 5763   0.344  10.489   9.068
 2020W        W 5764   6.548  10.126   1.906
 2021W        W 5765   0.956   9.870   9.027
 2022W        W 5766   6.021   4.232   8.902
 2023W        W 5767   2.118   9.850  11.519
 2024W        W 5768   6.595   9.518   1.096
 2025W        W 5769   8.750   6.458   0.315
 2026W        W 5770   1.275   3.412  10.415
 2027W        W 5771   8.090   0.021  10.984
 2028W        W 5772   0.920   8.641   0.121
 2029W        W 5773   1.450   5.360   8.892
 2030W        W 5774   6.628   8.627   0.760
 2031W        W 5775   3.157   8.040   8.566
 2032W        W 5776   3.405   3.123   2.234
 2033W        W 5777   0.757   5.198   1.763
 2034W        W 5778   1.006   9.469   1.393
 2035W        W 5779   8.816   5.552  11.299
 2036W        W 5780   2.240   0.801   1.412
 2037W        W 5781   3.271   1.674   8.726
 2038W        W 5782   2.298   4.693   2.160
 2039W        W 5783   1.709   6.687   9.325
 2040W        W 5784  10.339  10.335  11.391
 2041W        W 5785   0.285   1.789   1.380
 2042W        W 5786   0.257   2.322   3.907
 2043W        W 5787   5.315   8.601   8.460
 2044W        W 5788   8.597   0.798   1.035
 2045W        W 5789   1.980   0.353   3.062
 2046W        W 5790   9.846   5.168  11.384
 2047W        W 5791   6.682   4.457   2.774
 2048W        W 5792   5.221   0.993   0.206
 2049W        W 5793   1.908   2.260   3.211
 2050W        W 5794   0.270   6.107   1.776
 2051W        W 5795   2.365   6.121   9.291
 2052W        W 5796   3.455   9.616   3.694
 2053W        W 5797   3.189   4.577  10.071
 2054W        W 5798   1.792   2.280  10.841
 2055W        W 5799   9.248   5.424  11.568
 2056W        W 5800   0.031   1.256   3.118
 2057W        W 5801   8.648   3.599   2.909
 2058W        W 5802   4.530   6.685  10.353
 2059W        W 5803   6.986   3.240   0.180
 2060W        W 5804   4.265  10.283   9.153
 2061W        W 5805   3.083   1.178  11.500
 2062W        W 5806   2.145   6.974   0.498
 2063W        W 5807   7.494   2.595  11.336
 2064W        W 5808   6.114   3.980   9.716
 2065W        W 5809   6.999   8.700  11.878
 2066W        W 5810   4.655   3.616   3.446
 2067W        W 5811   2.678   5.273  10.279
 2068W        W 5812   8.493   7.192  10.949
 2069W        W 5813   3.819   3.586   0.068
 2070W        W 5814   5.177   3.513   3.243
 2071W        W 5815   0.147  10.039  10.001
 2072W        W 5816   1.648   5.162   2.728
 2073W        W 5817   1.910   1.770   8.818
 2074W        W 5818   4.306   7.041   9.190
 2075W        W 5819   9.872  10.010   1.872
 2076W        W 5820   7.007   2.214   2.203
 2077W        W 5821   5.710   6.826  10.890
 2078W        W 5822   2.073   4.840   0.033
 2079W        W 5823   7.915   1.657   2.478
 2080W        W 5824   5.955   5.531   1.481
 2081W        W 5825   1.123   4.520  11.458
 2082W        W 5826   2.740   5.579  11.749
 2083W        W 5827   2.730   8.495  11.225
 2084W        W 5828   7.094   1.734   1.970
 2085W        W 5829   1.351   1.163   1.172
 2086W        W 5830   4.213   2.338   3.519
 2087W        W 5831   0.553   7.808   9.521
 2088W        W 5832   2.966   9.993  11.847
 2089W        W 5833   1.329   0.912  11.057
 2090W        W 5834   5.614   4.641   9.635
 2091W        W 5835   7.945   3.641   2.437
 2092W        W 5836   8.963   5.366   0.985
 2093W        W 5837   7.914   2.166  11.897
 2094W        W 5838   0.761   5.986   3.420
 2095W        W 5839   3.866   7.120   2.699
 2096W        W 5840   3.613   4.167   8.595
 2097W        W 5841   8.939   2.711   9.211
 2098W        W 5842   7.754   2.805   0.847
 2099W        W 5843   4.694   4.015  11.907
 2100W        W 5844   0.839  10.141   9.478
 2101W        W 5845   8.794   7.904  10.636
 2102W        W 5846   5.217   2.306   3.135
 2103W        W 5847   1.864   3.119   3.469
 2104W        W 5848   3.312   9.661  10.896
 2105W        W 5849   8.629   0.929  11.842
 2106W        W 5850  10.421   4.666  10.826
 2107W        W 5851   7.161   8.017   2.661
 2108W        W 5852   4.182   9.418   3.294
 2109W        W 5853   2.355   3.227   3.404
 2110W        W 5854   7.677   1.287  10.998
 2111W        W 5855   9.411   3.092   1.800
 2112W        W 5856   7.450   7.002   3.224
 2113W        W 5857   5.468   9.394   2.017
 2114W        W 5858   4.768   0.798   0.243
 2115W        W 5859   6.049   6.060   1.541
 2116W        W 5860   5.505   4.090   8.218
 2117W        W 5861   7.633   1.527  10.030
 2118W        W 5862   3.295   7.215   1.704
 2119W        W 5863   0.324   2.839   0.281
 2120W        W 5864   4.691   1.450  10.787
 2121W        W 5865   2.221   6.490   2.841
 2122W        W 5866   1.200   7.977  10.941
 2123W        W 5867   7.451  10.092  10.249
 2124W        W 5868   8.141   0.507   1.011
 2125W        W 5869   8.434   4.049   8.697
 2126W        W 5870   7.063   3.829   3.368
 2127W        W 5871   1.614   9.727   0.339
 2128W        W 5872   8.336   8.444   9.017
 2129W        W 5873   1.408   9.294   1.675
 2130W        W 5874   1.630   4.131   1.632
 2131W        W 5875   7.508   8.098  10.578
 2132W        W 5876   9.021   6.645   1.149
 2133W        W 5877   1.454   1.444   3.643
 2134W        W 5878   2.800   2.199   0.874
 2135W        W 5879   8.926   6.170   1.323
 2136W        W 5880   1.274   3.807  10.090
 2137W        W 5881   0.368   0.500   2.907
 2138W        W 5882   0.454   8.772   9.577
 2139W        W 5883   7.946   0.704   3.284
 2140W        W 5884   9.106   0.784   9.909
 2141W        W 5885   8.078   2.851  10.230
 2142W        W 5886   1.100   6.292   3.663
 2143W        W 5887   8.493   1.892   9.617
 2144W        W 5888   9.481  10.489   2.951
 2145W        W 5889   7.046   2.397   0.204
 2146W        W 5890   8.794   0.241   2.358
 2147W        W 5891   1.823   8.736   0.407
 2148W        W 5892  10.326   8.960   2.698
 2149W        W 5893   1.013   5.309  11.251
 2150W        W 5894   3.173   2.814   9.873
 2151W        W 5895   0.733   1.771   3.053
 2152W        W 5896   7.468   7.406   0.268
 2153W        W 5897   9.961   4.695   2.891
 2154W        W 5898   4.691   3.742   0.396
 2155W        W 5899   9.926   1.229   0.797
 2156W        W 5900   9.279   0.292  11.407
 2157W        W 5901   1.300   9.899   9.532
 2158W        W 5902   2.918   4.823   8.558
 2159W        W 5903   9.077   6.694   0.639
 2160W        W 5904   8.939   8.447   3.083
 2161W        W 5905   8.090   3.545  11.824
 2162W        W 5906   6.815   8.989   0.245
 2163W        W 5907   6.125   9.534   1.372
 2164W        W 5908   7.942   6.010   2.395
 2165W        W 5909   7.763   7.636  11.969
 2166W        W 5910   4.359   2.775   3.258
 2167W        W 5911   4.106   5.022   0.921
 2168W        W 5912   3.374   9.928   1.479
 2169W        W 5913   7.692   9.267   9.010
 2170W        W 5914  10.309   8.423   2.600
 2171W        W 5915   5.257   1.455   0.004
 2172W        W 5916   7.069   0.399  10.430
 2173W        W 5917   2.582   2.066   1.595
 2174W        W 5918   4.452   2.763   0.606
 2175W        W 5919   1.314   6.859  11.959
 2176W        W 5920   2.696   1.175   2.759
 2177W        W 5921   4.210   4.803   2.338
 2178W        W 5922   0.005   4.712   1.715
 2179W        W 5923   7.188  10.281   2.850
 2180W        W 5924   4.627   8.967  10.621
 2181W        W 5925   9.302   5.724   1.726
 2182W        W 5926   8.462   2.345   0.358
 2183W        W 5927   3.442   9.103   2.896
 2184W        W 5928   3.104   2.740   2.095
 2185W        W 5929  10.309   2.554   3.080
 2186W        W 5930   5.094   9.794   1.991
 2187W        W 5931  10.258   9.702  10.007
 2188W        W 5932   5.577   9.293   0.258
 2189W        W 5933   1.780   8.649   2.618
 2190W        W 5934   7.013   2.829   0.475
 2191W        W 5935   9.880   8.588   9.548
 2192W        W 5936   5.610  10.007   2.735
 2193W        W 5937   7.065   4.943   9.137
 2194W        W 5938   1.790   6.696  11.762
 2195W        W 5939   8.059   5.043  10.049
 2196W        W 5940   2.526   8.064   9.838
 2197W        W 5941   0.327   6.888   1.372
 2198W        W 5942   5.044   4.930  11.016
 2199W        W 5943   8.575   1.479  11.846
 2200W        W 5944   5.858   9.860  11.469
 2201W        W 5945   8.170   7.785   1.804
 2202W        W 5946   9.651   1.343   2.154
 2203W        W 5947   8.332   0.776   0.226
 2204W        W 5948   7.078  10.163   0.753
 2205W        W 5949   9.244   5.151   3.169
 2206W        W 5950   7.028   9.869  10.529
 2207W        W 5951   2.784   0.681   2.851
 2208W        W 5952   9.966   9.374  11.304
 2209W        W 5953   3.983   0.778   0.782
 2210W        W 5954   5.115   7.084  11.523
 2211W        W 5955   8.030   2.290   9.018
 2212W        W 5956   9.779   1.827   0.507
 2213W        W 5957   4.398   7.061   8.657
 2214W        W 5958   8.544   0.023   2.797
 2215W        W 5959   8.148   7.316   2.195
 2216W        W 5960   4.640   2.577  10.266
 2217W        W 5961   2.820   1.732   1.299
 2218W        W 5962   0.337   1.764  11.553
 2219W        W 5963   1.575   2.780  10.794
 2220W        W 5964   4.127   5.263   2.571
 2221W        W 5965   4.126   4.376  10.375
 2222W        W 5966   4.156   8.325   9.560
 2223W        W 5967   2.114   1.524   8.432
 2224W        W 5968   6.008   2.449  11.519
 2225W        W 5969   9.038   3.828   1.736
 2226W        W 5970  10.345  10.446   0.683
 2227W        W 5971   8.386   5.200   0.268
 2228W        W 5972   8.441   7.450   2.735
 2229W        W 5973   7.606   2.741   2.783
 2230W        W 5974   5.625   8.488   1.911
 2231W        W 5975   3.734   9.354   1.023
 2232W        W 5976   0.695   2.574  11.002
 2233W        W 5977   6.174   9.865   0.991
 2234W        W 5978   6.064  10.343   1.187
 2235W        W 5979   8.334   8.550  10.603
 2236W        W 5980   2.413   1.245  10.930
 2237W        W 5981   8.300  10.297   1.318
 2238W        W 5982  10.107   7.475   0.928
 2239W        W 5983   7.121   5.131   1.628
 2240W        W 5984   8.552   3.738  10.493
 2241W        W 5985   6.931   7.461  11.199
 2242W        W 5986   1.024   5.685  11.637
 2243W        W 5987   7.472   4.307   1.160
 2244W        W 5988   3.087   3.253  10.514
 2245W        W 5989   8.407   8.797  11.846
 2246W        W 5990   2.497   2.787  10.603
 2247W        W 5991   9.911   6.047  11.498
 2248W        W 5992   1.028   7.145   9.109
 2249W        W 5993   5.675   1.788  11.506
 2250W        W 5994   6.508   7.129   3.191
 2251W        W 5995   8.466   7.895   3.541
 2252W        W 5996   1.868   5.602   0.755
 2253W        W 5997   2.706   6.529   3.624
 2254W        W 5998   9.646   0.377   3.243
 2255W        W 5999   3.692   4.760   1.840
 2256W        W 6000   8.437   0.963   1.978
 2257W        W 6001   3.203   6.064   3.239
 2258W        W 6002   1.168   2.256  10.068
 2259W        W 6003   4.312   9.890   1.489
 2260W        W 6004   3.295   5.684   0.800
 2261W        W 6005   5.428   0.870  10.080
 2262W        W 6006   6.386   4.992   9.396
 2263W        W 6007   3.624   5.372  11.120
 2264W        W 6008   0.255   5.094   3.365
 2265W        W 6009   2.340   6.055   1.898
 2266W        W 6010   3.041   8.134   9.937
 2267W        W 6011   7.955   3.331   9.418
 2268W        W 6012   7.384   4.040  11.339
 2269W        W 6013   2.325   6.503   0.820
 2270W        W 6014   4.438   4.602   9.563
 2271W        W 6015   8.466   7.700  10.999
 2272W        W 6016   5.720   1.200   2.353
 2273W        W 6017   9.194   0.286  10.059
 2274W        W 6018   9.951   6.958   0.274
 2275W        W 6019   6.286   6.195  11.395
 2276W        W 6020   5.480   5.866  11.285
 2277W        W 6021   5.050   6.970   9.804
 2278W        W 6022   2.843   7.487  11.979
 2279W        W 6023   8.055   4.522   1.901
 2280W        W 6024   8.948   6.148   9.441
 2281W        W 6025   7.171   1.693   1.474
 2282W        W 6026  10.318   9.893   2.208
 2283W        W 6027   5.564   7.076   9.673
 2284W        W 6028   1.433   7.546   9.801
 2285W        W 6029   6.588   6.216  11.819
 2286W        W 6030   7.171   9.231  11.315
 2287W        W 6031   5.253   7.904  11.848
 2288W        W 6032   2.899   1.055   0.270
 2289W        W 6033   3.390   0.382  11.732
 2290W        W 6034   4.923   4.400   9.525
 2291W        W 6035  10.164   1.471   2.206
 2292W        W 6036   9.375   8.124  11.116
 2293W        W 6037   8.030   0.284   2.486
 2294W        W 6038   1.578   3.356  10.016
 2295W        W 6039   1.521   8.241   0.555
 2296W        W 6040   7.078   3.065   2.176
 2297W        W 6041   0.087   4.011  10.124
 2298W        W 6042   9.260   1.363   2.555
 2299W        W 6043   6.474   2.432   1.900
 2300W        W 6044   0.303   6.464   0.398
 2301W        W 6045   1.264   6.918   3.360
 2302W        W 6046   1.970  10.450   0.760
 2303W        W 6047   2.816   6.422   8.572
 2304W        W 6048   0.449   2.266   8.965
 2305W        W 6049   7.997   4.167   2.659
 2306W        W 6050   7.026   8.906   9.111
 2307W        W 6051   1.166   5.070   1.504
 2308W        W 6052   9.608  10.335  10.891
 2309W        W 6053   8.369  10.452   2.304
 2310W        W 6054   1.587   5.183   0.870
 2311W        W 6055   9.571   0.878   3.051
 2312W        W 6056   0.728   3.394   2.764
 2313W        W 6057   2.807   8.511   1.354
 2314W        W 6058   0.088   2.172   3.427
 2315W        W 6059   1.266   3.186  10.864
 2316W        W 6060   0.297   2.363  10.757
 2317W        W 6061   3.586   4.089   0.900
 2318W        W 6062   5.066   8.412  11.053
 2319W        W 6063   0.443   1.828   9.822
 2320W        W 6064   0.866   0.918  11.282
 2321W        W 6065   2.004   7.093   9.332
 2322W        W 6066   5.219   6.647  10.797
 2323W        W 6067   0.923   6.348   1.374
 2324W        W 6068   2.255  10.202  10.769
 2325W        W 6069   7.377   5.747   3.547
 2326W        W 6070   6.254   2.885  11.704
 2327W        W 6071   3.389   7.084   9.533
 2328W        W 6072   8.096   8.134   0.778
 2329W        W 6073   3.730   6.881  11.912
 2330W        W 6074   1.375   9.314   0.132
 2331W        W 6075   5.501   6.070   1.154
 2332W        W 6076   3.664   7.177  10.569
 2333W        W 6077  10.099   6.550  11.346
 2334W        W 6078   7.472   3.279  10.200
 2335W        W 6079   6.675   3.708   0.632
 2336W        W 6080   7.084   4.554   1.575
 2337W        W 6081   0.529   1.890  10.721
 2338W        W 6082   3.814   8.694   3.478
 2339W        W 6083   9.575   2.779   9.037
 2340W        W 6084   5.586   7.958   0.222
 2341W        W 6085   9.291   9.860   9.933
 2342W        W 6086   7.182   2.722   8.630
 2343W        W 6087   5.258   7.603   3.091
 2344W        W 6088   3.711   3.817  11.531
 2345W        W 6089   5.584   1.730   9.528
 2346W        W 6090   8.739   1.309   2.535
 2347W        W 6091   7.989   3.659   0.792
 2348W        W 6092   9.105   2.644   2.867
 2349W        W 6093  10.066   7.087   3.483
 2350W        W 6094   8.898   5.719  11.821
 2351W        W 6095   4.196   3.792   9.622
 2352W        W 6096   7.497   5.022   8.872
 2353W        W 6097   0.474   4.592   0.088
 2354W        W 6098   3.207   5.409  10.228
 2355W        W 6099   3.256   1.277   0.956
 2356W        W 6100   1.683   9.793   9.867
 2357W        W 6101   6.127   1.229   8.979
 2358W        W 6102   1.684   9.673  10.384
 2359W        W 6103   0.476   2.123  11.204
 2360W        W 6104   1.537  10.415   1.768
 2361W        W 6105   7.175   5.059   1.142
 2362W        W 6106   7.361   3.184   2.830
 2363W        W 6107   6.473   4.509  11.605
 2364W        W 6108   0.726   1.251  10.943
 2365W        W 6109   4.329   2.735   1.422
 2366W        W 6110   5.563   8.957   1.677
 2367W        W 6111   6.471   0.075   9.636
 2368W        W 6112   3.254   3.647   3.557
 2369W        W 6113   2.303   9.421  11.771
 2370W        W 6114  10.287   9.152   8.970
 2371W        W 6115   4.643   3.726   1.420
 2372W        W 6116   1.956   9.582   8.548
 2373W        W 6117   9.084   4.595   0.606
 2374W        W 6118   8.084   6.610   9.770
 2375W        W 6119   2.815   3.941   1.475
 2376W        W 6120  10.117   5.647   9.442
 2377W        W 6121   2.978   8.613  10.123
 2378W        W 6122   3.649   7.969  11.821
 2379W        W 6123   6.824   5.522   1.777
 2380W        W 6124   3.825   8.358   2.147
 2381W        W 6125   0.273   1.320  10.731
 2382W        W 6126   3.299   1.303  10.078
 2383W        W 6127   8.806   8.232   8.388
 2384W        W 6128   5.287   3.024   2.558
 2385W        W 6129  10.331   9.165  10.097
 2386W        W 6130   2.076   2.847   8.841
 2387W        W 6131   2.657   5.018   2.367
 2388W        W 6132   8.948   9.830   1.264
 2389W        W 6133   3.163   6.137   0.989
 2390W        W 6134   8.744   0.453   0.122
 2391W        W 6135   1.264   8.172   2.700
 2392W        W 6136   4.595   1.629   9.900
 2393W        W 6137   6.595   2.234   0.355
 2394W        W 6138   3.025   4.102   9.426
 2395W        W 6139   8.974   9.312  10.779
 2396W        W 6140   8.602   4.604   9.390
 2397W        W 6141   4.488  10.483   0.275
 2398W        W 6142   0.182   9.783  10.467
 2399W        W 6143   7.906   4.734  10.770
 2400W        W 6144   1.444   9.088   2.177
 2401W        W 6145   5.937   7.634  10.395
 2402W        W 6146   5.092   8.156   3.636
 2403W        W 6147   0.850   3.584   2.292
 2404W        W 6148   9.738   6.147  10.449
 2405W        W 6149   5.988   8.683  11.883
 2406W        W 6150   3.376   6.826  10.373
 2407W        W 6151   4.680   2.647  11.756
 2408W        W 6152   4.232   1.745   8.734
 2409W        W 6153   3.637   7.744   3.924
 2410W        W 6154   8.926   7.531   2.589
 2411W        W 6155   7.239   0.345   8.671
 2412W        W 6156  10.079   9.452   1.178
 2413W        W 6157   1.618   4.564   3.639
 2414W        W 6158   8.551   9.365  10.059
 2415W        W 6159   5.339   4.817   2.166
 2416W        W 6160   8.851  10.445  11.364
 2417W        W 6161   3.011   0.258   3.593
 2418W        W 6162   7.598   2.696   9.541
 2419W        W 6163   5.538   8.310  11.755
 2420W        W 6164  10.431   7.900   3.287
 2421W        W 6165   6.520   0.466  11.951
 2422W        W 6166   2.383   6.843   9.628
 2423W        W 6167   2.804   8.094   9.384
 2424W        W 6168   8.407   4.176   1.263
 2425W        W 6169   5.565   5.146  10.367
 2426W        W 6170   9.950   1.874   9.917
 2427W        W 6171   4.777   3.685   2.458
 2428W        W 6172  10.114   8.390   0.287
 2429W        W 6173   5.067   9.241   0.235
 2430W        W 6174   4.697   1.215  10.324
 2431W        W 6175   0.671   2.283   9.956
 2432W        W 6176   2.240   4.775   9.078
 2433W        W 6177   8.890   9.560   1.735
 2434W        W 6178   7.253   6.472   9.904
 2435W        W 6179   0.398   4.314   0.529
 2436W        W 6180   9.223   5.766   1.212
 2437W        W 6181   2.756   9.424   2.944
 2438W        W 6182   2.707   7.827   0.679
 2439W        W 6183   2.549   0.303  11.317
 2440W        W 6184   6.148   4.735  11.276
 2441W        W 6185   2.900   0.303   9.284
 2442W        W 6186   0.944   0.500   8.408
 2443W        W 6187   9.868   3.725   1.261
 2444W        W 6188   4.943   3.978   4.108
 2445W        W 6189   7.157   7.729  10.817
 2446W        W 6190   8.821   5.886   9.016
 2447W        W 6191   1.660   4.210  10.762
 2448W        W 6192   7.081   4.592   9.524
 2449W        W 6193   0.757   1.437   9.996
 2450W        W 6194   8.889   0.272   0.907
 2451W        W 6195  10.321   7.183   8.987
 2452W        W 6196   2.131   1.850  10.776
 2453W        W 6197   3.739   0.983   9.128
 2454W        W 6198   2.266   8.443   9.401
 2455W        W 6199   4.174   1.313   1.832
 2456W        W 6200   7.620   7.774   3.503
 2457W        W 6201   6.906   0.805   9.561
 2458W        W 6202   1.847   1.398   2.026
 2459W        W 6203   7.450   8.421  11.659
 2460W        W 6204   2.697   2.110   2.906
 2461W        W 6205  10.463  10.035  10.938
 2462W        W 6206   3.295   7.971   3.594
 2463W        W 6207   7.946   0.732   2.757
 2464W        W 6208   2.344   7.682   3.047
 2465W        W 6209   2.596   2.323   2.451
 2466W        W 6210  10.391   3.708   0.027
 2467W        W 6211   6.482   6.983   1.830
 2468W        W 6212   6.119  10.462   1.754
 2469W        W 6213   3.916   0.075   8.938
 2470W        W 6214   3.780   0.536   9.361
 2471W        W 6215   7.192   7.846   0.870
 2472W        W 6216   5.055   3.555   9.876
 2473W        W 6217   8.105   9.302  10.332
 2474W        W 6218   1.740   0.863   1.287
 2475W        W 6219   1.882   2.101  10.374
 2476W        W 6220   6.674   2.888   0.862
 2477W        W 6221   4.601   8.563  11.896
 2478W        W 6222  10.047   9.525   8.573
 2479W        W 6223   6.250   8.849  11.461
 2480W        W 6224   0.412   4.179   1.022
 2481W        W 6225   6.076   6.298   3.389
 2482W        W 6226   8.318   8.007   8.782
 2483W        W 6227   4.166   7.695   0.803
 2484W        W 6228   5.228  10.159  11.921
 2485W        W 6229  10.154   8.525   1.181
 2486W        W 6230   5.144   2.521  10.024
 2487W        W 6231   3.229  10.410   1.327
 2488W        W 6232   5.011   6.008  11.891
 2489W        W 6233   7.529   8.808   8.757
 2490W        W 6234   8.942   3.197   9.046
 2491W        W 6235   0.901   7.451  10.297
 2492W        W 6236   0.374   1.601  10.305
 2493W        W 6237   0.904   8.964   1.412
 2494W        W 6238  10.103   8.155   9.400
 2495W        W 6239   7.158   2.888  11.083
 2496W        W 6240   2.929   0.235   1.584
 2497W        W 6241   2.506   7.237   9.310
 2498W        W 6242   3.884   8.072   1.620
 2499W        W 6243   5.436   4.284   3.145
 2500W        W 6244   9.937   2.456  11.683
 2501W        W 6245   3.405   0.284   1.765
 2502W        W 6246   7.557   3.806  10.431
 2503W        W 6247   4.274   3.895  11.279
 2504W        W 6248   0.041   5.915   2.218
 2505W        W 6249   0.672   6.541  10.269
 2506W        W 6250   7.893   2.327   2.778
 2507W        W 6251   9.397   3.146   1.289
 2508W        W 6252   3.767   1.228   0.949
 2509W        W 6253   4.594   7.989   3.608
 2510W        W 6254   1.224   5.319  10.298
 2511W        W 6255   5.733   9.905   1.300
 2512W        W 6256   0.722   7.455   2.257
 2513W        W 6257   7.924  10.031  11.034
 2514W        W 6258   9.411   7.663  10.158
 2515W        W 6259   5.657   4.483   9.153
 2516W        W 6260   7.995   1.707   1.962
 2517W        W 6261   7.823   7.055   0.864
 2518W        W 6262   7.985   0.262   2.979
 2519W        W 6263   9.353   2.823   0.487
 2520W        W 6264   2.138   7.440   1.745
 2521W        W 6265   4.147   8.628   0.865
 2522W        W 6266   8.900   5.963  10.970
 2523W        W 6267   9.600  10.018   3.740
 2524W        W 6268   9.976   4.456   1.655
 2525W        W 6269   2.383   5.328   1.458
 2526W        W 6270  10.049   4.875  11.837
 2527W        W 6271   8.121   2.457   1.443
 2528W        W 6272   9.175   3.660   9.165
 2529W        W 6273   6.265   2.888   1.171
 2530W        W 6274  10.285   1.283   9.977
 2531W        W 6275  10.425   2.438   1.943
 2532W        W 6276   6.499   2.797   2.778
 2533W        W 6277   8.448   7.178   8.804
 2534W        W 6278   9.915  10.238   2.785
 2535W        W 6279   0.814   6.811   1.163
 2536W        W 6280   3.249   0.219  10.041
 2537W        W 6281   2.150   2.669   3.402
 2538W        W 6282   4.060   5.276   0.462
 2539W        W 6283   6.216   6.934   9.076
 2540W        W 6284   2.873   4.171   9.910
 2541W        W 6285   3.199   9.701   9.895
 2542W        W 6286   5.958   6.635  11.325
 2543W        W 6287   8.155   4.046  11.840
 2544W        W 6288   7.238   5.584   1.186
 2545W        W 6289   0.945   9.148   9.458
 2546W        W 6290   5.219   0.275   1.921
 2547W        W 6291   6.226   1.243  10.048
 2548W        W 6292   7.875   5.439   1.751
 2549W        W 6293   7.401   8.155   3.288
 2550W        W 6294   5.461   7.830   3.730
 2551W        W 6295   7.048   6.076   0.039
 2552W        W 6296   1.898   4.258   9.853
 2553W        W 6297   5.005   2.912   8.536
 2554W        W 6298   3.161   3.471   3.073
 2555W        W 6299   9.319   9.254   3.353
 2556W        W 6300   6.281   4.946   2.100
 2557W        W 6301   4.513   7.700  11.446
 2558W        W 6302   9.003   4.505  11.031
 2559W        W 6303   8.559   9.282  11.127
 2560W        W 6304   5.969   3.498   9.868
 2561W        W 6305  10.450   0.318   3.129
 2562W        W 6306   3.579   2.248   8.746
 2563W        W 6307   8.147   9.340  11.498
 2564W        W 6308   4.723   8.364   0.421
 2565W        W 6309   8.927   1.481   1.549
 2566W        W 6310   6.935   0.809  10.937
 2567W        W 6311   4.598   6.648   9.087
 2568W        W 6312   9.134   3.439   2.074
 2569W        W 6313   8.466   7.422   0.342
 2570W        W 6314   4.677   9.068  10.104
 2571W        W 6315   1.801   6.468   3.534
 2572W        W 6316   5.207   1.324   2.505
 2573W        W 6317   3.629   8.396  10.874
 2574W        W 6318   5.620   1.709   0.549
 2575W        W 6319   3.830   7.513   9.760
 2576W        W 6320   5.629   5.142   1.310
 2577W        W 6321   9.410   7.909   2.085
 2578W        W 6322   7.216   1.381   9.760
 2579W        W 6323   8.512   6.758   9.984
 2580W        W 6324   9.859   9.706   2.802
 2581W        W 6325   4.053   1.530  11.560
 2582W        W 6326   0.719   6.138   9.912
 2583W        W 6327   1.380   8.490  11.080
 2584W        W 6328   3.329   1.453  10.590
 2585W        W 6329  10.454   0.020   9.728
 2586W        W 6330   2.624   4.908   3.613
 2587W        W 6331   5.770   0.773  10.490
 2588W        W 6332   0.776   4.336   1.751
 2589W        W 6333   6.009   7.312   9.548
 2590W        W 6334   0.868   4.635   8.690
 2591W        W 6335   4.592   8.476  11.355
 2592W        W 6336   2.218   3.198  10.696
 2593W        W 6337   6.653   8.373   1.823
 2594W        W 6338   0.350   5.723   9.986
 2595W        W 6339   9.636   5.382   0.469
 2596W        W 6340   9.793   3.054   0.067
 2597W        W 6341   4.314   9.518  11.863
 2598W        W 6342   1.727   3.660  10.417
 2599W        W 6343   0.444   0.491   0.351
 2600W        W 6344   1.709   5.814   8.829
 2601W        W 6345  10.215   2.828  11.936
 2602W        W 6346   5.794   2.499   9.970
 2603W        W 6347   6.586   2.945   1.912
 2604W        W 6348   6.485   3.921  10.339
 2605W        W 6349   7.441   2.277   8.789
 2606W        W 6350   6.485  10.381  10.126
 2607W        W 6351   2.247   9.519   9.265
 2608W        W 6352   4.725   6.435   1.331
 2609W        W 6353   3.597  10.423  10.303
 2610W        W 6354   2.937   5.654   3.112
 2611W        W 6355   6.347  10.268   3.275
 2612W        W 6356   9.388   3.070   2.811
 2613W        W 6357   8.050   1.792   8.816
 2614W        W 6358   8.949   9.515   9.793
 2615W        W 6359   9.439   2.179   1.771
 2616W        W 6360   8.406   0.204   8.841
 2617W        W 6361   5.383   9.565   9.823
 2618W        W 6362   6.950   2.198   3.264
 2619W        W 6363   7.876   3.886  11.324
 2620W        W 6364   1.131   1.411  11.208
 2621W        W 6365   7.091   5.026  11.807
 2622W        W 6366   8.303   7.103   1.219
 2623W        W 6367   4.240   6.541   1.090
 2624W        W 6368   2.728   9.910   9.984
 2625W        W 6369   5.447   7.615   1.623
 2626W        W 6370   7.128   5.728  10.211
 2627W        W 6371   8.428   0.717   8.759
 2628W        W 6372   7.261   9.319   9.274
 2629W        W 6373   6.051   1.979  11.218
 2630W        W 6374   7.365   5.203  10.239
 2631W        W 6375   2.016   9.932   0.654
 2632W        W 6376   9.964   9.312  11.872
 2633W        W 6377   4.596   0.674  10.664
 2634W        W 6378   9.846   9.481  10.791
 2635W        W 6379   9.505   1.798   2.429
 2636W        W 6380   9.561   0.467   9.149
 2637W        W 6381   5.211   1.947  10.266
 2638W        W 6382   2.795   9.281   2.466
 2639W        W 6383   1.141   0.984   0.736
 2640W        W 6384   5.936   3.011   9.016
 2641W        W 6385   6.517  10.170  11.584
 2642W        W 6386   6.974   8.520  10.683
 2643W        W 6387   0.351   2.674  10.057
 2644W        W 6388   2.444   9.546   0.614
 2645W        W 6389   0.514   7.411  10.979
 2646W        W 6390   3.777   0.424   2.520
 2647W        W 6391   5.232   5.044  11.862
 2648W        W 6392   3.728   6.725   9.698
 2649W        W 6393   9.794   6.624   9.534
 2650W        W 6394   0.015   3.384   0.801
 2651W        W 6395   9.464   9.860  10.735
 2652W        W 6396   2.220  10.427  10.288
 2653W        W 6397   0.192   3.353  11.022
 2654W        W 6398   6.138   1.111   2.744
 2655W        W 6399   2.828   6.051   1.423
 2656W        W 6400   5.639   0.067   0.882
 2657W        W 6401   8.955   4.759   2.902
 2658W        W 6402   8.501   4.151   2.833
 2659W        W 6403   3.652   7.120  10.036
 2660W        W 6404   5.245   6.492   9.858
 2661W        W 6405   6.140   7.719   0.084
 2662W        W 6406   7.531   3.909   2.559
 2663W        W 6407   6.086   1.482   0.529
 2664W        W 6408   4.620   8.359   2.113
 2665W        W 6409   7.067   4.833   2.029
 2666W        W 6410   8.065   7.585   3.646
 2667W        W 6411   8.504   3.397   0.508
 2668W        W 6412   5.563   6.482  10.481
 2669W        W 6413   6.367   8.184   8.666
 2670W        W 6414   9.279   4.288   1.863
 2671W        W 6415   4.489   3.228   1.432
 2672W        W 6416   4.219   8.056  10.793
 2673W        W 6417   9.462   6.733   3.059
 2674W        W 6418   1.476   1.943   0.756
 2675W        W 6419   9.734   9.056   1.835
 2676W        W 6420   6.881   8.243   8.372
 2677W        W 6421  10.300   2.744  11.440
 2678W        W 6422   1.832   0.385   0.502
 2679W        W 6423   8.869   5.504   1.903
 2680W        W 6424   0.252   1.317  11.770
 2681W        W 6425   1.616   4.152   2.658
 2682W        W 6426   8.479   4.584   1.633
 2683W        W 6427   6.673   4.463  10.562
 2684W        W 6428   6.684   3.139  11.543
 2685W        W 6429   7.655   0.464   1.223
 2686W        W 6430   9.885   9.116  10.421
 2687W        W 6431  10.345   2.589  10.964
 2688W        W 6432   4.486   5.586   0.374
 2689W        W 6433   1.392   6.002   1.644
 2690W        W 6434   2.210   1.285   0.673
 2691W        W 6435   3.701   1.886   9.562
 2692W        W 6436   9.719   1.822   2.905
 2693W        W 6437   8.395   5.708  11.572
 2694W        W 6438   9.839   1.686   8.782
 2695W        W 6439   0.280   5.126   8.814
 2696W        W 6440   0.310   4.941  10.601
 2697W        W 6441   5.868   7.555   3.866
 2698W        W 6442   8.484   7.569   1.344
 2699W        W 6443   9.235   8.098   9.727
 2700W        W 6444   1.072   7.668   2.638
 2701W        W 6445   4.204   8.906   1.713
 2702W        W 6446   8.833   0.545   1.937
 2703W        W 6447   0.813   9.484  10.002
 2704W        W 6448   4.980   3.988   3.225
 2705W        W 6449   7.451   5.540  11.485
 2706W        W 6450   1.165   4.314  10.355
 2707W        W 6451   2.318   2.679  11.950
 2708W        W 6452   4.513   6.550   0.299
 2709W        W 6453   0.417   9.821   1.234
 2710W        W 6454   2.221   7.219   3.252
 2711W        W 6455   9.739   6.464  11.723
 2712W        W 6456   7.884   8.443   9.256
 2713W        W 6457   7.519   4.752   2.269
 2714W        W 6458   4.359   4.202   9.926
 2715W        W 6459   5.817   9.316   9.626
 2716W        W 6460   8.623   9.364  11.630
 2717W        W 6461   3.106   1.503   0.388
 2718W        W 6462   9.467   6.220  11.279
 2719W        W 6463   9.189   0.709   9.414
 2720W        W 6464   8.367   3.303  10.265
 2721W        W 6465   1.837   0.667  10.335
 2722W        W 6466   3.506   6.921   0.718
 2723W        W 6467   1.388   5.611  11.977
 2724W        W 6468   8.835   7.140   0.633
 2725W        W 6469   0.370   0.230  10.402
 2726W        W 6470   8.611   4.786  11.865
 2727W        W 6471   2.677   9.792   1.748
 2728W        W 6472   7.843   5.284   8.576
 2729W        W 6473  10.325   5.243  11.610
 2730W        W 6474   7.436   6.949   9.173
 2731W        W 6475   2.098  10.291   2.144
 2732W        W 6476   8.589   7.815  10.134
 2733W        W 6477   1.901   6.201   1.585
 2734W        W 6478   6.382   0.678   2.707
 2735W        W 6479   3.203   9.553   2.659
 2736W        W 6480   5.822   4.530   0.870
 2737W        W 6481   0.408  10.364   0.249
 2738W        W 6482   6.210   1.636   1.863
 2739W        W 6483   1.857   8.580   9.084
 2740W        W 6484   6.587  10.314  11.111
 2741W        W 6485   9.261   2.370   0.880
 2742W        W 6486   3.188   0.968  10.453
 2743W        W 6487   1.523   1.004   2.110
 2744W        W 6488   8.720   8.183   9.805
 2745W        W 6489   6.115   4.287  10.986
 2746W        W 6490   3.787   7.668  11.441
 2747W        W 6491   0.478   1.858   0.044
 2748W        W 6492   8.016   3.153   8.882
 2749W        W 6493   7.025   9.175   1.023
 2750W        W 6494   7.520   0.503   2.907
 2751W        W 6495  10.469   4.645   9.992
 2752W        W 6496   9.401   9.369   9.969
 2753W        W 6497   7.472   0.158  11.344
 2754W        W 6498   7.838   6.975   1.390
 2755W        W 6499  10.319   1.222  10.956
 2756W        W 6500   5.204   1.298  10.515
 2757W        W 6501   3.048  10.262   9.154
 2758W        W 6502   0.965   7.073   8.590
 2759W        W 6503   7.099   8.845   0.636
 2760W        W 6504   2.289   8.842   1.531
 2761W        W 6505  10.335   6.063   3.525
 2762W        W 6506   0.361   0.923   0.087
 2763W        W 6507  10.356   4.140  10.571
 2764W        W 6508   8.577   2.615   1.187
 2765W        W 6509   8.402   0.225   9.710
 2766W        W 6510   0.658   7.364   9.339
 2767W        W 6511   8.376   5.545   1.742
 2768W        W 6512   8.714   4.194   9.093
 2769W        W 6513   0.822   3.708   9.352
 2770W        W 6514   6.178   4.431   2.128
 2771W        W 6515   8.384   6.540  11.476
 2772W        W 6516   2.559   4.742  11.267
 2773W        W 6517   9.942   6.939   1.889
 2774W        W 6518   8.288   9.626   0.401
 2775W        W 6519   3.425   3.240  10.109
 2776W        W 6520   0.082   6.012   1.293
 2777W        W 6521   2.005   8.254   0.374
 2778W        W 6522  10.421   6.438   1.549
 2779W        W 6523   6.873   5.289  10.159
 2780W        W 6524   2.654   5.985   0.945
 2781W        W 6525   7.466   5.887  10.788
 2782W        W 6526   6.158  10.000   1.559
 2783W        W 6527   9.182   1.765   2.863
 2784W        W 6528   8.594   5.074   1.754
 2785W        W 6529   0.201   8.606   2.862
 2786W        W 6530   8.327   9.733  11.251
 2787W        W 6531   5.723   7.093   9.166
 2788W        W 6532   7.232   1.856   9.997
 2789W        W 6533   6.153   8.653  10.529
 2790W        W 6534   1.798   5.974   3.492
 2791W        W 6535   5.920   4.097   3.101
 2792W        W 6536   7.017   0.703   0.715
 2793W        W 6537   2.497   8.273   0.538
 2794W        W 6538   9.768   5.929   1.834
 2795W        W 6539   8.388   9.123   3.468
 2796W        W 6540   8.533   2.861  10.490
 2797W        W 6541   3.311   3.286   8.590
 2798W        W 6542   3.127   2.233  11.117
 2799W        W 6543   9.050   1.235   8.733
 2800W        W 6544   8.908   7.020   1.895
 2801W        W 6545   0.208   3.094  10.395
 2802W        W 6546  10.407   8.223   2.124
 2803W        W 6547   2.185   6.410  11.608
 2804W        W 6548  10.453   6.032   9.433
 2805W        W 6549   3.067   2.405   0.113
 2806W        W 6550   3.894   3.320   0.519
 2807W        W 6551   5.573   3.309  11.615
 2808W        W 6552   8.514   8.583   2.802
 2809W        W 6553   8.783  10.339   8.934
 2810W        W 6554   1.929   8.036   1.777
 2811W        W 6555   5.295   9.570   3.393
 2812W        W 6556   3.868   2.329   9.800
 2813W        W 6557   4.535   7.928   0.572
 2814W        W 6558   8.146   1.715  10.334
 2815W        W 6559   9.838   0.524  10.349
 2816W        W 6560   9.870   0.955  10.066
 2817W        W 6561   6.051   2.768   8.434
 2818W        W 6562   7.971   8.879   1.213
 2819W        W 6563   1.278   4.260   3.469
 2820W        W 6564   6.040   0.000   0.217
 2821W        W 6565  10.012   7.401   9.945
 2822W        W 6566   1.146   8.982   0.977
 2823W        W 6567   8.342   0.040   0.833
 2824W        W 6568   3.150   5.270   1.493
 2825W        W 6569   1.889   3.721   1.803
 2826W        W 6570   8.463   6.077   1.679
 2827W        W 6571   0.021   0.198   0.270
 2828W        W 6572   0.102   1.146   8.513
 2829W        W 6573   7.624   1.093  10.359
 2830W        W 6574   7.806   6.192   1.003
 2831W        W 6575   4.077   9.010   1.231
 2832W        W 6576  10.101   2.649   0.855
 2833W        W 6577   9.499   8.902   0.513
 2834W        W 6578   1.048   5.173   9.382
 2835W        W 6579   5.952   8.823   9.840
 2836W        W 6580   9.402   2.325   0.391
 2837W        W 6581   8.020   6.174   8.847
 2838W        W 6582   7.185   5.473  10.639
 2839W        W 6583   8.346   5.417   3.577
 2840W        W 6584   0.309   9.955  11.918
 2841W        W 6585   9.296   5.365   9.721
 2842W        W 6586   3.291   1.286   9.070
 2843W        W 6587   1.026   4.797   1.960
 2844W        W 6588   8.551   6.176   3.155
 2845W        W 6589   9.407   6.360   9.353
 2846W        W 6590   6.933  10.441   0.300
 2847W        W 6591   0.008   0.778   2.298
 2848W        W 6592   6.684   7.824  11.945
 2849W        W 6593   5.293   1.421  11.511
 2850W        W 6594   6.218   8.890   2.965
 2851W        W 6595   1.401   0.975  10.025
 2852W        W 6596   7.978   2.124   2.313
 2853W        W 6597   0.991   5.858   0.321
 2854W        W 6598   8.680   0.039   0.464
 2855W        W 6599   4.629   8.928   9.604
 2856W        W 6600   5.550   3.209   0.163
 2857W        W 6601   1.835   6.741  11.237
 2858W        W 6602   4.138   6.366   0.601
 2859W        W 6603   3.458  10.048   0.007
 2860W        W 6604   2.597   4.097  10.361
 2861W        W 6605   5.256   8.665   3.767
 2862W        W 6606   0.489   8.932   2.079
 2863W        W 6607   1.325   2.022  11.852
 2864W        W 6608   0.420   7.214   2.859
 2865W        W 6609   3.221   1.834   9.863
 2866W        W 6610   7.252   0.391   9.946
 2867W        W 6611   4.736   3.125  10.247
 2868W        W 6612   4.561   9.428   9.580
 2869W        W 6613   8.484   4.489   3.616
 2870W        W 6614   8.590   3.860   0.050
 2871W        W 6615   9.360   1.755   3.338
 2872W        W 6616   3.054   2.651   1.077
 2873W        W 6617   1.300  10.361   9.284
 2874W        W 6618   6.635   5.665   0.929
 2875W        W 6619   4.424   5.830  11.401
 2876W        W 6620   7.965   8.165  10.823
 2877W        W 6621   1.389   4.745  11.839
 2878W        W 6622   1.854   9.923   1.129
 2879W        W 6623   3.015   9.158  11.872
 2880W        W 6624   8.804   9.512   0.279
 2881W        W 6625   4.171   7.416  10.130
 2882W        W 6626   8.504   1.312  10.447
 2883W        W 6627   3.038   0.070   2.085
 2884W        W 6628   0.423   7.114   1.925
 2885W        W 6629   9.260   9.293   1.974
 2886W        W 6630   7.394   0.081   1.456
 2887W        W 6631   1.125   8.286   1.914
 2888W        W 6632   5.037   8.726   9.316
 2889W        W 6633   4.578   9.089  11.984
 2890W        W 6634   1.492   9.324   1.150
 2891W        W 6635   2.784   9.491   9.224
 2892W        W 6636   5.942   7.972   8.890
 2893W        W 6637   7.850   9.758  10.407
 2894W        W 6638   6.181   4.226   0.707
 2895W        W 6639   3.339   0.452  10.477
 2896W        W 6640   8.304   2.364   1.987
 2897W        W 6641   4.621   2.647   1.897
 2898W        W 6642  10.161   5.222   0.508
 2899W        W 6643   6.750   1.656  10.556
 2900W        W 6644   2.107   2.172   1.429
 2901W        W 6645   8.342   6.949  11.789
 2902W        W 6646   6.928   6.585  10.313
 2903W        W 6647   8.062   5.224  10.957
 2904W        W 6648   8.779   5.710   1.458
 2905W        W 6649   4.064   4.683  11.646
 2906W        W 6650   6.008   5.293   9.623
 2907W        W 6651   9.857   4.175  11.397
 2908W        W 6652   4.303   3.086   9.975
 2909W        W 6653   1.585   4.568  11.132
 2910W        W 6654   2.420   4.320   3.313
 2911W        W 6655   7.152   6.946  11.227
 2912W        W 6656   5.630   4.217   2.665
 2913W        W 6657   2.828   9.335   0.880
 2914W        W 6658   3.037   4.762   1.156
 2915W        W 6659  10.319   3.474   1.278
 2916W        W 6660   4.882   8.654   2.495
 2917W        W 6661   5.188   0.484   0.284
 2918W        W 6662   8.170   3.715   7.987
 2919W        W 6663   7.898   6.907   3.494
 2920W        W 6664   2.720   9.450   9.731
 2921W        W 6665  10.140   5.996  10.717
 2922W        W 6666   9.833   5.545   2.621
 2923W        W 6667   5.136   7.550   9.560
 2924W        W 6668   3.572   4.004   9.399
 2925W        W 6669   1.111   0.113  11.709
 2926W        W 6670   1.663  10.250   0.383
 2927W        W 6671  10.465   7.475  10.112
 2928W        W 6672   7.679   6.523   9.052
 2929W        W 6673   8.318   5.804   1.266
 2930W        W 6674   4.590   6.285  11.864
 2931W        W 6675   3.388   4.525  11.117
 2932W        W 6676  10.004   1.376   9.156
 2933W        W 6677   0.215   5.274  10.229
 2934W        W 6678   0.977   1.624  10.703
 2935W        W 6679   1.680   7.406   1.978
 2936W        W 6680   0.218   0.400  10.868
 2937W        W 6681   7.016   4.873   0.707
 2938W        W 6682   6.835   8.868   1.853
 2939W        W 6683   4.547   8.535   9.289
 2940W        W 6684   7.526   4.772   1.391
 2941W        W 6685   4.184   8.288   0.497
 2942W        W 6686   5.130   3.197  11.871
 2943W        W 6687   4.676   5.970   1.709
 2944W        W 6688   8.631   8.093   9.293
 2945W        W 6689   0.196   4.476  10.421
 2946W        W 6690   6.381   2.040  10.529
 2947W        W 6691   0.211   7.992   0.757
 2948W        W 6692   9.816   0.380  11.310
 2949W        W 6693   8.458   7.522  10.531
 2950W        W 6694   1.183   5.196  11.754
 2951W        W 6695   6.553   3.739   2.334
 2952W        W 6696   5.201   7.414   2.633
 2953W        W 6697   3.852   1.296  11.969
 2954W        W 6698   2.546   6.682   0.392
 2955W        W 6699   5.544   8.072   2.204
 2956W        W 6700   5.086   8.369   0.024
 2957W        W 6701   0.492   1.399   3.291
 2958W        W 6702   6.261   2.121  10.036
 2959W        W 6703   8.104   5.520   2.217
 2960W        W 6704   4.256   4.809   0.361
 2961W        W 6705   1.289   2.815   1.947
 2962W        W 6706   0.240   4.275   3.311
 2963W        W 6707   5.278   3.500  11.208
 2964W        W 6708   1.992   8.265  10.635
 2965W        W 6709   5.731   2.098  10.281
 2966W        W 6710   9.038   1.218   9.264
 2967W        W 6711   9.300   7.936  10.648
 2968W        W 6712   7.795   6.027   3.629
 2969W        W 6713   4.218   2.091  10.230
 2970W        W 6714   0.567   8.535   1.304
 2971W        W 6715   8.546   5.109   0.785
 2972W        W 6716   8.837   2.002   8.288
 2973W        W 6717   4.070   3.225  10.795
 2974W        W 6718   4.172   6.108  10.156
 2975W        W 6719   2.258   7.899   8.772
 2976W        W 6720   0.470   4.671   3.592
 2977W        W 6721   1.687   9.465   2.463
 2978W        W 6722   3.779   1.398   9.854
 2979W        W 6723   9.771   8.437   3.347
 2980W        W 6724   0.933   3.213   9.482
 2981W        W 6725   7.033   4.073   1.324
 2982W        W 6726   0.718   2.815   9.202
 2983W        W 6727   5.130   4.088   2.751
 2984W        W 6728   3.002   6.897   0.648
 2985W        W 6729   4.022   6.867   0.729
 2986W        W 6730   9.094   4.608   9.315
 2987W        W 6731   3.753   5.765   9.469
 2988W        W 6732   5.542   4.281   8.692
 2989W        W 6733   7.844   2.627   3.238
 2990W        W 6734   1.709   1.669  10.551
 2991W        W 6735   3.674   7.146  11.462
 2992W        W 6736   8.559   2.424   3.497
 2993W        W 6737   6.982   0.470  11.363
 2994W        W 6738   2.381   8.466  10.361
 2995W        W 6739   1.650   3.554   0.306
 2996W        W 6740   3.168   6.459   8.967
 2997W        W 6741  10.351   4.199  11.239
 2998W        W 6742   5.189   2.320   3.694
 2999W        W 6743   4.254   3.373   3.214
 3000W        W 6744   3.604   5.907  11.829
 3001W        W 6745   9.510   4.102   0.827
 3002W        W 6746   6.199   5.724   0.551
 3003W        W 6747   0.945   3.302  11.799
 3004W        W 6748   2.724   4.967   1.506
 3005W        W 6749   0.902   7.110  11.105
 3006W        W 6750   3.246   5.904  10.091
 3007W        W 6751   8.485   1.851   1.916
 3008W        W 6752   6.636   9.819   1.507
 3009W        W 6753   7.089  10.407   9.884
 3010W        W 6754   4.999   9.355  11.742
 3011W        W 6755   4.233   7.041   1.963
 3012W        W 6756   7.836   9.646   0.773
 3013W        W 6757   7.026   8.640   8.676
 3014W        W 6758  10.044   5.719   0.405
 3015W        W 6759  10.052   3.517   8.435
 3016W        W 6760   1.244   3.339   3.136
 3017W        W 6761   4.241   6.168   1.468
 3018W        W 6762   4.728   7.484   0.463
 3019W        W 6763   0.996   5.531   9.013
 3020W        W 6764   5.701   0.410  10.971
 3021W        W 6765   5.511   0.996  11.799
 3022W        W 6766   8.007   8.861   8.982
 3023W        W 6767   6.039  10.307   8.946
 3024W        W 6768   1.439   0.225   0.205
 3025W        W 6769   9.737   1.378   1.271
 3026W        W 6770   8.546   5.241   2.265
 3027W        W 6771   2.709   6.040   3.427
 3028W        W 6772   4.692   3.178   9.204
 3029W        W 6773   9.913   5.248   1.281
 3030W        W 6774   5.182   0.322   0.788
 3031W        W 6775   2.826   1.784   9.016
 3032W        W 6776   5.187   5.572  10.972
 3033W        W 6777   2.601   3.103   2.599
 3034W        W 6778   9.646   2.175   3.252
 3035W        W 6779   8.965   6.642   9.304
 3036W        W 6780   1.035   9.575   0.395
 3037W        W 6781   6.473   9.967   0.103
 3038W        W 6782   4.522   4.478  11.689
 3039W        W 6783   1.786   5.887   1.205
 3040W        W 6784   6.020   8.852   9.334
 3041W        W 6785   7.593   9.639   9.473
 3042W        W 6786   3.739   6.996   1.181
 3043W        W 6787   7.028   4.053   0.796
 3044W        W 6788   8.024   5.032   2.077
 3045W        W 6789   8.443   0.282  10.470
 3046W        W 6790   6.542   4.045  10.842
 3047W        W 6791   4.590   0.842   8.596
 3048W        W 6792   8.935   1.787  11.660
 3049W        W 6793  10.176   7.495   3.099
 3050W        W 6794   3.201   4.945   3.163
 3051W        W 6795   5.919   3.578   3.256
 3052W        W 6796   1.498   7.568  10.817
 3053W        W 6797   0.443   2.251  11.702
 3054W        W 6798   4.696   9.598   1.339
 3055W        W 6799   8.036   3.410  11.349
 3056W        W 6800   5.178   7.491   9.040
 3057W        W 6801   2.212  10.315   1.201
 3058W        W 6802   1.953   5.148   1.730
 3059W        W 6803   9.081   5.024  10.952
 3060W        W 6804   4.610   2.528   1.037
 3061W        W 6805   1.916   3.170  11.513
 3062W        W 6806   3.786   6.254  11.487
 3063W        W 6807  10.351   1.747   9.618
 3064W        W 6808   1.282   3.888  10.609
 3065W        W 6809   9.463   5.527  10.167
 3066W        W 6810   9.999   5.611   3.239
 3067W        W 6811   6.603   6.165   2.284
 3068W        W 6812   3.827   7.112   8.842
 3069W        W 6813   3.109   6.371  11.327
 3070W        W 6814   1.855   5.028   8.861
 3071W        W 6815   2.594   3.680  10.089
 3072W        W 6816   7.959   9.804   8.787
 3073W        W 6817   4.276   8.408  10.422
 3074W        W 6818   0.714   7.874  11.001
 3075W        W 6819  10.489   7.036   9.820
 3076W        W 6820   4.212   9.400   1.604
 3077W        W 6821   2.033   0.279  11.389
 3078W        W 6822   8.155   2.902   1.187
 3079W        W 6823   2.045   8.513   1.815
 3080W        W 6824   1.177   1.323  10.325
 3081W        W 6825   7.471   6.603   2.455
 3082W        W 6826   7.535   0.892   8.504
 3083W        W 6827   6.742   1.792   1.254
 3084W        W 6828   0.200   7.071   9.338
 3085W        W 6829   2.794   1.267   9.306
 3086W        W 6830   7.490   4.085   0.253
 3087W        W 6831   2.578   2.784   8.954
 3088W        W 6832   4.348   0.873   3.261
 3089W        W 6833   7.479   5.533   0.377
 3090W        W 6834   3.322   7.506   9.829
 3091W        W 6835   4.806   0.357   8.639
 3092W        W 6836   0.455   9.466   9.162
 3093W        W 6837   3.540   8.654  11.296
 3094W        W 6838   6.504   0.019   0.965
 3095W        W 6839  10.272   5.163   9.288
 3096W        W 6840   2.576   1.436   0.357
 3097W        W 6841   7.204   7.458   9.914
 3098W        W 6842   3.851   6.594   2.717
 3099W        W 6843   3.326   1.752   1.265
 3100W        W 6844   7.508   0.154   0.328
 3101W        W 6845   6.445   5.530   9.485
 3102W        W 6846   9.141   5.863   2.234
 3103W        W 6847   4.519   9.897   3.198
 3104W        W 6848   5.922   7.588  11.302
 3105W        W 6849   6.697   3.418  10.278
 3106W        W 6850   9.759   1.160   3.468
 3107W        W 6851   6.747   2.774  11.948
 3108W        W 6852   3.137   6.093  10.900
 3109W        W 6853   7.387   0.023   9.481
 3110W        W 6854   1.924   4.462   2.401
 3111W        W 6855   5.706   5.604   9.963
 3112W        W 6856   6.494   6.400   2.720
 3113W        W 6857   3.474   0.047   9.262
 3114W        W 6858   8.516   9.063   2.990
 3115W        W 6859   0.753   0.562   3.730
 3116W        W 6860   9.465   4.658   8.974
 3117W        W 6861   3.926   3.012   3.121
 3118W        W 6862   2.221   9.067   0.761
 3119W        W 6863   2.243   1.976   9.146
 3120W        W 6864   2.892   9.519  10.627
 3121W        W 6865   1.449   9.925   9.048
 3122W        W 6866   9.039   7.500   2.088
 3123W        W 6867   7.461   1.468   3.146
 3124W        W 6868   9.023   2.225   9.070
 3125W        W 6869   0.743   6.369   9.370
 3126W        W 6870   0.047  10.457  10.705
 3127W        W 6871   9.747   7.235   2.248
 3128W        W 6872   2.564   7.640   1.961
 3129W        W 6873   5.941   2.527   8.872
 3130W        W 6874   2.734   9.520   0.169
 3131W        W 6875   4.224   8.222   2.401
 3132W        W 6876   9.826   3.314   2.988
 3133W        W 6877   3.791   9.460  10.791
 3134W        W 6878   0.245   4.440  11.499
 3135W        W 6879   6.562   4.583   9.649
 3136W        W 6880   7.489  10.437   1.915
 3137W        W 6881   0.131   0.444  11.835
 3138W        W 6882   6.472   3.099  11.063
 3139W        W 6883   0.041   9.454   0.882
 3140W        W 6884   8.311   8.413   9.546
 3141W        W 6885   3.773   6.491  10.157
 3142W        W 6886   7.333   5.617   1.686
 3143W        W 6887   1.492   8.891   8.558
 3144W        W 6888   8.438   1.657  11.402
 3145W        W 6889   1.755   3.663  11.434
 3146W        W 6890   6.239   1.507   0.026
 3147W        W 6891   2.729   6.983   2.470
 3148W        W 6892   0.031   1.842  10.617
 3149W        W 6893   7.239   6.235   8.474
 3150W        W 6894   8.884   6.893  10.284
 3151W        W 6895   0.796   6.816   1.663
 3152W        W 6896   7.586  10.218   0.607
 3153W        W 6897   5.339   3.810   8.629
 3154W        W 6898   9.472   0.059  10.450
 3155W        W 6899   2.288   8.144   2.579
 3156W        W 6900   1.654   8.622   2.119
 3157W        W 6901   8.203   2.588  11.984
 3158W        W 6902   4.674   5.213  10.329
 3159W        W 6903   0.044   0.851  10.683
 3160W        W 6904   9.915   4.487   0.796
 3161W        W 6905   0.930   6.601   0.718
 3162W        W 6906   7.398   9.492  10.571
 3163W        W 6907   5.167  10.278   2.018
 3164W        W 6908  10.442   6.394   2.059
 3165W        W 6909   3.015   1.879  11.965
 3166W        W 6910   4.837   3.355   8.765
 3167W        W 6911   7.682   0.926   1.491
 3168W        W 6912   5.742   2.680  10.906
 3169W        W 6913   3.114   6.284   2.804
 3170W        W 6914   6.330   9.063   0.367
 3171W        W 6915   6.176   4.305  10.492
 3172W        W 6916   2.345   8.113   2.074
 3173W        W 6917   7.626   9.922  11.861
 3174W        W 6918   5.152   5.594   1.165
 3175W        W 6919   4.167   1.585  10.178
 3176W        W 6920   3.619   5.201   2.762
 3177W        W 6921   6.102   0.176   9.298
 3178W        W 6922   4.126   1.352   9.064
 3179W        W 6923   4.961   2.721   0.707
 3180W        W 6924   0.929   8.431   9.931
 3181W        W 6925  10.370   8.228   8.978
 3182W        W 6926   2.267   5.645   9.493
 3183W        W 6927   0.908   0.976   9.233
 3184W        W 6928   2.533   4.201   0.446
 3185W        W 6929   5.577   8.051  10.389
 3186W        W 6930   6.928   3.011   2.649
 3187W        W 6931   3.308   4.543  10.610
 3188W        W 6932   6.921   5.391  11.489
 3189W        W 6933   0.480   3.776  11.008
 3190W        W 6934   9.879   1.396   9.670
 3191W        W 6935   6.252   5.633   9.983
 3192W        W 6936   5.966   5.069   1.695
 3193W        W 6937   8.922   8.080  11.685
 3194W        W 6938   8.538   8.553   1.756
 3195W        W 6939   6.632   1.299   8.869
 3196W        W 6940   2.136   9.664   0.234
 3197W        W 6941   5.200   7.558   0.968
 3198W        W 6942   4.154   6.173   8.807
 3199W        W 6943   8.050   0.493   9.104
 3200W        W 6944   2.761   4.455   1.452
 3201W        W 6945   2.646   4.528   8.243
 3202W        W 6946   2.197   1.492  11.695
 3203W        W 6947   6.012   6.124  10.532
 3204W        W 6948   3.147   4.134  10.334
 3205W        W 6949   3.187   0.371   0.233
 3206W        W 6950   9.923  10.255   0.477
 3207W        W 6951   8.872   8.824   1.272
 3208W        W 6952   7.279   3.564   3.778
 3209W        W 6953   9.354   6.938  10.454
 3210W        W 6954   0.638   8.443  11.659
 3211W        W 6955   4.591   7.153   9.987
 3212W        W 6956   8.120   9.532  10.816
 3213W        W 6957   9.431   7.562   0.369
 3214W        W 6958   3.176   8.337   9.056
 3215W        W 6959   1.900   8.497  11.934
 3216W        W 6960   6.054   9.501   0.343
 3217W        W 6961   4.044   4.888  10.466
 3218W        W 6962   4.636   9.110   1.901
 3219W        W 6963   8.448   5.092   2.937
 3220W        W 6964   0.239   5.533   1.446
 3221W        W 6965   4.063   9.704  11.454
 3222W        W 6966   1.535   3.515   3.604
 3223W        W 6967   0.671   7.515   8.713
 3224W        W 6968   1.359   5.600  10.978
 3225W        W 6969   9.443   6.173   1.459
 3226W        W 6970   4.762  10.370  11.853
 3227W        W 6971   0.878   6.110   1.850
 3228W        W 6972   0.458   9.995  10.871
 3229W        W 6973   7.843   0.127   0.845
 3230W        W 6974   5.617   8.011   9.568
 3231W        W 6975   6.316   5.427   1.838
 3232W        W 6976   9.940   3.692   2.654
 3233W        W 6977   2.846   5.135  11.484
 3234W        W 6978   8.456   9.725   9.687
 3235W        W 6979   9.966   0.381   1.392
 3236W        W 6980   6.375   9.458  10.838
 3237W        W 6981   9.288   4.940   0.268
 3238W        W 6982   0.774   3.631   0.274
 3239W        W 6983   4.997   4.826  10.289
 3240W        W 6984  10.404   8.017  11.370
 3241W        W 6985   6.776   1.227  10.009
 3242W        W 6986   0.625   1.647   0.488
 3243W        W 6987   1.984   6.323   9.569
 3244W        W 6988   6.056   9.357  11.436
 3245W        W 6989  10.224   7.355   9.471
 3246W        W 6990   6.146   3.483   8.938
 3247W        W 6991   3.774   6.313   8.434
 3248W        W 6992   2.851   6.104   1.934
 3249W        W 6993   5.199   6.983   2.350
 3250W        W 6994   7.796   4.401   0.742
 3251W        W 6995   8.063   9.782   2.894
 3252W        W 6996   6.793   6.508   8.563
 3253W        W 6997  10.216   9.030   0.935
 3254W        W 6998   9.067   8.034  10.203
 3255W        W 6999   5.193   0.384   8.978
 3256W        W 7000   0.428   1.938   2.669
 3257W        W 7001   5.980   5.117   2.800
 3258W        W 7002   3.608   7.883   3.029
 3259W        W 7003   2.711   0.298   3.181
 3260W        W 7004   9.353   1.211   1.619
 3261W        W 7005   7.941   3.295   9.979
 3262W        W 7006   8.162   0.950   1.301
 3263W        W 7007   3.161   5.018   2.363
 3264W        W 7008   6.661   1.005   2.957
 3265W        W 7009   6.099   8.121  10.542
 3266W        W 7010   1.933   5.575   3.202
 3267W        W 7011   7.235   5.480   9.767
 3268W        W 7012  10.501   5.307   1.036
 3269W        W 7013   0.694   5.274  11.657
 3270W        W 7014   9.114  10.316   0.408
 3271W        W 7015   8.662   4.652  10.294
 3272W        W 7016   9.982   0.251   3.616
 3273W        W 7017   5.314   8.408   9.590
 3274W        W 7018   9.615   6.707  11.294
 3275W        W 7019   7.857   4.232  10.469
 3276W        W 7020   8.387   6.991   9.516
 3277W        W 7021   7.366   6.229   3.859
 3278W        W 7022   5.515   3.800   2.951
 3279W        W 7023   5.796   5.793   0.256
 3280W        W 7024   3.116   2.694   1.573
 3281W        W 7025   5.099   6.736   8.948
 3282W        W 7026   7.871   4.229   9.587
 3283W        W 7027   2.696   6.680   8.999
 3284W        W 7028   3.611   9.488  11.294
 3285W        W 7029   7.921   0.388  11.500
 3286W        W 7030   7.764   5.588   8.151
 3287W        W 7031   8.585   5.386   9.252
 3288W        W 7032   8.279   0.452   3.687
 3289W        W 7033   2.680   6.491   2.627
 3290W        W 7034   5.330   5.576   3.156
 3291W        W 7035   7.473   0.517   3.407
 3292W        W 7036   3.770   9.166   1.809
 3293W        W 7037   6.584   6.026   9.289
 3294W        W 7038   6.459   8.634   2.200
 3295W        W 7039   0.118   8.467  11.554
 3296W        W 7040   5.940   7.135   8.166
 3297W        W 7041   1.422   2.400  10.481
 3298W        W 7042   7.441   3.431   0.823
 3299W        W 7043   0.999   1.825   2.103
 3300W        W 7044   7.351  10.321  11.694
 3301W        W 7045   6.175   3.245   1.940
 3302W        W 7046   7.920   4.726   8.971
 3303W        W 7047   4.273   9.639   0.349
 3304W        W 7048  10.065   5.493  10.813
 3305W        W 7049   6.403   8.103   2.226
 3306W        W 7050   0.001   7.443  11.003
 3307W        W 7051   1.173   0.449   9.959
 3308W        W 7052   1.678   1.802   9.275
 3309W        W 7053   5.743   1.768   2.028
 3310W        W 7054   2.999   2.814  10.797
 3311W        W 7055   9.891   5.209   2.217
 3312W        W 7056   8.561   9.788   2.097
 3313W        W 7057  10.390   9.868   1.177
 3314W        W 7058   4.328   7.125   2.966
 3315W        W 7059   4.031   6.333   3.360
 3316W        W 7060   4.324   1.394   2.329
 3317W        W 7061   9.993   9.788   0.225
 3318W        W 7062   5.232   4.750   9.277
 3319W        W 7063   2.205  10.296   8.617
 3320W        W 7064   4.722   7.507   8.606
 3321W        W 7065   3.674   7.850   0.729
 3322W        W 7066   7.409   7.639   1.276
 3323W        W 7067   8.435   9.702   3.567
 3324W        W 7068   2.708   4.982   9.033
 3325W        W 7069   6.488   9.253  11.686
 3326W        W 7070   1.897   2.622  10.427
 3327W        W 7071   8.410   0.871   3.403
 3328W        W 7072   8.193   1.233   0.043
 3329W        W 7073   5.554   3.622   0.461
 3330W        W 7074   7.017   4.502   1.049
 3331W        W 7075   2.332   0.427  10.471
 3332W        W 7076   2.841   9.535   3.423
 3333W        W 7077   0.661   0.427  10.028
 3334W        W 7078   9.331   7.458   1.251
 3335W        W 7079  10.254   7.047   0.683
 3336W        W 7080   4.728   7.675   9.205
 3337W        W 7081   0.125   8.006   9.969
 3338W        W 7082   8.134   7.565  10.120
 3339W        W 7083   9.116   0.339   0.443
 3340W        W 7084   8.960   9.431   8.752
 3341W        W 7085   1.773   1.231   0.907
 3342W        W 7086   5.680   3.639   0.956
 3343W        W 7087   7.326   1.776   9.436
 3344W        W 7088   3.986  10.337   3.219
 3345W        W 7089   1.829   2.255   8.974
 3346W        W 7090   3.640   0.502  10.924
 3347W        W 7091   3.430   4.560   0.040
 3348W        W 7092   2.407   1.929  10.353
 3349W        W 7093   1.273   5.105   2.381
 3350W        W 7094   1.075   5.171   8.595
 3351W        W 7095   4.352   3.665  10.822
 3352W        W 7096   0.287   3.360   2.429
 3353W        W 7097   8.950   7.959   2.317
 3354W        W 7098   4.577   8.319   0.913
 3355W        W 7099   3.929   4.618   8.672
 3356W        W 7100   3.021  10.352   0.860
 3357W        W 7101   8.338   4.952   9.134
 3358W        W 7102   2.437   8.603   3.304
 3359W        W 7103   5.347   0.748   1.659
 3360W        W 7104   8.424   6.082   0.362
 3361W        W 7105   5.128   3.340   0.850
 3362W        W 7106   6.961   9.973   2.161
 3363W        W 7107   2.133   8.979   9.994
 3364W        W 7108   0.772   5.189   2.266
 3365W        W 7109   5.691   9.904  11.964
 3366W        W 7110   8.127   3.643   1.337
 3367W        W 7111   5.700   7.565   3.364
 3368W        W 7112   6.765   2.841   9.943
 3369W        W 7113   5.842   4.478   0.250
 3370W        W 7114   0.052   9.435   8.588
 3371W        W 7115   5.427   2.146   9.834
 3372W        W 7116   8.980   2.744   3.390
 3373W        W 7117   4.207   8.424   1.798
 3374W        W 7118  10.053   0.005   3.186
 3375W        W 7119   4.963   7.676   1.403
 3376W        W 7120   1.842   2.799   0.734
 3377W        W 7121   5.732   7.836  10.837
 3378W        W 7122   3.798   0.560  11.460
 3379W        W 7123   6.592   8.563   8.941
 3380W        W 7124   9.611   2.796   0.925
 3381W        W 7125   9.451   8.904  10.181
 3382W        W 7126   6.235   2.573   3.639
 3383W        W 7127   3.572   8.914  10.786
 3384W        W 7128   3.134   7.762   0.392
 3385W        W 7129   4.083   4.016   0.972
 3386W        W 7130   1.347   5.504   0.481
 3387W        W 7131   7.680   8.142   2.871
 3388W        W 7132   5.117   9.871   1.405
 3389W        W 7133   3.256   6.936   9.057
 3390W        W 7134   8.103   5.428   3.094
 3391W        W 7135   9.372   0.449   1.056
 3392W        W 7136   8.827   3.233  10.035
 3393W        W 7137   9.029   9.345  11.333
 3394W        W 7138   5.729   2.726   3.716
 3395W        W 7139   1.789   5.525  10.717
 3396W        W 7140   6.929   4.267  11.400
 3397W        W 7141   4.242   3.906   0.179
 3398W        W 7142   2.203   8.100  11.071
 3399W        W 7143   6.216   7.650   8.592
 3400W        W 7144   1.770   1.247   9.735
 3401W        W 7145   5.402   6.486   0.031
 3402W        W 7146   1.314   7.149  10.110
 3403W        W 7147   8.921   3.566  11.778
 3404W        W 7148   6.043   5.178  11.626
 3405W        W 7149   0.512   7.853  10.505
 3406W        W 7150   7.436   6.523  11.368
 3407W        W 7151   8.123   7.869   2.760
 3408W        W 7152   2.548   0.167   1.914
 3409W        W 7153  10.183   0.536  10.938
 3410W        W 7154   6.371  10.476   2.241
 3411W        W 7155   2.769   5.111   4.057
 3412W        W 7156   8.377  10.312  10.310
 3413W        W 7157   9.021   3.515   8.660
 3414W        W 7158   7.178   3.694   0.468
 3415W        W 7159   8.218   7.984   9.819
 3416W        W 7160   0.691   1.207  10.445
 3417W        W 7161   6.746   9.308   9.391
 3418W        W 7162   1.154   0.473   1.866
 3419W        W 7163   4.199   9.356  11.120
 3420W        W 7164   4.970   7.420  10.594
 3421W        W 7165   8.160   6.918   0.272
 3422W        W 7166   4.710   5.437   9.852
 3423W        W 7167   4.008   6.588  11.090
 3424W        W 7168   6.954   8.323   3.448
 3425W        W 7169   3.827   1.973   3.480
 3426W        W 7170   7.370   6.324   0.769
 3427W        W 7171   4.252   3.207   8.918
 3428W        W 7172   0.955   0.401   2.340
 3429W        W 7173   4.364   0.959   0.472
 3430W        W 7174   5.228   1.255   0.979
 3431W        W 7175   7.487   4.765   0.895
 3432W        W 7176   6.941   3.740  10.922
 3433W        W 7177   7.125   1.697   0.940
 3434W        W 7178   5.462   4.885   0.902
 3435W        W 7179   7.583   0.208   9.051
 3436W        W 7180   1.898   6.245   9.053
 3437W        W 7181   6.108   6.790   3.246
 3438W        W 7182   6.456   4.823  10.251
 3439W        W 7183   2.112   9.915   8.936
 3440W        W 7184   3.585   0.878  11.810
 3441W        W 7185   6.549   6.332   3.532
 3442W        W 7186   3.691   9.982  10.552
 3443W        W 7187   7.564   9.093   3.002
 3444W        W 7188   6.454   8.294   9.370
 3445W        W 7189   0.288   1.556   9.364
 3446W        W 7190   9.380   4.860   9.645
 3447W        W 7191   6.093   2.861   0.687
 3448W        W 7192   1.146   4.276   2.465
 3449W        W 7193   8.908   4.885   2.414
 3450W        W 7194   9.495   3.565   1.626
 3451W        W 7195   4.341   2.805   2.314
 3452W        W 7196   0.697   9.213  10.430
 3453W        W 7197   3.850   8.524   1.283
 3454W        W 7198   1.053   2.873   8.808
 3455W        W 7199   4.758   3.048   4.062
 3456W        W 7200   7.044   1.900   0.012
 3457W        W 7201   0.618   6.678   8.507
 3458W        W 7202   1.716   6.090   2.515
 3459W        W 7203   6.984   7.922   3.146
 3460W        W 7204   5.153   8.334   2.830
 3461W        W 7205   5.361   8.831   0.404
 3462W        W 7206   8.907   5.419   8.824
 3463W        W 7207   7.000   9.253  11.824
 3464W        W 7208  10.404  10.196   0.231
 3465W        W 7209   1.471   3.266   0.693
 3466W        W 7210   7.056   6.640   1.035
 3467W        W 7211  10.354   0.674   0.214
 3468W        W 7212   9.938   4.182   9.611
 3469W        W 7213   3.328   5.016  11.310
 3470W        W 7214   7.889   6.925   2.952
 3471W        W 7215   4.698   3.042   1.004
 3472W        W 7216   4.109   4.146  11.723
 3473W        W 7217   9.445   8.315   1.785
 3474W        W 7218   0.883   2.855   0.966
 3475W        W 7219   2.913   5.196   1.940
 3476W        W 7220   0.949   2.336   9.078
 3477W        W 7221   9.878   7.112  11.417
 3478W        W 7222   5.682   7.122  11.350
 3479W        W 7223  10.116   4.572   0.342
 3480W        W 7224   5.517  10.047   3.297
 3481W        W 7225   5.162   1.244   9.517
 3482W        W 7226   1.218   4.240   2.967
 3483W        W 7227   9.707   3.958   9.205
 3484W        W 7228   3.742   8.200  11.373
 3485W        W 7229   0.426   8.644  11.197
 3486W        W 7230  10.227   2.182   0.580
 3487W        W 7231   5.091   0.687  11.801
 3488W        W 7232   7.217   1.887  10.529
 3489W        W 7233   3.845   8.795   9.941
 3490W        W 7234   8.071   3.248   0.224
 3491W        W 7235   1.859   7.882   0.767
 3492W        W 7236   5.521   8.810   1.167
 3493W        W 7237   1.293   8.107  11.429
 3494W        W 7238   9.942   4.710   3.424
 3495W        W 7239   2.680   2.984   1.231
 3496W        W 7240   6.524   8.993   1.115
 3497W        W 7241   1.990   3.464   2.750
 3498W        W 7242   8.692   0.525  10.103
 3499W        W 7243   6.632   6.732   1.378
 3500W        W 7244   5.614   9.966  10.084
 3501W        W 7245   8.788   3.633  10.955
 3502W        W 7246  10.010   0.277   0.307
 3503W        W 7247   9.837   8.310   2.854
 3504W        W 7248   3.185   1.292   1.471
 3505W        W 7249   5.674   6.313   3.715
 3506W        W 7250   4.475   7.615   8.118
 3507W        W 7251   2.728   8.083  10.336
 3508W        W 7252   6.712   5.934  11.272
 3509W        W 7253   2.653  10.344   3.574
 3510W        W 7254   1.390  10.080  11.140
 3511W        W 7255   1.908   6.953   1.992
 3512W        W 7256   3.192   4.781   1.673
 3513W        W 7257   7.101   0.299   3.138
 3514W        W 7258   7.929   0.804  10.695
 3515W        W 7259   2.319   2.881   0.428
 3516W        W 7260   3.071   1.854  10.786
 3517W        W 7261   1.356   3.057   3.531
 3518W        W 7262   8.077   3.543   3.373
 3519W        W 7263  10.269   9.412   2.970
 3520W        W 7264   2.925   1.199  10.816
 3521W        W 7265   0.264   4.291   1.899
 3522W        W 7266   9.673  10.317   9.597
 3523W        W 7267   1.332   1.813  10.241
 3524W        W 7268   7.266   7.889   9.644
 3525W        W 7269   4.501   0.791   2.768
 3526W        W 7270   5.748   8.064   1.617
 3527W        W 7271   1.187   4.292  11.922
 3528W        W 7272   3.177   9.898  10.428
 3529W        W 7273   6.591   0.181   1.834
 3530W        W 7274   5.377   0.486   3.495
 3531W        W 7275   5.095   9.973   2.476
 3532W        W 7276   0.596   0.240  11.930
 3533W        W 7277   6.578   4.494  11.094
 3534W        W 7278   0.735   0.420  11.056
 3535W        W 7279   2.927   1.638  10.290
 3536W        W 7280   3.171   7.860   0.928
 3537W        W 7281   2.615   4.234  11.909
 3538W        W 7282   2.277   1.658  11.225
 3539W        W 7283   4.680   9.633   9.084
 3540W        W 7284   3.747   0.363   0.987
 3541W        W 7285   5.041   6.055   0.870
 3542W        W 7286   3.353   2.676  11.773
 3543W        W 7287   0.461   4.009   1.526
 3544W        W 7288   7.584   7.436  10.761
 3545W        W 7289   7.112   6.222  11.063
 3546W        W 7290   8.432   8.931   0.973
 3547W        W 7291   0.594   2.481   3.524
 3548W        W 7292   0.385   7.454  11.855
 3549W        W 7293   3.549   4.979  10.738
 3550W        W 7294   7.092   8.807   9.638
 3551W        W 7295   9.763   4.299   3.153
 3552W        W 7296   3.640   8.515  11.798
 3553W        W 7297   3.966   0.047   2.174
 3554W        W 7298   7.212   7.893   2.163
 3555W        W 7299   1.365   4.961  11.357
 3556W        W 7300   0.303   5.294  11.326
 3557W        W 7301   7.532   3.195   9.691
 3558W        W 7302  10.000   9.090   9.412
 3559W        W 7303   7.125   0.403   1.166
 3560W        W 7304   0.544   1.303   9.007
 3561W        W 7305   5.710   6.463   1.443
 3562W        W 7306   8.855   0.532  10.633
 3563W        W 7307   0.819   6.997  10.090
 3564W        W 7308   4.544   7.648  10.764
 3565W        W 7309   2.388   6.889   8.062
 3566W        W 7310   4.746   6.835   3.145
 3567W        W 7311   2.866   3.162  11.433
 3568W        W 7312  10.343   2.964   1.296
 3569W        W 7313   0.538   7.060   8.915
 3570W        W 7314   9.930   9.517   9.070
 3571W        W 7315   4.272   3.659   2.692
 3572W        W 7316   8.566   6.659   3.435
 3573W        W 7317   0.818   7.807   9.094
 3574W        W 7318   1.918   2.192   9.505
 3575W        W 7319   7.235   9.425   2.790
 3576W        W 7320   1.503   7.970   9.518
 3577W        W 7321   6.710   6.990  10.927
 3578W        W 7322   4.577   0.758  11.780
 3579W        W 7323   1.287   1.031  11.549
 3580W        W 7324   5.183   4.262   9.117
 3581W        W 7325   6.694   7.361   9.987
 3582W        W 7326   3.996   3.122   1.396
 3583W        W 7327   4.698   6.945   2.144
 3584W        W 7328   5.561   2.548  10.454
 3585W        W 7329   6.239   8.690   8.582
 3586W        W 7330   4.023   8.019   8.702
 3587W        W 7331   2.227   6.610   9.209
 3588W        W 7332  10.228   7.975   2.834
 3589W        W 7333   3.075   1.931   3.202
 3590W        W 7334  10.432   0.907  11.766
 3591W        W 7335   7.503  10.086   1.537
 3592W        W 7336   1.206   3.287   2.637
 3593W        W 7337   3.356   6.119   1.897
 3594W        W 7338   0.895   4.718   2.455
 3595W        W 7339   6.056   2.006  11.753
 3596W        W 7340   8.614   9.406   1.285
 3597W        W 7341   6.527   2.329   2.990
 3598W        W 7342   6.934   6.457  11.492
 3599W        W 7343   4.549   1.103   9.249
 3600W        W 7344   0.825   8.470   2.762
 3601W        W 7345  10.019   0.768   3.647
 3602W        W 7346   4.291   9.427  10.611
 3603W        W 7347   0.516   2.876   8.726
 3604W        W 7348   4.187   4.192   3.590
 3605W        W 7349   4.604  10.022   0.455
 3606W        W 7350   2.218   3.763   9.760
 3607W        W 7351   5.589   5.109   9.843
 3608W        W 7352   5.490   9.872  11.067
 3609W        W 7353   9.291   9.018   8.723
 3610W        W 7354   1.411   9.260   0.633
 3611W        W 7355   9.374   8.094  11.954
 3612W        W 7356   1.345  10.003   2.845
 3613W        W 7357   2.464   1.791   0.017
 3614W        W 7358   5.947   7.929   9.973
 3615W        W 7359   0.714  10.228   2.815
 3616W        W 7360   1.243   2.851   2.951
 3617W        W 7361   5.672   3.560   4.236
 3618W        W 7362   0.378   8.963  11.581
 3619W        W 7363   2.643   7.534  11.496
 3620W        W 7364   7.461  10.089  11.252
 3621W        W 7365   1.756   2.801   1.710
 3622W        W 7366   1.716   9.315  10.010
 3623W        W 7367  10.283   6.172   8.539
 3624W        W 7368   2.107   7.094   8.443
 3625W        W 7369  10.055   7.832  10.218
 3626W        W 7370   1.239   3.633  11.562
 3627W        W 7371   7.185   0.207   3.679
 3628W        W 7372   4.008   0.862  10.895
 3629W        W 7373   7.785   6.120  10.473
 3630W        W 7374   7.674   1.985   9.749
 3631W        W 7375   8.027   7.941   3.261
 3632W        W 7376   1.710   5.208  11.884
 3633W        W 7377   5.003   4.195   8.141
 3634W        W 7378   8.074   2.004  11.383
 3635W        W 7379   5.326   4.428   0.700
 3636W        W 7380   8.748   2.617   0.694
 3637W        W 7381   6.857   1.754   9.643
 3638W        W 7382   6.952   4.027  10.492
 3639W        W 7383   1.363   4.333   9.884
 3640W        W 7384   5.295   6.652   8.482
 3641W        W 7385  10.037   2.234  11.219
 3642W        W 7386   2.386   1.229   3.403
 3643W        W 7387   5.796   5.098   2.179
 3644W        W 7388   6.954   0.177   0.742
 3645W        W 7389  10.361   8.966   3.232
 3646W        W 7390   9.990   2.816   2.752
 3647W        W 7391   4.706   3.123  11.572
 3648W        W 7392   2.252   9.954   2.946
 3649W        W 7393  10.266   3.080  10.861
 3650W        W 7394   9.500   1.106  11.949
 3651W        W 7395   4.416   8.898  11.122
 3652W        W 7396   0.867   6.666   2.621
 3653W        W 7397   7.956   4.094   2.163
 3654W        W 7398   6.509   9.077   8.975
 3655W        W 7399   5.214   8.379   8.903
 3656W        W 7400   4.987  10.439   9.736
 3657W        W 7401   4.495   9.583   2.332
 3658W        W 7402   1.149   0.474   0.726
 3659W        W 7403   4.872   0.251  10.579
 3660W        W 7404   3.889   9.900   1.166
 3661W        W 7405   4.187   7.901  10.313
 3662W        W 7406   3.724   1.934  11.530
 3663W        W 7407  10.287   8.431   1.662
 3664W        W 7408   7.614   1.807   1.655
 3665W        W 7409   7.509   9.968  10.738
 3666W        W 7410   8.840   9.010   1.756
 3667W        W 7411   1.804   8.137  11.460
 3668W        W 7412   1.010   5.531   3.222
 3669W        W 7413   9.450   7.890   3.474
 3670W        W 7414   9.398   8.601  11.862
 3671W        W 7415   8.601   4.292  11.778
 3672W        W 7416   3.476  10.330   3.308
 3673W        W 7417   4.131   4.382  11.240
 3674W        W 7418   9.765   0.995   1.808
 3675W        W 7419   7.453   8.860   4.054
 3676W        W 7420   2.630   2.403   0.381
 3677W        W 7421   9.855   9.787  11.699
 3678W        W 7422   4.430   3.633   9.121
 3679W        W 7423   9.394   2.214   2.773
 3680W        W 7424   4.221   6.564   9.920
 3681W        W 7425   1.006   2.389   0.771
 3682W        W 7426   6.264   0.762   1.160
 3683W        W 7427   5.991   5.688  11.377
 3684W        W 7428   4.240   8.906  10.300
 3685W        W 7429   8.506   8.004   1.026
 3686W        W 7430   0.494   5.105   0.126
 3687W        W 7431   7.818   9.352   0.338
 3688W        W 7432   2.852   9.018   3.260
 3689W        W 7433   2.207   1.241   1.169
 3690W        W 7434   9.911   2.297   2.806
 3691W        W 7435   1.799   1.421   1.425
 3692W        W 7436   0.292   4.917  11.682
 3693W        W 7437   8.922   7.989   2.841
 3694W        W 7438   8.951   1.756   9.327
 3695W        W 7439   4.571   9.083   2.448
 3696W        W 7440   8.376   2.354   2.513
 3697W        W 7441   3.593   1.309   0.441
 3698W        W 7442   8.304   6.303   3.720
 3699W        W 7443   1.815   4.821  11.576
 3700W        W 7444   6.746   6.719   9.041
 3701W        W 7445   7.640   0.920   0.715
 3702W        W 7446   8.573   1.452  10.962
 3703W        W 7447   2.086   9.306  10.361
 3704W        W 7448   9.835   4.626   9.904
 3705W        W 7449   3.804   9.137  10.359
 3706W        W 7450   0.677   9.390   2.242
 3707W        W 7451   2.635   2.254  11.885
 3708W        W 7452   2.785   3.098   3.118
 3709W        W 7453   9.972   6.404   1.866
 3710W        W 7454   1.464   3.611   8.687
 3711W        W 7455   9.418   3.951  11.547
 3712W        W 7456   8.313   9.997  10.728
 3713W        W 7457   2.022   4.888   3.685
 3714W        W 7458   0.742   6.530   2.115
 3715W        W 7459   0.641   0.373   1.925
 3716W        W 7460   9.651   4.248   8.771
 3717W        W 7461   0.873   2.757  11.870
 3718W        W 7462   8.101   7.953  11.783
 3719W        W 7463   6.487   8.482  10.868
 3720W        W 7464   3.537   7.570   9.351
 3721W        W 7465   3.288   3.795   2.662
 3722W        W 7466   6.007   6.096  10.020
 3723W        W 7467  10.406   8.182  11.928
 3724W        W 7468   9.790   5.008   0.807
 3725W        W 7469   7.463   4.588  11.019
 3726W        W 7470   5.176   8.396  10.083
 3727W        W 7471  10.325   5.131  10.540
 3728W        W 7472  10.300   7.021   1.192
 3729W        W 7473   7.145   7.216  10.798
 3730W        W 7474   7.621   9.161   9.714
 3731W        W 7475   8.594   9.260   9.542
 3732W        W 7476   9.597   3.472   9.397
 3733W        W 7477   0.036   0.873   9.743
 3734W        W 7478   9.898   9.307   9.900
 3735W        W 7479   9.889   6.127   9.485
 3736W        W 7480   6.911  10.160  11.880
 3737W        W 7481   5.480   9.989   1.726
 3738W        W 7482   5.499   3.320   9.836
 3739W        W 7483   9.562   6.640   1.689
 3740W        W 7484   5.059   8.511  11.546
 3741W        W 7485   3.735  10.474  10.821
 3742W        W 7486   9.352   9.505   0.511
 3743W        W 7487   4.785   8.680   8.857
 3744W        W 7488   9.336  10.312  11.870
 3745W        W 7489   3.719   8.657   1.760
 3746W        W 7490  10.345   5.507   9.981
 3747W        W 7491   1.524   3.655   2.779
 3748W        W 7492   6.601   8.487   1.293
 3749W        W 7493   2.895   7.447   2.339
 3750W        W 7494   3.065   5.091  10.888
 3751W        W 7495   5.262   9.663   0.055
 3752W        W 7496   0.031   3.195   9.926
 3753W        W 7497   9.387   3.284   0.284
 3754W        W 7498   8.903   8.349   1.065
 3755W        W 7499   4.282   6.805   3.376
 3756W        W 7500   9.989   8.821   0.549
 3757W        W 7501   2.411   3.394   0.369
 3758W        W 7502   7.399   2.441   0.935
 3759W        W 7503   6.711   0.303   8.749
 3760W        W 7504   2.640   6.941   8.525
 3761W        W 7505   0.266   3.339   0.323
 3762W        W 7506   9.412   6.223   3.056
 3763W        W 7507   7.608   0.016   9.927
 3764W        W 7508   2.976   6.812   2.893
 3765W        W 7509   1.479   8.193   3.193
 3766W        W 7510   2.850   2.865   0.338
 3767W        W 7511   1.248   9.825   8.580
 3768W        W 7512   5.789   4.241   3.602
 3769W        W 7513   0.207   4.193   2.817
 3770W        W 7514   9.771   5.880  11.035
 3771W        W 7515   5.998  10.383   9.919
 3772W        W 7516   4.225   7.328   0.455
 3773W        W 7517   7.333   9.020   0.210
 3774W        W 7518  10.289   9.466   2.473
 3775W        W 7519   3.257   7.077  11.744
 3776W        W 7520   2.485   7.848  11.856
 3777W        W 7521   5.703   0.715  11.422
 3778W        W 7522   9.036   2.186   3.397
 3779W        W 7523   3.755   3.170  11.182
 3780W        W 7524   4.712   3.156   3.209
 3781W        W 7525   7.397   6.979   1.642
 3782W        W 7526   2.385   9.898   9.589
 3783W        W 7527   8.319   3.760  11.069
 3784W        W 7528   5.640   9.093   0.754
 3785W        W 7529   3.822   9.452   2.916
 3786W        W 7530   1.747   9.520  11.280
 3787W        W 7531   1.756   6.513   3.020
 3788W        W 7532   3.356   7.393   8.919
 3789W        W 7533   0.267   1.611   8.314
 3790W        W 7534   6.539   0.182  11.493
 3791W        W 7535   4.706   4.581  11.196
 3792W        W 7536   8.238   2.646   0.746
 3793W        W 7537   6.188   8.199   1.377
 3794W        W 7538   0.800   9.300  11.555
 3795W        W 7539   5.121   6.054   2.444
 3796W        W 7540   2.694   8.111  10.860
 3797W        W 7541   6.134   4.254   1.233
 3798W        W 7542   4.741   8.572  10.284
 3799W        W 7543   5.611   9.035  10.529
 3800W        W 7544   7.490   0.083  10.415
 3801W        W 7545   4.504   4.721  10.353
 3802W        W 7546   7.144   4.928   3.318
 3803W        W 7547   4.947   7.375   8.126
 3804W        W 7548   8.006   3.192   1.592
 3805W        W 7549   5.465  10.436   9.944
 3806W        W 7550   9.174   6.703   0.133
 3807W        W 7551   9.576   8.962   9.705
 3808W        W 7552   2.228   0.756   9.641
 3809W        W 7553   8.049   6.694  10.266
 3810W        W 7554   5.226   7.096   4.221
 3811W        W 7555   7.358   7.141  10.326
 3812W        W 7556   3.051   6.628  11.769
 3813W        W 7557   0.300   2.907   9.586
 3814W        W 7558   6.212   7.054   3.997
 3815W        W 7559   1.831   6.730   1.521
 3816W        W 7560   1.124   5.271   1.035
 3817W        W 7561   8.726   7.443   3.574
 3818W        W 7562   1.321   7.091  10.637
 3819W        W 7563   8.798  10.272   0.927
 3820W        W 7564   7.053   7.098   8.873
 3821W        W 7565   1.803   4.948   2.304
 3822W        W 7566   4.229   5.206  10.087
 3823W        W 7567   6.208   8.375   2.865
 3824W        W 7568   5.069   3.362   0.353
 3825W        W 7569   3.179   1.006   2.870
 3826W        W 7570  10.433   0.632   1.357
 3827W        W 7571   1.538   7.816   2.415
 3828W        W 7572   6.861   6.190   8.137
 3829W        W 7573   5.949   9.640  11.024
 3830W        W 7574   4.457   1.701   2.819
 3831W        W 7575   8.123   2.787   2.834
 3832W        W 7576   8.589   6.777   0.936
 3833W        W 7577   4.823   1.326   2.136
 3834W        W 7578   9.395  10.145   2.149
 3835W        W 7579  10.004  10.158   0.975
 3836W        W 7580   7.656   8.145   0.033
 3837W        W 7581   3.287   6.001   9.165
 3838W        W 7582   2.266   5.987  11.884
 3839W        W 7583   8.401   7.045  10.406
 3840W        W 7584   0.220   7.165   0.959
 3841W        W 7585   8.534   2.829   9.984
 3842W        W 7586   5.154   6.504   2.161
 3843W        W 7587   1.401   6.915   8.884
 3844W        W 7588   5.636   3.325   2.806
 3845W        W 7589   8.132   6.513   3.177
 3846W        W 7590   4.673   9.861  10.820
 3847W        W 7591   8.980   4.751   1.535
 3848W        W 7592   1.761   2.881   9.985
 3849W        W 7593   7.050   8.951   2.854
 3850W        W 7594   6.123   6.507  10.853
 3851W        W 7595   1.326   3.302   2.155
 3852W        W 7596   7.050   2.735  11.548
 3853W        W 7597   9.856  10.228  11.970
 3854W        W 7598   3.781   7.995   9.528
 3855W        W 7599   3.164   1.434   1.977
 3856W        W 7600   6.476   0.214   0.454
 3857W        W 7601   5.087   1.775  10.749
 3858W        W 7602   2.291   5.561  11.494
 3859W        W 7603   5.369   5.700   8.585
 3860W        W 7604   2.237   7.360   9.704
 3861W        W 7605   6.146   8.087  11.075
 3862W        W 7606   1.868   7.602   9.470
 3863W        W 7607   6.963   3.495   2.550
 3864W        W 7608   1.886   4.517   1.415
 3865W        W 7609   0.360   0.956   2.649
 3866W        W 7610   0.916   5.086   9.956
 3867W        W 7611   0.464   4.841  10.104
 3868W        W 7612   4.639   5.370  11.198
 3869W        W 7613   5.119   3.810   0.135
 3870W        W 7614   4.317   4.597  10.820
 3871W        W 7615   5.606   3.314   2.292
 3872W        W 7616   2.154   9.766  10.550
 3873W        W 7617   7.640   9.603   1.647
 3874W        W 7618   4.110   6.045   0.994
 3875W        W 7619  10.327   1.791  11.461
 3876W        W 7620   8.949   2.860   1.457
 3877W        W 7621   0.590   5.920   1.437
 3878W        W 7622   7.408   0.533   9.463
 3879W        W 7623   8.493   3.916   3.313
 3880W        W 7624   9.072   2.242  11.464
 3881W        W 7625   9.347   4.605  10.094
 3882W        W 7626   1.935   9.087   2.821
 3883W        W 7627   1.788   0.897   9.350
 3884W        W 7628   9.436   1.274  10.927
 3885W        W 7629   8.575   4.582  11.311
 3886W        W 7630   8.481   2.732   8.946
 3887W        W 7631   8.867   1.650   3.384
 3888W        W 7632   7.221   7.837   8.601
 3889W        W 7633   1.971   7.702   2.685
 3890W        W 7634   9.891   0.669   0.978
 3891W        W 7635   1.173   4.036   1.444
 3892W        W 7636   5.732   1.285  10.769
 3893W        W 7637   8.049   7.839  11.250
 3894W        W 7638   2.280   5.264   3.447
 3895W        W 7639   8.055   9.809   9.305
 3896W        W 7640   2.671   8.961  10.979
 3897W        W 7641  10.483   1.857  11.960
 3898W        W 7642   9.429   8.611   2.748
 3899W        W 7643   3.230   4.699   3.604
 3900W        W 7644   9.744   0.850  11.018
 3901W        W 7645   7.152   6.693  10.767
 3902W        W 7646   9.049   0.732   0.775
 3903W        W 7647   9.969   9.977  10.820
 3904W        W 7648   5.241   9.710  10.379
 3905W        W 7649   7.535   8.617   3.151
 3906W        W 7650   5.715   6.459   0.934
 3907W        W 7651   1.402   9.531  10.881
 3908W        W 7652   9.794   3.721   9.812
 3909W        W 7653   7.060   0.069   9.072
 3910W        W 7654   6.476   6.640  11.217
 3911W        W 7655   1.751   6.185  11.871
 3912W        W 7656   5.255   4.461  11.017
 3913W        W 7657   5.690   4.212   2.150
 3914W        W 7658   5.562   5.075   3.127
 3915W        W 7659   1.946   3.236   9.663
 3916W        W 7660   6.152   3.333  11.428
 3917W        W 7661   6.355   7.729   1.265
 3918W        W 7662   5.635   0.265   0.398
 3919W        W 7663   3.286   4.987   4.035
 3920W        W 7664   8.204   6.684   2.222
 3921W        W 7665   1.071   3.531   1.476
 3922W        W 7666   4.815   9.459   3.180
 3923W        W 7667  10.469  10.475  10.215
 3924W        W 7668   9.280   4.062   2.493
 3925W        W 7669   8.442   1.845   2.420
 3926W        W 7670   3.681   4.023   1.384
 3927W        W 7671   1.058   7.096   9.643
 3928W        W 7672   9.658   4.744  10.467
 3929W        W 7673   2.789   1.209   0.764
 3930W        W 7674   2.268   8.314  11.561
 3931W        W 7675   8.033   8.463  11.764
 3932W        W 7676   1.825  10.024   1.635
 3933W        W 7677   6.541   9.349  10.354
 3934W        W 7678   9.626   3.795  10.605
 3935W        W 7679  10.486   0.817  11.246
 3936W        W 7680   1.229   1.385   2.299
 3937W        W 7681   9.430   2.669   1.502
 3938W        W 7682   4.894  10.229   2.981
 3939W        W 7683   4.130   2.692   9.058
 3940W        W 7684   9.430  10.051   2.676
 3941W        W 7685   5.614   6.638   8.925
 3942W        W 7686   8.072   2.877  10.726
 3943W        W 7687   1.795   2.767  11.800
 3944W        W 7688   3.596   0.910   2.591
 3945W        W 7689   8.497   8.907  10.284
 3946W        W 7690   0.273   4.196   9.237
 3947W        W 7691   1.545   1.425   8.936
 3948W        W 7692   4.950   2.238  11.882
 3949W        W 7693   8.601  10.472  10.881
 3950W        W 7694   2.134   1.077  10.057
 3951W        W 7695   0.959   6.996   2.114
 3952W        W 7696   8.065   0.683   1.747
 3953W        W 7697   7.304   6.205  10.354
 3954W        W 7698   9.454   0.752   3.535
 3955W        W 7699  10.499   5.077   9.739
 3956W        W 7700   8.819   5.088  10.507
 3957W        W 7701   9.002   4.525   8.818
 3958W        W 7702   4.891   3.726   8.425
 3959W        W 7703   4.970   5.684   0.284
 3960W        W 7704   2.395   0.342   2.779
 3961W        W 7705   9.762   8.979   3.488
 3962W        W 7706  10.434   8.590  10.098
 3963W        W 7707   6.335  10.331   2.748
 3964W        W 7708   4.244   5.348  10.578
 3965W        W 7709   7.075   3.361  11.233
 3966W        W 7710   1.445   1.662   0.213
 3967W        W 7711   7.438   5.227   9.350
 3968W        W 7712   3.316   0.431   1.280
 3969W        W 7713   1.231   3.667   1.009
 3970W        W 7714   7.057   6.109   9.093
 3971W        W 7715   5.978   2.106   9.144
 3972W        W 7716   9.862   1.840   9.382
 3973W        W 7717   0.881   1.686   2.579
 3974W        W 7718   3.318   9.574  11.816
 3975W        W 7719   6.576   0.503   0.862
 3976W        W 7720   3.363   3.936   3.136
 3977W        W 7721   3.403   5.419   3.220
 3978W        W 7722   7.225   4.116  11.818
 3979W        W 7723   1.220   6.111  11.869
 3980W        W 7724   0.838   9.638   9.490
 3981W        W 7725   7.180   7.432   2.391
 3982W        W 7726   9.388   3.646   1.126
 3983W        W 7727   3.921   9.698   0.696
 3984W        W 7728   5.584   1.741   3.023
 3985W        W 7729   3.273   4.879   0.554
 3986W        W 7730   5.076   4.065  10.746
 3987W        W 7731   8.050   5.383   1.251
 3988W        W 7732   4.511   4.122   9.409
 3989W        W 7733   5.343   9.763  11.557
 3990W        W 7734   7.481   9.611  10.029
 3991W        W 7735   6.881   9.395  10.728
 3992W        W 7736   0.193   6.176   0.807
 3993W        W 7737   2.641   5.656   9.919
 3994W        W 7738   3.173   4.205   1.252
 3995W        W 7739  10.223   6.861   9.390
 3996W        W 7740   9.617   7.424   0.830
 3997W        W 7741   7.065   5.239   0.285
 3998W        W 7742   5.924   0.820   9.949
 3999W        W 7743   8.071   8.390   2.597
 4000W        W 7744   6.597   6.696   2.259
 4001W        W 7745   6.889   4.835   9.939
 4002W        W 7746   3.866   3.068   9.249
 4003W        W 7747   1.753   2.234  11.352
 4004W        W 7748   6.825  10.329   2.500
 4005W        W 7749   1.387  10.381  10.284
 4006W        W 7750   5.946   4.742  10.339
 4007W        W 7751   4.939   7.873   8.273
 4008W        W 7752   8.412   3.611   8.446
 4009W        W 7753  10.294   0.770   8.721
 4010W        W 7754   9.006   2.502   1.846
 4011W        W 7755   2.912   4.620   4.082
 4012W        W 7756   4.647   6.470   2.338
 4013W        W 7757   5.045   7.168   1.335
 4014W        W 7758   0.694   6.167   0.938
 4015W        W 7759   9.548   0.060   0.272
 4016W        W 7760   2.898   3.724  10.541
 4017W        W 7761   3.236   8.320  11.518
 4018W        W 7762   7.875   2.418  10.506
 4019W        W 7763   0.860   1.383   0.924
 4020W        W 7764   9.464   1.849   0.929
 4021W        W 7765   7.200   2.599   2.518
 4022W        W 7766   1.451   8.447   1.038
 4023W        W 7767   3.109   2.495   0.601
 4024W        W 7768   7.569   6.115   2.726
 4025W        W 7769   5.630   1.142   1.268
 4026W        W 7770   7.026   9.651   0.816
 4027W        W 7771   9.596   7.199  10.091
 4028W        W 7772   5.951   6.712   4.290
 4029W        W 7773   4.605   3.222  10.815
 4030W        W 7774  10.058   0.989   1.384
 4031W        W 7775   0.408   8.945   1.565
 4032W        W 7776   2.706   7.892   1.205
 4033W        W 7777  10.370   8.514   0.738
 4034W        W 7778   9.966   5.459   1.760
 4035W        W 7779   6.669   5.280  11.977
 4036W        W 7780   5.069   7.888  10.296
 4037W        W 7781   9.941   4.968  10.850
 4038W        W 7782   9.843   1.441  10.183
 4039W        W 7783   4.248   4.434   9.093
 4040W        W 7784   5.597   9.493  10.717
 4041W        W 7785   4.516   6.007   0.686
 4042W        W 7786   7.624   5.546   3.984
 4043W        W 7787   2.154   0.359   9.972
 4044W        W 7788   6.469   9.987   2.398
 4045W        W 7789   5.225   9.443   0.661
 4046W        W 7790   9.666   9.811  11.215
 4047W        W 7791   7.944   0.297  10.559
 4048W        W 7792   0.807   7.925  11.514
 4049W        W 7793  10.289  10.327   1.960
 4050W        W 7794   5.696   3.581  10.918
 4051W        W 7795   2.308   5.052  11.620
 4052W        W 7796  10.071   5.707   2.193
 4053W        W 7797   4.722   2.729   9.793
 4054W        W 7798   6.074   7.214   3.538
 4055W        W 7799   7.567   6.653  10.450
 4056W        W 7800   1.650   8.613  11.509
 4057W        W 7801   5.974   7.123   1.878
 4058W        W 7802   8.675   1.983   3.727
 4059W        W 7803   4.484   7.947   8.503
 4060W        W 7804   8.441   6.212   9.147
 4061W        W 7805   3.403   4.630   8.644
 4062W        W 7806   8.372   9.258   0.055
 4063W        W 7807   1.340   6.388   2.725
 4064W        W 7808  10.194   4.164   2.872
 4065W        W 7809   7.462   5.828   0.806
 4066W        W 7810  10.499   1.715   2.498
 4067W        W 7811   2.930   2.053   9.471
 4068W        W 7812   0.080   1.605   1.831
 4069W        W 7813   4.058   6.920  10.298
 4070W        W 7814   6.752   4.598   3.262
 4071W        W 7815   7.172   2.662   1.361
 4072W        W 7816   4.864   2.826   2.311
 4073W        W 7817   4.880   9.511   2.677
 4074W        W 7818   5.139   4.679  11.480
 4075W        W 7819   8.967   0.407   1.446
 4076W        W 7820   4.013   7.529   3.038
 4077W        W 7821   1.802   3.236   1.996
 4078W        W 7822   1.672   9.521   2.985
 4079W        W 7823   7.123   7.876  11.468
 4080W        W 7824   1.279   4.271   0.420
 4081W        W 7825   9.348   8.575   8.991
 4082W        W 7826   0.818   3.835  11.784
 4083W        W 7827   0.706   7.100   0.747
 4084W        W 7828   3.357   8.835   3.320
 4085W        W 7829   9.623  10.411   3.433
 4086W        W 7830   1.190   2.876   0.514
 4087W        W 7831   6.945   9.972  11.372
 4088W        W 7832   2.313   3.846   2.661
 4089W        W 7833   4.946   4.199   0.949
 4090W        W 7834   4.646   4.941   9.903
 4091W        W 7835   2.854   1.156   3.265
 4092W        W 7836   8.991   8.415   2.563
 4093W        W 7837   3.292   2.381  10.125
 4094W        W 7838   1.787   6.243  11.329
 4095W        W 7839   4.625   7.627  10.267
 4096W        W 7840   6.487   3.037  10.510
 4097W        W 7841   7.338   1.037   9.402
 4098W        W 7842   7.039   7.463   9.410
 4099W        W 7843   4.088  10.108   0.357
 4100W        W 7844   8.388   1.977  10.962
 4101W        W 7845   5.669   1.135   0.736
 4102W        W 7846   8.188   6.620   1.628
 4103W        W 7847   9.399   3.107  11.255
 4104W        W 7848   0.287   7.823   0.267
 4105W        W 7849   0.312   1.742   8.881
 4106W        W 7850   4.461   1.040  10.997
 4107W        W 7851   7.476   2.714   1.800
 4108W        W 7852   8.335   0.923   9.230
 4109W        W 7853   4.687   3.023   0.112
 4110W        W 7854   5.863   2.392   0.047
 4111W        W 7855   7.375   5.028  11.366
 4112W        W 7856   7.461   3.239   1.873
 4113W        W 7857   1.221   7.455   2.178
 4114W        W 7858   4.177   0.775  10.397
 4115W        W 7859   6.742   1.466  11.946
 4116W        W 7860   2.638   3.877  11.481
 4117W        W 7861   6.954   0.976   0.274
 4118W        W 7862   1.439   8.676  10.465
 4119W        W 7863   8.332   9.812  10.204
 4120W        W 7864   8.046   6.024   0.007
 4121W        W 7865   1.901   8.529  11.076
 4122W        W 7866   9.782   9.853   9.818
 4123W        W 7867   3.782   1.811   9.016
 4124W        W 7868   4.449   8.094   0.086
 4125W        W 7869   5.186   9.405   1.165
 4126W        W 7870   1.319  10.340   9.790
 4127W        W 7871   6.569   3.658   3.214
 4128W        W 7872   2.811   8.550  10.614
 4129W        W 7873   5.544   6.404  11.119
 4130W        W 7874   7.036   8.659   1.103
 4131W        W 7875   5.124   8.951   0.859
 4132W        W 7876  10.164  10.289   1.448
 4133W        W 7877   1.430   9.093   2.721
 4134W        W 7878   4.637   5.477   1.868
 4135W        W 7879   1.271   8.455   8.753
 4136W        W 7880   4.479  10.455  11.430
 4137W        W 7881  10.396   3.637   2.148
 4138W        W 7882   8.070   7.491   9.587
 4139W        W 7883   4.059   6.824  11.534
 4140W        W 7884   7.351   7.510   3.162
 4141W        W 7885  10.069   6.845   2.422
 4142W        W 7886   2.815   4.525  10.479
 4143W        W 7887   6.103   0.203  11.761
 4144W        W 7888   0.446   0.444   2.420
 4145W        W 7889   2.779   5.522   0.748
 4146W        W 7890   4.587  10.335  10.547
 4147W        W 7891   6.183   0.304   8.811
 4148W        W 7892   5.648  10.393   1.463
 4149W        W 7893   6.921   3.800  10.041
 4150W        W 7894   2.808   8.842   2.770
 4151W        W 7895   7.577   5.265   1.389
 4152W        W 7896   2.311   5.665   0.493
 4153W        W 7897   9.434   7.621  11.046
 4154W        W 7898   7.422   9.071   2.460
 4155W        W 7899   8.665   2.400  11.888
 4156W        W 7900   8.956   5.915   9.900
 4157W        W 7901   8.957  10.045   1.817
 4158W        W 7902   3.723   8.090  10.459
 4159W        W 7903   3.302   2.143   0.912
 4160W        W 7904   0.039   2.890   0.819
 4161W        W 7905   0.746   2.918   1.487
 4162W        W 7906   4.133   8.820   9.438
 4163W        W 7907   3.613   8.051   9.054
 4164W        W 7908   1.596   2.247   2.290
 4165W        W 7909   0.270   5.998   3.196
 4166W        W 7910   4.784  10.372  11.004
 4167W        W 7911   0.246   6.059   2.678
 4168W        W 7912   0.892   5.536   9.694
 4169W        W 7913   5.053   6.518   2.657
 4170W        W 7914   1.861   9.909   9.398
 4171W        W 7915   7.996   8.832   9.558
 4172W        W 7916   5.134   1.308  10.020
 4173W        W 7917   4.796   2.048   1.007
 4174W        W 7918   6.617   4.247   2.319
 4175W        W 7919   2.721   0.686   1.507
 4176W        W 7920   3.275   8.601   2.878
 4177W        W 7921   6.130   0.469  11.289
 4178W        W 7922   7.764   0.423  11.010
 4179W        W 7923   2.523   6.986   0.847
 4180W        W 7924   9.992   5.476   8.979
 4181W        W 7925   8.102   3.036  11.729
 4182W        W 7926   5.485   0.777   2.496
 4183W        W 7927   5.556   7.302   0.676
 4184W        W 7928   2.256   8.617   2.807
 4185W        W 7929   3.294   3.712   1.193
 4186W        W 7930   7.228   3.886   8.962
 4187W        W 7931   2.686   8.526   9.710
 4188W        W 7932   6.073   3.844  10.694
 4189W        W 7933   7.646   4.239   3.540
 4190W        W 7934   2.414   4.800   3.151
 4191W        W 7935   0.312   1.241  11.262
 4192W        W 7936   8.015   7.385  11.032
 4193W        W 7937   6.477   5.864  10.388
 4194W        W 7938   0.254   9.507  10.036
 4195W        W 7939   5.045   6.653  11.258
 4196W        W 7940   2.169   5.996   2.798
 4197W        W 7941   9.241   9.041   0.938
 4198W        W 7942   0.072   3.742   9.419
 4199W        W 7943   2.203   3.315   2.317
 4200W        W 7944   7.067   1.204   3.380
 4201W        W 7945   3.224   7.698   2.693
 4202W        W 7946   9.422   5.055   2.315
 4203W        W 7947   8.704   1.760  10.599
 4204W        W 7948   3.180   5.588  10.998
 4205W        W 7949   1.791   0.308   2.595
 4206W        W 7950   9.945   2.761   2.234
 4207W        W 7951   6.735   4.835   1.289
 4208W        W 7952   3.056   8.802  11.460
 4209W        W 7953   8.796   8.903  11.477
 4210W        W 7954   2.132   8.977  10.915
 4211W        W 7955   5.877   7.661   0.532
 4212W        W 7956   8.494   8.140   3.089
 4213W        W 7957   3.625   5.627   0.320
 4214W        W 7958   4.984   6.882   0.877
 4215W        W 7959   2.306   9.360   1.654
 4216W        W 7960   2.624   2.392  11.395
 4217W        W 7961   2.862   5.088   9.851
 4218W        W 7962   8.009   2.355   9.540
 4219W        W 7963   6.715   2.324   9.760
 4220W        W 7964   1.003   8.386   3.257
 4221W        W 7965   8.907   4.605   9.820
 4222W        W 7966   1.877   6.529   0.564
 4223W        W 7967   3.437   8.190   1.828
 4224W        W 7968   4.285  10.277   1.858
 4225W        W 7969   3.352   5.781  10.560
 4226W        W 7970   6.042   1.698  10.271
 4227W        W 7971   1.384   3.713   1.851
 4228W        W 7972   3.415   9.591   0.686
 4229W        W 7973   7.122   6.585   3.293
 4230W        W 7974   5.425   2.017   1.716
 4231W        W 7975   2.122   4.665   0.532
 4232W        W 7976   4.969   1.461   3.467
 4233W        W 7977   9.265   8.470  10.409
 4234W        W 7978   8.554   8.054   1.524
 4235W        W 7979   3.785   3.197   1.877
 4236W        W 7980   0.235   6.474   9.434
 4237W        W 7981   6.008   1.736  10.766
 4238W        W 7982   3.702   4.880   3.170
 4239W        W 7983   2.099   1.326   0.187
 4240W        W 7984   2.748   2.375  10.800
 4241W        W 7985   7.927   1.341   0.467
 4242W        W 7986   6.975   4.193   0.267
 4243W        W 7987   5.615   0.479  11.894
 4244W        W 7988   2.293   6.722   1.275
 4245W        W 7989   9.798   9.281   0.352
 4246W        W 7990   4.076   8.996  10.764
 4247W        W 7991   7.178   1.854   2.977
 4248W        W 7992   6.966   8.418   9.281
 4249W        W 7993   8.866   4.065  11.399
 4250W        W 7994   2.251   4.461  10.327
 4251W        W 7995  10.035   5.546   0.887
 4252W        W 7996   6.935   7.139   1.473
 4253W        W 7997   3.097   5.012   9.371
 4254W        W 7998   8.042   8.890   2.840
 4255W        W 7999   9.214   0.559   2.314
 4256W        W 8000   5.649   0.400   9.223
 4257W        W 8001   2.707   3.607   9.127
 4258W        W 8002   8.941   1.464  10.227
 4259W        W 8003   0.701   9.359   2.738
 4260W        W 8004   7.791   5.049   3.261
 4261W        W 8005   0.795   1.848   1.257
 4262W        W 8006   6.616   8.604   3.168
 4263W        W 8007   7.458   3.413   2.397
 4264W        W 8008   0.000   5.568   0.223
 4265W        W 8009   4.680   5.512   1.360
 4266W        W 8010   3.177   5.141  11.896
 4267W        W 8011   3.291   0.466   9.589
 4268W        W 8012   7.625   4.750  10.335
 4269W        W 8013   4.346   4.923  11.289
 4270W        W 8014   1.648   8.827   9.998
 4271W        W 8015   6.011   6.601  10.309
 4272W        W 8016   4.299   1.763  10.647
 4273W        W 8017   8.467   6.679  10.979
 4274W        W 8018   0.306   8.647  11.990
 4275W        W 8019   7.385  10.488   0.973
 4276W        W 8020   6.562   9.882   9.258
 4277W        W 8021   7.207   0.905   9.977
 4278W        W 8022   6.258   2.882   2.341
 4279W        W 8023   3.723   8.224   0.264
 4280W        W 8024   8.426   3.222   9.214
 4281W        W 8025  10.420   0.373   2.604
 4282W        W 8026   4.007   4.280   9.550
 4283W        W 8027   4.168   3.537   1.728
 4284W        W 8028   6.750   3.717   9.039
 4285W        W 8029   9.595   7.611  11.894
 4286W        W 8030   3.832   2.822   2.271
 4287W        W 8031   0.528   9.322   1.239
 4288W        W 8032   6.302   3.213   3.240
 4289W        W 8033   9.864   4.265  10.508
 4290W        W 8034   7.716   2.728  11.887
 4291W        W 8035   3.670   6.894   2.269
 4292W        W 8036   1.262   8.770   1.826
 4293W        W 8037   4.176   3.966   1.476
 4294W        W 8038   4.074   9.925   2.919
 4295W        W 8039   2.628   5.953  10.866
 4296W        W 8040   8.465   0.515   2.695
 4297W        W 8041   5.694   0.344   1.708
 4298W        W 8042   0.994   7.501  10.783
 4299W        W 8043   6.643   0.520   3.139
 4300W        W 8044   6.167   8.178   3.678
 4301W        W 8045   2.846   8.789   0.798
 4302W        W 8046   2.232   7.640   3.566
 4303W        W 8047   5.973   7.198   0.346
 4304W        W 8048   6.785   9.620   3.471
 4305W        W 8049   4.271   9.931  10.496
 4306W        W 8050   9.406   7.788   9.049
 4307W        W 8051   4.208   3.110  11.743
 4308W        W 8052   6.473   4.060   1.849
 4309W        W 8053   6.254   7.913  11.586
 4310W        W 8054   3.274   0.254   3.130
 4311W        W 8055   4.236   8.119  11.311
 4312W        W 8056   1.376   5.793  10.464
 4313W        W 8057   5.842   1.863   1.429
 4314W        W 8058   2.119   5.133  10.793
 4315W        W 8059   7.951   2.292   0.453
 4316W        W 8060   5.684   9.332   3.615
 4317W        W 8061   8.488   2.758   1.681
 4318W        W 8062   4.141  10.402  11.891
 4319W        W 8063   8.761   6.611  11.806
 4320W        W 8064   6.928   0.442   0.277
 4321W        W 8065   0.359   1.448   2.750
 4322W        W 8066   0.245   6.043   9.016
 4323W        W 8067   2.823   0.349   1.073
 4324W        W 8068   3.852   3.871   0.503
 4325W        W 8069   2.976   7.908  11.704
 4326W        W 8070   3.960   8.280  10.028
 4327W        W 8071   2.721   6.888  10.730
 4328W        W 8072   4.093   0.071   9.953
 4329W        W 8073   3.780   9.547   8.982
 4330W        W 8074   2.786   8.053   0.189
 4331W        W 8075   4.660   2.036   9.526
 4332W        W 8076   5.985   5.007   0.953
 4333W        W 8077   2.650   6.608  11.433
 4334W        W 8078   6.616   0.257   2.622
 4335W        W 8079   2.666   2.281   9.072
 4336W        W 8080   0.455   1.718   2.207
 4337W        W 8081   9.812   7.967   0.205
 4338W        W 8082   2.627   8.021  11.362
 4339W        W 8083   9.915   7.959   3.256
 4340W        W 8084   4.453   2.396  11.039
 4341W        W 8085  10.426   8.948   1.768
 4342W        W 8086   2.770   5.907   3.920
 4343W        W 8087   8.870   8.754   0.748
 4344W        W 8088   4.092   7.980   2.824
 4345W        W 8089   5.666   6.229   1.893
 4346W        W 8090  10.467   6.606  10.129
 4347W        W 8091   9.877   3.699   2.160
 4348W        W 8092   3.859   5.087   9.769
 4349W        W 8093   0.814   4.171   9.062
 4350W        W 8094   3.306   8.947   1.924
 4351W        W 8095   8.530   6.742   9.077
 4352W        W 8096   9.422   9.378  11.025
 4353W        W 8097   6.029  10.010   0.357
 4354W        W 8098   3.171  10.449  11.883
 4355W        W 8099   9.788   7.433   8.920
 4356W        W 8100   6.086   9.321   9.159
 4357W        W 8101   1.942   1.781   0.042
 4358W        W 8102   2.546   8.524   1.856
 4359W        W 8103   7.610   5.664  10.341
 4360W        W 8104   5.154   5.235  10.067
 4361W        W 8105  10.332   0.925   0.944
 4362W        W 8106   8.099   3.155   0.716
 4363W        W 8107   9.123   8.614   0.301
 4364W        W 8108   3.610   4.225   2.737
 4365W        W 8109   0.524   1.342   1.352
 4366W        W 8110   1.000   6.142  10.351
 4367W        W 8111   9.345   4.935  11.403
 4368W        W 8112   0.863   9.641   1.845
 4369W        W 8113   0.340   9.927   3.135
 4370W        W 8114   2.714   4.702  11.737
 4371W        W 8115   5.255   7.678   0.489
 4372W        W 8116   9.346   9.548   1.024
 4373W        W 8117   2.800   3.655   9.621
 4374W        W 8118   1.762   2.930   1.224
 4375W        W 8119   1.378   2.714   0.975
 4376W        W 8120   4.676   0.081   9.052
 4377W        W 8121   9.836   3.549   0.226
 4378W        W 8122   2.801   7.192   1.848
 4379W        W 8123   1.154   2.825  11.221
 4380W        W 8124   1.853   9.534   1.475
 4381W        W 8125   7.605   2.321   1.396
 4382W        W 8126   4.942   2.231  10.968
 4383W        W 8127  10.233   8.044   0.937
 4384W        W 8128   8.361   7.109   3.634
 4385W        W 8129   5.921   3.952   0.270
 4386W        W 8130   7.491   8.457   0.962
 4387W        W 8131   3.721   4.493   3.577
 4388W        W 8132   9.026   5.511  10.758
 4389W        W 8133   0.538   5.746  11.524
 4390W        W 8134   6.096   2.867   0.175
 4391W        W 8135   1.634   4.130  10.266
 4392W        W 8136   4.349   2.192   1.902
 4393W        W 8137   3.397  10.063   9.534
 4394W        W 8138   3.829   2.635   1.410
 4395W        W 8139   9.695   0.177  11.769
 4396W        W 8140   9.891   8.823   3.011
 4397W        W 8141   5.473   7.248   1.972
 4398W        W 8142   2.116   3.956  10.224
 4399W        W 8143   7.985   5.616   0.331
 4400W        W 8144   2.337   7.867  10.598
 4401W        W 8145   2.266   5.526  10.461
 4402W        W 8146   8.590   5.773   2.219
 4403W        W 8147   4.874   0.761   3.147
 4404W        W 8148   0.453   2.212   3.102
 4405W        W 8149   8.187   4.732   0.674
 4406W        W 8150   3.693   1.428   1.984
 4407W        W 8151   0.943   0.085   3.562
 4408W        W 8152   8.118   8.503   2.114
 4409W        W 8153   2.846   4.522   2.414
 4410W        W 8154   0.757   3.112   0.284
 4411W        W 8155   2.807   3.770   2.836
 4412W        W 8156   9.501   9.008   2.329
 4413W        W 8157   8.692   6.733   2.370
 4414W        W 8158   6.438   4.139   9.202
 4415W        W 8159   7.227   9.245   8.737
 4416W        W 8160   9.872   5.046   9.595
 4417W        W 8161   3.133  10.483   2.709
 4418W        W 8162   6.881   5.509   2.564
 4419W        W 8163   3.643   1.297   2.957
 4420W        W 8164   3.819   9.032   9.044
 4421W        W 8165   6.984   3.157   1.695
 4422W        W 8166   0.800   8.950   9.907
 4423W        W 8167   3.399   3.104  11.522
 4424W        W 8168   4.027   7.536   1.760
 4425W        W 8169   0.335   6.618   1.814
 4426W        W 8170   9.388   4.405  11.352
 4427W        W 8171   3.190   5.363   0.414
 4428W        W 8172   6.232   3.940   3.508
 4429W        W 8173   4.716   7.089   0.134
 4430W        W 8174   4.725   3.502  11.955
 4431W        W 8175   5.625   1.760   9.004
 4432W        W 8176   8.882   4.776   3.393
 4433W        W 8177   1.378   5.228   9.801
 4434W        W 8178   8.386   3.258   9.730
 4435W        W 8179   7.947   9.125  11.066
 4436W        W 8180   0.800   1.227   2.846
 4437W        W 8181   3.319   8.841   9.270
 4438W        W 8182   7.557   2.014   0.675
 4439W        W 8183   7.392   8.312   8.571
 4440W        W 8184   7.450   7.882   0.434
 4441W        W 8185   8.502   6.544  10.454
 4442W        W 8186   0.668   6.856   9.386
 4443W        W 8187   5.630   5.068   9.331
 4444W        W 8188   5.980   1.287   3.223
 4445W        W 8189   5.084   0.819   8.728
 4446W        W 8190   5.628   0.026   3.474
 4447W        W 8191   5.947   7.343   0.976
 4448W        W 8192   1.258   9.992   1.824
 4449W        W 8193   6.870   5.132   2.918
 4450W        W 8194   7.950   9.742   9.829
 4451W        W 8195   6.394   6.951   0.524
 4452W        W 8196   9.520   9.999   8.932
 4453W        W 8197   9.797   4.676  11.444
 4454W        W 8198   5.979   2.805   3.254
 4455W        W 8199   4.661  10.088   8.861
 4456W        W 8200   4.411   3.656   8.615
 4457W        W 8201   8.981   6.589   3.140
 4458W        W 8202   4.694   6.917   2.644
 4459W        W 8203   2.702   7.506   3.395
 4460W        W 8204   5.662   0.782   0.324
 4461W        W 8205   3.342   5.961   4.062
 4462W        W 8206   9.706   5.707   1.382
 4463W        W 8207   1.781   4.614  10.204
 4464W        W 8208   9.173   9.805  11.165
 4465W        W 8209   7.928   8.957   2.320
 4466W        W 8210   7.016   2.185   9.332
 4467W        W 8211   4.784   1.769   0.500
 4468W        W 8212   4.806   7.332   2.961
 4469W        W 8213   1.350   1.266   9.385
 4470W        W 8214   9.848   0.017   1.774
 4471W        W 8215  10.272   5.101   8.762
 4472W        W 8216   7.628   6.565   9.554
 4473W        W 8217   2.209   2.216   0.141
 4474W        W 8218   8.472   2.901   0.343
 4475W        W 8219   8.305   6.538   0.580
 4476W        W 8220   5.634   5.669   2.749
 4477W        W 8221   5.176   4.359  10.351
 4478W        W 8222   6.402   2.199   8.859
 4479W        W 8223   3.275   9.111   0.795
 4480W        W 8224   4.328   3.384  10.395
 4481W        W 8225   4.882   1.549   1.205
 4482W        W 8226   7.530   1.835  11.806
 4483W        W 8227   8.094   4.022   3.614
 4484W        W 8228   3.634   2.725   9.532
 4485W        W 8229   2.816   4.330  11.400
 4486W        W 8230   9.420   1.899   9.072
 4487W        W 8231   3.419   4.441   4.007
 4488W        W 8232   9.267   3.271  10.335
 4489W        W 8233   7.771   3.230  10.979
 4490W        W 8234   1.371   5.582   1.964
 4491W        W 8235   1.859   8.183   2.273
 4492W        W 8236   7.915   3.707  10.792
 4493W        W 8237   5.302   4.655   2.696
 4494W        W 8238   1.865   7.118   0.043
 4495W        W 8239   6.943   1.291   1.267
 4496W        W 8240   5.442   7.436  11.682
 4497W        W 8241   1.756   4.609   9.175
 4498W        W 8242   8.634   4.189  10.029
 4499W        W 8243   5.153   8.014  11.351
 4500W        W 8244  10.226   6.683   2.904
 4501W        W 8245   4.719  10.165   1.202
 4502W        W 8246  10.250   7.277   2.154
 4503W        W 8247   4.609   3.260   0.565
 4504W        W 8248   1.888   4.740   2.831
 4505W        W 8249   0.217   7.468   3.309
 4506W        W 8250   3.942   9.910  11.903
 4507W        W 8251   8.104   8.262   1.667
 4508W        W 8252   9.362   7.181   8.697
 4509W        W 8253   3.153   0.900   9.363
 4510W        W 8254   1.968   3.253   0.545
 4511W        W 8255   5.913   2.116   9.651
 4512W        W 8256   5.238   7.529   8.531
 4513W        W 8257   6.777   8.891  11.451
 4514W        W 8258   9.074   3.262   3.421
 4515W        W 8259  10.096   2.207   1.143
 4516W        W 8260   1.358   7.118   0.907
 4517W        W 8261   8.609   2.188   8.749
 4518W        W 8262   7.329   2.205   1.799
 4519W        W 8263   8.520   0.264   1.251
 4520W        W 8264  10.377   0.861   9.211
 4521W        W 8265   0.766   2.953   3.649
 4522W        W 8266   9.883   6.622   3.338
 4523W        W 8267   3.824   5.674   2.685
 4524W        W 8268   8.471  10.236   1.861
 4525W        W 8269   8.625   4.155  10.945
 4526W        W 8270   4.169   9.869   8.865
 4527W        W 8271   1.123   2.348   2.187
 4528W        W 8272   6.893   7.601   8.923
 4529W        W 8273   1.446   3.121   9.580
 4530W        W 8274   2.799  10.410  11.071
 4531W        W 8275   8.255   5.969  10.441
 4532W        W 8276   6.693   1.551   1.696
 4533W        W 8277   3.805   8.611  10.430
 4534W        W 8278   4.243   0.335   0.722
 4535W        W 8279   2.470   7.655  11.026
 4536W        W 8280   3.228   2.995   2.902
 4537W        W 8281   1.779   0.198   2.098
 4538W        W 8282   8.496   6.085   8.637
 4539W        W 8283   7.503   2.163   0.201
 4540W        W 8284   6.936   7.444  11.704
 4541W        W 8285   3.299   6.519   9.959
 4542W        W 8286   6.047   3.786  11.740
 4543W        W 8287   2.075   4.760  11.158
 4544W        W 8288   2.425   5.100   1.911
 4545W        W 8289   3.229   7.904  10.376
 4546W        W 8290   0.732   7.897   0.533
 4547W        W 8291  10.257   7.033  10.307
 4548W        W 8292   2.029   5.039   9.475
 4549W        W 8293   4.639   5.081   1.100
 4550W        W 8294   2.307   0.702  11.508
 4551W        W 8295   4.073   9.092   2.590
 4552W        W 8296   7.131   9.317   9.761
 4553W        W 8297   9.851   6.105   3.357
 4554W        W 8298   9.705  10.468   9.094
 4555W        W 8299   7.436   7.462   8.937
 4556W        W 8300   5.709   4.160  11.847
 4557W        W 8301   6.592   7.616   3.183
 4558W        W 8302  10.091   5.601  11.308
 4559W        W 8303   8.959   8.876   2.789
 4560W        W 8304   2.380   3.663  10.564
 4561W        W 8305   5.653   0.325   2.240
 4562W        W 8306   0.235  10.432  11.709
 4563W        W 8307  10.356   1.630   3.471
 4564W        W 8308   0.311   0.137   0.695
 4565W        W 8309   3.286   3.826   1.691
 4566W        W 8310   7.114   9.022  10.460
 4567W        W 8311   7.367   7.143   1.142
 4568W        W 8312   4.604   6.155   2.733
 4569W        W 8313   8.672   6.971  11.393
 4570W        W 8314   5.964   8.603  11.023
 4571W        W 8315   1.255   3.178   1.153
 4572W        W 8316   8.208   9.410   2.257
 4573W        W 8317   6.482   4.073   0.340
 4574W        W 8318   3.175   9.833   1.936
 4575W        W 8319   2.656   7.659   9.058
 4576W        W 8320   0.713   4.331  11.717
 4577W        W 8321   4.223   9.098  11.581
 4578W        W 8322   7.954   7.541   9.056
 4579W        W 8323   3.287   1.258  11.979
 4580W        W 8324   8.161   6.668   8.714
 4581W        W 8325   3.549   1.411  11.551
 4582W        W 8326   3.923   9.617  10.284
 4583W        W 8327   1.671   2.757  11.296
 4584W        W 8328   5.379   9.562   2.510
 4585W        W 8329   9.222  10.320   9.255
 4586W        W 8330   7.280   8.492   0.281
 4587W        W 8331   8.035  10.118   0.853
 4588W        W 8332   9.516   2.806  10.376
 4589W        W 8333   5.120   0.354  10.123
 4590W        W 8334   7.298   8.569   2.248
 4591W        W 8335   7.150   5.043   2.499
 4592W        W 8336   3.112  10.431  10.452
 4593W        W 8337   2.442   3.297   9.771
 4594W        W 8338   2.440   5.559   2.701
 4595W        W 8339   7.858   5.505   3.539
 4596W        W 8340  10.420   6.594   3.390
 4597W        W 8341   7.790   8.780  11.425
 4598W        W 8342   7.856   3.165   2.621
 4599W        W 8343   2.313   0.239   0.363
 4600W        W 8344   0.804   3.962   0.689
 4601W        W 8345   3.862   4.076  10.026
 4602W        W 8346   1.354   6.510  11.543
 4603W        W 8347   6.675   2.300   1.233
 4604W        W 8348   1.224   1.539  11.699
 4605W        W 8349   2.209  10.018   3.458
 4606W        W 8350   9.487   7.050   0.478
 4607W        W 8351   1.362   2.317   1.738
 4608W        W 8352  10.315   9.237   0.428
 4609W        W 8353   0.180   1.776   3.101
 4610W        W 8354   4.664   3.620  11.473
 4611W        W 8355   5.085   1.758   9.756
 4612W        W 8356   7.696   3.592   1.593
 4613W        W 8357   1.158   0.577  11.915
 4614W        W 8358   5.456   7.969   9.089
 4615W        W 8359   9.603   2.321   8.811
 4616W        W 8360   2.238   6.689   3.351
 4617W        W 8361   2.737   7.062  11.640
 4618W        W 8362   6.119   6.565   2.385
 4619W        W 8363   4.464   4.370   0.203
 4620W        W 8364   6.900   0.687   2.611
 4621W        W 8365   5.238   3.021   1.612
 4622W        W 8366   1.324   2.369   2.732
 4623W        W 8367   0.159   5.184   0.554
 4624W        W 8368   7.016   2.693   9.524
 4625W        W 8369   3.582   6.383   3.118
 4626W        W 8370   0.086   7.961   9.395
 4627W        W 8371   1.453   8.869   1.369
 4628W        W 8372   1.681   4.054   0.177
 4629W        W 8373   6.684   7.485  10.761
 4630W        W 8374  10.039   2.636   8.861
 4631W        W 8375  10.045  10.026   8.788
 4632W        W 8376   8.967   9.621  10.295
 4633W        W 8377   3.660   3.106   0.952
 4634W        W 8378   0.870   4.080   9.939
 4635W        W 8379   2.335   4.257  11.225
 4636W        W 8380   1.890   6.401   1.107
 4637W        W 8381   9.069   5.026   1.953
 4638W        W 8382   0.730   1.371  11.547
 4639W        W 8383   3.318   9.265   9.003
 4640W        W 8384   5.408   7.587  11.195
 4641W        W 8385   6.966   2.358  11.194
 4642W        W 8386   5.412   8.540   2.419
 4643W        W 8387   9.338  10.277  11.326
 4644W        W 8388   3.810   1.377   2.475
 4645W        W 8389   5.604   3.587   8.233
 4646W        W 8390   6.513   9.496   2.395
 4647W        W 8391   2.873   3.220   2.093
 4648W        W 8392   5.720   8.822   3.566
 4649W        W 8393   8.534   6.098  11.303
 4650W        W 8394   1.023   1.356   0.414
 4651W        W 8395  10.471   9.607   0.106
 4652W        W 8396   0.218   1.116  10.264
 4653W        W 8397   3.968   6.612   1.959
 4654W        W 8398   3.417   5.192   1.941
 4655W        W 8399   2.752   7.197  10.316
 4656W        W 8400   6.263   1.720   1.133
 4657W        W 8401   6.650   9.114   3.244
 4658W        W 8402   4.101   9.182   0.198
 4659W        W 8403   2.348   1.249   9.587
 4660W        W 8404   4.280   0.350  11.707
 4661W        W 8405   7.444   4.975   4.058
 4662W        W 8406   7.774  10.205   9.083
 4663W        W 8407   0.679   6.825   0.300
 4664W        W 8408   8.052   6.129  11.512
 4665W        W 8409   6.230   7.001  11.960
 4666W        W 8410   7.176   1.408  10.282
 4667W        W 8411   0.804   2.607   0.341
 4668W        W 8412   0.936   4.777  10.442
 4669W        W 8413   9.424   8.984  10.670
 4670W        W 8414   6.061   2.866  11.242
 4671W        W 8415   3.187   1.910   2.689
 4672W        W 8416   6.446   5.471  11.296
 4673W        W 8417   3.896   3.149  10.284
 4674W        W 8418   2.856   8.280   0.896
 4675W        W 8419   4.507   3.174   8.424
 4676W        W 8420   4.550   4.107   8.384
 4677W        W 8421   8.009   6.068  11.003
 4678W        W 8422   8.216   7.449  11.909
 4679W        W 8423   8.151   1.175   9.641
 4680W        W 8424   9.358   6.296   2.479
 4681W        W 8425   7.435   3.603   9.378
 4682W        W 8426   1.200   8.893   9.079
 4683W        W 8427   0.699   4.347  11.213
 4684W        W 8428   8.360   8.956   2.004
 4685W        W 8429   7.840   0.906   0.233
 4686W        W 8430  10.473   7.081   2.642
 4687W        W 8431   4.010   1.660   0.843
 4688W        W 8432   4.379   3.984   4.037
 4689W        W 8433   8.687   9.942   0.539
 4690W        W 8434   9.440   3.273   8.932
 4691W        W 8435   0.201   1.434   0.289
 4692W        W 8436   8.406   4.775   1.168
 4693W        W 8437   3.238   9.384   1.659
 4694W        W 8438   2.540   9.096   8.609
 4695W        W 8439   5.161   6.974   2.867
 4696W        W 8440   9.558   1.051   9.457
 4697W        W 8441   4.092   8.742  11.940
 4698W        W 8442   7.632   3.061  11.460
 4699W        W 8443   6.337   6.927   1.020
 4700W        W 8444   5.248   8.043   1.777
 4701W        W 8445   0.055   6.873   2.189
 4702W        W 8446   9.691   5.946   0.923
 4703W        W 8447   3.654   4.366  11.549
 4704W        W 8448   9.865   3.874  11.826
 4705W        W 8449   4.604   2.672   8.307
 4706W        W 8450   7.721   5.418   9.918
 4707W        W 8451   7.617   7.895  11.568
 4708W        W 8452   8.374  10.223  11.320
 4709W        W 8453   0.927   2.110  10.980
 4710W        W 8454   7.566   6.064   1.742
 4711W        W 8455   4.879   8.181   1.386
 4712W        W 8456   4.053   1.618   3.156
 4713W        W 8457   1.621   0.318  11.723
 4714W        W 8458   4.188   5.754   1.840
 4715W        W 8459   7.478   1.769  10.983
 4716W        W 8460   7.737   6.342  10.022
 4717W        W 8461   7.064   3.240   8.444
 4718W        W 8462   3.707   6.033   9.928
 4719W        W 8463   1.369   2.892  10.317
 4720W        W 8464   2.389   8.359   0.050
 4721W        W 8465   8.131   7.631   0.809
 4722W        W 8466   3.612   6.390   2.248
 4723W        W 8467   2.664   6.466   3.134
 4724W        W 8468   5.276   0.418  11.399
 4725W        W 8469   0.377   8.419   2.391
 4726W        W 8470   3.724   2.333  10.874
 4727W        W 8471   5.110   8.481   1.977
 4728W        W 8472   5.212   0.344   2.498
 4729W        W 8473   4.194   5.617   9.770
 4730W        W 8474   3.750   5.452  10.642
 4731W        W 8475   0.466   2.956   2.705
 4732W        W 8476   9.297   4.370   2.924
 4733W        W 8477   2.222   6.175   3.273
 4734W        W 8478   8.993   4.569  11.592
 4735W        W 8479   7.032   5.199  11.039
 4736W        W 8480   7.997   5.509  11.817
 4737W        W 8481   2.625   9.952  11.414
 4738W        W 8482  10.092  10.223   3.608
 4739W        W 8483   9.010   9.878   9.024
 4740W        W 8484   4.658  10.045   2.188
 4741W        W 8485   5.560   9.380  11.242
 4742W        W 8486   3.158   8.642  10.964
 4743W        W 8487   9.572   6.572   0.653
 4744W        W 8488   2.632  10.461  10.571
 4745W        W 8489   2.142   2.579   1.107
 4746W        W 8490   7.005   1.382   2.900
 4747W        W 8491   8.415   9.402   1.760
 4748W        W 8492   4.786   4.478  10.001
 4749W        W 8493   9.378   7.933   1.478
 4750W        W 8494   3.546   7.951   9.968
 4751W        W 8495   5.966   4.181   1.710
 4752W        W 8496   9.862   2.989  11.564
 4753W        W 8497   6.880   3.223  10.787
 4754W        W 8498   8.900   9.918   8.511
 4755W        W 8499  10.372   6.133  10.291
 4756W        W 8500   2.311   0.337   0.897
 4757W        W 8501   0.709   6.004  11.925
 4758W        W 8502   6.013   5.207  11.131
 4759W        W 8503  10.313   3.660   9.866
 4760W        W 8504   5.759   8.944  11.462
 4761W        W 8505   9.917   6.387  10.028
 4762W        W 8506   4.894   1.167  11.746
 4763W        W 8507   9.916   4.387  11.905
 4764W        W 8508   8.888   7.170   9.466
 4765W        W 8509   4.726   0.380   0.548
 4766W        W 8510   7.396   5.330   3.041
 4767W        W 8511   3.921  10.080   9.586
 4768W        W 8512   8.749   0.920  10.970
 4769W        W 8513   1.394   5.511   1.404
 4770W        W 8514   6.654   1.497   0.837
 4771W        W 8515   0.957   7.693   1.370
 4772W        W 8516  10.279   7.519  11.449
 4773W        W 8517   3.624   9.883   2.667
 4774W        W 8518   5.907   2.423   0.919
 4775W        W 8519   2.165   4.031  11.652
 4776W        W 8520   3.146   8.058   1.420
 4777W        W 8521   1.292   2.814   2.448
 4778W        W 8522   7.079   8.432   2.954
 4779W        W 8523   2.244   3.051   0.944
 4780W        W 8524   7.894   9.934   0.298
 4781W        W 8525   7.015   8.590  10.175
 4782W        W 8526   6.128   8.843   0.790
 4783W        W 8527   9.460   3.777   8.741
 4784W        W 8528   3.215   3.624   2.170
 4785W        W 8529   8.514   9.757  11.939
 4786W        W 8530   5.661   8.538  10.459
 4787W        W 8531   9.081   9.304   2.503
 4788W        W 8532   2.548   0.945  11.917
 4789W        W 8533   1.089  10.426   3.098
 4790W        W 8534   5.626   5.972   2.330
 4791W        W 8535   1.480   8.150  10.522
 4792W        W 8536   9.470   4.562   1.475
 4793W        W 8537   5.958   8.433   2.336
 4794W        W 8538   5.868   8.893   0.342
 4795W        W 8539   4.281   1.886   0.473
 4796W        W 8540   6.059   9.822   9.123
 4797W        W 8541   8.863   1.212   0.798
 4798W        W 8542   4.651   4.993   2.138
 4799W        W 8543   6.702   1.136  10.557
 4800W        W 8544   3.392   3.183   9.088
 4801W        W 8545   8.146   9.314   8.721
 4802W        W 8546   3.743   2.311  10.335
 4803W        W 8547   7.412   7.039   2.154
 4804W        W 8548   8.972   3.752   3.366
 4805W        W 8549   5.065   9.449  11.245
 4806W        W 8550   7.420  10.301   8.271
 4807W        W 8551   0.773   3.825   1.176
 4808W        W 8552   5.459   6.861  10.130
 4809W        W 8553   2.950   7.706  11.094
 4810W        W 8554   9.868   0.310   9.529
 4811W        W 8555   6.791   3.707   0.136
 4812W        W 8556   4.984   7.410   1.837
 4813W        W 8557   9.383   6.070   3.557
 4814W        W 8558   7.466   9.784   2.520
 4815W        W 8559  10.130   8.468  11.397
 4816W        W 8560   5.502   2.193   9.329
 4817W        W 8561   3.342   5.500   2.392
 4818W        W 8562   1.463   4.648   3.171
 4819W        W 8563   7.758   5.645   9.455
 4820W        W 8564   0.690   8.312  10.363
 4821W        W 8565  10.282   1.151   0.418
 4822W        W 8566   4.751   9.625   0.139
 4823W        W 8567   8.868   6.363  10.151
 4824W        W 8568   0.261  10.165   0.880
 4825W        W 8569   6.390   2.730   8.988
 4826W        W 8570   4.971   6.623  11.773
 4827W        W 8571   2.638   7.653   9.583
 4828W        W 8572   5.579   0.797   9.542
 4829W        W 8573   9.980   7.395  11.002
 4830W        W 8574   6.787   4.204   8.816
 4831W        W 8575  10.343   9.531  11.616
 4832W        W 8576   3.141   8.116   3.059
 4833W        W 8577   8.496   9.757   8.795
 4834W        W 8578   3.223   5.491  11.508
 4835W        W 8579   0.553   7.679   2.689
 4836W        W 8580   9.385   5.345   2.729
 4837W        W 8581   3.369   9.396  10.449
 4838W        W 8582   7.702   1.979   8.479
 4839W        W 8583   5.475   6.699  11.547
 4840W        W 8584   6.906   6.963   9.462
 4841W        W 8585   0.388   1.590   0.920
 4842W        W 8586  10.204   0.691   1.803
 4843W        W 8587   1.886   8.621   1.306
 4844W        W 8588   3.082   5.193   3.604
 4845W        W 8589   3.808   1.868  10.593
 4846W        W 8590   0.882   9.451  10.857
 4847W        W 8591   0.145   0.439   9.994
 4848W        W 8592   4.277   1.679   0.002
 4849W        W 8593   5.450   7.775   9.977
 4850W        W 8594   0.420   8.757  10.485
 4851W        W 8595   7.138   5.963  11.556
 4852W        W 8596   0.362   9.482  10.826
 4853W        W 8597   3.551   0.735   3.086
 4854W        W 8598   0.112   8.251   1.228
 4855W        W 8599   4.155   5.543  11.051
 4856W        W 8600   9.854   1.662   3.388
 4857W        W 8601   7.613   2.747  10.875
 4858W        W 8602   5.566   3.134   0.704
 4859W        W 8603   3.204   2.988   0.709
 4860W        W 8604   3.612   4.901  11.714
 4861W        W 8605   2.333   9.528   3.277
 4862W        W 8606   5.705   3.423  10.301
 4863W        W 8607   0.766   9.762  11.748
 4864W        W 8608   8.532   2.863  11.000
 4865W        W 8609   4.812   2.549   0.247
 4866W        W 8610   9.948   3.817   3.138
 4867W        W 8611   5.487   1.389   3.391
 4868W        W 8612   4.182   5.009   3.002
 4869W        W 8613   3.625   8.141   2.582
 4870W        W 8614   0.856  10.424   9.041
 4871W        W 8615   7.484   0.911   1.997
 4872W        W 8616   9.378   8.753   3.227
 4873W        W 8617  10.154   9.877  11.300
 4874W        W 8618   0.456   3.919   9.686
 4875W        W 8619   1.271   1.417   2.807
 4876W        W 8620   0.982   7.502   0.912
 4877W        W 8621   5.624   3.825  11.447
 4878W        W 8622   7.066   8.323   0.714
 4879W        W 8623   3.832   0.415  11.978
 4880W        W 8624   6.020   0.193  10.384
 4881W        W 8625   6.312   5.145   1.335
 4882W        W 8626   7.903   2.369  11.038
 4883W        W 8627   8.904   0.953  10.337
 4884W        W 8628   3.608   5.258   0.701
 4885W        W 8629   3.740   7.902  10.951
 4886W        W 8630   4.949   9.374   2.203
 4887W        W 8631   1.109   4.119   9.490
 4888W        W 8632   4.171   9.248   2.110
 4889W        W 8633   6.516   6.514   0.275
 4890W        W 8634   7.019   3.029  10.340
 4891W        W 8635   3.113  10.290   0.368
 4892W        W 8636   4.930   4.230   0.387
 4893W        W 8637   5.182  10.446   9.238
 4894W        W 8638   0.826   2.434   1.265
 4895W        W 8639   0.508   3.465  11.437
 4896W        W 8640   2.395   9.059   3.042
 4897W        W 8641   0.647   2.197   2.248
 4898W        W 8642   5.396   0.298   1.273
 4899W        W 8643   0.161   2.252   9.829
 4900W        W 8644   0.072   3.115   3.421
 4901W        W 8645   6.270   4.743  10.749
 4902W        W 8646   4.382   5.368  11.643
 4903W        W 8647   2.426   0.262   1.408
 4904W        W 8648   3.805   2.148   0.857
 4905W        W 8649   2.881   8.539   0.333
 4906W        W 8650   6.609   3.237   2.303
 4907W        W 8651   2.371   7.911   1.594
 4908W        W 8652   9.697   7.489   3.245
 4909W        W 8653   8.113   5.495  10.261
 4910W        W 8654   2.410   2.194   3.323
 4911W        W 8655   1.923   1.183   2.967
 4912W        W 8656   4.408   0.302  10.321
 4913W        W 8657   9.398   6.235   1.971
 4914W        W 8658   4.797   1.754  11.978
 4915W        W 8659   9.151   9.933   0.751
 4916W        W 8660   6.429   7.245   1.395
 4917W        W 8661   3.784   5.657   0.943
 4918W        W 8662   8.394   5.686  11.019
 4919W        W 8663   6.617   8.790   9.399
 4920W        W 8664   0.493   3.101  11.853
 4921W        W 8665   3.739   6.493   0.945
 4922W        W 8666   0.884   5.782  11.145
 4923W        W 8667   9.509   3.050   3.314
 4924W        W 8668   7.562   4.525   1.808
 4925W        W 8669   9.580   0.630   9.805
 4926W        W 8670   0.300   8.974  10.025
 4927W        W 8671   7.551   8.456  10.951
 4928W        W 8672   1.848   5.437   9.182
 4929W        W 8673   1.774   3.633   2.311
 4930W        W 8674   5.194   0.177  11.856
 4931W        W 8675   1.890   5.596   2.689
 4932W        W 8676   7.647   6.984  11.423
 4933W        W 8677   8.437   1.928   3.287
 4934W        W 8678  10.333   5.134  11.115
 4935W        W 8679   2.329   7.340  10.619
 4936W        W 8680   8.970   1.959   1.748
 4937W        W 8681   5.993   3.302  11.914
 4938W        W 8682   7.151   2.133   1.237
 4939W        W 8683   4.587   2.241   9.035
 4940W        W 8684   6.116  10.373  11.334
 4941W        W 8685   2.645  10.223   2.162
 4942W        W 8686   3.352   7.869  11.329
 4943W        W 8687   4.333   6.257   1.964
 4944W        W 8688   1.531   7.884   3.636
 4945W        W 8689   9.873   0.893   9.061
 4946W        W 8690   4.592   8.840   0.824
 4947W        W 8691   2.788   8.382  11.742
 4948W        W 8692   7.987   0.224   1.977
 4949W        W 8693   3.195   5.725   3.606
 4950W        W 8694   0.267   6.706   2.896
 4951W        W 8695   7.319   2.634   9.123
 4952W        W 8696   5.460   3.932   3.956
 4953W        W 8697   1.936   0.385   1.297
 4954W        W 8698   4.280   6.372  11.471
 4955W        W 8699   9.068   2.678  11.752
 4956W        W 8700   0.496   4.641   9.091
 4957W        W 8701   0.029   7.508   0.615
 4958W        W 8702   7.718   1.615  11.401
 4959W        W 8703   3.526   4.867   9.076
 4960W        W 8704   8.966   1.309   3.003
 4961W        W 8705   1.888   3.373   8.895
 4962W        W 8706   2.678   0.753   9.418
 4963W        W 8707   7.127   9.827   3.135
 4964W        W 8708   4.221  10.339   1.285
 4965W        W 8709   8.377   0.503   2.183
 4966W        W 8710   2.371   7.234   2.177
 4967W        W 8711   9.234   6.525  11.621
 4968W        W 8712  10.383   8.912  11.383
 4969W        W 8713   4.082   0.832  11.785
 4970W        W 8714   2.258   3.806   2.146
 4971W        W 8715   3.134   5.697   8.764
 4972W        W 8716   0.470   5.949   9.499
 4973W        W 8717   0.831   6.623   3.381
 4974W        W 8718   5.633   2.354   1.377
 4975W        W 8719   2.101   0.196   8.995
 4976W        W 8720   9.002   9.946   0.061
 4977W        W 8721   0.931   6.599   9.791
 4978W        W 8722  10.475   6.562   1.066
 4979W        W 8723   9.454   4.629  11.849
 4980W        W 8724   5.939   6.061  11.043
 4981W        W 8725   6.624   5.032   1.727
 4982W        W 8726   8.501   7.915  11.471
 4983W        W 8727   5.670   0.238   2.749
 4984W        W 8728   6.141   1.790   3.222
 4985W        W 8729   0.790   3.095   3.165
 4986W        W 8730   6.585  10.238  10.608
 4987W        W 8731   5.546   3.827   9.944
 4988W        W 8732   9.902   8.210   2.361
 4989W        W 8733   5.990   6.413   2.876
 4990W        W 8734   5.064  10.315   0.833
 4991W        W 8735   5.570   1.753  11.025
 4992W        W 8736   5.269   8.895   8.888
 4993W        W 8737   8.302   0.503  10.918
 4994W        W 8738   5.069   8.859   9.853
 4995W        W 8739   8.849   1.866  11.152
 4996W        W 8740   3.184  10.059   2.405
 4997W        W 8741   9.562   0.991  10.494
 4998W        W 8742   1.632   7.180   1.368
 4999W        W 8743   5.732   7.572   8.361
 5000W        W 8744   4.727   4.116  11.400
 5001W        W 8745   1.266  10.247   1.381
 5002W        W 8746   3.534  10.462   0.730
 5003W        W 8747   6.582   9.079   2.671
 5004W        W 8748   5.880  10.369   3.046
 5005W        W 8749   4.865   8.303   8.534
 5006W        W 8750   2.648   1.580   1.790
 5007W        W 8751   1.892   2.598   0.263
 5008W        W 8752   1.692   8.904   0.885
 5009W        W 8753   2.206   8.492   9.891
 5010W        W 8754   7.575   6.023  11.288
 5011W        W 8755   8.892   3.725  10.072
 5012W        W 8756   0.936   6.524  10.707
 5013W        W 8757   5.162   8.533   3.298
 5014W        W 8758   4.570   3.269   2.267
 5015W        W 8759   7.672   6.518   8.548
 5016W        W 8760   0.256   4.261  10.948
 5017W        W 8761   0.426   3.406   9.584
 5018W        W 8762   5.509   8.532  11.315
 5019W        W 8763   5.308   1.158   2.009
 5020W        W 8764   6.473   6.838   3.613
 5021W        W 8765   4.272   3.865   3.189
 5022W        W 8766   5.235   1.874  11.729
 5023W        W 8767   1.795   8.174   2.792
 5024W        W 8768   6.450   7.851   9.054
 5025W        W 8769   8.890   5.263   2.813
 5026W        W 8770  10.314   8.799  10.533
 5027W        W 8771   0.667   9.856   0.743
 5028W        W 8772   1.162  10.449   2.616
 5029W        W 8773   7.967   2.491  11.522
 5030W        W 8774   5.140   7.715   2.201
 5031W        W 8775   2.773   6.390   9.425
 5032W        W 8776   2.827   0.334   2.471
 5033W        W 8777   7.415   2.128   2.594
 5034W        W 8778   5.141   9.403   8.991
 5035W        W 8779   1.358   4.836   8.888
 5036W        W 8780   9.417   3.851   2.064
 5037W        W 8781   1.384   7.615  10.316
 5038W        W 8782   9.459   8.547  10.884
 5039W        W 8783   5.115   3.015   9.907
 5040W        W 8784   9.816   5.013   9.073
 5041W        W 8785   0.675   4.363   9.516
 5042W        W 8786   7.824   0.878   9.374
 5043W        W 8787   8.919   8.001   0.721
 5044W        W 8788   9.869   1.347  11.694
 5045W        W 8789   0.002   7.857  10.450
 5046W        W 8790   3.147   1.488   2.994
 5047W        W 8791   8.628   8.704  11.017
 5048W        W 8792  10.429   7.663  11.937
 5049W        W 8793   4.263   7.248  11.942
 5050W        W 8794   5.342   2.392   0.161
 5051W        W 8795   0.266   2.558  11.291
 5052W        W 8796   6.209   8.357   0.900
 5053W        W 8797   6.971   6.868   1.939
 5054W        W 8798   4.795   1.313   0.232
 5055W        W 8799   3.249   8.198   0.037
 5056W        W 8800   0.456   4.654   3.044
 5057W        W 8801   4.731   0.292   1.070
 5058W        W 8802   2.161   0.665  11.020
 5059W        W 8803   9.798   3.134   0.552
 5060W        W 8804   0.558   8.870   2.586
 5061W        W 8805   6.128   2.415   0.453
 5062W        W 8806   2.640   9.095  11.508
 5063W        W 8807   5.705   6.351   0.427
 5064W        W 8808   0.201   7.901  10.914
 5065W        W 8809   0.954   9.940  10.912
 5066W        W 8810   6.170   9.382   2.776
 5067W        W 8811   6.993   7.024   2.990
 5068W        W 8812  10.314   6.255  11.750
 5069W        W 8813   3.263   7.355  11.271
 5070W        W 8814   1.697   1.304   2.507
 5071W        W 8815   0.362   2.664   2.224
 5072W        W 8816   7.446   0.441   0.760
 5073W        W 8817  10.060   7.385   2.622
 5074W        W 8818   8.906   3.820   1.234
 5075W        W 8819   6.929   9.582   8.986
 5076W        W 8820   1.212   0.424  10.902
 5077W        W 8821   6.731   4.171   3.559
 5078W        W 8822   9.802   6.676  10.441
 5079W        W 8823   9.766   3.183   2.480
 5080W        W 8824   1.892   9.455   0.832
 5081W        W 8825   9.980   2.727  10.599
 5082W        W 8826   0.917  10.480  10.075
 5083W        W 8827   6.144   0.162   3.495
 5084W        W 8828   9.357   8.048   0.470
 5085W        W 8829   1.805  10.256  10.016
 5086W        W 8830   3.084   4.954  10.389
 5087W        W 8831   2.569   9.445  10.234
 5088W        W 8832   3.639   4.121  10.517
 5089W        W 8833   2.395   8.589   0.937
 5090W        W 8834   6.107   3.915   2.180
 5091W        W 8835   3.207   8.109  10.894
 5092W        W 8836  10.174   9.394   3.479
 5093W        W 8837   3.699   1.346   8.759
 5094W        W 8838   6.005   5.505   2.425
 5095W        W 8839   5.985   3.249   1.433
 5096W        W 8840   4.103   6.084  11.088
 5097W        W 8841   4.733   8.958  11.514
 5098W        W 8842   2.158   4.445   9.455
 5099W        W 8843   7.435   3.721   8.511
 5100W        W 8844   4.779   7.384   2.398
 5101W        W 8845   8.376   5.548   2.642
 5102W        W 8846   5.034   8.859  11.915
 5103W        W 8847   7.101   3.188   9.409
 5104W        W 8848   0.422   7.927   3.194
 5105W        W 8849   4.357   2.784  11.379
 5106W        W 8850   9.884   3.201   1.479
 5107W        W 8851   3.764   3.605   3.357
 5108W        W 8852   2.966   9.826   0.783
 5109W        W 8853   2.514   4.880   9.525
 5110W        W 8854   2.732   1.295   2.252
 5111W        W 8855   6.188   1.365  11.058
 5112W        W 8856   2.606   3.233  10.339
 5113W        W 8857   4.333   7.491   8.945
 5114W        W 8858   6.556   7.381   3.669
 5115W        W 8859   1.320   6.073   2.156
 5116W        W 8860   9.260   5.959  10.310
 5117W        W 8861   5.063   9.410   1.673
 5118W        W 8862   3.889   1.092   3.372
 5119W        W 8863   3.656   9.625   9.478
 5120W        W 8864   9.730   0.481   2.346
 5121W        W 8865   5.164   2.319  11.407
 5122W        W 8866   1.955   1.716   1.015
 5123W        W 8867   7.055   9.450   2.326
 5124W        W 8868   9.282  10.451   8.742
 5125W        W 8869   5.088   5.607   1.663
 5126W        W 8870   1.491   7.158   9.375
 5127W        W 8871   8.840   0.896   0.349
 5128W        W 8872   9.409   7.538   9.646
 5129W        W 8873   9.075   0.901   1.265
 5130W        W 8874   6.571   6.207   1.314
 5131W        W 8875   0.848   4.816  11.808
 5132W        W 8876   6.586   3.560  11.234
 5133W        W 8877   8.835   7.198   1.143
 5134W        W 8878   6.464   8.395  11.363
 5135W        W 8879   4.298   0.430   8.719
 5136W        W 8880   9.388   3.654  11.952
 5137W        W 8881   2.461   0.885   0.502
 5138W        W 8882   1.244   0.036   2.142
 5139W        W 8883   8.256  10.471   9.289
 5140W        W 8884   8.282   1.408   2.741
 5141W        W 8885   4.095   7.511   8.491
 5142W        W 8886   2.402   6.499  10.599
 5143W        W 8887   5.743   6.527   9.881
 5144W        W 8888   3.322   6.452   0.604
 5145W        W 8889   4.711   1.146   9.756
 5146W        W 8890   6.703   6.463  10.772
 5147W        W 8891   2.285   6.949  10.974
 5148W        W 8892   3.605   7.682   0.253
 5149W        W 8893   5.187   4.175  11.755
 5150W        W 8894   0.434   6.996   3.316
 5151W        W 8895   6.547   0.713  11.489
 5152W        W 8896   2.736   5.535   0.256
 5153W        W 8897   3.807   0.559   8.840
 5154W        W 8898   4.587   7.827   1.073
 5155W        W 8899   8.591   2.895  11.832
 5156W        W 8900   8.861   7.243   8.466
 5157W        W 8901   4.586   6.287   9.452
 5158W        W 8902  10.065  10.265   9.964
 5159W        W 8903   1.935   5.247  11.310
 5160W        W 8904  10.070   4.007   0.873
 5161W        W 8905   8.031   5.906   1.891
 5162W        W 8906   2.024   0.014   1.674
 5163W        W 8907   6.132   0.804   1.654
 5164W        W 8908   4.311   7.218   2.443
 5165W        W 8909   2.162   1.120   2.341
 5166W        W 8910   7.732   6.031   8.406
 5167W        W 8911   7.658   4.613   0.266
 5168W        W 8912   2.736   8.122   8.859
 5169W        W 8913   6.930   5.879   1.438
 5170W        W 8914   9.050   9.434   9.299
 5171W        W 8915   7.466   2.593   0.458
 5172W        W 8916   5.620   1.245   2.848
 5173W        W 8917   0.134   6.122  10.766
 5174W        W 8918   4.164   2.394  10.631
 5175W        W 8919   3.154   9.968   3.470
 5176W        W 8920   6.087   7.874   9.424
 5177W        W 8921   1.438   7.571   0.629
 5178W        W 8922   8.151   6.981  11.316
 5179W        W 8923   5.194   2.691  11.773
 5180W        W 8924   0.377   3.616  11.901
 5181W        W 8925   4.589   7.544   3.861
 5182W        W 8926   8.973   2.644   2.354
 5183W        W 8927   2.713   5.460  10.770
 5184W        W 8928   6.961   2.638   2.991
 5185W        W 8929   0.354   7.988  11.778
 5186W        W 8930  10.252   1.676   0.411
 5187W        W 8931   1.401   6.235   1.185
 5188W        W 8932   2.431   3.764   0.015
 5189W        W 8933   2.716   3.207   0.758
 5190W        W 8934   8.525   8.123   2.028
 5191W        W 8935   6.535   0.448   9.226
 5192W        W 8936   3.120   3.110  11.940
 5193W        W 8937   2.392   2.994  11.541
 5194W        W 8938   0.301   2.338   0.198
 5195W        W 8939   4.867   8.826   0.398
 5196W        W 8940   6.762   7.751   2.388
 5197W        W 8941   4.774   0.809  11.319
 5198W        W 8942   1.928   1.378  10.894
 5199W        W 8943   9.575   4.216  10.930
 5200W        W 8944   3.755   1.874  10.065
 5201W        W 8945   0.947  10.281  10.538
 5202W        W 8946   7.449   1.343   1.197
 5203W        W 8947   5.137   8.810  10.536
 5204W        W 8948   5.771   8.421   8.637
 5205W        W 8949   8.160   0.898   0.690
 5206W        W 8950   4.540   4.290   3.211
 5207W        W 8951   8.473   9.994   2.570
 5208W        W 8952  10.439   8.776   0.301
 5209W        W 8953   1.929   9.036   2.297
 5210W        W 8954   5.738   6.910  11.923
 5211W        W 8955   4.653   2.330   1.501
 5212W        W 8956   5.132   4.793   9.782
 5213W        W 8957   3.380   8.883  10.297
 5214W        W 8958   2.914   0.942   9.845
 5215W        W 8959   6.972   3.759  11.539
 5216W        W 8960   1.382   2.476   8.847
 5217W        W 8961   3.764   7.051   1.762
 5218W        W 8962  10.344   9.941   0.664
 5219W        W 8963   2.710  10.368   1.257
 5220W        W 8964   3.648   9.609   2.018
 5221W        W 8965   5.469   4.599  11.879
 5222W        W 8966   1.679   4.104   2.140
 5223W        W 8967  10.455   5.547   1.874
 5224W        W 8968   0.490   7.160   9.764
 5225W        W 8969   2.447   7.431   8.645
 5226W        W 8970   2.613   4.970  10.688
 5227W        W 8971   5.342   0.333   9.644
 5228W        W 8972   0.785   8.768  10.857
 5229W        W 8973   9.548   0.945   2.488
 5230W        W 8974   4.268   0.389   9.233
 5231W        W 8975   9.763   1.811   1.966
 5232W        W 8976   8.087   6.639   1.080
 5233W        W 8977   6.550   6.705  11.724
 5234W        W 8978   0.503   5.601   8.783
 5235W        W 8979   3.263   1.985   0.410
 5236W        W 8980   5.448   8.898  10.983
 5237W        W 8981   0.963   8.926   8.632
 5238W        W 8982   9.322   8.943  11.509
 5239W        W 8983   6.092   0.837   0.666
 5240W        W 8984   6.109   6.610   1.754
 5241W        W 8985   1.171   1.787   9.323
 5242W        W 8986   5.471   7.998   8.573
 5243W        W 8987   4.807   3.141   1.832
 5244W        W 8988   0.008   1.311   8.992
 5245W        W 8989   2.906   5.685   2.589
 5246W        W 8990   9.409   7.040   1.945
 5247W        W 8991   0.069   7.585   2.806
 5248W        W 8992   0.296   0.038   2.672
 5249W        W 8993   2.435   8.946  10.484
 5250W        W 8994   9.606   9.427   9.483
 5251W        W 8995   7.669   8.004   9.355
 5252W        W 8996   6.372   3.898   8.719
 5253W        W 8997   8.861   2.354  10.084
 5254W        W 8998   2.900   3.870   0.166
 5255W        W 8999   3.500   3.011   1.428
 5256W        W 9000   7.532   0.028   3.175
 5257W        W 9001   1.354   3.819   3.221
 5258W        W 9002   8.712   0.861   9.559
 5259W        W 9003   4.645   5.956   2.238
 5260W        W 9004   2.688   5.353   9.453
 5261W        W 9005   6.470   1.795  10.990
 5262W        W 9006   5.669   9.975  10.597
 5263W        W 9007   1.699   9.912   2.133
 5264W        W 9008   4.241   5.272   2.077
 5265W        W 9009   5.508   8.829  10.082
 5266W        W 9010   5.421   7.133   8.256
 5267W        W 9011   5.533   8.899  11.919
 5268W        W 9012   3.083   4.274   1.819
 5269W        W 9013   1.679   6.009   3.007
 5270W        W 9014   3.038   7.429   9.363
 5271W        W 9015   3.583   6.115   3.594
 5272W        W 9016   9.427   8.909   1.406
 5273W        W 9017   0.326  10.254   9.518
 5274W        W 9018   1.483   7.361   2.626
 5275W        W 9019   8.851   2.205   2.691
 5276W        W 9020   6.590   1.034   2.412
 5277W        W 9021   6.179  10.189   9.460
 5278W        W 9022   8.344   9.044  10.746
 5279W        W 9023   0.599   8.238   0.160
 5280W        W 9024   2.316   1.695   1.373
 5281W        W 9025  10.497   6.736   0.085
 5282W        W 9026   4.339   6.071   0.230
 5283W        W 9027   2.917   9.895   9.514
 5284W        W 9028   6.990   5.816   2.169
 5285W        W 9029   9.055   5.043  10.046
 5286W        W 9030  10.288   4.860   0.854
 5287W        W 9031   2.484   9.926   0.964
 5288W        W 9032   4.291   2.105   0.959
 5289W        W 9033   0.826   1.862   8.893
 5290W        W 9034   6.483   3.233   1.496
 5291W        W 9035   5.311   3.314   8.556
 5292W        W 9036   5.412   9.851   3.808
 5293W        W 9037   5.111   8.969   1.447
 5294W        W 9038   5.206   2.826   3.886
 5295W        W 9039   7.922   1.811   0.270
 5296W        W 9040   7.857   6.378   2.030
 5297W        W 9041   1.660   6.031  10.858
 5298W        W 9042   0.288   0.876   8.898
 5299W        W 9043   5.755   2.872   1.101
 5300W        W 9044   8.621   5.606   8.430
 5301W        W 9045   0.542   5.498   0.459
 5302W        W 9046   7.496   4.716   3.608
 5303W        W 9047   7.966   5.712   0.859
 5304W        W 9048   7.887   2.304   0.980
 5305W        W 9049   0.282  10.385  11.180
 5306W        W 9050   8.193   5.873   3.363
 5307W        W 9051   7.013   8.070  10.429
 5308W        W 9052   7.958  10.261   1.739
 5309W        W 9053   6.104  10.395   0.690
 5310W        W 9054   7.314   4.531   9.989
 5311W        W 9055   3.550   2.599   0.944
 5312W        W 9056   4.742   2.260   3.437
 5313W        W 9057   3.913   3.957   2.404
 5314W        W 9058   2.294   7.063  10.100
 5315W        W 9059   7.436  10.046   9.743
 5316W        W 9060   1.372   1.843   2.494
 5317W        W 9061   5.781   4.653   1.900
 5318W        W 9062   9.495   2.648  11.468
 5319W        W 9063   3.186   3.496   0.741
 5320W        W 9064   9.503   3.891   2.915
 5321W        W 9065   5.740   4.648   2.416
 5322W        W 9066   0.492   3.811   2.593
 5323W        W 9067   4.147   7.319  11.463
 5324W        W 9068   8.410   4.290   2.330
 5325W        W 9069   0.005   5.698   0.698
 5326W        W 9070   0.906   0.130   9.575
 5327W        W 9071   8.507   5.742  10.069
 5328W        W 9072  10.479   2.634  10.435
 5329W        W 9073   5.574   1.454   1.685
 5330W        W 9074   8.863   6.385   8.885
 5331W        W 9075   7.919   4.928   1.081
 5332W        W 9076   7.532   4.436   4.030
 5333W        W 9077   3.792   5.411   2.212
 5334W        W 9078  10.291   1.383  11.969
 5335W        W 9079   8.997   8.387   2.050
 5336W        W 9080   5.544   3.930   9.074
 5337W        W 9081   8.077   9.373   1.348
 5338W        W 9082   8.912   4.171   9.556
 5339W        W 9083   9.022   8.595   9.955
 5340W        W 9084   3.780   3.097   8.735
 5341W        W 9085   7.031   6.932   2.470
 5342W        W 9086   5.478  10.058   8.620
 5343W        W 9087   7.655   9.276  11.448
 5344W        W 9088   9.220   6.998   1.468
 5345W        W 9089   0.138   5.037   2.860
 5346W        W 9090   6.759   6.536   9.773
 5347W        W 9091   9.792   9.324   3.125
 5348W        W 9092   9.570   6.941   2.607
 5349W        W 9093   4.212   6.375  10.636
 5350W        W 9094   3.806   0.525   2.010
 5351W        W 9095   5.859   3.268   8.558
 5352W        W 9096   8.535   4.316   0.294
 5353W        W 9097   8.591   5.190  10.944
 5354W        W 9098   0.286   5.090   9.314
 5355W        W 9099   5.515   6.161   9.236
 5356W        W 9100   9.274   0.042   2.489
 5357W        W 9101   7.155   8.963   1.482
 5358W        W 9102   9.449   4.706   3.287
 5359W        W 9103   5.062   6.014  10.579
 5360W        W 9104   1.396   4.600   1.657
 5361W        W 9105   9.200  10.480   1.190
 5362W        W 9106   0.280   3.176   1.421
 5363W        W 9107   6.996   0.702  11.833
 5364W        W 9108   0.291   3.645   1.203
 5365W        W 9109   0.895   6.517  11.860
 5366W        W 9110   0.497   3.576   0.746
 5367W        W 9111   0.575   9.625  11.254
 5368W        W 9112   3.310   1.785   9.246
 5369W        W 9113   1.425  10.475  10.774
 5370W        W 9114   4.999   1.977   1.459
 5371W        W 9115   4.896   8.067   3.184
 5372W        W 9116   3.216   2.294   9.121
 5373W        W 9117   5.414   5.612  10.487
 5374W        W 9118  10.348   3.997   1.322
 5375W        W 9119   7.582   5.322   0.884
 5376W        W 9120   1.988   6.391  10.289
 5377W        W 9121   6.985   4.714  10.882
 5378W        W 9122   0.824  10.015   1.510
 5379W        W 9123   5.645   3.616   9.468
 5380W        W 9124  10.319   0.342  11.403
 5381W        W 9125   6.482   1.148   1.418
 5382W        W 9126   3.684   8.537   9.502
 5383W        W 9127   6.438   0.926  11.004
 5384W        W 9128   0.984   1.862   0.781
 5385W        W 9129   1.292   2.694   9.829
 5386W        W 9130   6.154   6.427   0.700
 5387W        W 9131   2.784   6.518   1.190
 5388W        W 9132   2.993   3.189   3.592
 5389W        W 9133  10.332   1.291  11.455
 5390W        W 9134   9.166   6.206   0.479
 5391W        W 9135  10.029   1.152   3.044
 5392W        W 9136   8.542   5.214  10.097
 5393W        W 9137   3.746   7.382  11.022
 5394W        W 9138   7.999   0.864  11.739
 5395W        W 9139   8.873   4.059   2.160
 5396W        W 9140   7.971  10.270   3.250
 5397W        W 9141   3.601  10.434   9.799
 5398W        W 9142   0.885   7.222  11.992
 5399W        W 9143   7.433   8.411   9.562
 5400W        W 9144   3.666   4.597   9.777
 5401W        W 9145   9.017   1.360  11.205
 5402W        W 9146   7.621   8.633   2.649
 5403W        W 9147   1.869   6.883   0.965
 5404W        W 9148   3.851   0.376  10.334
 5405W        W 9149   9.144   3.990  10.981
 5406W        W 9150   9.805   9.631  10.283
 5407W        W 9151   5.062   6.021   2.958
 5408W        W 9152   3.710   9.202   0.530
 5409W        W 9153   8.476   7.949   0.466
 5410W        W 9154   9.743   4.601   9.382
 5411W        W 9155   7.559   2.414   2.206
 5412W        W 9156   7.815   4.390  11.332
 5413W        W 9157   8.443   4.761   2.130
 5414W        W 9158   8.960   1.775   2.390
 5415W        W 9159   1.599   4.194   9.437
 5416W        W 9160   5.539   5.345   1.781
 5417W        W 9161   5.428   4.179   0.264
 5418W        W 9162   8.978   1.288  10.701
 5419W        W 9163   3.079   6.874  11.263
 5420W        W 9164   9.770   7.778   2.793
 5421W        W 9165   4.193   3.554   1.180
 5422W        W 9166   1.336   4.824  10.122
 5423W        W 9167   2.344   9.196   0.233
 5424W        W 9168   5.673   2.724   0.402
 5425W        W 9169   3.138   5.219   0.953
 5426W        W 9170   8.774   6.315   0.814
 5427W        W 9171   7.650  10.085   2.888
 5428W        W 9172   1.806   5.484   9.683
 5429W        W 9173   8.761   8.332   3.548
 5430W        W 9174   9.220   0.298  11.936
 5431W        W 9175   4.190   1.234   2.825
 5432W        W 9176   0.756   9.985   0.249
 5433W        W 9177   7.911   0.489   0.514
 5434W        W 9178   1.852  10.396  11.024
 5435W        W 9179   0.383   2.447   2.678
 5436W        W 9180   4.299   5.520   0.936
 5437W        W 9181   5.513   8.875   9.576
 5438W        W 9182   5.627   5.439   8.967
 5439W        W 9183   3.414   4.088   2.268
 5440W        W 9184   6.662   7.927  11.260
 5441W        W 9185   7.798   5.201  10.515
 5442W        W 9186   3.245   9.510   1.162
 5443W        W 9187   1.656   0.237  10.007
 5444W        W 9188   4.942   5.772  11.391
 5445W        W 9189   6.478   8.117   3.267
 5446W        W 9190   2.332   4.641   1.660
 5447W        W 9191   9.985   0.965   0.004
 5448W        W 9192   4.975   7.587  11.582
 5449W        W 9193   5.370   1.670   1.292
 5450W        W 9194   2.823   3.395   1.566
 5451W        W 9195   1.394   0.380  10.426
 5452W        W 9196   4.669   8.084  10.539
 5453W        W 9197   1.609   3.016   0.232
 5454W        W 9198   5.539   8.295  10.876
 5455W        W 9199   7.631   7.427   1.701
 5456W        W 9200   2.660   8.455   2.384
 5457W        W 9201   1.837   2.217   0.939
 5458W        W 9202   3.364   3.833   0.381
 5459W        W 9203   8.512   2.300   9.258
 5460W        W 9204   1.623   1.342  11.322
 5461W        W 9205   3.568   1.841   3.042
 5462W        W 9206   1.172   9.516  10.413
 5463W        W 9207   1.761   0.072   8.577
 5464W        W 9208   0.170   9.207  10.462
 5465W        W 9209   3.896  10.392   2.678
 5466W        W 9210   4.432   7.595   2.745
 5467W        W 9211   0.712   3.311   1.154
 5468W        W 9212   3.617   5.700   1.720
 5469W        W 9213   4.110   9.343   9.351
 5470W        W 9214   4.065   7.508  10.628
 5471W        W 9215   1.918   1.398   3.429
 5472W        W 9216   5.000  10.008   3.457
 5473W        W 9217   0.217   7.405   2.323
 5474W        W 9218   1.797   5.453   2.182
 5475W        W 9219   4.681   0.631   9.049
 5476W        W 9220   0.467   3.858   3.099
 5477W        W 9221   4.322   5.136   9.564
 5478W        W 9222   1.884   2.900   8.353
 5479W        W 9223   8.181   5.041  11.798
 5480W        W 9224   8.049   8.637   0.768
 5481W        W 9225   3.239   7.377  10.338
 5482W        W 9226   7.115   0.801   3.055
 5483W        W 9227   0.703   3.089  10.916
 5484W        W 9228  10.451   9.419   1.991
 5485W        W 9229   6.141   9.119   3.416
 5486W        W 9230   1.098   0.424   9.167
 5487W        W 9231   6.153   6.172   2.039
 5488W        W 9232   4.065   9.902   3.470
 5489W        W 9233   7.014   4.596   3.733
 5490W        W 9234   9.249   3.392   9.791
 5491W        W 9235   4.580   4.148  10.903
 5492W        W 9236   5.037   2.387   9.501
 5493W        W 9237   1.230   4.200  11.038
 5494W        W 9238   8.678   6.746   8.583
 5495W        W 9239   9.359   0.909   8.977
 5496W        W 9240   8.907   1.751   8.816
 5497W        W 9241   5.075   6.109   9.552
 5498W        W 9242   6.112   1.956   0.250
 5499W        W 9243   0.842   6.296   2.989
 5500W        W 9244   4.214   3.630  11.726
 5501W        W 9245   3.274   6.158   8.575
 5502W        W 9246   0.673   8.885   9.104
 5503W        W 9247   6.294   1.396   8.426
 5504W        W 9248   4.586   9.251   0.462
 5505W        W 9249   0.963   1.757   0.103
 5506W        W 9250  10.405   4.497   2.539
 5507W        W 9251   8.625   7.558   0.827
 5508W        W 9252   9.369   1.525   9.543
 5509W        W 9253   9.879   1.345  11.190
 5510W        W 9254   4.285   3.124   2.752
 5511W        W 9255   2.875   2.153  10.350
 5512W        W 9256   4.257   5.231   1.398
 5513W        W 9257   7.610   8.807   0.572
 5514W        W 9258   4.751   1.725  10.365
 5515W        W 9259   6.158   7.602   8.066
 5516W        W 9260   9.279   6.238   0.963
 5517W        W 9261   8.476   6.080   2.642
 5518W        W 9262   3.216   7.132   1.161
 5519W        W 9263   2.782   9.739   2.251
 5520W        W 9264   9.439   3.561   2.501
 5521W        W 9265   6.432   2.303  10.979
 5522W        W 9266   6.166   9.664  11.840
 5523W        W 9267   6.454   2.161  11.462
 5524W        W 9268   5.964   4.652  11.753
 5525W        W 9269   7.215   6.748   8.375
 5526W        W 9270   7.131   1.965  11.498
 5527W        W 9271   1.469   7.905   1.924
 5528W        W 9272   9.073   7.007  11.731
 5529W        W 9273   9.178   2.247  10.940
 5530W        W 9274   0.445   6.939  11.867
 5531W        W 9275   7.600   8.163   2.375
 5532W        W 9276   1.189  10.037   0.530
 5533W        W 9277   0.447   7.646   1.869
 5534W        W 9278   3.406   3.663  10.925
 5535W        W 9279   5.750  10.334  10.970
 5536W        W 9280   2.643   8.821  11.962
 5537W        W 9281   1.321   0.940   2.632
 5538W        W 9282   4.625  10.378   3.369
 5539W        W 9283   9.109   8.893  11.057
 5540W        W 9284   2.202   2.513   9.222
 5541W        W 9285   9.385   8.206   3.082
 5542W        W 9286   6.409   5.359  10.403
 5543W        W 9287   6.552   1.736   0.385
 5544W        W 9288   3.261   2.371  10.642
 5545W        W 9289   5.660   8.352   9.964
 5546W        W 9290   7.458   1.533   2.651
 5547W        W 9291   7.902   8.001  10.238
 5548W        W 9292  10.246   2.738   9.341
 5549W        W 9293   1.632   5.058  10.947
 5550W        W 9294   7.162   9.739   3.807
 5551W        W 9295   1.253   4.168   0.919
 5552W        W 9296   9.774   2.797   9.545
 5553W        W 9297   0.855   0.427   1.430
 5554W        W 9298   6.484   0.783   8.818
 5555W        W 9299   4.758  10.095   1.699
 5556W        W 9300   7.495   9.012   3.530
 5557W        W 9301   9.259   1.245   3.410
 5558W        W 9302   8.070   7.998   2.257
 5559W        W 9303   5.597   2.637   2.450
 5560W        W 9304   1.972   9.119   3.342
 5561W        W 9305   7.156   9.736  11.965
 5562W        W 9306   0.684   0.063  11.429
 5563W        W 9307   8.518   3.209   1.395
 5564W        W 9308   9.017   6.055  11.469
 5565W        W 9309   8.324   2.447  10.771
 5566W        W 9310   3.266   7.301   0.207
 5567W        W 9311   8.306   7.130   0.714
 5568W        W 9312   4.236   0.322   1.757
 5569W        W 9313   0.777   4.766   1.498
 5570W        W 9314   0.899  10.207   8.549
 5571W        W 9315   3.409  10.017   0.981
 5572W        W 9316   5.642   4.122   1.205
 5573W        W 9317   7.374   3.161  10.691
 5574W        W 9318   3.644   3.533   2.418
 5575W        W 9319   7.971   9.790   3.422
 5576W        W 9320   9.809   4.722   2.395
 5577W        W 9321   6.528   6.082   0.664
 5578W        W 9322   9.987   4.491  11.001
 5579W        W 9323  10.308   6.108  11.184
 5580W        W 9324   4.209   0.856   8.972
 5581W        W 9325   1.826   7.386   0.926
 5582W        W 9326   4.244   9.488   1.095
 5583W        W 9327   0.881   2.257  11.973
 5584W        W 9328   5.626   7.238   2.822
 5585W        W 9329   4.731   6.465  10.809
 5586W        W 9330   5.553   2.691  11.388
 5587W        W 9331   7.482   8.952   1.048
 5588W        W 9332   2.822   9.064   0.383
 5589W        W 9333   8.098   4.227   3.151
 5590W        W 9334   8.087   5.113   2.583
 5591W        W 9335   6.560   2.658  11.360
 5592W        W 9336   8.089   4.973   1.575
 5593W        W 9337   1.354   1.677   1.187
 5594W        W 9338   9.753   2.248   2.235
 5595W        W 9339   8.373   2.425  10.272
 5596W        W 9340   3.718   0.426   9.852
 5597W        W 9341   8.832   3.159   2.455
 5598W        W 9342   4.036   9.454   8.446
 5599W        W 9343   7.542   1.895   2.163
 5600W        W 9344   8.949   2.635   0.240
 5601W        W 9345   7.039   6.943  11.715
 5602W        W 9346   5.056   2.365  10.493
 5603W        W 9347   5.976   7.910   2.429
 5604W        W 9348   0.048   2.400   0.957
 5605W        W 9349   6.251   4.657   1.593
 5606W        W 9350   2.446   3.427   2.940
 5607W        W 9351   1.981   4.574   3.292
 5608W        W 9352   7.660   6.456   3.405
 5609W        W 9353   7.085  10.191  10.917
 5610W        W 9354   2.213  10.286   9.283
 5611W        W 9355   7.873   0.238   9.514
 5612W        W 9356   2.946   8.515   3.295
 5613W        W 9357   3.126   0.693  10.898
 5614W        W 9358   2.430  10.235   1.683
 5615W        W 9359   8.558   9.320   9.044
 5616W        W 9360   0.708  10.086  11.334
 5617W        W 9361   7.590   2.817  10.372
 5618W        W 9362   8.549   6.474   9.567
 5619W        W 9363   6.951  10.421   1.210
 5620W        W 9364   4.555   0.328  11.055
 5621W        W 9365   0.359   4.499   1.420
 5622W        W 9366   0.708  10.260  11.827
 5623W        W 9367   2.743   8.559   9.197
 5624W        W 9368   3.071   4.298   0.364
 5625W        W 9369   4.611   0.075   1.521
 5626W        W 9370   0.422   9.387   1.796
 5627W        W 9371   0.992   4.645   9.196
 5628W        W 9372  10.199   2.242  10.644
 5629W        W 9373   7.010   9.915  10.009
 5630W        W 9374   4.630   7.206  11.581
 5631W        W 9375   5.548   3.078  10.638
 5632W        W 9376  10.306   1.563   1.325
 5633W        W 9377   4.089   2.592   0.958
 5634W        W 9378   0.931   2.208   3.229
 5635W        W 9379   1.751   0.740  11.393
 5636W        W 9380   3.187   8.695  11.947
 5637W        W 9381   5.835   8.071   4.050
 5638W        W 9382   8.432   8.488   1.249
 5639W        W 9383   8.633   5.293  11.801
 5640W        W 9384   2.243   4.535  11.651
 5641W        W 9385   9.364   4.217  10.471
 5642W        W 9386   2.419   2.903   8.470
 5643W        W 9387   5.601   7.544   9.365
 5644W        W 9388   6.515   3.423   1.023
 5645W        W 9389   8.065   1.651   9.786
 5646W        W 9390   3.284   3.311   1.768
 5647W        W 9391   4.545  10.416   0.781
 5648W        W 9392   1.792   4.701   0.937
 5649W        W 9393   2.613   4.261   2.842
 5650W        W 9394   1.374   1.950   8.865
 5651W        W 9395   4.717   0.422   2.458
 5652W        W 9396   5.731   5.985   3.164
 5653W        W 9397   1.755   4.357  11.771
 5654W        W 9398   4.702   8.028  11.078
 5655W        W 9399   0.844   5.682  10.176
 5656W        W 9400   0.439  10.220  10.394
 5657W        W 9401   2.359   6.973   1.716
 5658W        W 9402   9.769   8.597  10.450
 5659W        W 9403   3.839  10.022   1.673
 5660W        W 9404   5.109   2.573   2.710
 5661W        W 9405   5.188   1.643   8.717
 5662W        W 9406   8.664   0.490   3.183
 5663W        W 9407   6.990   1.188   1.936
 5664W        W 9408   9.110   2.196  11.986
 5665W        W 9409   2.319   9.435   2.233
 5666W        W 9410   3.421   0.887   8.764
 5667W        W 9411   5.316   8.471   1.490
 5668W        W 9412   2.470   6.170   0.437
 5669W        W 9413   3.094   0.786  11.895
 5670W        W 9414   7.453   0.655  11.382
 5671W        W 9415   0.523   6.055   2.220
 5672W        W 9416   7.326   6.130   3.172
 5673W        W 9417   5.638   4.093  10.976
 5674W        W 9418   4.364   8.569   1.321
 5675W        W 9419  10.354   7.021  11.257
 5676W        W 9420   5.904   7.075  10.470
 5677W        W 9421   4.993   8.001   0.813
 5678W        W 9422   6.444   3.648   9.917
 5679W        W 9423   1.703   3.555   9.340
 5680W        W 9424   2.758   1.912   0.427
 5681W        W 9425   2.890   6.935   9.399
 5682W        W 9426   0.905   6.664   8.937
 5683W        W 9427   7.986   2.662   2.361
 5684W        W 9428   4.022   2.667   2.731
 5685W        W 9429   0.933   6.172   2.482
 5686W        W 9430  10.287   7.919   0.417
 5687W        W 9431   8.357   0.118   3.282
 5688W        W 9432  10.480   0.796   3.408
 5689W        W 9433   3.471   0.499   3.523
 5690W        W 9434   4.590   4.059   7.863
 5691W        W 9435   7.354   6.541   0.313
 5692W        W 9436   3.211   9.989   2.950
 5693W        W 9437   6.967   9.856   2.644
 5694W        W 9438   7.688   1.881   2.931
 5695W        W 9439  10.400   8.880   9.686
 5696W        W 9440   3.813   2.755  10.566
 5697W        W 9441   9.375   9.094   0.029
 5698W        W 9442   0.030   2.626   8.642
 5699W        W 9443   8.864   5.812   0.329
 5700W        W 9444   5.005   0.832   2.654
 5701W        W 9445   6.629   6.460   1.811
 5702W        W 9446   8.953   7.434   1.574
 5703W        W 9447   5.322   2.736   3.400
 5704W        W 9448  10.024   0.851   9.586
 5705W        W 9449   2.420   5.692   3.176
 5706W        W 9450   6.451   1.140   1.934
 5707W        W 9451   2.685   8.355   2.891
 5708W        W 9452   7.877   7.437  11.517
 5709W        W 9453   6.143   2.064   2.778
 5710W        W 9454   4.163   7.124   1.461
 5711W        W 9455   8.895   8.903   3.319
 5712W        W 9456   3.408   2.693   2.532
 5713W        W 9457   2.899   0.982   8.401
 5714W        W 9458   9.322   3.037   9.399
 5715W        W 9459   8.823   7.517   3.072
 5716W        W 9460   5.153   5.234   9.055
 5717W        W 9461   9.734   5.595  11.688
 5718W        W 9462  10.143   2.054   3.209
 5719W        W 9463  10.486   2.757   2.618
 5720W        W 9464   6.425   6.060  10.868
 5721W        W 9465   7.225   9.783   8.513
 5722W        W 9466   8.615   4.473   0.793
 5723W        W 9467   4.192   3.114   0.899
 5724W        W 9468   4.363   9.520   2.818
 5725W        W 9469   6.135   8.579   3.369
 5726W        W 9470   7.362  10.266   8.771
 5727W        W 9471   9.386   7.951   0.973
 5728W        W 9472   4.754   4.544   9.065
 5729W        W 9473   2.897   6.690  10.306
 5730W        W 9474   3.587   2.359   0.452
 5731W        W 9475   1.423   8.542   0.140
 5732W        W 9476  10.055   6.481   0.139
 5733W        W 9477   6.203  10.039  10.892
 5734W        W 9478   1.773   8.324   3.582
 5735W        W 9479   4.585   9.068   1.374
 5736W        W 9480   9.048   9.108   0.446
 5737W        W 9481   7.374   3.256   1.345
 5738W        W 9482   5.941   2.606   9.410
 5739W        W 9483   3.658   6.268   8.935
 5740W        W 9484   8.054   2.850   9.733
 5741W        W 9485   0.226   3.039  11.416
 5742W        W 9486   2.107   3.434  10.149
 5743W        W 9487   0.874   2.385  11.443
 5744W        W 9488   1.835   3.378   1.028
 5745W        W 9489   1.717   4.145   1.126
 5746W        W 9490   9.731   4.278   2.126
 5747W        W 9491   0.844   0.457   3.220
 5748W        W 9492   2.696   5.886   8.557
 5749W        W 9493   6.135   1.741   8.792
 5750W        W 9494   9.423   5.496   8.886
 5751W        W 9495   4.081   0.925   2.390
 5752W        W 9496   2.402   4.246   2.369
 5753W        W 9497   8.934   9.947   9.526
 5754W        W 9498   8.711   2.368  11.079
 5755W        W 9499   6.009   3.864   9.235
 5756W        W 9500   1.594   0.718   3.068
 5757W        W 9501   1.444   4.599   2.185
 5758W        W 9502   2.266   2.331  10.643
 5759W        W 9503   6.150   9.381  10.032
 5760W        W 9504   8.991   8.864   2.269
 5761W        W 9505   9.390   7.305  11.480
 5762W        W 9506   1.122   7.939   9.959
 5763W        W 9507   9.287   5.060   0.749
 5764W        W 9508   3.740   3.607   0.938
 5765W        W 9509   9.890   9.512   2.142
 5766W        W 9510   9.595   4.864   3.792
 5767W        W 9511   6.927   6.592   3.765
 5768W        W 9512   9.463   4.831   2.780
 5769W        W 9513   3.339   3.223   9.594
 5770W        W 9514   7.426   2.331   3.070
 5771W        W 9515   4.078   8.252  11.791
 5772W        W 9516   9.009   7.519   8.856
 5773W        W 9517   2.508   0.725  10.085
 5774W        W 9518   9.417   9.118   2.847
 5775W        W 9519   0.224   9.568   2.776
 5776W        W 9520   8.368   6.250  10.014
 5777W        W 9521  10.029   4.532   8.972
 5778W        W 9522   8.411   6.990   1.894
 5779W        W 9523  10.274   4.083   1.867
 5780W        W 9524   1.830   0.816   2.636
 5781W        W 9525   1.048   9.978   1.032
 5782W        W 9526   5.836   0.324   9.720
 5783W        W 9527   3.606   2.238   2.709
 5784W        W 9528   2.354   6.235   1.281
 5785W        W 9529   2.289   2.997   9.349
 5786W        W 9530   9.763   7.686  10.612
 5787W        W 9531   4.625   1.345   1.584
 5788W        W 9532   2.423   9.375  10.753
 5789W        W 9533   9.375   5.844   2.692
 5790W        W 9534   9.450   0.286   1.529
 5791W        W 9535   5.921   6.887   0.746
 5792W        W 9536   7.576   4.571   8.638
 5793W        W 9537   3.148   7.035   9.976
 5794W        W 9538   1.842   9.431   1.973
 5795W        W 9539   5.575   9.930   2.218
 5796W        W 9540   9.096   7.210   0.194
 5797W        W 9541   5.122   5.575   2.677
 5798W        W 9542   6.527   0.304  10.463
 5799W        W 9543   2.228   4.982  10.318
 5800W        W 9544   8.512   8.409   0.718
 5801W        W 9545   9.840   2.655   0.410
 5802W        W 9546   9.583   0.778   1.386
 5803W        W 9547   8.341   0.498  11.795
 5804W        W 9548   7.554   0.590  10.381
 5805W        W 9549   8.158   7.951   9.299
 5806W        W 9550   2.258   0.185  10.908
 5807W        W 9551   2.324   1.600   2.201
 5808W        W 9552   1.844   9.613   3.482
 5809W        W 9553   1.160   9.064  10.684
 5810W        W 9554   6.461   7.802  10.303
 5811W        W 9555   3.594   5.083   0.211
 5812W        W 9556   8.069   6.945  10.789
 5813W        W 9557   6.539   3.235   9.138
 5814W        W 9558   9.004   4.036   8.652
 5815W        W 9559   4.185   5.740   2.336
 5816W        W 9560   0.739   7.495   3.163
 5817W        W 9561   0.693   2.132   0.446
 5818W        W 9562   7.585   1.842   1.149
 5819W        W 9563   3.269   4.182   3.577
 5820W        W 9564   5.974   8.041   8.340
 5821W        W 9565   9.590   5.057  10.047
 5822W        W 9566   8.676   5.798   3.550
 5823W        W 9567   4.895   9.511   9.961
 5824W        W 9568   9.749   3.341  10.177
 5825W        W 9569   4.494   1.849   1.405
 5826W        W 9570   4.275   0.682  11.314
 5827W        W 9571   4.141   7.748  11.798
 5828W        W 9572   2.558   1.704   9.458
 5829W        W 9573   8.099   4.642   9.444
 5830W        W 9574   0.460   5.575   2.422
 5831W        W 9575   6.434   7.420  11.761
 5832W        W 9576   3.274   9.498   3.175
 5833W        W 9577   0.851   8.345   9.054
 5834W        W 9578   8.473   9.890   1.029
 5835W        W 9579   9.068   5.022  11.838
 5836W        W 9580   8.170   4.253   9.105
 5837W        W 9581   3.469   8.446  10.008
 5838W        W 9582   9.396   5.868   9.533
 5839W        W 9583   9.616   9.387   1.430
 5840W        W 9584   6.062   3.065   2.806
 5841W        W 9585   5.760   7.840  11.753
 5842W        W 9586   1.449   3.233  11.343
 5843W        W 9587   9.142   6.639   2.145
 5844W        W 9588   5.217   1.896   0.265
 5845W        W 9589   0.720   4.255   2.771
 5846W        W 9590  10.150   9.080  10.922
 5847W        W 9591   0.376   0.297   9.532
 5848W        W 9592   3.234   7.171   2.624
 5849W        W 9593   7.856   6.923   1.907
 5850W        W 9594   9.156   0.319   3.314
 5851W        W 9595   8.934   3.670   2.492
 5852W        W 9596   4.095   0.928   9.510
 5853W        W 9597   4.475   7.190  10.509
 5854W        W 9598   3.325   3.623  11.918
 5855W        W 9599   2.756   9.890   2.729
 5856W        W 9600   3.636   9.849   3.219
 5857W        W 9601   6.431   9.599   8.835
 5858W        W 9602   3.149   9.780   0.295
 5859W        W 9603   0.202   8.058   1.691
 5860W        W 9604   4.367   5.681   2.810
 5861W        W 9605   6.203   1.496   3.644
 5862W        W 9606   1.839   7.794  10.458
 5863W        W 9607   9.360   2.512   9.434
 5864W        W 9608   7.994   7.699   8.561
 5865W        W 9609   2.688   6.387   4.119
 5866W        W 9610   5.489   5.490   2.272
 5867W        W 9611   5.998  10.177   3.630
 5868W        W 9612   3.198   9.385   2.173
 5869W        W 9613   0.246   5.433  11.816
 5870W        W 9614  10.483   2.647   3.587
 5871W        W 9615   5.415  10.385   2.438
 5872W        W 9616   1.034   0.887   2.206
 5873W        W 9617   0.827   3.575   9.869
 5874W        W 9618   8.298   1.397   2.226
 5875W        W 9619   3.815   4.117   3.238
 5876W        W 9620   8.784  10.353   1.447
 5877W        W 9621   4.078   6.237   2.398
 5878W        W 9622   7.521   3.132   8.660
 5879W        W 9623   4.124   4.127   8.685
 5880W        W 9624   6.929   8.947  10.959
 5881W        W 9625   5.459   2.673   9.647
 5882W        W 9626   3.224   9.345   9.520
 5883W        W 9627   8.907   7.943  11.156
 5884W        W 9628   6.464   5.172   9.874
 5885W        W 9629   1.212  10.020   2.339
 5886W        W 9630   1.189   6.699   9.351
 5887W        W 9631   6.484   7.555   9.541
 5888W        W 9632   8.559   3.047   0.899
 5889W        W 9633   7.390   5.000  10.732
 5890W        W 9634   9.998   2.476   3.493
 5891W        W 9635   3.128   7.138   3.259
 5892W        W 9636   7.143   4.691   2.876
 5893W        W 9637  10.326   6.541   0.572
 5894W        W 9638   0.373   8.466   0.844
 5895W        W 9639   2.065   8.716   3.656
 5896W        W 9640   6.973   7.525   2.832
 5897W        W 9641   6.068  10.064   2.070
 5898W        W 9642   1.644   8.958  11.903
 5899W        W 9643   4.821   6.973  10.830
 5900W        W 9644   0.571   3.130  10.002
 5901W        W 9645   0.255   8.539   1.845
 5902W        W 9646   5.144   3.669  11.656
 5903W        W 9647   5.699   2.836  11.849
 5904W        W 9648   2.262   6.012  11.285
 5905W        W 9649   4.702   5.554  10.716
 5906W        W 9650   4.284   3.382   0.188
 5907W        W 9651   5.457   9.620   9.327
 5908W        W 9652   3.873   5.270   1.724
 5909W        W 9653   4.160   7.481   3.553
 5910W        W 9654   4.173   7.904   9.210
 5911W        W 9655   0.834   1.889  11.619
 5912W        W 9656   5.542   2.924  10.135
 5913W        W 9657   3.476   2.194  11.910
 5914W        W 9658   9.127   7.181   9.925
 5915W        W 9659   3.851   7.173   9.355
 5916W        W 9660   6.706   8.010   1.491
 5917W        W 9661   6.188   9.350   0.828
 5918W        W 9662   0.973   7.462   0.420
 5919W        W 9663   8.610   8.666   0.291
 5920W        W 9664   2.682  10.442   0.107
 5921W        W 9665   8.807   3.290  10.551
 5922W        W 9666   1.215   7.731  11.782
 5923W        W 9667   7.367   5.648   2.560
 5924W        W 9668   8.367  10.219   9.776
 5925W        W 9669   6.734  10.478   3.017
 5926W        W 9670   5.588   9.163   9.177
 5927W        W 9671   3.955   0.575   3.385
 5928W        W 9672   2.077   1.119  11.297
 5929W        W 9673   4.026  10.354   0.805
 5930W        W 9674   6.808   7.934   9.420
 5931W        W 9675   8.819   5.029  11.393
 5932W        W 9676   6.119   0.852   2.289
 5933W        W 9677  10.468   3.724   2.678
 5934W        W 9678  10.029   0.970   2.235
 5935W        W 9679   9.362   1.627   8.600
 5936W        W 9680   2.755   4.087   8.965
 5937W        W 9681   2.790   5.068   0.521
 5938W        W 9682   0.849   3.156  10.433
 5939W        W 9683   8.934   6.416  10.688
 5940W        W 9684   4.772   8.975   3.387
 5941W        W 9685   0.826   2.308  10.518
 5942W        W 9686   0.873   9.779   3.001
 5943W        W 9687   7.567  10.452  10.900
 5944W        W 9688   2.569   0.802   1.012
 5945W        W 9689   0.939   8.934   2.951
 5946W        W 9690   1.782   7.372   3.033
 5947W        W 9691  10.362   0.453   9.507
 5948W        W 9692   2.839   0.365  10.314
 5949W        W 9693   8.968   9.800   2.709
 5950W        W 9694   6.095   8.441   9.035
 5951W        W 9695   5.580   5.375  11.376
 5952W        W 9696   2.276   2.386   8.711
 5953W        W 9697   0.423  10.482   9.951
 5954W        W 9698   2.813   3.165   9.425
 5955W        W 9699   5.057   1.809  11.258
 5956W        W 9700   5.762   5.545  11.821
 5957W        W 9701   2.244   0.273   2.304
 5958W        W 9702   7.508   6.582   2.946
 5959W        W 9703   5.208   9.217  10.228
 5960W        W 9704   5.558   5.586   9.459
 5961W        W 9705   6.954   8.383  11.474
 5962W        W 9706   7.040   1.675   9.002
 5963W        W 9707   5.612   1.248   9.772
 5964W        W 9708   2.346   6.915  11.983
 5965W        W 9709   7.524   9.403  11.926
 5966W        W 9710   0.881   3.649   3.257
 5967W        W 9711   4.015   3.568  10.033
 5968W        W 9712   3.664   5.141  10.243
 5969W        W 9713   8.867   9.461   0.816
 5970W        W 9714   5.006   8.127   9.287
 5971W        W 9715   0.945   5.602  10.671
 5972W        W 9716   1.866   6.518  10.770
 5973W        W 9717   9.786   7.661   1.303
 5974W        W 9718   6.608   7.247   9.151
 5975W        W 9719   2.660   5.127  11.988
 5976W        W 9720   7.559   7.479   8.423
 5977W        W 9721   3.550   0.010   0.213
 5978W        W 9722  10.259   8.674  11.846
 5979W        W 9723   4.251   7.236   0.986
 5980W        W 9724   0.963   3.329  11.272
 5981W        W 9725   2.146   4.929   1.289
 5982W        W 9726   4.301   8.847   8.944
 5983W        W 9727   9.546   2.192  11.273
 5984W        W 9728   1.817   5.982   2.035
 5985W        W 9729   5.616  10.058   9.114
 5986W        W 9730   0.185   8.314  10.443
 5987W        W 9731   0.766   7.416  11.518
 5988W        W 9732   9.243   2.214   2.262
 5989W        W 9733   8.570   1.952  10.143
 5990W        W 9734   7.904   1.420   1.477
 5991W        W 9735   3.375   4.715   2.716
 5992W        W 9736   7.863   7.092  11.891
 5993W        W 9737   8.621   3.887   0.569
 5994W        W 9738   5.542   5.830   1.593
 5995W        W 9739   0.432   6.657   0.862
 5996W        W 9740   6.089   4.787   9.832
 5997W        W 9741   6.423   7.019   9.603
 5998W        W 9742   8.825   3.666   9.564
 5999W        W 9743   7.116   3.640   1.573
 6000W        W 9744   2.496   0.732   2.419
 6001W        W 9745   9.886   8.711   2.513
 6002W        W 9746   8.743   8.380  10.360
 6003W        W 9747   4.078   5.588   0.052
 6004W        W 9748   1.380   0.863   9.018
 6005W        W 9749   8.331   3.276   2.427
 6006W        W 9750   2.911   2.714   2.605
 6007W        W 9751   4.700   8.483   3.554
 6008W        W 9752   4.794   2.125  10.038
 6009W        W 9753   9.957   7.472   0.394
 6010W        W 9754   7.517  10.028   3.388
 6011W        W 9755   0.645  10.388   1.218
 6012W        W 9756   3.952   4.765   9.373
 6013W        W 9757   0.726   5.428   1.304
 6014W        W 9758   0.298   3.843   0.363
 6015W        W 9759   6.607   1.003   0.826
 6016W        W 9760   9.523   9.401  11.550
 6017W        W 9761   7.446   9.065  10.886
 6018W        W 9762   3.348   6.067   0.258
 6019W        W 9763   8.954   1.263   9.767
 6020W        W 9764   3.232   0.175  10.880
 6021W        W 9765   4.675   5.011   1.616
 6022W        W 9766   0.422   5.723   0.986
 6023W        W 9767   4.930   8.899  11.044
 6024W        W 9768  10.009   6.875   9.909
 6025W        W 9769   8.591   7.789  11.977
 6026W        W 9770   5.811   4.332   9.999
 6027W        W 9771   8.105   4.255  10.923
 6028W        W 9772   0.365   8.988   3.468
 6029W        W 9773  10.241   2.267  10.120
 6030W        W 9774   0.915   9.071   0.484
 6031W        W 9775   8.401   8.970   1.483
 6032W        W 9776   3.926   4.514   1.026
 6033W        W 9777   1.151   1.826   3.498
 6034W        W 9778  10.233   3.694   0.502
 6035W        W 9779   6.815   0.797   1.229
 6036W        W 9780   3.007   1.721   0.834
 6037W        W 9781   4.305   8.714   3.322
 6038W        W 9782   3.075   9.236  10.040
 6039W        W 9783   0.046   5.482   8.496
 6040W        W 9784   1.557   3.361  11.844
 6041W        W 9785   7.582   1.278   9.016
 6042W        W 9786   5.226   3.580  10.715
 6043W        W 9787   4.826   3.697  11.009
 6044W        W 9788   1.043   5.868   1.233
 6045W        W 9789   1.926   1.753   3.801
 6046W        W 9790   7.859   5.591   2.675
 6047W        W 9791   1.332   5.998  11.340
 6048W        W 9792   0.604   3.855   3.638
 6049W        W 9793   0.961   3.340   0.704
 6050W        W 9794   5.252   8.415   0.973
 6051W        W 9795   4.404   1.156  11.496
 6052W        W 9796   3.097   3.990   0.784
 6053W        W 9797   2.783   8.933   1.648
 6054W        W 9798   0.325   1.081   0.979
 6055W        W 9799   7.646   6.844   9.989
 6056W        W 9800   6.918   3.754   8.559
 6057W        W 9801   8.336   7.524   3.220
 6058W        W 9802   5.713   9.204   2.621
 6059W        W 9803   1.111   0.031   0.997
 6060W        W 9804   0.053   1.135   1.414
 6061W        W 9805   0.706   5.224  10.401
 6062W        W 9806   6.211   5.602  10.846
 6063W        W 9807   3.150   9.169  10.911
 6064W        W 9808   9.152   6.915  11.242
 6065W        W 9809   9.814  10.466   2.308
 6066W        W 9810   3.160   7.078   8.553
 6067W        W 9811   4.983   6.616   9.436
 6068W        W 9812  10.141   4.082   2.370
 6069W        W 9813   0.088   3.698   1.672
 6070W        W 9814   7.846   7.371   3.221
 6071W        W 9815   1.306   6.423   3.226
 6072W        W 9816   0.879   4.451   0.698
 6073W        W 9817   7.967   2.143   3.273
 6074W        W 9818   7.669   7.958   8.846
 6075W        W 9819   3.602   8.072   1.192
 6076W        W 9820   7.644   5.244   2.351
 6077W        W 9821   6.082   2.310   3.218
 6078W        W 9822   2.442   2.440  10.173
 6079W        W 9823   8.605   7.286   9.961
 6080W        W 9824   4.567   8.052   9.508
 6081W        W 9825   3.643   4.066  11.991
 6082W        W 9826   2.588   2.804  11.109
 6083W        W 9827   3.381   4.158   9.845
 6084W        W 9828   0.405   8.150  11.297
 6085W        W 9829   6.617   4.341   1.428
 6086W        W 9830   3.046   6.767   1.598
 6087W        W 9831   1.189   9.917  10.080
 6088W        W 9832   0.705   1.456   8.547
 6089W        W 9833   1.508  10.231   0.877
 6090W        W 9834   8.924   4.836   1.037
 6091W        W 9835   5.291   4.286   9.865
 6092W        W 9836   4.599   2.263   0.589
 6093W        W 9837   3.142   6.580   3.312
 6094W        W 9838   8.927   2.232   9.577
 6095W        W 9839  10.172   1.726  10.966
 6096W        W 9840   1.276   7.397   3.592
 6097W        W 9841   8.366   4.208  10.483
 6098W        W 9842   0.470   9.978   9.119
 6099W        W 9843   6.201   7.635  10.817
 6100W        W 9844   0.255   7.547   9.102
 6101W        W 9845   6.236   7.833   2.876
 6102W        W 9846   8.841   1.782   0.167
 6103W        W 9847   2.602   5.084   1.013
 6104W        W 9848   8.839   6.253   2.309
 6105W        W 9849   2.724   7.215  11.116
 6106W        W 9850   4.511   0.682   1.455
 6107W        W 9851   1.927   4.656  10.689
 6108W        W 9852   0.767   5.069   3.278
 6109W        W 9853   9.367   4.086   3.400
 6110W        W 9854   0.899   5.658   0.788
 6111W        W 9855   8.618   2.746   2.721
 6112W        W 9856   1.662   6.477   1.993
 6113W        W 9857   3.750   6.593   0.372
 6114W        W 9858   8.888   4.275   3.312
 6115W        W 9859   2.382   3.386   1.311
 6116W        W 9860   7.603   9.615   3.069
 6117W        W 9861   9.693   9.564   3.561
 6118W        W 9862   6.562  10.015   9.767
 6119W        W 9863   3.146   4.165  11.838
 6120W        W 9864   8.879   1.012   1.728
 6121W        W 9865   7.850  10.330   2.270
 6122W        W 9866   6.218   0.269   2.989
 6123W        W 9867   5.963   3.187   3.653
 6124W        W 9868   9.921   0.806   0.485
 6125W        W 9869   3.332   8.882   9.789
 6126W        W 9870   7.587   9.944   2.037
 6127W        W 9871   8.790   2.205   0.982
 6128W        W 9872   0.408   8.467   9.976
 6129W        W 9873   3.232   3.570  11.422
 6130W        W 9874   1.424   4.671  10.620
 6131W        W 9875   3.844   1.851   1.274
 6132W        W 9876   5.888   3.693   3.780
 6133W        W 9877   1.329   5.070   0.226
 6134W        W 9878   1.316   3.279   9.092
 6135W        W 9879   7.634   7.525   0.772
 6136W        W 9880   3.815   4.442   2.263
 6137W        W 9881   6.185   7.710   3.469
 6138W        W 9882   6.574   9.460   0.156
 6139W        W 9883   8.066   0.721  10.203
 6140W        W 9884   4.163   7.662  11.098
 6141W        W 9885   6.654   0.713   1.719
 6142W        W 9886   7.708   8.663   0.089
 6143W        W 9887   7.419   8.394   9.056
 6144W        W 9888   8.461   2.861   3.227
 6145W        W 9889   9.308   5.720  11.156
 6146W        W 9890   3.741   4.365   9.067
 6147W        W 9891   3.357   8.511   2.250
 6148W        W 9892   1.814   8.966   1.744
 6149W        W 9893   9.798   9.009   8.921
 6150W        W 9894   5.610   0.609   0.809
 6151W        W 9895   3.715   8.360   0.769
 6152W        W 9896   8.468   2.377   9.768
 6153W        W 9897   2.317   9.787  11.042
 6154W        W 9898   8.601   1.186  11.409
 6155W        W 9899   4.005   0.754   2.886
 6156W        W 9900   6.943   7.457   0.220
 6157W        W 9901   6.532   8.305  11.861
 6158W        W 9902   4.111   4.174   2.830
 6159W        W 9903   3.314   4.583   2.159
 6160W        W 9904   7.332  10.270   2.367
 6161W        W 9905   6.028   6.686   0.282
 6162W        W 9906   3.372   4.488   9.390
 6163W        W 9907   6.542   1.720   9.155
 6164W        W 9908   5.752   5.951   0.730
 6165W        W 9909   0.272   3.395   2.985
 6166W        W 9910   9.985   1.731   0.956
 6167W        W 9911   8.435   1.395   3.235
 6168W        W 9912   6.758   0.746  10.218
 6169W        W 9913   8.831   9.385   3.460
 6170W        W 9914   4.866   2.669   3.147
 6171W        W 9915   0.578   9.527   0.171
 6172W        W 9916   4.825   2.806   1.433
 6173W        W 9917   7.603   3.747   3.414
 6174W        W 9918   6.077   0.704  11.795
 6175W        W 9919   5.982   9.364   2.212
 6176W        W 9920   8.766   2.261  10.580
 6177W        W 9921   7.608   4.109  10.893
 6178W        W 9922   9.055   8.462  11.349
 6179W        W 9923   7.421   6.129   2.239
 6180W        W 9924   2.561   7.465   1.463
 6181W        W 9925   5.267   6.469   0.665
 6182W        W 9926   1.601   9.889  11.569
 6183W        W 9927   0.870   7.531   9.800
 6184W        W 9928  10.010   5.347   0.043
 6185W        W 9929  10.313   2.330   0.041
 6186W        W 9930   6.852   6.130  10.103
 6187W        W 9931   2.485  10.373   0.738
 6188W        W 9932   3.347   2.829  10.421
 6189W        W 9933   0.344   0.285   1.426
 6190W        W 9934   5.253   6.251  11.529
 6191W        W 9935   1.722   1.652   2.873
 6192W        W 9936   3.269   7.949   9.525
 6193W        W 9937   5.334   6.030   0.364
 6194W        W 9938   1.098   3.156   9.971
 6195W        W 9939   7.340  10.180   0.179
 6196W        W 9940   7.404   0.726   2.462
 6197W        W 9941   3.664  10.428  11.719
 6198W        W 9942   0.391   6.121  10.319
 6199W        W 9943   2.718   0.796  10.554
 6200W        W 9944   4.041   5.080  11.964
 6201W        W 9945   1.207   9.613   3.778
 6202W        W 9946  10.046   8.993   1.413
 6203W        W 9947   5.782   1.566   1.006
 6204W        W 9948   1.484   5.989   0.301
 6205W        W 9949   9.627   8.110  10.286
 6206W        W 9950   4.701   4.089   3.653
 6207W        W 9951   7.295   2.810   9.954
 6208W        W 9952   5.729   7.338  10.872
 6209W        W 9953   1.158   6.130   0.723
 6210W        W 9954   2.728   5.537   3.545
 6211W        W 9955  10.223   4.245   3.390
 6212W        W 9956   2.336   5.234   9.861
 6213W        W 9957   6.764   0.288  10.005
 6214W        W 9958   5.138   3.868  10.260
 6215W        W 9959   3.788   3.746   2.868
 6216W        W 9960   0.320   6.495   2.413
 6217W        W 9961   8.776   1.421   2.037
 6218W        W 9962  10.207   1.629   2.924
 6219W        W 9963   7.011   6.539   2.788
 6220W        W 9964   9.493   1.392   9.053
 6221W        W 9965   3.807   2.663   3.484
 6222W        W 9966   6.479   8.805  11.925
 6223W        W 9967   2.068   1.715   9.595
 6224W        W 9968   3.280   8.578   0.940
 6225W        W 9969  10.415   7.680   1.878
 6226W        W 9970   1.205   2.118   0.357
 6227W        W 9971   6.186   4.201   2.627
 6228W        W 9972   9.598   8.506  11.383
 6229W        W 9973   8.455   2.624  11.443
 6230W        W 9974   9.344   7.410  10.598
 6231W        W 9975   3.677   9.242   3.404
 6232W        W 9976   5.936   8.087   3.222
 6233W        W 9977   3.525   4.871   1.010
 6234W        W 9978   4.305   9.825   9.367
 6235W        W 9979   2.242   3.502   9.322
 6236W        W 9980   7.495   1.911   3.423
 6237W        W 9981   2.342   8.850   9.086
 6238W        W 9982   9.454   1.739  10.008
 6239W        W 9983   5.926   7.365  11.788
 6240W        W 9984   7.877  10.358  11.440
 6241W        W 9985   0.604   8.194   1.989
 6242W        W 9986  10.335   7.770   2.383
 6243W        W 9987   9.008   4.525   0.099
 6244W        W 9988   3.848   6.153   1.791
 6245W        W 9989   0.824   2.619   2.489
 6246W        W 9990  10.341   9.550  10.963
 6247W        W 9991   2.835   1.092   1.787
 6248W        W 9992   9.663   5.953   9.960
 6249W        W 9993   9.449   1.192  11.435
 6250W        W 9994   1.510   5.468   3.472
 6251W        W 9995   1.434   3.210   1.637
 6252W        W 9996   5.998   9.781   2.488
 6253W        W 9997   5.799   8.719   2.722
 6254W        W 9998   7.171   0.856   1.593
 6255W        W 9999   6.936   5.644   9.365
 6256W        W10000   7.612   1.564  10.541
 6257W        W10001   2.169   2.976   2.997
 6258W        W10002   8.879  10.212   2.319
 6259W        W10003   1.011   7.928  10.466
 6260W        W10004   0.416   6.668   9.855
 6261W        W10005   4.078   7.013  10.820
 6262W        W10006  10.001   0.886  11.461
 6263W        W10007   5.176   1.671   9.242
 6264W        W10008   5.058   6.082  10.070
 6265W        W10009   2.819   7.628  10.598
 6266W        W10010   3.488   7.639   8.503
 6267W        W10011   6.436   4.179   3.114
 6268W        W10012   5.913  10.339   2.472
 6269W        W10013  10.245   4.101   9.197
 6270W        W10014   9.781   5.172   3.016
 6271W        W10015   9.916   3.220   1.992
 6272W        W10016   1.785   9.382   9.515
 6273W        W10017   0.399   0.850  11.563
 6274W        W10018  10.262   3.266   2.478
 6275W        W10019   9.295   6.602   3.568
 6276W        W10020  10.490   4.729   9.084
 6277W        W10021   0.788   1.452   9.463
 6278W        W10022   8.081   7.901   1.294
 6279W        W10023   6.266   7.872   1.758
 6280W        W10024   9.241   0.744  10.956
 6281W        W10025   6.515   6.886  10.086
 6282W        W10026   7.103  10.330   3.332
 6283W        W10027   4.309   4.291   2.386
 6284W        W10028   0.901   0.811  10.751
 6285W        W10029   0.966   4.649   3.489
 6286W        W10030   8.491   7.703   2.305
 6287W        W10031   0.459   2.551   0.698
 6288W        W10032   8.562   7.480   1.863
 6289W        W10033   2.254   1.465   2.714
 6290W        W10034   9.554   1.943  10.482
 6291W        W10035   9.088   7.634  11.901
 6292W        W10036   9.378   8.418   1.262
 6293W        W10037   1.333   8.020   1.429
 6294W        W10038   4.415   9.058   2.983
 6295W        W10039   6.741   1.358  11.029
 6296W        W10040   0.414   3.727   2.062
 6297W        W10041   9.357   6.708   8.964
 6298W        W10042  10.446   2.268  11.562
 6299W        W10043   1.603   0.819  11.890
 6300W        W10044   5.211   3.330  10.292
 6301W        W10045   3.787   7.392  11.885
 6302W        W10046  10.479   3.592  10.439
 6303W        W10047   1.922   0.052   0.051
 6304W        W10048   7.434   1.670   0.270
 6305W        W10049   7.420   9.289   0.675
 6306W        W10050  10.447   9.622   9.097
 6307W        W10051   7.827   6.963   2.424
 6308W        W10052   2.642   1.626   3.149
 6309W        W10053   7.032   0.682   2.099
 6310W        W10054  10.221   4.658   9.533
 6311W        W10055   7.951   5.650  11.291
 6312W        W10056   5.696   0.775   2.015
 6313W        W10057  10.079   5.695   8.540
 6314W        W10058   1.733   1.194  10.367
 6315W        W10059   9.432   1.600  11.814
 6316W        W10060   8.164   4.546  11.680
 6317W        W10061   1.611   8.969  10.963
 6318W        W10062   7.358   4.328  10.481
 6319W        W10063  10.478   1.904   0.978
 6320W        W10064   2.388   9.090   9.541
 6321W        W10065   6.774   5.082  10.610
 6322W        W10066   7.433   3.625  10.948
 6323W        W10067   8.906   7.492  11.420
 6324W        W10068   7.879   5.077   9.577
 6325W        W10069   7.440   4.220   2.174
 6326W        W10070   1.923   8.429   0.836
 6327W        W10071   4.556   0.698   9.555
 6328W        W10072   9.954   1.778  11.959
 6329W        W10073   3.706   9.098   9.534
 6330W        W10074   2.211   9.943  10.080
 6331W        W10075   4.828   1.762   2.454
 6332W        W10076   9.049   3.704   0.761
 6333W        W10077   0.408   3.160   1.959
 6334W        W10078  10.462   5.070   0.083
 6335W        W10079   8.885   6.478  11.209
 6336W        W10080   8.830   8.493   8.904
 6337W        W10081   1.469   7.006   2.276
 6338W        W10082   2.638   7.347   8.183
 6339W        W10083   0.297   7.654  11.383
 6340W        W10084   2.229  10.227   0.299
 6341W        W10085   4.073   1.794   1.722
 6342W        W10086   5.655   2.145   2.377
 6343W        W10087   7.567   7.496   9.435
 6344W        W10088   5.089   2.110   9.025
 6345W        W10089   9.039   6.200  11.985
 6346W        W10090   5.319   6.769   3.593
 6347W        W10091   9.326   3.859   9.622
 6348W        W10092   5.357   4.757  10.627
 6349W        W10093   2.194   9.826   1.934
 6350W        W10094   3.467   6.637   1.836
 6351W        W10095   6.645   3.272   9.633
 6352W        W10096   6.019   0.729   9.050
 6353W        W10097   1.654   1.831   3.352
 6354W        W10098   4.375  10.443   8.640
 6355W        W10099   4.606   7.618  11.960
 6356W        W10100   2.254   6.475  11.108
 6357W        W10101   1.009  10.438  11.062
 6358W        W10102   2.192   2.043  11.634
 6359W        W10103   2.377   3.318   1.835
 6360W        W10104   6.484   2.093   3.467
 6361W        W10105   5.102   6.912   1.839
 6362W        W10106   5.440   2.560   0.823
 6363W        W10107   1.882   6.704   8.826
 6364W        W10108   5.590   9.750   0.464
 6365W        W10109   1.872   2.304   1.864
 6366W        W10110   6.488   4.037  11.367
 6367W        W10111   5.048  10.368  10.278
 6368W        W10112   7.982   4.605   3.448
 6369W        W10113   8.545   3.215   8.725
 6370W        W10114   1.326  10.383   8.775
 6371W        W10115  10.346  10.032   9.590
 6372W        W10116   0.815   0.736   2.694
 6373W        W10117   5.943   9.090   1.215
 6374W        W10118   4.296   0.523   0.208
 6375W        W10119   1.070   4.685  10.980
 6376W        W10120   7.568   6.379  10.879
 6377W        W10121   0.452   5.646  10.513
 6378W        W10122   7.693   5.768   3.133
 6379W        W10123   3.996   9.599   2.451
 6380W        W10124   1.801   5.077   0.414
 6381W        W10125   1.570   7.582   9.085
 6382W        W10126   6.171   2.797   1.678
 6383W        W10127   3.186  10.192  10.010
 6384W        W10128   6.631   8.874  10.539
 6385W        W10129   8.839  10.410   3.329
 6386W        W10130   6.259   7.063   2.304
 6387W        W10131   1.412   2.275   3.270
 6388W        W10132   8.783  10.002  10.006
 6389W        W10133   1.578   1.190   0.387
 6390W        W10134   3.634   8.980   0.076
 6391W        W10135   5.933   7.173   8.683
 6392W        W10136   8.313   4.161  11.373
 6393W        W10137   7.581   6.926  10.917
 6394W        W10138   0.020   8.398   9.622
 6395W        W10139   8.301   0.955   2.475
 6396W        W10140   9.782   7.604  11.418
 6397W        W10141  10.240   2.240   9.549
 6398W        W10142   3.952   0.931   8.502
 6399W        W10143   6.571   0.432  11.041
 6400W        W10144   7.550   1.799   8.964
 6401W        W10145   8.469   1.792   9.114
 6402W        W10146   2.689   6.097  11.540
 6403W        W10147   0.862   6.988   3.034
 6404W        W10148  10.242   5.365   2.858
 6405W        W10149   3.580   0.966   9.613
 6406W        W10150   9.939   4.954   1.719
 6407W        W10151   8.129   7.089   9.953
 6408W        W10152   7.278   8.733  11.274
 6409W        W10153   1.898  10.015  11.967
 6410W        W10154   7.952   7.626   8.063
 6411W        W10155   4.614   8.498  10.827
 6412W        W10156   3.048   8.522   1.837
 6413W        W10157   9.784   6.489   2.721
 6414W        W10158   0.817   3.773  10.353
 6415W        W10159   1.342   6.735   1.307
 6416W        W10160   5.219   1.395   0.501
 6417W        W10161  10.402   4.161   0.285
 6418W        W10162   0.706   1.690  11.163
 6419W        W10163   3.673   4.602  10.274
 6420W        W10164   4.398   2.359   9.837
 6421W        W10165   3.930   2.298   3.098
 6422W        W10166   1.164   6.665  10.265
 6423W        W10167   8.832   7.982   8.831
 6424W        W10168   0.632   8.003   9.974
 6425W        W10169   8.518  10.016   9.249
 6426W        W10170   1.309   8.725   0.587
 6427W        W10171   5.553   2.863   8.674
 6428W        W10172   4.379   8.062   1.466
 6429W        W10173   8.262   3.264   2.948
 6430W        W10174  10.365   5.169   1.516
 6431W        W10175   3.551   1.825   1.713
 6432W        W10176   0.937   6.932  11.582
 6433W        W10177   8.328   2.149   0.817
 6434W        W10178   4.611   5.992  10.948
 6435W        W10179   8.297   8.887  11.364
 6436W        W10180   1.835   9.916   2.651
 6437W        W10181   7.195   1.353  10.796
 6438W        W10182   4.622   9.623   1.844
 6439W        W10183   7.623   0.047   2.682
 6440W        W10184   6.942   6.303   0.490
 6441W        W10185   2.978   6.419   0.230
 6442W        W10186   5.124   7.166   3.326
 6443W        W10187   4.260  10.329  10.943
 6444W        W10188   0.679  10.475   2.335
 6445W        W10189   5.334   8.803   2.900
 6446W        W10190   5.998   4.192   8.388
 6447W        W10191   3.347   0.512   9.089
 6448W        W10192   0.847   4.350   1.211
 6449W        W10193   1.679   1.346  11.865
 6450W        W10194   0.539   6.646  11.455
 6451W        W10195   0.498   2.431   9.472
 6452W        W10196   8.125  10.045  11.767
 6453W        W10197   5.127   2.853  10.433
 6454W        W10198  10.474   3.793  10.942
 6455W        W10199   8.039   1.946   1.373
 6456W        W10200   6.727   2.711  10.860
 6457W        W10201   2.302   8.079   0.945
 6458W        W10202   3.180   6.622  10.803
 6459W        W10203   1.860   9.059  11.431
 6460W        W10204   6.692   9.844  10.929
 6461W        W10205   4.234   2.007  11.602
 6462W        W10206   1.640   7.011   0.499
 6463W        W10207   8.957   3.127  11.532
 6464W        W10208   1.349   0.240   1.427
 6465W        W10209   4.666   3.556   3.946
 6466W        W10210   2.291   8.769  11.344
 6467W        W10211   2.794   2.367   1.937
 6468W        W10212   1.403   5.703   0.932
 6469W        W10213   9.133   4.158  10.023
 6470W        W10214   9.838   2.354   9.256
 6471W        W10215   0.554   2.742  10.524
 6472W        W10216   0.864   2.172   2.726
 6473W        W10217   0.931   5.707   2.222
 6474W        W10218   4.858   8.640   1.191
 6475W        W10219   7.576   0.465   1.751
 6476W        W10220   2.155   6.022   0.850
 6477W        W10221   9.355   6.887   9.494
 6478W        W10222   7.001   9.753   9.512
 6479W        W10223   3.268   5.762   1.340
 6480W        W10224   8.434   4.111   1.853
 6481W        W10225   2.281   0.960   9.156
 6482W        W10226   2.409   4.540  10.812
 6483W        W10227   1.801   9.500  11.872
 6484W        W10228   4.361   8.447   8.575
 6485W        W10229   6.037   2.562   2.739
 6486W        W10230   7.265   0.387  10.922
 6487W        W10231   0.165  10.260   1.395
 6488W        W10232   0.255  10.201   2.164
 6489W        W10233   1.331   4.759   0.657
 6490W        W10234   8.074   9.772   1.879
 6491W        W10235   8.890   2.996   1.958
 6492W        W10236   7.437   9.483   1.163
 6493W        W10237   6.247   9.625   9.566
 6494W        W10238   3.590   9.368   9.950
 6495W        W10239   1.678   2.451   1.356
 6496W        W10240   7.365   7.068   9.641
 6497W        W10241   4.273   7.469   9.474
 6498W        W10242   1.914   7.243   2.411
 6499W        W10243   6.405   7.399   0.883
 6500W        W10244   1.388   9.354   8.755
 6501W        W10245   4.605   4.127   1.723
 6502W        W10246   6.648   9.514   9.868
 6503W        W10247   0.508   5.542   3.320
 6504W        W10248   2.282  10.312  11.778
 6505W        W10249   6.036   1.385   1.448
 6506W        W10250   6.205   5.201   0.515
 6507W        W10251   5.279   6.117   8.246
 6508W        W10252   0.904   3.872  11.268
 6509W        W10253   3.061   7.557   1.399
 6510W        W10254   7.518   5.274  11.919
 6511W        W10255   5.717   1.287  11.280
 6512W        W10256   7.850   2.222   1.827
 6513W        W10257   4.504   7.698   3.219
 6514W        W10258   3.809   4.532  10.781
 6515W        W10259   9.547   5.659  10.642
 6516W        W10260   5.988   2.179   1.796
 6517W        W10261   2.149   7.508   9.063
 6518W        W10262   0.184   7.350   1.538
 6519W        W10263   1.986   6.041   0.347
 6520W        W10264   5.665   4.360  10.519
 6521W        W10265   2.229   8.185   3.072
 6522W        W10266   7.483   1.394   2.176
 6523W        W10267   2.392   3.259   8.892
 6524W        W10268   6.426   5.699   1.395
 6525W        W10269   5.112   9.957   0.443
 6526W        W10270   4.640   2.343   2.356
 6527W        W10271  10.049   9.555   0.695
 6528W        W10272   4.157   7.711   2.363
 6529W        W10273   8.987   6.707   9.801
 6530W        W10274   7.883   8.462  10.381
 6531W        W10275   8.137   3.656   1.918
 6532W        W10276   8.348   5.256  11.374
 6533W        W10277   3.291   2.287   1.825
 6534W        W10278   0.341   9.469  11.727
 6535W        W10279   5.966   3.306   0.428
 6536W        W10280   3.833   6.556   1.455
 6537W        W10281   5.595   7.549   2.374
 6538W        W10282   7.468   6.053   0.331
 6539W        W10283   6.557   9.853  10.276
 6540W        W10284   7.389   0.658   0.313
 6541W        W10285   0.836   7.334   1.743
 6542W        W10286   5.079   3.741   3.683
 6543W        W10287   1.005   9.469   0.890
 6544W        W10288   5.041   5.146   2.415
 6545W        W10289   5.162   6.536   3.145
 6546W        W10290   4.754   6.254  11.389
 6547W        W10291   9.152   7.450   3.894
 6548W        W10292  10.316   4.120  11.732
 6549W        W10293   3.580   2.703   9.005
 6550W        W10294   2.104   5.125   0.831
 6551W        W10295   6.997   0.666   3.515
 6552W        W10296   1.772  10.020   3.162
 6553W        W10297   6.704   1.714  11.452
 6554W        W10298   1.147   5.141  10.772
 6555W        W10299   9.981   0.776   2.693
 6556W        W10300   0.681   9.323   3.234
 6557W        W10301   6.101   9.160  10.510
 6558W        W10302   7.414   1.172   0.338
 6559W        W10303   9.904   2.665   1.319
 6560W        W10304   9.734   4.274   2.641
 6561W        W10305   9.077   6.535   1.646
 6562W        W10306   8.849   3.108   2.984
 6563W        W10307   3.719   2.286   9.253
 6564W        W10308   1.284   6.257   9.955
 6565W        W10309   0.280  10.044   2.636
 6566W        W10310   8.922   0.751   8.490
 6567W        W10311   8.484   3.192  11.392
 6568W        W10312  10.369   0.400  10.476
 6569W        W10313   5.080   5.081   2.919
 6570W        W10314   6.466   0.869   9.816
 6571W        W10315   9.401   9.027   9.239
 6572W        W10316   8.955   5.517  10.236
 6573W        W10317  10.486   7.157  11.737
 6574W        W10318   3.854   1.890   2.182
 6575W        W10319   4.413   8.217   3.178
 6576W        W10320   7.933   8.379   1.202
 6577W        W10321   5.575   2.753   2.942
 6578W        W10322   5.193   4.007  11.248
 6579W        W10323   7.982   7.885   0.348
 6580W        W10324   7.172   9.682  11.020
 6581W        W10325   7.608   4.941   2.759
 6582W        W10326   5.684  10.424   9.455
 6583W        W10327   0.037   7.655   1.117
 6584W        W10328   6.210   1.583  11.512
 6585W        W10329   0.484   9.274   9.640
 6586W        W10330   0.480  10.412   1.758
 6587W        W10331   5.631   2.301   3.432
 6588W        W10332   8.321   4.957   3.393
 6589W        W10333   0.842   4.846   1.002
 6590W        W10334   4.609   1.295   3.145
 6591W        W10335   5.526   0.860   8.999
 6592W        W10336   5.115   7.578   4.020
 6593W        W10337   6.132   1.943   2.286
 6594W        W10338   2.219   2.431   2.848
 6595W        W10339   5.264   1.881   3.393
 6596W        W10340   8.659   6.937   0.202
 6597W        W10341   9.459   0.477   2.769
 6598W        W10342   9.392   3.082  11.777
 6599W        W10343   0.900   4.178   8.414
 6600W        W10344   4.786   5.600   0.801
 6601W        W10345   2.308   7.943   9.306
 6602W        W10346   5.021   5.617   2.169
 6603W        W10347  10.025   7.896  11.738
 6604W        W10348  10.221   8.693   8.726
 6605W        W10349   6.698   8.064   0.970
 6606W        W10350   1.277   9.450   9.773
 6607W        W10351   0.667   4.315  10.351
 6608W        W10352   5.606   3.082   4.072
 6609W        W10353   1.488   6.307  10.458
 6610W        W10354   8.180   4.180   8.171
 6611W        W10355   6.916   4.794  11.372
 6612W        W10356   0.094   8.785   1.204
 6613W        W10357   7.676   4.104   8.851
 6614W        W10358   9.048   5.274   1.486
 6615W        W10359   0.915   9.340   8.966
 6616W        W10360   6.931   8.920   2.343
 6617W        W10361   3.074   3.714   8.780
 6618W        W10362   4.124   2.628  10.154
 6619W        W10363   4.344   1.910   2.347
 6620W        W10364   0.285   9.099   2.953
 6621W        W10365   1.844   4.139  11.242
 6622W        W10366   9.294   7.038   0.953
 6623W        W10367   6.119   0.414   1.982
 6624W        W10368   7.459   3.781   1.200
 6625W        W10369   0.769   8.127   1.528
 6626W        W10370   5.580   3.871  10.503
 6627W        W10371  10.288   8.682   9.239
 6628W        W10372   8.084  10.303   2.731
 6629W        W10373   2.310   5.280   9.090
 6630W        W10374   8.558   6.120  11.822
 6631W        W10375   4.761   7.907   1.825
 6632W        W10376   2.374   4.991   8.625
 6633W        W10377   0.319   2.135  10.299
 6634W        W10378   6.421   6.529   9.379
 6635W        W10379   6.096  10.193  10.413
 6636W        W10380   8.889   0.378   9.654
 6637W        W10381   1.882   7.857   3.248
 6638W        W10382   2.613   6.049   2.377
 6639W        W10383   5.213   2.906   1.113
 6640W        W10384   2.806   1.505  11.199
 6641W        W10385   3.513   1.018  10.962
 6642W        W10386   5.516   3.851   3.444
 6643W        W10387  10.059   3.403  11.790
 6644W        W10388   3.077   8.982   1.242
 6645W        W10389   1.690   8.046  10.981
 6646W        W10390   8.776   5.965  10.461
 6647W        W10391   7.979   5.893   9.983
 6648W        W10392   3.532   1.898  11.047
 6649W        W10393   5.285   9.046   3.404
 6650W        W10394   9.340   9.868  11.643
 6651W        W10395   4.979   9.712   9.498
 6652W        W10396   3.386   5.945  11.350
 6653W        W10397   8.493   0.984  10.012
 6654W        W10398   5.251   2.626  10.926
 6655W        W10399   7.980   9.881   1.341
 6656W        W10400   4.886   7.795   2.759
 6657W        W10401   1.418   1.338  10.791
 6658W        W10402   4.232   8.730   2.222
 6659W        W10403   6.523   2.737   0.402
 6660W        W10404   2.244   5.617  10.962
 6661W        W10405   5.989   5.165  10.640
 6662W        W10406   1.460   9.729   0.839
 6663W        W10407   7.359   2.848   3.237
 6664W        W10408   1.906   5.392   1.240
 6665W        W10409   4.587   9.465  11.445
 6666W        W10410  10.093   0.007  10.981
 6667W        W10411   7.412   0.331  11.825
 6668W        W10412   3.678   5.856  10.946
 6669W        W10413   0.801   0.840   1.733
 6670W        W10414   3.955   1.830   2.691
 6671W        W10415  10.077   3.642   9.393
 6672W        W10416   9.447   6.009  11.762
 6673W        W10417   4.011   0.108   0.350
 6674W        W10418   7.956   9.236   1.851
 6675W        W10419   7.496   3.553  11.472
 6676W        W10420   6.213   4.712   2.565
 6677W        W10421  10.206   7.432   1.446
 6678W        W10422   8.030   1.301  10.625
 6679W        W10423   6.706   3.901   2.783
 6680W        W10424   2.620   9.952  10.470
 6681W        W10425   9.413   2.033   9.588
 6682W        W10426   0.207   0.648   1.823
 6683W        W10427   8.933   6.069   1.828
 6684W        W10428   4.614   5.956   9.845
 6685W        W10429   7.044   6.051   2.626
 6686W        W10430   1.465   6.270   9.482
 6687W        W10431   2.810   1.889   2.187
 6688W        W10432   7.304   2.338  10.269
 6689W        W10433   3.335   6.308  10.426
 6690W        W10434   0.813   4.087  10.776
 6691W        W10435   9.695   5.888   9.087
 6692W        W10436   8.547   6.584   2.845
 6693W        W10437   2.157   0.473   1.787
 6694W        W10438   9.386  10.285   1.649
 6695W        W10439   9.807   8.155   1.221
 6696W        W10440   6.336   9.125   9.643
 6697W        W10441   3.189   8.771   8.766
 6698W        W10442   1.742   2.671   2.746
 6699W        W10443   9.330   8.479   0.761
 6700W        W10444   4.300   0.249   3.223
 6701W        W10445   2.205   5.242   2.384
 6702W        W10446   1.763   0.703   9.827
 6703W        W10447   3.066   2.272  11.615
 6704W        W10448   2.562   4.020   8.493
 6705W        W10449   8.009   9.581  11.925
 6706W        W10450   5.049   0.793  10.415
 6707W        W10451   9.311   3.031   2.303
 6708W        W10452   1.423   8.414   9.788
 6709W        W10453   2.682   4.160   1.006
 6710W        W10454  10.373   1.272   9.483
 6711W        W10455   7.153   0.245   2.619
 6712W        W10456   1.379   6.970  11.224
 6713W        W10457   5.895   5.717   1.963
 6714W        W10458   2.719   7.017   1.318
 6715W        W10459   2.187   1.448  10.458
 6716W        W10460   4.947   4.587  11.969
 6717W        W10461   4.259   3.295   9.486
 6718W        W10462   8.067   0.186  10.081
 6719W        W10463   8.971   8.378   1.556
 6720W        W10464   6.664   2.746   1.457
 6721W        W10465   4.372   8.763   0.366
 6722W        W10466   2.384   9.006   2.520
 6723W        W10467   1.305   0.917   1.632
 6724W        W10468   7.134   5.697  11.112
 6725W        W10469   8.372   2.373   3.021
 6726W        W10470  10.167  10.461   9.321
 6727W        W10471   1.176   9.552   2.602
 6728W        W10472   2.636   2.853   9.905
 6729W        W10473   3.356   7.615  10.783
 6730W        W10474   0.987   1.074   9.746
 6731W        W10475   3.875   8.712   0.429
 6732W        W10476   6.082  10.183  11.823
 6733W        W10477   5.243   9.053   2.467
 6734W        W10478   5.171   2.383   2.245
 6735W        W10479   7.067   6.176   1.828
 6736W        W10480   1.345   0.307   3.270
 6737W        W10481   4.977   7.635   3.517
 6738W        W10482   5.207   5.678   9.821
 6739W        W10483   7.699   3.275   3.627
 6740W        W10484  10.171   0.309   2.148
 6741W        W10485   6.524   9.264   1.558
 6742W        W10486   5.096   9.980   9.956
 6743W        W10487   3.793   0.513   1.491
 6744W        W10488   5.726   5.046   0.003
 6745W        W10489   4.182   1.902   9.746
 6746W        W10490   8.055   5.237   0.686
 6747W        W10491   2.176   4.283   8.962
 6748W        W10492   7.056   3.306   9.912
 6749W        W10493   7.014   0.591   9.094
 6750W        W10494   5.659   7.335  10.094
 6751W        W10495   5.925   0.892  11.005
 6752W        W10496   4.970   7.062   8.529
 6753W        W10497   1.749   0.479   3.491
 6754W        W10498   5.523   5.999  11.890
 6755W        W10499   7.466   5.932   9.879
 6756W        W10500   9.249   4.168   9.113
 6757W        W10501   4.763   2.750   3.628
 6758W        W10502   5.131   5.154   3.426
 6759W        W10503   3.426   3.309   0.328
 6760W        W10504   0.884   4.577   9.964
 6761W        W10505   2.838   6.199  10.007
 6762W        W10506   8.296   5.062  10.526
 6763W        W10507   2.340   9.453   1.111
 6764W        W10508   6.207   0.819   3.171
 6765W        W10509   7.955   4.058   1.643
 6766W        W10510   1.785   7.412   3.534
 6767W        W10511   8.915   8.958   9.113
 6768W        W10512   5.159   4.007   1.915
 6769W        W10513  10.246   0.041  11.858
 6770W        W10514   7.934   6.105   0.512
 6771W        W10515   1.856   4.661   1.893
 6772W        W10516   9.938   8.591   2.018
 6773W        W10517   0.576   5.496   9.289
 6774W        W10518   4.033   2.758  11.005
 6775W        W10519   4.719   1.540   9.417
 6776W        W10520   8.746   0.014  10.012
 6777W        W10521   1.302   5.945   9.092
 6778W        W10522   0.421   3.971  11.471
 6779W        W10523   1.306   7.504   1.666
 6780W        W10524   8.036   2.788   9.236
 6781W        W10525   4.940   1.010  10.858
 6782W        W10526   4.089  10.410  10.446
 6783W        W10527   2.686   2.901   1.736
 6784W        W10528   3.214   3.632   9.291
 6785W        W10529   3.696   3.101   2.683
 6786W        W10530   6.604   7.999  10.757
 6787W        W10531   0.280   5.017   2.353
 6788W        W10532   7.021   6.440   2.277
 6789W        W10533   8.316   8.421  10.084
 6790W        W10534   0.428   3.739   9.030
 6791W        W10535   9.711   2.316  10.806
 6792W        W10536   2.221   2.937  10.192
 6793W        W10537   0.738   4.878  11.317
 6794W        W10538   2.283   1.960   2.616
 6795W        W10539   0.998   5.444   2.694
 6796W        W10540   3.603   5.331   1.273
 6797W        W10541   5.693   0.486   8.677
 6798W        W10542   5.622   0.400  10.156
 6799W        W10543   5.545   7.996   0.772
 6800W        W10544   5.244   0.772   1.157
 6801W        W10545   1.293   4.635   1.159
 6802W        W10546   1.438   6.602   0.812
 6803W        W10547   5.606   8.563   9.172
 6804W        W10548   4.298   2.217   2.759
 6805W        W10549   9.582   5.124  11.841
 6806W        W10550   0.703   0.321   0.956
 6807W        W10551   9.462   1.408   0.631
 6808W        W10552   6.431   3.675   9.417
 6809W        W10553   5.033   8.176   2.365
 6810W        W10554   9.520   1.377   3.008
 6811W        W10555   3.291   7.395   0.717
 6812W        W10556   7.964   3.830   8.517
 6813W        W10557   5.770   1.822   3.596
 6814W        W10558   8.438   0.818  10.537
 6815W        W10559   0.188   2.042   9.363
 6816W        W10560   3.832   7.606   8.939
 6817W        W10561   0.975   6.603  11.200
 6818W        W10562   6.366   8.782   1.661
 6819W        W10563   7.093   8.176  11.030
 6820W        W10564   0.306   9.753   9.576
 6821W        W10565   8.373   4.608   9.870
 6822W        W10566   2.090  10.389   2.685
 6823W        W10567   5.554   1.674  10.026
 6824W        W10568   0.453   0.035   3.166
 6825W        W10569   5.072   7.467   0.062
 6826W        W10570   2.663  10.338   9.501
 6827W        W10571   3.739   7.156   0.336
 6828W        W10572   4.032   5.687   1.374
 6829W        W10573   4.061   5.791   0.548
 6830W        W10574   1.398   0.452   8.642
 6831W        W10575   4.729   8.593   3.033
 6832W        W10576   9.045   5.383   2.347
 6833W        W10577   4.737   6.462   9.926
 6834W        W10578   8.495   9.854   1.539
 6835W        W10579   1.396   4.686   2.676
 6836W        W10580   1.692   5.506  10.181
 6837W        W10581   6.357   4.647   1.011
 6838W        W10582   3.031   7.695   8.152
 6839W        W10583   7.357   6.179   1.281
 6840W        W10584   6.895   1.309   9.344
 6841W        W10585   0.866   8.815  11.396
 6842W        W10586   3.060   0.297  11.329
 6843W        W10587   5.102   5.222  10.601
 6844W        W10588   3.485   0.018   2.337
 6845W        W10589   3.714  10.384   1.213
 6846W        W10590   8.975   2.718   9.730
 6847W        W10591   7.052   9.419   0.346
 6848W        W10592   7.662   8.397   1.912
 6849W        W10593   2.828   6.416   0.713
 6850W        W10594   5.727   0.923   3.543
 6851W        W10595   3.128   5.520   9.240
 6852W        W10596   6.196   3.463  10.348
 6853W        W10597   2.156   6.308   2.348
 6854W        W10598   6.481   9.718   0.598
 6855W        W10599   1.844   3.605   3.216
 6856W        W10600   2.670   9.993   0.402
 6857W        W10601   1.773   0.904  10.816
 6858W        W10602   4.182   1.454   1.320
 6859W        W10603   3.492   9.038  11.611
 6860W        W10604   1.063   2.738  10.699
 6861W        W10605   0.772   5.986   9.042
 6862W        W10606   0.546   8.700   0.444
 6863W        W10607   7.674   7.886   1.931
 6864W        W10608   8.946   9.356   2.982
 6865W        W10609   6.315   7.565   2.167
 6866W        W10610   0.413   6.395   1.325
 6867W        W10611   9.790   4.939   0.277
 6868W        W10612  10.255  10.049  10.406
 6869W        W10613   6.490   3.192   0.041
 6870W        W10614   0.697   1.279   2.356
 6871W        W10615   6.923   2.209   2.713
 6872W        W10616   6.729   5.231   2.170
 6873W        W10617   7.899   8.405   8.717
 6874W        W10618   3.272   4.465   0.824
 6875W        W10619   0.788   6.320   0.323
 6876W        W10620   1.501   2.454   0.581
 6877W        W10621   7.075   4.744   8.632
 6878W        W10622   6.829   7.074  10.435
 6879W        W10623   1.417   6.421   8.974
 6880W        W10624   2.346   8.977   2.006
 6881W        W10625   9.801   4.241   1.232
 6882W        W10626   9.557   8.465   9.938
 6883W        W10627   8.814   0.427  11.124
 6884W        W10628   2.090   6.890  10.516
 6885W        W10629   3.862   5.723  11.427
 6886W        W10630   1.989   7.640  10.905
 6887W        W10631   9.860   8.359   0.742
 6888W        W10632   4.505   4.534   1.989
 6889W        W10633   4.901  10.435   2.512
 6890W        W10634   9.721   7.917   9.817
 6891W        W10635   7.699   1.336  11.939
 6892W        W10636   7.584   9.143  10.241
 6893W        W10637  10.389   2.499   1.439
 6894W        W10638   0.487   0.718  10.455
 6895W        W10639   2.120   6.479   0.122
 6896W        W10640   4.152   9.773   1.986
 6897W        W10641   8.008   8.849  10.076
 6898W        W10642   2.244   6.904  11.494
 6899W        W10643   7.081   4.484   2.412
 6900W        W10644   4.620   4.088   2.745
 6901W        W10645   8.980   0.328   2.821
 6902W        W10646   9.028   1.838   1.208
 6903W        W10647   9.431   2.738  10.889
 6904W        W10648   0.353   7.133  11.391
 6905W        W10649   6.991   3.627   1.065
 6906W        W10650   3.038   0.204   8.807
 6907W        W10651   9.842   9.963   2.371
 6908W        W10652   9.601   8.166   9.371
 6909W        W10653   5.032   4.107   1.444
 6910W        W10654   9.715   9.229   0.869
 6911W        W10655   6.523   1.239   0.387
 6912W        W10656   1.406   7.366   0.152
 6913W        W10657  10.117   9.057   2.191
 6914W        W10658  10.416   6.941   1.698
 6915W        W10659   2.510   0.510   8.992
 6916W        W10660   0.417   1.201   1.820
 6917W        W10661   3.336   7.571  11.761
 6918W        W10662   8.773   0.821   2.358
 6919W        W10663   4.094   4.543   3.207
 6920W        W10664   8.778   1.171   3.561
 6921W        W10665   2.800   5.549   1.244
 6922W        W10666   8.480   6.193  10.822
 6923W        W10667   9.425   7.507   1.752
 6924W        W10668   1.696   5.073  10.451
 6925W        W10669   5.556   2.260  11.698
 6926W        W10670   2.718  10.434  10.035
 6927W        W10671   9.047   9.016   9.637
 6928W        W10672   7.218   4.095   3.788
 6929W        W10673   3.891   1.070  11.356
 6930W        W10674   2.620   1.638  10.709
 6931W        W10675   0.669   5.812   2.875
 6932W        W10676   7.628   9.126   1.496
 6933W        W10677   5.999   9.905   8.593
 6934W        W10678   6.810   6.171   3.085
 6935W        W10679   6.388   2.342   9.355
 6936W        W10680   6.325   4.342  10.022
 6937W        W10681   7.160   0.919  10.486
 6938W        W10682   7.895   0.850  11.232
 6939W        W10683   3.125   3.215   1.168
 6940W        W10684   8.371   1.386   1.702
 6941W        W10685   9.114   0.787  11.931
 6942W        W10686   7.908   1.262   0.989
 6943W        W10687   5.309   5.640   0.681
 6944W        W10688   4.550   5.148   0.618
 6945W        W10689   9.685   3.173  10.667
 6946W        W10690   3.869   4.901   1.374
 6947W        W10691   8.815   0.407  11.628
 6948W        W10692   2.603   2.482   1.294
 6949W        W10693   9.429  10.022   1.191
 6950W        W10694   5.251   7.002  12.000
 6951W        W10695   5.828   6.803   3.700
 6952W        W10696   9.424   2.930   9.899
 6953W        W10697   9.034   4.052  11.887
 6954W        W10698   6.912   2.422   0.767
 6955W        W10699   4.863   2.108   1.939
 6956W        W10700   2.469   8.338   8.258
 6957W        W10701   9.989   6.865  10.928
 6958W        W10702   1.750   7.662   1.509
 6959W        W10703   2.826   9.926  10.933
 6960W        W10704   1.104   7.189   1.334
 6961W        W10705   1.929   7.440   0.433
 6962W        W10706  10.195   3.145  10.346
 6963W        W10707   4.582   1.653  11.526
 6964W        W10708   3.555   6.355  11.040
 6965W        W10709   7.216   6.575   8.864
 6966W        W10710   2.357   8.728   0.405
 6967W        W10711   0.286   9.697   2.256
 6968W        W10712   2.331   7.473   0.762
 6969W        W10713   0.187   2.684  11.802
 6970W        W10714   6.040   8.200  11.990
 6971W        W10715   9.326   1.736  11.327
 6972W        W10716   5.030   0.526  10.974
 6973W        W10717   9.777   6.871   8.622
 6974W        W10718   1.704   7.848   0.273
 6975W        W10719   7.973   9.848   2.395
 6976W        W10720   4.773   1.594   8.322
 6977W        W10721  10.017   1.425   1.721
 6978W        W10722   6.428   8.026   9.811
 6979W        W10723  10.448   5.655  10.475
 6980W        W10724   7.088   9.924   1.263
 6981W        W10725   3.053   4.613   9.011
 6982W        W10726   5.317   2.875   2.076
 6983W        W10727   1.182   7.997   0.877
 6984W        W10728   8.979   3.983   2.904
 6985W        W10729   1.270   1.942  11.334
 6986W        W10730   7.099   1.160   2.442
 6987W        W10731   6.020   1.586   2.773
 6988W        W10732   5.731   9.069   3.116
 6989W        W10733   0.496   3.074   0.727
 6990W        W10734   8.603   2.270   1.576
 6991W        W10735   4.368   1.178   0.007
 6992W        W10736   8.939   7.025   8.957
 6993W        W10737   5.176   3.058   3.038
 6994W        W10738   5.815   1.390  11.777
 6995W        W10739   3.261   6.645   1.071
 6996W        W10740   0.449   7.549  10.089
 6997W        W10741   8.940   7.819   1.223
 6998W        W10742   0.552   0.901   3.161
 6999W        W10743   7.055   1.759   2.478
 7000W        W10744   0.177   9.911  11.410
 7001W        W10745   0.780   4.161   0.212
 7002W        W10746  10.439   2.925   2.137
 7003W        W10747   8.053   3.747  10.296
 7004W        W10748   7.019  10.368  10.380
 7005W        W10749   7.950   5.658  10.724
 7006W        W10750   7.676   3.596   0.346
 7007W        W10751   9.817   7.862   0.705
 7008W        W10752   3.271   9.282   0.289
 7009W        W10753   0.020   3.235  11.845
 7010W        W10754   9.498  10.020   0.285
 7011W        W10755   3.169   4.599   8.169
 7012W        W10756   3.413   4.455   3.164
 7013W        W10757   1.011   3.815   2.772
 7014W        W10758   9.173  10.330   9.795
 7015W        W10759   2.609   6.487   1.653
 7016W        W10760   1.415   9.774   1.376
 7017W        W10761   4.258   0.467   2.250
 7018W        W10762   9.995   6.699   1.427
 7019W        W10763   4.938   7.138   3.797
 7020W        W10764   3.843   9.034  11.222
 7021W        W10765   4.601   0.893   2.272
 7022W        W10766   0.666   9.995   9.952
 7023W        W10767   3.161   7.144  10.796
 7024W        W10768   5.772   4.671  10.923
 7025W        W10769   7.329   0.857   1.110
 7026W        W10770   4.696   6.469   0.800
 7027W        W10771   5.425   5.425   0.211
 7028W        W10772  10.330   0.813  10.200
 7029W        W10773   6.861  10.275   9.455
 7030W        W10774   3.801   1.442  10.893
 7031W        W10775   9.885   4.078   0.389
 7032W        W10776   2.833   6.681   9.817
 7033W        W10777   2.371   8.537  10.867
 7034W        W10778   9.781   3.600   0.765
 7035W        W10779   5.186   9.816   2.961
 7036W        W10780   9.213   7.425   3.399
 7037W        W10781   4.714   3.613   2.955
 7038W        W10782   9.829   6.376  10.920
 7039W        W10783   2.734   1.667   2.637
 7040W        W10784   0.363   3.586  10.095
 7041W        W10785   7.552   4.424   2.648
 7042W        W10786   2.163   2.892   2.008
 7043W        W10787   1.570   3.664   1.379
 7044W        W10788   8.975   8.354  10.836
 7045W        W10789   1.778   3.144  10.456
 7046W        W10790   7.299   3.358   3.298
 7047W        W10791   1.925   8.848   9.534
 7048W        W10792   7.356   4.537  11.523
 7049W        W10793   2.215   5.553   1.901
 7050W        W10794   8.081   1.582  11.046
 7051W        W10795   2.647   4.669  10.035
 7052W        W10796   2.937  10.230   1.708
 7053W        W10797   8.963   1.787   9.832
 7054W        W10798   6.090   3.293   9.419
 7055W        W10799  10.071   0.417   9.065
 7056W        W10800   6.161   0.638   3.637
 7057W        W10801  10.328   1.381  10.469
 7058W        W10802   3.583   9.937  11.540
 7059W        W10803   5.011   9.962  11.209
 7060W        W10804   7.563   5.045   1.856
 7061W        W10805   8.684   3.672   9.022
 7062W        W10806   6.271   0.824  10.342
 7063W        W10807   2.513   4.018   9.417
 7064W        W10808   8.520   3.357   0.002
 7065W        W10809   3.781   0.268   3.022
 7066W        W10810   9.713   0.351  10.809
 7067W        W10811   6.931   5.981  10.639
 7068W        W10812   0.882   3.840   1.848
 7069W        W10813   8.135   4.626  10.321
 7070W        W10814   1.296   3.811   2.340
 7071W        W10815   6.986   8.291   9.769
 7072W        W10816  10.043   1.820  10.441
 7073W        W10817  10.268   5.994   1.761
 7074W        W10818   5.878   0.692   2.790
 7075W        W10819   0.976   8.963   3.485
 7076W        W10820   4.086   4.090  10.793
 7077W        W10821   4.717   8.646   1.686
 7078W        W10822  10.469   3.831   3.189
 7079W        W10823   1.658   1.947   1.478
 7080W        W10824   6.637   6.260   4.036
 7081W        W10825   8.610   1.730   0.926
 7082W        W10826   0.164   0.852   0.563
 7083W        W10827   0.997   4.675   0.260
 7084W        W10828   0.153   2.170   2.315
 7085W        W10829   1.800   7.143  10.901
 7086W        W10830   8.925   7.463  10.333
 7087W        W10831   8.558   2.126  11.492
 7088W        W10832   6.545   0.979  11.938
 7089W        W10833   9.682   8.953  11.109
 7090W        W10834   2.788   9.555  11.664
 7091W        W10835   7.799   6.583   0.655
 7092W        W10836   8.491   3.708  11.550
 7093W        W10837   0.356   5.028   1.354
 7094W        W10838   3.672   4.106  11.073
 7095W        W10839   6.182   7.091  10.943
 7096W        W10840   0.809   2.209   1.744
 7097W        W10841   2.371   3.788   1.648
 7098W        W10842   0.633   1.959   3.544
 7099W        W10843   8.390   7.415  11.427
 7100W        W10844   7.596   3.749   2.053
 7101W        W10845   6.603   1.225  11.498
 7102W        W10846   2.805   7.341   2.882
 7103W        W10847   0.607   4.587  10.781
 7104W        W10848   0.789   0.939   8.715
 7105W        W10849   6.251   4.955   0.051
 7106W        W10850   3.964   2.097   0.022
 7107W        W10851   2.963  10.363   3.180
 7108W        W10852   5.807   0.454   3.234
 7109W        W10853   2.179   8.730   8.503
 7110W        W10854   1.488   1.196   3.212
 7111W        W10855   0.151   8.953  10.907
 7112W        W10856   1.097   0.883   3.103
 7113W        W10857   3.279   4.150   8.987
 7114W        W10858   8.620   1.346   0.335
 7115W        W10859   6.604   6.521   0.886
 7116W        W10860   7.397   2.263  10.875
 7117W        W10861   3.421  10.285   1.858
 7118W        W10862   9.343   1.826   0.265
 7119W        W10863   6.266   7.864   0.780
 7120W        W10864   2.696   0.557   0.202
 7121W        W10865   5.765   4.921   0.493
 7122W        W10866   6.413   8.978  10.998
 7123W        W10867   6.267   0.414   9.993
 7124W        W10868   3.137   9.303  11.393
 7125W        W10869   6.529  10.431   9.098
 7126W        W10870   6.841   4.339  10.088
 7127W        W10871  10.070   2.125   8.783
 7128W        W10872   7.566   2.221   9.296
 7129W        W10873   1.286   8.001   9.041
 7130W        W10874   8.588   1.280   8.952
 7131W        W10875   7.878   3.848   9.264
 7132W        W10876   4.279   1.812   9.241
 7133W        W10877  10.463   4.695   3.510
 7134W        W10878  10.015   1.882   2.497
 7135W        W10879   2.569   9.005   1.165
 7136W        W10880   3.702   7.595  10.278
 7137W        W10881   8.407   3.732   9.931
 7138W        W10882   2.862   2.397   9.851
 7139W        W10883  10.352   1.620   8.617
 7140W        W10884   6.582   1.950   2.041
 7141W        W10885   4.087   7.812   0.311
 7142W        W10886   0.804   3.298   8.992
 7143W        W10887   3.587   5.516   9.885
 7144W        W10888   1.771  10.411   9.536
 7145W        W10889   9.917   0.166   0.852
 7146W        W10890   6.011   0.918   8.572
 7147W        W10891   7.267   7.758  11.958
 7148W        W10892   6.751   2.689   2.305
 7149W        W10893   3.673   0.832  10.517
 7150W        W10894   2.267   8.165   3.564
 7151W        W10895   8.334   3.686   9.422
 7152W        W10896   7.915   3.228   2.109
 7153W        W10897   0.931   3.220   1.853
 7154W        W10898   7.432   8.638  10.491
 7155W        W10899   0.814   0.624   9.587
 7156W        W10900   9.081   1.943  10.309
 7157W        W10901   9.098   9.287   1.377
 7158W        W10902   4.327   2.886  10.532
 7159W        W10903   8.567   1.282   1.232
 7160W        W10904   6.976   2.641   3.521
 7161W        W10905   4.134   6.120   9.643
 7162W        W10906   2.307  10.321  11.269
 7163W        W10907   2.935   3.264   9.943
 7164W        W10908   9.028   1.268  11.726
 7165W        W10909   1.860   0.186  10.545
 7166W        W10910   1.092   2.661   3.396
 7167W        W10911   9.527   2.610  11.987
 7168W        W10912   7.130   4.187   2.845
 7169W        W10913   0.681   6.039  10.722
 7170W        W10914   6.533   1.933  11.915
 7171W        W10915   2.671   4.103  10.873
 7172W        W10916   8.292   6.979   2.617
 7173W        W10917   0.935   8.504   0.929
 7174W        W10918   1.417   0.281   9.553
 7175W        W10919   1.539   5.056   9.331
 7176W        W10920   4.080   4.336   0.561
 7177W        W10921   4.157   8.344   3.633
 7178W        W10922   6.455   6.080   9.775
 7179W        W10923   8.101   2.108   9.994
 7180W        W10924   3.223   8.950   2.467
 7181W        W10925   7.883   0.227   3.465
 7182W        W10926   3.104   3.732  10.019
 7183W        W10927   4.020  10.210  11.404
 7184W        W10928   1.173   5.926   2.861
 7185W        W10929   0.925   1.300   1.909
 7186W        W10930   8.808   8.560   9.444
 7187W        W10931   4.345   6.597   2.878
 7188W        W10932   7.510   6.091   8.864
 7189W        W10933   0.684   1.960   9.371
 7190W        W10934   3.781   0.969   1.748
 7191W        W10935   7.028   0.135   2.133
 7192W        W10936   5.829   2.897   2.074
 7193W        W10937   9.829   8.844   0.071
 7194W        W10938   1.814  10.176  10.514
 7195W        W10939   3.102   2.298   2.365
 7196W        W10940   0.664   1.353   0.060
 7197W        W10941   2.188   2.404   0.625
 7198W        W10942   7.458   4.141   9.332
 7199W        W10943   3.333   0.745  11.367
 7200W        W10944   2.615  10.382   2.674
 7201W        W10945   0.030   5.539   9.029
 7202W        W10946   4.968   1.697   2.977
 7203W        W10947   3.938   4.489   0.096
 7204W        W10948   9.314   4.546   2.359
 7205W        W10949   9.218  10.126  10.352
 7206W        W10950   9.375   0.915   0.411
 7207W        W10951   1.231   2.748   9.294
 7208W        W10952   2.585   4.216   1.888
 7209W        W10953   3.103   5.536   9.740
 7210W        W10954   2.888   8.963   9.539
 7211W        W10955   5.529   6.040  10.757
 7212W        W10956   7.732   7.823   9.816
 7213W        W10957   3.076   2.710   8.858
 7214W        W10958   5.061  10.399   8.723
 7215W        W10959   6.503  10.463   0.004
 7216W        W10960   3.826   3.168   9.762
 7217W        W10961   7.826   6.473   0.163
 7218W        W10962   6.052   2.188   8.472
 7219W        W10963   3.205   3.207  11.047
 7220W        W10964   4.755  10.150   9.362
 7221W        W10965   4.122   7.053   9.771
 7222W        W10966  10.312   9.904   2.736
 7223W        W10967   4.089   2.637   1.868
 7224W        W10968   0.523   0.853   2.166
 7225W        W10969   1.358   1.461   0.747
 7226W        W10970   2.038   1.796   1.790
 7227W        W10971   3.736  10.076   2.200
 7228W        W10972   5.637   4.871  11.403
 7229W        W10973   9.846   7.725   2.279
 7230ION    NA+10974   7.937   7.019   9.031
 7231ION    NA+10975   8.827  10.449  11.960
 7232ION    NA+10976   0.387   6.608   3.629
 7233ION    NA+10977   6.643   1.824   3.038
 7234ION    NA+10978  10.493   3.687  11.507
 7235ION    NA+10979   1.364   8.626   2.937
 7236ION    NA+10980   9.975   6.488   0.957
 7237ION    NA+10981   4.901   0.346   9.419
 7238ION    NA+10982   2.976   4.751   0.163
 7239ION    NA+10983   0.089   0.422   9.059
 7240ION    NA+10984   7.331   4.589   8.192
 7241ION    NA+10985   0.192   9.039   9.258
 7242ION    NA+10986   5.268   7.108  11.046
 7243ION    NA+10987   5.213   3.075   9.031
 7244ION    NA+10988   6.360   8.911  10.118
 7245ION    NA+10989   1.443   6.744   9.799
 7246ION    NA+10990   4.063   1.977  11.072
 7247ION    NA+10991   1.575   0.266   0.942
 7248ION    NA+10992   2.743   0.368  10.841
 7249ION    NA+10993   2.333   2.517   1.728
 7250ION    NA+10994   9.418   0.171   2.026
 7251ION    NA+10995   0.464   7.732   1.357
 7252ION    NA+10996   7.659   0.881   3.815
 7253ION    NA+10997   7.913   3.754   9.770
 7254ION    NA+10998   0.178   5.366  10.834
 7255ION    NA+10999   3.800   4.791  11.221
 7256ION    NA+11000   7.051   1.985   0.521
 7257ION    NA+11001   3.617   9.275   2.437
 7258ION    NA+11002   6.628   3.528   1.877
 7259ION    NA+11003   3.259   6.588   9.454
 7260ION    NA+11004   1.636   4.975   1.361
 7261ION    NA+11005  10.490  10.306   3.011
 7262ION    NA+11006   2.682   1.976  11.109
 7263ION    NA+11007   6.935  10.081   8.978
 7264ION    NA+11008   9.369   3.267   0.790
 7265ION    NA+11009   1.699   1.799  11.071
 7266ION    NA+11010   1.726   2.971   9.177
 7267ION    NA+11011   4.538   6.798   9.597
 7268ION    NA+11012   1.784   7.160  11.529
 7269ION    NA+11013   3.893   0.878   0.270
 7270ION    NA+11014   0.310   9.144   0.330
 7271ION    NA+11015   9.399   1.462  10.440
 7272ION    NA+11016   7.588   2.109  11.357
 7273ION    NA+11017   9.628   5.295   3.489
 7274ION    NA+11018   4.535   5.162   0.084
 7275ION    NA+11019   0.915   5.409   0.114
 7276ION    NA+11020  10.104   9.593   9.536
 7277ION    NA+11021   3.357   6.668   2.593
 7278ION    NA+11022   2.744   9.333   1.944
 7279ION    NA+11023   5.916   9.123  10.989
 7280ION    NA+11024   4.917   3.277   8.097
 7281ION    NA+11025   5.372   4.853   1.646
 7282ION    NA+11026   9.647   3.725  11.124
 7283ION    NA+11027   0.273   5.166   1.845
 7284ION    NA+11028   1.141  10.087  11.622
 7285ION    NA+11029   1.711   0.402  10.993
 7286ION    NA+11030   4.106   8.141   1.032
 7287ION    NA+11031   5.115   2.407   1.199
 7288ION    NA+11032   1.086   9.022  11.836
 7289ION    NA+11033   0.223   8.093   2.757
 7290ION    NA+11034   6.310   9.622   1.890
 7291ION    NA+11035   4.945   4.724   0.919
 7292ION    NA+11036   0.669   0.773   0.746
 7293ION    NA+11037   1.284  10.049   3.378
 7294ION    NA+11038   3.823   0.905  10.044
 7295ION    NA+11039   1.937   7.661   9.961
 7296ION    NA+11040   5.259   5.582  11.743
 7297ION    NA+11041   3.942   0.065   9.455
 7298ION    NA+11042   2.808   0.210   0.552
 7299ION    NA+11043   7.894   0.704   2.228
 7300ION    NA+11044   2.010   0.549   0.020
 7301ION    NA+11045   4.760   3.657   1.928
 7302ION    NA+11046   1.027   8.207  11.885
 7303ION    NA+11047   6.807   7.589   0.701
 7304ION    NA+11048   2.776   7.952   2.306
 7305ION    NA+11049   4.364   8.613   9.916
 7306ION    CL-11050   5.115   4.948   1.282
 7307ION    CL-11051   4.868   5.388  11.869
 7308ION    CL-11052   9.015   2.805  10.236
 7309ION    CL-11053   8.570   1.393   9.448
 7310ION    CL-11054  10.391   3.235   1.747
 7311ION    CL-11055   5.452   6.898   1.476
 7312ION    CL-11056   1.708  10.045   8.627
 7313ION    CL-11057   8.510   8.824   9.789
 7314ION    CL-11058   9.222   0.211  10.892
 7315ION    CL-11059   3.169   2.755   3.354
 7316ION    CL-11060   1.991   8.034   9.712
 7317ION    CL-11061   2.795   3.611   1.088
 7318ION    CL-11062   7.290  10.090   9.259
 7319ION    CL-11063   0.614   7.320   1.263
 7320ION    CL-11064   2.678   1.867  11.543
 7321ION    CL-11065   1.192   8.585  11.698
 7322ION    CL-11066   1.319   2.935  11.730
 7323ION    CL-11067   3.729   8.896   2.230
 7324ION    CL-11068   4.685   0.497   1.939
 7325ION    CL-11069   9.166   2.620   8.731
 7326ION    CL-11070   2.849   0.573   2.011
 7327ION    CL-11071   4.058   0.928   1.290
 7328ION    CL-11072   6.778   9.024  10.012
 7329ION    CL-11073   8.541   9.132   0.519
 7330ION    CL-11074   9.400   4.351   9.635
 7331ION    CL-11075   6.755   9.540   1.928
 7332ION    CL-11076   9.336   3.491  10.889
 7333ION    CL-11077   7.870   8.914  10.604
 7334ION    CL-11078   2.897   4.541   3.219
 7335ION    CL-11079   2.700   1.240   1.281
 7336ION    CL-11080   0.645   9.032   0.009
 7337ION    CL-11081   0.167   8.942   0.718
 7338ION    CL-11082   2.088   3.809   0.409
 7339ION    CL-11083   1.573   2.940   8.749
 7340ION    CL-11084   4.439   9.999  11.966
 7341ION    CL-11085   1.288   8.642   2.489
 7342ION    CL-11086   2.453   7.685   2.456
 7343ION    CL-11087   5.118   9.220   9.486
 7344ION    CL-11088   4.744   9.916  10.303
 7345ION    CL-11089   8.319   5.310   8.795
 7346ION    CL-11090   6.543   1.421   3.224
 7347ION    CL-11091  10.068   3.718  11.344
 7348ION    CL-11092   9.904   8.059   1.847
 7349ION    CL-11093   6.832   7.180   0.941
 7350ION    CL-11094   2.254   1.869   0.521
 7351ION    CL-11095   5.067   2.899   9.413
 7352ION    CL-11096  10.476   9.342   9.515
 7353ION    CL-11097   4.189   3.659   3.665
 7354ION    CL-11098   5.853   7.821   1.145
 7355ION    CL-11099   2.540   4.682   0.225
 7356ION    CL-11100   3.145   5.173   8.855
 7357ION    CL-11101   4.848   4.558  10.702
 7358ION    CL-11102   7.168   8.376   1.757
 7359ION    CL-11103   4.022   2.353  11.309
 7360ION    CL-11104   1.235   9.092  10.135
 7361ION    CL-11105   6.753   9.968   8.568
 7362ION    CL-11106   7.983   4.501   1.373
 7363ION    CL-11107   0.277   9.865   0.422
 7364ION    CL-11108   2.586   6.459  11.918
 7365ION    CL-11109   8.013   6.140   9.522
 7366ION    CL-11110   1.412   8.650   3.407
 7367ION    CL-11111   9.272   5.030   8.682
 7368ION    CL-11112   0.609   5.271  10.912
 7369ION    CL-11113   5.159   3.441   4.099
 7370ION    CL-11114   6.925   7.929   0.417
 7371ION    CL-11115   5.864   9.671   1.821
 7372ION    CL-11116   4.014   5.061  10.938
 7373ION    CL-11117   3.483   6.862   2.974
 7374ION    CL-11118   0.569   1.153   0.536
 7375ION    CL-11119   8.467   8.210  10.989
 7376ION    CL-11120   8.917   6.934  10.791
 7377ION    CL-11121   8.423  10.095   3.073
 7378ION    CL-11122   4.207   2.296   9.383
 7379ION    CL-11123   2.946   0.764   8.869
 7380ION    CL-11124   2.235   2.888   1.495
 7381ION    CL-11125   1.259   9.767  11.917
  10.50000  10.50000  12.00000
