Protein in INSANE! Membrane UpperLeaflet>POPC=1.0 LowerLeaflet>POPC=1.0
11530
    1AU     AUC    1   2.070   0.768   5.530  0.0262  0.0078 -0.0199
    1AU     AUC    2   1.942   0.466   5.560  0.0466 -0.0642 -0.0508
    1AU     AUC    3   1.746   0.730   5.624  0.0517  0.0286 -0.0074
    1AU     AUC    4   2.367   0.752   5.481 -0.1130  0.0453  0.0214
    1AU     AUC    5   2.191   1.035   5.513  0.0523  0.0074 -0.0165
    1AU     AUC    6   2.272   0.838   5.756 -0.1010  0.0924 -0.0256
    1AU     AUC    7   1.976   0.663   5.819  0.1233 -0.0187  0.0060
    1AU     AUC    8   2.190   0.865   5.244  0.0344  0.0096  0.0550
    1AU     AUC    9   1.880   0.663   5.332  0.0784 -0.0223 -0.0165
    1AU     AUC   10   1.852   0.954   5.435 -0.0340 -0.0484 -0.0595
    1AU     AUC   11   1.959   0.980   5.731 -0.0158  0.0354 -0.0003
    1AU     AUC   12   2.191   0.510   5.346  0.0512  0.0148  0.0873
    1AU     AUC   13   2.208   0.531   5.686  0.0472  0.0180  0.0482
    1AU     AUC   14   1.762   0.151   5.599  0.0170 -0.0320 -0.0484
    1AU     AUC   15   1.580   0.395   5.614 -0.0254  0.0731  0.0173
    1AU     AUC   16   1.386   0.742   5.665  0.0159  0.1054  0.0182
    1AU     AUC   17   2.715   0.751   5.441  0.0628 -0.0422  0.0389
    1AU     AUC   18   2.579   1.068   5.506 -0.0191 -0.0055 -0.0136
    1AU     AUC   19   2.353   1.350   5.500 -0.0927  0.0747 -0.1030
    1AU     AUC   20   2.412   0.922   6.063  0.0662  0.0323  0.0658
    1AU     AUC   21   2.180   0.689   6.177 -0.0102 -0.1063 -0.0583
    1AU     AUC   22   1.860   0.562   6.160  0.0559 -0.0037  0.0143
    1AU     AUC   23   2.291   0.940   4.945  0.0484  0.1147  0.0059
    1AU     AUC   24   1.982   0.757   4.966  0.0373 -0.0908  0.0211
    1AU     AUC   25   1.689   0.527   5.023 -0.0435 -0.0459  0.0513
    1AU     AUC   26   1.671   1.178   5.245 -0.0224  0.0117  0.0027
    1AU     AUC   27   1.721   1.246   5.527  0.0288 -0.0249 -0.0791
    1AU     AUC   28   1.800   1.212   5.920  0.0077  0.0508 -0.0172
    1AU     AUC   29   2.277   0.269   5.155 -0.0465  0.0983 -0.0214
    1AU     AUC   30   2.346   0.222   5.465  0.0587  0.2183 -0.0403
    1AU     AUC   31   2.387   0.230   5.816 -0.0794  0.0514  0.0743
    1AU     AUC   32   1.498   0.966   5.439 -0.0350  0.0021  0.0431
    1AU     AUC   33   1.564   1.021   5.797  0.0635 -0.1317 -0.0327
    1AU     AUC   34   2.004   0.219   5.361 -0.0253 -0.0712 -0.0412
    1AU     AUC   35   2.072   0.155   5.710  0.0971 -0.1465  0.0074
    1AU     AUC   36   2.016   1.308   5.350 -0.0774  0.0051  0.0334
    1AU     AUC   37   2.048   1.309   5.694  0.1087  0.0215 -0.0159
    1AU     AUC   38   2.525   0.500   5.283  0.0441 -0.0778  0.0096
    1AU     AUC   39   2.604   0.476   5.602  0.0389  0.0146  0.0017
    1AU     AUC   40   1.793   0.309   5.895 -0.0079  0.0396 -0.0245
    1AU     AUC   41   1.614   0.678   5.927  0.0041 -0.0221 -0.0371
    1AU     AUC   42   2.597   0.856   5.756  0.0880 -0.0805 -0.0162
    1AU     AUC   43   2.396   1.186   5.819 -0.0797  0.0788  0.0872
    1AU     AUC   44   1.702   0.353   5.285 -0.0211  0.0019 -0.0093
    1AU     AUC   45   1.537   0.598   5.343 -0.0565  0.0316 -0.0106
    1AU     AUC   46   2.551   0.875   5.182 -0.0807  0.0508  0.0023
    1AU     AUC   47   2.360   1.154   5.204  0.0402 -0.1610  0.0391
    1AU     AUC   48   2.152   1.088   6.007  0.0718 -0.0647  0.0372
    1AU     AUC   49   1.880   0.906   6.059  0.0092  0.0410 -0.1047
    1AU     AUC   50   1.977   1.033   5.054 -0.0354 -0.0110 -0.0470
    1AU     AUC   51   1.669   0.850   5.119 -0.0304  0.0016  0.0249
    1AU     AUC   52   2.408   0.585   5.935  0.0174  0.0347  0.0130
    1AU     AUC   53   2.123   0.340   6.000 -0.0325 -0.0682 -0.0265
    1AU     AUC   54   2.368   0.636   5.011  0.0361 -0.0598 -0.0164
    1AU     AUC   55   2.032   0.431   5.051 -0.0032  0.0291 -0.0674
    1AU    AUSL   56   1.156   1.051   5.624  0.1396  0.0817 -0.0496
    1AU    AUSL   57   1.224   1.003   5.144  0.0128  0.0459  0.0411
    1AU     AUL   58   0.868   0.952   5.358  0.0779  0.0638  0.0777
    1AU       S   59   0.974   0.836   4.915 -0.1362  0.0551 -0.1949
    1AU     LIG   60   0.830   1.266   4.876  0.2027  0.1556  0.0465
    1AU     LIG   61   0.535   1.643   4.928  0.1286  0.2951 -0.0552
    1AU       S   62   0.992   1.373   5.473  0.0538  0.3037  0.0322
    1AU     LIG   63   0.882   1.718   5.639 -0.0802 -0.3525  0.0138
    1AU     LIG   64   0.584   1.927   5.849 -0.3212  0.0944  0.0358
    1AU    AUSL   65   1.453   1.282   5.373  0.0039 -0.0137 -0.0856
    1AU    AUSL   66   1.689   1.584   5.654 -0.0292 -0.0504  0.0101
    1AU     AUL   67   1.355   1.623   5.573 -0.0445  0.0020 -0.0129
    1AU       S   68   1.236   1.440   5.148  0.0939 -0.1182 -0.0785
    1AU     LIG   69   1.022   1.805   5.108  0.0385 -0.0943  0.1483
    1AU     LIG   70   0.633   2.138   5.157  0.0109  0.0504 -0.0381
    1AU       S   71   1.742   2.145   5.103  0.0090 -0.5719  0.1703
    1AU     LIG   72   1.781   2.497   4.886  0.4433 -0.0953 -0.0801
    1AU     LIG   73   1.571   2.757   4.555 -0.0076 -0.1807 -0.0959
    1AU    AUSL   74   1.558   1.209   5.816  0.0023  0.0107 -0.0235
    1AU    AUSL   75   1.257   0.962   6.044 -0.1129  0.0835  0.0129
    1AU     AUL   76   1.164   1.303   5.892  0.0089 -0.0279 -0.0654
    1AU       S   77   1.445   1.607   6.060 -0.2196 -0.1961 -0.1374
    1AU     LIG   78   1.507   2.039   5.928 -0.0647 -0.2329 -0.2077
    1AU     LIG   79   1.291   2.429   5.842  0.0727 -0.0646 -0.2238
    1AU       S   80   1.035   1.053   6.289 -0.1947 -0.0402  0.1640
    1AU     LIG   81   0.760   1.031   5.938  0.2175 -0.1364  0.0932
    1AU     LIG   82   0.451   0.947   5.662  0.1889  0.0194  0.3838
    1AU    AUSL   83   1.913  -0.125   5.635  0.0195 -0.0274  0.0557
    1AU    AUSL   84   2.160  -0.053   6.011  0.0352  0.0710 -0.0810
    1AU     AUL   85   2.184  -0.336   5.786  0.0517 -0.0693 -0.1007
    1AU       S   86   1.720  -0.404   5.643 -0.2019 -0.1885  0.0471
    1AU     LIG   87   1.337  -0.551   5.459 -0.1635  0.2705 -0.5384
    1AU     LIG   88   0.959  -0.811   5.446  0.5214 -0.0780  0.1224
    1AU       S   89   2.087  -0.381   6.273  0.3315  0.4949  0.0149
    1AU     LIG   90   2.291  -0.661   6.083 -0.2477 -0.4094  0.0234
    1AU     LIG   91   2.487  -0.700   5.713  0.2105  0.0487  0.3406
    1AU    AUSL   92   2.174  -0.157   5.290 -0.0012 -0.0472 -0.0390
    1AU    AUSL   93   1.798   0.151   5.304  0.0982  0.0055  0.0398
    1AU     AUL   94   1.856  -0.220   5.244  0.0326 -0.0153 -0.0290
    1AU       S   95   1.919  -0.325   4.701 -0.2122 -0.2373 -0.2111
    1AU     LIG   96   1.841  -0.783   4.707  0.0860 -0.1517 -0.2127
    1AU     LIG   97   1.619  -1.125   4.772  0.0948  0.2108 -0.2937
    1AU       S   98   2.054  -0.601   5.417  0.0506 -0.5045  0.2519
    1AU     LIG   99   2.149  -1.041   5.540 -0.2435 -0.0693  0.0788
    1AU     LIG  100   2.470  -1.318   5.238 -0.2200  0.0269  0.0741
    1AU    AUSL  101   2.342   0.083   5.640 -0.0028  0.0432  0.0203
    1AU    AUSL  102   2.566   0.039   5.238  0.0559  0.0156  0.0589
    1AU     AUL  103   2.483  -0.208   5.385 -0.0366 -0.0176 -0.0151
    1AU       S  104   2.932  -0.110   5.243  0.0328  0.4775 -0.3601
    1AU     LIG  105   3.003  -0.490   5.588  0.0596  0.1759  0.3987
    1AU     LIG  106   3.188  -0.872   5.839  0.3068  0.1061  0.1328
    1AU       S  107   1.851  -0.635   5.457  0.3596 -0.2358 -0.0067
    1AU     LIG  108   1.626  -1.036   5.335  0.0569 -0.0502 -0.0938
    1AU     LIG  109   1.225  -1.270   5.358 -0.0364 -0.1345  0.0953
    1AU    AUSL  110   2.094   1.562   5.499 -0.0791  0.0629 -0.0704
    1AU    AUSL  111   1.972   1.464   5.958 -0.0658  0.0319  0.0570
    1AU     AUL  112   1.926   1.767   5.776 -0.1374  0.0471  0.0490
    1AU       S  113   1.699   2.020   5.455 -0.1486 -0.0182  0.1319
    1AU     LIG  114   1.614   2.450   5.465  0.2282  0.2507  0.0007
    1AU     LIG  115   1.826   2.859   5.416 -0.3821 -0.2388  0.1921
    1AU       S  116   2.302   1.794   6.075  0.2541 -0.1107 -0.3607
    1AU     LIG  117   2.208   2.178   6.203  0.0413 -0.2804  0.2283
    1AU     LIG  118   1.856   2.449   5.976  0.3071 -0.0537 -0.0475
    1AU    AUSL  119   1.753   1.595   5.229 -0.0155  0.0618 -0.0172
    1AU    AUSL  120   2.256   1.566   5.099  0.0126  0.0273 -0.0081
    1AU     AUL  121   2.090   1.810   5.304 -0.0354  0.0355 -0.0328
    1AU       S  122   2.277   1.778   4.855 -0.0713  0.6395  0.3145
    1AU     LIG  123   2.638   1.991   4.870 -0.4372  0.0589 -0.4289
    1AU     LIG  124   2.917   2.214   5.084  0.1270  0.1333 -0.1388
    1AU       S  125   1.641   1.840   5.215  0.0707 -0.1759 -0.3139
    1AU     LIG  126   1.245   2.143   5.429 -0.2278  0.3033  0.0942
    1AU     LIG  127   0.959   2.464   5.435 -0.1209  0.1718  0.0246
    1AU    AUSL  128   2.793   0.387   5.390 -0.0407 -0.0216 -0.0070
    1AU    AUSL  129   2.515   0.418   5.029  0.0047  0.0627  0.0607
    1AU     AUL  130   2.765   0.242   4.963  0.1113  0.0038 -0.0874
    1AU       S  131   3.140   0.048   5.116 -0.0660 -0.2579 -0.4806
    1AU     LIG  132   3.461   0.381   5.257  0.1670  0.2612 -0.1055
    1AU     LIG  133   3.748   0.660   5.434 -0.2156 -0.0740 -0.0258
    1AU       S  134   3.132   0.502   4.842 -0.1453 -0.2449 -0.2987
    1AU     LIG  135   3.482   0.394   4.745 -0.1410 -0.0874  0.2273
    1AU     LIG  136   3.805   0.524   4.460  0.1103 -0.4751  0.4683
    1AU    AUSL  137   2.760   0.052   5.682  0.0491  0.0366  0.0466
    1AU    AUSL  138   3.005   0.614   5.711  0.0245 -0.0053 -0.0420
    1AU     AUL  139   3.043   0.268   5.561 -0.0155 -0.0067 -0.0543
    1AU       S  140   3.330   0.555   5.827  0.2719 -0.0151  0.0083
    1AU     LIG  141   3.815   0.452   5.849  0.3360 -0.2804  0.3086
    1AU     LIG  142   4.210   0.140   5.952 -0.0021 -0.0199  0.2114
    1AU       S  143   3.235  -0.229   5.274  0.0622  0.0198 -0.1395
    1AU     LIG  144   3.471  -0.342   5.613  0.0533 -0.0479 -0.0121
    1AU     LIG  145   3.637  -0.574   5.984  0.1571  0.4501  0.0880
    1AU    AUSL  146   1.515   0.359   6.229 -0.1290 -0.0032  0.0791
    1AU    AUSL  147   1.726  -0.078   6.022  0.0526  0.0286 -0.0285
    1AU     AUL  148   1.500   0.024   6.320 -0.0350 -0.0946 -0.0020
    1AU       S  149   1.796  -0.310   6.171  0.0334 -0.0639  0.0114
    1AU     LIG  150   1.358  -0.413   6.043 -0.2578  0.0206 -0.1038
    1AU     LIG  151   0.989  -0.461   5.921  0.1258  0.0221  0.1005
    1AU       S  152   0.907   0.506   6.195 -0.1149  0.2832 -0.0214
    1AU     LIG  153   0.513   0.429   6.092  0.3611 -0.0884  0.2263
    1AU     LIG  154   0.130   0.679   5.961  0.1412 -0.0150  0.1803
    1AU    AUSL  155   1.569   0.241   5.776  0.1058 -0.0478 -0.1135
    1AU    AUSL  156   1.188   0.321   5.560  0.0131 -0.0635  0.0315
    1AU     AUL  157   1.276   0.037   5.874 -0.0055 -0.0700  0.0001
    1AU       S  158   0.991   0.327   6.060  0.2574  0.1190 -0.0952
    1AU     LIG  159   0.759   0.021   5.887  0.2653 -0.3025 -0.2222
    1AU     LIG  160   0.517  -0.099   6.171 -0.1493 -0.1937  0.0157
    1AU       S  161   0.986   0.098   5.499  0.0355 -0.2258 -0.0262
    1AU     LIG  162   0.520   0.182   5.523  0.4391  0.0854 -0.0112
    1AU     LIG  163   0.115   0.191   5.777 -0.4175  0.2114  0.1800
    1AU    AUSL  164   1.324   0.590   5.864  0.0030  0.0835 -0.0125
    1AU    AUSL  165   1.645   0.759   6.158  0.0137  0.0107 -0.1246
    1AU     AUL  166   1.345   0.673   6.296  0.0862 -0.0868 -0.0207
    1AU       S  167   1.064   1.197   6.405  0.0459 -0.1263 -0.0492
    1AU     LIG  168   0.994   1.676   6.335 -0.0321 -0.0166 -0.3596
    1AU     LIG  169   1.026   1.940   6.027 -0.1181 -0.0529 -0.1626
    1AU       S  170   1.029   0.572   5.932 -0.2151 -0.1094 -0.0091
    1AU     LIG  171   0.793   0.607   5.679  0.2002  0.1456  0.4263
    1AU     LIG  172   0.629   0.548   5.168  0.4050 -0.3894 -0.2596
    1AU    AUSL  173   2.650   1.124   6.018  0.0234  0.0374 -0.0201
    1AU    AUSL  174   2.392   1.473   5.795  0.0644  0.0749 -0.0410
    1AU     AUL  175   2.767   1.458   6.095  0.0104 -0.0111 -0.0360
    1AU       S  176   2.418   1.743   5.846 -0.0093  0.0390  0.2797
    1AU     LIG  177   2.659   2.192   5.943 -0.0027 -0.1607  0.3337
    1AU     LIG  178   2.786   2.589   6.039 -0.1580 -0.1088  0.0275
    1AU       S  179   2.785   1.099   6.391  0.2937 -0.0982 -0.0556
    1AU     LIG  180   2.889   0.836   6.726  0.4563  0.1841  0.2517
    1AU     LIG  181   2.957   0.631   7.118  0.0196  0.0493 -0.3165
    1AU    AUSL  182   2.763   0.957   5.631  0.0465  0.0052  0.0585
    1AU    AUSL  183   2.808   0.731   6.105 -0.0330  0.0390 -0.0846
    1AU     AUL  184   3.009   0.974   5.934 -0.0049  0.0381  0.0208
    1AU       S  185   3.261   0.852   5.384 -0.2188 -0.2434 -0.2315
    1AU     LIG  186   3.498   1.038   5.653  0.4467 -0.4388 -0.1950
    1AU     LIG  187   3.321   1.402   5.945 -0.3505  0.1235  0.2971
    1AU       S  188   3.111   0.657   6.215 -0.0953  0.0018 -0.1476
    1AU     LIG  189   3.231   1.054   6.372 -0.1500 -0.0419 -0.1989
    1AU     LIG  190   3.188   1.432   6.519 -0.0303  0.2008 -0.0400
    1AU    AUSL  191   2.791   1.391   5.658  0.1278  0.0777 -0.0615
    1AU    AUSL  192   2.926   1.155   5.274 -0.0448  0.1011  0.0340
    1AU     AUL  193   3.059   1.244   5.549  0.1272  0.0323  0.1438
    1AU       S  194   2.956   1.514   5.184  0.2790 -0.4888  0.3529
    1AU     LIG  195   3.366   1.659   5.459 -0.4847  0.1159 -0.2456
    1AU     LIG  196   3.711   1.854   5.380  0.2703  0.1773  0.0770
    1AU       S  197   2.938   1.676   5.732 -0.0790 -0.0109  0.1447
    1AU     LIG  198   2.973   2.067   5.584 -0.1471  0.0027 -0.3038
    1AU     LIG  199   3.279   2.235   5.689 -0.5806  0.3971  0.0633
    1AU    AUSL  200   1.368   0.334   5.159  0.0542 -0.0314  0.0471
    1AU    AUSL  201   1.335   0.708   5.433 -0.0576  0.1027  0.0031
    1AU     AUL  202   1.074   0.533   5.312  0.0276  0.0012  0.0049
    1AU       S  203   1.019   0.085   5.141 -0.2516 -0.1559 -0.0733
    1AU     LIG  204   0.638  -0.026   5.092 -0.1072  0.1093  0.4950
    1AU     LIG  205   0.318  -0.347   5.239  0.2883 -0.0305  0.1587
    1AU       S  206   0.964   0.549   4.791  0.2484 -0.0370  0.2068
    1AU     LIG  207   0.590   0.406   4.679  0.0626  0.1160 -0.1465
    1AU     LIG  208   0.547   0.004   4.620  0.1466  0.2062 -0.0946
    1AU    AUSL  209   1.446  -0.034   5.439  0.0067  0.0834  0.0881
    1AU    AUSL  210   1.685   0.215   4.863  0.0003  0.0046 -0.0335
    1AU     AUL  211   1.468   0.015   5.082 -0.0203  0.0224 -0.0487
    1AU       S  212   1.094  -0.162   5.399 -0.0155 -0.0144 -0.2237
    1AU     LIG  213   0.717  -0.351   5.492  0.2146 -0.2581 -0.4866
    1AU     LIG  214   0.345  -0.481   5.761  0.2177  0.0094  0.0641
    1AU       S  215   1.752  -0.140   4.741 -0.5893  0.1418 -0.1846
    1AU     LIG  216   1.372  -0.415   4.864  0.0326  0.3064  0.0331
    1AU     LIG  217   1.306  -0.787   5.011  0.2589 -0.3198  0.2082
    1AU    AUSL  218   2.563   1.086   4.990  0.0230  0.0193  0.0084
    1AU    AUSL  219   2.802   0.756   5.187  0.1042  0.0546  0.0847
    1AU     AUL  220   2.965   1.085   4.964  0.0784  0.0013  0.0041
    1AU       S  221   3.071   0.620   5.049 -0.3703 -0.3549  0.4975
    1AU     LIG  222   3.506   0.837   4.867  0.0160  0.2427 -0.0149
    1AU     LIG  223   3.920   0.576   5.008 -0.3153  0.4272  0.2543
    1AU       S  224   2.888   1.731   5.202  0.5298 -0.0093 -0.4085
    1AU     LIG  225   3.311   1.966   5.031 -0.0546  0.1420  0.2386
    1AU     LIG  226   3.387   2.353   4.962 -0.0203 -0.1697  0.2626
    1AU    AUSL  227   2.514   1.344   5.334 -0.0387 -0.0636 -0.0040
    1AU    AUSL  228   2.234   1.275   4.770 -0.0223  0.0067 -0.0905
    1AU     AUL  229   2.552   1.416   4.890  0.0607  0.0733 -0.0320
    1AU       S  230   2.234   1.577   4.589  0.0001  0.5069  0.0011
    1AU     LIG  231   2.566   1.852   4.378 -0.3358  0.0238 -0.2702
    1AU     LIG  232   2.719   1.862   3.996  0.0386 -0.3068  0.0107
    1AU       S  233   2.685   1.642   5.282  0.0964 -0.3465 -0.1060
    1AU     LIG  234   2.553   2.019   5.398  0.1226  0.0837  0.1128
    1AU     LIG  235   2.224   2.197   5.608 -0.3179 -0.0242 -0.1844
    1AU    AUSL  236   1.954   1.098   6.189  0.0742  0.0560  0.0464
    1AU    AUSL  237   2.317   1.343   6.219 -0.0047 -0.0308 -0.0076
    1AU     AUL  238   1.984   1.448   6.288  0.0420 -0.0622  0.0309
    1AU       S  239   2.419   1.635   6.367 -0.0479  0.0129  0.2168
    1AU     LIG  240   2.853   1.795   6.595 -0.0295 -0.1668  0.1848
    1AU     LIG  241   2.861   2.039   6.954 -0.1257 -0.0659 -0.2746
    1AU       S  242   1.994   1.187   6.662 -0.0170 -0.2971  0.1990
    1AU     LIG  243   2.422   1.304   6.776 -0.1099  0.0302  0.1996
    1AU     LIG  244   2.831   1.410   6.917 -0.2197 -0.1015  0.0145
    1AU    AUSL  245   2.347   0.965   6.424  0.0437  0.0657 -0.0215
    1AU    AUSL  246   2.184   0.375   6.437 -0.0171 -0.0787  0.0148
    1AU     AUL  247   2.404   0.666   6.638  0.0776 -0.0182  0.1070
    1AU       S  248   1.950   1.141   6.875 -0.1255 -0.2588  0.5108
    1AU     LIG  249   1.950   1.561   7.132 -0.0742  0.0840  0.1508
    1AU     LIG  250   1.702   1.890   7.007 -0.2031 -0.4417  0.0826
    1AU       S  251   2.419   0.185   6.667  0.0428  0.1946 -0.0298
    1AU     LIG  252   2.819   0.208   6.880  0.0737 -0.1252 -0.3340
    1AU     LIG  253   3.281   0.111   7.053  0.0649  0.1522  0.0192
    1AU    AUSL  254   1.955   0.747   6.468 -0.0650  0.0020  0.0203
    1AU    AUSL  255   1.550   1.198   6.256 -0.0428 -0.1221  0.1176
    1AU     AUL  256   1.654   0.940   6.479 -0.0710 -0.0119 -0.0142
    1AU       S  257   1.315   1.293   6.418  0.0171  0.0892 -0.0832
    1AU     LIG  258   1.522   1.642   6.591  0.0686 -0.2064  0.3892
    1AU     LIG  259   1.785   1.965   6.338  0.3489  0.1872  0.5016
    1AU       S  260   1.999   0.995   6.843  0.3216  0.1840 -0.2691
    1AU     LIG  261   2.432   0.890   7.080 -0.0465  0.1646 -0.1403
    1AU     LIG  262   2.787   1.106   7.311  0.0461 -0.0826 -0.1308
    1AU    AUSL  263   1.577   1.150   4.947  0.0647  0.0714  0.0322
    1AU    AUSL  264   1.510   0.712   5.004 -0.0481  0.0529 -0.1236
    1AU     AUL  265   1.382   1.039   4.745 -0.0577  0.1540  0.0748
    1AU       S  266   1.539   1.163   4.284  0.1773 -0.4706  0.0243
    1AU     LIG  267   1.220   1.473   4.089 -0.2131  0.0916  0.3609
    1AU     LIG  268   1.003   1.852   4.096 -0.3824 -0.1246 -0.1338
    1AU       S  269   1.209   0.632   4.836  0.0848  0.3240  0.0971
    1AU     LIG  270   1.244   0.150   4.712  0.2392  0.3266  0.2083
    1AU     LIG  271   1.030  -0.280   4.504  0.1964 -0.0281  0.0432
    1AU    AUSL  272   1.907   0.986   4.725 -0.0199  0.0004  0.1143
    1AU    AUSL  273   1.956   1.243   5.108  0.0911  0.0242 -0.0113
    1AU     AUL  274   1.846   1.412   4.809  0.0399  0.0470 -0.0032
    1AU       S  275   1.742   1.144   4.466 -0.1467 -0.0291  0.3485
    1AU     LIG  276   1.379   1.548   4.595 -0.1216  0.0751 -0.0463
    1AU     LIG  277   1.559   1.831   4.746 -0.2254 -0.1553  0.1810
    1AU       S  278   2.083   1.892   4.708  0.0001  0.1366 -0.0712
    1AU     LIG  279   2.026   2.188   4.479 -0.1552 -0.0661 -0.2072
    1AU     LIG  280   1.865   2.422   4.196 -0.1136  0.4998 -0.1073
    1AU    AUSL  281   1.659   0.645   4.612  0.0200  0.0632 -0.0569
    1AU    AUSL  282   2.284   0.790   4.752 -0.0120  0.0277  0.0547
    1AU     AUL  283   2.029   0.744   4.483 -0.0326  0.0264  0.0131
    1AU       S  284   2.417   0.984   4.433 -0.0985 -0.0880 -0.2154
    1AU     LIG  285   2.853   1.237   4.541  0.0450  0.3065 -0.2126
    1AU     LIG  286   3.095   1.666   4.690 -0.0932 -0.0354  0.7208
    1AU       S  287   1.783   1.394   4.300 -0.1431 -0.1953  0.2321
    1AU     LIG  288   1.608   1.908   4.208  0.2139  0.4251  0.2078
    1AU     LIG  289   1.479   2.222   4.452  0.1297 -0.1794 -0.6196
    1AU    AUSL  290   2.469   0.206   6.162  0.0351 -0.2031 -0.0724
    1AU    AUSL  291   1.919   0.319   6.098 -0.0499 -0.0586  0.0078
    1AU     AUL  292   2.071   0.091   6.364  0.0252  0.0153  0.0471
    1AU       S  293   2.592  -0.009   6.398  0.2236 -0.0437 -0.0816
    1AU     LIG  294   2.959  -0.243   6.625  0.0471 -0.2565 -0.2706
    1AU     LIG  295   3.367  -0.443   6.944  0.4282  0.0332 -0.3717
    1AU       S  296   1.803  -0.605   6.116  0.2384  0.0372  0.3779
    1AU     LIG  297   1.610  -0.982   6.329 -0.3143  0.2313  0.3755
    1AU     LIG  298   1.376  -1.187   6.636  0.3564  0.0706 -0.1456
    1AU    AUSL  299   2.386   0.649   6.142  0.0174  0.0134 -0.0266
    1AU    AUSL  300   2.615   0.432   5.841  0.0100  0.0864  0.0087
    1AU     AUL  301   2.689   0.459   6.314 -0.0528  0.0131  0.1387
    1AU       S  302   2.474  -0.138   6.650 -0.0098  0.3503  0.2419
    1AU     LIG  303   2.558  -0.569   6.447  0.0556  0.3191  0.1037
    1AU     LIG  304   2.962  -0.665   6.266  0.1575  0.3511  0.0449
    1AU       S  305   2.992   0.285   6.038  0.0674  0.0117 -0.3013
    1AU     LIG  306   3.235  -0.063   6.131 -0.1901 -0.0693 -0.3781
    1AU     LIG  307   3.435  -0.256   6.435 -0.1984 -0.3425 -0.1861
    1AU    AUSL  308   2.292   0.341   4.667  0.0276  0.0324 -0.1213
    1AU    AUSL  309   2.698   0.725   4.767 -0.1326 -0.0696  0.0176
    1AU     AUL  310   2.536   0.523   4.594  0.0888 -0.0599 -0.0011
    1AU       S  311   3.007   0.604   4.777 -0.1765 -0.4556 -0.1301
    1AU     LIG  312   3.294   0.820   4.435 -0.3553 -0.0261  0.1854
    1AU     LIG  313   3.429   1.262   4.587  0.3068 -0.1943 -0.0210
    1AU       S  314   2.420   0.947   4.165  0.3783 -0.4392 -0.2155
    1AU     LIG  315   2.744   1.367   4.084 -0.1707  0.0626  0.0225
    1AU     LIG  316   3.122   1.606   4.189 -0.2916 -0.0592  0.2642
    1AU    AUSL  317   1.953   0.552   4.906 -0.0540  0.0154  0.0659
    1AU    AUSL  318   2.104   0.142   4.994 -0.0351 -0.0298 -0.0971
    1AU     AUL  319   1.964   0.269   4.621 -0.0943 -0.0583 -0.0122
    1AU       S  320   2.266   1.151   4.285  0.1605 -0.1487  0.2158
    1AU     LIG  321   2.205   1.529   4.042  0.0395  0.4225 -0.1644
    1AU     LIG  322   2.170   1.932   4.079  0.1646 -0.0065  0.0717
    1AU       S  323   2.113  -0.125   4.799  0.1916 -0.0986  0.1205
    1AU     LIG  324   2.234  -0.528   4.979  0.0554 -0.2319 -0.2494
    1AU     LIG  325   2.474  -0.831   5.149 -0.0433 -0.0952 -0.1024
    2POPC   NC3  326   6.147   0.367   7.863 -0.2345 -0.3878 -0.1111
    2POPC   PO4  327   6.188   0.773   7.891 -0.0767 -0.0162  0.2621
    2POPC   GL1  328   6.161   0.728   7.496 -0.0630 -0.1177  0.1690
    2POPC   GL2  329   6.373   0.991   7.350 -0.0790  0.1026  0.0651
    2POPC   C1A  330   5.812   0.799   7.232 -0.0598 -0.0931  0.2424
    2POPC   D2A  331   5.893   0.732   6.763  0.0224 -0.0547  0.1458
    2POPC   C3A  332   5.752   0.837   6.349 -0.1909  0.1016 -0.0929
    2POPC   C4A  333   5.378   0.881   6.169 -0.1852  0.0156  0.2195
    2POPC   C1B  334   6.338   0.603   7.064 -0.2215  0.3585 -0.1949
    2POPC   C2B  335   6.236   0.347   6.632 -0.1334  0.0448  0.1158
    2POPC   C3B  336   6.107  -0.134   6.568  0.3514 -0.2495 -0.1422
    2POPC   C4B  337   5.936  -0.373   6.104  0.0714  0.0665  0.0407
    3POPC   NC3  338   2.557   7.976   7.027 -0.1684 -0.4394 -0.2096
    3POPC   PO4  339   2.719   7.524   7.085  0.1492 -0.1579  0.0815
    3POPC   GL1  340   2.783   7.786   6.662  0.0199  0.0751  0.0441
    3POPC   GL2  341   2.778   8.138   6.576  0.4006  0.5762  0.1586
    3POPC   C1A  342   2.857   7.717   6.223 -0.0027  0.0966 -0.0663
    3POPC   D2A  343   2.882   7.657   5.723 -0.0154  0.0975  0.1460
    3POPC   C3A  344   3.073   7.416   5.474 -0.0304  0.0170 -0.1045
    3POPC   C4A  345   3.387   7.100   5.413 -0.3027  0.1865  0.1588
    3POPC   C1B  346   3.137   8.120   6.265 -0.0333 -0.1872 -0.1861
    3POPC   C2B  347   3.483   8.247   5.877 -0.1426 -0.0142  0.0029
    3POPC   C3B  348   3.475   8.430   5.663 -0.5403 -0.1033  0.1251
    3POPC   C4B  349   3.166   8.743   5.484 -0.1459 -0.0583  0.0541
    4POPC   NC3  350  10.495   7.989   7.475 -0.1223  0.3272  0.0121
    4POPC   PO4  351  10.887   7.915   7.634  0.0557  0.0288 -0.0362
    4POPC   GL1  352  11.059   8.054   7.183  0.0329  0.1539 -0.1598
    4POPC   GL2  353  10.737   8.201   7.069  0.1157  0.1947  0.0008
    4POPC   C1A  354  11.120   8.003   6.612 -0.3060  0.0298  0.0129
    4POPC   D2A  355  10.973   8.222   6.241  0.0817 -0.0052  0.0431
    4POPC   C3A  356  11.003   8.129   5.733 -0.0317  0.1269 -0.2126
    4POPC   C4A  357  10.987   8.028   5.222 -0.0839 -0.0099  0.0804
    4POPC   C1B  358  10.598   8.200   6.609  0.2834  0.1126 -0.3106
    4POPC   C2B  359  10.441   8.239   6.212 -0.0403 -0.1140 -0.1702
    4POPC   C3B  360  10.584   8.257   5.880 -0.0047  0.4133  0.1848
    4POPC   C4B  361  10.608   8.325   5.454 -0.5207  0.0637 -0.3604
    5POPC   NC3  362   4.331  10.304   8.190 -0.3461  0.0328  0.1959
    5POPC   PO4  363   4.732  10.203   8.305  0.2358  0.0600 -0.2429
    5POPC   GL1  364   4.732   9.984   7.859  0.1500 -0.1055 -0.3560
    5POPC   GL2  365   5.019   9.749   7.758  0.0816  0.0416  0.3550
    5POPC   C1A  366   4.489   9.968   7.464 -0.0957  0.1035  0.0951
    5POPC   D2A  367   4.224  10.111   6.957  0.1185  0.0251 -0.0707
    5POPC   C3A  368   4.446  10.285   6.563 -0.2550  0.0530  0.1673
    5POPC   C4A  369   4.601  10.376   6.168  0.1110 -0.2133  0.0850
    5POPC   C1B  370   5.213   9.815   7.314 -0.1135 -0.0565  0.1882
    5POPC   C2B  371   5.560   9.763   6.967  0.1432  0.1880 -0.1124
    5POPC   C3B  372   5.572   9.646   6.556 -0.0359 -0.0495  0.1717
    5POPC   C4B  373   5.542   9.604   6.212  0.1863  0.0369  0.0464
    6POPC   NC3  374  10.403   6.982   7.467  0.1641  0.6074 -0.0112
    6POPC   PO4  375  10.856   6.864   7.404  0.1910 -0.1075  0.1526
    6POPC   GL1  376  11.123   6.869   7.081 -0.0139  0.0367  0.0747
    6POPC   GL2  377  11.009   6.677   6.863  0.1705  0.0168  0.2804
    6POPC   C1A  378  11.206   7.161   6.749 -0.2061 -0.0171  0.2435
    6POPC   D2A  379  11.150   7.506   6.426  0.2756  0.0361  0.2580
    6POPC   C3A  380  11.599   7.784   6.543 -0.2038 -0.0345 -0.1115
    6POPC   C4A  381  12.016   7.734   6.642  0.1263 -0.0218 -0.1060
    6POPC   C1B  382  10.766   6.883   6.546 -0.0808  0.1955 -0.0205
    6POPC   C2B  383  10.828   7.194   6.204 -0.2644  0.1214 -0.1208
    6POPC   C3B  384  10.609   7.353   5.901  0.1951 -0.0653  0.0846
    6POPC   C4B  385  10.631   7.566   5.538 -0.0043  0.2164 -0.1240
    7POPC   NC3  386   0.222   3.143   8.300  0.2402  0.0231  0.2136
    7POPC   PO4  387   0.083   2.853   7.850  0.0248 -0.3475 -0.0921
    7POPC   GL1  388  -0.084   2.881   7.487 -0.1057  0.0045 -0.2133
    7POPC   GL2  389   0.005   2.573   7.258  0.1190 -0.2530 -0.0275
    7POPC   C1A  390  -0.253   2.971   6.948 -0.4349 -0.0381  0.2627
    7POPC   D2A  391  -0.444   3.112   6.632  0.0301 -0.5627 -0.1210
    7POPC   C3A  392  -0.385   3.018   6.191  0.0022 -0.0177 -0.0516
    7POPC   C4A  393  -0.165   2.614   6.056 -0.2049  0.1599  0.4856
    7POPC   C1B  394   0.251   2.729   6.945 -0.0527  0.2339 -0.0176
    7POPC   C2B  395   0.066   2.873   6.537  0.1213  0.1394 -0.1048
    7POPC   C3B  396   0.155   3.110   6.258 -0.2214 -0.1360  0.1203
    7POPC   C4B  397  -0.017   3.046   5.787  0.2232  0.1852  0.0998
    8POPC   NC3  398   4.975   9.253   7.826 -0.0195 -0.0220  0.4281
    8POPC   PO4  399   5.412   9.169   7.748  0.0059  0.0070 -0.0445
    8POPC   GL1  400   5.278   9.280   7.317 -0.3321 -0.2934  0.4581
    8POPC   GL2  401   5.292   8.975   7.052  0.1865 -0.1896  0.3145
    8POPC   C1A  402   5.193   9.410   6.871  0.2985 -0.2007  0.0378
    8POPC   D2A  403   5.061   9.835   6.775 -0.1394  0.2106  0.1645
    8POPC   C3A  404   4.874  10.183   6.907 -0.2580 -0.0746 -0.0210
    8POPC   C4A  405   4.800  10.357   7.348 -0.2972 -0.0353 -0.1153
    8POPC   C1B  406   5.497   8.683   6.781 -0.1167 -0.2777 -0.1032
    8POPC   C2B  407   5.640   8.612   6.346 -0.0362  0.1705  0.1268
    8POPC   C3B  408   5.460   8.677   5.950  0.3132 -0.0096  0.1090
    8POPC   C4B  409   5.170   8.888   5.704  0.1676 -0.3405  0.0196
    9POPC   NC3  410   6.586   2.340   7.369 -0.0310  0.3003 -0.2048
    9POPC   PO4  411   6.376   2.735   7.465 -0.1248 -0.1656 -0.0152
    9POPC   GL1  412   6.489   2.813   7.027  0.0070 -0.1483 -0.3317
    9POPC   GL2  413   6.526   2.519   6.929  0.0084  0.3535  0.0177
    9POPC   C1A  414   6.603   2.965   6.642 -0.1181 -0.2354 -0.1144
    9POPC   D2A  415   6.973   3.083   6.448 -0.0398 -0.2802  0.1643
    9POPC   C3A  416   7.140   3.068   6.032  0.2062 -0.0261  0.1756
    9POPC   C4A  417   7.041   3.282   5.715  0.0600 -0.1329 -0.0246
    9POPC   C1B  418   6.147   2.684   6.712  0.1842 -0.0203 -0.1382
    9POPC   C2B  419   5.928   2.444   6.518  0.4576  0.0129  0.1373
    9POPC   C3B  420   5.691   2.617   6.235  0.1052 -0.2111  0.3243
    9POPC   C4B  421   5.333   2.615   6.003  0.1569 -0.2100  0.1774
   10POPC   NC3  422   7.203   7.995   7.193  0.2352  0.1007 -0.2965
   10POPC   PO4  423   6.680   7.888   7.135  0.2450  0.4529  0.0794
   10POPC   GL1  424   6.467   7.608   6.763  0.2120  0.2131 -0.0160
   10POPC   GL2  425   6.599   7.417   6.849  0.2626 -0.2138 -0.0161
   10POPC   C1A  426   6.194   7.412   6.555  0.2182 -0.2616 -0.0336
   10POPC   D2A  427   5.857   7.448   6.263  0.1530 -0.2651 -0.1665
   10POPC   C3A  428   5.663   7.835   6.222  0.4355  0.3058  0.2282
   10POPC   C4A  429   5.708   8.262   5.964  0.4122  0.0439 -0.0686
   10POPC   C1B  430   6.498   7.049   6.516  0.0537  0.1119 -0.0841
   10POPC   C2B  431   6.386   6.749   6.105  0.2937 -0.0822  0.0152
   10POPC   C3B  432   6.224   6.549   5.745 -0.0927  0.1206  0.2100
   10POPC   C4B  433   6.108   6.495   5.253  0.1037  0.0330  0.0504
   11POPC   NC3  434   6.103   6.098   7.041 -0.0406 -0.0039  0.3209
   11POPC   PO4  435   5.866   5.932   6.745  0.0122  0.2282  0.2101
   11POPC   GL1  436   5.774   5.686   6.460 -0.3571  0.4636 -0.0825
   11POPC   GL2  437   5.878   5.383   6.526 -0.0773  0.1002 -0.2634
   11POPC   C1A  438   5.800   5.684   5.991  0.0852 -0.2510 -0.0693
   11POPC   D2A  439   5.895   5.629   5.623  0.1536  0.0291  0.1509
   11POPC   C3A  440   5.682   5.360   5.358  0.0051 -0.0905  0.0226
   11POPC   C4A  441   5.508   5.007   5.156 -0.4625 -0.1874  0.1146
   11POPC   C1B  442   5.576   5.251   6.324 -0.1311  0.0609 -0.0618
   11POPC   C2B  443   5.191   5.180   6.336  0.1555  0.1400  0.0560
   11POPC   C3B  444   5.000   4.909   6.099  0.2402  0.2967 -0.0569
   11POPC   C4B  445   4.702   4.575   5.802 -0.1676 -0.3787 -0.0180
   12POPC   NC3  446   9.607   2.338   7.571 -0.2256 -0.0690  0.2657
   12POPC   PO4  447   9.513   1.897   7.488  0.0128  0.2672 -0.1567
   12POPC   GL1  448   9.726   2.010   7.114 -0.1257 -0.0918 -0.3221
   12POPC   GL2  449   9.753   1.701   6.921 -0.3588  0.2051 -0.1554
   12POPC   C1A  450  10.188   2.102   6.846 -0.0575  0.1423 -0.4969
   12POPC   D2A  451  10.395   2.491   6.533  0.0775  0.0462  0.1788
   12POPC   C3A  452  10.234   2.403   6.103  0.3489 -0.1950 -0.1841
   12POPC   C4A  453   9.911   2.415   5.679 -0.0050 -0.0179 -0.1195
   12POPC   C1B  454   9.720   1.605   6.439  0.0994  0.2999 -0.2984
   12POPC   C2B  455   9.956   1.708   5.993  0.0289 -0.0290 -0.0331
   12POPC   C3B  456  10.104   1.757   5.600 -0.0136 -0.0154 -0.0414
   12POPC   C4B  457  10.058   1.462   5.263 -0.4555  0.1119 -0.2830
   13POPC   NC3  458   6.415   1.386   7.667 -0.3767  0.1202 -0.3426
   13POPC   PO4  459   5.977   1.493   7.569  0.0613  0.0131  0.4721
   13POPC   GL1  460   6.082   1.381   7.168 -0.1875  0.0458  0.1442
   13POPC   GL2  461   5.877   1.619   7.023 -0.5056  0.0554  0.1877
   13POPC   C1A  462   6.259   1.140   6.889  0.0034  0.0769  0.0679
   13POPC   D2A  463   6.199   1.071   6.429 -0.0265 -0.0990 -0.0409
   13POPC   C3A  464   6.298   0.680   6.163  0.0946  0.2562 -0.5497
   13POPC   C4A  465   6.078   0.297   6.171 -0.0256 -0.0285  0.0467
   13POPC   C1B  466   5.830   1.992   6.764 -0.0844 -0.1205 -0.1798
   13POPC   C2B  467   5.690   1.889   6.335 -0.0511 -0.3192  0.3157
   13POPC   C3B  468   5.919   1.633   6.073 -0.0954 -0.1050  0.1416
   13POPC   C4B  469   6.047   1.545   5.645 -0.1348  0.3004  0.2995
   14POPC   NC3  470   3.507   9.633   7.839  0.1392  0.2943  0.0838
   14POPC   PO4  471   3.404   9.166   7.601  0.1333  0.6124  0.2281
   14POPC   GL1  472   3.751   9.207   7.334  0.1502  0.0007 -0.2214
   14POPC   GL2  473   4.009   9.443   7.249  0.2882 -0.1070 -0.0777
   14POPC   C1A  474   3.911   9.052   6.958 -0.0846  0.6979 -0.2450
   14POPC   D2A  475   4.001   9.142   6.586  0.0998 -0.0791 -0.1707
   14POPC   C3A  476   4.038   8.862   6.261 -0.0403 -0.0425 -0.0375
   14POPC   C4A  477   3.843   8.711   5.897  0.0549  0.0245  0.0761
   14POPC   C1B  478   4.339   9.319   6.930  0.1535 -0.1194  0.0759
   14POPC   C2B  479   4.516   9.337   6.544  0.2487  0.1845 -0.4277
   14POPC   C3B  480   4.455   9.483   6.109  0.2311  0.0222 -0.0885
   14POPC   C4B  481   4.572   9.868   6.023 -0.2090 -0.1054 -0.0392
   15POPC   NC3  482   7.161   3.106   7.529 -0.2008 -0.2639 -0.1521
   15POPC   PO4  483   7.583   3.286   7.315  0.0720  0.0282 -0.0119
   15POPC   GL1  484   7.863   3.301   6.993  0.2475 -0.2152 -0.4199
   15POPC   GL2  485   7.787   3.034   6.753 -0.1961 -0.1081 -0.0970
   15POPC   C1A  486   7.868   3.517   6.667  0.0496  0.0673 -0.2894
   15POPC   D2A  487   8.038   3.482   6.281  0.1654  0.1891 -0.0272
   15POPC   C3A  488   7.862   3.497   5.907  0.1292 -0.0053  0.4425
   15POPC   C4A  489   7.507   3.390   5.594  0.1965  0.1405 -0.0969
   15POPC   C1B  490   8.142   2.992   6.436 -0.2075  0.1251  0.1950
   15POPC   C2B  491   8.445   2.882   6.060 -0.0729 -0.4021  0.0440
   15POPC   C3B  492   8.565   2.743   5.633  0.0605 -0.0432 -0.0128
   15POPC   C4B  493   8.795   2.597   5.270 -0.1239  0.1721 -0.2046
   16POPC   NC3  494   7.290   5.169   7.375 -0.0057 -0.0094 -0.2551
   16POPC   PO4  495   6.908   4.970   7.070 -0.1906  0.1508 -0.3870
   16POPC   GL1  496   7.113   5.234   6.694 -0.0399 -0.0912  0.0695
   16POPC   GL2  497   6.896   5.158   6.517  0.1082  0.2791  0.2029
   16POPC   C1A  498   7.431   5.248   6.338 -0.3583  0.0119 -0.1190
   16POPC   D2A  499   7.627   5.328   5.945 -0.1041  0.1226 -0.1500
   16POPC   C3A  500   7.335   5.461   5.646 -0.0828 -0.0203  0.4921
   16POPC   C4A  501   7.009   5.615   5.361  0.2035  0.1477 -0.0117
   16POPC   C1B  502   6.954   5.209   6.070 -0.0863  0.0702  0.0075
   16POPC   C2B  503   6.902   5.169   5.637 -0.3469 -0.0500 -0.0725
   16POPC   C3B  504   7.064   5.067   5.203  0.2182  0.0843  0.4574
   16POPC   C4B  505   7.310   4.823   4.847  0.1324 -0.0133 -0.1592
   17POPC   NC3  506   6.561   2.776   7.904 -0.0354  0.2976 -0.2409
   17POPC   PO4  507   6.658   3.157   7.682  0.3777  0.1823 -0.1029
   17POPC   GL1  508   6.812   3.300   7.232  0.0031  0.0269  0.0472
   17POPC   GL2  509   7.111   3.210   6.972 -0.0016 -0.0687 -0.1217
   17POPC   C1A  510   6.764   3.444   6.694 -0.0191  0.0599  0.2029
   17POPC   D2A  511   6.481   3.341   6.377 -0.0699 -0.3250  0.2882
   17POPC   C3A  512   6.157   3.801   6.414 -0.0096  0.2062 -0.0800
   17POPC   C4A  513   5.900   3.902   6.110  0.0920 -0.2585 -0.0586
   17POPC   C1B  514   7.413   3.325   6.632  0.3066 -0.0070  0.0265
   17POPC   C2B  515   7.568   3.263   6.314  0.1704  0.1841  0.2061
   17POPC   C3B  516   7.710   2.989   6.213 -0.1979  0.0624  0.2640
   17POPC   C4B  517   7.499   2.827   5.805 -0.3629 -0.3146 -0.0868
   18POPC   NC3  518   9.330   6.035   7.219  0.0340 -0.1807  0.1274
   18POPC   PO4  519   9.403   5.505   7.148  0.2095 -0.0745 -0.1891
   18POPC   GL1  520   9.368   5.324   6.805  0.0239  0.0532 -0.0434
   18POPC   GL2  521   9.531   5.540   6.625  0.2235 -0.2493  0.0186
   18POPC   C1A  522   9.029   5.263   6.413 -0.1943  0.3238 -0.0254
   18POPC   D2A  523   8.919   5.187   6.013  0.0773 -0.2282 -0.0262
   18POPC   C3A  524   8.584   5.420   5.713 -0.2124  0.0629 -0.0581
   18POPC   C4A  525   8.064   5.244   5.698 -0.0597 -0.2191  0.0446
   18POPC   C1B  526   9.484   5.283   6.155  0.0978  0.0452  0.1564
   18POPC   C2B  527   9.605   5.212   5.713 -0.2932 -0.1880  0.0110
   18POPC   C3B  528   9.475   5.201   5.239 -0.1850 -0.2425 -0.0367
   18POPC   C4B  529   9.661   5.474   4.927 -0.1885  0.2472 -0.0131
   19POPC   NC3  530   1.923   5.096   7.994 -0.2012 -0.0624  0.0323
   19POPC   PO4  531   2.137   5.104   7.764  0.0248  0.0460 -0.1448
   19POPC   GL1  532   2.135   5.107   7.361  0.1149 -0.1113  0.1205
   19POPC   GL2  533   2.275   5.418   7.233  0.0967  0.1324 -0.4771
   19POPC   C1A  534   2.460   4.959   7.188  0.1797 -0.1556 -0.0945
   19POPC   D2A  535   2.885   4.839   7.092 -0.0049  0.3327  0.2973
   19POPC   C3A  536   3.191   4.537   7.045  0.0890  0.0953  0.0017
   19POPC   C4A  537   3.345   4.366   6.641 -0.2527 -0.0694  0.0973
   19POPC   C1B  538   2.021   5.496   6.782  0.1451  0.1543 -0.2436
   19POPC   C2B  539   2.007   5.682   6.348  0.0858 -0.1654 -0.3025
   19POPC   C3B  540   1.820   5.958   5.961  0.0965 -0.1718  0.2538
   19POPC   C4B  541   1.722   6.210   5.648  0.3616  0.4494  0.1619
   20POPC   NC3  542   7.849   9.784   7.397 -0.1607 -0.0081  0.3143
   20POPC   PO4  543   8.092   9.435   7.217 -0.0242 -0.0972  0.3321
   20POPC   GL1  544   8.235   9.518   6.844 -0.1915  0.4254  0.0452
   20POPC   GL2  545   8.630   9.664   6.721 -0.0435  0.0722  0.0084
   20POPC   C1A  546   8.039   9.700   6.459  0.1210 -0.0428  0.2147
   20POPC   D2A  547   8.003   9.831   6.058 -0.1849  0.2200  0.0203
   20POPC   C3A  548   8.177   9.712   5.663  0.1268 -0.2095 -0.5197
   20POPC   C4A  549   8.603   9.842   5.533  0.0610 -0.2848 -0.3531
   20POPC   C1B  550   8.492  10.013   6.548  0.0940 -0.0693 -0.0823
   20POPC   C2B  551   8.151  10.182   6.414  0.3154 -0.1117  0.2427
   20POPC   C3B  552   7.802  10.298   6.125  0.2054 -0.0990  0.0712
   20POPC   C4B  553   7.597  10.499   5.675  0.1112 -0.1095 -0.0452
   21POPC   NC3  554   1.074   4.691   7.394  0.0387 -0.2740 -0.2346
   21POPC   PO4  555   0.718   4.980   7.280  0.2439 -0.1591 -0.1972
   21POPC   GL1  556   0.759   4.880   6.887 -0.1072 -0.2353  0.0769
   21POPC   GL2  557   1.112   4.855   6.878 -0.0970 -0.0590  0.1601
   21POPC   C1A  558   0.720   5.045   6.482 -0.2692  0.0639  0.1431
   21POPC   D2A  559   0.769   5.441   6.310  0.1418 -0.0604 -0.0678
   21POPC   C3A  560   1.097   5.578   6.104 -0.1605  0.0176 -0.0357
   21POPC   C4A  561   1.386   5.815   6.300  0.3183  0.2434 -0.2729
   21POPC   C1B  562   1.297   4.591   6.514 -0.0350  0.1381 -0.4085
   21POPC   C2B  563   1.253   4.385   6.197  0.1807  0.2160 -0.2460
   21POPC   C3B  564   0.975   4.206   5.987  0.0017  0.1369 -0.3890
   21POPC   C4B  565   0.743   3.847   5.626  0.2706  0.2121  0.1375
   22POPC   NC3  566   0.609   3.617   7.783  0.2184  0.1492 -0.2554
   22POPC   PO4  567   0.223   3.787   7.949  0.2251  0.0667 -0.0052
   22POPC   GL1  568   0.132   3.628   7.497 -0.1999 -0.2136 -0.1833
   22POPC   GL2  569   0.396   3.561   7.179  0.3684  0.2101  0.2516
   22POPC   C1A  570  -0.214   3.455   7.197 -0.1508  0.1575 -0.0334
   22POPC   D2A  571  -0.409   3.620   6.745 -0.0181  0.1518  0.0854
   22POPC   C3A  572  -0.372   3.531   6.359  0.0680  0.1112  0.1019
   22POPC   C4A  573  -0.236   3.703   5.995  0.1824 -0.2744 -0.0016
   22POPC   C1B  574   0.680   3.527   6.918  0.1467  0.1042 -0.0171
   22POPC   C2B  575   0.838   3.499   6.495 -0.1725 -0.0045 -0.0348
   22POPC   C3B  576   0.610   3.751   6.099  0.5314 -0.0255  0.0956
   22POPC   C4B  577   0.202   3.608   5.852 -0.2014  0.3347  0.0507
   23POPC   NC3  578   7.130   4.189   7.488 -0.0262  0.3305 -0.1348
   23POPC   PO4  579   6.750   4.052   7.307  0.0046  0.2203 -0.0279
   23POPC   GL1  580   6.686   3.964   6.848  0.4849  0.1365 -0.1724
   23POPC   GL2  581   6.809   4.249   6.706 -0.0516  0.0209 -0.0185
   23POPC   C1A  582   6.638   3.851   6.407  0.0646  0.0395  0.1308
   23POPC   D2A  583   6.427   3.821   5.998  0.0594  0.0763  0.0862
   23POPC   C3A  584   6.790   3.827   5.837 -0.0908 -0.1747 -0.1802
   23POPC   C4A  585   7.000   4.270   5.610 -0.1355  0.0556 -0.0552
   23POPC   C1B  586   7.138   4.265   6.438 -0.1638 -0.0616  0.0323
   23POPC   C2B  587   7.196   4.160   6.073 -0.0536 -0.1466  0.0091
   23POPC   C3B  588   7.473   4.356   5.853  0.3529 -0.1061  0.4325
   23POPC   C4B  589   7.803   4.326   5.498 -0.1178  0.0638  0.0036
   24POPC   NC3  590   6.783   4.521   7.135  0.0454  0.4297  0.0243
   24POPC   PO4  591   6.392   4.389   7.114 -0.2655  0.2068  0.0904
   24POPC   GL1  592   6.309   4.433   6.668 -0.2748  0.0565  0.0844
   24POPC   GL2  593   6.556   4.725   6.681  0.1340  0.3755 -0.2321
   24POPC   C1A  594   6.413   4.264   6.264 -0.4019  0.0063 -0.3821
   24POPC   D2A  595   6.691   4.313   6.059 -0.2428  0.1921  0.0733
   24POPC   C3A  596   6.503   4.214   5.637 -0.1050  0.2418 -0.2148
   24POPC   C4A  597   6.737   4.001   5.339  0.2039  0.0351  0.1040
   24POPC   C1B  598   6.842   4.692   6.369  0.0474 -0.0162  0.0935
   24POPC   C2B  599   7.220   4.730   6.169 -0.1110 -0.0182 -0.0473
   24POPC   C3B  600   7.523   4.840   5.866  0.1580 -0.0756 -0.2111
   24POPC   C4B  601   7.899   4.765   5.721  0.1159 -0.0340 -0.0775
   25POPC   NC3  602   0.026   0.541   7.779  0.1897  0.1327  0.1031
   25POPC   PO4  603   0.215   0.218   7.479  0.2072 -0.1488  0.0309
   25POPC   GL1  604   0.023   0.198   7.051 -0.3474  0.0214  0.0193
   25POPC   GL2  605  -0.146  -0.142   7.036  0.0821 -0.0824  0.0862
   25POPC   C1A  606  -0.246   0.384   6.775  0.0992 -0.0218  0.2747
   25POPC   D2A  607  -0.244   0.460   6.283 -0.4261 -0.3291  0.1502
   25POPC   C3A  608  -0.309   0.011   6.015  0.1077 -0.1193 -0.0805
   25POPC   C4A  609  -0.422  -0.420   5.870  0.0654  0.2683 -0.4270
   25POPC   C1B  610  -0.398  -0.077   6.674 -0.0561  0.1521  0.0651
   25POPC   C2B  611  -0.484  -0.289   6.386  0.3547  0.3385 -0.0337
   25POPC   C3B  612  -0.583  -0.656   6.311 -0.4713 -0.3194 -0.3854
   25POPC   C4B  613  -0.595  -0.958   6.100 -0.0033 -0.1850  0.1338
   26POPC   NC3  614  10.861   9.880   8.033  0.2367 -0.1363  0.3885
   26POPC   PO4  615  10.785  10.135   7.629  0.1135  0.0961 -0.0403
   26POPC   GL1  616  10.465  10.326   7.253 -0.0363 -0.0791  0.3265
   26POPC   GL2  617  10.405  10.555   7.232 -0.0642  0.3587 -0.0294
   26POPC   C1A  618  10.555  10.333   6.791 -0.0632  0.0049  0.1612
   26POPC   D2A  619  10.762  10.032   6.545 -0.1284  0.1385  0.0919
   26POPC   C3A  620  10.831  10.048   6.197  0.0935  0.1392  0.0566
   26POPC   C4A  621  11.112   9.911   5.828  0.0751 -0.0771  0.1981
   26POPC   C1B  622  10.116  10.530   6.912 -0.0306 -0.1464  0.4488
   26POPC   C2B  623   9.923  10.563   6.493 -0.2906  0.2903 -0.0722
   26POPC   C3B  624  10.104  10.816   6.068  0.0125 -0.0403  0.2050
   26POPC   C4B  625  10.165  10.714   5.598 -0.2095  0.0298 -0.2800
   27POPC   NC3  626   2.219   6.342   7.300  0.1445  0.1352  0.3114
   27POPC   PO4  627   2.036   6.795   7.368 -0.0862  0.0634  0.0703
   27POPC   GL1  628   2.125   6.882   6.883  0.2064  0.1010 -0.3089
   27POPC   GL2  629   1.847   7.003   6.783 -0.1808  0.2656  0.1128
   27POPC   C1A  630   2.202   6.694   6.430 -0.1025  0.0817 -0.0252
   27POPC   D2A  631   2.520   6.820   6.371 -0.3198  0.4985  0.3919
   27POPC   C3A  632   2.814   6.801   6.049  0.0862 -0.0950  0.1455
   27POPC   C4A  633   3.210   6.659   5.957  0.1047 -0.0134 -0.2480
   27POPC   C1B  634   1.970   7.162   6.383 -0.1619  0.2054 -0.1554
   27POPC   C2B  635   1.951   7.169   5.950 -0.1017 -0.1222  0.0956
   27POPC   C3B  636   1.831   7.254   5.678 -0.2415  0.0867 -0.0503
   27POPC   C4B  637   1.650   7.552   5.372 -0.0099  0.1671 -0.0114
   28POPC   NC3  638   6.656   8.403   7.421  0.0009 -0.4237  0.1588
   28POPC   PO4  639   7.116   8.379   7.530  0.1660  0.0688 -0.2773
   28POPC   GL1  640   7.113   8.580   7.122 -0.0660 -0.0984 -0.0202
   28POPC   GL2  641   6.771   8.727   7.066  0.0687 -0.3081 -0.0627
   28POPC   C1A  642   7.086   8.569   6.717 -0.1398 -0.2211 -0.1766
   28POPC   D2A  643   7.035   8.592   6.267 -0.0859  0.1323 -0.0223
   28POPC   C3A  644   7.263   8.910   6.206 -0.0940  0.1933  0.0933
   28POPC   C4A  645   7.308   9.085   5.805 -0.0997  0.0231 -0.1162
   28POPC   C1B  646   6.599   8.692   6.641  0.0529  0.0297  0.3093
   28POPC   C2B  647   6.612   8.731   6.168 -0.1168 -0.5539  0.0302
   28POPC   C3B  648   6.811   8.962   5.926  0.1630  0.0711  0.0345
   28POPC   C4B  649   6.839   9.114   5.446  0.0980  0.0089 -0.2107
   29POPC   NC3  650   8.147   7.655   7.270 -0.0779 -0.0879 -0.1809
   29POPC   PO4  651   8.516   7.534   7.005 -0.1080  0.0656 -0.1974
   29POPC   GL1  652   8.725   7.529   6.589  0.3421  0.4474 -0.2216
   29POPC   GL2  653   9.065   7.596   6.643 -0.1084  0.0834 -0.1329
   29POPC   C1A  654   8.685   7.692   6.270  0.1693  0.0013 -0.0347
   29POPC   D2A  655   8.738   7.903   5.931  0.2849  0.1273 -0.3730
   29POPC   C3A  656   8.503   7.860   5.603  0.2854 -0.2786 -0.0092
   29POPC   C4A  657   8.408   7.810   5.164 -0.0881  0.1813  0.2284
   29POPC   C1B  658   9.145   7.784   6.231  0.0511  0.0475 -0.0400
   29POPC   C2B  659   9.175   7.772   5.810 -0.0464 -0.0366  0.1115
   29POPC   C3B  660   9.226   7.651   5.368 -0.1414  0.2160 -0.0611
   29POPC   C4B  661   9.562   7.313   5.233 -0.0545  0.2877 -0.6014
   30POPC   NC3  662   3.383   1.396   8.519  0.1716  0.0606 -0.2307
   30POPC   PO4  663   3.477   1.515   7.990 -0.4232 -0.4264 -0.2042
   30POPC   GL1  664   3.434   1.271   7.672  0.0222  0.3542 -0.0087
   30POPC   GL2  665   3.566   0.949   7.677  0.1953 -0.1183  0.0412
   30POPC   C1A  666   3.318   1.005   7.228 -0.2097 -0.1410 -0.3234
   30POPC   D2A  667   3.330   0.933   6.872 -0.1862  0.2294 -0.1531
   30POPC   C3A  668   3.259   0.543   6.709  0.1231  0.1962 -0.1393
   30POPC   C4A  669   3.147   0.236   6.552 -0.0690  0.1050 -0.1029
   30POPC   C1B  670   3.844   1.078   7.343 -0.0868 -0.2065 -0.0117
   30POPC   C2B  671   3.987   1.095   6.995 -0.3340  0.2445 -0.1420
   30POPC   C3B  672   4.208   1.219   6.606  0.1205  0.3075 -0.0153
   30POPC   C4B  673   4.023   1.208   6.277  0.0643  0.0882 -0.1085
   31POPC   NC3  674   1.410   3.091   7.788 -0.3432 -0.3748 -0.0194
   31POPC   PO4  675   1.806   3.297   7.683 -0.1253 -0.1291  0.2562
   31POPC   GL1  676   1.629   3.455   7.388  0.0561  0.3711  0.4581
   31POPC   GL2  677   1.526   3.183   7.220 -0.0041 -0.1597  0.0338
   31POPC   C1A  678   1.865   3.583   6.966  0.3067  0.1221  0.0957
   31POPC   D2A  679   1.981   3.854   6.622  0.1716  0.0327 -0.1577
   31POPC   C3A  680   2.221   4.020   6.236 -0.0817 -0.1371 -0.1538
   31POPC   C4A  681   2.383   3.771   5.890 -0.5170  0.1384 -0.0702
   31POPC   C1B  682   1.468   3.078   6.836 -0.0073 -0.1023  0.0355
   31POPC   C2B  683   1.249   3.258   6.453 -0.1025  0.3148  0.2861
   31POPC   C3B  684   1.101   3.432   6.010  0.0892  0.0882 -0.0300
   31POPC   C4B  685   1.028   3.407   5.527 -0.2595  0.0855  0.0417
   32POPC   NC3  686   3.047   8.881   7.831 -0.3149  0.1656 -0.3678
   32POPC   PO4  687   3.365   8.649   7.643  0.1059 -0.0611 -0.1857
   32POPC   GL1  688   3.529   8.709   7.299 -0.0820 -0.1564 -0.0725
   32POPC   GL2  689   3.356   8.607   7.060 -0.0071 -0.4282 -0.1193
   32POPC   C1A  690   3.418   9.101   6.910  0.2755 -0.0717  0.0943
   32POPC   D2A  691   3.575   9.482   6.742 -0.1896  0.1527 -0.1570
   32POPC   C3A  692   3.945   9.632   6.821  0.2151 -0.2781  0.1145
   32POPC   C4A  693   4.133   9.677   6.444 -0.2655  0.2420 -0.1011
   32POPC   C1B  694   3.393   8.404   6.640 -0.0759  0.1429 -0.2062
   32POPC   C2B  695   3.689   8.188   6.358  0.0226  0.1534  0.3265
   32POPC   C3B  696   3.840   7.834   6.042 -0.3540  0.0813 -0.0218
   32POPC   C4B  697   3.659   8.022   5.517  0.1601  0.1294  0.0938
   33POPC   NC3  698   9.400   8.204   7.479  0.1817 -0.0031  0.4499
   33POPC   PO4  699   9.333   7.844   7.352  0.2955  0.4244  0.2315
   33POPC   GL1  700   9.437   7.953   6.931  0.0006  0.0204 -0.1492
   33POPC   GL2  701   9.669   8.133   6.915  0.0363 -0.0345 -0.3374
   33POPC   C1A  702   9.627   7.796   6.533  0.0873  0.1961 -0.0785
   33POPC   D2A  703   9.642   7.720   6.004  0.4848  0.0855  0.2365
   33POPC   C3A  704   9.530   7.353   5.755  0.0112  0.2235  0.0988
   33POPC   C4A  705   9.629   6.912   5.575  0.2312  0.2474 -0.2621
   33POPC   C1B  706   9.867   8.246   6.619  0.2181  0.0642 -0.2520
   33POPC   C2B  707   9.953   8.458   6.281 -0.1682 -0.4872 -0.3141
   33POPC   C3B  708  10.286   8.672   5.973 -0.3004  0.1476  0.2103
   33POPC   C4B  709  10.522   8.846   5.671 -0.3091  0.1370 -0.0374
   34POPC   NC3  710   3.577   2.312   7.942 -0.1534  0.1516  0.1450
   34POPC   PO4  711   3.170   2.504   8.134 -0.4594  0.1924 -0.1312
   34POPC   GL1  712   2.950   2.213   7.856 -0.1028  0.3355 -0.3400
   34POPC   GL2  713   3.227   2.163   7.618  0.4513  0.4878 -0.2782
   34POPC   C1A  714   2.763   2.019   7.516  0.1062 -0.2320  0.0796
   34POPC   D2A  715   2.588   1.718   7.211  0.1073  0.4063  0.0188
   34POPC   C3A  716   2.365   1.821   6.827 -0.0981  0.4023 -0.3270
   34POPC   C4A  717   2.029   1.737   6.659 -0.2448 -0.2716 -0.0995
   34POPC   C1B  718   3.224   1.898   7.326  0.0640  0.3262 -0.1813
   34POPC   C2B  719   3.320   1.619   7.209 -0.0105 -0.2022  0.3286
   34POPC   C3B  720   3.542   1.422   6.918  0.1895  0.2089  0.1689
   34POPC   C4B  721   3.652   1.218   6.617  0.0009 -0.1414 -0.0807
   35POPC   NC3  722   5.757   1.483   8.027  0.1458 -0.0848  0.1317
   35POPC   PO4  723   5.433   1.281   7.971  0.1793  0.3598 -0.1909
   35POPC   GL1  724   5.371   1.330   7.546  0.1644  0.0058  0.0007
   35POPC   GL2  725   5.380   1.644   7.533  0.5019  0.0693  0.2350
   35POPC   C1A  726   5.526   1.224   7.114  0.0266 -0.1442 -0.0355
   35POPC   D2A  727   5.784   1.255   6.745  0.0050  0.1502  0.2063
   35POPC   C3A  728   5.981   1.564   6.565  0.0026 -0.0079 -0.1081
   35POPC   C4A  729   6.219   1.871   6.351 -0.1419 -0.1475  0.1903
   35POPC   C1B  730   5.310   1.796   7.123  0.3337 -0.2028  0.2002
   35POPC   C2B  731   5.380   1.803   6.677 -0.2680  0.2797  0.1737
   35POPC   C3B  732   5.175   1.703   6.327 -0.0367 -0.0100 -0.0791
   35POPC   C4B  733   4.919   1.720   6.058  0.0571 -0.0135 -0.0096
   36POPC   NC3  734   8.403   6.527   7.175 -0.0666 -0.0971 -0.0837
   36POPC   PO4  735   8.813   6.632   7.054 -0.0165  0.1969 -0.0507
   36POPC   GL1  736   8.726   6.530   6.626 -0.4228 -0.3698  0.1771
   36POPC   GL2  737   8.377   6.599   6.571  0.1265 -0.0792  0.0937
   36POPC   C1A  738   8.805   6.276   6.190  0.2430 -0.1767  0.1216
   36POPC   D2A  739   8.653   5.994   5.838  0.1757 -0.3096 -0.2729
   36POPC   C3A  740   8.721   5.836   5.461 -0.3414  0.1738  0.1038
   36POPC   C4A  741   8.665   5.738   5.012 -0.1984 -0.2944  0.1269
   36POPC   C1B  742   8.326   6.421   6.132  0.0091 -0.2005 -0.0653
   36POPC   C2B  743   8.348   6.610   5.757  0.0976  0.4548  0.1976
   36POPC   C3B  744   8.489   6.343   5.367  0.0688 -0.0166  0.0108
   36POPC   C4B  745   8.883   6.473   5.247  0.1175 -0.2016 -0.0747
   37POPC   NC3  746   3.327   6.310   7.492 -0.1419 -0.0808  0.0447
   37POPC   PO4  747   3.020   5.999   7.566 -0.1801  0.0355 -0.3409
   37POPC   GL1  748   2.888   5.676   7.259 -0.2073 -0.1474  0.1221
   37POPC   GL2  749   3.025   5.836   7.115 -0.0176 -0.2620  0.0212
   37POPC   C1A  750   2.707   5.322   6.962 -0.1888  0.2165 -0.1422
   37POPC   D2A  751   2.412   5.223   6.714 -0.0108 -0.1571  0.1607
   37POPC   C3A  752   2.163   5.223   6.341  0.0523 -0.0691  0.0185
   37POPC   C4A  753   1.944   5.107   6.021 -0.0154 -0.0575 -0.0239
   37POPC   C1B  754   3.328   5.949   6.792  0.2532 -0.0543 -0.0182
   37POPC   C2B  755   3.466   5.660   6.563  0.0991  0.1599  0.2631
   37POPC   C3B  756   3.635   5.545   6.213 -0.0740  0.0965  0.0700
   37POPC   C4B  757   3.849   5.742   6.004 -0.0358 -0.4351  0.1827
   38POPC   NC3  758   7.879  10.737   7.415 -0.0679 -0.1575  0.2067
   38POPC   PO4  759   8.213  10.387   7.450 -0.1332 -0.3834  0.1195
   38POPC   GL1  760   8.368  10.394   7.015  0.1978 -0.0723 -0.1543
   38POPC   GL2  761   8.160  10.625   6.995 -0.1195 -0.1658 -0.0245
   38POPC   C1A  762   8.419  10.593   6.523 -0.0919  0.0580  0.2627
   38POPC   D2A  763   8.316  10.623   6.157 -0.1878 -0.2374 -0.1016
   38POPC   C3A  764   8.095  10.509   5.789 -0.1725  0.0678  0.0921
   38POPC   C4A  765   8.041  10.243   5.637 -0.1781 -0.0926 -0.0631
   38POPC   C1B  766   7.892  10.506   6.739 -0.1280 -0.1160  0.0783
   38POPC   C2B  767   7.668  10.657   6.370 -0.1915  0.1556  0.0779
   38POPC   C3B  768   7.436  10.837   6.027 -0.1299 -0.0935 -0.1008
   38POPC   C4B  769   7.087  10.769   5.917 -0.1168 -0.0795 -0.3723
   39POPC   NC3  770   7.386   7.732   7.624  0.1370 -0.0002 -0.0623
   39POPC   PO4  771   7.630   7.573   7.314 -0.0456  0.0758 -0.0564
   39POPC   GL1  772   7.830   7.615   6.861  0.0017 -0.0059 -0.0021
   39POPC   GL2  773   7.982   7.297   6.839 -0.1465  0.4446 -0.1865
   39POPC   C1A  774   7.818   7.719   6.527  0.0081  0.0108  0.0583
   39POPC   D2A  775   7.867   8.121   6.421 -0.0157  0.0494 -0.0181
   39POPC   C3A  776   7.793   8.285   5.978 -0.1243  0.0339 -0.1064
   39POPC   C4A  777   7.608   8.190   5.554  0.0104 -0.2354  0.2270
   39POPC   C1B  778   8.207   7.340   6.460 -0.0067  0.2979 -0.2100
   39POPC   C2B  779   8.480   7.302   6.061 -0.0954 -0.0303 -0.0633
   39POPC   C3B  780   8.330   7.395   5.693 -0.1000 -0.1013  0.0171
   39POPC   C4B  781   8.075   7.426   5.329 -0.2696 -0.0722  0.0950
   40POPC   NC3  782   6.501   5.327   6.913  0.0170  0.0490  0.0034
   40POPC   PO4  783   6.514   5.735   7.060  0.0069  0.1579 -0.1953
   40POPC   GL1  784   6.586   6.057   6.797  0.2450 -0.2262 -0.5693
   40POPC   GL2  785   6.896   6.206   6.677 -0.0108  0.1293 -0.0574
   40POPC   C1A  786   6.374   6.163   6.401 -0.3264 -0.0277 -0.2694
   40POPC   D2A  787   6.587   6.296   6.006  0.1020  0.5373 -0.0359
   40POPC   C3A  788   6.927   6.518   5.782 -0.3260 -0.1418 -0.2480
   40POPC   C4A  789   7.347   6.661   5.500  0.0017 -0.0973 -0.0086
   40POPC   C1B  790   7.093   6.193   6.236  0.0637  0.0786 -0.1716
   40POPC   C2B  791   7.302   6.736   6.101  0.0821  0.1152 -0.1207
   40POPC   C3B  792   7.248   7.140   6.261 -0.1236 -0.0405  0.0335
   40POPC   C4B  793   7.354   7.507   6.373 -0.3446 -0.3095 -0.1532
   41POPC   NC3  794  10.431   4.587   7.740 -0.0699 -0.1423 -0.0971
   41POPC   PO4  795  10.247   4.219   7.554 -0.2107  0.3060 -0.2820
   41POPC   GL1  796  10.487   4.166   7.190 -0.6304  0.0184 -0.0923
   41POPC   GL2  797  10.577   4.431   7.130 -0.1891  0.3077 -0.1491
   41POPC   C1A  798  10.381   4.114   6.774  0.3288  0.2975  0.1046
   41POPC   D2A  799  10.077   3.845   6.597 -0.0847  0.3263 -0.0436
   41POPC   C3A  800   9.626   3.898   6.442 -0.0582  0.0872  0.1056
   41POPC   C4A  801   9.196   3.988   6.332  0.1483 -0.1513 -0.0992
   41POPC   C1B  802  10.748   4.525   6.681 -0.0808  0.1173 -0.3188
   41POPC   C2B  803  10.866   4.503   6.248 -0.1628  0.3877 -0.0557
   41POPC   C3B  804  10.731   4.229   5.926 -0.3029  0.1973  0.3406
   41POPC   C4B  805  10.830   4.117   5.636  0.2183 -0.0225 -0.1624
   42POPC   NC3  806   7.957   3.878   7.616  0.0619 -0.0287 -0.0231
   42POPC   PO4  807   7.613   4.187   7.535 -0.0581 -0.3425 -0.1182
   42POPC   GL1  808   7.489   4.193   7.103 -0.3138 -0.3924  0.3412
   42POPC   GL2  809   7.264   4.115   7.034 -0.2081 -0.2967  0.2415
   42POPC   C1A  810   7.602   4.161   6.645  0.1859  0.0775 -0.0920
   42POPC   D2A  811   7.660   3.813   6.315  0.0185  0.0178 -0.0046
   42POPC   C3A  812   7.414   3.751   5.912 -0.1019  0.0276 -0.3367
   42POPC   C4A  813   7.359   3.875   5.617  0.4556 -0.0749  0.1087
   42POPC   C1B  814   7.228   3.835   6.717  0.1992 -0.0373 -0.0572
   42POPC   C2B  815   7.203   3.651   6.361 -0.0057 -0.0409  0.0852
   42POPC   C3B  816   6.884   3.493   6.165 -0.1450 -0.0468  0.1034
   42POPC   C4B  817   6.566   3.290   5.889 -0.2063  0.2446 -0.0154
   43POPC   NC3  818   7.013   6.463   7.500  0.1506 -0.2524 -0.0335
   43POPC   PO4  819   6.782   6.475   7.089 -0.0164  0.0479  0.0372
   43POPC   GL1  820   6.518   6.568   6.754  0.0207  0.0597  0.0522
   43POPC   GL2  821   6.780   6.605   6.485  0.0485  0.0304 -0.2121
   43POPC   C1A  822   6.158   6.583   6.557 -0.1338 -0.0442 -0.0624
   43POPC   D2A  823   5.933   6.832   6.298 -0.1770 -0.1341  0.0319
   43POPC   C3A  824   5.953   7.020   5.863 -0.1282 -0.1477 -0.0821
   43POPC   C4A  825   6.097   6.969   5.393  0.3209 -0.1763 -0.0249
   43POPC   C1B  826   6.844   6.866   6.184  0.0477  0.3179 -0.1684
   43POPC   C2B  827   6.738   7.145   5.772 -0.1072  0.0564  0.1269
   43POPC   C3B  828   6.893   7.443   5.522 -0.3643 -0.0961 -0.0432
   43POPC   C4B  829   6.859   7.789   5.375  0.1217 -0.0856  0.1140
   44POPC   NC3  830   1.360   0.969   7.292 -0.1449 -0.0663 -0.3510
   44POPC   PO4  831   1.002   1.172   7.144  0.1044 -0.0439 -0.0590
   44POPC   GL1  832   0.987   1.439   6.824 -0.1251 -0.2269 -0.1378
   44POPC   GL2  833   0.660   1.707   6.816 -0.1452 -0.0697 -0.0643
   44POPC   C1A  834   1.125   1.895   6.798  0.1224  0.3120  0.1602
   44POPC   D2A  835   1.317   2.094   6.439  0.0990  0.0090 -0.4569
   44POPC   C3A  836   1.060   2.428   6.337 -0.2301 -0.1998  0.1051
   44POPC   C4A  837   0.817   2.433   5.946 -0.0340  0.1099 -0.0491
   44POPC   C1B  838   0.569   1.515   6.519  0.0328  0.0051 -0.3031
   44POPC   C2B  839   0.609   1.484   6.073 -0.1308 -0.1298 -0.0459
   44POPC   C3B  840   0.525   1.406   5.653 -0.0041 -0.1963  0.3394
   44POPC   C4B  841   0.501   1.309   5.287  0.2953  0.0039 -0.1763
   45POPC   NC3  842   1.185   4.590   7.906  0.1148  0.0132  0.1826
   45POPC   PO4  843   0.675   4.599   7.663  0.6157  0.5443 -0.2699
   45POPC   GL1  844   0.630   4.447   7.187  0.1750  0.1930 -0.0450
   45POPC   GL2  845   0.978   4.392   7.027  0.0561  0.0928 -0.1502
   45POPC   C1A  846   0.373   4.564   6.875  0.1547 -0.0499 -0.1775
   45POPC   D2A  847   0.340   4.632   6.452  0.1674 -0.1615  0.1581
   45POPC   C3A  848   0.497   4.392   6.165  0.3236  0.1911  0.1036
   45POPC   C4A  849   0.352   4.125   5.876 -0.2433 -0.1873 -0.1218
   45POPC   C1B  850   1.053   4.047   6.761 -0.4482 -0.4065 -0.1691
   45POPC   C2B  851   1.211   3.885   6.360 -0.2670  0.2577 -0.0909
   45POPC   C3B  852   1.373   3.861   5.920  0.2571  0.2032  0.0466
   45POPC   C4B  853   1.626   3.924   5.599  0.2893 -0.0384 -0.0345
   46POPC   NC3  854   9.788   5.603   7.899 -0.0271  0.3564  0.0876
   46POPC   PO4  855   9.769   5.868   7.485  0.4581 -0.1742  0.1391
   46POPC   GL1  856   9.829   5.807   7.034 -0.3501 -0.0348  0.1661
   46POPC   GL2  857   9.952   5.492   6.972 -0.0287 -0.1070 -0.0657
   46POPC   C1A  858   9.887   5.936   6.530 -0.1496  0.0266 -0.0509
   46POPC   D2A  859  10.060   6.179   6.133  0.6803  0.3760 -0.0606
   46POPC   C3A  860  10.446   6.227   6.073  0.1410  0.2102  0.2625
   46POPC   C4A  861  10.476   6.378   5.670  0.0056  0.1012 -0.0496
   46POPC   C1B  862  10.043   5.464   6.477  0.1164  0.3514 -0.0160
   46POPC   C2B  863   9.952   5.487   6.136  0.0838 -0.1314  0.1628
   46POPC   C3B  864  10.046   5.470   5.731  0.2317  0.2562 -0.3186
   46POPC   C4B  865   9.971   5.544   5.359  0.0885 -0.3065  0.1011
   47POPC   NC3  866   8.692   9.089   7.633 -0.3772 -0.1262 -0.1200
   47POPC   PO4  867   8.811   8.884   7.266  0.0224 -0.1393 -0.0429
   47POPC   GL1  868   8.628   9.039   6.860  0.0466  0.0006 -0.0238
   47POPC   GL2  869   8.758   8.732   6.660 -0.1114 -0.0518  0.0514
   47POPC   C1A  870   8.466   9.163   6.373 -0.1514 -0.2355  0.0299
   47POPC   D2A  871   8.614   9.243   5.940  0.0743  0.3393 -0.1856
   47POPC   C3A  872   9.035   9.416   5.885 -0.0916 -0.0349 -0.1621
   47POPC   C4A  873   9.457   9.660   5.625  0.1704 -0.0237  0.0656
   47POPC   C1B  874   8.670   8.687   6.308 -0.0231 -0.1143 -0.0316
   47POPC   C2B  875   8.341   8.802   6.004  0.2224 -0.1921  0.0787
   47POPC   C3B  876   8.130   8.657   5.716  0.1662 -0.0438  0.0878
   47POPC   C4B  877   8.082   8.314   5.455 -0.1051  0.0171 -0.3668
   48POPC   NC3  878   0.244   8.831   7.749  0.2305  0.0281 -0.0690
   48POPC   PO4  879   0.554   8.781   7.382 -0.2111 -0.1146  0.2889
   48POPC   GL1  880   0.816   8.672   6.975  0.1766 -0.1186  0.1419
   48POPC   GL2  881   0.816   9.007   6.983  0.0524 -0.1435 -0.0939
   48POPC   C1A  882   0.733   8.796   6.480 -0.0713  0.3078  0.0876
   48POPC   D2A  883   0.539   8.579   6.035 -0.5373  0.0345  0.3779
   48POPC   C3A  884   0.550   8.400   5.684 -0.0960 -0.1077 -0.0753
   48POPC   C4A  885   0.549   8.033   5.444 -0.0145  0.0872 -0.1582
   48POPC   C1B  886   0.841   9.272   6.541  0.0050  0.1175  0.2260
   48POPC   C2B  887   0.722   9.257   6.064  0.4543 -0.3344  0.1275
   48POPC   C3B  888   0.683   9.693   5.926 -0.1276 -0.0576 -0.1808
   48POPC   C4B  889   0.676  10.083   5.899 -0.1742  0.1020 -0.0002
   49POPC   NC3  890   8.812   7.938   7.165 -0.0997  0.2484  0.2049
   49POPC   PO4  891   8.935   8.369   7.400 -0.2123  0.2249  0.2245
   49POPC   GL1  892   8.969   8.386   7.002 -0.1275  0.1474 -0.2467
   49POPC   GL2  893   9.192   8.684   6.901 -0.0526  0.4481  0.1645
   49POPC   C1A  894   9.084   8.260   6.620 -0.1210 -0.1673  0.1347
   49POPC   D2A  895   9.455   8.231   6.358  0.0470 -0.1273 -0.2161
   49POPC   C3A  896   9.431   8.258   5.959 -0.2944  0.1424 -0.0013
   49POPC   C4A  897   9.585   8.156   5.551 -0.0415 -0.3967 -0.0479
   49POPC   C1B  898   9.251   8.711   6.463  0.0501  0.3745  0.1341
   49POPC   C2B  899   9.518   8.748   6.156 -0.0556  0.0922 -0.2181
   49POPC   C3B  900   9.659   8.608   5.768  0.0679  0.0164 -0.4155
   49POPC   C4B  901   9.974   8.457   5.407  0.2261 -0.0530  0.1053
   50POPC   NC3  902   9.073   4.252   7.088  0.0388 -0.5033 -0.2194
   50POPC   PO4  903   9.537   4.248   7.352 -0.2531  0.0614 -0.2981
   50POPC   GL1  904   9.575   4.452   6.992  0.1894 -0.0532 -0.2313
   50POPC   GL2  905   9.956   4.481   6.880 -0.0402 -0.1712 -0.1859
   50POPC   C1A  906   9.472   4.482   6.590  0.3715 -0.2858 -0.0481
   50POPC   D2A  907   9.274   4.430   6.186  0.0307  0.0657  0.2154
   50POPC   C3A  908   9.395   4.779   5.899  0.1807 -0.1779  0.1957
   50POPC   C4A  909   9.120   4.930   5.573  0.1013  0.0390 -0.0175
   50POPC   C1B  910   9.984   4.310   6.474 -0.2740  0.0292 -0.3416
   50POPC   C2B  911   9.787   4.312   6.093  0.2926 -0.0774  0.3319
   50POPC   C3B  912   9.885   4.683   5.711 -0.0247  0.2656  0.0300
   50POPC   C4B  913   9.837   4.754   5.308 -0.2035 -0.0034 -0.0020
   51POPC   NC3  914   9.968  10.554   7.584 -0.1960 -0.1024  0.1092
   51POPC   PO4  915  10.108  10.914   7.623  0.0920 -0.0448  0.2944
   51POPC   GL1  916  10.045  10.955   7.167 -0.1270 -0.2414 -0.3376
   51POPC   GL2  917  10.227  11.223   7.069 -0.3674  0.0314 -0.0741
   51POPC   C1A  918   9.747  10.883   6.793 -0.0325  0.1345 -0.0234
   51POPC   D2A  919   9.755  11.048   6.397  0.0576 -0.2790  0.0818
   51POPC   C3A  920   9.591  10.740   6.011 -0.0922  0.0635  0.1116
   51POPC   C4A  921   9.609  10.428   5.697  0.2149  0.0434  0.1905
   51POPC   C1B  922  10.207  11.156   6.567  0.0693  0.1076  0.1621
   51POPC   C2B  923  10.185  11.291   6.154 -0.0462  0.1472  0.3637
   51POPC   C3B  924  10.217  11.160   5.724 -0.1692 -0.0168 -0.1722
   51POPC   C4B  925  10.605  11.175   5.413 -0.0485 -0.1850  0.2643
   52POPC   NC3  926   1.356   0.023   6.778  0.0178  0.2521  0.0187
   52POPC   PO4  927   1.177   0.350   6.638  0.1305 -0.0397 -0.1262
   52POPC   GL1  928   0.713   0.617   6.701 -0.2017  0.2485 -0.3399
   52POPC   GL2  929   0.703   0.926   6.581  0.0069 -0.1960 -0.6139
   52POPC   C1A  930   0.314   0.679   6.714 -0.0242  0.0764  0.0292
   52POPC   D2A  931  -0.093   0.882   6.622 -0.0202 -0.0586  0.1262
   52POPC   C3A  932  -0.156   1.034   6.231  0.1071  0.1274  0.1514
   52POPC   C4A  933  -0.113   0.996   5.646 -0.2148 -0.0514  0.0400
   52POPC   C1B  934   0.424   1.059   6.300  0.2763  0.3387 -0.1163
   52POPC   C2B  935   0.182   1.270   5.948  0.1953 -0.0156 -0.0408
   52POPC   C3B  936   0.111   1.731   5.903 -0.1028 -0.2083  0.4542
   52POPC   C4B  937   0.052   2.167   5.951 -0.0999  0.1289  0.3541
   53POPC   NC3  938   2.412   7.146   7.181  0.0663 -0.3053  0.1096
   53POPC   PO4  939   2.516   6.721   7.233  0.0165  0.0365  0.2503
   53POPC   GL1  940   2.427   6.458   6.853  0.0685  0.1703  0.3195
   53POPC   GL2  941   2.743   6.536   6.747 -0.0134 -0.1334 -0.2631
   53POPC   C1A  942   2.339   6.210   6.572 -0.0670  0.0773 -0.2293
   53POPC   D2A  943   2.303   6.105   6.114 -0.1846  0.0614 -0.2986
   53POPC   C3A  944   2.477   6.405   5.904 -0.1022 -0.1263 -0.0076
   53POPC   C4A  945   2.312   6.872   5.908 -0.0067  0.0801  0.1636
   53POPC   C1B  946   2.765   6.383   6.361 -0.3684  0.2458 -0.1880
   53POPC   C2B  947   2.978   6.198   6.057  0.1790 -0.2510 -0.0498
   53POPC   C3B  948   3.194   5.979   5.786 -0.1902  0.2050  0.0047
   53POPC   C4B  949   3.377   5.604   5.823 -0.3657 -0.1174 -0.0498
   54POPC   NC3  950   2.087   9.432   7.069  0.1528  0.3292 -0.3102
   54POPC   PO4  951   1.842   9.263   7.306 -0.3546 -0.1238  0.0768
   54POPC   GL1  952   1.777   9.071   6.827 -0.0124  0.2402 -0.2082
   54POPC   GL2  953   1.696   9.313   6.802 -0.0558  0.1386  0.1789
   54POPC   C1A  954   1.826   8.915   6.369  0.2160  0.0350 -0.3528
   54POPC   D2A  955   1.788   8.600   6.055 -0.2701 -0.2286  0.0365
   54POPC   C3A  956   1.481   8.627   5.748 -0.1551 -0.5526  0.1871
   54POPC   C4A  957   0.990   8.501   5.547 -0.1244  0.0254  0.1044
   54POPC   C1B  958   1.403   9.171   6.451  0.2564 -0.0079 -0.1961
   54POPC   C2B  959   1.183   9.006   6.223  0.1299  0.0549  0.0339
   54POPC   C3B  960   0.902   8.873   5.878 -0.2685 -0.1681  0.0448
   54POPC   C4B  961   0.604   9.050   5.645  0.1299  0.0707 -0.1579
   55POPC   NC3  962   2.139   2.613   8.115 -0.1765  0.2013  0.1756
   55POPC   PO4  963   2.049   2.216   7.973  0.1032 -0.1477  0.0617
   55POPC   GL1  964   2.261   2.391   7.610  0.1060 -0.1246  0.0025
   55POPC   GL2  965   2.408   2.521   7.495 -0.3822 -0.1612  0.1877
   55POPC   C1A  966   2.152   2.241   7.197  0.2932 -0.1610  0.2280
   55POPC   D2A  967   2.015   2.223   6.689 -0.0908  0.1503 -0.2951
   55POPC   C3A  968   2.076   2.635   6.476 -0.2345 -0.2464  0.4080
   55POPC   C4A  969   1.841   2.934   6.236 -0.2429  0.1732  0.0952
   55POPC   C1B  970   2.600   2.422   7.186  0.2886 -0.0830  0.0360
   55POPC   C2B  971   2.946   2.576   7.012  0.0043  0.1311  0.0692
   55POPC   C3B  972   3.320   2.479   7.019 -0.0724 -0.0037 -0.0934
   55POPC   C4B  973   3.460   2.476   6.727  0.2915 -0.3830  0.3423
   56POPC   NC3  974   8.396   3.771   7.150 -0.2270 -0.1445  0.0677
   56POPC   PO4  975   8.199   3.439   7.330 -0.2434 -0.2463  0.1251
   56POPC   GL1  976   8.377   3.242   6.914  0.2019 -0.2389 -0.3278
   56POPC   GL2  977   8.821   3.095   6.942  0.0561 -0.4188  0.1012
   56POPC   C1A  978   8.484   3.299   6.416  0.0657  0.0867  0.1107
   56POPC   D2A  979   8.401   3.314   5.956  0.0472 -0.1402 -0.0621
   56POPC   C3A  980   8.059   3.064   5.831 -0.1753  0.0674 -0.0342
   56POPC   C4A  981   7.943   2.716   5.713  0.0739  0.1389  0.0417
   56POPC   C1B  982   9.005   3.053   6.584 -0.0666  0.0966  0.3546
   56POPC   C2B  983   9.373   2.991   6.388 -0.0718  0.1537  0.0850
   56POPC   C3B  984   9.576   3.147   6.082 -0.1422 -0.0344  0.4608
   56POPC   C4B  985   9.490   3.389   5.707  0.3383  0.0224 -0.1138
   57POPC   NC3  986   6.168   4.144   7.590  0.0820  0.2436 -0.0270
   57POPC   PO4  987   5.772   4.276   7.386 -0.5834 -0.0763 -0.1478
   57POPC   GL1  988   5.617   4.136   6.928  0.1216  0.1168  0.1112
   57POPC   GL2  989   5.705   3.715   6.792  0.0673 -0.2778  0.0913
   57POPC   C1A  990   5.465   4.110   6.584  0.0054 -0.2391 -0.1455
   57POPC   D2A  991   5.262   4.026   6.234 -0.0068  0.1640 -0.0642
   57POPC   C3A  992   4.828   4.046   6.230 -0.3288  0.0663 -0.1555
   57POPC   C4A  993   4.523   3.852   6.425 -0.2646  0.0935 -0.0420
   57POPC   C1B  994   5.519   3.550   6.433 -0.0382 -0.2165  0.0950
   57POPC   C2B  995   5.494   3.568   6.083 -0.4512 -0.1994  0.0435
   57POPC   C3B  996   5.657   3.817   5.698  0.2951 -0.2080 -0.1435
   57POPC   C4B  997   5.757   4.173   5.311  0.1986  0.1620 -0.2629
   58POPC   NC3  998   0.062   5.222   7.426  0.2043  0.2548  0.0266
   58POPC   PO4  999  -0.296   4.963   7.436 -0.2119  0.0021  0.1914
   58POPC   GL1 1000  -0.139   4.958   7.039 -0.1989  0.1330  0.0495
   58POPC   GL2 1001   0.259   5.037   6.946 -0.0500  0.0615 -0.3288
   58POPC   C1A 1002  -0.325   5.014   6.688 -0.0467  0.0921 -0.1590
   58POPC   D2A 1003  -0.167   4.968   6.228  0.0797  0.1748  0.0927
   58POPC   C3A 1004   0.211   4.910   6.065 -0.0585  0.1255 -0.0848
   58POPC   C4A 1005   0.587   5.149   5.948  0.1179 -0.3999 -0.0883
   58POPC   C1B 1006   0.253   5.231   6.545  0.2127  0.0200  0.3570
   58POPC   C2B 1007   0.250   5.506   6.117 -0.2270  0.2000 -0.4164
   58POPC   C3B 1008   0.061   5.319   5.877 -0.2505  0.0952 -0.1040
   58POPC   C4B 1009   0.175   4.984   5.561  0.0443 -0.2217 -0.3681
   59POPC   NC3 1010   5.186   1.714   7.980  0.3725 -0.0365  0.0854
   59POPC   PO4 1011   4.842   1.757   8.266  0.4946  0.0934  0.1017
   59POPC   GL1 1012   4.610   1.629   7.853  0.0189 -0.1175 -0.0703
   59POPC   GL2 1013   4.759   1.701   7.570 -0.1708  0.1911 -0.0562
   59POPC   C1A 1014   4.376   1.411   7.446 -0.3517  0.1028 -0.1113
   59POPC   D2A 1015   4.491   1.424   6.955  0.0471 -0.1512 -0.2626
   59POPC   C3A 1016   4.532   1.863   7.013 -0.2529  0.0669 -0.0922
   59POPC   C4A 1017   4.939   2.056   6.861 -0.1144 -0.0484  0.2338
   59POPC   C1B 1018   4.858   1.554   7.175 -0.0182 -0.3296 -0.1065
   59POPC   C2B 1019   4.927   1.568   6.734  0.1256 -0.0913 -0.1808
   59POPC   C3B 1020   4.648   1.548   6.477 -0.2911  0.2774  0.4247
   59POPC   C4B 1021   4.448   1.558   6.006  0.0932  0.0409 -0.0338
   60POPC   NC3 1022   3.864   9.322   7.802  0.2002 -0.0060  0.1421
   60POPC   PO4 1023   4.252   9.273   7.682  0.1315 -0.0957 -0.0980
   60POPC   GL1 1024   4.527   9.246   7.426  0.2877 -0.0733 -0.1662
   60POPC   GL2 1025   4.763   9.435   7.355 -0.1210 -0.0775  0.0878
   60POPC   C1A 1026   4.764   9.027   7.040 -0.0625  0.0074 -0.0221
   60POPC   D2A 1027   4.967   9.049   6.614  0.1630 -0.1821 -0.1206
   60POPC   C3A 1028   5.058   9.440   6.358  0.2917 -0.2724  0.0618
   60POPC   C4A 1029   5.116   9.737   6.010 -0.2768 -0.1645 -0.4365
   60POPC   C1B 1030   4.601   9.708   7.001 -0.1975  0.1453  0.1129
   60POPC   C2B 1031   4.588   9.801   6.570  0.0293 -0.1596 -0.0690
   60POPC   C3B 1032   4.941  10.046   6.355 -0.0012  0.0728 -0.0920
   60POPC   C4B 1033   5.410  10.181   6.308  0.2088 -0.0899 -0.2304
   61POPC   NC3 1034   7.062   9.267   7.406  0.0724  0.0092 -0.0685
   61POPC   PO4 1035   7.507   9.408   7.349 -0.0934  0.1709  0.2010
   61POPC   GL1 1036   7.413   9.564   7.039  0.2854 -0.0991 -0.2877
   61POPC   GL2 1037   7.691   9.577   6.903 -0.3050 -0.0465  0.3839
   61POPC   C1A 1038   7.033   9.593   6.694  0.0763  0.1049  0.0129
   61POPC   D2A 1039   7.048   9.885   6.322 -0.0287 -0.3021 -0.0937
   61POPC   C3A 1040   6.761   9.894   5.903  0.1203 -0.0111 -0.2592
   61POPC   C4A 1041   6.677  10.133   5.525  0.2611  0.2096 -0.0155
   61POPC   C1B 1042   7.461   9.691   6.520 -0.0247 -0.2934 -0.0886
   61POPC   C2B 1043   7.521   9.833   6.079  0.3471 -0.1368 -0.0614
   61POPC   C3B 1044   7.636   9.930   5.671  0.1816  0.4353 -0.0113
   61POPC   C4B 1045   7.669  10.058   5.269  0.1911 -0.2684 -0.1320
   62POPC   NC3 1046   7.012   5.998   7.190  0.2878 -0.2114 -0.2470
   62POPC   PO4 1047   7.211   5.907   6.953  0.0483  0.1161 -0.3045
   62POPC   GL1 1048   7.076   5.706   6.615  0.0512 -0.0852  0.0254
   62POPC   GL2 1049   6.773   5.594   6.699  0.0798 -0.0259  0.1955
   62POPC   C1A 1050   7.166   5.638   6.255 -0.2265  0.0651 -0.2611
   62POPC   D2A 1051   7.572   5.906   6.128 -0.4156 -0.0217  0.2151
   62POPC   C3A 1052   7.712   5.801   5.711 -0.2471  0.0435 -0.1177
   62POPC   C4A 1053   7.853   5.576   5.359 -0.1915  0.0822 -0.2219
   62POPC   C1B 1054   6.640   5.751   6.268  0.1118  0.1539  0.0179
   62POPC   C2B 1055   6.813   5.810   5.839 -0.3436 -0.0612  0.0480
   62POPC   C3B 1056   7.204   5.981   5.762  0.0714 -0.0970 -0.1735
   62POPC   C4B 1057   7.482   6.258   5.826 -0.1317  0.2202 -0.0389
   63POPC   NC3 1058   5.170   6.417   7.105  0.0196  0.3136 -0.0506
   63POPC   PO4 1059   4.837   6.592   7.338  0.0409  0.0297 -0.1544
   63POPC   GL1 1060   4.784   6.785   6.876 -0.2732  0.0354 -0.2705
   63POPC   GL2 1061   4.825   7.132   7.045  0.0201  0.2219 -0.2831
   63POPC   C1A 1062   4.569   7.114   6.630 -0.1206  0.0576 -0.1248
   63POPC   D2A 1063   4.164   7.244   6.653 -0.3615  0.0263  0.0506
   63POPC   C3A 1064   4.004   7.477   6.353 -0.2184  0.1647  0.2158
   63POPC   C4A 1065   3.993   7.391   5.970 -0.1273  0.0566  0.2971
   63POPC   C1B 1066   5.111   7.124   6.615  0.2273 -0.0975 -0.1173
   63POPC   C2B 1067   4.950   7.094   6.218  0.0630  0.5111 -0.1422
   63POPC   C3B 1068   4.909   7.208   5.766 -0.0920  0.0773 -0.2309
   63POPC   C4B 1069   4.676   7.198   5.451 -0.1253 -0.0688  0.2105
   64POPC   NC3 1070   1.403   9.219   7.426 -0.1185  0.2278  0.3286
   64POPC   PO4 1071   1.266   9.123   7.025 -0.1918  0.1608 -0.0092
   64POPC   GL1 1072   1.418   8.718   6.800 -0.1179 -0.0300 -0.1555
   64POPC   GL2 1073   1.458   8.654   6.448  0.0955 -0.1007  0.2466
   64POPC   C1A 1074   1.873   8.566   6.732 -0.1664 -0.1299  0.0485
   64POPC   D2A 1075   2.177   8.516   6.345  0.1963  0.1094 -0.1755
   64POPC   C3A 1076   2.142   8.229   6.051 -0.2027  0.2102 -0.2254
   64POPC   C4A 1077   2.437   8.052   5.751  0.3258 -0.1062  0.2351
   64POPC   C1B 1078   1.137   8.471   6.077 -0.0216  0.1103  0.1756
   64POPC   C2B 1079   1.115   8.119   5.795  0.0514  0.1923  0.0248
   64POPC   C3B 1080   0.890   7.832   5.768  0.0633  0.0428  0.0290
   64POPC   C4B 1081   0.536   7.547   5.701 -0.3330 -0.0322 -0.2963
   65POPC   NC3 1082   7.787   6.083   7.013  0.3894 -0.0014  0.1134
   65POPC   PO4 1083   8.000   6.519   6.912 -0.0202 -0.4169  0.1534
   65POPC   GL1 1084   7.837   6.726   6.590 -0.0641 -0.1735 -0.1352
   65POPC   GL2 1085   7.613   6.917   6.527  0.0375 -0.0297  0.1822
   65POPC   C1A 1086   8.167   6.898   6.160  0.2888 -0.0081  0.1602
   65POPC   D2A 1087   8.003   7.072   5.845  0.0159  0.0410  0.0289
   65POPC   C3A 1088   7.588   7.045   5.857  0.0832 -0.1090  0.1142
   65POPC   C4A 1089   7.215   7.069   5.745 -0.0990  0.1882  0.0495
   65POPC   C1B 1090   7.760   7.207   6.300 -0.4737 -0.1813 -0.1740
   65POPC   C2B 1091   7.930   7.513   6.032 -0.0341 -0.4160  0.1081
   65POPC   C3B 1092   7.987   7.841   5.677 -0.2490  0.2355 -0.4061
   65POPC   C4B 1093   7.840   7.896   5.238  0.1093 -0.1416  0.2328
   66POPC   NC3 1094   3.983   6.964   7.201 -0.3302 -0.3046 -0.1073
   66POPC   PO4 1095   3.788   6.527   7.310 -0.1827  0.1749  0.1517
   66POPC   GL1 1096   3.891   6.664   6.799  0.1857 -0.0523 -0.1645
   66POPC   GL2 1097   3.773   6.389   6.723  0.2668  0.2108  0.0182
   66POPC   C1A 1098   4.171   6.821   6.420  0.0290  0.2598  0.2347
   66POPC   D2A 1099   4.449   6.913   6.119 -0.1199  0.0026  0.1208
   66POPC   C3A 1100   4.307   7.074   5.732  0.1663 -0.0984  0.4028
   66POPC   C4A 1101   4.172   7.367   5.394  0.2723  0.0743  0.1277
   66POPC   C1B 1102   3.842   6.512   6.237 -0.1451 -0.1910 -0.0901
   66POPC   C2B 1103   4.040   6.678   5.945 -0.1896 -0.1674 -0.1659
   66POPC   C3B 1104   4.410   6.622   5.728 -0.3251 -0.1450 -0.0497
   66POPC   C4B 1105   4.758   6.752   5.612 -0.2318  0.0914 -0.0335
   67POPC   NC3 1106   1.155   8.513   8.136 -0.2916 -0.2066 -0.1705
   67POPC   PO4 1107   1.286   8.447   7.636  0.1657 -0.4414 -0.2645
   67POPC   GL1 1108   1.216   8.375   7.061 -0.1032 -0.0193 -0.3035
   67POPC   GL2 1109   1.273   8.034   6.948  0.1762  0.2299 -0.0336
   67POPC   C1A 1110   0.942   8.259   6.709 -0.1192  0.0098  0.2775
   67POPC   D2A 1111   1.200   8.200   6.458  0.1388  0.1277  0.0534
   67POPC   C3A 1112   1.239   7.837   6.150 -0.0243 -0.2100  0.0398
   67POPC   C4A 1113   1.372   7.659   5.780  0.0569 -0.2218  0.0757
   67POPC   C1B 1114   1.643   8.137   6.750  0.0934 -0.1065 -0.0281
   67POPC   C2B 1115   1.723   8.122   6.384 -0.0772 -0.0951 -0.2187
   67POPC   C3B 1116   1.660   8.143   5.896 -0.2928  0.1886 -0.1799
   67POPC   C4B 1117   1.628   8.051   5.428  0.0650 -0.2565 -0.0746
   68POPC   NC3 1118  10.727   3.945   7.559  0.2833 -0.1934 -0.0860
   68POPC   PO4 1119  10.817   4.365   7.583 -0.0578 -0.0247 -0.0423
   68POPC   GL1 1120  11.045   4.183   7.155  0.2441  0.1868  0.2843
   68POPC   GL2 1121  10.923   3.882   6.969  0.2705  0.2072 -0.2986
   68POPC   C1A 1122  11.397   4.021   6.919 -0.3350 -0.0447  0.1278
   68POPC   D2A 1123  11.473   4.004   6.559 -0.2205  0.0454  0.1224
   68POPC   C3A 1124  11.722   4.391   6.528 -0.0666  0.1615 -0.0523
   68POPC   C4A 1125  11.798   4.720   6.208 -0.0317 -0.0095  0.1607
   68POPC   C1B 1126  10.966   4.108   6.629 -0.2883  0.1115 -0.1762
   68POPC   C2B 1127  10.651   4.041   6.391  0.0850  0.1651  0.0776
   68POPC   C3B 1128  10.301   4.030   6.089  0.0177  0.4719  0.1285
   68POPC   C4B 1129   9.843   3.806   5.994  0.4634 -0.2694 -0.1224
   69POPC   NC3 1130   3.813   4.300   7.600  0.0958  0.1465  0.1164
   69POPC   PO4 1131   4.105   4.636   7.452  0.0246 -0.2263 -0.2345
   69POPC   GL1 1132   4.083   4.443   7.135  0.1075  0.0224 -0.2910
   69POPC   GL2 1133   3.916   4.741   6.892  0.2119 -0.2358 -0.1244
   69POPC   C1A 1134   4.080   4.262   6.756 -0.0371 -0.0278  0.0275
   69POPC   D2A 1135   3.959   4.130   6.342 -0.0677  0.0720 -0.3251
   69POPC   C3A 1136   3.596   4.219   6.218  0.0365  0.0892 -0.1275
   69POPC   C4A 1137   3.089   4.350   6.114 -0.1444  0.0855 -0.1208
   69POPC   C1B 1138   3.737   4.586   6.452 -0.0427 -0.0466 -0.1659
   69POPC   C2B 1139   3.463   4.676   6.016  0.3302 -0.0051  0.0115
   69POPC   C3B 1140   3.499   4.575   5.607  0.2229 -0.0973  0.0579
   69POPC   C4B 1141   3.657   4.900   5.241  0.2619 -0.0166  0.0216
   70POPC   NC3 1142   6.740  10.709   8.052 -0.1059 -0.2026 -0.0022
   70POPC   PO4 1143   7.010  10.871   7.684  0.5265  0.1020 -0.0145
   70POPC   GL1 1144   7.016  11.076   7.277  0.0690 -0.2938 -0.3010
   70POPC   GL2 1145   6.774  11.329   7.268  0.1897  0.1195  0.1022
   70POPC   C1A 1146   7.189  11.374   6.992  0.0079 -0.1720  0.2820
   70POPC   D2A 1147   7.116  11.563   6.547  0.0319  0.2530 -0.1215
   70POPC   C3A 1148   7.452  11.655   6.315  0.0555 -0.1050  0.1457
   70POPC   C4A 1149   7.586  11.676   5.831 -0.0788 -0.3274  0.0535
   70POPC   C1B 1150   6.747  11.311   6.823 -0.1329 -0.1338 -0.2591
   70POPC   C2B 1151   6.687  11.354   6.371  0.3218  0.2475  0.5101
   70POPC   C3B 1152   6.691  11.564   5.857 -0.0921 -0.1579  0.1243
   70POPC   C4B 1153   6.715  11.759   5.441  0.3223 -0.3443  0.1418
   71POPC   NC3 1154   7.295  10.313   7.712  0.0014  0.1652  0.2648
   71POPC   PO4 1155   7.757  10.239   7.581 -0.0107 -0.1022 -0.0516
   71POPC   GL1 1156   7.751  10.304   7.169  0.2767  0.1022 -0.2403
   71POPC   GL2 1157   7.548  10.059   6.853  0.2291 -0.3395 -0.3410
   71POPC   C1A 1158   7.410  10.603   6.938 -0.0810  0.0604  0.2629
   71POPC   D2A 1159   7.380  10.962   6.829  0.0859  0.0655 -0.2617
   71POPC   C3A 1160   7.384  11.174   6.450 -0.0407  0.0392 -0.2422
   71POPC   C4A 1161   7.134  11.320   6.059  0.0259  0.0720  0.0597
   71POPC   C1B 1162   7.402  10.213   6.387 -0.3048  0.4113  0.0684
   71POPC   C2B 1163   7.295  10.263   6.023  0.1046 -0.2178  0.0512
   71POPC   C3B 1164   7.109  10.208   5.685 -0.2349  0.2817 -0.0137
   71POPC   C4B 1165   7.045  10.529   5.351 -0.0525 -0.0026  0.0802
   72POPC   NC3 1166   2.520  10.011   7.289 -0.1203  0.0992 -0.0438
   72POPC   PO4 1167   2.495   9.589   7.367 -0.0328  0.1041  0.0628
   72POPC   GL1 1168   2.520   9.512   6.922  0.0924  0.1116  0.2124
   72POPC   GL2 1169   2.447   9.793   6.846  0.5393 -0.1999  0.0583
   72POPC   C1A 1170   2.779   9.357   6.603  0.1559  0.4153  0.0470
   72POPC   D2A 1171   2.709   9.396   6.225 -0.1911 -0.1110 -0.1986
   72POPC   C3A 1172   2.828   9.131   5.996 -0.3263 -0.1877 -0.1856
   72POPC   C4A 1173   3.034   9.242   5.530  0.2697  0.1502  0.3107
   72POPC   C1B 1174   2.635   9.823   6.483 -0.0542 -0.1939 -0.1540
   72POPC   C2B 1175   2.669   9.868   6.124 -0.0926  0.2226  0.1070
   72POPC   C3B 1176   2.712   9.608   5.677 -0.0126 -0.1285  0.1945
   72POPC   C4B 1177   2.566   9.105   5.581  0.2080  0.4817 -0.0791
   73POPC   NC3 1178   2.144   8.862   7.178 -0.1646  0.1729 -0.0505
   73POPC   PO4 1179   2.453   9.038   7.154 -0.0887 -0.0610 -0.0740
   73POPC   GL1 1180   2.348   9.072   6.754 -0.4002 -0.2851  0.1146
   73POPC   GL2 1181   2.161   9.276   6.579  0.2537 -0.2248 -0.1268
   73POPC   C1A 1182   2.506   8.918   6.377 -0.2144 -0.0471  0.0127
   73POPC   D2A 1183   2.361   8.766   5.967  0.1432  0.2582 -0.1713
   73POPC   C3A 1184   2.410   8.518   5.623  0.1300 -0.0099  0.2620
   73POPC   C4A 1185   2.376   8.255   5.320  0.3771  0.3420  0.0716
   73POPC   C1B 1186   2.176   9.229   6.132  0.3274  0.1028 -0.1556
   73POPC   C2B 1187   2.127   9.246   5.749 -0.0422  0.0374 -0.2435
   73POPC   C3B 1188   1.946   8.881   5.637  0.1504  0.0748 -0.3573
   73POPC   C4B 1189   1.926   8.497   5.539 -0.0388 -0.3573  0.2070
   74POPC   NC3 1190  10.091   9.071   6.945 -0.0068 -0.0310  0.0432
   74POPC   PO4 1191  10.011   9.553   7.087  0.1327 -0.0653  0.0593
   74POPC   GL1 1192  10.292   9.631   6.771  0.0660 -0.0352 -0.2409
   74POPC   GL2 1193  10.553   9.813   6.929 -0.0228  0.0806 -0.1684
   74POPC   C1A 1194  10.473   9.638   6.426 -0.0867 -0.1262 -0.1758
   74POPC   D2A 1195  10.161   9.493   6.065  0.2458 -0.1589 -0.1723
   74POPC   C3A 1196   9.861   9.728   5.915 -0.1469 -0.3683  0.2686
   74POPC   C4A 1197   9.562   9.977   5.951  0.2028  0.1738 -0.1163
   74POPC   C1B 1198  10.085  10.074   6.783  0.2460 -0.1037  0.0359
   74POPC   C2B 1199   9.838  10.079   6.330 -0.1708 -0.1723 -0.2876
   74POPC   C3B 1200   9.998  10.252   5.950 -0.1084 -0.1634  0.0046
   74POPC   C4B 1201  10.126  10.183   5.486  0.0274  0.1675  0.1792
   75POPC   NC3 1202   6.108  10.435   7.929 -0.2341 -0.0062  0.0021
   75POPC   PO4 1203   6.269  10.774   7.864 -0.2121 -0.1384  0.3515
   75POPC   GL1 1204   6.096  10.661   7.464 -0.1987  0.1428  0.0222
   75POPC   GL2 1205   5.795  10.851   7.376 -0.2325  0.2218 -0.1299
   75POPC   C1A 1206   6.126  10.597   7.050  0.1970 -0.0319  0.0396
   75POPC   D2A 1207   6.459  10.909   6.927  0.3923  0.1942  0.3595
   75POPC   C3A 1208   6.879  10.763   6.822 -0.1695 -0.1476 -0.0658
   75POPC   C4A 1209   7.137  10.660   6.466 -0.0210  0.1767  0.3007
   75POPC   C1B 1210   5.948  11.124   7.017  0.2256 -0.1768  0.2116
   75POPC   C2B 1211   5.743  11.132   6.640 -0.1398 -0.1712 -0.2091
   75POPC   C3B 1212   5.552  11.285   6.273 -0.2240  0.0167  0.1402
   75POPC   C4B 1213   5.330  11.299   5.797 -0.2461  0.1397  0.1592
   76POPC   NC3 1214   8.740   2.519   7.422  0.0866 -0.2064 -0.1655
   76POPC   PO4 1215   8.483   2.942   7.287  0.1434 -0.0652 -0.2576
   76POPC   GL1 1216   8.514   2.619   6.965 -0.2194 -0.0175  0.0993
   76POPC   GL2 1217   8.682   2.684   6.699 -0.1029  0.0260 -0.2199
   76POPC   C1A 1218   8.427   2.338   6.834  0.3314  0.0900  0.1506
   76POPC   D2A 1219   8.322   2.004   6.532 -0.0914  0.3062  0.2109
   76POPC   C3A 1220   8.305   1.863   6.149 -0.0042 -0.0209  0.1959
   76POPC   C4A 1221   8.381   1.778   5.638 -0.2124 -0.0017 -0.3401
   76POPC   C1B 1222   8.802   2.533   6.352  0.0522 -0.1125  0.0144
   76POPC   C2B 1223   8.617   2.358   6.001  0.2483 -0.2432 -0.2559
   76POPC   C3B 1224   8.713   2.093   5.571  0.4861 -0.1362 -0.0800
   76POPC   C4B 1225   8.662   2.000   5.242  0.2224 -0.1177  0.0946
   77POPC   NC3 1226   1.214   5.354   7.971  0.3329  0.0579  0.0213
   77POPC   PO4 1227   1.428   4.979   7.712  0.0338 -0.1123 -0.0633
   77POPC   GL1 1228   1.604   4.825   7.400 -0.2619  0.0021  0.1201
   77POPC   GL2 1229   1.650   5.006   7.175 -0.0517  0.0407  0.1933
   77POPC   C1A 1230   1.567   4.471   7.002 -0.3319 -0.0976 -0.2996
   77POPC   D2A 1231   1.572   4.179   6.699 -0.0051  0.0756  0.0501
   77POPC   C3A 1232   1.789   4.251   6.403 -0.0149 -0.1519  0.1485
   77POPC   C4A 1233   1.691   4.348   5.908  0.0413  0.2579 -0.0533
   77POPC   C1B 1234   1.562   5.052   6.764 -0.2224  0.2535 -0.1109
   77POPC   C2B 1235   1.608   5.359   6.407  0.3191 -0.3109  0.3809
   77POPC   C3B 1236   1.670   5.488   5.934  0.2334  0.0256  0.2318
   77POPC   C4B 1237   1.409   5.795   5.786 -0.0049  0.1902  0.4540
   78POPC   NC3 1238   4.485   4.900   7.270 -0.0132  0.0018 -0.3122
   78POPC   PO4 1239   4.334   5.278   7.219 -0.5144  0.0482  0.0619
   78POPC   GL1 1240   4.648   5.184   6.830 -0.1639  0.3929 -0.1609
   78POPC   GL2 1241   4.721   5.380   6.541  0.0910  0.1354  0.0543
   78POPC   C1A 1242   4.903   4.892   6.584 -0.1091 -0.0005  0.1437
   78POPC   D2A 1243   4.971   4.476   6.446  0.0815  0.1265 -0.4358
   78POPC   C3A 1244   5.121   4.376   5.972 -0.4446 -0.1843 -0.3170
   78POPC   C4A 1245   5.574   4.263   5.880 -0.1092  0.1679 -0.2841
   78POPC   C1B 1246   4.676   5.345   6.140  0.1831  0.3684  0.3440
   78POPC   C2B 1247   4.839   5.245   5.748 -0.0538 -0.0952  0.3031
   78POPC   C3B 1248   5.085   4.988   5.569 -0.0700  0.0889  0.0179
   78POPC   C4B 1249   5.372   4.643   5.489  0.0442 -0.1520 -0.1006
   79POPC   NC3 1250   8.630   0.369   7.591  0.0836  0.2576  0.0764
   79POPC   PO4 1251   8.713   0.761   7.601  0.0549 -0.0769  0.0334
   79POPC   GL1 1252   8.806   0.984   7.112  0.1731 -0.1437 -0.2453
   79POPC   GL2 1253   8.654   1.331   7.264  0.1656  0.0031  0.1749
   79POPC   C1A 1254   8.785   1.333   6.742 -0.1383  0.1632 -0.0406
   79POPC   D2A 1255   8.611   1.533   6.378 -0.2119  0.0890  0.0067
   79POPC   C3A 1256   8.582   1.415   5.975 -0.4184  0.1858  0.0413
   79POPC   C4A 1257   8.531   1.204   5.587 -0.2477 -0.1202 -0.1956
   79POPC   C1B 1258   8.324   1.603   7.052 -0.0917  0.4103 -0.4187
   79POPC   C2B 1259   8.147   1.492   6.588 -0.0099  0.0264  0.2081
   79POPC   C3B 1260   8.156   1.274   6.204  0.1336  0.0874 -0.0260
   79POPC   C4B 1261   7.958   1.535   5.856 -0.2991 -0.2817  0.1401
   80POPC   NC3 1262   9.521   9.599   6.975 -0.1788  0.2066 -0.0957
   80POPC   PO4 1263   9.075   9.763   7.231  0.0308  0.0766 -0.0987
   80POPC   GL1 1264   9.083   9.884   6.767 -0.1411  0.1245 -0.1055
   80POPC   GL2 1265   9.422  10.104   6.698 -0.5482 -0.1448 -0.1389
   80POPC   C1A 1266   8.981   9.718   6.342 -0.0377 -0.0746  0.0250
   80POPC   D2A 1267   8.952   9.862   6.030 -0.0221  0.0171  0.1440
   80POPC   C3A 1268   9.185  10.090   5.711 -0.0258 -0.0698 -0.0299
   80POPC   C4A 1269   8.971  10.154   5.318  0.1673  0.2740  0.1057
   80POPC   C1B 1270   9.364  10.263   6.310  0.1766 -0.4059  0.2128
   80POPC   C2B 1271   9.191  10.507   6.001 -0.1681 -0.0900 -0.1465
   80POPC   C3B 1272   9.135  10.669   5.629  0.1854 -0.2157 -0.0650
   80POPC   C4B 1273   8.839  10.698   5.259 -0.0845  0.1695  0.5260
   81POPC   NC3 1274   4.438   7.516   7.859 -0.4608 -0.0244 -0.0847
   81POPC   PO4 1275   4.345   7.472   7.333 -0.1609 -0.0835  0.1666
   81POPC   GL1 1276   4.550   7.704   6.995 -0.2153 -0.2291  0.4156
   81POPC   GL2 1277   4.897   7.645   6.982  0.0692 -0.0277  0.0496
   81POPC   C1A 1278   4.346   7.731   6.713  0.1205  0.0931 -0.1654
   81POPC   D2A 1279   4.090   7.931   6.549 -0.2108 -0.3131 -0.2670
   81POPC   C3A 1280   4.180   8.265   6.385 -0.3405  0.0193  0.0811
   81POPC   C4A 1281   4.330   8.519   6.007  0.0172  0.1180  0.2135
   81POPC   C1B 1282   4.801   7.533   6.588  0.0391  0.2624  0.0676
   81POPC   C2B 1283   4.501   7.394   6.152 -0.1616 -0.2848 -0.1824
   81POPC   C3B 1284   4.458   7.617   5.715  0.0940 -0.1359 -0.1315
   81POPC   C4B 1285   4.569   7.671   5.333 -0.1241 -0.0570  0.1379
   82POPC   NC3 1286   9.998   7.558   7.580 -0.0321 -0.4107  0.1474
   82POPC   PO4 1287   9.887   7.248   7.326 -0.0921  0.0192  0.0675
   82POPC   GL1 1288  10.051   7.240   6.895 -0.3179 -0.1051  0.1561
   82POPC   GL2 1289   9.854   7.400   6.580 -0.2203  0.1008 -0.0883
   82POPC   C1A 1290  10.320   6.901   6.786 -0.0831  0.0332 -0.2191
   82POPC   D2A 1291  10.181   6.635   6.389 -0.1176  0.3342 -0.2514
   82POPC   C3A 1292  10.008   6.678   6.062 -0.2516  0.2724 -0.0573
   82POPC   C4A 1293   9.954   6.484   5.643  0.0024  0.1621  0.2297
   82POPC   C1B 1294   9.438   7.324   6.377 -0.0420 -0.0050 -0.1469
   82POPC   C2B 1295   8.986   7.283   6.169 -0.0801 -0.5038  0.0177
   82POPC   C3B 1296   8.839   7.454   5.723  0.2647  0.1236 -0.2632
   82POPC   C4B 1297   8.733   7.435   5.287 -0.1546 -0.3391  0.0799
   83POPC   NC3 1298  10.688   1.052   7.588 -0.3574 -0.0107  0.0386
   83POPC   PO4 1299  10.322   0.925   7.747 -0.2039 -0.2735  0.1978
   83POPC   GL1 1300  10.152   0.993   7.298  0.4098  0.2943 -0.2037
   83POPC   GL2 1301   9.930   0.738   7.063 -0.3185  0.0856  0.2114
   83POPC   C1A 1302   9.983   1.140   6.856  0.0745 -0.0509  0.1594
   83POPC   D2A 1303  10.278   1.212   6.540  0.2037 -0.5226 -0.0453
   83POPC   C3A 1304  10.145   1.255   6.149  0.0222  0.1371 -0.3431
   83POPC   C4A 1305  10.232   1.209   5.674 -0.2789 -0.0157  0.1169
   83POPC   C1B 1306   9.881   0.611   6.622  0.0527 -0.2387 -0.1133
   83POPC   C2B 1307   9.863   0.769   6.161 -0.0343  0.0019 -0.3350
   83POPC   C3B 1308   9.848   0.789   5.752 -0.3167 -0.0253 -0.1027
   83POPC   C4B 1309   9.819   0.533   5.404  0.3053  0.0979  0.0440
   84POPC   NC3 1310   5.272   0.867   7.889  0.0614 -0.1157  0.1171
   84POPC   PO4 1311   4.860   0.823   8.045 -0.1864 -0.5299 -0.1002
   84POPC   GL1 1312   4.918   0.827   7.569  0.4881  0.0962 -0.1548
   84POPC   GL2 1313   4.900   1.094   7.353  0.1065  0.0405  0.2990
   84POPC   C1A 1314   4.936   0.600   7.179 -0.0405 -0.1035 -0.4921
   84POPC   D2A 1315   4.965   0.221   7.016  0.0184  0.0267  0.0594
   84POPC   C3A 1316   4.601   0.213   6.648  0.2544 -0.1593  0.1380
   84POPC   C4A 1317   4.488  -0.061   6.330 -0.2216 -0.1435  0.1655
   84POPC   C1B 1318   5.103   1.071   6.986  0.0940 -0.1046 -0.2244
   84POPC   C2B 1319   5.323   1.155   6.671  0.2039 -0.1678  0.1698
   84POPC   C3B 1320   5.514   1.347   6.278 -0.2779 -0.1121  0.1703
   84POPC   C4B 1321   5.542   1.376   5.872 -0.0331 -0.1336  0.3556
   85POPC   NC3 1322   8.689  10.476   7.441 -0.0515  0.0958 -0.1417
   85POPC   PO4 1323   8.358  10.906   7.491  0.1778  0.2712  0.1399
   85POPC   GL1 1324   8.403  11.068   7.153 -0.2641 -0.0330 -0.3824
   85POPC   GL2 1325   8.566  11.428   7.104  0.0162 -0.1683 -0.2643
   85POPC   C1A 1326   8.344  11.106   6.765 -0.2483 -0.0588  0.3591
   85POPC   D2A 1327   8.355  11.307   6.360  0.0109 -0.0014  0.0108
   85POPC   C3A 1328   8.231  11.092   5.978  0.0065  0.2770  0.0384
   85POPC   C4A 1329   7.914  11.015   5.613  0.0104  0.0836 -0.4714
   85POPC   C1B 1330   8.685  11.479   6.655 -0.0123  0.1589  0.0460
   85POPC   C2B 1331   8.812  11.427   6.159  0.1038  0.1310  0.4660
   85POPC   C3B 1332   9.007  11.497   5.699 -0.0550  0.1276  0.2412
   85POPC   C4B 1333   8.826  11.765   5.417 -0.1711  0.0544  0.0753
   86POPC   NC3 1334   5.377   4.542   7.133  0.2797 -0.1128 -0.1233
   86POPC   PO4 1335   5.064   4.346   7.454  0.1124  0.1893  0.1423
   86POPC   GL1 1336   5.051   4.006   7.099 -0.1153 -0.1103 -0.2836
   86POPC   GL2 1337   5.012   4.201   6.877 -0.0622 -0.1731  0.1357
   86POPC   C1A 1338   5.166   3.722   6.762 -0.1445 -0.1511 -0.0591
   86POPC   D2A 1339   4.983   3.590   6.528  0.2673 -0.1287  0.4399
   86POPC   C3A 1340   4.906   3.595   6.048  0.0985  0.3819 -0.3143
   86POPC   C4A 1341   5.150   3.783   5.775 -0.0513 -0.0726 -0.0559
   86POPC   C1B 1342   4.628   4.407   6.778 -0.0255  0.2193  0.1707
   86POPC   C2B 1343   4.401   4.353   6.424  0.3671 -0.3577 -0.2166
   86POPC   C3B 1344   4.331   4.093   5.947  0.1519 -0.2216  0.0748
   86POPC   C4B 1345   4.237   3.890   5.538  0.0740  0.1320 -0.2118
   87POPC   NC3 1346   6.676   6.956   7.163 -0.2046 -0.0440  0.1076
   87POPC   PO4 1347   7.059   6.899   7.181 -0.0111 -0.0780 -0.0897
   87POPC   GL1 1348   7.170   6.818   6.842 -0.0023  0.2246  0.1648
   87POPC   GL2 1349   6.988   7.122   6.691  0.0104  0.1532  0.1524
   87POPC   C1A 1350   7.297   6.505   6.557 -0.0043  0.0616 -0.1223
   87POPC   D2A 1351   7.561   6.370   6.320  0.0396 -0.1428 -0.1687
   87POPC   C3A 1352   7.791   6.630   6.035 -0.0401 -0.1537 -0.3075
   87POPC   C4A 1353   7.888   6.633   5.590  0.2085 -0.3464  0.1044
   87POPC   C1B 1354   6.838   7.394   6.314 -0.0136  0.1383  0.3673
   87POPC   C2B 1355   6.392   7.335   6.064  0.0739  0.1660  0.1427
   87POPC   C3B 1356   6.162   7.478   5.757  0.0299  0.3975 -0.2401
   87POPC   C4B 1357   5.690   7.315   5.528  0.2286  0.0380 -0.2709
   88POPC   NC3 1358   4.517   0.530   7.935 -0.2990  0.3398  0.1136
   88POPC   PO4 1359   4.889   0.250   8.106 -0.0462 -0.3474  0.0017
   88POPC   GL1 1360   5.060   0.177   7.728 -0.0498 -0.1506 -0.0666
   88POPC   GL2 1361   4.708   0.324   7.479 -0.1788 -0.1423  0.1688
   88POPC   C1A 1362   5.343   0.255   7.452  0.1546 -0.0186  0.2777
   88POPC   D2A 1363   5.441   0.386   7.072 -0.0457 -0.3872  0.0125
   88POPC   C3A 1364   5.134   0.544   6.700 -0.4019 -0.0041 -0.1387
   88POPC   C4A 1365   4.972   0.673   6.314 -0.0458 -0.1678  0.3173
   88POPC   C1B 1366   4.460   0.392   7.109  0.3909  0.1081  0.1226
   88POPC   C2B 1367   4.179   0.553   6.813 -0.0014  0.0310  0.0313
   88POPC   C3B 1368   4.170   0.434   6.455  0.1040 -0.0182 -0.2268
   88POPC   C4B 1369   4.375   0.742   6.290  0.1001  0.1711 -0.0604
   89POPC   NC3 1370   6.815   9.580   7.700  0.1735  0.2040 -0.2592
   89POPC   PO4 1371   6.919   9.976   7.625  0.0535  0.1967  0.2695
   89POPC   GL1 1372   6.812   9.859   7.135 -0.0254  0.1576 -0.4617
   89POPC   GL2 1373   7.108  10.056   6.965 -0.0485  0.4380  0.1801
   89POPC   C1A 1374   6.632   9.830   6.731 -0.2260  0.0167  0.2548
   89POPC   D2A 1375   6.576   9.651   6.315 -0.3032  0.1381 -0.1380
   89POPC   C3A 1376   6.290   9.798   6.013 -0.0968  0.1469 -0.0912
   89POPC   C4A 1377   5.875  10.063   6.176  0.1885 -0.2194 -0.0142
   89POPC   C1B 1378   6.868  10.308   6.649  0.0651  0.0236 -0.0107
   89POPC   C2B 1379   6.564  10.717   6.443  0.1173 -0.0108  0.0622
   89POPC   C3B 1380   6.579  10.938   5.964 -0.1070 -0.0262 -0.0110
   89POPC   C4B 1381   6.327  11.032   5.744  0.1134 -0.3594  0.2000
   90POPC   NC3 1382   7.418   1.355   7.595  0.1385  0.0827 -0.1280
   90POPC   PO4 1383   6.940   1.247   7.584  0.1960 -0.0429 -0.0362
   90POPC   GL1 1384   7.079   1.369   7.143  0.0617 -0.2144 -0.3315
   90POPC   GL2 1385   7.325   1.413   7.093 -0.1527 -0.1807 -0.1224
   90POPC   C1A 1386   6.886   1.425   6.786 -0.2084 -0.2229 -0.0647
   90POPC   D2A 1387   6.588   1.389   6.503  0.3173  0.3483 -0.1221
   90POPC   C3A 1388   6.472   1.583   6.054 -0.1231 -0.1869 -0.2854
   90POPC   C4A 1389   6.277   1.913   5.870 -0.2513  0.2792  0.1754
   90POPC   C1B 1390   7.643   1.632   6.715 -0.1009  0.1145 -0.1428
   90POPC   C2B 1391   7.575   1.571   6.336 -0.0216  0.0693  0.0621
   90POPC   C3B 1392   7.342   1.661   5.916  0.1803 -0.0599 -0.1122
   90POPC   C4B 1393   7.312   1.659   5.409  0.1153  0.1084  0.2356
   91POPC   NC3 1394   3.724  10.737   8.096 -0.0979  0.1666  0.0797
   91POPC   PO4 1395   4.206  10.787   7.999  0.3618 -0.0389 -0.0124
   91POPC   GL1 1396   4.108  10.692   7.578  0.1545 -0.0969 -0.1945
   91POPC   GL2 1397   4.361  10.743   7.282 -0.0278 -0.3631 -0.3415
   91POPC   C1A 1398   3.885  10.505   7.197 -0.1701  0.1000 -0.0536
   91POPC   D2A 1399   3.838  10.467   6.745  0.0418  0.0033 -0.0893
   91POPC   C3A 1400   3.989  10.103   6.423  0.0515 -0.1362 -0.0727
   91POPC   C4A 1401   4.016   9.963   6.006  0.0777 -0.0525  0.2919
   91POPC   C1B 1402   4.604  10.685   6.963  0.0248 -0.2060 -0.0408
   91POPC   C2B 1403   4.819  10.628   6.573 -0.0339 -0.0804  0.1431
   91POPC   C3B 1404   5.050  10.529   6.171  0.3891  0.2055 -0.1292
   91POPC   C4B 1405   4.964  10.312   5.801 -0.1001  0.0482  0.0625
   92POPC   NC3 1406   4.183   3.021   7.670 -0.0526 -0.2888  0.0947
   92POPC   PO4 1407   3.899   2.849   7.797  0.2094 -0.1372  0.0583
   92POPC   GL1 1408   3.787   2.733   7.448  0.0434 -0.3458  0.0348
   92POPC   GL2 1409   3.766   2.397   7.478  0.0960  0.2149  0.2325
   92POPC   C1A 1410   3.497   2.933   7.204 -0.1214  0.0034 -0.0122
   92POPC   D2A 1411   3.186   2.968   6.781 -0.2355 -0.1627 -0.2066
   92POPC   C3A 1412   3.063   3.361   6.493 -0.1902  0.3760  0.1257
   92POPC   C4A 1413   3.234   3.233   6.127  0.1613 -0.0484 -0.2320
   92POPC   C1B 1414   3.632   2.121   7.190 -0.1759  0.0174 -0.1230
   92POPC   C2B 1415   3.376   1.869   6.751  0.0238  0.0005  0.1568
   92POPC   C3B 1416   3.580   1.655   6.319 -0.1657  0.0127 -0.3433
   92POPC   C4B 1417   3.948   1.694   6.175  0.0434  0.2518 -0.0447
   93POPC   NC3 1418   0.749   2.464   7.849 -0.2283  0.1573  0.0813
   93POPC   PO4 1419   1.034   2.904   8.011 -0.1131  0.1277 -0.2025
   93POPC   GL1 1420   0.926   2.973   7.585  0.0738 -0.1151  0.2881
   93POPC   GL2 1421   1.004   3.251   7.479  0.5141 -0.1035  0.0999
   93POPC   C1A 1422   0.618   3.124   7.216 -0.1491  0.4218  0.1219
   93POPC   D2A 1423   0.193   3.145   7.117  0.0223 -0.1657  0.2212
   93POPC   C3A 1424   0.031   3.372   6.754  0.2936  0.0660  0.0493
   93POPC   C4A 1425   0.255   3.637   6.426 -0.1406 -0.0581  0.1236
   93POPC   C1B 1426   1.141   3.414   7.106  0.5461  0.0628  0.0805
   93POPC   C2B 1427   1.384   3.648   6.905 -0.0982  0.1329 -0.0936
   93POPC   C3B 1428   1.667   3.540   6.472 -0.0326 -0.3651 -0.0114
   93POPC   C4B 1429   1.805   3.851   6.123 -0.0470  0.0018  0.3073
   94POPC   NC3 1430   6.104   9.200   7.743  0.0049  0.1097  0.2034
   94POPC   PO4 1431   6.601   9.157   7.796  0.1319 -0.2917  0.0245
   94POPC   GL1 1432   6.579   9.263   7.321 -0.1859  0.0352  0.0930
   94POPC   GL2 1433   6.239   9.305   7.251  0.0165  0.3550  0.1909
   94POPC   C1A 1434   6.584   9.232   6.801 -0.3179 -0.1449 -0.1881
   94POPC   D2A 1435   6.820   9.122   6.436  0.2805 -0.0372 -0.0498
   94POPC   C3A 1436   6.996   9.393   6.185 -0.2594 -0.3589  0.0573
   94POPC   C4A 1437   7.157   9.587   5.787 -0.1254 -0.2164 -0.0640
   94POPC   C1B 1438   6.001   9.330   6.877 -0.2466  0.1978 -0.1186
   94POPC   C2B 1439   5.717   9.095   6.638  0.2014  0.0245 -0.0494
   94POPC   C3B 1440   5.411   9.010   6.387  0.4042 -0.1336 -0.0277
   94POPC   C4B 1441   5.347   9.218   5.987  0.0588 -0.1123 -0.1218
   95POPC   NC3 1442   6.133   3.202   7.439  0.2278  0.0965 -0.0080
   95POPC   PO4 1443   5.607   3.138   7.452 -0.0165 -0.2907  0.1415
   95POPC   GL1 1444   5.459   2.882   7.187  0.1157 -0.1856 -0.0320
   95POPC   GL2 1445   5.117   2.946   7.301  0.0719  0.2741  0.2064
   95POPC   C1A 1446   5.232   2.625   6.800 -0.0017  0.0822 -0.0950
   95POPC   D2A 1447   5.000   2.570   6.399 -0.1861  0.0041  0.0875
   95POPC   C3A 1448   4.716   2.541   6.099  0.0402 -0.0102  0.0881
   95POPC   C4A 1449   4.631   2.654   5.739  0.1792 -0.1297 -0.2463
   95POPC   C1B 1450   4.799   2.854   7.021 -0.1391 -0.0551 -0.3779
   95POPC   C2B 1451   4.516   2.964   6.840  0.0994  0.1640 -0.1856
   95POPC   C3B 1452   4.477   2.795   6.504  0.0088 -0.0137 -0.0505
   95POPC   C4B 1453   4.273   2.730   6.164 -0.0079 -0.1483  0.2612
   96POPC   NC3 1454   0.359   9.219   7.446 -0.0930  0.2778  0.0395
   96POPC   PO4 1455  -0.033   9.219   7.495 -0.1019 -0.0588 -0.1148
   96POPC   GL1 1456  -0.122   9.322   7.097  0.0574  0.2252  0.1033
   96POPC   GL2 1457   0.073   9.683   7.081  0.2055 -0.0954 -0.2378
   96POPC   C1A 1458  -0.139   9.280   6.665  0.2271  0.0390 -0.1783
   96POPC   D2A 1459  -0.018   9.394   6.200  0.1335 -0.0654  0.1694
   96POPC   C3A 1460  -0.236   9.612   5.887 -0.1485  0.0964 -0.1297
   96POPC   C4A 1461  -0.515   9.595   5.646  0.2173 -0.0529 -0.2698
   96POPC   C1B 1462   0.218   9.825   6.736  0.1407 -0.2175 -0.1715
   96POPC   C2B 1463   0.272  10.313   6.718  0.1179 -0.1025  0.0035
   96POPC   C3B 1464   0.426  10.708   6.638  0.0736 -0.2066 -0.1765
   96POPC   C4B 1465   0.499  11.108   6.582 -0.0754  0.2143  0.3175
   97POPC   NC3 1466   3.472   4.318   8.035 -0.1066  0.3172 -0.1780
   97POPC   PO4 1467   3.345   4.353   7.602 -0.0081  0.0205 -0.3229
   97POPC   GL1 1468   3.357   4.158   7.354 -0.2765  0.1321 -0.2239
   97POPC   GL2 1469   3.688   4.184   7.123 -0.2384  0.0213 -0.3571
   97POPC   C1A 1470   3.140   3.981   6.991 -0.2114 -0.1557  0.5165
   97POPC   D2A 1471   3.110   3.969   6.505 -0.0810 -0.0223 -0.0119
   97POPC   C3A 1472   2.851   3.748   6.264  0.2041 -0.0086  0.1508
   97POPC   C4A 1473   2.903   3.423   5.823  0.1111 -0.3889  0.0453
   97POPC   C1B 1474   3.628   3.983   6.722 -0.1326 -0.1286  0.0207
   97POPC   C2B 1475   3.549   3.606   6.409  0.0008 -0.0540  0.2995
   97POPC   C3B 1476   3.360   3.700   6.050  0.0528  0.1585 -0.0266
   97POPC   C4B 1477   2.895   3.904   5.823 -0.0011 -0.0903  0.0134
   98POPC   NC3 1478   5.547   5.563   6.966  0.1078 -0.1758 -0.2168
   98POPC   PO4 1479   5.667   5.042   6.903  0.2289  0.0621 -0.1373
   98POPC   GL1 1480   5.376   4.697   6.644  0.1989 -0.4603 -0.1055
   98POPC   GL2 1481   5.671   4.556   6.618 -0.0250 -0.0618 -0.1244
   98POPC   C1A 1482   5.515   4.765   6.125 -0.1210  0.1572 -0.0144
   98POPC   D2A 1483   5.528   5.110   5.802 -0.0174 -0.2291 -0.0675
   98POPC   C3A 1484   5.347   5.535   5.778  0.2267 -0.3046 -0.1918
   98POPC   C4A 1485   5.146   5.624   5.388  0.4866 -0.2966 -0.2748
   98POPC   C1B 1486   5.854   4.352   6.378 -0.1834  0.0160  0.1653
   98POPC   C2B 1487   6.069   4.400   5.871  0.1522  0.3503 -0.2277
   98POPC   C3B 1488   6.342   4.693   5.696 -0.0489  0.2984  0.3508
   98POPC   C4B 1489   6.361   5.147   5.695  0.0031 -0.0312 -0.0627
   99POPC   NC3 1490   7.955   2.965   7.420  0.1421  0.1559 -0.1516
   99POPC   PO4 1491   7.512   2.774   7.448 -0.1308 -0.0944  0.4244
   99POPC   GL1 1492   7.451   2.796   7.092 -0.1119 -0.0240 -0.2435
   99POPC   GL2 1493   7.552   2.488   6.993 -0.2489  0.0718  0.0874
   99POPC   C1A 1494   7.264   2.726   6.705 -0.0519 -0.2604  0.3902
   99POPC   D2A 1495   7.335   2.687   6.272  0.1858 -0.0023  0.2161
   99POPC   C3A 1496   7.609   2.427   6.060 -0.0033  0.0856  0.2362
   99POPC   C4A 1497   7.595   2.339   5.665  0.2154 -0.1015 -0.3829
   99POPC   C1B 1498   7.758   2.518   6.558 -0.0775  0.0984  0.1609
   99POPC   C2B 1499   8.157   2.465   6.228 -0.1688  0.1599 -0.0664
   99POPC   C3B 1500   8.129   2.294   5.779  0.1432  0.0659  0.0941
   99POPC   C4B 1501   8.232   2.433   5.352  0.1949  0.1345  0.0188
  100POPC   NC3 1502   1.642  10.174   7.011  0.1234  0.4034  0.0838
  100POPC   PO4 1503   2.058   9.919   7.085 -0.1140 -0.1366  0.1874
  100POPC   GL1 1504   1.916   9.833   6.723  0.1343 -0.1144  0.0415
  100POPC   GL2 1505   2.020  10.162   6.560  0.2109  0.4649 -0.1519
  100POPC   C1A 1506   1.777   9.509   6.307  0.2432  0.3716 -0.0348
  100POPC   D2A 1507   1.585   9.266   5.985  0.3135  0.0801  0.1635
  100POPC   C3A 1508   1.571   9.370   5.562 -0.2422  0.0025  0.2967
  100POPC   C4A 1509   1.530   9.137   5.112 -0.2011  0.0782  0.0343
  100POPC   C1B 1510   2.166   9.821   6.267  0.0860  0.2527 -0.0566
  100POPC   C2B 1511   2.004   9.680   5.944 -0.0344  0.2062 -0.1649
  100POPC   C3B 1512   1.695   9.760   5.808 -0.0534  0.1615  0.0401
  100POPC   C4B 1513   1.351  10.013   5.859 -0.0440 -0.0600  0.2444
  101POPC   NC3 1514   3.770   0.468   7.750  0.0244  0.1158  0.0479
  101POPC   PO4 1515   3.701   0.093   7.690 -0.1966  0.1415 -0.1226
  101POPC   GL1 1516   3.766   0.109   7.140 -0.0244  0.0005  0.0163
  101POPC   GL2 1517   4.018   0.147   7.073  0.2800  0.1922  0.0737
  101POPC   C1A 1518   3.754   0.201   6.692  0.2832 -0.1595 -0.1791
  101POPC   D2A 1519   3.564   0.317   6.304  0.1736  0.1158 -0.2184
  101POPC   C3A 1520   3.699  -0.018   5.942  0.2627 -0.1988 -0.1707
  101POPC   C4A 1521   3.786   0.047   5.427  0.2900 -0.0693  0.0063
  101POPC   C1B 1522   4.182  -0.031   6.739 -0.2026 -0.0833  0.1930
  101POPC   C2B 1523   3.971  -0.116   6.386  0.0356 -0.1333 -0.0873
  101POPC   C3B 1524   4.150  -0.338   6.047  0.1509 -0.1391  0.1374
  101POPC   C4B 1525   4.407  -0.569   5.704 -0.0372 -0.0197 -0.1451
  102POPC   NC3 1526   3.470  10.579   7.725  0.1279  0.0144  0.0499
  102POPC   PO4 1527   3.417  10.122   7.813 -0.3525 -0.0334 -0.2360
  102POPC   GL1 1528   3.317  10.183   7.314 -0.0989  0.0107  0.0352
  102POPC   GL2 1529   3.083  10.081   7.298  0.0893 -0.2259  0.1111
  102POPC   C1A 1530   3.564   9.980   6.898 -0.2100 -0.1199 -0.2331
  102POPC   D2A 1531   3.460  10.135   6.421  0.0435  0.1023  0.1478
  102POPC   C3A 1532   3.575   9.790   6.110  0.0522  0.0512 -0.1506
  102POPC   C4A 1533   3.645   9.809   5.667 -0.0954 -0.1507 -0.0218
  102POPC   C1B 1534   3.147   9.777   7.057  0.3768 -0.1484 -0.1992
  102POPC   C2B 1535   3.165   9.776   6.609  0.0170  0.1070 -0.2958
  102POPC   C3B 1536   3.093   9.723   6.326  0.0901 -0.4276 -0.1109
  102POPC   C4B 1537   3.251   9.448   5.911  0.0336  0.1934  0.1504
  103POPC   NC3 1538   0.216   7.278   7.370  0.0024  0.2938 -0.2488
  103POPC   PO4 1539  -0.079   7.549   7.252  0.0424  0.1078  0.3080
  103POPC   GL1 1540  -0.139   7.583   6.768 -0.0004  0.2896 -0.1038
  103POPC   GL2 1541  -0.375   7.444   6.626 -0.2593 -0.3554 -0.2281
  103POPC   C1A 1542  -0.276   7.793   6.303 -0.0697 -0.2653 -0.1203
  103POPC   D2A 1543  -0.501   7.819   5.923  0.1201 -0.1026 -0.3295
  103POPC   C3A 1544  -0.815   7.721   5.748  0.1166 -0.0536 -0.2494
  103POPC   C4A 1545  -1.141   7.699   5.437  0.1428 -0.0569 -0.0165
  103POPC   C1B 1546  -0.684   7.171   6.323  0.0778  0.0755  0.0456
  103POPC   C2B 1547  -0.805   7.278   6.014  0.0851 -0.2042 -0.0573
  103POPC   C3B 1548  -0.889   7.277   5.555 -0.1025  0.1553  0.0241
  103POPC   C4B 1549  -0.736   6.860   5.400  0.1187 -0.0015 -0.4127
  104POPC   NC3 1550   5.668   9.939   8.160  0.0498 -0.0941  0.0954
  104POPC   PO4 1551   6.034   9.955   7.941  0.1032  0.2387 -0.0400
  104POPC   GL1 1552   5.942  10.047   7.524  0.3188 -0.1623 -0.0512
  104POPC   GL2 1553   6.239  10.153   7.488  0.0251 -0.0806 -0.1835
  104POPC   C1A 1554   6.171   9.867   7.147  0.2953  0.1825  0.0001
  104POPC   D2A 1555   6.158   9.796   6.668 -0.1999 -0.3242  0.1404
  104POPC   C3A 1556   6.036   9.545   6.371 -0.1095 -0.0148  0.0104
  104POPC   C4A 1557   5.857   9.116   6.116  0.1761 -0.1200 -0.4286
  104POPC   C1B 1558   6.511  10.278   7.077 -0.1008 -0.1901 -0.0484
  104POPC   C2B 1559   6.310  10.275   6.604  0.1139 -0.2724  0.3190
  104POPC   C3B 1560   6.354  10.232   6.208 -0.0890 -0.1703 -0.0660
  104POPC   C4B 1561   6.697  10.418   5.939  0.2729 -0.1071 -0.0080
  105POPC   NC3 1562   2.737   6.202   8.037  0.3664 -0.0043  0.0054
  105POPC   PO4 1563   2.891   6.518   7.634 -0.1803 -0.1400 -0.1291
  105POPC   GL1 1564   2.758   6.241   7.217  0.3251 -0.1539  0.1597
  105POPC   GL2 1565   2.525   5.983   7.203  0.2303 -0.1129 -0.0885
  105POPC   C1A 1566   2.838   6.052   6.764 -0.4142 -0.1141  0.3895
  105POPC   D2A 1567   3.069   5.910   6.408  0.2849  0.1461  0.1711
  105POPC   C3A 1568   3.063   5.502   6.236 -0.2596 -0.0526  0.1669
  105POPC   C4A 1569   3.310   5.111   6.224  0.1556 -0.1085  0.2136
  105POPC   C1B 1570   2.412   5.736   6.854 -0.0839 -0.0052  0.2361
  105POPC   C2B 1571   2.611   5.720   6.434 -0.3602  0.0770  0.0626
  105POPC   C3B 1572   2.673   5.748   6.008  0.1591 -0.3363  0.2151
  105POPC   C4B 1573   2.702   6.043   5.635 -0.0384  0.1084  0.0266
  106POPC   NC3 1574   2.432   7.605   7.482 -0.2129  0.0902 -0.2308
  106POPC   PO4 1575   2.083   7.915   7.459  0.0541  0.0745 -0.0417
  106POPC   GL1 1576   1.755   7.783   7.030 -0.1435 -0.1359 -0.0915
  106POPC   GL2 1577   1.535   7.527   7.105 -0.0527 -0.0633 -0.3191
  106POPC   C1A 1578   1.960   7.725   6.682 -0.1440  0.1600  0.0886
  106POPC   D2A 1579   2.130   7.650   6.330 -0.1267 -0.0210  0.1198
  106POPC   C3A 1580   2.414   7.929   6.300 -0.3947  0.0360  0.1559
  106POPC   C4A 1581   2.614   8.274   6.152 -0.0453 -0.0549 -0.1029
  106POPC   C1B 1582   1.545   7.402   6.614 -0.0109  0.2868  0.1266
  106POPC   C2B 1583   1.621   7.518   6.232  0.0766  0.0283 -0.1786
  106POPC   C3B 1584   1.910   7.675   5.892 -0.0998  0.0376 -0.0432
  106POPC   C4B 1585   2.078   7.771   5.511  0.0818  0.0657 -0.2021
  107POPC   NC3 1586   7.127   1.786   7.510  0.3408  0.1741  0.1341
  107POPC   PO4 1587   6.790   1.872   7.367  0.1527 -0.0473  0.2715
  107POPC   GL1 1588   6.556   1.885   6.926 -0.0159 -0.1866  0.2016
  107POPC   GL2 1589   6.368   1.785   6.815  0.0354  0.0043  0.4470
  107POPC   C1A 1590   6.703   1.875   6.476 -0.5276 -0.1269  0.1093
  107POPC   D2A 1591   7.138   1.759   6.427 -0.0410  0.1676  0.2377
  107POPC   C3A 1592   7.254   2.087   6.195  0.2189 -0.1495  0.1772
  107POPC   C4A 1593   6.973   2.436   5.897  0.4046 -0.0740 -0.1424
  107POPC   C1B 1594   6.357   2.268   6.568 -0.0545  0.0491  0.1688
  107POPC   C2B 1595   6.621   2.179   6.104  0.3032 -0.1670  0.0249
  107POPC   C3B 1596   6.836   1.884   5.932 -0.1445  0.0272 -0.0572
  107POPC   C4B 1597   6.903   1.371   5.812 -0.1313  0.0701  0.2914
  108POPC   NC3 1598   8.797   1.257   7.748 -0.1691  0.1700  0.3973
  108POPC   PO4 1599   9.155   1.363   7.360 -0.1991 -0.1272 -0.0841
  108POPC   GL1 1600   9.103   1.525   7.036 -0.4484 -0.2689  0.1142
  108POPC   GL2 1601   9.154   1.869   7.135  0.2857  0.1497 -0.3888
  108POPC   C1A 1602   9.234   1.462   6.563  0.0555  0.2060 -0.1456
  108POPC   D2A 1603   9.248   1.510   6.182 -0.1202  0.0848  0.2095
  108POPC   C3A 1604   9.445   1.661   5.989  0.0983 -0.0777  0.2338
  108POPC   C4A 1605   9.358   1.820   5.669 -0.5291  0.0267 -0.0179
  108POPC   C1B 1606   9.349   1.897   6.730 -0.0809 -0.0991  0.0807
  108POPC   C2B 1607   9.285   2.091   6.310 -0.0478 -0.1529 -0.0391
  108POPC   C3B 1608   9.183   2.375   6.040 -0.0674  0.1023 -0.0403
  108POPC   C4B 1609   9.017   2.512   5.717 -0.1929 -0.2038  0.1485
  109POPC   NC3 1610   5.923   4.536   6.992 -0.5180  0.2196 -0.0255
  109POPC   PO4 1611   6.168   4.975   6.973  0.2564 -0.0673  0.1873
  109POPC   GL1 1612   6.081   4.902   6.561  0.1964 -0.0304 -0.0916
  109POPC   GL2 1613   6.327   5.121   6.433 -0.3845 -0.1703  0.0098
  109POPC   C1A 1614   6.002   4.850   6.123 -0.1245  0.1688  0.1203
  109POPC   D2A 1615   5.985   5.211   6.002  0.2317  0.1409  0.0605
  109POPC   C3A 1616   6.287   5.490   6.099 -0.3751  0.1329  0.5333
  109POPC   C4A 1617   6.345   5.897   5.833  0.2795 -0.1288 -0.0304
  109POPC   C1B 1618   6.543   4.881   6.089  0.2825  0.1949 -0.0792
  109POPC   C2B 1619   6.817   4.678   5.817  0.1467 -0.1510  0.1126
  109POPC   C3B 1620   7.216   4.675   5.499 -0.0528  0.0737  0.0827
  109POPC   C4B 1621   7.362   4.360   5.195 -0.1136  0.1514  0.0390
  110POPC   NC3 1622   1.570   6.846   7.252 -0.0629 -0.2421 -0.1943
  110POPC   PO4 1623   1.097   6.651   7.332 -0.4013 -0.0152 -0.0487
  110POPC   GL1 1624   1.013   6.371   7.046 -0.2997  0.0626  0.0838
  110POPC   GL2 1625   1.289   6.322   6.953  0.1314  0.1548 -0.1688
  110POPC   C1A 1626   0.944   6.492   6.619 -0.0833 -0.1479 -0.0438
  110POPC   D2A 1627   1.081   6.684   6.180 -0.2480  0.0748 -0.0527
  110POPC   C3A 1628   0.786   6.984   5.918  0.0057 -0.0519  0.3190
  110POPC   C4A 1629   0.676   7.347   6.183  0.0892  0.0727  0.0638
  110POPC   C1B 1630   1.309   6.246   6.453  0.1120  0.0931  0.0700
  110POPC   C2B 1631   1.499   6.354   6.065 -0.1863 -0.1226  0.2018
  110POPC   C3B 1632   1.248   6.289   5.679 -0.0222  0.0272  0.2223
  110POPC   C4B 1633   1.521   6.550   5.329 -0.3653 -0.0763  0.0122
  111POPC   NC3 1634   8.475   5.558   7.089  0.2457 -0.3981 -0.0428
  111POPC   PO4 1635   8.271   6.008   7.189  0.1000 -0.0913 -0.3137
  111POPC   GL1 1636   8.443   6.084   6.820  0.2111 -0.0960 -0.0678
  111POPC   GL2 1637   8.233   6.035   6.634 -0.2243  0.2958 -0.1187
  111POPC   C1A 1638   8.691   5.907   6.537 -0.1487 -0.2067 -0.1000
  111POPC   D2A 1639   8.633   5.618   6.226 -0.0904  0.0760  0.0265
  111POPC   C3A 1640   9.007   5.619   5.843 -0.0404  0.0867 -0.0561
  111POPC   C4A 1641   9.085   5.500   5.378  0.0436  0.0740 -0.0400
  111POPC   C1B 1642   8.051   5.962   6.246  0.3277 -0.0427  0.2358
  111POPC   C2B 1643   8.154   5.696   5.925  0.2576 -0.1551  0.2141
  111POPC   C3B 1644   8.228   5.819   5.601  0.0908  0.1945 -0.2454
  111POPC   C4B 1645   8.315   5.582   5.299  0.1130 -0.2005  0.1087
  112POPC   NC3 1646   1.097   9.837   7.574  0.4202 -0.2015 -0.2223
  112POPC   PO4 1647   0.811  10.053   7.559 -0.0080  0.3075 -0.2141
  112POPC   GL1 1648   0.646   9.743   7.222  0.0322 -0.0705 -0.5374
  112POPC   GL2 1649   0.585   9.436   7.085  0.0178 -0.3888 -0.0180
  112POPC   C1A 1650   0.764   9.780   6.782  0.0762 -0.3480 -0.3125
  112POPC   D2A 1651   0.600   9.917   6.471 -0.0506 -0.2077  0.3422
  112POPC   C3A 1652   0.396   9.595   6.298 -0.1778  0.3126 -0.2169
  112POPC   C4A 1653   0.299   9.434   5.796 -0.0380  0.2467 -0.2026
  112POPC   C1B 1654   0.414   9.342   6.765  0.1664 -0.1635  0.0293
  112POPC   C2B 1655   0.354   9.129   6.554  0.1906 -0.0769  0.0695
  112POPC   C3B 1656   0.291   9.012   6.075 -0.2712  0.4451 -0.0440
  112POPC   C4B 1657   0.126   8.711   5.694  0.1274  0.2207  0.2192
  113POPC   NC3 1658   5.618  10.646   8.568 -0.1831  0.1912 -0.1487
  113POPC   PO4 1659   5.538  10.489   8.030  0.0496 -0.3283 -0.0602
  113POPC   GL1 1660   5.508  10.507   7.580 -0.2506  0.0575 -0.0536
  113POPC   GL2 1661   5.256  10.654   7.458 -0.0301  0.2225  0.1118
  113POPC   C1A 1662   5.744  10.384   7.223 -0.3298  0.1349 -0.1577
  113POPC   D2A 1663   5.807  10.361   6.741  0.2439  0.0986 -0.4055
  113POPC   C3A 1664   5.587  10.640   6.486  0.0806 -0.0486  0.1016
  113POPC   C4A 1665   5.576  10.861   6.062 -0.3616 -0.3358  0.2988
  113POPC   C1B 1666   5.402  10.791   6.956  0.2800 -0.0453 -0.1087
  113POPC   C2B 1667   5.188  10.951   6.637 -0.4172  0.2972 -0.1610
  113POPC   C3B 1668   4.969  11.123   6.232 -0.1142 -0.2576 -0.0023
  113POPC   C4B 1669   4.665  11.208   6.059  0.0520  0.0068  0.0486
  114POPC   NC3 1670   0.691   6.332   7.504  0.1771 -0.0197 -0.2048
  114POPC   PO4 1671   0.571   5.951   7.247 -0.0462  0.0245 -0.0897
  114POPC   GL1 1672   0.597   5.971   6.767  0.0252  0.1439 -0.1186
  114POPC   GL2 1673   0.919   5.990   6.619 -0.2117 -0.0560 -0.0159
  114POPC   C1A 1674   0.526   5.836   6.368 -0.3064 -0.1253 -0.0784
  114POPC   D2A 1675   0.660   5.746   5.858  0.0402 -0.1131  0.0417
  114POPC   C3A 1676   0.478   5.467   5.603  0.0777 -0.2666 -0.2020
  114POPC   C4A 1677   0.570   5.136   5.274  0.1958  0.0001  0.0289
  114POPC   C1B 1678   0.876   6.165   6.171  0.1243  0.1780 -0.2266
  114POPC   C2B 1679   0.696   6.248   5.720 -0.2202 -0.1157  0.0705
  114POPC   C3B 1680   0.644   6.653   5.574 -0.3187  0.0138  0.1355
  114POPC   C4B 1681   0.619   7.128   5.454 -0.0346 -0.1887  0.0863
  115POPC   NC3 1682   0.906   5.564   7.588  0.1443  0.1156  0.2753
  115POPC   PO4 1683   1.248   5.299   7.384  0.1040  0.1619  0.3491
  115POPC   GL1 1684   1.254   5.418   6.907  0.1591 -0.3115 -0.0949
  115POPC   GL2 1685   1.091   5.300   6.736 -0.0439  0.1671  0.0141
  115POPC   C1A 1686   1.393   5.824   6.797  0.0353 -0.0420  0.0039
  115POPC   D2A 1687   1.810   6.062   6.568  0.0415 -0.0833 -0.0945
  115POPC   C3A 1688   1.794   6.375   6.432 -0.4045  0.3041 -0.3239
  115POPC   C4A 1689   1.997   6.477   6.040  0.1963 -0.1627 -0.1000
  115POPC   C1B 1690   1.208   5.108   6.391 -0.1134 -0.1527  0.0377
  115POPC   C2B 1691   1.217   5.078   6.031  0.0229 -0.0994  0.0188
  115POPC   C3B 1692   1.483   5.003   5.727 -0.1351 -0.1597 -0.0117
  115POPC   C4B 1693   1.572   5.323   5.432 -0.1217  0.0915  0.0395
  116POPC   NC3 1694   1.717   3.894   7.623  0.2896  0.2736 -0.1723
  116POPC   PO4 1695   1.528   4.262   7.713  0.0907 -0.0527  0.1816
  116POPC   GL1 1696   1.896   4.383   7.492 -0.0424 -0.2335  0.3064
  116POPC   GL2 1697   2.038   4.165   7.315 -0.0167 -0.0489 -0.2130
  116POPC   C1A 1698   2.028   4.674   7.147  0.0684  0.3416 -0.0146
  116POPC   D2A 1699   2.071   4.835   6.796  0.3868  0.2396  0.3953
  116POPC   C3A 1700   1.869   4.838   6.414 -0.0460  0.2826  0.3624
  116POPC   C4A 1701   1.594   4.756   6.142 -0.2789  0.1518  0.0870
  116POPC   C1B 1702   2.081   4.272   6.873 -0.1002  0.2408  0.0343
  116POPC   C2B 1703   2.261   4.453   6.510  0.2795 -0.2006 -0.0482
  116POPC   C3B 1704   2.530   4.768   6.262 -0.0853  0.1947  0.1898
  116POPC   C4B 1705   2.937   4.840   5.996  0.1817 -0.2443  0.2680
  117POPC   NC3 1706   8.858  10.372   7.935  0.0455 -0.1658 -0.0735
  117POPC   PO4 1707   8.769  10.840   7.790  0.0524 -0.3179 -0.4386
  117POPC   GL1 1708   8.947  10.912   7.378  0.1277 -0.0154  0.1747
  117POPC   GL2 1709   8.972  10.770   7.188 -0.1587  0.1296  0.1694
  117POPC   C1A 1710   9.087  11.264   6.954 -0.0820 -0.2283  0.1721
  117POPC   D2A 1711   9.392  11.383   6.652 -0.0246 -0.2342  0.0104
  117POPC   C3A 1712   9.274  11.589   6.281 -0.1941  0.4450  0.0829
  117POPC   C4A 1713   9.404  11.733   5.931 -0.0419  0.0373  0.1056
  117POPC   C1B 1714   8.805  10.877   6.794  0.0740  0.0037  0.0504
  117POPC   C2B 1715   8.742  10.915   6.313 -0.1582 -0.1588 -0.0829
  117POPC   C3B 1716   8.756  10.933   5.836 -0.0102 -0.0119 -0.0852
  117POPC   C4B 1717   8.816  11.126   5.448 -0.0492 -0.0818 -0.1158
  118POPC   NC3 1718   6.435   8.637   7.847  0.5718 -0.0459 -0.0016
  118POPC   PO4 1719   6.380   8.846   7.366 -0.2343 -0.1529 -0.1132
  118POPC   GL1 1720   6.228   8.854   7.008 -0.2275 -0.2420  0.0831
  118POPC   GL2 1721   5.971   8.704   7.086 -0.2176 -0.0867  0.2754
  118POPC   C1A 1722   6.207   9.025   6.525  0.1672  0.1331  0.4382
  118POPC   D2A 1723   6.343   9.209   6.173  0.1248  0.1035  0.1527
  118POPC   C3A 1724   6.546   9.386   5.907  0.3133  0.1111  0.1747
  118POPC   C4A 1725   6.756   9.589   5.509  0.1101  0.0773 -0.2151
  118POPC   C1B 1726   6.031   8.556   6.666 -0.1580 -0.0701  0.2891
  118POPC   C2B 1727   6.119   8.420   6.210 -0.0762  0.3977 -0.0976
  118POPC   C3B 1728   6.137   8.389   5.703  0.0184  0.1943 -0.1718
  118POPC   C4B 1729   5.990   8.386   5.376 -0.1820 -0.2558  0.0609
  119POPC   NC3 1730   2.650   4.270   7.905 -0.1822 -0.0495 -0.0036
  119POPC   PO4 1731   2.630   3.753   7.800  0.3360  0.1989  0.2204
  119POPC   GL1 1732   2.637   4.070   7.374 -0.0407  0.0788  0.1987
  119POPC   GL2 1733   2.841   4.285   7.311 -0.0206 -0.2185 -0.1142
  119POPC   C1A 1734   2.467   4.479   7.160  0.1859  0.2293  0.3962
  119POPC   D2A 1735   2.526   4.715   6.794 -0.2550 -0.0236 -0.0658
  119POPC   C3A 1736   2.955   4.712   6.619 -0.1122  0.1998  0.1849
  119POPC   C4A 1737   3.315   4.816   6.566 -0.2823  0.0035 -0.1141
  119POPC   C1B 1738   2.798   4.272   6.870 -0.2996  0.0166  0.0806
  119POPC   C2B 1739   2.714   4.296   6.414 -0.0726  0.0247 -0.3592
  119POPC   C3B 1740   2.541   4.343   6.040  0.3509  0.0551  0.4631
  119POPC   C4B 1741   2.578   4.531   5.653  0.3879 -0.1652  0.0592
  120POPC   NC3 1742   8.700   3.435   7.336  0.3599  0.1982 -0.2216
  120POPC   PO4 1743   8.833   3.907   7.377 -0.0635 -0.0990  0.1778
  120POPC   GL1 1744   8.900   3.755   6.938 -0.1193  0.0534 -0.0671
  120POPC   GL2 1745   8.814   4.030   6.687  0.5251  0.0646  0.1117
  120POPC   C1A 1746   8.870   3.527   6.653  0.0721 -0.1092 -0.1984
  120POPC   D2A 1747   8.872   3.631   6.171  0.2838  0.1353  0.1240
  120POPC   C3A 1748   9.020   3.258   6.004  0.1133 -0.1926  0.2604
  120POPC   C4A 1749   9.040   2.870   6.038 -0.0127  0.0955  0.3764
  120POPC   C1B 1750   8.756   4.157   6.187  0.0251  0.2052 -0.0140
  120POPC   C2B 1751   8.683   4.098   5.777  0.3921  0.0379  0.3081
  120POPC   C3B 1752   8.486   4.171   5.333  0.1908  0.1143 -0.0605
  120POPC   C4B 1753   8.080   4.116   5.034 -0.1499  0.1317  0.1490
  121POPC   NC3 1754   9.559   0.548   7.830  0.2850  0.2284  0.0124
  121POPC   PO4 1755   9.591   0.688   7.443  0.0261  0.1031 -0.0302
  121POPC   GL1 1756   9.405   0.826   7.053  0.2373 -0.1416  0.1005
  121POPC   GL2 1757   9.498   1.235   6.902 -0.0282  0.1085  0.0918
  121POPC   C1A 1758   9.086   0.945   6.739  0.2392  0.1128 -0.1473
  121POPC   D2A 1759   8.973   1.040   6.235  0.0132  0.1627  0.0814
  121POPC   C3A 1760   8.996   1.094   5.875  0.2352  0.0730 -0.0199
  121POPC   C4A 1761   9.223   1.334   5.544 -0.0926 -0.0320  0.2662
  121POPC   C1B 1762   9.598   1.043   6.509  0.1240 -0.1188 -0.1628
  121POPC   C2B 1763   9.655   1.206   6.011  0.0020 -0.0712  0.1251
  121POPC   C3B 1764   9.807   1.371   5.652  0.0931 -0.0930 -0.1934
  121POPC   C4B 1765   9.530   1.549   5.256 -0.3586  0.1225 -0.0217
  122POPC   NC3 1766   8.715   4.534   7.191  0.1475  0.2603  0.1029
  122POPC   PO4 1767   8.478   4.223   6.976  0.1438  0.2646  0.0160
  122POPC   GL1 1768   8.425   4.344   6.610  0.1024 -0.4049 -0.0313
  122POPC   GL2 1769   8.417   4.634   6.636 -0.4452  0.2978 -0.0168
  122POPC   C1A 1770   8.265   4.089   6.267 -0.2191 -0.0671 -0.0130
  122POPC   D2A 1771   8.343   3.827   5.980  0.1709  0.0738 -0.1364
  122POPC   C3A 1772   8.179   3.819   5.584 -0.0977  0.3006  0.1160
  122POPC   C4A 1773   7.923   3.428   5.323 -0.2492  0.1096  0.1165
  122POPC   C1B 1774   8.407   4.596   6.127  0.0398  0.2587  0.0054
  122POPC   C2B 1775   8.304   4.466   5.719  0.0397 -0.1724  0.2048
  122POPC   C3B 1776   8.174   4.603   5.333 -0.2605  0.0444  0.3372
  122POPC   C4B 1777   7.884   4.608   5.021  0.0999 -0.1504 -0.1167
  123POPC   NC3 1778   0.717   5.401   7.041  0.0397 -0.4604  0.0334
  123POPC   PO4 1779   0.447   5.490   7.422 -0.0785 -0.2312 -0.1272
  123POPC   GL1 1780   0.240   5.566   7.078  0.0842  0.1256  0.0544
  123POPC   GL2 1781  -0.086   5.444   6.944  0.2080 -0.1452  0.0162
  123POPC   C1A 1782   0.092   5.872   6.633 -0.1798 -0.2211  0.0837
  123POPC   D2A 1783  -0.072   5.819   6.220 -0.0518  0.0196  0.0675
  123POPC   C3A 1784   0.174   5.813   5.751  0.0514  0.0979 -0.2063
  123POPC   C4A 1785  -0.099   5.776   5.492 -0.0920 -0.3602 -0.2391
  123POPC   C1B 1786  -0.246   5.532   6.582  0.0761 -0.1347  0.0524
  123POPC   C2B 1787  -0.483   5.344   6.207  0.1557  0.1150 -0.1705
  123POPC   C3B 1788  -0.739   5.054   6.062  0.4094 -0.1147 -0.1643
  123POPC   C4B 1789  -1.091   4.780   6.248  0.1162 -0.0460 -0.1466
  124POPC   NC3 1790   8.516   8.572   7.026  0.2016 -0.1113 -0.1066
  124POPC   PO4 1791   8.344   8.150   7.076 -0.4624  0.1680 -0.1688
  124POPC   GL1 1792   8.553   8.034   6.725 -0.0322  0.1591 -0.0769
  124POPC   GL2 1793   8.306   7.811   6.588  0.0154 -0.1268 -0.1148
  124POPC   C1A 1794   8.645   8.192   6.310  0.0942  0.1993 -0.0152
  124POPC   D2A 1795   8.984   8.343   6.102  0.1218  0.0285 -0.4773
  124POPC   C3A 1796   9.022   8.216   5.597  0.0185  0.0535 -0.3640
  124POPC   C4A 1797   9.165   8.171   5.154 -0.1152  0.3593 -0.2072
  124POPC   C1B 1798   8.253   7.886   6.159  0.1201 -0.1978 -0.3155
  124POPC   C2B 1799   8.318   8.222   5.981  0.2827 -0.1759  0.0069
  124POPC   C3B 1800   8.565   8.378   5.753  0.1373  0.1174 -0.1936
  124POPC   C4B 1801   8.600   8.282   5.347  0.1256  0.0666  0.5006
  125POPC   NC3 1802  10.886   2.064   7.337  0.2460  0.1167  0.1697
  125POPC   PO4 1803  11.220   2.241   7.547  0.3101 -0.0049  0.1754
  125POPC   GL1 1804  11.507   2.216   7.179  0.1973  0.0418 -0.3524
  125POPC   GL2 1805  11.795   2.373   7.318  0.1240 -0.3645 -0.0378
  125POPC   C1A 1806  11.587   2.212   6.772  0.4321 -0.0410  0.0543
  125POPC   D2A 1807  11.615   2.013   6.448  0.1342 -0.1041  0.2932
  125POPC   C3A 1808  11.261   1.922   6.287  0.1444 -0.1788 -0.1383
  125POPC   C4A 1809  11.008   1.604   6.359 -0.1025 -0.0058  0.2204
  125POPC   C1B 1810  11.648   2.665   7.037 -0.3002  0.4057  0.0591
  125POPC   C2B 1811  11.580   2.651   6.573 -0.1358  0.0419  0.0973
  125POPC   C3B 1812  11.566   2.976   6.224  0.1258  0.1154  0.4711
  125POPC   C4B 1813  11.523   3.231   5.934 -0.0741 -0.1648  0.2038
  126POPC   NC3 1814   2.994   8.816   7.325  0.0127 -0.1147  0.1388
  126POPC   PO4 1815   2.795   8.471   7.241 -0.0923  0.0306  0.2892
  126POPC   GL1 1816   2.920   8.576   6.792  0.3026  0.0353  0.2580
  126POPC   GL2 1817   2.865   8.900   6.722  0.2290  0.0070 -0.0508
  126POPC   C1A 1818   2.948   8.579   6.343  0.2660  0.0330  0.0380
  126POPC   D2A 1819   2.909   8.697   5.913  0.4756  0.2969  0.1417
  126POPC   C3A 1820   2.982   8.252   5.780 -0.1668 -0.0087  0.0763
  126POPC   C4A 1821   3.187   8.021   5.530 -0.0774  0.0849 -0.0542
  126POPC   C1B 1822   3.167   9.081   6.408  0.0255 -0.1197 -0.0264
  126POPC   C2B 1823   3.646   9.300   6.234  0.3184  0.2320  0.1672
  126POPC   C3B 1824   3.956   9.471   5.955 -0.0423  0.0241 -0.2293
  126POPC   C4B 1825   4.106   9.676   5.620 -0.3803 -0.1690  0.1739
  127POPC   NC3 1826   5.463   8.682   7.556 -0.0006  0.0846  0.0286
  127POPC   PO4 1827   5.678   8.322   7.291  0.1478  0.3617 -0.2776
  127POPC   GL1 1828   5.526   8.142   6.981  0.1673 -0.1103  0.1013
  127POPC   GL2 1829   5.291   7.972   6.905  0.1830  0.2896  0.0174
  127POPC   C1A 1830   5.493   8.219   6.554  0.0890 -0.0467  0.0499
  127POPC   D2A 1831   5.298   8.096   6.180  0.2231 -0.1588 -0.2713
  127POPC   C3A 1832   5.177   8.268   5.795 -0.0133  0.1271 -0.2368
  127POPC   C4A 1833   5.484   8.375   5.548 -0.4423  0.2734 -0.0599
  127POPC   C1B 1834   4.978   8.000   6.548  0.1217  0.0157  0.1854
  127POPC   C2B 1835   4.801   8.328   6.166 -0.1702  0.1365  0.0933
  127POPC   C3B 1836   4.803   8.644   5.823  0.0187  0.1128  0.1181
  127POPC   C4B 1837   4.571   8.928   5.494 -0.1242  0.0293  0.0038
  128POPC   NC3 1838   9.614   9.973   7.243 -0.1746  0.0370  0.2212
  128POPC   PO4 1839   9.339  10.053   7.525  0.3852 -0.1344 -0.2316
  128POPC   GL1 1840   9.165  10.287   7.164 -0.1651  0.0413 -0.1868
  128POPC   GL2 1841   8.845  10.297   7.014 -0.4162  0.0608  0.0755
  128POPC   C1A 1842   9.284  10.618   6.858 -0.0563  0.1309 -0.3971
  128POPC   D2A 1843   9.313  10.820   6.430  0.1942  0.4617 -0.0388
  128POPC   C3A 1844   9.233  11.147   6.100  0.0439 -0.4142  0.1094
  128POPC   C4A 1845   9.654  11.265   5.944 -0.2723  0.1168  0.0759
  128POPC   C1B 1846   8.885  10.315   6.609  0.0023 -0.2535 -0.2124
  128POPC   C2B 1847   8.745  10.389   6.199  0.1915 -0.1350 -0.0363
  128POPC   C3B 1848   8.684  10.398   5.705 -0.1243 -0.1383  0.0303
  128POPC   C4B 1849   8.439  10.763   5.541 -0.2053 -0.2062  0.0677
  129POPC   NC3 1850   4.748   3.883   7.545  0.3385  0.0487 -0.1838
  129POPC   PO4 1851   5.067   3.659   7.622 -0.0892  0.0742  0.2779
  129POPC   GL1 1852   4.941   3.491   7.292 -0.1663 -0.1107 -0.1606
  129POPC   GL2 1853   5.281   3.388   7.185  0.1804 -0.0389 -0.0518
  129POPC   C1A 1854   4.732   3.379   6.905  0.0069  0.0999 -0.0543
  129POPC   D2A 1855   4.503   3.346   6.521  0.2090  0.2414 -0.0893
  129POPC   C3A 1856   4.217   3.184   6.249  0.2006  0.2109  0.1407
  129POPC   C4A 1857   3.756   3.346   6.053 -0.0697  0.3587 -0.0393
  129POPC   C1B 1858   5.311   3.194   6.714 -0.1538 -0.0382 -0.0256
  129POPC   C2B 1859   5.112   3.103   6.346 -0.1293 -0.0855  0.3536
  129POPC   C3B 1860   5.219   3.101   5.891 -0.0888  0.2376 -0.4537
  129POPC   C4B 1861   5.383   3.348   5.636  0.1381 -0.2400  0.0336
  130POPC   NC3 1862   4.016   1.779   8.074  0.0598 -0.1544 -0.2905
  130POPC   PO4 1863   4.063   2.115   7.826  0.0791 -0.0014  0.1526
  130POPC   GL1 1864   4.114   1.846   7.517  0.2340  0.0498 -0.0619
  130POPC   GL2 1865   4.174   2.080   7.299 -0.1753 -0.1752  0.1158
  130POPC   C1A 1866   4.011   1.612   7.113  0.3072 -0.3480  0.1456
  130POPC   D2A 1867   3.995   1.639   6.688 -0.2710 -0.2238  0.1003
  130POPC   C3A 1868   4.271   1.847   6.526  0.1393 -0.0127 -0.0485
  130POPC   C4A 1869   4.313   2.141   6.174  0.0242  0.0177  0.3015
  130POPC   C1B 1870   4.078   2.117   6.897 -0.2426 -0.1688  0.2211
  130POPC   C2B 1871   3.847   2.113   6.625 -0.0778  0.0293 -0.0468
  130POPC   C3B 1872   3.489   2.144   6.348 -0.0717  0.0376  0.0349
  130POPC   C4B 1873   3.636   1.912   5.851 -0.1262 -0.2257 -0.0950
  131POPC   NC3 1874  10.387   6.111   7.667 -0.2868  0.1260  0.0272
  131POPC   PO4 1875  10.660   6.144   7.371 -0.1393  0.0698 -0.0243
  131POPC   GL1 1876  10.525   6.025   6.945  0.1747 -0.0355 -0.0928
  131POPC   GL2 1877  10.288   5.849   6.759  0.1880  0.0111 -0.0388
  131POPC   C1A 1878  10.615   6.186   6.560  0.2990  0.0036 -0.1819
  131POPC   D2A 1879  10.949   6.390   6.401 -0.0763  0.3902  0.0786
  131POPC   C3A 1880  10.736   6.683   6.052  0.3239  0.2997  0.1359
  131POPC   C4A 1881  10.437   6.843   5.889  0.0363 -0.3262 -0.0858
  131POPC   C1B 1882  10.355   5.813   6.295 -0.1790 -0.1322  0.2037
  131POPC   C2B 1883  10.468   5.755   5.836  0.0765  0.5574  0.1671
  131POPC   C3B 1884  10.186   5.986   5.602 -0.0501 -0.0713  0.1588
  131POPC   C4B 1885   9.886   6.069   5.298  0.2909  0.0883  0.1182
  132POPC   NC3 1886   3.949   3.790   7.847  0.4876  0.0085 -0.1091
  132POPC   PO4 1887   4.321   3.541   7.585  0.1326 -0.0904 -0.3292
  132POPC   GL1 1888   4.206   3.259   7.184 -0.2368 -0.1595  0.1849
  132POPC   GL2 1889   4.223   2.880   7.219  0.1794 -0.2863  0.0910
  132POPC   C1A 1890   3.963   3.131   6.819  0.0289  0.0549  0.2871
  132POPC   D2A 1891   3.607   3.061   6.482  0.1059 -0.0847  0.0467
  132POPC   C3A 1892   3.842   2.901   6.053 -0.0442  0.1253  0.0269
  132POPC   C4A 1893   4.011   2.597   5.646  0.1239  0.2828 -0.2388
  132POPC   C1B 1894   3.980   2.651   7.021  0.4611 -0.0590 -0.1561
  132POPC   C2B 1895   3.902   2.599   6.513 -0.2825 -0.0395  0.1784
  132POPC   C3B 1896   3.861   2.331   6.051  0.0002 -0.2676 -0.2585
  132POPC   C4B 1897   4.055   2.061   5.744  0.2621  0.0109  0.2555
  133POPC   NC3 1898   0.891  10.522   7.408  0.0072  0.1751  0.0407
  133POPC   PO4 1899   1.163  10.527   7.030 -0.1750 -0.0730  0.0836
  133POPC   GL1 1900   0.953  10.450   6.697  0.1694  0.0805 -0.0391
  133POPC   GL2 1901   1.268  10.401   6.551 -0.0079  0.1485  0.0926
  133POPC   C1A 1902   0.770  10.445   6.372  0.0844 -0.1175  0.3862
  133POPC   D2A 1903   0.364  10.264   6.220 -0.0365  0.0027 -0.0136
  133POPC   C3A 1904   0.034  10.579   6.129 -0.1077  0.0645 -0.0593
  133POPC   C4A 1905   0.020  10.953   6.448 -0.0325  0.1831  0.0097
  133POPC   C1B 1906   1.080  10.013   6.345 -0.2265 -0.0610  0.3329
  133POPC   C2B 1907   1.145   9.591   6.121 -0.1925  0.0769 -0.0057
  133POPC   C3B 1908   1.074   9.333   5.726  0.1951 -0.1312  0.0639
  133POPC   C4B 1909   1.174   8.942   5.476 -0.1216 -0.3099  0.2807
  134POPC   NC3 1910   5.700   6.941   7.370 -0.1092 -0.0141  0.1857
  134POPC   PO4 1911   5.718   6.583   7.160 -0.3945  0.1287 -0.3100
  134POPC   GL1 1912   5.769   6.442   6.756 -0.1202 -0.4106 -0.1239
  134POPC   GL2 1913   5.468   6.526   6.666  0.2667 -0.3078  0.1682
  134POPC   C1A 1914   5.778   6.338   6.331 -0.0907  0.1741 -0.0055
  134POPC   D2A 1915   6.039   6.237   6.039 -0.0544 -0.2962 -0.0331
  134POPC   C3A 1916   5.984   6.098   5.536  0.0097  0.2653 -0.0796
  134POPC   C4A 1917   5.981   6.053   5.074  0.3160 -0.1967  0.2414
  134POPC   C1B 1918   5.361   6.641   6.292  0.1056 -0.0304  0.1991
  134POPC   C2B 1919   5.680   6.577   5.854  0.0055  0.1084  0.1211
  134POPC   C3B 1920   5.675   6.639   5.359  0.1020  0.0165  0.4321
  134POPC   C4B 1921   5.628   6.358   4.956 -0.2019 -0.3992 -0.0857
  135POPC   NC3 1922   5.427   2.688   7.710  0.1221 -0.2252 -0.2545
  135POPC   PO4 1923   5.187   2.182   7.687 -0.3274 -0.0332 -0.2006
  135POPC   GL1 1924   4.950   2.200   7.380 -0.1618  0.2760 -0.1726
  135POPC   GL2 1925   5.141   2.420   7.249  0.0502  0.1297 -0.1852
  135POPC   C1A 1926   4.620   2.329   7.214 -0.1460  0.1063 -0.0067
  135POPC   D2A 1927   4.434   2.471   6.941 -0.0913 -0.3169  0.1726
  135POPC   C3A 1928   4.569   2.261   6.586 -0.2130 -0.2344  0.4494
  135POPC   C4A 1929   4.784   2.051   6.355  0.1352  0.0181 -0.1461
  135POPC   C1B 1930   5.502   2.319   7.061  0.0201 -0.0270 -0.0459
  135POPC   C2B 1931   5.499   2.263   6.577  0.1890 -0.2542 -0.4060
  135POPC   C3B 1932   5.290   2.189   6.192 -0.0781  0.2838  0.2022
  135POPC   C4B 1933   5.010   2.211   5.874  0.1083 -0.0141  0.0849
  136POPC   NC3 1934   8.194   5.111   6.973  0.0479 -0.0562 -0.0472
  136POPC   PO4 1935   8.580   4.983   6.944  0.1226 -0.2260 -0.0178
  136POPC   GL1 1936   8.567   5.228   6.570 -0.1675  0.1980 -0.2013
  136POPC   GL2 1937   8.297   5.463   6.590 -0.1295  0.0348  0.0183
  136POPC   C1A 1938   8.437   5.174   6.164 -0.1892 -0.0377  0.1046
  136POPC   D2A 1939   8.482   4.971   5.770  0.0505  0.1172 -0.2775
  136POPC   C3A 1940   8.393   5.068   5.324 -0.1174  0.0984  0.1565
  136POPC   C4A 1941   8.405   5.325   4.920  0.0889 -0.1563  0.2092
  136POPC   C1B 1942   7.953   5.394   6.403  0.1953 -0.1245 -0.0911
  136POPC   C2B 1943   7.974   4.902   6.183 -0.0706 -0.5213  0.1704
  136POPC   C3B 1944   7.877   4.403   6.216 -0.2878 -0.0006 -0.1265
  136POPC   C4B 1945   7.883   4.024   5.914  0.2360  0.0069 -0.1665
  137POPC   NC3 1946   7.080   0.477   7.675 -0.2733 -0.1731 -0.1953
  137POPC   PO4 1947   7.276   0.896   7.786  0.3321 -0.1318  0.0362
  137POPC   GL1 1948   7.233   0.914   7.343 -0.2103 -0.0856 -0.3192
  137POPC   GL2 1949   7.335   0.911   7.106 -0.2114  0.0479  0.2709
  137POPC   C1A 1950   6.871   0.890   7.017  0.1164  0.0918 -0.1108
  137POPC   D2A 1951   6.665   0.861   6.693 -0.2181 -0.0031 -0.0147
  137POPC   C3A 1952   6.723   0.976   6.267  0.4351  0.1109  0.1564
  137POPC   C4A 1953   6.444   1.126   5.911  0.0605  0.1657 -0.1365
  137POPC   C1B 1954   7.269   1.091   6.698 -0.0684 -0.2642  0.0800
  137POPC   C2B 1955   7.154   1.207   6.344  0.2482 -0.1826 -0.2728
  137POPC   C3B 1956   7.113   0.933   5.869 -0.1312  0.3160  0.0208
  137POPC   C4B 1957   7.219   0.692   5.412 -0.0569  0.0911  0.1422
  138POPC   NC3 1958   3.435   7.721   7.194 -0.0630 -0.4941 -0.3932
  138POPC   PO4 1959   3.651   8.081   7.158  0.0177  0.3437  0.1232
  138POPC   GL1 1960   3.678   7.727   6.782  0.2958  0.0013 -0.1583
  138POPC   GL2 1961   3.635   7.273   6.816  0.2539  0.2515  0.1513
  138POPC   C1A 1962   3.439   7.597   6.372  0.0542  0.3451 -0.2030
  138POPC   D2A 1963   3.381   7.679   5.890  0.0857  0.0254  0.1547
  138POPC   C3A 1964   3.581   7.486   5.673 -0.0847 -0.0399  0.2434
  138POPC   C4A 1965   3.650   7.605   5.237  0.0380  0.0060  0.2978
  138POPC   C1B 1966   3.613   6.997   6.339  0.1122  0.0979  0.0561
  138POPC   C2B 1967   3.640   7.023   5.858  0.0100  0.1478 -0.0441
  138POPC   C3B 1968   3.855   6.863   5.547 -0.2087 -0.1160 -0.1684
  138POPC   C4B 1969   3.875   7.007   5.063 -0.0139  0.2611 -0.2618
  139POPC   NC3 1970   9.147   9.243   7.234  0.2579 -0.3004  0.2112
  139POPC   PO4 1971   9.577   9.087   7.051  0.2953  0.0069  0.0075
  139POPC   GL1 1972   9.399   9.231   6.666  0.0973  0.0308 -0.0475
  139POPC   GL2 1973   9.043   9.386   6.748 -0.0288  0.2002 -0.0236
  139POPC   C1A 1974   9.404   9.229   6.169  0.1119  0.1587  0.1754
  139POPC   D2A 1975   9.634   9.252   5.912  0.0469  0.0339 -0.1308
  139POPC   C3A 1976   9.600   9.088   5.560 -0.4383 -0.1765 -0.0848
  139POPC   C4A 1977   9.423   9.116   5.132  0.3744 -0.0119 -0.1906
  139POPC   C1B 1978   8.955   9.171   6.397  0.1332 -0.0691  0.3008
  139POPC   C2B 1979   9.088   8.892   6.051  0.3778 -0.3272 -0.0470
  139POPC   C3B 1980   9.149   8.880   5.650 -0.2872  0.3645  0.0532
  139POPC   C4B 1981   8.965   8.609   5.221 -0.0470 -0.3233 -0.1256
  140POPC   NC3 1982   8.480   8.494   7.564 -0.0864  0.0298 -0.1109
  140POPC   PO4 1983   8.068   8.583   7.291  0.0313 -0.2144  0.1367
  140POPC   GL1 1984   8.055   8.878   6.861 -0.0185 -0.0008 -0.2922
  140POPC   GL2 1985   8.286   8.707   6.605  0.2633 -0.2865  0.1683
  140POPC   C1A 1986   7.999   9.168   6.505  0.1632 -0.2877 -0.1499
  140POPC   D2A 1987   8.120   9.350   6.094  0.2549  0.4139 -0.2194
  140POPC   C3A 1988   8.483   9.696   6.160  0.3194  0.1573 -0.0270
  140POPC   C4A 1989   8.467  10.051   5.980  0.0826  0.3312 -0.0616
  140POPC   C1B 1990   7.961   8.673   6.300  0.1433  0.2668  0.3471
  140POPC   C2B 1991   7.724   8.857   5.958  0.3533 -0.0646 -0.0238
  140POPC   C3B 1992   7.745   9.015   5.566 -0.2758 -0.1025  0.0290
  140POPC   C4B 1993   8.266   9.143   5.562  0.2627  0.0186 -0.1154
  141POPC   NC3 1994   4.866   6.203   7.710  0.0251  0.0758  0.1077
  141POPC   PO4 1995   4.627   6.131   7.217  0.3034  0.1675 -0.0583
  141POPC   GL1 1996   4.839   6.140   6.837 -0.3239 -0.1633 -0.4239
  141POPC   GL2 1997   4.780   5.939   6.578  0.4215  0.0280 -0.3176
  141POPC   C1A 1998   4.827   6.424   6.463  0.1332  0.1367  0.0292
  141POPC   D2A 1999   4.830   6.572   6.096  0.0101  0.0453  0.0132
  141POPC   C3A 2000   5.176   6.502   5.819 -0.0592 -0.2226  0.1122
  141POPC   C4A 2001   5.367   6.928   5.627  0.3188 -0.3607  0.0822
  141POPC   C1B 2002   4.746   5.964   6.240 -0.1175 -0.0556  0.0035
  141POPC   C2B 2003   4.568   6.169   5.837 -0.1764 -0.1967  0.1105
  141POPC   C3B 2004   4.568   5.815   5.438  0.2103  0.0245  0.0147
  141POPC   C4B 2005   4.544   5.441   5.389  0.3068  0.0705  0.0559
  142POPC   NC3 2006   4.222   5.747   7.370  0.0444  0.0652  0.2447
  142POPC   PO4 2007   4.045   5.680   6.981 -0.0429 -0.1406  0.4412
  142POPC   GL1 2008   4.055   5.325   6.739 -0.1694 -0.0097 -0.4408
  142POPC   GL2 2009   4.040   5.462   6.517 -0.3684  0.2530  0.0417
  142POPC   C1A 2010   4.270   4.957   6.526  0.0930 -0.1771 -0.0965
  142POPC   D2A 2011   4.459   4.852   6.238 -0.2004  0.0201  0.1540
  142POPC   C3A 2012   4.091   4.565   6.001 -0.0246  0.0252 -0.2077
  142POPC   C4A 2013   3.866   4.261   5.776 -0.0801 -0.4204  0.0463
  142POPC   C1B 2014   4.199   5.338   6.140  0.0378 -0.0494  0.2113
  142POPC   C2B 2015   4.363   5.041   5.801  0.1234 -0.2327  0.1761
  142POPC   C3B 2016   4.472   4.839   5.473  0.2438  0.0369  0.1441
  142POPC   C4B 2017   4.651   4.933   5.162 -0.0234  0.2726  0.1168
  143POPC   NC3 2018   4.610   5.678   6.969  0.3135  0.0303 -0.0364
  143POPC   PO4 2019   5.011   5.629   6.937  0.4677  0.2889  0.1334
  143POPC   GL1 2020   5.227   5.697   6.626  0.1056 -0.2745 -0.0073
  143POPC   GL2 2021   5.410   6.004   6.571 -0.2183  0.1121 -0.0967
  143POPC   C1A 2022   5.116   5.646   6.221  0.4400 -0.0654  0.2500
  143POPC   D2A 2023   4.873   5.756   5.833 -0.0029  0.3163 -0.2738
  143POPC   C3A 2024   4.324   5.714   5.858  0.0053 -0.0049 -0.0313
  143POPC   C4A 2025   4.094   5.720   5.537 -0.1274 -0.2764  0.1141
  143POPC   C1B 2026   5.224   6.130   6.147  0.0807 -0.1508  0.0974
  143POPC   C2B 2027   5.424   6.026   5.722 -0.0863  0.1328  0.0307
  143POPC   C3B 2028   5.132   6.107   5.383  0.0886 -0.2354 -0.2049
  143POPC   C4B 2029   4.750   6.334   5.371 -0.3319  0.3752 -0.1336
  144POPC   NC3 2030   5.335   8.069   7.579 -0.2665 -0.3359 -0.0145
  144POPC   PO4 2031   5.179   7.819   7.376  0.1764 -0.0052 -0.1248
  144POPC   GL1 2032   4.934   8.220   7.198  0.0713 -0.1800  0.2399
  144POPC   GL2 2033   5.105   8.452   7.119  0.4632  0.0069 -0.0864
  144POPC   C1A 2034   4.613   8.524   7.179 -0.2252 -0.1556  0.2706
  144POPC   D2A 2035   4.462   8.644   6.789 -0.1653 -0.1755 -0.0767
  144POPC   C3A 2036   4.525   8.723   6.433  0.2210  0.1685 -0.0899
  144POPC   C4A 2037   4.447   8.995   6.008 -0.0607  0.2268 -0.0379
  144POPC   C1B 2038   4.986   8.509   6.717 -0.0787  0.0440  0.0680
  144POPC   C2B 2039   5.175   8.569   6.319  0.0971  0.1622 -0.2608
  144POPC   C3B 2040   4.913   8.978   6.147  0.1066  0.0772  0.1034
  144POPC   C4B 2041   4.843   9.268   5.829  0.0415 -0.0009  0.0689
  145POPC   NC3 2042   8.457   1.611   7.767  0.1425  0.1306 -0.1786
  145POPC   PO4 2043   8.331   1.105   7.650  0.2740 -0.0704 -0.3728
  145POPC   GL1 2044   8.321   0.951   7.292 -0.1472 -0.4046  0.1030
  145POPC   GL2 2045   8.011   0.899   7.080  0.1437  0.0252  0.0709
  145POPC   C1A 2046   8.362   1.051   6.815  0.0030 -0.1970  0.1185
  145POPC   D2A 2047   8.467   0.956   6.442 -0.2796 -0.1990 -0.1447
  145POPC   C3A 2048   8.521   0.915   5.980 -0.0232  0.0531 -0.4625
  145POPC   C4A 2049   8.525   0.554   5.737  0.2512 -0.3469  0.3486
  145POPC   C1B 2050   7.874   1.264   6.919 -0.4045  0.0077 -0.1326
  145POPC   C2B 2051   7.767   1.129   6.474  0.4489 -0.0968  0.1387
  145POPC   C3B 2052   7.604   1.192   6.070 -0.1402 -0.1834  0.1716
  145POPC   C4B 2053   7.392   1.227   5.651 -0.1813  0.5853 -0.2430
  146POPC   NC3 2054   5.613   3.611   7.763 -0.3628 -0.3217 -0.0692
  146POPC   PO4 2055   5.918   3.699   7.378 -0.0078  0.1716  0.2685
  146POPC   GL1 2056   5.800   3.318   7.048  0.0077  0.0614  0.0466
  146POPC   GL2 2057   6.118   3.165   6.921 -0.2482 -0.3240 -0.1432
  146POPC   C1A 2058   5.653   2.850   6.768 -0.0495 -0.0857 -0.4344
  146POPC   D2A 2059   5.627   3.077   6.327 -0.1174  0.1216  0.2930
  146POPC   C3A 2060   5.759   3.015   5.872  0.2818  0.3634  0.1046
  146POPC   C4A 2061   5.849   3.097   5.516  0.0055  0.0939 -0.2043
  146POPC   C1B 2062   5.956   3.278   6.568 -0.0250 -0.2861 -0.1483
  146POPC   C2B 2063   5.997   3.349   6.133  0.0036 -0.0372  0.2412
  146POPC   C3B 2064   6.037   3.497   5.776  0.2927 -0.2399 -0.2034
  146POPC   C4B 2065   6.129   3.913   5.540 -0.0682 -0.0274 -0.2637
  147POPC   NC3 2066   4.336   6.487   7.395 -0.2267 -0.2257  0.1299
  147POPC   PO4 2067   4.314   6.617   7.021 -0.0610 -0.0623  0.3236
  147POPC   GL1 2068   4.343   6.308   6.679 -0.1048  0.1165 -0.1614
  147POPC   GL2 2069   4.266   5.984   6.649  0.1008  0.1828 -0.2051
  147POPC   C1A 2070   4.378   6.387   6.238 -0.0134 -0.0941  0.0639
  147POPC   D2A 2071   4.048   6.165   5.902 -0.2364 -0.0784  0.0752
  147POPC   C3A 2072   3.650   6.460   5.739  0.0037 -0.0382 -0.2010
  147POPC   C4A 2073   3.352   6.379   5.405  0.3374  0.0152 -0.0942
  147POPC   C1B 2074   3.968   6.015   6.387  0.2623  0.1359 -0.2192
  147POPC   C2B 2075   3.490   6.059   6.223  0.1646 -0.1087 -0.0699
  147POPC   C3B 2076   3.387   6.346   6.450  0.0190 -0.1377 -0.1789
  147POPC   C4B 2077   3.189   6.734   6.588  0.0482  0.2791 -0.1463
  148POPC   NC3 2078   1.758   2.468   7.677  0.1291  0.1744 -0.0458
  148POPC   PO4 2079   1.747   2.796   7.885  0.3226 -0.1030 -0.0060
  148POPC   GL1 2080   1.841   2.857   7.423  0.1432 -0.1126  0.1826
  148POPC   GL2 2081   1.981   2.704   7.223 -0.2598 -0.1271 -0.0458
  148POPC   C1A 2082   1.946   3.069   6.985 -0.1719  0.0058 -0.4339
  148POPC   D2A 2083   1.962   3.190   6.628 -0.1462  0.0404  0.1384
  148POPC   C3A 2084   2.309   3.048   6.471  0.0026  0.0916  0.0337
  148POPC   C4A 2085   2.264   2.752   6.021 -0.1672 -0.0344 -0.1041
  148POPC   C1B 2086   2.333   2.666   6.883 -0.3083 -0.1858  0.4001
  148POPC   C2B 2087   2.494   2.393   6.527 -0.0988  0.0219  0.0016
  148POPC   C3B 2088   2.911   2.268   6.442  0.3393 -0.2164  0.0406
  148POPC   C4B 2089   3.110   1.928   6.132 -0.1210  0.2007 -0.0360
  149POPC   NC3 2090   2.300   3.366   7.812  0.2371 -0.0522  0.0328
  149POPC   PO4 2091   2.224   2.931   7.789 -0.1311  0.0661  0.3520
  149POPC   GL1 2092   2.282   3.151   7.336  0.1507 -0.3476  0.1677
  149POPC   GL2 2093   2.491   2.968   7.281 -0.0446  0.0300 -0.1266
  149POPC   C1A 2094   2.379   3.408   6.964  0.3652 -0.0225 -0.0762
  149POPC   D2A 2095   2.397   3.572   6.475  0.1905 -0.0350 -0.1824
  149POPC   C3A 2096   2.146   3.422   6.175  0.0329  0.0537  0.2004
  149POPC   C4A 2097   1.613   3.410   6.038 -0.0857  0.1434  0.3447
  149POPC   C1B 2098   2.688   3.009   6.886 -0.3738 -0.0385 -0.2418
  149POPC   C2B 2099   2.779   2.843   6.517  0.0034  0.0507  0.0948
  149POPC   C3B 2100   3.171   2.726   6.332 -0.3168 -0.0007  0.1484
  149POPC   C4B 2101   3.432   2.571   6.035  0.0800 -0.1808  0.1348
  150POPC   NC3 2102   9.269   3.145   7.470 -0.2182 -0.0984 -0.1301
  150POPC   PO4 2103   9.215   2.674   7.476  0.1158 -0.0625  0.1135
  150POPC   GL1 2104   9.126   2.405   7.150  0.0978 -0.0333 -0.1470
  150POPC   GL2 2105   9.387   2.319   6.986  0.0367 -0.1203  0.0438
  150POPC   C1A 2106   8.919   2.184   6.822 -0.1825  0.0101 -0.0765
  150POPC   D2A 2107   8.873   1.814   6.642  0.5682 -0.0405 -0.2985
  150POPC   C3A 2108   8.782   1.988   6.285  0.5216  0.0470 -0.2155
  150POPC   C4A 2109   8.893   1.860   5.949  0.1262 -0.0682  0.1121
  150POPC   C1B 2110   9.371   2.522   6.598 -0.3350 -0.0298  0.2318
  150POPC   C2B 2111   9.576   2.598   6.090 -0.1031 -0.0295  0.2493
  150POPC   C3B 2112   9.521   2.821   5.726  0.0450 -0.0740 -0.1562
  150POPC   C4B 2113   9.156   2.908   5.449 -0.1917  0.1554  0.0832
  151POPC   NC3 2114   1.239   7.924   7.393  0.0376  0.2137 -0.2536
  151POPC   PO4 2115   0.964   7.540   7.314  0.2771 -0.0418  0.0793
  151POPC   GL1 2116   1.160   7.260   6.842 -0.3436  0.1187 -0.0263
  151POPC   GL2 2117   1.154   6.939   6.865 -0.1177  0.0333  0.0448
  151POPC   C1A 2118   1.130   7.162   6.459  0.2741 -0.5284  0.2401
  151POPC   D2A 2119   1.173   7.331   6.060  0.3161  0.3497  0.3227
  151POPC   C3A 2120   1.344   7.118   5.879 -0.0778 -0.0116 -0.1556
  151POPC   C4A 2121   1.252   6.822   5.652  0.0504  0.0453 -0.4010
  151POPC   C1B 2122   1.466   6.757   6.555  0.2514 -0.0598  0.1230
  151POPC   C2B 2123   1.681   6.815   6.249 -0.0881  0.2493 -0.3601
  151POPC   C3B 2124   1.730   6.774   5.740  0.0699  0.1480  0.0748
  151POPC   C4B 2125   1.545   7.055   5.303 -0.1087 -0.1405 -0.1337
  152POPC   NC3 2126   7.733   2.310   7.395 -0.1039 -0.0541 -0.2069
  152POPC   PO4 2127   7.584   1.853   7.403 -0.2064  0.0647 -0.0481
  152POPC   GL1 2128   7.432   1.972   7.028  0.0863 -0.1856  0.1808
  152POPC   GL2 2129   7.096   1.864   6.978 -0.2822 -0.2549  0.0142
  152POPC   C1A 2130   7.514   2.070   6.635  0.2354 -0.2370  0.3101
  152POPC   D2A 2131   7.842   2.048   6.405 -0.0409  0.0937  0.2143
  152POPC   C3A 2132   7.745   1.955   6.063 -0.2005  0.0872 -0.1355
  152POPC   C4A 2133   7.666   1.874   5.640 -0.1926  0.0864  0.1097
  152POPC   C1B 2134   7.025   2.261   6.852  0.0464 -0.2917  0.1172
  152POPC   C2B 2135   6.857   2.400   6.449 -0.0844  0.2271  0.1106
  152POPC   C3B 2136   6.741   2.773   6.155 -0.1891 -0.1580 -0.0661
  152POPC   C4B 2137   6.277   2.931   6.212 -0.0289  0.0011 -0.3750
  153POPC   NC3 2138  10.128   1.511   7.490 -0.1962 -0.2354 -0.0999
  153POPC   PO4 2139  10.688   1.519   7.462  0.2108 -0.0233  0.4233
  153POPC   GL1 2140  10.527   1.736   7.072 -0.3066  0.0116  0.2284
  153POPC   GL2 2141  10.290   1.483   7.005  0.2839  0.3362  0.0967
  153POPC   C1A 2142  10.606   2.003   6.693  0.2742 -0.1231 -0.1220
  153POPC   D2A 2143  10.627   2.033   6.277  0.0978  0.0439  0.1173
  153POPC   C3A 2144  10.460   1.905   5.908 -0.2892 -0.2129 -0.1966
  153POPC   C4A 2145  10.654   1.890   5.583 -0.3768  0.0022  0.1339
  153POPC   C1B 2146  10.209   1.662   6.648 -0.0266 -0.1058 -0.1677
  153POPC   C2B 2147  10.162   1.905   6.385 -0.1727 -0.0409  0.2421
  153POPC   C3B 2148   9.854   2.190   6.315 -0.3049  0.2412 -0.0792
  153POPC   C4B 2149   9.614   2.113   5.969  0.0181 -0.0343  0.2541
  154POPC   NC3 2150   7.665   6.843   7.105 -0.1463  0.0978  0.0328
  154POPC   PO4 2151   8.126   6.950   7.225 -0.3992  0.0701 -0.2707
  154POPC   GL1 2152   8.404   7.050   6.882  0.1757 -0.1569 -0.3102
  154POPC   GL2 2153   8.665   7.082   6.907 -0.1067  0.0531 -0.2884
  154POPC   C1A 2154   8.581   7.032   6.456 -0.2608  0.0156  0.0936
  154POPC   D2A 2155   8.679   6.790   6.159 -0.0979 -0.2355  0.1412
  154POPC   C3A 2156   8.714   6.978   5.825 -0.1217  0.0486  0.0082
  154POPC   C4A 2157   8.847   6.980   5.392 -0.0438  0.0830 -0.1435
  154POPC   C1B 2158   9.039   6.995   6.531  0.0142  0.4253 -0.2200
  154POPC   C2B 2159   9.135   6.655   6.358 -0.1735  0.2187  0.0264
  154POPC   C3B 2160   9.263   6.150   6.397  0.1191  0.0230 -0.2594
  154POPC   C4B 2161   9.170   5.750   6.384  0.0874 -0.2680 -0.1412
  155POPC   NC3 2162   3.276   5.161   7.475  0.1305  0.3784  0.1709
  155POPC   PO4 2163   3.321   5.572   7.496 -0.3405  0.0670 -0.0017
  155POPC   GL1 2164   3.487   5.489   7.080  0.1824 -0.0134 -0.0042
  155POPC   GL2 2165   3.665   5.274   7.097  0.0380 -0.0747  0.2904
  155POPC   C1A 2166   3.169   5.312   6.810  0.0897 -0.1774 -0.0614
  155POPC   D2A 2167   2.830   5.138   6.504  0.0765  0.0828  0.0439
  155POPC   C3A 2168   2.599   5.248   6.121  0.2775  0.0738 -0.0038
  155POPC   C4A 2169   2.438   5.023   5.765 -0.0835 -0.2103  0.2238
  155POPC   C1B 2170   3.643   5.207   6.656  0.0730 -0.1384 -0.2630
  155POPC   C2B 2171   3.791   5.063   6.282  0.0820 -0.0774  0.0687
  155POPC   C3B 2172   3.677   5.127   5.835 -0.0395 -0.3412 -0.1437
  155POPC   C4B 2173   3.376   5.071   5.685 -0.0407  0.1018  0.1236
  156POPC   NC3 2174   1.324   1.703   7.774  0.1023  0.2378  0.1269
  156POPC   PO4 2175   1.326   2.093   7.444  0.1378 -0.3109 -0.1860
  156POPC   GL1 2176   1.351   2.208   7.121  0.0118  0.1258 -0.4455
  156POPC   GL2 2177   1.651   2.376   7.163  0.0120 -0.0318 -0.2179
  156POPC   C1A 2178   1.110   2.395   6.829 -0.1360 -0.0954  0.2769
  156POPC   D2A 2179   1.121   2.799   6.668  0.0139  0.1447 -0.3222
  156POPC   C3A 2180   0.901   3.044   6.784  0.0759  0.0895  0.1722
  156POPC   C4A 2181   0.447   3.113   6.697 -0.3576 -0.3220 -0.0600
  156POPC   C1B 2182   1.631   2.487   6.746 -0.3135  0.1104 -0.5338
  156POPC   C2B 2183   1.483   2.639   6.377 -0.0188 -0.0100 -0.1556
  156POPC   C3B 2184   1.178   2.867   6.150  0.2986 -0.4032  0.2694
  156POPC   C4B 2185   0.945   2.854   5.783  0.1303 -0.1629 -0.2438
  157POPC   NC3 2186   6.409   7.882   7.574 -0.1006 -0.0163  0.1420
  157POPC   PO4 2187   6.195   8.262   7.651  0.0200 -0.0407 -0.1337
  157POPC   GL1 2188   6.139   8.208   7.169  0.3823  0.0640 -0.0089
  157POPC   GL2 2189   6.425   8.314   7.006 -0.2371 -0.0376  0.2314
  157POPC   C1A 2190   6.165   7.946   6.784 -0.1855 -0.1615 -0.0107
  157POPC   D2A 2191   6.088   7.943   6.434 -0.0640  0.1170 -0.2879
  157POPC   C3A 2192   6.151   7.969   6.026  0.1324  0.0602  0.0250
  157POPC   C4A 2193   5.852   7.897   5.657  0.0148 -0.0491  0.1200
  157POPC   C1B 2194   6.479   8.250   6.529  0.2897 -0.0634  0.0987
  157POPC   C2B 2195   6.685   8.185   6.092  0.1673  0.2442  0.0285
  157POPC   C3B 2196   6.598   8.102   5.679 -0.0518 -0.1058  0.0945
  157POPC   C4B 2197   6.308   7.974   5.442 -0.0157  0.0085  0.0457
  158POPC   NC3 2198   9.032   6.969   7.251  0.0943  0.2016 -0.1988
  158POPC   PO4 2199   9.488   6.835   7.239 -0.0998 -0.1196 -0.0579
  158POPC   GL1 2200   9.429   6.792   6.807 -0.2318 -0.1887  0.1529
  158POPC   GL2 2201   9.839   6.827   6.778  0.0512  0.2597 -0.1176
  158POPC   C1A 2202   9.674   6.412   6.501  0.1849 -0.4127  0.1840
  158POPC   D2A 2203   9.555   6.391   6.015 -0.0653  0.2252 -0.0649
  158POPC   C3A 2204   9.721   5.941   5.766 -0.0981 -0.2105  0.3135
  158POPC   C4A 2205   9.488   5.667   5.495 -0.0400  0.0606 -0.1666
  158POPC   C1B 2206   9.730   6.933   6.383 -0.2950  0.2477  0.0838
  158POPC   C2B 2207   9.433   6.970   6.032 -0.3973 -0.1622  0.1042
  158POPC   C3B 2208   9.215   6.725   5.829  0.2336  0.1720  0.0051
  158POPC   C4B 2209   8.817   6.490   5.698  0.2992  0.1521  0.1124
  159POPC   NC3 2210   7.414   7.257   7.021 -0.0247 -0.0465 -0.2010
  159POPC   PO4 2211   7.086   7.540   6.995 -0.0842 -0.0092 -0.2414
  159POPC   GL1 2212   6.941   7.952   6.688 -0.0100  0.2303  0.0620
  159POPC   GL2 2213   6.979   8.165   6.523 -0.2107 -0.0372  0.2040
  159POPC   C1A 2214   6.537   7.783   6.311  0.0776 -0.3032 -0.2126
  159POPC   D2A 2215   6.680   7.679   5.896 -0.1581 -0.0538  0.2626
  159POPC   C3A 2216   7.041   7.707   5.890  0.0134 -0.3443 -0.0321
  159POPC   C4A 2217   7.142   8.128   5.714 -0.0726  0.0219 -0.0007
  159POPC   C1B 2218   7.272   8.020   6.188 -0.0265 -0.1987  0.0320
  159POPC   C2B 2219   7.502   7.735   5.798  0.1153 -0.4121  0.1079
  159POPC   C3B 2220   7.651   7.436   5.531 -0.2212  0.2119 -0.0558
  159POPC   C4B 2221   7.640   7.025   5.356 -0.0213 -0.0003 -0.3067
  160POPC   NC3 2222  10.365   2.048   7.989 -0.0582  0.1658  0.0057
  160POPC   PO4 2223  10.359   1.943   7.462 -0.1605  0.2058 -0.0286
  160POPC   GL1 2224  10.468   2.430   7.166  0.2165 -0.0078  0.1855
  160POPC   GL2 2225  10.337   2.775   7.269  0.1644 -0.2347 -0.3935
  160POPC   C1A 2226  10.781   2.434   6.818  0.0675 -0.0087 -0.2615
  160POPC   D2A 2227  11.011   2.373   6.412  0.2467  0.2018  0.1227
  160POPC   C3A 2228  11.222   2.648   5.980 -0.2725  0.0780  0.0716
  160POPC   C4A 2229  11.352   2.882   5.583 -0.1555 -0.1048  0.0716
  160POPC   C1B 2230  10.190   2.832   6.866 -0.0558 -0.2091 -0.0312
  160POPC   C2B 2231  10.007   2.762   6.398 -0.1629 -0.0009  0.0276
  160POPC   C3B 2232  10.011   2.831   6.002  0.2524  0.1404  0.2500
  160POPC   C4B 2233  10.372   2.944   5.741 -0.2296  0.0540  0.1283
  161POPC   NC3 2234   0.659   1.510   7.294  0.2698  0.1187  0.1310
  161POPC   PO4 2235   0.249   1.200   7.333  0.0130 -0.0091 -0.0365
  161POPC   GL1 2236  -0.124   1.247   7.030  0.1513  0.2065  0.0085
  161POPC   GL2 2237  -0.335   0.969   7.051  0.0474 -0.0994 -0.3860
  161POPC   C1A 2238  -0.179   1.373   6.712  0.0966 -0.2295 -0.0058
  161POPC   D2A 2239  -0.391   1.499   6.270  0.0168  0.0691  0.1592
  161POPC   C3A 2240  -0.281   1.437   5.833 -0.1949 -0.1853  0.0386
  161POPC   C4A 2241   0.044   1.429   5.475  0.0078 -0.3702 -0.1939
  161POPC   C1B 2242  -0.545   0.804   6.826 -0.1893 -0.2220 -0.2277
  161POPC   C2B 2243  -0.609   0.721   6.439 -0.1676 -0.3158 -0.1613
  161POPC   C3B 2244  -0.525   0.818   5.956 -0.0603 -0.2553 -0.1088
  161POPC   C4B 2245  -0.529   0.756   5.609  0.2173  0.2303  0.0789
  162POPC   NC3 2246   0.411   8.199   7.633  0.1384  0.1893  0.0693
  162POPC   PO4 2247   0.647   8.290   7.341  0.0239  0.2573  0.1498
  162POPC   GL1 2248   0.490   8.270   6.897 -0.0563 -0.3211 -0.2178
  162POPC   GL2 2249   0.218   8.494   6.839  0.0028  0.1021  0.2598
  162POPC   C1A 2250   0.526   8.351   6.463  0.0205  0.1691 -0.0709
  162POPC   D2A 2251   0.781   8.155   6.141  0.2548 -0.1137  0.0587
  162POPC   C3A 2252   0.477   7.838   6.126 -0.0484  0.1907 -0.3081
  162POPC   C4A 2253   0.119   7.606   5.927 -0.3147 -0.4876  0.0229
  162POPC   C1B 2254   0.027   8.728   6.446 -0.1890  0.0314 -0.1621
  162POPC   C2B 2255  -0.149   8.754   6.177  0.0157  0.1911 -0.0539
  162POPC   C3B 2256  -0.432   9.128   6.046  0.1010 -0.3473 -0.1424
  162POPC   C4B 2257  -0.807   9.118   5.719  0.0973  0.0725 -0.2212
  163POPC   NC3 2258   8.050   0.462   7.382 -0.2869 -0.1032 -0.0286
  163POPC   PO4 2259   7.720   0.549   7.730  0.0474  0.2235 -0.1347
  163POPC   GL1 2260   7.545   0.479   7.305  0.2279 -0.2208  0.1144
  163POPC   GL2 2261   7.625   0.201   7.215 -0.2761  0.3540  0.0473
  163POPC   C1A 2262   7.703   0.563   6.818  0.1470  0.1594 -0.3340
  163POPC   D2A 2263   8.028   0.669   6.636  0.1528 -0.1254  0.2964
  163POPC   C3A 2264   8.043   0.772   6.164 -0.1161  0.0894 -0.0519
  163POPC   C4A 2265   8.029   1.058   5.772  0.2734 -0.1981  0.1920
  163POPC   C1B 2266   7.894   0.061   6.829  0.0820 -0.3312 -0.0556
  163POPC   C2B 2267   7.921   0.152   6.401 -0.0223 -0.2161 -0.2411
  163POPC   C3B 2268   7.747   0.353   6.067  0.1087 -0.0296  0.3223
  163POPC   C4B 2269   7.469   0.308   5.709 -0.1787 -0.2699 -0.0696
  164POPC   NC3 2270   9.158   5.212   7.511  0.1230 -0.2507 -0.0384
  164POPC   PO4 2271   9.067   4.898   7.251  0.0257  0.0820  0.2378
  164POPC   GL1 2272   9.046   4.908   6.776 -0.2874 -0.1925  0.2697
  164POPC   GL2 2273   8.968   4.576   6.645 -0.0205  0.1056  0.1844
  164POPC   C1A 2274   9.369   4.922   6.490 -0.4050  0.0028 -0.0249
  164POPC   D2A 2275   9.788   5.039   6.658  0.0645 -0.0167  0.1164
  164POPC   C3A 2276  10.187   4.812   6.635 -0.1996 -0.2257  0.0036
  164POPC   C4A 2277  10.308   4.559   6.248  0.1294 -0.3373  0.2019
  164POPC   C1B 2278   8.943   4.782   6.299  0.4880  0.1175  0.1702
  164POPC   C2B 2279   8.834   4.643   5.880 -0.0285  0.0068 -0.0492
  164POPC   C3B 2280   8.767   4.570   5.389 -0.0388 -0.0627 -0.1150
  164POPC   C4B 2281   8.603   4.598   4.998 -0.0160 -0.0534  0.2984
  165POPC   NC3 2282   4.654   7.872   7.450 -0.1556 -0.2282 -0.1637
  165POPC   PO4 2283   4.095   7.869   7.309  0.1128 -0.2383 -0.0905
  165POPC   GL1 2284   4.239   8.119   7.017  0.0069  0.2874  0.0430
  165POPC   GL2 2285   4.081   8.423   7.083  0.2237 -0.0556  0.1585
  165POPC   C1A 2286   4.554   8.131   6.723  0.1400 -0.1725  0.2179
  165POPC   D2A 2287   4.542   7.874   6.309 -0.3179 -0.1352  0.1960
  165POPC   C3A 2288   4.349   8.008   5.960  0.1104  0.2602  0.0063
  165POPC   C4A 2289   3.995   8.243   5.787  0.0270  0.0158 -0.1112
  165POPC   C1B 2290   3.920   8.619   6.719  0.2775  0.1576  0.0426
  165POPC   C2B 2291   3.635   8.804   6.471 -0.0946 -0.1235  0.0261
  165POPC   C3B 2292   3.371   8.673   6.130 -0.0211 -0.0827 -0.0937
  165POPC   C4B 2293   3.352   8.951   5.909 -0.0380  0.0582 -0.3056
  166POPC   NC3 2294   3.048   3.870   7.612  0.1376 -0.0633  0.1386
  166POPC   PO4 2295   3.424   3.911   7.742 -0.2045  0.0982  0.0166
  166POPC   GL1 2296   3.576   3.749   7.266 -0.2720  0.0521 -0.1295
  166POPC   GL2 2297   3.974   3.810   7.276  0.2463 -0.3784 -0.1394
  166POPC   C1A 2298   3.521   3.508   6.902  0.0981 -0.0690 -0.3057
  166POPC   D2A 2299   3.012   3.473   6.983  0.1903 -0.0062 -0.0785
  166POPC   C3A 2300   2.708   3.796   6.754 -0.0922 -0.1419  0.3154
  166POPC   C4A 2301   2.399   3.915   6.959  0.0364 -0.2333  0.4512
  166POPC   C1B 2302   4.087   3.618   6.869 -0.6244  0.0881 -0.1650
  166POPC   C2B 2303   4.071   3.616   6.372  0.0145  0.0865 -0.0959
  166POPC   C3B 2304   4.367   3.612   5.941 -0.1197 -0.0761 -0.2270
  166POPC   C4B 2305   4.583   3.567   5.587 -0.2540 -0.0452 -0.1659
  167POPC   NC3 2306   0.563   7.161   7.845 -0.2267 -0.0506  0.0348
  167POPC   PO4 2307   0.509   6.849   7.565 -0.0413  0.0490 -0.0113
  167POPC   GL1 2308   0.694   6.777   7.120  0.0027  0.0465  0.0546
  167POPC   GL2 2309   0.531   6.507   6.970  0.3022  0.0229  0.3102
  167POPC   C1A 2310   0.695   6.975   6.583  0.0092 -0.0567  0.0293
  167POPC   D2A 2311   0.298   6.849   6.312 -0.0522  0.4917  0.1129
  167POPC   C3A 2312   0.223   7.049   5.862 -0.0172  0.1490 -0.0895
  167POPC   C4A 2313   0.208   6.802   5.589 -0.0958  0.0537 -0.4464
  167POPC   C1B 2314   0.487   6.377   6.515  0.1964 -0.1821  0.0050
  167POPC   C2B 2315   0.358   6.198   6.098  0.1769  0.0472  0.3819
  167POPC   C3B 2316   0.107   6.336   5.755  0.1366 -0.3073 -0.1354
  167POPC   C4B 2317   0.265   6.451   5.299 -0.0548 -0.1367  0.3033
  168POPC   NC3 2318  10.152   8.871   7.848 -0.0627  0.3551  0.1405
  168POPC   PO4 2319  10.327   8.469   7.491 -0.0330  0.2626 -0.0976
  168POPC   GL1 2320  10.238   8.262   7.025  0.2932  0.3372 -0.3165
  168POPC   GL2 2321  10.162   8.574   6.938  0.0489 -0.2632 -0.0667
  168POPC   C1A 2322  10.355   7.848   6.839 -0.1054 -0.0651 -0.1472
  168POPC   D2A 2323  10.135   7.747   6.398 -0.1716  0.4732 -0.2398
  168POPC   C3A 2324   9.983   7.957   6.169 -0.0835  0.0104  0.2438
  168POPC   C4A 2325  10.057   8.256   5.852  0.1129  0.0141  0.0959
  168POPC   C1B 2326  10.390   8.651   6.481 -0.2332 -0.0747  0.0639
  168POPC   C2B 2327  10.126   8.947   6.302 -0.0488  0.2038  0.0088
  168POPC   C3B 2328   9.820   9.387   6.386  0.0802 -0.0438 -0.2724
  168POPC   C4B 2329   9.475   9.691   6.350 -0.3052  0.0566  0.2556
  169POPC   NC3 2330   9.841   3.793   7.555 -0.2079 -0.1456  0.2551
  169POPC   PO4 2331   9.900   3.349   7.431 -0.0063 -0.2297  0.2976
  169POPC   GL1 2332   9.682   3.254   7.052  0.1405 -0.0452  0.1667
  169POPC   GL2 2333   9.766   3.034   6.780 -0.1836  0.0168 -0.0407
  169POPC   C1A 2334   9.462   3.421   6.550 -0.2470 -0.4273 -0.4571
  169POPC   D2A 2335   9.357   3.599   6.128 -0.0479 -0.1499 -0.0066
  169POPC   C3A 2336   9.406   3.984   5.868  0.3339  0.0375  0.2111
  169POPC   C4A 2337   9.241   4.358   5.644  0.1319 -0.1878  0.0389
  169POPC   C1B 2338   9.950   3.258   6.441 -0.1865  0.1123 -0.3082
  169POPC   C2B 2339  10.134   3.374   6.075 -0.2205  0.0096 -0.0111
  169POPC   C3B 2340  10.302   3.603   5.705 -0.1590 -0.0373  0.0366
  169POPC   C4B 2341  10.375   3.905   5.482 -0.0648  0.0115 -0.1104
  170POPC   NC3 2342   5.728   7.791   7.302 -0.1426 -0.3697 -0.0621
  170POPC   PO4 2343   5.823   7.419   7.472  0.0347 -0.0956 -0.3064
  170POPC   GL1 2344   5.762   7.288   7.011  0.1885  0.4255 -0.0579
  170POPC   GL2 2345   5.780   7.552   6.797 -0.2326 -0.0865 -0.0235
  170POPC   C1A 2346   5.598   6.975   6.624  0.1391  0.1357 -0.2345
  170POPC   D2A 2347   5.431   7.119   6.273 -0.3005  0.2918  0.0550
  170POPC   C3A 2348   5.463   7.322   5.916  0.0609 -0.1625 -0.3273
  170POPC   C4A 2349   5.423   7.765   5.750 -0.0301 -0.2970 -0.3247
  170POPC   C1B 2350   5.416   7.483   6.598 -0.1170  0.2799  0.4563
  170POPC   C2B 2351   5.131   7.630   6.215 -0.1285 -0.0965  0.2010
  170POPC   C3B 2352   4.917   7.811   5.846  0.0585  0.0539  0.0792
  170POPC   C4B 2353   4.683   8.059   5.560 -0.1539 -0.0009  0.3099
  171POPC   NC3 2354   4.418   0.901   8.259 -0.1246 -0.0781  0.1326
  171POPC   PO4 2355   4.112   0.799   7.983  0.2994  0.0430 -0.1489
  171POPC   GL1 2356   4.164   0.770   7.553 -0.2318 -0.1747  0.2410
  171POPC   GL2 2357   3.953   0.623   7.256  0.0374 -0.0783 -0.0244
  171POPC   C1A 2358   4.486   0.882   7.248  0.3214  0.1873 -0.3754
  171POPC   D2A 2359   4.529   0.848   6.795  0.2442 -0.2695 -0.0943
  171POPC   C3A 2360   4.804   1.089   6.616  0.0783 -0.0760  0.0538
  171POPC   C4A 2361   4.948   1.249   6.246 -0.2710  0.0679 -0.0693
  171POPC   C1B 2362   3.704   0.617   6.973  0.5561 -0.2012  0.0154
  171POPC   C2B 2363   3.766   0.763   6.615 -0.1224  0.3203 -0.1698
  171POPC   C3B 2364   3.650   0.753   6.187 -0.0803 -0.2487  0.1682
  171POPC   C4B 2365   3.952   0.892   5.929 -0.2384 -0.3949  0.0376
  172POPC   NC3 2366   7.700   8.630   7.649  0.0742  0.2721 -0.3256
  172POPC   PO4 2367   7.316   8.853   7.443 -0.2398  0.0746 -0.2976
  172POPC   GL1 2368   7.468   8.945   7.041 -0.3467  0.2270  0.0521
  172POPC   GL2 2369   7.182   9.045   6.916 -0.1503  0.4262 -0.3550
  172POPC   C1A 2370   7.586   8.750   6.640  0.0112 -0.0744 -0.0249
  172POPC   D2A 2371   7.523   8.457   6.364  0.1067 -0.0324 -0.2944
  172POPC   C3A 2372   7.394   8.495   5.900  0.1130  0.0529  0.0133
  172POPC   C4A 2373   7.170   8.644   5.655  0.0744  0.1755  0.2968
  172POPC   C1B 2374   7.403   9.230   6.606  0.3412  0.1588  0.0930
  172POPC   C2B 2375   7.571   9.363   6.160 -0.1069  0.0087 -0.1202
  172POPC   C3B 2376   7.735   9.459   5.795 -0.0087 -0.0681  0.1602
  172POPC   C4B 2377   7.839   9.549   5.362 -0.0471 -0.1705 -0.1821
  173POPC   NC3 2378   3.002   6.771   7.223 -0.0623 -0.0482  0.1968
  173POPC   PO4 2379   3.273   7.257   7.222 -0.0039 -0.0713 -0.0980
  173POPC   GL1 2380   3.056   7.116   6.870  0.0221 -0.0954  0.0729
  173POPC   GL2 2381   2.733   7.084   6.787 -0.5565 -0.0191  0.0482
  173POPC   C1A 2382   2.996   7.203   6.348  0.0931 -0.0196 -0.1564
  173POPC   D2A 2383   3.076   7.218   5.928 -0.1318  0.1512  0.2121
  173POPC   C3A 2384   2.738   7.030   5.607  0.3839  0.2011 -0.0782
  173POPC   C4A 2385   2.398   6.939   5.372 -0.0878 -0.2406  0.0648
  173POPC   C1B 2386   2.462   7.346   6.466 -0.1630  0.4155  0.4304
  173POPC   C2B 2387   2.503   7.493   5.954  0.1212  0.1086 -0.1335
  173POPC   C3B 2388   2.464   7.573   5.540 -0.0591 -0.0382  0.1045
  173POPC   C4B 2389   2.434   7.633   5.068 -0.0327  0.0429 -0.1347
  174POPC   NC3 2390   7.390   7.170   3.493  0.0349  0.4464  0.2374
  174POPC   PO4 2391   6.992   7.366   3.359 -0.0419  0.0888 -0.1175
  174POPC   GL1 2392   6.868   7.213   3.765  0.0632  0.2183  0.3461
  174POPC   GL2 2393   7.153   6.910   3.862  0.0897 -0.3140 -0.2450
  174POPC   C1A 2394   6.652   7.079   4.102  0.2230 -0.2668  0.3869
  174POPC   D2A 2395   6.721   7.297   4.472  0.0162 -0.1658 -0.0543
  174POPC   C3A 2396   6.813   7.183   4.923  0.0033 -0.2537 -0.4534
  174POPC   C4A 2397   6.530   7.233   5.318 -0.1348  0.1538  0.0517
  174POPC   C1B 2398   7.222   6.944   4.368  0.1442 -0.0290 -0.0812
  174POPC   C2B 2399   7.324   6.866   4.857 -0.0397  0.2399 -0.0558
  174POPC   C3B 2400   7.095   6.891   5.168  0.1625  0.0064  0.3694
  174POPC   C4B 2401   6.649   6.766   5.308  0.0092 -0.0195 -0.1511
  175POPC   NC3 2402   6.660   5.603   3.259 -0.0272 -0.2869  0.0836
  175POPC   PO4 2403   6.291   5.808   3.228 -0.5057  0.3128 -0.4508
  175POPC   GL1 2404   6.202   5.716   3.710  0.0666 -0.0968  0.0422
  175POPC   GL2 2405   6.534   5.653   3.735 -0.0730  0.0631 -0.1643
  175POPC   C1A 2406   6.204   5.575   4.210  0.2000 -0.1680  0.1368
  175POPC   D2A 2407   6.037   5.585   4.622 -0.0336 -0.0530 -0.4402
  175POPC   C3A 2408   6.106   5.595   5.109  0.2762 -0.0771 -0.1886
  175POPC   C4A 2409   6.414   5.780   5.390  0.3050 -0.1595  0.0218
  175POPC   C1B 2410   6.731   5.670   4.112  0.1467  0.3103 -0.0849
  175POPC   C2B 2411   6.628   5.440   4.412  0.0898 -0.2136  0.0998
  175POPC   C3B 2412   6.467   5.152   4.706  0.0320 -0.2378 -0.2341
  175POPC   C4B 2413   6.704   4.771   4.843 -0.0675  0.1072  0.0322
  176POPC   NC3 2414   5.945   5.215   3.207  0.0541 -0.0294  0.0908
  176POPC   PO4 2415   6.298   5.268   3.474 -0.3170 -0.2519  0.3269
  176POPC   GL1 2416   6.416   5.188   3.941 -0.3022  0.0467 -0.1426
  176POPC   GL2 2417   6.050   5.130   3.966 -0.2406 -0.0320  0.0327
  176POPC   C1A 2418   6.740   5.046   4.170 -0.0092  0.0890  0.2001
  176POPC   D2A 2419   7.112   5.206   4.509  0.0822  0.1348  0.1051
  176POPC   C3A 2420   6.915   5.450   4.835  0.0991 -0.1870 -0.4290
  176POPC   C4A 2421   6.533   5.756   4.868  0.1365 -0.2374 -0.1858
  176POPC   C1B 2422   5.814   5.190   4.452  0.2847  0.1236 -0.0370
  176POPC   C2B 2423   5.957   5.154   4.924  0.1237  0.3321 -0.2873
  176POPC   C3B 2424   6.274   4.975   5.187  0.6081 -0.0083  0.0701
  176POPC   C4B 2425   6.541   5.255   5.272  0.0675 -0.1751 -0.0444
  177POPC   NC3 2426   2.653  10.790   3.984 -0.0745 -0.3314 -0.0013
  177POPC   PO4 2427   2.582  10.288   3.831  0.1929  0.0787 -0.2926
  177POPC   GL1 2428   2.437   9.976   4.133 -0.1379  0.1004 -0.1445
  177POPC   GL2 2429   2.605   9.722   4.254  0.0800  0.0882  0.0370
  177POPC   C1A 2430   2.305   9.866   4.594 -0.0383  0.0646 -0.0035
  177POPC   D2A 2431   2.056   9.833   5.036 -0.2420  0.0328  0.1625
  177POPC   C3A 2432   1.932   9.470   5.201 -0.1620  0.0032 -0.0451
  177POPC   C4A 2433   2.171   9.218   5.295 -0.0553  0.0308  0.0078
  177POPC   C1B 2434   2.765   9.388   4.295  0.3222 -0.2649 -0.1669
  177POPC   C2B 2435   2.744   9.088   4.620 -0.2393 -0.0902 -0.1473
  177POPC   C3B 2436   2.371   8.894   4.819 -0.0277 -0.1357  0.2873
  177POPC   C4B 2437   2.260   8.624   5.061 -0.3696  0.0630 -0.1165
  178POPC   NC3 2438  10.277  10.610   2.798  0.2663  0.2025  0.4441
  178POPC   PO4 2439  10.054  10.659   3.223 -0.0348 -0.4022  0.1672
  178POPC   GL1 2440   9.885  10.677   3.703 -0.1422  0.1527  0.0225
  178POPC   GL2 2441   9.886  11.013   3.812  0.1534  0.1666  0.1761
  178POPC   C1A 2442   9.738  10.586   4.034  0.0262  0.0047 -0.1927
  178POPC   D2A 2443   9.614  10.289   4.408  0.2934  0.0369 -0.0271
  178POPC   C3A 2444   9.619  10.385   4.893 -0.0955  0.1592 -0.2694
  178POPC   C4A 2445   9.377  10.511   5.220 -0.1151  0.0132  0.0884
  178POPC   C1B 2446   9.714  11.042   4.234 -0.0790 -0.1958  0.3180
  178POPC   C2B 2447   9.758  11.343   4.514 -0.2293  0.4292 -0.2631
  178POPC   C3B 2448   9.839  11.225   4.900 -0.1991  0.2494 -0.0917
  178POPC   C4B 2449  10.273  11.034   5.024  0.1297  0.5050 -0.2826
  179POPC   NC3 2450   9.079   3.772   3.122 -0.1691 -0.2291 -0.4064
  179POPC   PO4 2451   9.163   4.146   3.353  0.2998  0.1373 -0.1677
  179POPC   GL1 2452   9.082   4.085   3.768 -0.0535 -0.0737  0.5199
  179POPC   GL2 2453   9.204   4.327   3.837 -0.1447 -0.0217  0.1198
  179POPC   C1A 2454   9.120   3.864   4.192  0.4070  0.1999 -0.0593
  179POPC   D2A 2455   9.043   3.948   4.620 -0.3588  0.0532  0.0016
  179POPC   C3A 2456   9.370   3.764   4.900  0.1159 -0.1634 -0.1784
  179POPC   C4A 2457   9.744   3.827   4.839 -0.2306  0.3246 -0.0654
  179POPC   C1B 2458   9.111   4.374   4.317  0.0862  0.1773 -0.0273
  179POPC   C2B 2459   8.950   4.423   4.708 -0.0838 -0.2543  0.2233
  179POPC   C3B 2460   9.009   4.208   5.153  0.2182 -0.1560  0.1293
  179POPC   C4B 2461   9.248   3.844   5.361  0.0565 -0.3600 -0.2002
  180POPC   NC3 2462   6.570   3.274   3.218  0.1489  0.0376 -0.0919
  180POPC   PO4 2463   6.284   3.008   3.332  0.1203  0.1176  0.0405
  180POPC   GL1 2464   6.374   3.208   3.689 -0.2395 -0.3296 -0.1910
  180POPC   GL2 2465   6.457   3.545   3.639  0.0836 -0.1448 -0.1420
  180POPC   C1A 2466   6.151   3.342   4.160 -0.2261 -0.2421  0.2773
  180POPC   D2A 2467   6.243   3.456   4.643 -0.1415 -0.0108 -0.0368
  180POPC   C3A 2468   6.656   3.610   4.853 -0.1295  0.0675 -0.0770
  180POPC   C4A 2469   7.181   3.468   4.748  0.1101 -0.0199 -0.2037
  180POPC   C1B 2470   6.503   3.718   4.094 -0.2104  0.2579  0.2658
  180POPC   C2B 2471   6.505   3.861   4.473  0.2995 -0.3045 -0.2590
  180POPC   C3B 2472   6.662   4.153   4.822 -0.1484  0.1025 -0.2065
  180POPC   C4B 2473   6.883   4.414   5.104 -0.1128  0.0731 -0.1405
  181POPC   NC3 2474   1.502   3.966   3.510 -0.0699 -0.0393 -0.0608
  181POPC   PO4 2475   1.626   3.925   3.911 -0.0920  0.0022 -0.1357
  181POPC   GL1 2476   1.394   3.947   4.230  0.0470  0.1483  0.1539
  181POPC   GL2 2477   1.207   4.167   4.175  0.3331 -0.2042 -0.1622
  181POPC   C1A 2478   1.463   4.124   4.646 -0.1150  0.1988  0.0101
  181POPC   D2A 2479   1.628   4.128   5.061 -0.2412 -0.0785  0.0697
  181POPC   C3A 2480   1.538   4.377   5.449  0.0953 -0.1271  0.4717
  181POPC   C4A 2481   1.253   4.539   5.650 -0.1508 -0.2510 -0.1472
  181POPC   C1B 2482   1.099   4.463   4.437  0.0428  0.1508  0.0292
  181POPC   C2B 2483   0.939   4.674   4.674  0.2614 -0.0705 -0.1217
  181POPC   C3B 2484   0.856   5.131   4.913  0.2748  0.1091  0.3692
  181POPC   C4B 2485   1.075   5.434   5.153  0.1761  0.0220  0.2606
  182POPC   NC3 2486   4.051  10.727   3.595 -0.3531  0.2330 -0.0090
  182POPC   PO4 2487   3.906  10.380   3.654 -0.2858  0.0479 -0.0053
  182POPC   GL1 2488   3.945  10.207   4.008  0.1317 -0.0441 -0.0947
  182POPC   GL2 2489   4.205  10.215   4.268 -0.0414 -0.0276  0.1253
  182POPC   C1A 2490   3.545   9.979   4.254  0.0134 -0.1715  0.1098
  182POPC   D2A 2491   3.279   9.624   4.407 -0.1080 -0.2338  0.0156
  182POPC   C3A 2492   3.314   9.347   4.738 -0.4443  0.0520  0.1730
  182POPC   C4A 2493   3.357   9.162   5.088  0.0368  0.1315  0.1463
  182POPC   C1B 2494   4.601  10.372   4.515  0.2949 -0.0421  0.2448
  182POPC   C2B 2495   4.847  10.466   4.944  0.0844  0.0881  0.0645
  182POPC   C3B 2496   4.812  10.233   5.257 -0.1979 -0.2068 -0.3374
  182POPC   C4B 2497   4.675   9.940   5.525 -0.1373 -0.0257 -0.0798
  183POPC   NC3 2498   5.889   9.229   3.779  0.1272 -0.0125  0.2228
  183POPC   PO4 2499   6.132   9.573   3.661  0.3740 -0.0957 -0.0263
  183POPC   GL1 2500   6.032   9.577   4.123 -0.0040 -0.1949 -0.0980
  183POPC   GL2 2501   6.007   9.275   4.273 -0.1844 -0.1943 -0.2517
  183POPC   C1A 2502   6.182   9.787   4.477  0.1047 -0.0529  0.2429
  183POPC   D2A 2503   6.306   9.918   4.865  0.2100 -0.2877 -0.0018
  183POPC   C3A 2504   6.707   9.839   5.077  0.0016 -0.1716 -0.1687
  183POPC   C4A 2505   7.163   9.849   5.278  0.0014  0.1178  0.3018
  183POPC   C1B 2506   6.101   9.213   4.708  0.0588  0.1126 -0.0340
  183POPC   C2B 2507   6.085   8.943   5.110  0.1230 -0.0775  0.2885
  183POPC   C3B 2508   6.306   8.939   5.503 -0.2711 -0.1174  0.1196
  183POPC   C4B 2509   6.187   8.858   5.915  0.0874 -0.1032 -0.2465
  184POPC   NC3 2510   7.400   9.130   3.515  0.1160 -0.1056 -0.0100
  184POPC   PO4 2511   7.656   8.854   3.267  0.0379  0.1519  0.0251
  184POPC   GL1 2512   7.915   8.900   3.582  0.1555 -0.3338  0.2248
  184POPC   GL2 2513   7.785   8.828   3.880 -0.4292 -0.0233  0.2527
  184POPC   C1A 2514   8.242   9.048   3.883 -0.1719  0.3633 -0.0729
  184POPC   D2A 2515   8.364   9.107   4.321 -0.0387  0.1178 -0.0201
  184POPC   C3A 2516   7.969   9.040   4.546 -0.2718 -0.1574  0.0991
  184POPC   C4A 2517   7.520   8.979   4.388  0.2289 -0.0255 -0.1151
  184POPC   C1B 2518   8.033   8.719   4.145  0.2924  0.2278 -0.3386
  184POPC   C2B 2519   8.185   8.599   4.634  0.1715  0.1328  0.0217
  184POPC   C3B 2520   8.307   8.478   5.030  0.0621  0.0669  0.0835
  184POPC   C4B 2521   8.581   8.758   5.462 -0.4037 -0.2045 -0.0473
  185POPC   NC3 2522   3.068   8.175   2.568  0.0126 -0.3360  0.1381
  185POPC   PO4 2523   3.235   8.236   3.030 -0.1408 -0.1801  0.0905
  185POPC   GL1 2524   3.274   8.163   3.453  0.0319 -0.2826  0.1308
  185POPC   GL2 2525   3.095   7.859   3.469  0.1896  0.2324  0.1069
  185POPC   C1A 2526   3.490   8.089   3.916 -0.1757 -0.0101 -0.0971
  185POPC   D2A 2527   3.602   7.995   4.330 -0.3209  0.1135  0.2258
  185POPC   C3A 2528   3.824   7.904   4.694  0.1387 -0.1675 -0.1860
  185POPC   C4A 2529   4.149   7.626   4.970  0.0288 -0.2988  0.2725
  185POPC   C1B 2530   3.206   7.584   3.747 -0.2434  0.1057 -0.2620
  185POPC   C2B 2531   3.573   7.463   3.984 -0.1730 -0.0920 -0.0387
  185POPC   C3B 2532   3.714   7.153   4.272  0.2439  0.4554 -0.1674
  185POPC   C4B 2533   3.704   6.788   4.613 -0.1838 -0.4039  0.0205
  186POPC   NC3 2534   8.170   0.491   3.717  0.2516 -0.0993 -0.2428
  186POPC   PO4 2535   8.087   0.979   3.779 -0.0895 -0.0469 -0.1257
  186POPC   GL1 2536   8.048   0.823   4.173  0.0959 -0.0139  0.1142
  186POPC   GL2 2537   8.029   0.562   4.207 -0.0443  0.0367  0.4589
  186POPC   C1A 2538   8.263   0.856   4.581 -0.2999  0.1519 -0.0395
  186POPC   D2A 2539   8.483   0.901   4.964  0.2424 -0.0595 -0.0278
  186POPC   C3A 2540   8.252   0.795   5.367  0.1519 -0.0414  0.0398
  186POPC   C4A 2541   7.932   0.584   5.546  0.2627  0.0424  0.0227
  186POPC   C1B 2542   7.742   0.726   4.541  0.0508 -0.1147  0.1613
  186POPC   C2B 2543   7.408   0.770   4.826  0.1808 -0.0900 -0.0401
  186POPC   C3B 2544   7.213   1.105   5.045 -0.0511 -0.0012  0.0707
  186POPC   C4B 2545   6.953   1.246   5.331  0.2488  0.4292  0.3535
  187POPC   NC3 2546   8.670   5.498   3.489  0.0146 -0.1312  0.0329
  187POPC   PO4 2547   8.737   5.927   3.638  0.2065  0.1422  0.3020
  187POPC   GL1 2548   8.884   6.158   4.003 -0.2801 -0.0178 -0.0097
  187POPC   GL2 2549   8.701   6.391   3.947 -0.0989  0.0723  0.0232
  187POPC   C1A 2550   9.035   6.299   4.353 -0.2406 -0.1301  0.0986
  187POPC   D2A 2551   9.095   6.540   4.731  0.1686 -0.0171 -0.0229
  187POPC   C3A 2552   9.386   6.405   4.937 -0.0327  0.1596 -0.1603
  187POPC   C4A 2553   9.483   6.369   5.300  0.0734  0.2556  0.1584
  187POPC   C1B 2554   8.497   6.188   4.273 -0.2187  0.0223 -0.4168
  187POPC   C2B 2555   8.294   5.992   4.758  0.0722  0.1760  0.2126
  187POPC   C3B 2556   8.091   6.025   5.144  0.0046  0.1616 -0.0125
  187POPC   C4B 2557   7.759   6.163   5.387 -0.1161 -0.0329  0.1883
  188POPC   NC3 2558   4.214   3.493   3.606 -0.0602  0.1336  0.0468
  188POPC   PO4 2559   4.470   3.840   3.420  0.1979 -0.1641 -0.2406
  188POPC   GL1 2560   4.590   3.795   3.857 -0.1352 -0.1508 -0.0290
  188POPC   GL2 2561   4.456   3.617   4.105 -0.2671  0.0411  0.2894
  188POPC   C1A 2562   4.848   3.974   4.216 -0.1019 -0.0553 -0.0968
  188POPC   D2A 2563   4.975   4.333   4.459  0.1172  0.1370 -0.2898
  188POPC   C3A 2564   5.159   4.702   4.270  0.1302  0.1456 -0.0234
  188POPC   C4A 2565   5.532   4.961   4.137  0.2774 -0.0042 -0.3391
  188POPC   C1B 2566   4.401   3.875   4.391 -0.2942 -0.3081 -0.2972
  188POPC   C2B 2567   4.547   4.234   4.733  0.1428 -0.2930  0.1461
  188POPC   C3B 2568   4.781   4.450   5.025  0.0535 -0.3293  0.0180
  188POPC   C4B 2569   5.098   4.765   5.047 -0.0351  0.1721 -0.0522
  189POPC   NC3 2570   3.623   6.022   3.419 -0.2002 -0.3437  0.1818
  189POPC   PO4 2571   3.261   5.733   3.535 -0.0720  0.0045  0.0546
  189POPC   GL1 2572   3.352   5.645   4.071  0.1442  0.1874  0.0176
  189POPC   GL2 2573   3.392   5.345   4.081  0.0323 -0.4289 -0.1996
  189POPC   C1A 2574   3.485   5.770   4.596 -0.0701 -0.2673  0.0691
  189POPC   D2A 2575   3.530   5.981   5.056 -0.2504 -0.1648 -0.3744
  189POPC   C3A 2576   3.198   5.901   5.322 -0.0357 -0.0804 -0.1881
  189POPC   C4A 2577   2.866   5.782   5.261 -0.1981  0.3498  0.1071
  189POPC   C1B 2578   3.274   5.240   4.532  0.1142 -0.2328  0.4975
  189POPC   C2B 2579   3.342   5.408   4.955 -0.0137  0.2204 -0.0185
  189POPC   C3B 2580   3.212   5.385   5.305  0.1208 -0.3501  0.0567
  189POPC   C4B 2581   2.914   5.460   5.675  0.2558 -0.1684  0.1179
  190POPC   NC3 2582   0.470   0.842   3.683 -0.2710 -0.1843 -0.0945
  190POPC   PO4 2583   0.170   0.908   3.315  0.4720 -0.2036 -0.1226
  190POPC   GL1 2584  -0.091   0.713   3.683  0.1906 -0.0817  0.0715
  190POPC   GL2 2585  -0.405   0.908   3.864  0.1281  0.0745  0.2852
  190POPC   C1A 2586  -0.060   0.567   4.063  0.1184  0.0664 -0.2135
  190POPC   D2A 2587   0.284   0.609   4.276 -0.0687 -0.0823 -0.1475
  190POPC   C3A 2588   0.129   0.563   4.660 -0.0808  0.1888  0.1913
  190POPC   C4A 2589  -0.189   0.287   4.884  0.2153 -0.2120 -0.1479
  190POPC   C1B 2590  -0.504   0.873   4.283 -0.0616 -0.1665 -0.1740
  190POPC   C2B 2591  -0.834   0.831   4.648  0.1357  0.1465  0.1888
  190POPC   C3B 2592  -1.052   0.881   5.063 -0.0316  0.0002 -0.2072
  190POPC   C4B 2593  -1.429   1.005   5.215  0.2743 -0.1519 -0.1158
  191POPC   NC3 2594   2.519   4.510   3.786  0.0480 -0.0767 -0.0635
  191POPC   PO4 2595   2.553   4.879   4.041 -0.0099 -0.0478 -0.3586
  191POPC   GL1 2596   2.464   5.272   4.381 -0.2693  0.2723 -0.0840
  191POPC   GL2 2597   2.751   5.307   4.262 -0.0051  0.1514 -0.1870
  191POPC   C1A 2598   2.671   5.370   4.801  0.1213 -0.0653  0.0376
  191POPC   D2A 2599   2.514   5.274   5.230 -0.0809 -0.0579 -0.0490
  191POPC   C3A 2600   2.395   5.670   5.414  0.1606  0.2285  0.0418
  191POPC   C4A 2601   2.252   6.074   5.589 -0.1438 -0.1971 -0.0161
  191POPC   C1B 2602   3.008   5.635   4.496 -0.2170 -0.1604 -0.1452
  191POPC   C2B 2603   3.104   6.007   4.799 -0.1970 -0.1906 -0.1989
  191POPC   C3B 2604   3.013   6.325   5.114 -0.0248  0.0772  0.0936
  191POPC   C4B 2605   2.928   6.539   5.576  0.0446  0.0966  0.0878
  192POPC   NC3 2606   9.320   7.821   3.337 -0.1093 -0.2959  0.2440
  192POPC   PO4 2607   9.562   7.555   3.308 -0.2557 -0.4010 -0.4605
  192POPC   GL1 2608   9.616   7.555   3.722  0.0306  0.1214 -0.0132
  192POPC   GL2 2609   9.660   7.908   3.828 -0.1401 -0.0402 -0.1282
  192POPC   C1A 2610   9.860   7.582   4.165  0.1238  0.1056  0.0568
  192POPC   D2A 2611   9.987   7.747   4.606 -0.0455 -0.1165  0.0894
  192POPC   C3A 2612   9.980   7.497   4.872 -0.2890 -0.1339 -0.1266
  192POPC   C4A 2613   9.990   7.108   5.015 -0.2772 -0.1126 -0.0580
  192POPC   C1B 2614   9.850   8.096   4.194 -0.2581  0.0294  0.1228
  192POPC   C2B 2615   9.778   8.270   4.620 -0.2243 -0.1054 -0.1311
  192POPC   C3B 2616   9.585   8.361   5.030 -0.1766  0.3822  0.1615
  192POPC   C4B 2617   9.476   8.626   5.312 -0.0278  0.1456  0.0366
  193POPC   NC3 2618   6.793  10.728   3.139  0.3557  0.3032 -0.0276
  193POPC   PO4 2619   7.154  10.971   3.370  0.0975 -0.2671 -0.3868
  193POPC   GL1 2620   7.252  10.797   3.869 -0.0928  0.2242  0.2457
  193POPC   GL2 2621   7.257  10.521   4.099 -0.0687 -0.0881  0.1532
  193POPC   C1A 2622   7.190  10.970   4.227 -0.0940  0.1517 -0.2763
  193POPC   D2A 2623   7.276  11.289   4.471  0.1824  0.0827  0.0331
  193POPC   C3A 2624   7.323  11.116   4.901 -0.0644  0.0338  0.1115
  193POPC   C4A 2625   7.451  11.090   5.262  0.0415  0.3179  0.2191
  193POPC   C1B 2626   7.049  10.371   4.459 -0.0383 -0.1056 -0.0627
  193POPC   C2B 2627   7.170  10.328   4.912 -0.2179  0.0740  0.1578
  193POPC   C3B 2628   7.463  10.501   5.102 -0.2342  0.0090 -0.0144
  193POPC   C4B 2629   7.951  10.618   5.275  0.2503  0.0967  0.0047
  194POPC   NC3 2630   7.770   9.715   3.200  0.2393 -0.1556  0.1723
  194POPC   PO4 2631   7.426   9.646   3.600  0.1960  0.4119  0.0275
  194POPC   GL1 2632   7.376   9.443   3.979  0.3875 -0.0839  0.1145
  194POPC   GL2 2633   7.084   9.249   3.922  0.1941 -0.2824  0.1942
  194POPC   C1A 2634   7.310   9.498   4.449  0.0901  0.0574 -0.2637
  194POPC   D2A 2635   7.426   9.350   4.853  0.1165  0.4201 -0.1160
  194POPC   C3A 2636   7.766   9.163   5.018  0.1088  0.1749  0.0718
  194POPC   C4A 2637   8.045   8.860   5.251 -0.1730 -0.4260  0.1501
  194POPC   C1B 2638   6.996   9.062   4.262  0.1304  0.1237  0.1132
  194POPC   C2B 2639   7.010   9.068   4.636 -0.0371  0.3210 -0.0786
  194POPC   C3B 2640   7.223   8.852   4.873  0.0568 -0.2044  0.2119
  194POPC   C4B 2641   7.446   8.795   5.239  0.1040  0.0681  0.1208
  195POPC   NC3 2642  10.529   4.251   3.922  0.1790  0.3036 -0.0696
  195POPC   PO4 2643  10.210   4.492   3.866  0.3794  0.0847 -0.1016
  195POPC   GL1 2644  10.112   4.652   4.231  0.0027  0.2220 -0.0221
  195POPC   GL2 2645  10.105   4.960   4.078  0.2463 -0.0779  0.0860
  195POPC   C1A 2646   9.980   4.581   4.683 -0.0108 -0.0349  0.1566
  195POPC   D2A 2647  10.005   4.290   5.036 -0.1319 -0.0668 -0.0002
  195POPC   C3A 2648  10.213   4.429   5.433  0.0166  0.2456  0.1427
  195POPC   C4A 2649  10.572   4.652   5.540 -0.0779 -0.2559  0.0996
  195POPC   C1B 2650  10.133   5.328   4.451 -0.0553 -0.2237  0.1455
  195POPC   C2B 2651  10.243   5.405   4.853  0.3478  0.2071 -0.0297
  195POPC   C3B 2652  10.509   5.252   5.197  0.1031 -0.0438 -0.0301
  195POPC   C4B 2653  10.561   5.175   5.636  0.0488 -0.1418 -0.2019
  196POPC   NC3 2654   2.374   2.592   3.107 -0.1928 -0.1070  0.2818
  196POPC   PO4 2655   2.528   2.860   3.469 -0.2519 -0.1427  0.2394
  196POPC   GL1 2656   2.560   2.873   3.961  0.0739  0.0567  0.2235
  196POPC   GL2 2657   2.218   2.896   4.090  0.0168  0.0589 -0.3280
  196POPC   C1A 2658   2.814   2.691   4.212 -0.0178  0.0698  0.2698
  196POPC   D2A 2659   2.880   2.686   4.548  0.0115 -0.1133 -0.0290
  196POPC   C3A 2660   2.588   2.526   4.833  0.3538  0.1282 -0.0503
  196POPC   C4A 2661   2.251   2.242   5.060  0.0570 -0.0358 -0.3334
  196POPC   C1B 2662   2.121   2.736   4.554 -0.2944 -0.2526 -0.1342
  196POPC   C2B 2663   2.146   2.766   4.990 -0.1890 -0.0667 -0.1843
  196POPC   C3B 2664   2.296   2.639   5.411  0.1051  0.1160 -0.0915
  196POPC   C4B 2665   2.816   2.497   5.547 -0.1254 -0.0636 -0.1012
  197POPC   NC3 2666   0.941  10.365   3.133  0.0831  0.3583 -0.1435
  197POPC   PO4 2667   0.978   9.970   3.292  0.0877  0.0338  0.0662
  197POPC   GL1 2668   0.850   9.936   3.728 -0.2206 -0.2475 -0.0506
  197POPC   GL2 2669   1.287  10.024   3.705 -0.0760 -0.2875 -0.1015
  197POPC   C1A 2670   0.979   9.827   4.129  0.1105  0.3754  0.1162
  197POPC   D2A 2671   0.899   9.666   4.521 -0.3033 -0.1706 -0.2950
  197POPC   C3A 2672   0.888   9.724   5.000 -0.1667 -0.1373 -0.0443
  197POPC   C4A 2673   0.742   9.679   5.404  0.3593 -0.1913 -0.0917
  197POPC   C1B 2674   1.142  10.323   4.029  0.0622 -0.2092  0.0024
  197POPC   C2B 2675   0.732  10.373   4.137 -0.0204 -0.0831 -0.0474
  197POPC   C3B 2676   0.538  10.306   4.492 -0.0121 -0.1328 -0.0590
  197POPC   C4B 2677   0.187  10.316   4.748 -0.1389  0.1370 -0.0750
  198POPC   NC3 2678   0.781   7.546   3.433 -0.0407  0.1772  0.2477
  198POPC   PO4 2679   1.219   7.349   3.449 -0.0587  0.1731 -0.0329
  198POPC   GL1 2680   1.051   7.187   3.742  0.0336 -0.0266 -0.1439
  198POPC   GL2 2681   0.975   7.485   3.951 -0.0582 -0.1911  0.1421
  198POPC   C1A 2682   0.795   7.064   4.108 -0.3349  0.1411 -0.1527
  198POPC   D2A 2683   0.704   6.911   4.586 -0.0933 -0.2612  0.0278
  198POPC   C3A 2684   1.245   6.853   4.575  0.1249 -0.2238 -0.1282
  198POPC   C4A 2685   1.516   6.808   4.791  0.2339  0.1027 -0.1280
  198POPC   C1B 2686   1.217   7.845   4.269  0.4863 -0.1298 -0.1925
  198POPC   C2B 2687   1.411   7.929   4.548  0.2334 -0.0596 -0.0365
  198POPC   C3B 2688   1.364   8.254   4.934 -0.0322 -0.1121 -0.1399
  198POPC   C4B 2689   1.525   8.591   5.233 -0.0623 -0.0575 -0.0765
  199POPC   NC3 2690   5.481   4.514   3.615  0.1959  0.1778 -0.0501
  199POPC   PO4 2691   5.644   4.043   3.695  0.0498  0.2076  0.2480
  199POPC   GL1 2692   5.707   4.100   4.120  0.2107 -0.0341  0.0790
  199POPC   GL2 2693   5.573   3.768   4.278  0.3588  0.0503 -0.0495
  199POPC   C1A 2694   5.489   4.158   4.523 -0.3266 -0.0683  0.0278
  199POPC   D2A 2695   5.383   4.343   4.844  0.1149  0.0259 -0.3863
  199POPC   C3A 2696   5.250   4.282   5.180  0.1285  0.0035 -0.0178
  199POPC   C4A 2697   5.237   4.217   5.523  0.0492  0.2093 -0.1189
  199POPC   C1B 2698   5.199   3.732   4.516 -0.0804 -0.0819 -0.1005
  199POPC   C2B 2699   5.064   3.894   4.859 -0.2516 -0.1533 -0.2970
  199POPC   C3B 2700   4.721   3.906   5.243 -0.0670 -0.3029 -0.1871
  199POPC   C4B 2701   4.793   4.101   5.622  0.1233 -0.1649 -0.1606
  200POPC   NC3 2702   2.705   1.746   2.931 -0.1185  0.1856 -0.0652
  200POPC   PO4 2703   2.476   2.098   3.198 -0.2514 -0.1070 -0.0575
  200POPC   GL1 2704   2.524   2.381   3.557 -0.1171 -0.0598  0.2904
  200POPC   GL2 2705   2.766   2.199   3.614  0.2086 -0.1439 -0.0240
  200POPC   C1A 2706   2.377   2.369   3.955 -0.3786 -0.5778 -0.0660
  200POPC   D2A 2707   2.502   2.340   4.363  0.0655 -0.0559  0.0829
  200POPC   C3A 2708   2.957   2.159   4.507 -0.0089  0.1448 -0.0741
  200POPC   C4A 2709   3.261   2.041   4.308  0.0064 -0.0682 -0.0206
  200POPC   C1B 2710   2.937   2.373   3.842  0.1536 -0.1508 -0.0269
  200POPC   C2B 2711   3.311   2.441   4.081 -0.0275  0.0319  0.2687
  200POPC   C3B 2712   3.476   2.959   4.218  0.0525  0.1297 -0.1718
  200POPC   C4B 2713   3.386   3.344   4.249 -0.0138  0.2513 -0.0700
  201POPC   NC3 2714   3.178   6.898   3.271 -0.0424 -0.0616 -0.0348
  201POPC   PO4 2715   3.358   6.435   3.495 -0.0615 -0.2809 -0.1498
  201POPC   GL1 2716   3.421   6.275   3.855 -0.0590  0.0541  0.2052
  201POPC   GL2 2717   3.821   6.185   3.824  0.2602  0.2437 -0.2116
  201POPC   C1A 2718   3.485   6.196   4.253  0.0106  0.0469  0.2357
  201POPC   D2A 2719   3.739   6.280   4.600 -0.0452 -0.0143 -0.4509
  201POPC   C3A 2720   3.759   6.462   5.063 -0.0284  0.0285 -0.0735
  201POPC   C4A 2721   4.043   6.365   5.477 -0.2197 -0.3214 -0.3774
  201POPC   C1B 2722   4.049   6.149   4.241  0.2982  0.1839  0.2075
  201POPC   C2B 2723   4.197   6.348   4.611 -0.2699 -0.2007  0.0667
  201POPC   C3B 2724   4.206   6.620   4.915  0.1139 -0.0260 -0.0647
  201POPC   C4B 2725   4.388   6.838   5.300  0.1082 -0.0269 -0.2953
  202POPC   NC3 2726   8.454  10.839   3.277 -0.0130  0.1364  0.0633
  202POPC   PO4 2727   8.519  11.266   3.363 -0.0817  0.0962  0.1768
  202POPC   GL1 2728   8.625  11.011   3.806 -0.4044 -0.0471 -0.0601
  202POPC   GL2 2729   8.534  11.272   4.014 -0.2118 -0.4145  0.4022
  202POPC   C1A 2730   8.721  10.593   4.093  0.3896 -0.1819 -0.1245
  202POPC   D2A 2731   8.760  10.192   3.883  0.1571  0.2018  0.2658
  202POPC   C3A 2732   8.780   9.833   4.002  0.2554  0.1285 -0.3779
  202POPC   C4A 2733   8.637   9.408   3.928 -0.1015  0.0044 -0.3768
  202POPC   C1B 2734   8.356  10.884   4.234 -0.0128 -0.0712  0.1568
  202POPC   C2B 2735   8.507  10.622   4.592  0.0524  0.2365 -0.1832
  202POPC   C3B 2736   8.395  10.821   5.005  0.1813 -0.2578  0.0995
  202POPC   C4B 2737   8.268  11.158   5.327 -0.2796  0.1588  0.1108
  203POPC   NC3 2738   4.743   2.388   3.933 -0.1846 -0.2856 -0.0378
  203POPC   PO4 2739   5.090   2.278   3.671  0.2985  0.1730  0.1491
  203POPC   GL1 2740   5.227   2.217   4.121  0.0423 -0.1755  0.0429
  203POPC   GL2 2741   4.924   2.123   4.306  0.1010 -0.1637 -0.2300
  203POPC   C1A 2742   5.559   2.002   4.411  0.4012 -0.0070  0.1648
  203POPC   D2A 2743   5.728   1.925   4.745  0.1893 -0.3922  0.3989
  203POPC   C3A 2744   5.834   2.136   5.060 -0.0211  0.0942 -0.1311
  203POPC   C4A 2745   6.102   1.992   5.420  0.1223  0.0766 -0.3742
  203POPC   C1B 2746   5.110   1.993   4.725 -0.3076 -0.4451 -0.2808
  203POPC   C2B 2747   5.357   2.031   5.085 -0.0322  0.1493 -0.0748
  203POPC   C3B 2748   5.332   2.078   5.548  0.0913 -0.0529  0.1288
  203POPC   C4B 2749   5.282   1.809   5.787  0.0923  0.0097  0.0449
  204POPC   NC3 2750   7.879   2.468   3.619  0.2646 -0.0698 -0.1552
  204POPC   PO4 2751   7.432   2.398   3.584  0.1155 -0.1742  0.1167
  204POPC   GL1 2752   7.424   2.444   4.061 -0.0452 -0.0169  0.1650
  204POPC   GL2 2753   7.067   2.454   4.165  0.0857  0.2755  0.0613
  204POPC   C1A 2754   7.555   2.257   4.410 -0.0103 -0.0509  0.2885
  204POPC   D2A 2755   7.413   2.117   4.822  0.0114 -0.3403 -0.0031
  204POPC   C3A 2756   7.207   2.130   5.250  0.1923 -0.4057 -0.0488
  204POPC   C4A 2757   7.158   2.092   5.602 -0.1746  0.3609  0.5130
  204POPC   C1B 2758   7.106   2.712   4.462 -0.1665  0.2651 -0.1442
  204POPC   C2B 2759   7.312   2.967   4.804  0.0208  0.1966  0.1743
  204POPC   C3B 2760   7.174   3.045   5.187 -0.1077  0.2032  0.1452
  204POPC   C4B 2761   6.888   2.856   5.521  0.0488  0.2707 -0.1504
  205POPC   NC3 2762   2.794   8.355   3.336  0.0907 -0.1183 -0.1658
  205POPC   PO4 2763   2.875   8.780   3.339  0.1405 -0.4807 -0.2023
  205POPC   GL1 2764   2.795   8.703   3.673 -0.0777  0.0489  0.0192
  205POPC   GL2 2765   2.970   8.411   3.799  0.0946 -0.1772  0.1866
  205POPC   C1A 2766   2.850   8.777   4.140  0.1184 -0.0787 -0.0997
  205POPC   D2A 2767   2.694   8.534   4.503 -0.2062  0.0839  0.0582
  205POPC   C3A 2768   2.828   8.118   4.885  0.0956  0.0806 -0.1865
  205POPC   C4A 2769   2.785   8.022   5.251  0.0978  0.0311 -0.2143
  205POPC   C1B 2770   2.598   8.323   4.020 -0.0951 -0.0798  0.0337
  205POPC   C2B 2771   2.591   7.965   4.329 -0.3302 -0.0565 -0.1385
  205POPC   C3B 2772   2.686   7.591   4.570 -0.0235  0.1020  0.4339
  205POPC   C4B 2773   2.921   7.335   4.878  0.0872 -0.0755  0.4010
  206POPC   NC3 2774   0.763   4.749   3.709  0.2176 -0.1082 -0.0310
  206POPC   PO4 2775   1.135   5.050   3.596  0.1474  0.0587 -0.0270
  206POPC   GL1 2776   1.063   5.045   4.054 -0.0421 -0.1950 -0.0314
  206POPC   GL2 2777   1.240   4.917   4.290  0.1071 -0.0837  0.1132
  206POPC   C1A 2778   0.872   5.204   4.425  0.1039 -0.0757  0.3536
  206POPC   D2A 2779   0.838   5.562   4.697  0.1830  0.1943 -0.1117
  206POPC   C3A 2780   0.624   5.656   5.075  0.0691 -0.0056 -0.4149
  206POPC   C4A 2781   0.396   5.940   5.324 -0.1780 -0.2837  0.2461
  206POPC   C1B 2782   1.322   5.065   4.759 -0.2493 -0.1710 -0.0537
  206POPC   C2B 2783   1.237   4.895   5.152  0.1905  0.0252  0.1994
  206POPC   C3B 2784   1.040   4.998   5.484  0.0483 -0.1552  0.2935
  206POPC   C4B 2785   0.974   5.334   5.695 -0.3013 -0.1780 -0.0261
  207POPC   NC3 2786   8.647   4.862   3.196 -0.0374 -0.1687  0.1995
  207POPC   PO4 2787   9.007   5.136   3.317 -0.3326 -0.0487 -0.1203
  207POPC   GL1 2788   8.749   4.940   3.691  0.2056 -0.0929 -0.0335
  207POPC   GL2 2789   8.887   4.699   3.935  0.1695  0.0775  0.0015
  207POPC   C1A 2790   8.740   5.106   4.146 -0.0891 -0.0628  0.2156
  207POPC   D2A 2791   8.751   4.897   4.581 -0.4519  0.5118  0.4402
  207POPC   C3A 2792   9.183   4.934   4.668 -0.0772 -0.0681  0.1392
  207POPC   C4A 2793   9.643   5.112   4.464 -0.1475 -0.2547 -0.0064
  207POPC   C1B 2794   9.286   4.806   4.207  0.1013  0.0551  0.1929
  207POPC   C2B 2795   9.496   4.626   4.480  0.1351 -0.3092  0.2648
  207POPC   C3B 2796   9.574   4.808   4.926  0.0460  0.0690  0.2202
  207POPC   C4B 2797   9.871   5.065   4.973 -0.2076 -0.2660 -0.1755
  208POPC   NC3 2798   3.406   0.178   3.324 -0.3832 -0.2479  0.5456
  208POPC   PO4 2799   3.527   0.131   3.655  0.1394 -0.2616 -0.0188
  208POPC   GL1 2800   3.553  -0.041   4.016  0.3021  0.2638 -0.1372
  208POPC   GL2 2801   3.467   0.107   4.327  0.1565  0.0840  0.1897
  208POPC   C1A 2802   3.570  -0.400   4.262  0.0536  0.0563  0.0150
  208POPC   D2A 2803   3.822  -0.479   4.580  0.1682 -0.1668  0.3066
  208POPC   C3A 2804   3.842  -0.848   4.697 -0.5098  0.1095 -0.1119
  208POPC   C4A 2805   4.180  -1.279   4.828  0.0954 -0.0476  0.2355
  208POPC   C1B 2806   3.836   0.019   4.497 -0.1622 -0.2442  0.0418
  208POPC   C2B 2807   4.233  -0.230   4.607  0.1308 -0.1255  0.0564
  208POPC   C3B 2808   4.293  -0.372   5.110  0.0667 -0.2374  0.1149
  208POPC   C4B 2809   4.255  -0.092   5.528 -0.1447  0.2325 -0.1134
  209POPC   NC3 2810   8.074   8.119   3.487 -0.3365 -0.1874  0.0219
  209POPC   PO4 2811   7.916   7.681   3.606 -0.1125  0.1674  0.1575
  209POPC   GL1 2812   7.865   7.465   3.954  0.1956  0.2283 -0.3922
  209POPC   GL2 2813   7.493   7.301   3.993  0.2183 -0.0464 -0.1517
  209POPC   C1A 2814   8.036   7.444   4.356 -0.1263  0.0761  0.0372
  209POPC   D2A 2815   8.020   7.555   4.776  0.1914  0.0301 -0.0234
  209POPC   C3A 2816   7.636   7.448   4.961 -0.0370 -0.2820 -0.1294
  209POPC   C4A 2817   7.246   7.365   5.170  0.1597  0.1425 -0.2088
  209POPC   C1B 2818   7.100   7.485   4.129  0.0897  0.2191 -0.0181
  209POPC   C2B 2819   6.943   7.795   4.291  0.1046  0.4091 -0.2466
  209POPC   C3B 2820   6.966   8.130   4.558 -0.1998  0.2886  0.0437
  209POPC   C4B 2821   7.276   8.350   4.806 -0.0437  0.2035  0.3744
  210POPC   NC3 2822   4.807   4.983   3.292 -0.0295 -0.2159 -0.0930
  210POPC   PO4 2823   4.941   5.493   3.283  0.0694 -0.1489  0.1537
  210POPC   GL1 2824   5.102   5.754   3.564  0.4286  0.0733 -0.0268
  210POPC   GL2 2825   5.045   6.076   3.651  0.0198 -0.1492 -0.2551
  210POPC   C1A 2826   5.275   5.955   4.046 -0.0084  0.3120  0.0676
  210POPC   D2A 2827   5.303   6.234   4.361 -0.2998 -0.5183  0.0391
  210POPC   C3A 2828   5.159   6.326   4.796  0.1328 -0.0058  0.2911
  210POPC   C4A 2829   4.672   6.265   4.887 -0.0554  0.4289 -0.2555
  210POPC   C1B 2830   4.933   6.335   3.966 -0.0165 -0.0361  0.2638
  210POPC   C2B 2831   4.722   6.217   4.387 -0.1476  0.0301  0.0692
  210POPC   C3B 2832   4.439   5.876   4.561 -0.1739  0.4207  0.1067
  210POPC   C4B 2833   4.336   5.553   4.950 -0.0660 -0.0623  0.2500
  211POPC   NC3 2834   1.186   1.673   3.322 -0.5933 -0.3779 -0.0178
  211POPC   PO4 2835   0.783   1.687   3.437  0.0529 -0.1250 -0.2384
  211POPC   GL1 2836   0.542   1.876   3.807 -0.1641  0.2766  0.4053
  211POPC   GL2 2837   0.648   2.257   3.899  0.1352  0.0078  0.0069
  211POPC   C1A 2838   0.567   2.020   4.307  0.1838  0.0148 -0.0183
  211POPC   D2A 2839   0.276   2.136   4.719 -0.1109 -0.1895 -0.0948
  211POPC   C3A 2840   0.017   1.714   4.853  0.0470 -0.3490 -0.0489
  211POPC   C4A 2841   0.097   1.355   4.952  0.1863 -0.0785 -0.4193
  211POPC   C1B 2842   0.571   2.541   4.254 -0.0534  0.1368 -0.3105
  211POPC   C2B 2843   0.371   2.626   4.705  0.2635 -0.1028  0.1573
  211POPC   C3B 2844   0.391   2.563   5.166 -0.1573  0.2722  0.2569
  211POPC   C4B 2845   0.369   2.356   5.573 -0.2215  0.0971 -0.1337
  212POPC   NC3 2846   4.368   9.991   3.264  0.0606  0.1258 -0.1205
  212POPC   PO4 2847   4.090   9.915   3.510 -0.1509  0.1913 -0.1442
  212POPC   GL1 2848   4.079   9.750   3.897  0.0076  0.1592 -0.2503
  212POPC   GL2 2849   4.406   9.708   4.112 -0.0415 -0.1173 -0.0516
  212POPC   C1A 2850   3.950   9.648   4.299 -0.1043 -0.2645  0.0145
  212POPC   D2A 2851   3.763   9.553   4.622  0.0834 -0.1275 -0.2604
  212POPC   C3A 2852   3.746   9.418   5.061 -0.2512  0.2702  0.3556
  212POPC   C4A 2853   3.785   9.851   5.181 -0.1855  0.0018 -0.0547
  212POPC   C1B 2854   4.461   9.867   4.518 -0.2227  0.1540 -0.0420
  212POPC   C2B 2855   4.472  10.037   4.883 -0.3002  0.0717 -0.1603
  212POPC   C3B 2856   4.307  10.088   5.260 -0.0756 -0.0071 -0.0796
  212POPC   C4B 2857   3.961  10.340   5.579 -0.1143 -0.3599 -0.0901
  213POPC   NC3 2858   6.430   7.667   3.479  0.0216 -0.0665 -0.1264
  213POPC   PO4 2859   6.782   7.750   3.593 -0.1279  0.0092  0.1467
  213POPC   GL1 2860   6.618   7.588   3.998 -0.1465  0.2332 -0.1673
  213POPC   GL2 2861   6.344   7.798   3.978  0.3075 -0.2945 -0.2282
  213POPC   C1A 2862   6.257   7.405   4.251 -0.1146 -0.0704 -0.2267
  213POPC   D2A 2863   5.934   7.168   4.533 -0.0819  0.1954  0.1424
  213POPC   C3A 2864   5.943   7.399   4.950  0.0393 -0.1778  0.0036
  213POPC   C4A 2865   6.081   7.580   5.201  0.3207 -0.3624 -0.3747
  213POPC   C1B 2866   6.435   7.944   4.362 -0.1043 -0.0512  0.4266
  213POPC   C2B 2867   6.555   7.820   4.653  0.1959 -0.0773  0.0695
  213POPC   C3B 2868   6.455   7.499   4.827 -0.0933 -0.1460  0.0499
  213POPC   C4B 2869   6.293   7.104   4.901  0.1485  0.2382 -0.1761
  214POPC   NC3 2870  10.540   9.203   3.262  0.1109  0.3575 -0.0751
  214POPC   PO4 2871  10.216   9.345   3.568  0.0298 -0.0412  0.2075
  214POPC   GL1 2872  10.384   9.281   4.012 -0.0064 -0.1164  0.2287
  214POPC   GL2 2873  10.173   9.114   4.141 -0.0865 -0.0232 -0.4134
  214POPC   C1A 2874  10.537   9.200   4.425 -0.0573  0.1819 -0.1236
  214POPC   D2A 2875  10.668   9.172   4.827  0.3615  0.0624  0.0582
  214POPC   C3A 2876  10.849   9.508   5.046 -0.1963  0.2932  0.1566
  214POPC   C4A 2877  10.944   9.688   5.434 -0.1654  0.1818 -0.0948
  214POPC   C1B 2878  10.038   9.291   4.424  0.3058  0.2565 -0.0993
  214POPC   C2B 2879   9.657   9.374   4.757  0.1558 -0.0962 -0.0515
  214POPC   C3B 2880   9.308   9.206   4.659 -0.2606 -0.2271  0.2398
  214POPC   C4B 2881   9.062   8.941   4.317 -0.0637 -0.0175  0.0891
  215POPC   NC3 2882   9.865   4.536   3.489  0.4944 -0.1492 -0.1557
  215POPC   PO4 2883   9.640   4.222   3.579  0.0628 -0.0248  0.3558
  215POPC   GL1 2884   9.651   4.200   4.036 -0.2255  0.0287 -0.1540
  215POPC   GL2 2885  10.025   4.103   4.078  0.0527 -0.0679 -0.1352
  215POPC   C1A 2886   9.497   4.107   4.470 -0.1661  0.0880 -0.2493
  215POPC   D2A 2887   9.525   4.308   4.852  0.0248 -0.1384  0.0306
  215POPC   C3A 2888   9.605   4.175   5.271 -0.0505 -0.2535 -0.0632
  215POPC   C4A 2889   9.798   3.811   5.488 -0.2174 -0.2724  0.1805
  215POPC   C1B 2890  10.024   4.113   4.546 -0.3554 -0.1913 -0.1777
  215POPC   C2B 2891  10.282   3.834   4.863 -0.0904  0.0233  0.1643
  215POPC   C3B 2892  10.104   3.564   5.145  0.0661 -0.0144  0.1303
  215POPC   C4B 2893   9.745   3.383   5.071  0.1994  0.3829 -0.0287
  216POPC   NC3 2894   5.431   0.592   4.021 -0.1503 -0.1295 -0.0751
  216POPC   PO4 2895   5.484   0.987   3.762  0.0429  0.0660  0.0370
  216POPC   GL1 2896   5.821   0.938   4.209 -0.1172  0.0378 -0.2939
  216POPC   GL2 2897   5.886   1.287   4.203 -0.2536 -0.3416  0.0943
  216POPC   C1A 2898   5.852   0.763   4.627 -0.2021  0.0011  0.0949
  216POPC   D2A 2899   5.742   0.680   5.088  0.1252 -0.1506  0.0570
  216POPC   C3A 2900   5.864   0.438   5.378  0.3339 -0.1264 -0.1314
  216POPC   C4A 2901   5.776   0.270   5.707 -0.0205 -0.2187  0.2971
  216POPC   C1B 2902   5.730   1.334   4.535 -0.0699 -0.2515 -0.1645
  216POPC   C2B 2903   5.682   1.186   4.962 -0.1007  0.0839  0.2328
  216POPC   C3B 2904   5.785   1.178   5.425  0.2649  0.2236 -0.2986
  216POPC   C4B 2905   5.966   1.101   5.933 -0.0873 -0.1537  0.2890
  217POPC   NC3 2906   9.272   8.882   3.369 -0.1553  0.2018  0.0457
  217POPC   PO4 2907   9.130   9.154   3.584  0.1680 -0.2757 -0.0998
  217POPC   GL1 2908   9.292   9.250   4.115  0.1050  0.1251  0.1045
  217POPC   GL2 2909   9.556   8.993   4.237  0.0361  0.0373 -0.2175
  217POPC   C1A 2910   9.090   9.558   4.369 -0.0784 -0.1292 -0.0920
  217POPC   D2A 2911   8.925   9.846   4.696 -0.0230  0.1529  0.1662
  217POPC   C3A 2912   8.470   9.772   4.886  0.0105  0.0551 -0.0234
  217POPC   C4A 2913   8.160   9.902   5.202  0.2523 -0.1581  0.1972
  217POPC   C1B 2914   9.636   8.850   4.729 -0.1633 -0.1659 -0.1858
  217POPC   C2B 2915   9.884   8.895   5.144 -0.2289 -0.0318 -0.2924
  217POPC   C3B 2916  10.325   8.847   5.206  0.0304  0.2112 -0.0977
  217POPC   C4B 2917  10.711   8.810   5.154  0.0896  0.1127 -0.0572
  218POPC   NC3 2918   7.169   8.159   3.518 -0.1079 -0.0063 -0.0105
  218POPC   PO4 2919   7.623   8.412   3.537  0.1948  0.1381 -0.1324
  218POPC   GL1 2920   7.564   8.085   3.773  0.0330 -0.2716  0.0587
  218POPC   GL2 2921   7.925   8.217   4.019 -0.0224  0.1667 -0.0513
  218POPC   C1A 2922   7.449   7.844   4.090  0.0287  0.1945  0.0221
  218POPC   D2A 2923   7.555   7.679   4.402 -0.1611  0.1884 -0.0714
  218POPC   C3A 2924   7.448   7.906   4.756 -0.0356  0.1325 -0.0884
  218POPC   C4A 2925   7.314   7.902   5.193  0.1265 -0.1217 -0.1322
  218POPC   C1B 2926   8.263   8.297   4.262  0.3376  0.0053 -0.2022
  218POPC   C2B 2927   8.607   8.267   4.646 -0.2253 -0.0648  0.3362
  218POPC   C3B 2928   8.828   8.420   4.859  0.1514  0.2573  0.0813
  218POPC   C4B 2929   9.195   8.726   4.821  0.0717  0.0397  0.0678
  219POPC   NC3 2930   9.665   5.893   3.640  0.0903  0.4445  0.1180
  219POPC   PO4 2931   9.331   5.943   3.710  0.0720 -0.1206  0.4919
  219POPC   GL1 2932   9.512   6.090   4.116  0.2612 -0.1798  0.1229
  219POPC   GL2 2933   9.330   5.766   4.308  0.1761 -0.0392 -0.4313
  219POPC   C1A 2934   9.622   6.391   4.450 -0.1774  0.0722 -0.3488
  219POPC   D2A 2935   9.843   6.763   4.621 -0.4824 -0.2043  0.2253
  219POPC   C3A 2936   9.862   7.167   4.488 -0.3220  0.0101  0.0885
  219POPC   C4A 2937   9.479   7.413   4.443 -0.2373 -0.2016 -0.2211
  219POPC   C1B 2938   9.376   5.962   4.721 -0.0598 -0.1063  0.0909
  219POPC   C2B 2939   9.171   5.789   5.052 -0.0355 -0.0905 -0.2667
  219POPC   C3B 2940   9.166   6.041   5.452 -0.1637  0.0032  0.2372
  219POPC   C4B 2941   9.183   6.102   5.852 -0.0785 -0.0100 -0.1283
  220POPC   NC3 2942   4.202   7.413   3.488  0.0049  0.1756 -0.3025
  220POPC   PO4 2943   3.807   7.335   3.362 -0.0127 -0.1136  0.1538
  220POPC   GL1 2944   3.850   7.054   3.738  0.2485  0.1828 -0.2704
  220POPC   GL2 2945   4.116   7.199   3.934 -0.1259 -0.0107  0.0111
  220POPC   C1A 2946   3.679   6.659   4.065  0.2023 -0.1084 -0.2211
  220POPC   D2A 2947   3.298   6.705   4.317 -0.1444  0.3883  0.1749
  220POPC   C3A 2948   3.231   6.447   4.640 -0.3153 -0.0387  0.4160
  220POPC   C4A 2949   3.347   6.712   5.003  0.1162 -0.1034 -0.2661
  220POPC   C1B 2950   4.504   7.347   4.014  0.2498 -0.0174 -0.0476
  220POPC   C2B 2951   4.760   7.457   4.303  0.1004  0.0399 -0.1405
  220POPC   C3B 2952   4.862   7.153   4.508  0.1259 -0.0344 -0.4055
  220POPC   C4B 2953   5.018   7.259   5.022  0.0275  0.2573  0.3361
  221POPC   NC3 2954  10.235   1.291   2.911 -0.1004  0.0083 -0.2931
  221POPC   PO4 2955  10.087   1.313   3.361  0.1271  0.0891 -0.0095
  221POPC   GL1 2956   9.972   1.226   3.787  0.0219 -0.3036 -0.3640
  221POPC   GL2 2957  10.208   1.298   4.053  0.0798 -0.2639  0.1903
  221POPC   C1A 2958   9.786   0.980   4.272 -0.5134  0.2083  0.2653
  221POPC   D2A 2959   9.593   0.989   4.641  0.1691 -0.4196 -0.4161
  221POPC   C3A 2960   9.390   0.632   4.793 -0.3154 -0.0004 -0.0448
  221POPC   C4A 2961   9.107   0.535   5.137  0.0077 -0.1826  0.3762
  221POPC   C1B 2962  10.529   1.453   3.877  0.1978  0.2177 -0.0977
  221POPC   C2B 2963  10.937   1.630   4.018 -0.0034  0.1957 -0.1370
  221POPC   C3B 2964  11.023   1.936   4.307 -0.0431 -0.2067  0.4370
  221POPC   C4B 2965  11.021   2.397   4.331 -0.0108  0.0882  0.1856
  222POPC   NC3 2966   9.635  10.324   3.252 -0.0577  0.0300 -0.3338
  222POPC   PO4 2967   9.483   9.828   3.357  0.0507  0.1193 -0.2444
  222POPC   GL1 2968   9.591   9.637   3.765  0.4804  0.1402 -0.3421
  222POPC   GL2 2969   9.914   9.504   3.951  0.1683  0.1788  0.1652
  222POPC   C1A 2970   9.637   9.715   4.322  0.2859 -0.2160  0.1641
  222POPC   D2A 2971   9.379   9.961   4.685  0.0538 -0.1338 -0.2647
  222POPC   C3A 2972   9.310   9.616   5.084 -0.0860  0.0789  0.3131
  222POPC   C4A 2973   8.992   9.589   5.358  0.0509  0.1652 -0.0463
  222POPC   C1B 2974  10.117   9.857   4.176  0.2283 -0.0429  0.1501
  222POPC   C2B 2975  10.000   9.924   4.626  0.0720 -0.1147 -0.1064
  222POPC   C3B 2976   9.774   9.839   5.007 -0.1645 -0.0943  0.0508
  222POPC   C4B 2977   9.583  10.066   5.330  0.0386  0.3569 -0.3830
  223POPC   NC3 2978   7.440   6.150   3.375  0.0720 -0.2012  0.1260
  223POPC   PO4 2979   7.613   5.779   3.400 -0.1829 -0.2349 -0.0860
  223POPC   GL1 2980   7.767   5.790   3.828  0.0701  0.5778  0.0123
  223POPC   GL2 2981   7.522   5.974   3.847  0.4168 -0.1692 -0.3757
  223POPC   C1A 2982   8.195   5.780   4.008 -0.0331 -0.2301  0.2687
  223POPC   D2A 2983   8.560   5.704   4.154 -0.0096  0.1149 -0.0840
  223POPC   C3A 2984   8.872   5.778   4.476  0.0145  0.0295  0.0575
  223POPC   C4A 2985   8.889   6.089   4.790  0.1455 -0.2443 -0.1898
  223POPC   C1B 2986   7.448   6.409   4.109  0.2968  0.0318  0.0258
  223POPC   C2B 2987   7.683   6.633   4.524  0.1017  0.4012 -0.1190
  223POPC   C3B 2988   7.936   6.842   4.732 -0.0595  0.1440 -0.1505
  223POPC   C4B 2989   7.971   7.067   4.990 -0.0822  0.0621  0.1195
  224POPC   NC3 2990   1.800   6.824   3.188  0.0528 -0.0692  0.0022
  224POPC   PO4 2991   1.883   7.302   3.270 -0.0159  0.2982 -0.1149
  224POPC   GL1 2992   1.832   7.492   3.608 -0.0736 -0.2610 -0.2063
  224POPC   GL2 2993   1.483   7.469   3.855  0.0531 -0.1406  0.3380
  224POPC   C1A 2994   1.872   7.408   4.091  0.1147  0.2461 -0.0619
  224POPC   D2A 2995   2.232   7.586   4.223 -0.0133 -0.1146 -0.1872
  224POPC   C3A 2996   2.191   7.723   4.601  0.1477  0.0951  0.1583
  224POPC   C4A 2997   1.830   7.814   4.991 -0.0988 -0.2508  0.0828
  224POPC   C1B 2998   1.385   7.319   4.180  0.1248  0.3912 -0.2603
  224POPC   C2B 2999   1.183   7.406   4.591 -0.0781  0.3544 -0.2148
  224POPC   C3B 3000   1.317   7.682   4.992  0.0802  0.0354 -0.1721
  224POPC   C4B 3001   1.157   8.004   5.323 -0.0231  0.1905 -0.3630
  225POPC   NC3 3002   7.014  10.474   3.577  0.0634 -0.0902  0.2620
  225POPC   PO4 3003   6.755  10.846   3.586  0.4290 -0.0456 -0.2933
  225POPC   GL1 3004   6.656  10.825   3.944 -0.1802  0.4218 -0.2872
  225POPC   GL2 3005   6.795  10.442   4.021  0.0998 -0.1522 -0.0659
  225POPC   C1A 3006   6.712  10.783   4.429  0.1872 -0.2317  0.1159
  225POPC   D2A 3007   7.065  10.775   4.690 -0.0750 -0.1374  0.0933
  225POPC   C3A 3008   7.455  10.618   4.601 -0.3204  0.0066 -0.1378
  225POPC   C4A 3009   7.660  10.224   4.655  0.0503 -0.0351 -0.1219
  225POPC   C1B 3010   6.571  10.234   4.400  0.0909 -0.1369  0.0611
  225POPC   C2B 3011   6.717   9.920   4.510 -0.1980  0.0092 -0.1131
  225POPC   C3B 3012   7.090   9.840   4.704  0.1240  0.1073  0.0675
  225POPC   C4B 3013   7.523   9.792   4.809 -0.1682  0.0934  0.1245
  226POPC   NC3 3014   0.187   8.199   3.533  0.1050 -0.1988  0.4037
  226POPC   PO4 3015   0.275   7.779   3.618 -0.1055  0.2134 -0.1020
  226POPC   GL1 3016   0.602   7.921   3.807  0.0567 -0.1686  0.0291
  226POPC   GL2 3017   0.532   7.707   4.109  0.4793 -0.2208  0.0616
  226POPC   C1A 3018   0.933   8.110   3.925  0.0387  0.1479  0.2411
  226POPC   D2A 3019   1.292   8.331   4.159 -0.3236  0.1060  0.3243
  226POPC   C3A 3020   1.195   8.558   4.604 -0.0937 -0.2457  0.1923
  226POPC   C4A 3021   1.149   8.815   4.990 -0.3097 -0.1788 -0.2557
  226POPC   C1B 3022   0.675   7.457   4.459  0.1974  0.1225  0.3429
  226POPC   C2B 3023   0.639   7.352   4.880  0.0071  0.1733 -0.0505
  226POPC   C3B 3024   0.824   7.596   5.232 -0.4322  0.0734  0.0308
  226POPC   C4B 3025   1.062   7.424   5.547  0.2177  0.3880 -0.1681
  227POPC   NC3 3026   6.514   7.031   3.281  0.0584 -0.0811 -0.4198
  227POPC   PO4 3027   6.082   6.995   3.331  0.2801  0.0347  0.2068
  227POPC   GL1 3028   6.176   6.780   3.636  0.0261  0.0071 -0.1480
  227POPC   GL2 3029   6.270   7.183   3.753 -0.1691 -0.2099 -0.0318
  227POPC   C1A 3030   6.343   6.670   3.989  0.0091 -0.0233 -0.0619
  227POPC   D2A 3031   6.390   6.890   4.470 -0.1150 -0.0832  0.0054
  227POPC   C3A 3032   6.766   6.822   4.599 -0.2479 -0.0645 -0.0742
  227POPC   C4A 3033   6.871   6.494   4.874  0.1255 -0.1432  0.2977
  227POPC   C1B 3034   5.865   7.096   3.957 -0.0695  0.0495 -0.0289
  227POPC   C2B 3035   5.433   6.796   3.903 -0.0166 -0.2532 -0.1683
  227POPC   C3B 3036   5.199   6.717   4.251 -0.3714 -0.2052  0.1840
  227POPC   C4B 3037   5.182   6.821   4.717 -0.2228 -0.0437  0.1126
  228POPC   NC3 3038   3.872   9.493   3.483  0.0375 -0.3098  0.1968
  228POPC   PO4 3039   4.349   9.255   3.549  0.0764 -0.0121  0.1511
  228POPC   GL1 3040   4.569   9.174   3.941  0.0300  0.0681  0.0861
  228POPC   GL2 3041   4.822   9.368   4.090 -0.1779 -0.0546  0.1581
  228POPC   C1A 3042   4.344   9.296   4.409  0.2609 -0.0424  0.3082
  228POPC   D2A 3043   4.152   9.111   4.773 -0.0622  0.2213  0.1136
  228POPC   C3A 3044   4.187   8.993   5.212 -0.0915 -0.3279 -0.0746
  228POPC   C4A 3045   4.061   9.139   5.613  0.1380 -0.0555  0.3694
  228POPC   C1B 3046   4.773   9.020   4.400  0.0559  0.2260 -0.0532
  228POPC   C2B 3047   4.597   8.829   4.777 -0.0326 -0.1362 -0.3829
  228POPC   C3B 3048   4.529   8.533   5.082 -0.6374 -0.1753  0.0482
  228POPC   C4B 3049   4.452   8.450   5.485  0.2005  0.0131 -0.1513
  229POPC   NC3 3050   3.225   4.136   3.501  0.1733  0.0182  0.0280
  229POPC   PO4 3051   3.465   4.064   3.685  0.0603  0.2959 -0.1839
  229POPC   GL1 3052   3.406   4.314   4.018  0.1125 -0.0164  0.2879
  229POPC   GL2 3053   3.707   4.397   4.126 -0.2763  0.3520 -0.2795
  229POPC   C1A 3054   3.173   4.544   4.392  0.1739 -0.0759  0.2909
  229POPC   D2A 3055   2.947   4.906   4.550  0.2654  0.1181 -0.0498
  229POPC   C3A 3056   3.002   4.965   5.014  0.3513  0.1542 -0.1758
  229POPC   C4A 3057   2.978   4.936   5.454  0.0597  0.0416 -0.1636
  229POPC   C1B 3058   3.532   4.209   4.512 -0.0930 -0.3727  0.1774
  229POPC   C2B 3059   3.116   4.291   4.773  0.1869  0.1001  0.1474
  229POPC   C3B 3060   3.157   4.512   5.232  0.0143  0.3484  0.1313
  229POPC   C4B 3061   3.023   4.344   5.611 -0.2817  0.1247  0.1969
  230POPC   NC3 3062   3.069   3.712   3.880 -0.0103  0.2654  0.4030
  230POPC   PO4 3063   2.935   4.144   3.926 -0.1021  0.2423 -0.2283
  230POPC   GL1 3064   2.930   3.925   4.342  0.1032 -0.0172 -0.1573
  230POPC   GL2 3065   3.177   3.774   4.470  0.1871 -0.1501 -0.0101
  230POPC   C1A 3066   2.747   3.852   4.781 -0.1771 -0.1048  0.1744
  230POPC   D2A 3067   2.686   3.848   5.225 -0.1661 -0.0698  0.2743
  230POPC   C3A 3068   2.451   4.007   5.421 -0.1013 -0.4110  0.1673
  230POPC   C4A 3069   2.165   4.136   5.676  0.3046 -0.2483  0.0774
  230POPC   C1B 3070   3.233   3.751   4.890 -0.0689  0.3172 -0.0574
  230POPC   C2B 3071   3.326   3.839   5.355 -0.0427  0.1286 -0.1873
  230POPC   C3B 3072   3.653   3.807   5.552  0.1804  0.0497  0.0158
  230POPC   C4B 3073   3.909   3.813   5.892 -0.0391 -0.1188 -0.3153
  231POPC   NC3 3074   0.027   7.346   3.424 -0.1817 -0.1994 -0.1892
  231POPC   PO4 3075   0.308   6.894   3.351 -0.0628  0.0132 -0.0732
  231POPC   GL1 3076   0.314   6.802   3.837  0.1018 -0.2752  0.1900
  231POPC   GL2 3077   0.066   6.927   3.794  0.1894  0.1043 -0.0625
  231POPC   C1A 3078   0.497   6.705   4.183 -0.0506 -0.0031 -0.0120
  231POPC   D2A 3079   0.417   6.450   4.643  0.1684 -0.0923 -0.0099
  231POPC   C3A 3080   0.064   6.406   4.833  0.2539  0.2910 -0.0272
  231POPC   C4A 3081  -0.144   6.677   5.138 -0.3380  0.0265 -0.1183
  231POPC   C1B 3082  -0.233   7.058   4.179 -0.0532  0.1908 -0.0101
  231POPC   C2B 3083  -0.477   6.994   4.668  0.1691 -0.1572 -0.0303
  231POPC   C3B 3084  -0.574   6.646   4.959  0.2155 -0.4044 -0.1791
  231POPC   C4B 3085  -0.677   6.389   5.239 -0.3661 -0.2312 -0.1254
  232POPC   NC3 3086   8.507   8.604   2.916  0.1711  0.1834  0.2041
  232POPC   PO4 3087   8.493   8.308   3.292 -0.1980  0.2009 -0.1021
  232POPC   GL1 3088   8.639   8.206   3.632  0.2740 -0.3364  0.0629
  232POPC   GL2 3089   8.583   7.997   3.880  0.0745 -0.1399  0.2568
  232POPC   C1A 3090   8.837   8.391   3.979  0.2069 -0.0693 -0.0388
  232POPC   D2A 3091   8.728   8.801   3.976 -0.2127  0.0566  0.1694
  232POPC   C3A 3092   8.626   8.709   4.430  0.1953 -0.3203 -0.0341
  232POPC   C4A 3093   8.524   8.941   4.855 -0.1128  0.0127 -0.4987
  232POPC   C1B 3094   8.238   7.802   4.129 -0.1370 -0.1385 -0.1662
  232POPC   C2B 3095   7.954   7.939   4.422 -0.1676 -0.2911  0.1171
  232POPC   C3B 3096   7.977   8.157   4.813  0.0046  0.1925  0.2372
  232POPC   C4B 3097   7.772   8.470   5.091  0.2102  0.1117  0.2451
  233POPC   NC3 3098   0.775   2.612   3.119  0.3057 -0.0035  0.1059
  233POPC   PO4 3099   0.449   2.840   3.426 -0.0894 -0.1609 -0.1669
  233POPC   GL1 3100   0.299   2.776   3.894  0.1698  0.0178 -0.1647
  233POPC   GL2 3101   0.486   3.037   3.951  0.3764  0.1109  0.0209
  233POPC   C1A 3102   0.038   2.863   4.269 -0.1380  0.1870  0.0460
  233POPC   D2A 3103  -0.185   2.846   4.716  0.2122  0.0189 -0.3318
  233POPC   C3A 3104  -0.110   2.651   5.057  0.1388 -0.2138  0.2657
  233POPC   C4A 3105  -0.062   2.564   5.397 -0.0079  0.1104 -0.0837
  233POPC   C1B 3106   0.537   3.048   4.430 -0.1719  0.0444  0.1895
  233POPC   C2B 3107   0.412   3.069   4.882 -0.0211  0.0211  0.1319
  233POPC   C3B 3108   0.085   3.061   5.212 -0.0627 -0.3650 -0.2478
  233POPC   C4B 3109  -0.253   3.055   5.362  0.0248 -0.0051  0.2025
  234POPC   NC3 3110   3.423  10.549   3.462 -0.0778 -0.0418 -0.0541
  234POPC   PO4 3111   3.112  10.669   3.723  0.0852 -0.0236  0.2705
  234POPC   GL1 3112   3.092  10.641   4.227  0.0392 -0.0414  0.2721
  234POPC   GL2 3113   2.812  10.461   4.316 -0.1110  0.0532 -0.0523
  234POPC   C1A 3114   3.187  10.247   4.581  0.2701  0.1011  0.0707
  234POPC   D2A 3115   3.292   9.931   4.854  0.2629 -0.1776  0.0897
  234POPC   C3A 3116   3.456  10.218   5.291  0.1215  0.3312  0.2831
  234POPC   C4A 3117   3.836  10.338   5.105 -0.3114  0.2023 -0.2131
  234POPC   C1B 3118   2.680  10.127   4.629  0.0361 -0.0248 -0.0412
  234POPC   C2B 3119   2.795   9.677   4.713  0.3920 -0.1496 -0.3427
  234POPC   C3B 3120   2.904   9.419   5.001  0.0770 -0.0940  0.1829
  234POPC   C4B 3121   2.854   9.021   5.101  0.2072 -0.3516 -0.0144
  235POPC   NC3 3122   5.321   2.789   3.564  0.1387  0.3249 -0.2247
  235POPC   PO4 3123   4.859   2.847   3.724  0.1433  0.0334  0.0651
  235POPC   GL1 3124   4.833   2.788   4.228 -0.1123 -0.0771  0.3558
  235POPC   GL2 3125   5.160   2.678   4.471 -0.1287 -0.0338 -0.0125
  235POPC   C1A 3126   4.719   2.502   4.572 -0.2363 -0.0409  0.1949
  235POPC   D2A 3127   4.565   2.341   4.939  0.1131  0.0583 -0.0410
  235POPC   C3A 3128   4.742   2.605   5.268  0.0858 -0.1066  0.2088
  235POPC   C4A 3129   5.183   2.610   5.472 -0.1340 -0.1211 -0.0020
  235POPC   C1B 3130   5.405   2.855   4.824  0.2612 -0.2566  0.0149
  235POPC   C2B 3131   5.557   2.786   5.177  0.1082 -0.0414  0.0492
  235POPC   C3B 3132   5.654   2.568   5.579  0.2246  0.4039 -0.3796
  235POPC   C4B 3133   5.793   2.133   5.793  0.0928 -0.2079 -0.0579
  236POPC   NC3 3134   2.178   3.234   3.694 -0.0188  0.1160  0.0881
  236POPC   PO4 3135   2.066   3.670   3.872 -0.2132 -0.3903  0.1986
  236POPC   GL1 3136   2.091   3.467   4.223 -0.2454  0.0543 -0.2551
  236POPC   GL2 3137   2.247   3.718   4.389  0.3864  0.1869 -0.3298
  236POPC   C1A 3138   1.966   3.204   4.472 -0.1106  0.2756  0.2461
  236POPC   D2A 3139   1.911   3.220   4.882  0.2611  0.0796  0.0765
  236POPC   C3A 3140   2.197   3.183   5.240  0.0704  0.4715  0.3128
  236POPC   C4A 3141   2.490   3.415   5.525  0.0981 -0.1165  0.0031
  236POPC   C1B 3142   2.315   3.479   4.744 -0.1118  0.1578 -0.4354
  236POPC   C2B 3143   2.724   3.410   5.012 -0.0898  0.1043 -0.0761
  236POPC   C3B 3144   3.047   3.359   5.322  0.2720 -0.0299 -0.0561
  236POPC   C4B 3145   3.360   3.409   5.676  0.0197  0.0449 -0.0523
  237POPC   NC3 3146   4.924   8.701   3.516  0.4601 -0.1955 -0.3404
  237POPC   PO4 3147   5.194   8.435   3.745 -0.0482  0.2630  0.0318
  237POPC   GL1 3148   5.224   8.445   4.104  0.2288  0.0267 -0.0196
  237POPC   GL2 3149   5.524   8.427   4.364 -0.1541  0.0944 -0.4128
  237POPC   C1A 3150   5.151   8.768   4.585  0.2637 -0.4924 -0.0426
  237POPC   D2A 3151   5.066   9.116   4.874 -0.0389  0.2153 -0.0156
  237POPC   C3A 3152   4.981   8.869   5.189 -0.0772  0.0146  0.2536
  237POPC   C4A 3153   4.985   8.546   5.379  0.1099  0.1906  0.3088
  237POPC   C1B 3154   5.719   8.070   4.574 -0.3407 -0.0987 -0.0364
  237POPC   C2B 3155   5.592   7.743   4.818  0.0559  0.1659 -0.1208
  237POPC   C3B 3156   5.436   7.640   5.132  0.1645  0.0822 -0.2186
  237POPC   C4B 3157   5.249   7.466   5.459 -0.0513 -0.1591  0.1222
  238POPC   NC3 3158   9.464   1.342   3.557  0.1203 -0.0314 -0.1164
  238POPC   PO4 3159   9.157   1.002   3.515 -0.0292  0.0682  0.0128
  238POPC   GL1 3160   9.150   1.032   3.927  0.0116 -0.0431 -0.2124
  238POPC   GL2 3161   8.977   0.728   4.054 -0.2474  0.1335 -0.1274
  238POPC   C1A 3162   9.264   1.177   4.317  0.1908 -0.0212  0.0408
  238POPC   D2A 3163   9.172   1.383   4.717 -0.1938 -0.0904  0.0495
  238POPC   C3A 3164   9.456   1.629   4.739 -0.2274  0.1981  0.0828
  238POPC   C4A 3165   9.840   1.704   4.921  0.0614  0.1733 -0.0402
  238POPC   C1B 3166   8.973   0.682   4.506  0.1071  0.0450 -0.0276
  238POPC   C2B 3167   9.021   0.967   4.916 -0.1663  0.3545 -0.0382
  238POPC   C3B 3168   8.857   1.317   5.152  0.1851 -0.3409 -0.0342
  238POPC   C4B 3169   8.835   1.595   5.500  0.3731 -0.2721  0.2464
  239POPC   NC3 3170   8.290   6.239   3.096  0.2909  0.0352 -0.0459
  239POPC   PO4 3171   7.825   6.342   3.124  0.0004 -0.1289 -0.0509
  239POPC   GL1 3172   7.788   6.465   3.574 -0.2357  0.1196 -0.0569
  239POPC   GL2 3173   7.618   6.720   3.678  0.0613  0.1482  0.0705
  239POPC   C1A 3174   7.904   6.290   3.940  0.1671 -0.0463  0.1660
  239POPC   D2A 3175   7.786   6.143   4.390  0.2388 -0.0884  0.1049
  239POPC   C3A 3176   7.928   6.314   4.752 -0.1186 -0.0869 -0.2590
  239POPC   C4A 3177   8.114   6.556   5.127 -0.0958  0.2007 -0.0853
  239POPC   C1B 3178   7.752   6.859   4.070  0.2235 -0.0607  0.2665
  239POPC   C2B 3179   7.642   7.188   4.478 -0.1056 -0.1288 -0.2090
  239POPC   C3B 3180   7.244   7.392   4.621  0.0733 -0.0292  0.2778
  239POPC   C4B 3181   7.009   7.694   4.834  0.2041  0.0492  0.6345
  240POPC   NC3 3182   0.203   4.139   3.400  0.1195  0.0164 -0.0078
  240POPC   PO4 3183   0.083   4.057   3.815 -0.5637 -0.1803 -0.0826
  240POPC   GL1 3184   0.316   3.988   4.184 -0.0402  0.4658 -0.1251
  240POPC   GL2 3185   0.345   4.302   4.307 -0.0259 -0.0459  0.0705
  240POPC   C1A 3186   0.071   4.036   4.566 -0.3617 -0.0513  0.2241
  240POPC   D2A 3187   0.079   4.399   4.760  0.2771 -0.1415 -0.1161
  240POPC   C3A 3188   0.148   4.417   5.187  0.2756  0.0805 -0.2050
  240POPC   C4A 3189   0.111   4.560   5.665 -0.0914  0.0092 -0.1544
  240POPC   C1B 3190   0.508   4.267   4.662 -0.2525 -0.1038 -0.2309
  240POPC   C2B 3191   0.581   4.140   5.112  0.2747  0.3817 -0.7340
  240POPC   C3B 3192   0.678   4.285   5.425 -0.1642  0.1088  0.0322
  240POPC   C4B 3193   0.709   4.641   5.760  0.2323  0.0516  0.1194
  241POPC   NC3 3194   5.834  10.407   3.916 -0.5064  0.1098 -0.0644
  241POPC   PO4 3195   5.698   9.978   3.797  0.0834  0.1483  0.1450
  241POPC   GL1 3196   5.311  10.090   4.020  0.1722 -0.1116  0.2621
  241POPC   GL2 3197   5.406  10.334   4.225 -0.0048  0.2219  0.0376
  241POPC   C1A 3198   5.069   9.834   4.273 -0.3024  0.3055  0.0666
  241POPC   D2A 3199   4.824   9.513   4.547  0.1088  0.1297 -0.1206
  241POPC   C3A 3200   4.600   9.428   4.873 -0.0584  0.1822 -0.0707
  241POPC   C4A 3201   4.487   9.405   5.329 -0.4181 -0.1031  0.0735
  241POPC   C1B 3202   5.383  10.257   4.571 -0.0685 -0.1350 -0.4354
  241POPC   C2B 3203   5.298  10.142   4.970  0.1356 -0.0032  0.0603
  241POPC   C3B 3204   5.725  10.098   5.209 -0.0155  0.0483 -0.1165
  241POPC   C4B 3205   6.073   9.952   5.525 -0.0785 -0.0888 -0.3156
  242POPC   NC3 3206   6.250   8.605   3.461  0.1284  0.3122  0.3145
  242POPC   PO4 3207   6.204   8.190   3.437 -0.4888 -0.0438  0.1519
  242POPC   GL1 3208   6.287   8.343   3.893  0.2511 -0.1152  0.1498
  242POPC   GL2 3209   5.997   8.120   4.128 -0.4192 -0.0781  0.2011
  242POPC   C1A 3210   6.734   8.425   4.128 -0.2306 -0.2700 -0.0933
  242POPC   D2A 3211   7.022   8.270   4.046  0.0540 -0.0282  0.1809
  242POPC   C3A 3212   7.404   8.237   4.337  0.0106 -0.1844  0.1025
  242POPC   C4A 3213   7.670   8.472   4.546  0.0639  0.0053  0.1338
  242POPC   C1B 3214   6.263   8.384   4.504  0.2856  0.0970  0.5179
  242POPC   C2B 3215   6.324   8.577   4.927 -0.3926 -0.4316 -0.0842
  242POPC   C3B 3216   6.468   8.487   5.304 -0.0332 -0.1843  0.2006
  242POPC   C4B 3217   6.641   8.573   5.666 -0.1489 -0.2801  0.0064
  243POPC   NC3 3218   7.959   3.245   3.333  0.2160  0.2128 -0.0111
  243POPC   PO4 3219   7.671   2.959   3.605  0.0781 -0.5086  0.1872
  243POPC   GL1 3220   7.810   2.881   4.025 -0.4030 -0.0849 -0.2040
  243POPC   GL2 3221   7.958   2.513   4.114 -0.0998  0.4223 -0.0663
  243POPC   C1A 3222   7.576   2.764   4.407  0.1459 -0.0792 -0.1954
  243POPC   D2A 3223   7.603   2.594   4.905 -0.0771  0.1275  0.0484
  243POPC   C3A 3224   7.728   2.388   5.090  0.0806  0.1661  0.0240
  243POPC   C4A 3225   7.660   1.932   5.174 -0.0969  0.1660  0.3426
  243POPC   C1B 3226   8.012   2.500   4.514  0.0884 -0.2033 -0.0005
  243POPC   C2B 3227   8.126   2.665   4.915  0.2834 -0.0464  0.1092
  243POPC   C3B 3228   8.001   2.945   5.233 -0.0274  0.0473  0.1031
  243POPC   C4B 3229   7.645   2.981   5.297 -0.1248  0.0743 -0.1113
  244POPC   NC3 3230  10.504   6.016   2.722 -0.0153  0.1732 -0.2134
  244POPC   PO4 3231  10.493   5.729   3.159 -0.1248  0.1649 -0.0766
  244POPC   GL1 3232  10.548   5.561   3.601 -0.1161  0.0499  0.2054
  244POPC   GL2 3233  10.730   5.289   3.460  0.1995 -0.0605 -0.2344
  244POPC   C1A 3234  10.378   5.451   4.025 -0.0717 -0.0556 -0.0863
  244POPC   D2A 3235  10.591   5.137   4.240  0.1130  0.4380 -0.1603
  244POPC   C3A 3236  10.382   4.904   4.570 -0.1585 -0.5519 -0.1838
  244POPC   C4A 3237  10.379   4.823   4.972 -0.0887 -0.3967 -0.2902
  244POPC   C1B 3238  11.003   5.454   3.768 -0.3481  0.1090 -0.0048
  244POPC   C2B 3239  11.177   5.764   4.046  0.0303  0.1517  0.1307
  244POPC   C3B 3240  11.085   5.907   4.340 -0.0266 -0.2513  0.0800
  244POPC   C4B 3241  11.212   5.846   4.784  0.2221  0.2043 -0.0593
  245POPC   NC3 3242   9.944   3.106   3.549 -0.0935 -0.0585  0.1060
  245POPC   PO4 3243   9.547   2.928   3.614 -0.4340  0.0343  0.0618
  245POPC   GL1 3244   9.415   2.839   3.990  0.3327 -0.1000 -0.1354
  245POPC   GL2 3245   9.764   2.843   4.071 -0.2386  0.1709 -0.1651
  245POPC   C1A 3246   9.513   2.601   4.411  0.2248  0.0951  0.0365
  245POPC   D2A 3247   9.321   2.411   4.789  0.2026  0.0730  0.1470
  245POPC   C3A 3248   9.129   2.276   5.190 -0.0480  0.2458 -0.2054
  245POPC   C4A 3249   9.138   1.891   5.227 -0.0498  0.5705  0.0185
  245POPC   C1B 3250   9.503   3.127   4.386  0.0029 -0.0595 -0.4123
  245POPC   C2B 3251   9.418   3.077   4.850 -0.0608 -0.1311  0.3486
  245POPC   C3B 3252   9.557   2.687   5.204 -0.1404  0.1495 -0.1544
  245POPC   C4B 3253   9.441   2.355   5.519 -0.1908 -0.4164 -0.1465
  246POPC   NC3 3254   0.645   5.740   3.503  0.0362  0.0982  0.1913
  246POPC   PO4 3255   0.800   5.229   3.334 -0.1284  0.1946  0.2967
  246POPC   GL1 3256   0.718   5.253   3.781 -0.1396 -0.2187 -0.0240
  246POPC   GL2 3257   0.772   5.525   3.960  0.1328  0.0416 -0.1576
  246POPC   C1A 3258   0.321   5.225   4.128 -0.1018  0.1216 -0.0660
  246POPC   D2A 3259   0.055   5.438   4.486 -0.1251 -0.0458  0.1692
  246POPC   C3A 3260  -0.123   5.200   4.846 -0.0142  0.2461 -0.1338
  246POPC   C4A 3261  -0.060   4.850   5.176  0.0711 -0.1888  0.3652
  246POPC   C1B 3262   0.957   5.711   4.267 -0.3908  0.2307 -0.1602
  246POPC   C2B 3263   1.185   5.903   4.569  0.0357  0.1384  0.2102
  246POPC   C3B 3264   1.134   5.869   4.973  0.3010 -0.2000  0.1037
  246POPC   C4B 3265   1.476   5.822   5.224  0.0852 -0.0623  0.1523
  247POPC   NC3 3266   2.449   4.073   4.012  0.1133 -0.1979  0.0615
  247POPC   PO4 3267   2.643   3.659   4.096  0.0346 -0.1176 -0.1171
  247POPC   GL1 3268   2.715   3.462   4.484 -0.0607  0.0425 -0.4215
  247POPC   GL2 3269   2.570   3.179   4.355 -0.0869  0.3716 -0.1864
  247POPC   C1A 3270   3.065   3.189   4.742 -0.2915 -0.0164 -0.0370
  247POPC   D2A 3271   3.222   2.855   4.957  0.3206  0.2390 -0.2018
  247POPC   C3A 3272   3.279   2.924   5.330  0.0311 -0.0140 -0.1632
  247POPC   C4A 3273   3.451   2.953   5.779  0.0982 -0.1329  0.2248
  247POPC   C1B 3274   2.511   2.999   4.769 -0.4311 -0.1312  0.4354
  247POPC   C2B 3275   2.680   2.905   5.152 -0.1147 -0.1374 -0.0547
  247POPC   C3B 3276   2.604   2.976   5.654  0.0472  0.1472  0.1557
  247POPC   C4B 3277   2.628   3.115   6.099  0.0869 -0.2891 -0.0372
  248POPC   NC3 3278   6.943   2.521   3.701  0.2912  0.0701 -0.1661
  248POPC   PO4 3279   6.563   2.784   3.825  0.0803 -0.0321  0.3549
  248POPC   GL1 3280   6.737   2.965   4.178  0.2374 -0.1382  0.0911
  248POPC   GL2 3281   6.693   3.189   4.111  0.1521  0.1446 -0.0641
  248POPC   C1A 3282   6.758   3.196   4.577  0.0571 -0.2353  0.0037
  248POPC   D2A 3283   6.741   3.132   5.023 -0.1045  0.0149  0.1336
  248POPC   C3A 3284   6.808   3.479   5.326  0.1366  0.1374 -0.1826
  248POPC   C4A 3285   7.189   3.608   5.250  0.2458 -0.1430 -0.0367
  248POPC   C1B 3286   6.333   3.015   4.507  0.2878  0.3178  0.2914
  248POPC   C2B 3287   6.326   2.957   4.930  0.2615 -0.0498  0.1084
  248POPC   C3B 3288   6.356   3.164   5.393 -0.1494  0.2071 -0.1341
  248POPC   C4B 3289   6.337   2.877   5.715  0.1546 -0.0017 -0.5086
  249POPC   NC3 3290   2.123   7.780   3.289  0.1827 -0.3242  0.0749
  249POPC   PO4 3291   2.351   7.377   3.195 -0.3174  0.1464 -0.2048
  249POPC   GL1 3292   2.574   7.631   3.528  0.2182  0.1428  0.0147
  249POPC   GL2 3293   2.388   7.740   3.798 -0.1669 -0.2333 -0.1790
  249POPC   C1A 3294   2.848   7.958   3.855  0.1291  0.2406 -0.2177
  249POPC   D2A 3295   3.059   8.198   4.215  0.3895  0.2818  0.0234
  249POPC   C3A 3296   3.347   8.533   4.092  0.0727 -0.0672  0.2959
  249POPC   C4A 3297   3.646   8.790   3.929 -0.1195 -0.0567 -0.2799
  249POPC   C1B 3298   2.269   7.310   3.847  0.1677 -0.0945 -0.1463
  249POPC   C2B 3299   2.182   6.961   4.112  0.1876 -0.0129  0.1724
  249POPC   C3B 3300   2.341   6.691   4.431  0.1675  0.1495  0.3330
  249POPC   C4B 3301   2.335   6.240   4.484  0.0072  0.2168 -0.0037
  250POPC   NC3 3302   9.725   3.790   3.727  0.0591 -0.0877  0.0026
  250POPC   PO4 3303  10.076   3.604   3.862 -0.1805  0.0711  0.4136
  250POPC   GL1 3304   9.918   3.429   4.200  0.2872 -0.2479 -0.1939
  250POPC   GL2 3305   9.804   3.707   4.361  0.0253  0.0360 -0.0420
  250POPC   C1A 3306   9.959   3.284   4.636  0.0127 -0.1444 -0.1834
  250POPC   D2A 3307  10.307   3.030   4.958  0.0937  0.0613 -0.1716
  250POPC   C3A 3308  10.029   2.924   5.201  0.1208 -0.0148 -0.3403
  250POPC   C4A 3309   9.890   3.170   5.531  0.0639  0.1099 -0.0393
  250POPC   C1B 3310   9.335   3.571   4.471  0.2565 -0.0592 -0.0439
  250POPC   C2B 3311   8.834   3.492   4.764 -0.0769 -0.0855 -0.2252
  250POPC   C3B 3312   8.664   3.587   5.250 -0.0030  0.0949 -0.0638
  250POPC   C4B 3313   8.828   3.638   5.645  0.0256 -0.3518 -0.2614
  251POPC   NC3 3314   2.520   7.190   2.760  0.3918 -0.1228  0.0262
  251POPC   PO4 3315   2.732   7.023   3.182 -0.3736  0.0798 -0.0977
  251POPC   GL1 3316   2.602   7.077   3.496  0.1260 -0.1403 -0.1571
  251POPC   GL2 3317   2.873   7.259   3.607 -0.1261  0.0569 -0.0537
  251POPC   C1A 3318   2.647   7.020   3.934 -0.5696  0.5681  0.5997
  251POPC   D2A 3319   3.101   7.115   4.112  0.1606 -0.3955 -0.1605
  251POPC   C3A 3320   3.287   7.154   4.494  0.0580  0.1764  0.0268
  251POPC   C4A 3321   3.398   7.261   4.966 -0.1751  0.2434 -0.3211
  251POPC   C1B 3322   2.780   7.523   4.075 -0.0857  0.3671  0.0424
  251POPC   C2B 3323   3.156   7.686   4.337  0.3096 -0.0047  0.1005
  251POPC   C3B 3324   3.447   7.637   4.647  0.0138  0.3954  0.1033
  251POPC   C4B 3325   3.769   7.420   4.705 -0.2922  0.1943 -0.3741
  252POPC   NC3 3326   0.500   3.355   3.524 -0.2400  0.0480  0.0509
  252POPC   PO4 3327   0.149   3.616   3.428  0.2526 -0.0891  0.1853
  252POPC   GL1 3328   0.152   3.420   3.833  0.0944  0.0530  0.0451
  252POPC   GL2 3329  -0.045   3.226   3.896 -0.5357 -0.1267  0.3567
  252POPC   C1A 3330   0.086   3.515   4.301 -0.0097 -0.2598 -0.4508
  252POPC   D2A 3331   0.038   3.343   4.694  0.0984  0.1546  0.0033
  252POPC   C3A 3332   0.225   3.506   5.056  0.0170  0.1114 -0.2244
  252POPC   C4A 3333   0.424   3.363   5.394 -0.1145  0.0787 -0.0165
  252POPC   C1B 3334  -0.353   3.206   4.188  0.0987 -0.1417  0.0106
  252POPC   C2B 3335  -0.386   3.486   4.643  0.0485 -0.0175 -0.1683
  252POPC   C3B 3336  -0.292   3.455   5.052 -0.0259  0.0339  0.2032
  252POPC   C4B 3337  -0.160   3.607   5.495 -0.2818 -0.0857  0.2207
  253POPC   NC3 3338   3.383   1.147   3.359 -0.1626 -0.0312 -0.4005
  253POPC   PO4 3339   3.643   0.981   3.788  0.0943  0.1446  0.3423
  253POPC   GL1 3340   3.659   1.041   4.216 -0.1716 -0.1726  0.0532
  253POPC   GL2 3341   3.817   1.402   4.300 -0.1995  0.1439  0.1468
  253POPC   C1A 3342   3.857   1.023   4.590 -0.3262  0.3903  0.2851
  253POPC   D2A 3343   3.924   1.065   4.977 -0.2301 -0.1924  0.1430
  253POPC   C3A 3344   4.156   1.000   5.445 -0.1305  0.1400  0.1809
  253POPC   C4A 3345   4.371   1.152   5.808 -0.0092 -0.2501 -0.0428
  253POPC   C1B 3346   4.096   1.547   4.594  0.1337 -0.0997  0.2131
  253POPC   C2B 3347   4.096   1.605   4.980 -0.2901  0.2178  0.2424
  253POPC   C3B 3348   3.820   1.385   5.328  0.2625 -0.2424  0.0543
  253POPC   C4B 3349   3.872   1.373   5.816  0.0262 -0.0196  0.1239
  254POPC   NC3 3350   4.412   1.804   3.369 -0.0138  0.1356  0.0668
  254POPC   PO4 3351   3.987   2.053   3.470 -0.1446  0.0547 -0.3143
  254POPC   GL1 3352   4.222   2.067   3.879  0.2601 -0.1302 -0.2422
  254POPC   GL2 3353   4.382   2.286   4.258  0.0698 -0.0624  0.2700
  254POPC   C1A 3354   4.073   1.817   4.236  0.0243 -0.0658 -0.2284
  254POPC   D2A 3355   3.697   1.850   4.541  0.0856 -0.1382  0.0789
  254POPC   C3A 3356   3.588   1.591   4.965  0.0948  0.0382  0.1223
  254POPC   C4A 3357   3.391   1.245   5.137  0.2221  0.0586 -0.3162
  254POPC   C1B 3358   3.854   2.265   4.342  0.1651 -0.1248 -0.0168
  254POPC   C2B 3359   3.672   2.529   4.592 -0.0125 -0.2041 -0.1311
  254POPC   C3B 3360   3.681   2.762   4.921 -0.3137  0.2761 -0.1591
  254POPC   C4B 3361   3.783   2.934   5.392 -0.0995  0.0524  0.3176
  255POPC   NC3 3362   9.098   2.820   3.395 -0.1358  0.1864 -0.0307
  255POPC   PO4 3363   9.075   3.312   3.397  0.0648 -0.0899  0.0794
  255POPC   GL1 3364   9.028   3.196   3.822 -0.2051  0.1777  0.0639
  255POPC   GL2 3365   8.782   3.391   4.010 -0.1512 -0.2269  0.0969
  255POPC   C1A 3366   8.979   3.014   4.208 -0.1210 -0.1090  0.3145
  255POPC   D2A 3367   9.004   2.774   4.600  0.0869 -0.3395 -0.3472
  255POPC   C3A 3368   8.923   3.021   4.977 -0.1870 -0.1569 -0.0716
  255POPC   C4A 3369   9.197   3.315   5.234 -0.2337 -0.1189  0.0662
  255POPC   C1B 3370   8.500   3.190   4.321  0.1994 -0.2164 -0.1737
  255POPC   C2B 3371   8.121   2.960   4.397 -0.2448 -0.0070  0.1568
  255POPC   C3B 3372   7.857   3.049   4.784  0.2195 -0.0003  0.1559
  255POPC   C4B 3373   7.601   3.317   4.950 -0.0589  0.0131  0.0074
  256POPC   NC3 3374   5.396   7.696   3.115  0.0407 -0.0350  0.1702
  256POPC   PO4 3375   5.352   7.458   3.535  0.0572  0.0708  0.0265
  256POPC   GL1 3376   5.417   7.547   4.005  0.0897  0.1150  0.2270
  256POPC   GL2 3377   5.752   7.570   4.086 -0.0445 -0.1431 -0.1767
  256POPC   C1A 3378   5.290   7.554   4.454 -0.0172 -0.0426 -0.0322
  256POPC   D2A 3379   5.046   7.679   4.752 -0.0963  0.0768 -0.3405
  256POPC   C3A 3380   4.586   7.581   4.796  0.1329 -0.1835  0.3077
  256POPC   C4A 3381   4.536   7.161   4.907  0.1951  0.0387 -0.2481
  256POPC   C1B 3382   5.966   7.665   4.498 -0.0578 -0.1824 -0.0765
  256POPC   C2B 3383   6.076   7.889   4.822 -0.0376  0.0366 -0.0886
  256POPC   C3B 3384   6.304   8.083   4.964 -0.0325 -0.1120  0.0417
  256POPC   C4B 3385   6.746   8.070   5.015  0.0785 -0.3370  0.0186
  257POPC   NC3 3386   2.672   9.724   3.750 -0.3437 -0.3946 -0.2659
  257POPC   PO4 3387   3.112   9.641   3.724  0.4178 -0.1717  0.0810
  257POPC   GL1 3388   3.198   9.400   3.921  0.2400 -0.1532 -0.2138
  257POPC   GL2 3389   3.558   9.426   3.910 -0.2289 -0.2333 -0.0315
  257POPC   C1A 3390   3.209   9.140   4.187  0.0098  0.3210 -0.4175
  257POPC   D2A 3391   3.204   8.803   4.483  0.1354  0.1282 -0.0691
  257POPC   C3A 3392   3.075   8.650   4.793  0.3215  0.2114  0.1060
  257POPC   C4A 3393   2.752   8.534   5.118 -0.1914  0.1005  0.2835
  257POPC   C1B 3394   3.762   9.113   4.377  0.0520 -0.0069 -0.0393
  257POPC   C2B 3395   3.666   9.000   4.698  0.1319 -0.2579  0.0556
  257POPC   C3B 3396   3.731   8.789   5.151  0.1242 -0.1272  0.2639
  257POPC   C4B 3397   3.961   8.544   5.331  0.1492  0.1092  0.3002
  258POPC   NC3 3398   6.667   6.086   3.406  0.0901 -0.0455  0.1504
  258POPC   PO4 3399   7.015   6.407   3.299 -0.0541  0.2270 -0.0788
  258POPC   GL1 3400   7.099   6.337   3.728 -0.1685  0.0264  0.3978
  258POPC   GL2 3401   6.832   6.532   3.833  0.2753  0.0774  0.2341
  258POPC   C1A 3402   7.080   6.027   4.159 -0.0766 -0.1789 -0.0659
  258POPC   D2A 3403   6.869   5.963   4.539 -0.2414 -0.1822  0.3791
  258POPC   C3A 3404   6.956   6.044   5.034  0.1803  0.0612  0.3690
  258POPC   C4A 3405   7.058   6.303   5.387  0.1153  0.0845  0.1503
  258POPC   C1B 3406   6.914   6.527   4.272  0.0506 -0.0356 -0.0688
  258POPC   C2B 3407   7.266   6.351   4.613  0.0716 -0.0433  0.1510
  258POPC   C3B 3408   7.464   6.272   4.947 -0.0526  0.0751 -0.0251
  258POPC   C4B 3409   7.630   6.581   5.154 -0.1781 -0.0861 -0.0578
  259POPC   NC3 3410   5.576   1.502   3.823  0.4198  0.0148 -0.3694
  259POPC   PO4 3411   6.003   1.561   3.574  0.1785  0.4056 -0.2039
  259POPC   GL1 3412   6.097   1.691   3.918  0.0597  0.0221 -0.2449
  259POPC   GL2 3413   6.385   1.488   3.983  0.1925 -0.0169 -0.2071
  259POPC   C1A 3414   6.026   1.817   4.326  0.0719 -0.0546 -0.1704
  259POPC   D2A 3415   6.055   2.240   4.550  0.0439  0.0240  0.3383
  259POPC   C3A 3416   6.406   2.300   4.828 -0.2466  0.1963 -0.2144
  259POPC   C4A 3417   6.476   2.152   5.178  0.1516  0.0255  0.0457
  259POPC   C1B 3418   6.285   1.387   4.413  0.3341 -0.2366  0.0317
  259POPC   C2B 3419   6.239   1.150   4.717 -0.0937 -0.0187  0.0293
  259POPC   C3B 3420   6.394   1.247   5.012 -0.1057  0.1089 -0.1758
  259POPC   C4B 3421   6.469   1.374   5.408 -0.0543  0.1834  0.1713
  260POPC   NC3 3422  10.722  10.129   3.580 -0.1111 -0.1598  0.1273
  260POPC   PO4 3423  10.232  10.302   3.563  0.0535 -0.0561  0.1189
  260POPC   GL1 3424  10.365  10.294   4.047  0.3553 -0.1162  0.1502
  260POPC   GL2 3425  10.600  10.182   4.205  0.2211 -0.2519  0.1905
  260POPC   C1A 3426  10.103  10.394   4.384  0.0212  0.2415  0.2401
  260POPC   D2A 3427  10.203  10.522   4.885 -0.3531 -0.1524 -0.1419
  260POPC   C3A 3428   9.852  10.774   5.229 -0.0437 -0.0646 -0.0241
  260POPC   C4A 3429   9.730  10.964   5.583 -0.0175  0.2040 -0.0594
  260POPC   C1B 3430  10.532   9.716   4.390 -0.3015 -0.0069 -0.1247
  260POPC   C2B 3431  10.418   9.662   4.780 -0.1561  0.0574 -0.0090
  260POPC   C3B 3432  10.194   9.681   5.169 -0.1503  0.0701  0.0273
  260POPC   C4B 3433   9.965   9.494   5.397  0.0631  0.1577  0.0146
  261POPC   NC3 3434   0.818   7.040   3.335  0.2920 -0.0516  0.1413
  261POPC   PO4 3435   0.746   6.610   3.308  0.0453 -0.0648  0.1135
  261POPC   GL1 3436   0.791   6.693   3.787  0.0485  0.0826  0.1929
  261POPC   GL2 3437   1.180   6.651   3.785 -0.0629 -0.1117  0.2667
  261POPC   C1A 3438   0.989   6.595   4.254 -0.1805 -0.1468 -0.1266
  261POPC   D2A 3439   1.014   6.402   4.754  0.1676 -0.0121 -0.0327
  261POPC   C3A 3440   1.027   6.751   5.017 -0.1429  0.2231 -0.1088
  261POPC   C4A 3441   1.045   7.102   5.187 -0.1242 -0.0579  0.0062
  261POPC   C1B 3442   1.454   6.786   4.140 -0.0236  0.1069  0.2018
  261POPC   C2B 3443   1.776   7.030   4.377  0.1118  0.1509  0.0609
  261POPC   C3B 3444   2.105   7.172   4.593  0.1041  0.3501 -0.1704
  261POPC   C4B 3445   2.560   7.183   4.394 -0.0639  0.0587  0.1489
  262POPC   NC3 3446   9.802   9.096   3.802  0.0663 -0.1647  0.3335
  262POPC   PO4 3447   9.720   8.773   3.534 -0.1293 -0.2133 -0.1247
  262POPC   GL1 3448   9.788   8.507   3.975 -0.0142  0.2196 -0.0020
  262POPC   GL2 3449   9.890   8.655   4.286 -0.0847 -0.0568 -0.1147
  262POPC   C1A 3450   9.402   8.535   4.343  0.0691 -0.2779 -0.3165
  262POPC   D2A 3451   9.078   8.429   4.420  0.4011  0.3412 -0.3884
  262POPC   C3A 3452   8.886   7.981   4.268  0.2394  0.3549 -0.0601
  262POPC   C4A 3453   8.689   7.533   4.199  0.0372 -0.1208 -0.1324
  262POPC   C1B 3454  10.127   8.865   4.561  0.0602  0.0683 -0.2663
  262POPC   C2B 3455  10.119   9.254   4.950 -0.1094 -0.1185 -0.2144
  262POPC   C3B 3456  10.463   9.290   5.326 -0.0147  0.0287  0.0963
  262POPC   C4B 3457  10.913   9.155   5.490 -0.0197 -0.1835  0.0263
  263POPC   NC3 3458   0.347   6.028   2.946  0.0545 -0.0314 -0.1264
  263POPC   PO4 3459   0.693   6.144   3.171 -0.2717 -0.2074  0.0464
  263POPC   GL1 3460   0.321   6.171   3.434  0.0325  0.1813 -0.0400
  263POPC   GL2 3461   0.543   6.264   3.727  0.3454 -0.1748  0.0702
  263POPC   C1A 3462  -0.044   5.972   3.640 -0.0017  0.0264  0.1299
  263POPC   D2A 3463  -0.317   5.914   3.980 -0.0957 -0.1699 -0.0009
  263POPC   C3A 3464  -0.255   6.131   4.458  0.0632  0.0677 -0.0703
  263POPC   C4A 3465  -0.366   6.197   4.794 -0.2151 -0.0925 -0.1671
  263POPC   C1B 3466   0.689   6.131   4.209  0.3077  0.3738  0.0305
  263POPC   C2B 3467   0.696   6.063   4.635  0.4337  0.0685  0.9943
  263POPC   C3B 3468   0.681   6.237   5.001  0.0952 -0.1987 -0.2835
  263POPC   C4B 3469   0.503   6.768   5.043 -0.2553 -0.0577  0.1454
  264POPC   NC3 3470   2.461   5.344   3.785  0.1708  0.2638  0.0425
  264POPC   PO4 3471   2.225   5.655   3.651 -0.2076  0.0914  0.2087
  264POPC   GL1 3472   2.150   5.749   4.033 -0.1242 -0.0744  0.1793
  264POPC   GL2 3473   2.081   6.057   4.071  0.1852 -0.2020 -0.2177
  264POPC   C1A 3474   2.044   5.525   4.445 -0.3779  0.2839 -0.1905
  264POPC   D2A 3475   2.228   5.581   4.813 -0.0466  0.1049  0.3781
  264POPC   C3A 3476   1.950   5.561   5.171 -0.4972  0.0478 -0.0073
  264POPC   C4A 3477   1.880   5.676   5.541  0.0680 -0.1583  0.1746
  264POPC   C1B 3478   1.914   6.022   4.502 -0.1076  0.0413 -0.2920
  264POPC   C2B 3479   1.923   5.960   4.947  0.0636 -0.0197  0.0045
  264POPC   C3B 3480   2.018   6.281   5.219  0.0610 -0.1604  0.2301
  264POPC   C4B 3481   2.091   6.587   5.495 -0.2527 -0.4021 -0.0405
  265POPC   NC3 3482   9.225   0.872   3.033 -0.0589  0.5016  0.1579
  265POPC   PO4 3483   9.320   0.521   3.294  0.2221  0.0287  0.2294
  265POPC   GL1 3484   9.604   0.604   3.613  0.4179  0.2408 -0.1767
  265POPC   GL2 3485   9.592   0.861   3.813  0.1678  0.0264 -0.2824
  265POPC   C1A 3486   9.953   0.556   3.990  0.0874 -0.2838 -0.1981
  265POPC   D2A 3487  10.203   0.402   4.206 -0.4044 -0.3442 -0.2855
  265POPC   C3A 3488  10.328   0.402   4.625  0.1234 -0.2228  0.0105
  265POPC   C4A 3489  10.355   0.647   5.108 -0.0221  0.3943  0.1168
  265POPC   C1B 3490   9.400   0.596   4.265 -0.1770 -0.2479 -0.0436
  265POPC   C2B 3491   9.315   0.211   4.519  0.1393 -0.0441 -0.3526
  265POPC   C3B 3492   8.876   0.140   4.863 -0.1027 -0.2568 -0.0806
  265POPC   C4B 3493   8.653   0.422   5.053  0.2938 -0.2220 -0.1791
  266POPC   NC3 3494   6.053   9.462   3.001 -0.0816  0.2808  0.1131
  266POPC   PO4 3495   6.232   9.160   3.360  0.2409 -0.0816 -0.0923
  266POPC   GL1 3496   6.371   8.988   3.746 -0.1311 -0.5060 -0.2599
  266POPC   GL2 3497   6.419   9.125   4.005  0.3170 -0.0060  0.0422
  266POPC   C1A 3498   6.777   8.743   3.784  0.0408  0.2665  0.0950
  266POPC   D2A 3499   7.300   8.721   3.957  0.1680  0.1388 -0.0746
  266POPC   C3A 3500   7.164   8.636   4.426  0.1248  0.0712  0.2673
  266POPC   C4A 3501   6.721   8.564   4.615  0.0274  0.1389 -0.0708
  266POPC   C1B 3502   6.439   8.956   4.389  0.1423  0.3921  0.2022
  266POPC   C2B 3503   6.583   9.001   4.877 -0.0021  0.1390 -0.1469
  266POPC   C3B 3504   6.849   8.753   5.133 -0.2177  0.1872  0.0781
  266POPC   C4B 3505   6.982   8.400   5.262  0.1026  0.5304 -0.1202
  267POPC   NC3 3506   0.588   9.125   3.285  0.0532 -0.0250  0.1520
  267POPC   PO4 3507   0.196   9.183   3.349  0.0009 -0.1779  0.0681
  267POPC   GL1 3508  -0.118   9.276   3.732  0.0052  0.0139 -0.1718
  267POPC   GL2 3509  -0.040   9.505   3.997  0.2793 -0.5898  0.0181
  267POPC   C1A 3510  -0.080   8.990   4.108  0.0536  0.0778  0.3060
  267POPC   D2A 3511  -0.342   8.802   4.227 -0.1556  0.1151  0.0023
  267POPC   C3A 3512  -0.369   8.669   4.701 -0.1237 -0.2611 -0.3205
  267POPC   C4A 3513  -0.416   8.263   4.935 -0.1080  0.0921  0.1488
  267POPC   C1B 3514   0.064   9.491   4.351 -0.1509 -0.0984  0.3125
  267POPC   C2B 3515   0.303   9.416   4.700  0.6365 -0.1902  0.2060
  267POPC   C3B 3516   0.679   9.166   4.726 -0.0627  0.2019 -0.3728
  267POPC   C4B 3517   0.992   9.027   4.485 -0.1165  0.2680  0.2042
  268POPC   NC3 3518   9.369   0.147   2.937 -0.0878  0.0085  0.0645
  268POPC   PO4 3519   9.274  -0.268   3.168  0.1856  0.0704 -0.0744
  268POPC   GL1 3520   9.314  -0.294   3.556 -0.0629 -0.1862 -0.1049
  268POPC   GL2 3521   9.373   0.033   3.812 -0.0282  0.2379  0.2297
  268POPC   C1A 3522   9.202  -0.421   3.940  0.1188  0.1565 -0.1147
  268POPC   D2A 3523   9.276  -0.267   4.433 -0.1444  0.0703 -0.0274
  268POPC   C3A 3524   9.043  -0.306   4.780  0.0124  0.2381  0.2357
  268POPC   C4A 3525   8.705  -0.660   4.891 -0.0443 -0.2037  0.3134
  268POPC   C1B 3526   9.097   0.096   4.046 -0.2749 -0.1563  0.0857
  268POPC   C2B 3527   8.835   0.105   4.370  0.1532 -0.2226  0.1727
  268POPC   C3B 3528   8.541   0.315   4.540 -0.1678  0.1729  0.0437
  268POPC   C4B 3529   8.193   0.382   4.807 -0.3828  0.0208 -0.0912
  269POPC   NC3 3530   1.316   8.227   3.244  0.3295  0.0580 -0.1795
  269POPC   PO4 3531   1.422   8.655   3.322 -0.1217  0.1519 -0.0645
  269POPC   GL1 3532   1.297   8.968   3.672 -0.2265 -0.0127  0.0022
  269POPC   GL2 3533   1.446   9.204   3.704  0.1763  0.2627  0.0306
  269POPC   C1A 3534   1.283   8.871   4.071  0.0567  0.3253 -0.4224
  269POPC   D2A 3535   0.857   8.609   4.204 -0.0620 -0.0414 -0.1528
  269POPC   C3A 3536   0.848   8.194   4.403 -0.0590  0.1733 -0.0853
  269POPC   C4A 3537   0.909   7.854   4.638 -0.0414  0.4324  0.2190
  269POPC   C1B 3538   1.701   8.739   3.873  0.1486  0.0254  0.0316
  269POPC   C2B 3539   1.754   8.508   4.255  0.2510  0.2357  0.0108
  269POPC   C3B 3540   2.171   8.379   4.429  0.1851 -0.1715  0.2085
  269POPC   C4B 3541   2.319   8.222   4.793 -0.0640  0.1530 -0.0486
  270POPC   NC3 3542   1.589   4.894   3.841  0.0901 -0.1359 -0.0347
  270POPC   PO4 3543   1.657   4.410   3.870 -0.4230  0.0208 -0.2457
  270POPC   GL1 3544   1.600   4.538   4.323 -0.0069 -0.2403 -0.0762
  270POPC   GL2 3545   1.741   4.787   4.344  0.1724  0.0354  0.1325
  270POPC   C1A 3546   1.666   4.632   4.809  0.0189 -0.2314  0.0491
  270POPC   D2A 3547   1.722   4.825   5.263  0.2313 -0.0276  0.0716
  270POPC   C3A 3548   2.035   5.191   5.482  0.1970  0.2698  0.2877
  270POPC   C4A 3549   2.203   5.511   5.872  0.0286  0.0485 -0.1661
  270POPC   C1B 3550   2.148   4.951   4.593 -0.1090 -0.0123  0.1220
  270POPC   C2B 3551   2.502   4.817   4.741 -0.1501 -0.0594  0.2322
  270POPC   C3B 3552   2.662   4.464   4.767 -0.0233 -0.0971  0.0363
  270POPC   C4B 3553   2.637   4.423   5.192  0.0428 -0.0149 -0.0371
  271POPC   NC3 3554   6.158   2.593   3.651  0.3451 -0.1439  0.1398
  271POPC   PO4 3555   5.724   2.527   3.856  0.1673  0.2751  0.0833
  271POPC   GL1 3556   5.639   2.469   4.300  0.1258  0.0677 -0.1586
  271POPC   GL2 3557   5.702   2.729   4.434  0.2877  0.1693  0.1219
  271POPC   C1A 3558   5.500   2.389   4.764 -0.1073  0.0666  0.1842
  271POPC   D2A 3559   5.068   2.480   4.917  0.0716  0.3053 -0.0899
  271POPC   C3A 3560   4.863   2.904   4.853 -0.1140  0.1180  0.1291
  271POPC   C4A 3561   4.740   3.340   5.052 -0.3030 -0.4372  0.0368
  271POPC   C1B 3562   5.976   2.632   4.830 -0.0811  0.1126  0.0002
  271POPC   C2B 3563   6.101   2.568   5.271 -0.0099 -0.0887 -0.2376
  271POPC   C3B 3564   6.107   2.477   5.642  0.3561  0.3215  0.2292
  271POPC   C4B 3565   6.128   2.348   6.112 -0.2929 -0.0682  0.1778
  272POPC   NC3 3566   1.330   2.962   3.738  0.4362  0.0978  0.1462
  272POPC   PO4 3567   1.346   3.478   3.595 -0.1549 -0.0880  0.0448
  272POPC   GL1 3568   1.466   3.426   3.987 -0.0811 -0.3202 -0.1590
  272POPC   GL2 3569   1.501   3.105   4.214  0.0911  0.1122  0.2393
  272POPC   C1A 3570   1.614   3.582   4.427 -0.0923  0.0887  0.4805
  272POPC   D2A 3571   1.834   3.727   4.704  0.1575 -0.0953 -0.0365
  272POPC   C3A 3572   1.635   3.637   5.086  0.2284  0.2038  0.2042
  272POPC   C4A 3573   1.546   3.340   5.448  0.1333  0.1820  0.0161
  272POPC   C1B 3574   1.441   3.207   4.673 -0.0755  0.0883  0.1706
  272POPC   C2B 3575   1.407   3.059   5.052 -0.2647  0.0343 -0.1762
  272POPC   C3B 3576   1.312   2.860   5.434  0.0630 -0.1623 -0.0624
  272POPC   C4B 3577   1.535   2.888   5.823 -0.0360  0.1289  0.4677
  273POPC   NC3 3578   7.635   0.044   3.530 -0.2092 -0.0775  0.0821
  273POPC   PO4 3579   8.067   0.084   3.534 -0.1126  0.1843  0.4243
  273POPC   GL1 3580   8.007   0.113   3.987 -0.1541  0.0598 -0.0745
  273POPC   GL2 3581   7.663   0.165   4.012  0.0526  0.3047  0.0682
  273POPC   C1A 3582   7.904   0.173   4.435 -0.1835 -0.0044 -0.0826
  273POPC   D2A 3583   7.840   0.072   4.972  0.0788  0.0609 -0.0744
  273POPC   C3A 3584   7.782   0.576   5.120 -0.0627  0.1296  0.1097
  273POPC   C4A 3585   7.699   0.976   5.316 -0.2152  0.1372 -0.2736
  273POPC   C1B 3586   7.496   0.580   4.085 -0.2108  0.0609 -0.0330
  273POPC   C2B 3587   7.495   1.029   4.251  0.0363 -0.0925  0.0204
  273POPC   C3B 3588   7.672   1.170   4.665  0.4442  0.4429  0.1350
  273POPC   C4B 3589   8.008   1.095   4.971 -0.3293 -0.1867 -0.0837
  274POPC   NC3 3590  10.793   2.822   3.599 -0.3042 -0.1681  0.0453
  274POPC   PO4 3591  10.288   2.702   3.597  0.0583 -0.1824  0.1646
  274POPC   GL1 3592  10.363   2.799   4.012 -0.0089 -0.0816  0.1347
  274POPC   GL2 3593  10.375   2.490   4.127  0.0378 -0.3444  0.1156
  274POPC   C1A 3594  10.122   2.971   4.366 -0.1519  0.4210  0.0944
  274POPC   D2A 3595   9.862   2.832   4.694  0.3782 -0.0666 -0.1747
  274POPC   C3A 3596   9.846   2.383   4.871  0.2749 -0.0481  0.3857
  274POPC   C4A 3597   9.647   2.062   5.169  0.2089 -0.1319  0.2021
  274POPC   C1B 3598  10.076   2.422   4.390  0.1610 -0.1685 -0.0015
  274POPC   C2B 3599  10.301   2.517   4.720 -0.0803  0.0091  0.1101
  274POPC   C3B 3600  10.364   2.535   5.272  0.1026  0.1391 -0.0179
  274POPC   C4B 3601  10.465   2.354   5.663 -0.1288 -0.1971 -0.3805
  275POPC   NC3 3602   7.703  10.125   3.478  0.1223 -0.1266  0.1567
  275POPC   PO4 3603   8.105  10.009   3.528  0.1637  0.2897  0.1160
  275POPC   GL1 3604   8.058  10.179   3.977  0.1731 -0.4810  0.2753
  275POPC   GL2 3605   7.802  10.231   4.127  0.0096 -0.0897  0.2482
  275POPC   C1A 3606   8.377  10.336   4.224  0.3410 -0.0696 -0.0657
  275POPC   D2A 3607   8.589  10.157   4.386 -0.0270  0.0555 -0.0432
  275POPC   C3A 3608   8.969  10.223   4.387  0.0528 -0.1191 -0.2027
  275POPC   C4A 3609   9.213  10.004   4.143 -0.0126 -0.0067 -0.0739
  275POPC   C1B 3610   7.831  10.556   4.231  0.0209 -0.0062 -0.1381
  275POPC   C2B 3611   8.000  10.576   4.601  0.1596  0.0913 -0.3374
  275POPC   C3B 3612   8.161  10.371   4.887  0.0438  0.1353 -0.0533
  275POPC   C4B 3613   8.376  10.371   5.250  0.1876 -0.3285 -0.1088
  276POPC   NC3 3614  10.306   6.666   3.316 -0.1066  0.0098  0.1670
  276POPC   PO4 3615  10.528   7.005   3.502 -0.1519 -0.0689  0.1128
  276POPC   GL1 3616  10.302   6.951   3.849  0.1327 -0.0144  0.1218
  276POPC   GL2 3617  10.076   7.285   3.790 -0.5267  0.0465  0.0309
  276POPC   C1A 3618  10.178   6.763   4.279  0.1955  0.1292  0.1463
  276POPC   D2A 3619  10.096   6.319   4.566  0.2490  0.0267  0.3103
  276POPC   C3A 3620   9.864   6.291   4.857  0.0714  0.4800  0.1880
  276POPC   C4A 3621   9.857   6.614   5.065  0.0243 -0.0874 -0.4333
  276POPC   C1B 3622  10.284   7.330   4.224 -0.1501  0.2652  0.4604
  276POPC   C2B 3623  10.455   7.483   4.629  0.0219 -0.0396  0.1711
  276POPC   C3B 3624  10.495   7.273   5.055  0.2843  0.0179  0.2813
  276POPC   C4B 3625  10.687   7.091   5.426  0.0419 -0.0529  0.2388
  277POPC   NC3 3626  10.883   2.019   3.014 -0.1195  0.0314 -0.2827
  277POPC   PO4 3627  10.595   2.028   3.388  0.2186 -0.2703 -0.1857
  277POPC   GL1 3628  10.401   2.144   3.783 -0.0481  0.1186  0.5587
  277POPC   GL2 3629  10.568   1.937   3.837 -0.0495  0.0885  0.1206
  277POPC   C1A 3630  10.079   1.955   4.077 -0.0249  0.1253  0.1847
  277POPC   D2A 3631  10.048   1.856   4.436 -0.0027 -0.0181  0.1086
  277POPC   C3A 3632  10.297   2.032   4.779 -0.1167 -0.1607  0.1887
  277POPC   C4A 3633  10.181   2.133   5.151 -0.1150  0.0294  0.0118
  277POPC   C1B 3634  10.570   2.137   4.373 -0.0953  0.0373 -0.2532
  277POPC   C2B 3635  10.732   2.281   4.727 -0.0464 -0.0392  0.1926
  277POPC   C3B 3636  10.858   2.132   5.123  0.0460  0.0980 -0.2318
  277POPC   C4B 3637  11.184   1.866   5.365  0.1738 -0.1655 -0.1483
  278POPC   NC3 3638   3.009   3.080   3.328 -0.0653  0.0288 -0.0180
  278POPC   PO4 3639   3.332   3.344   3.591  0.0086  0.2905  0.1433
  278POPC   GL1 3640   3.653   3.607   3.804 -0.1989  0.1306 -0.1208
  278POPC   GL2 3641   3.588   3.820   4.091  0.3527 -0.4382 -0.1596
  278POPC   C1A 3642   3.971   3.490   4.213  0.2350  0.0039 -0.2357
  278POPC   D2A 3643   4.178   3.402   4.599 -0.0650  0.0292  0.3034
  278POPC   C3A 3644   3.920   3.237   5.025 -0.1379  0.1048  0.3630
  278POPC   C4A 3645   3.518   3.370   5.192  0.1570 -0.4100  0.1879
  278POPC   C1B 3646   3.906   3.959   4.341  0.1807  0.0632 -0.2869
  278POPC   C2B 3647   4.022   4.105   4.688  0.0783  0.0466  0.1114
  278POPC   C3B 3648   4.190   4.131   5.090 -0.0322 -0.0135 -0.1925
  278POPC   C4B 3649   4.321   4.356   5.445 -0.0714  0.0363  0.2050
  279POPC   NC3 3650   6.904   3.149   3.658 -0.0110 -0.1631  0.1639
  279POPC   PO4 3651   6.893   3.576   3.449 -0.2064  0.2144 -0.1612
  279POPC   GL1 3652   6.928   3.643   3.844 -0.2386 -0.0772  0.0025
  279POPC   GL2 3653   7.074   3.908   3.911  0.1137 -0.2740  0.0709
  279POPC   C1A 3654   7.098   3.464   4.255  0.2233 -0.0334 -0.3945
  279POPC   D2A 3655   6.981   3.787   4.421 -0.0453  0.0575  0.1011
  279POPC   C3A 3656   6.812   4.202   4.290  0.0122 -0.1236 -0.0236
  279POPC   C4A 3657   6.616   4.623   4.340 -0.0470 -0.2673  0.2211
  279POPC   C1B 3658   7.520   3.912   3.874  0.0772  0.3105  0.0663
  279POPC   C2B 3659   7.837   3.921   4.164  0.1280  0.2776  0.1695
  279POPC   C3B 3660   8.145   3.931   4.523 -0.0457 -0.3589 -0.2097
  279POPC   C4B 3661   8.549   3.750   4.440  0.0586  0.3278 -0.4224
  280POPC   NC3 3662   0.953   3.443   3.158  0.2146  0.4618 -0.3136
  280POPC   PO4 3663   0.939   3.105   3.499 -0.1148  0.3757  0.2878
  280POPC   GL1 3664   0.920   3.327   3.860  0.1350 -0.0858 -0.0559
  280POPC   GL2 3665   0.969   3.119   4.072  0.3802 -0.0272  0.1113
  280POPC   C1A 3666   0.605   3.519   4.153  0.2626  0.2015  0.0279
  280POPC   D2A 3667   0.794   3.903   4.377 -0.2373 -0.0746  0.2185
  280POPC   C3A 3668   0.966   4.101   4.680 -0.2715 -0.0219  0.0091
  280POPC   C4A 3669   1.088   4.358   5.102 -0.0326 -0.2200  0.1597
  280POPC   C1B 3670   1.026   3.402   4.371  0.0810 -0.1024 -0.0749
  280POPC   C2B 3671   1.205   3.680   4.683 -0.1348 -0.0440 -0.1131
  280POPC   C3B 3672   1.146   3.668   5.097 -0.2619  0.3913  0.2587
  280POPC   C4B 3673   1.242   3.975   5.341  0.2303  0.0339 -0.1187
  281POPC   NC3 3674   5.892   6.604   3.060  0.1547  0.0134 -0.2456
  281POPC   PO4 3675   6.025   6.192   3.307  0.3546 -0.0108 -0.1664
  281POPC   GL1 3676   6.118   6.242   3.689 -0.2035 -0.3667 -0.4101
  281POPC   GL2 3677   6.374   6.205   3.805 -0.1804  0.0847  0.2303
  281POPC   C1A 3678   6.080   6.107   4.201  0.0940  0.0783  0.1066
  281POPC   D2A 3679   5.790   6.234   4.469 -0.2568  0.2657  0.2383
  281POPC   C3A 3680   6.028   6.434   4.564 -0.0571 -0.1138 -0.5471
  281POPC   C4A 3681   6.328   6.619   4.846 -0.3252 -0.2862  0.1779
  281POPC   C1B 3682   6.584   6.175   4.143  0.3296 -0.1620  0.1904
  281POPC   C2B 3683   6.544   6.306   4.557 -0.3341  0.3945  0.1450
  281POPC   C3B 3684   6.515   6.249   5.080  0.0175 -0.0010 -0.1729
  281POPC   C4B 3685   6.594   6.293   5.542  0.0131 -0.0360  0.0366
  282POPC   NC3 3686   1.901   6.034   3.578  0.1327 -0.2318  0.3246
  282POPC   PO4 3687   1.624   6.406   3.564 -0.5513  0.0833  0.0614
  282POPC   GL1 3688   2.080   6.420   3.761  0.0934 -0.2165  0.0249
  282POPC   GL2 3689   1.870   6.629   3.904 -0.1009 -0.2334  0.0596
  282POPC   C1A 3690   2.460   6.492   3.952  0.0857 -0.2203  0.0725
  282POPC   D2A 3691   2.815   6.649   4.276  0.1893  0.0799  0.0234
  282POPC   C3A 3692   2.899   6.863   4.682  0.1146 -0.1961 -0.5138
  282POPC   C4A 3693   2.877   6.854   5.144 -0.1566  0.1048  0.0063
  282POPC   C1B 3694   1.931   6.562   4.250  0.1121  0.0757  0.0870
  282POPC   C2B 3695   1.892   6.561   4.752  0.1200  0.0767 -0.1023
  282POPC   C3B 3696   1.983   6.831   5.074  0.0350 -0.1978 -0.0122
  282POPC   C4B 3697   2.062   7.323   5.094  0.1016 -0.5223  0.2522
  283POPC   NC3 3698   3.939   0.622   3.701 -0.0522 -0.0274 -0.3380
  283POPC   PO4 3699   4.299   0.614   3.963 -0.2344 -0.0200 -0.1403
  283POPC   GL1 3700   4.665   0.648   4.393  0.1150 -0.1257 -0.2643
  283POPC   GL2 3701   5.045   0.512   4.335 -0.0470 -0.0076 -0.0114
  283POPC   C1A 3702   4.756   0.949   4.849 -0.0045 -0.0136  0.3578
  283POPC   D2A 3703   5.073   1.123   5.088  0.0993 -0.2443  0.0249
  283POPC   C3A 3704   5.309   1.034   5.385  0.0583  0.1263 -0.0849
  283POPC   C4A 3705   5.655   0.771   5.715  0.0084 -0.0356  0.0073
  283POPC   C1B 3706   5.356   0.321   4.594  0.0526 -0.1599  0.4268
  283POPC   C2B 3707   5.551   0.276   4.941 -0.0135 -0.1437  0.0017
  283POPC   C3B 3708   5.417   0.082   5.392 -0.1675 -0.0229 -0.0364
  283POPC   C4B 3709   5.198  -0.154   5.714 -0.1578 -0.1634 -0.2987
  284POPC   NC3 3710   6.509   1.400   3.456  0.0460 -0.4692 -0.1002
  284POPC   PO4 3711   6.702   1.000   3.368 -0.1239 -0.0453 -0.2790
  284POPC   GL1 3712   6.592   0.916   3.799 -0.1136 -0.0160  0.0833
  284POPC   GL2 3713   6.776   0.613   3.915  0.1404 -0.0128 -0.2252
  284POPC   C1A 3714   6.534   1.039   4.127 -0.0092 -0.2168  0.3857
  284POPC   D2A 3715   6.739   1.103   4.616 -0.1172 -0.1352 -0.1697
  284POPC   C3A 3716   7.200   1.260   4.576  0.1996 -0.1440  0.3100
  284POPC   C4A 3717   7.392   1.578   4.933 -0.0846  0.2348 -0.0323
  284POPC   C1B 3718   6.817   0.345   4.222  0.1165 -0.1886 -0.1751
  284POPC   C2B 3719   6.737   0.268   4.701  0.2551  0.0325  0.0439
  284POPC   C3B 3720   6.791  -0.030   5.072  0.0920 -0.4163  0.1580
  284POPC   C4B 3721   6.602  -0.246   5.446 -0.0814 -0.2722  0.1212
  285POPC   NC3 3722   4.128   7.037   3.126  0.0764  0.3969 -0.0338
  285POPC   PO4 3723   4.523   7.031   3.316  0.1177  0.4230  0.4048
  285POPC   GL1 3724   4.575   7.008   3.684  0.0568  0.1000  0.1745
  285POPC   GL2 3725   4.820   7.240   3.651 -0.0912 -0.1569  0.1914
  285POPC   C1A 3726   4.711   6.798   4.118  0.4556 -0.1015 -0.1781
  285POPC   D2A 3727   4.686   6.699   4.596  0.2640  0.0409  0.0322
  285POPC   C3A 3728   4.827   6.735   5.071  0.0380 -0.0781 -0.1802
  285POPC   C4A 3729   5.197   6.591   5.252 -0.0542 -0.4312 -0.1113
  285POPC   C1B 3730   5.059   7.194   4.032  0.2703  0.3287  0.0064
  285POPC   C2B 3731   5.430   7.125   4.292  0.0771  0.2355  0.2270
  285POPC   C3B 3732   5.471   7.197   4.764  0.1817  0.0784 -0.0026
  285POPC   C4B 3733   5.461   7.041   5.143 -0.0405 -0.0118  0.2707
  286POPC   NC3 3734   7.991   7.237   3.434  0.1796  0.1690  0.0256
  286POPC   PO4 3735   8.050   6.849   3.352  0.0880 -0.0772  0.1508
  286POPC   GL1 3736   8.292   6.892   3.685  0.0939  0.0001 -0.0935
  286POPC   GL2 3737   8.260   6.623   3.885 -0.1849 -0.1372  0.2112
  286POPC   C1A 3738   8.248   7.108   4.060  0.2716 -0.1536  0.2638
  286POPC   D2A 3739   8.333   7.052   4.521 -0.0849 -0.0355  0.1247
  286POPC   C3A 3740   8.477   7.431   4.693  0.2928 -0.1329  0.2488
  286POPC   C4A 3741   8.460   7.799   4.616  0.2608 -0.0471 -0.2354
  286POPC   C1B 3742   8.174   6.671   4.286 -0.2177 -0.1867  0.2170
  286POPC   C2B 3743   8.380   6.626   4.727  0.0957 -0.1682 -0.2001
  286POPC   C3B 3744   8.520   6.994   4.980  0.0565  0.2675  0.2470
  286POPC   C4B 3745   8.338   6.952   5.410  0.2745  0.0731  0.2399
  287POPC   NC3 3746   2.206   8.559   3.109  0.0253 -0.2265 -0.1231
  287POPC   PO4 3747   2.355   8.185   3.161 -0.3117  0.2488  0.0554
  287POPC   GL1 3748   2.336   8.166   3.534  0.0822 -0.1257 -0.0612
  287POPC   GL2 3749   2.316   8.490   3.627 -0.0090  0.1622 -0.1432
  287POPC   C1A 3750   2.115   8.148   3.948  0.1658 -0.2197  0.1760
  287POPC   D2A 3751   1.725   7.927   4.150 -0.2468 -0.0421  0.0266
  287POPC   C3A 3752   1.728   7.503   4.516  0.3285  0.0927  0.0106
  287POPC   C4A 3753   1.647   7.278   4.832  0.0989  0.2704  0.1650
  287POPC   C1B 3754   2.344   8.794   3.847  0.0837 -0.1495  0.0871
  287POPC   C2B 3755   2.123   8.830   4.306 -0.0964  0.0980  0.1512
  287POPC   C3B 3756   1.888   8.709   4.706 -0.0214 -0.2245  0.0633
  287POPC   C4B 3757   1.854   8.301   4.990 -0.1217  0.0281 -0.0096
  288POPC   NC3 3758   5.674   8.430   3.876  0.0289 -0.0771 -0.1299
  288POPC   PO4 3759   5.912   8.750   3.771  0.0190 -0.0995 -0.1007
  288POPC   GL1 3760   5.844   8.846   4.135  0.0362 -0.0264 -0.0877
  288POPC   GL2 3761   5.558   8.896   4.079  0.0564  0.1130  0.2041
  288POPC   C1A 3762   5.955   8.745   4.600 -0.0328 -0.0141  0.1376
  288POPC   D2A 3763   5.792   8.464   4.921 -0.0134  0.0434 -0.3345
  288POPC   C3A 3764   5.596   8.732   5.223  0.0231 -0.0777  0.0395
  288POPC   C4A 3765   5.813   8.977   5.545 -0.0976 -0.0149 -0.1459
  288POPC   C1B 3766   5.557   9.055   4.552 -0.2509  0.2230  0.1021
  288POPC   C2B 3767   5.583   9.184   4.923  0.0433 -0.0726 -0.2973
  288POPC   C3B 3768   5.401   9.217   5.368 -0.0222 -0.0232 -0.2749
  288POPC   C4B 3769   5.065   9.523   5.490  0.1643 -0.0212  0.1586
  289POPC   NC3 3770   1.197   0.420   3.942 -0.2918 -0.0742  0.1355
  289POPC   PO4 3771   0.766   0.661   4.029  0.3426 -0.1084 -0.2949
  289POPC   GL1 3772   0.705   0.863   4.516 -0.0386 -0.0968  0.0840
  289POPC   GL2 3773   0.930   1.118   4.407  0.0197  0.3949  0.1695
  289POPC   C1A 3774   0.447   0.916   4.915  0.0401 -0.0094  0.2730
  289POPC   D2A 3775   0.143   0.869   5.163 -0.1083  0.0701 -0.1643
  289POPC   C3A 3776   0.143   0.563   5.329 -0.0741 -0.2763  0.0371
  289POPC   C4A 3777   0.195   0.144   5.142  0.2029 -0.2164  0.0572
  289POPC   C1B 3778   0.888   1.554   4.496 -0.0702 -0.3247 -0.0660
  289POPC   C2B 3779   1.070   1.906   4.642 -0.3968  0.0345  0.1632
  289POPC   C3B 3780   1.249   2.171   4.916  0.2361 -0.0123 -0.1169
  289POPC   C4B 3781   1.259   2.528   5.066  0.0735  0.4155 -0.1341
  290POPC   NC3 3782   9.462   6.732   3.210  0.4051 -0.1167  0.1036
  290POPC   PO4 3783   9.759   6.444   3.285  0.1892 -0.0798 -0.1815
  290POPC   GL1 3784   9.982   6.429   3.748  0.1987  0.0122 -0.2577
  290POPC   GL2 3785   9.973   6.263   4.086  0.0997  0.2438  0.1216
  290POPC   C1A 3786  10.500   6.405   4.039  0.0902  0.0049 -0.1075
  290POPC   D2A 3787  10.875   6.659   4.360 -0.0065 -0.0382  0.2662
  290POPC   C3A 3788  10.946   6.932   4.656  0.1838 -0.1167 -0.1086
  290POPC   C4A 3789  11.121   7.170   5.030  0.2515 -0.2726  0.3057
  290POPC   C1B 3790  10.216   5.919   4.259  0.2331 -0.1631  0.0669
  290POPC   C2B 3791  10.518   5.715   4.619 -0.0389  0.2220 -0.0064
  290POPC   C3B 3792  10.777   5.677   4.943 -0.1475 -0.2502 -0.0366
  290POPC   C4B 3793  11.108   5.467   5.142  0.0424 -0.0713  0.1174
  291POPC   NC3 3794   1.789   9.509   2.907 -0.0696  0.1641  0.1064
  291POPC   PO4 3795   1.958   9.448   3.329 -0.1753  0.2007  0.1431
  291POPC   GL1 3796   2.020   9.211   3.765  0.1972 -0.0939 -0.0462
  291POPC   GL2 3797   2.306   9.314   3.949  0.0085  0.1519  0.1231
  291POPC   C1A 3798   1.735   9.172   4.161 -0.2106  0.2507 -0.2573
  291POPC   D2A 3799   1.574   9.120   4.547 -0.3501  0.0801  0.2651
  291POPC   C3A 3800   1.859   9.294   4.747 -0.5255  0.2847  0.0769
  291POPC   C4A 3801   2.323   9.424   4.766  0.1003 -0.1253 -0.0828
  291POPC   C1B 3802   2.118   9.494   4.206  0.2073  0.2474  0.1318
  291POPC   C2B 3803   1.817   9.659   4.359  0.4506 -0.1630  0.1592
  291POPC   C3B 3804   1.493   9.947   4.302  0.2721  0.1424 -0.1244
  291POPC   C4B 3805   1.135  10.099   4.490 -0.1906 -0.0787  0.1626
  292POPC   NC3 3806   4.614   9.705   3.683 -0.0116 -0.0011 -0.1959
  292POPC   PO4 3807   4.813  10.086   3.605 -0.2724  0.0121 -0.0928
  292POPC   GL1 3808   4.721  10.115   4.099 -0.0260 -0.1480  0.1703
  292POPC   GL2 3809   4.907  10.472   4.169  0.1052  0.2121 -0.0306
  292POPC   C1A 3810   4.904  10.008   4.641 -0.2507  0.2281 -0.0305
  292POPC   D2A 3811   4.930   9.790   5.087 -0.4053  0.0118 -0.1507
  292POPC   C3A 3812   5.230   9.989   5.448 -0.2328  0.0312 -0.0376
  292POPC   C4A 3813   5.578   9.929   5.832 -0.1145  0.2348  0.3398
  292POPC   C1B 3814   5.134  10.764   4.524  0.0805 -0.1938  0.1758
  292POPC   C2B 3815   5.281  10.726   4.914  0.1087 -0.1510  0.0583
  292POPC   C3B 3816   5.330  10.490   5.364  0.1272  0.2077  0.1825
  292POPC   C4B 3817   5.671  10.451   5.682 -0.1062 -0.0817 -0.1492
  293POPC   NC3 3818   8.097   4.024   3.018  0.3584  0.1862  0.0279
  293POPC   PO4 3819   8.251   3.635   3.414  0.1427 -0.1103  0.2799
  293POPC   GL1 3820   8.314   3.730   3.874 -0.0169 -0.0923 -0.3252
  293POPC   GL2 3821   8.548   4.023   3.919 -0.1951 -0.0708  0.2059
  293POPC   C1A 3822   8.177   3.537   4.209 -0.1900  0.0021  0.3492
  293POPC   D2A 3823   8.001   3.468   4.523 -0.0315 -0.1579 -0.0034
  293POPC   C3A 3824   7.850   3.725   4.816 -0.1002  0.2160  0.2121
  293POPC   C4A 3825   7.639   3.828   5.161  0.2912  0.0029  0.0873
  293POPC   C1B 3826   8.548   4.227   4.319  0.0603  0.0681 -0.1541
  293POPC   C2B 3827   8.533   4.135   4.750  0.1574 -0.0884  0.0583
  293POPC   C3B 3828   8.389   3.705   4.886 -0.3578 -0.1405 -0.0352
  293POPC   C4B 3829   8.246   3.311   4.964  0.0075  0.1239  0.1304
  294POPC   NC3 3830   1.102   6.290   3.386 -0.3172  0.0300 -0.1412
  294POPC   PO4 3831   1.350   5.977   3.307 -0.1098 -0.0896  0.2449
  294POPC   GL1 3832   1.477   5.946   3.849  0.0290  0.3130 -0.0887
  294POPC   GL2 3833   1.382   6.262   4.072 -0.0767  0.0708 -0.0371
  294POPC   C1A 3834   1.622   5.765   4.271 -0.0364 -0.4066 -0.0687
  294POPC   D2A 3835   1.588   5.561   4.746 -0.0847  0.1087  0.1631
  294POPC   C3A 3836   1.830   5.188   4.895  0.0454 -0.0264 -0.3754
  294POPC   C4A 3837   2.194   4.909   5.115 -0.1315  0.4391 -0.0499
  294POPC   C1B 3838   1.501   6.361   4.436 -0.0164  0.1591 -0.1260
  294POPC   C2B 3839   1.442   6.314   4.918  0.2036  0.0486  0.0460
  294POPC   C3B 3840   1.102   6.284   5.248 -0.3394 -0.0094 -0.2571
  294POPC   C4B 3841   0.900   5.874   5.474  0.1239  0.1446  0.0928
  295POPC   NC3 3842  10.795   4.830   3.192 -0.0591 -0.0017 -0.2026
  295POPC   PO4 3843  10.845   4.552   3.565  0.0906  0.1039 -0.2760
  295POPC   GL1 3844  10.885   4.670   4.062 -0.3453 -0.0418 -0.4509
  295POPC   GL2 3845  10.689   4.660   4.199  0.2149  0.1352 -0.1309
  295POPC   C1A 3846  11.094   4.862   4.486  0.1005  0.2115  0.3062
  295POPC   D2A 3847  11.280   5.145   4.768  0.2287  0.2476  0.3263
  295POPC   C3A 3848  11.370   4.752   4.912 -0.0927 -0.0785 -0.3081
  295POPC   C4A 3849  11.678   4.712   5.206 -0.2557  0.2281  0.3568
  295POPC   C1B 3850  10.493   4.451   4.612  0.2687 -0.0045 -0.0032
  295POPC   C2B 3851  10.584   4.222   4.996  0.1357 -0.0385  0.0235
  295POPC   C3B 3852  10.892   3.929   5.099 -0.0211 -0.0174 -0.0250
  295POPC   C4B 3853  11.223   3.846   5.420  0.1108 -0.2196 -0.1008
  296POPC   NC3 3854   0.355   9.548   3.080 -0.2990  0.0949 -0.0418
  296POPC   PO4 3855   0.512   9.667   3.436 -0.2143 -0.0554  0.1857
  296POPC   GL1 3856   0.446   9.437   3.745 -0.0610 -0.0410 -0.3851
  296POPC   GL2 3857   0.492   9.595   3.960 -0.0873 -0.0703  0.4953
  296POPC   C1A 3858   0.431   9.174   4.176 -0.1207 -0.1426  0.1604
  296POPC   D2A 3859   0.123   8.973   4.568 -0.1553  0.3055  0.1894
  296POPC   C3A 3860   0.252   9.006   4.961 -0.0803  0.0610 -0.0700
  296POPC   C4A 3861   0.436   9.370   5.213 -0.0723  0.0335  0.4172
  296POPC   C1B 3862   0.511   9.773   4.283 -0.0881  0.0474  0.0698
  296POPC   C2B 3863   0.472   9.920   4.767  0.0308 -0.2423 -0.0852
  296POPC   C3B 3864   0.692  10.240   5.054 -0.2237  0.0649  0.1776
  296POPC   C4B 3865   0.925  10.493   4.942 -0.0925  0.0913  0.0689
  297POPC   NC3 3866   6.956   1.405   3.024 -0.0691  0.0173 -0.0144
  297POPC   PO4 3867   7.092   1.513   3.512 -0.0995 -0.3834  0.0168
  297POPC   GL1 3868   6.854   1.444   3.897 -0.0200 -0.0805  0.0639
  297POPC   GL2 3869   7.026   1.081   4.034  0.5235 -0.2354 -0.3116
  297POPC   C1A 3870   6.767   1.537   4.289  0.0299 -0.2314  0.0777
  297POPC   D2A 3871   6.700   1.572   4.730 -0.1747  0.0424 -0.0439
  297POPC   C3A 3872   6.809   1.665   5.101  0.1925 -0.2604  0.0174
  297POPC   C4A 3873   6.736   1.838   5.494 -0.2885  0.3685  0.0948
  297POPC   C1B 3874   7.022   0.782   4.381 -0.2762 -0.0902 -0.0144
  297POPC   C2B 3875   6.884   0.690   4.841  0.1104 -0.0569  0.0960
  297POPC   C3B 3876   6.761   0.468   5.151  0.0798 -0.0624 -0.2073
  297POPC   C4B 3877   6.981   0.218   5.577 -0.2004  0.1806 -0.0361
  298POPC   NC3 3878   8.589   6.790   3.069 -0.3063  0.2279 -0.0879
  298POPC   PO4 3879   8.990   6.805   3.309 -0.0174 -0.2468 -0.1205
  298POPC   GL1 3880   8.986   6.794   3.773 -0.1593  0.2603 -0.2421
  298POPC   GL2 3881   8.760   7.081   3.852  0.2027  0.2159 -0.1624
  298POPC   C1A 3882   9.270   6.667   4.052  0.2051 -0.2852  0.2902
  298POPC   D2A 3883   9.418   6.921   4.380  0.5249  0.1481  0.0220
  298POPC   C3A 3884   9.469   7.040   4.762 -0.0984  0.0183 -0.1627
  298POPC   C4A 3885   9.307   6.917   5.156 -0.1548 -0.2733 -0.2569
  298POPC   C1B 3886   8.763   6.784   4.203 -0.0681 -0.1942  0.0588
  298POPC   C2B 3887   8.977   7.021   4.623  0.3291  0.0195  0.1961
  298POPC   C3B 3888   8.958   7.517   4.718  0.1241 -0.0443  0.1690
  298POPC   C4B 3889   8.830   7.941   4.930  0.0548  0.0546 -0.0209
  299POPC   NC3 3890   5.633   0.600   3.467 -0.0358 -0.4293 -0.0497
  299POPC   PO4 3891   5.942   0.675   3.771  0.1824  0.0031 -0.6009
  299POPC   GL1 3892   6.253   0.575   4.057 -0.3592  0.0166 -0.0345
  299POPC   GL2 3893   6.300   0.256   4.231 -0.3864  0.2147 -0.0862
  299POPC   C1A 3894   6.401   0.746   4.494  0.0150  0.1585  0.2526
  299POPC   D2A 3895   6.298   0.653   4.899  0.0806 -0.1147  0.1508
  299POPC   C3A 3896   6.180   0.914   5.330 -0.2984 -0.2954  0.1180
  299POPC   C4A 3897   6.209   0.739   5.676 -0.2287  0.0329  0.1299
  299POPC   C1B 3898   6.194  -0.218   4.373  0.0326  0.1527  0.0748
  299POPC   C2B 3899   6.109  -0.560   4.671  0.1877 -0.0358  0.0990
  299POPC   C3B 3900   6.175  -0.583   5.197  0.2106  0.1638  0.0234
  299POPC   C4B 3901   6.247  -0.533   5.690  0.2465  0.0576 -0.1968
  300POPC   NC3 3902   4.096   4.774   3.415 -0.1693  0.1322  0.1234
  300POPC   PO4 3903   4.225   5.135   3.321  0.0090  0.1168  0.0466
  300POPC   GL1 3904   4.158   5.254   3.661 -0.1099  0.0287 -0.0827
  300POPC   GL2 3905   3.950   5.242   4.076 -0.0964  0.1795 -0.2565
  300POPC   C1A 3906   4.408   5.423   4.019 -0.4364 -0.1368 -0.2247
  300POPC   D2A 3907   4.507   5.340   4.491 -0.0362 -0.1225  0.0417
  300POPC   C3A 3908   4.828   5.276   4.734 -0.0870 -0.2823  0.1481
  300POPC   C4A 3909   4.967   5.271   5.079 -0.3433 -0.0667 -0.2203
  300POPC   C1B 3910   3.921   5.309   4.570  0.0798 -0.0399 -0.0921
  300POPC   C2B 3911   3.857   5.468   4.985 -0.0125 -0.0215  0.0871
  300POPC   C3B 3912   3.680   5.538   5.379 -0.1472 -0.4158  0.3163
  300POPC   C4B 3913   3.673   6.005   5.567 -0.1763  0.1239  0.2133
  301POPC   NC3 3914   2.230  10.445   4.144  0.1656 -0.0341  0.1800
  301POPC   PO4 3915   2.276  10.852   4.357 -0.1335  0.1860  0.0858
  301POPC   GL1 3916   2.585  10.857   4.608  0.1117  0.3287 -0.0735
  301POPC   GL2 3917   2.638  10.608   4.876  0.4179 -0.0638  0.1402
  301POPC   C1A 3918   3.049  10.747   4.678  0.0113 -0.1458 -0.2626
  301POPC   D2A 3919   3.432  10.661   4.814  0.2278  0.1443  0.0505
  301POPC   C3A 3920   3.630  10.916   4.966 -0.1776  0.0448  0.3041
  301POPC   C4A 3921   4.120  11.053   5.100 -0.1480  0.2078 -0.1402
  301POPC   C1B 3922   2.919  10.319   5.071  0.1553 -0.1899  0.0113
  301POPC   C2B 3923   3.015   9.991   5.342 -0.1947  0.3994 -0.0990
  301POPC   C3B 3924   3.283   9.647   5.356 -0.1434 -0.1048  0.1398
  301POPC   C4B 3925   3.559   9.241   5.556  0.0156  0.0333 -0.1055
  302POPC   NC3 3926  10.333  10.816   3.557 -0.1390 -0.0233  0.2820
  302POPC   PO4 3927  10.742  11.005   3.571 -0.3330  0.1642  0.3147
  302POPC   GL1 3928  10.629  11.051   4.055  0.1511  0.0336 -0.2638
  302POPC   GL2 3929  10.343  10.867   4.065  0.0224  0.0108 -0.0368
  302POPC   C1A 3930  10.810  11.054   4.427  0.0068  0.3959 -0.0502
  302POPC   D2A 3931  10.988  10.809   4.734 -0.1972  0.0862 -0.1089
  302POPC   C3A 3932  10.710  10.657   5.013  0.0957 -0.1469 -0.1431
  302POPC   C4A 3933  10.509  10.484   5.370 -0.0411 -0.2469  0.1395
  302POPC   C1B 3934  10.194  10.847   4.480 -0.2708 -0.0075 -0.2109
  302POPC   C2B 3935   9.840  10.805   4.665  0.3804  0.0417  0.1597
  302POPC   C3B 3936   9.463  10.884   4.936  0.1786  0.1621 -0.2340
  302POPC   C4B 3937   9.314  10.979   5.260  0.1009 -0.3040 -0.4500
  303POPC   NC3 3938   4.543   8.269   3.523 -0.1362  0.1508  0.0782
  303POPC   PO4 3939   4.448   8.694   3.470  0.0807  0.2606  0.0376
  303POPC   GL1 3940   4.385   8.549   3.908 -0.2357 -0.1041  0.0893
  303POPC   GL2 3941   4.676   8.513   4.044  0.1727 -0.0412  0.0625
  303POPC   C1A 3942   4.112   8.752   4.332  0.0482  0.0164 -0.1974
  303POPC   D2A 3943   4.056   8.596   4.827  0.0688 -0.1456  0.3274
  303POPC   C3A 3944   3.672   8.336   4.964  0.0750 -0.3442  0.1345
  303POPC   C4A 3945   3.262   8.329   5.147  0.0925  0.0440 -0.2559
  303POPC   C1B 3946   4.576   8.528   4.411  0.0122  0.2445 -0.1967
  303POPC   C2B 3947   4.765   8.276   4.720  0.0225  0.2187  0.4585
  303POPC   C3B 3948   4.832   8.014   5.072  0.1979  0.1574 -0.2376
  303POPC   C4B 3949   5.171   7.968   5.394 -0.0621  0.1367 -0.1574
  304POPC   NC3 3950   4.358   5.624   2.914  0.1657 -0.0041 -0.2050
  304POPC   PO4 3951   4.234   6.080   3.116  0.1183  0.1536 -0.0263
  304POPC   GL1 3952   4.272   6.051   3.586  0.2795  0.1988  0.2842
  304POPC   GL2 3953   4.420   6.253   3.776 -0.1333  0.2340  0.2010
  304POPC   C1A 3954   4.098   5.743   3.882 -0.1377 -0.3480 -0.1021
  304POPC   D2A 3955   3.816   5.668   4.231 -0.1610 -0.0917 -0.1312
  304POPC   C3A 3956   3.988   5.837   4.610 -0.0247  0.3086 -0.0842
  304POPC   C4A 3957   4.071   6.019   5.117 -0.0989  0.2233  0.0442
  304POPC   C1B 3958   4.611   5.889   3.989  0.0452 -0.0599 -0.1078
  304POPC   C2B 3959   4.853   5.806   4.232 -0.0003  0.2929 -0.0868
  304POPC   C3B 3960   4.923   5.837   4.594 -0.1857 -0.0411  0.0663
  304POPC   C4B 3961   4.822   5.713   5.011  0.1407  0.0890 -0.0687
  305POPC   NC3 3962   8.088   4.932   2.504  0.0997  0.0157 -0.2043
  305POPC   PO4 3963   8.127   4.929   2.989 -0.0914  0.0544 -0.0176
  305POPC   GL1 3964   8.253   4.880   3.464 -0.0415 -0.1803  0.1598
  305POPC   GL2 3965   8.328   4.601   3.727  0.0933  0.0972  0.0029
  305POPC   C1A 3966   8.316   5.071   3.920 -0.0087 -0.1941 -0.1133
  305POPC   D2A 3967   8.359   5.301   4.320 -0.2129 -0.2165 -0.0552
  305POPC   C3A 3968   8.056   5.616   4.447 -0.0153  0.3398  0.1132
  305POPC   C4A 3969   7.832   5.815   4.809 -0.2210 -0.1655  0.1103
  305POPC   C1B 3970   8.379   4.731   4.328  0.1732  0.0687  0.0535
  305POPC   C2B 3971   8.048   4.967   4.704 -0.3282  0.1605  0.2901
  305POPC   C3B 3972   7.980   5.109   5.043  0.1433 -0.1725  0.3342
  305POPC   C4B 3973   7.698   5.000   5.333  0.1699 -0.1091 -0.0441
  306POPC   NC3 3974   4.602   0.983   3.856 -0.0952  0.2908 -0.0991
  306POPC   PO4 3975   4.565   1.416   3.770 -0.2740  0.2032  0.2194
  306POPC   GL1 3976   4.397   1.284   4.160 -0.0034 -0.0515  0.0150
  306POPC   GL2 3977   4.290   0.972   4.290 -0.0399 -0.0034  0.2919
  306POPC   C1A 3978   4.471   1.284   4.588  0.1468  0.1243  0.0313
  306POPC   D2A 3979   4.432   1.268   5.073 -0.2481 -0.2232 -0.0490
  306POPC   C3A 3980   4.662   1.395   5.487 -0.1964  0.1419 -0.3428
  306POPC   C4A 3981   5.035   1.367   5.703  0.1452  0.0138  0.2884
  306POPC   C1B 3982   4.267   0.821   4.680  0.1243 -0.3516 -0.2633
  306POPC   C2B 3983   4.399   0.744   5.099  0.0975 -0.0727 -0.0464
  306POPC   C3B 3984   4.688   0.865   5.490 -0.0338  0.1583  0.0253
  306POPC   C4B 3985   4.997   0.852   5.779  0.0394  0.0212 -0.1596
  307POPC   NC3 3986   0.399   1.153   2.912 -0.2641 -0.0277  0.0862
  307POPC   PO4 3987   0.478   1.290   3.318 -0.2668  0.2384  0.1522
  307POPC   GL1 3988   0.339   1.340   3.677 -0.2085 -0.0509  0.0277
  307POPC   GL2 3989   0.134   1.223   3.762  0.2719  0.4348 -0.0251
  307POPC   C1A 3990   0.497   1.387   4.146  0.0599  0.3958 -0.2728
  307POPC   D2A 3991   0.297   1.475   4.488 -0.0817  0.0432  0.1372
  307POPC   C3A 3992  -0.082   1.459   4.458 -0.2035  0.1640  0.1521
  307POPC   C4A 3993  -0.355   1.607   4.340 -0.2764 -0.2736  0.0246
  307POPC   C1B 3994  -0.014   1.098   4.046  0.0244  0.2027 -0.1000
  307POPC   C2B 3995  -0.048   0.973   4.436 -0.1258 -0.2289 -0.3279
  307POPC   C3B 3996  -0.330   1.022   4.759 -0.1214 -0.2818  0.0213
  307POPC   C4B 3997  -0.329   1.164   5.194 -0.3231 -0.0737 -0.1614
  308POPC   NC3 3998   4.726   3.452   3.103  0.3086 -0.0800  0.0172
  308POPC   PO4 3999   4.702   3.387   3.601 -0.0404  0.0972 -0.0125
  308POPC   GL1 4000   4.827   3.293   4.054 -0.0736  0.0195 -0.0819
  308POPC   GL2 4001   4.939   3.493   4.193 -0.1021  0.2127  0.0375
  308POPC   C1A 4002   4.570   3.135   4.431 -0.0637 -0.0842 -0.0351
  308POPC   D2A 4003   4.377   3.005   4.878  0.1695  0.2626  0.1506
  308POPC   C3A 4004   4.321   3.010   5.280 -0.0311  0.0984 -0.0157
  308POPC   C4A 4005   4.243   3.064   5.752 -0.0689 -0.0078 -0.2107
  308POPC   C1B 4006   4.725   3.594   4.632  0.1080  0.0079  0.0806
  308POPC   C2B 4007   4.412   3.682   4.919  0.0126  0.0500 -0.0664
  308POPC   C3B 4008   4.234   3.497   5.199 -0.0445 -0.2473 -0.1429
  308POPC   C4B 4009   3.895   3.407   5.492  0.1466  0.0552  0.0534
  309POPC   NC3 4010   4.874   4.179   3.585  0.2629 -0.0576  0.1339
  309POPC   PO4 4011   4.467   4.416   3.613  0.0987 -0.3816  0.3044
  309POPC   GL1 4012   4.532   4.396   4.040  0.2017  0.0552 -0.3405
  309POPC   GL2 4013   4.744   4.579   4.131 -0.1097  0.0965  0.2263
  309POPC   C1A 4014   4.193   4.395   4.283 -0.1562  0.2050 -0.1504
  309POPC   D2A 4015   3.974   4.599   4.641 -0.2583  0.2160  0.1214
  309POPC   C3A 4016   4.081   4.618   5.097 -0.0133  0.0721 -0.0311
  309POPC   C4A 4017   3.983   4.721   5.567 -0.1294  0.0769 -0.0695
  309POPC   C1B 4018   4.674   4.771   4.555  0.0529  0.2003 -0.1521
  309POPC   C2B 4019   4.270   5.005   4.722  0.1366 -0.3317  0.2397
  309POPC   C3B 4020   4.149   5.079   5.093 -0.1066 -0.1251 -0.0648
  309POPC   C4B 4021   4.000   5.232   5.455  0.0762  0.1482  0.0724
  310POPC   NC3 4022   1.127   9.009   3.167  0.0503  0.0961  0.1428
  310POPC   PO4 4023   0.851   8.731   3.408 -0.4538 -0.0095  0.2328
  310POPC   GL1 4024   0.700   8.972   3.761  0.0666  0.1354  0.0500
  310POPC   GL2 4025   0.299   8.927   3.795  0.1979 -0.0561  0.0786
  310POPC   C1A 4026   0.889   9.283   4.044  0.0603 -0.0351 -0.0349
  310POPC   D2A 4027   1.280   9.423   4.270  0.2176 -0.3195 -0.1245
  310POPC   C3A 4028   1.207   9.380   4.757 -0.0414 -0.2279  0.2869
  310POPC   C4A 4029   0.946   9.215   5.156  0.0116 -0.1393 -0.0123
  310POPC   C1B 4030   0.343   8.648   4.086 -0.0371 -0.0284 -0.0915
  310POPC   C2B 4031   0.401   8.573   4.457  0.0372 -0.0892 -0.3119
  310POPC   C3B 4032   0.654   8.525   4.800 -0.1473  0.1619 -0.4129
  310POPC   C4B 4033   0.799   8.237   5.005  0.1635 -0.2755 -0.1832
  311POPC   NC3 4034   7.208   4.967   3.315  0.0002  0.0662  0.1745
  311POPC   PO4 4035   7.230   5.408   3.268  0.0629  0.0099  0.1772
  311POPC   GL1 4036   7.438   5.459   3.660  0.3143 -0.0196  0.1108
  311POPC   GL2 4037   7.521   5.267   3.724 -0.2898 -0.0868  0.0627
  311POPC   C1A 4038   7.306   5.524   4.049 -0.0350 -0.0775 -0.2335
  311POPC   D2A 4039   7.536   5.688   4.337 -0.2501  0.0330  0.1816
  311POPC   C3A 4040   7.340   5.798   4.677 -0.0744 -0.0689  0.0599
  311POPC   C4A 4041   7.390   5.847   5.161 -0.3561  0.0624  0.0418
  311POPC   C1B 4042   7.418   4.949   4.134 -0.1214 -0.3215 -0.1539
  311POPC   C2B 4043   7.156   4.699   4.353 -0.0470 -0.1431 -0.1629
  311POPC   C3B 4044   7.115   4.322   4.663 -0.1675 -0.4103  0.2254
  311POPC   C4B 4045   7.214   3.954   4.898 -0.0395 -0.0430 -0.1528
  312POPC   NC3 4046   4.862  10.633   3.699  0.0855 -0.1663  0.0799
  312POPC   PO4 4047   4.544  10.802   3.894  0.1506 -0.2118  0.2681
  312POPC   GL1 4048   4.439  11.095   4.252  0.2812  0.3559  0.1466
  312POPC   GL2 4049   4.748  10.997   4.388  0.0511  0.0850  0.0721
  312POPC   C1A 4050   4.410  11.140   4.724 -0.1744  0.1046 -0.3619
  312POPC   D2A 4051   4.570  11.198   5.176  0.0439 -0.0065 -0.1243
  312POPC   C3A 4052   4.223  11.347   5.519  0.2979 -0.0571  0.1643
  312POPC   C4A 4053   4.310  11.549   5.832 -0.0662  0.0224  0.0052
  312POPC   C1B 4054   4.908  11.214   4.820 -0.4852  0.1781 -0.1116
  312POPC   C2B 4055   4.906  10.911   5.110 -0.3450 -0.1013 -0.2405
  312POPC   C3B 4056   4.732  10.705   5.428 -0.3090 -0.0342 -0.1922
  312POPC   C4B 4057   4.660  10.750   5.846 -0.1539 -0.0411 -0.2327
  313POPC   NC3 4058   3.772   8.225   3.125  0.3042 -0.0206 -0.0036
  313POPC   PO4 4059   4.117   7.974   3.350  0.1614 -0.0285  0.1632
  313POPC   GL1 4060   4.024   8.051   3.753  0.0621 -0.0201 -0.1005
  313POPC   GL2 4061   4.037   7.674   3.842  0.2897  0.2109 -0.2312
  313POPC   C1A 4062   3.990   8.243   4.198 -0.3288 -0.3285  0.0637
  313POPC   D2A 4063   3.704   8.490   4.471 -0.1611 -0.2841 -0.6177
  313POPC   C3A 4064   3.312   8.187   4.698 -0.0273  0.1487 -0.2903
  313POPC   C4A 4065   3.186   7.835   5.057 -0.2141  0.3505 -0.3198
  313POPC   C1B 4066   3.979   7.682   4.253 -0.0885 -0.0711  0.3397
  313POPC   C2B 4067   4.282   7.494   4.468  0.0187  0.0789 -0.0988
  313POPC   C3B 4068   4.375   7.074   4.403  0.0195  0.4206  0.0556
  313POPC   C4B 4069   4.200   6.705   4.203 -0.2985 -0.0643  0.1131
  314POPC   NC3 4070   5.845   4.161   3.188 -0.1679 -0.0567 -0.0759
  314POPC   PO4 4071   6.099   3.900   3.477  0.2724  0.1746  0.3932
  314POPC   GL1 4072   6.136   3.993   3.881  0.0372 -0.0313 -0.5747
  314POPC   GL2 4073   6.338   4.170   4.044 -0.0676 -0.2754 -0.1318
  314POPC   C1A 4074   6.057   3.802   4.317 -0.2627 -0.2670 -0.2112
  314POPC   D2A 4075   5.830   3.715   4.734  0.1117  0.3891  0.1074
  314POPC   C3A 4076   5.545   3.791   5.005  0.0265 -0.0252  0.0650
  314POPC   C4A 4077   5.217   3.755   5.269 -0.3597 -0.2226 -0.3352
  314POPC   C1B 4078   6.182   4.288   4.466 -0.1266  0.1637  0.2562
  314POPC   C2B 4079   5.889   4.286   4.850  0.0134 -0.0511 -0.3165
  314POPC   C3B 4080   5.779   4.609   5.142  0.0846 -0.1738  0.1888
  314POPC   C4B 4081   5.921   4.975   5.529 -0.1379 -0.0591 -0.0608
  315POPC   NC3 4082   6.417   4.769   3.586 -0.1312 -0.0824  0.0356
  315POPC   PO4 4083   5.970   4.701   3.422  0.2152 -0.3290 -0.0282
  315POPC   GL1 4084   5.976   4.505   3.810 -0.2519  0.1067  0.1096
  315POPC   GL2 4085   6.199   4.685   4.023  0.1748  0.0560 -0.1885
  315POPC   C1A 4086   5.742   4.563   4.338 -0.1526 -0.0656 -0.2826
  315POPC   D2A 4087   5.671   4.753   4.687  0.2240 -0.2805  0.1947
  315POPC   C3A 4088   5.351   5.039   4.698 -0.3508  0.2153  0.2239
  315POPC   C4A 4089   5.423   5.415   4.895 -0.0400  0.1772  0.1833
  315POPC   C1B 4090   6.148   4.881   4.420 -0.0905 -0.0095  0.0869
  315POPC   C2B 4091   6.182   4.662   4.761  0.2848  0.0671  0.3241
  315POPC   C3B 4092   6.369   4.442   5.167 -0.0253 -0.0800 -0.0940
  315POPC   C4B 4093   6.669   4.799   5.380  0.2881  0.1770  0.0649
  316POPC   NC3 4094   5.831  10.688   3.480  0.2051 -0.1418 -0.1361
  316POPC   PO4 4095   5.697  11.050   3.784 -0.0175  0.2924  0.1276
  316POPC   GL1 4096   5.686  10.849   4.136  0.1309  0.1951 -0.0032
  316POPC   GL2 4097   5.761  11.190   4.268  0.1681  0.3458 -0.1097
  316POPC   C1A 4098   5.725  10.722   4.636 -0.1693 -0.0921 -0.2031
  316POPC   D2A 4099   5.729  10.674   5.076  0.2145  0.1151  0.0260
  316POPC   C3A 4100   6.120  10.860   5.244  0.0993 -0.1502  0.1487
  316POPC   C4A 4101   6.351  11.209   5.214  0.1918  0.1772  0.1447
  316POPC   C1B 4102   6.037  11.186   4.629  0.0281 -0.0122 -0.1438
  316POPC   C2B 4103   6.316  10.961   4.756  0.1014 -0.2325 -0.1273
  316POPC   C3B 4104   6.447  10.621   4.915  0.2996 -0.1319  0.0156
  316POPC   C4B 4105   6.701  10.332   4.899 -0.0684 -0.1538  0.0499
  317POPC   NC3 4106   4.987   6.324   3.194  0.0131 -0.1717  0.1657
  317POPC   PO4 4107   5.401   6.431   3.166 -0.1765  0.0437 -0.1463
  317POPC   GL1 4108   5.525   6.119   3.558 -0.0665 -0.0179  0.1793
  317POPC   GL2 4109   5.693   5.885   3.633 -0.2649  0.0616 -0.1330
  317POPC   C1A 4110   5.649   6.291   3.949 -0.1325 -0.1181  0.0670
  317POPC   D2A 4111   5.838   6.567   4.122 -0.1355 -0.1351  0.0907
  317POPC   C3A 4112   5.633   6.750   4.547  0.1614 -0.1264 -0.0730
  317POPC   C4A 4113   5.886   6.790   4.879 -0.1044  0.0947 -0.1124
  317POPC   C1B 4114   5.778   5.770   4.023  0.0004 -0.2341 -0.1007
  317POPC   C2B 4115   5.612   5.732   4.483 -0.2513 -0.0273 -0.0652
  317POPC   C3B 4116   5.376   5.877   4.864 -0.1206  0.0689  0.0107
  317POPC   C4B 4117   5.591   5.865   5.324 -0.0753  0.0650  0.1562
  318POPC   NC3 4118   8.960   8.111   3.161 -0.0823 -0.0201  0.1924
  318POPC   PO4 4119   9.291   8.368   3.443 -0.0701 -0.0766 -0.0554
  318POPC   GL1 4120   9.109   8.017   3.763  0.2024 -0.0045  0.1275
  318POPC   GL2 4121   9.297   8.248   3.918  0.1910  0.0900  0.2659
  318POPC   C1A 4122   9.139   7.645   3.948  0.4014 -0.1283  0.1591
  318POPC   D2A 4123   9.155   7.227   4.084 -0.3416  0.0263 -0.0213
  318POPC   C3A 4124   9.551   7.150   3.978  0.0319  0.0390  0.0159
  318POPC   C4A 4125   9.783   6.760   4.023  0.1537 -0.0331 -0.1267
  318POPC   C1B 4126   9.343   8.022   4.330 -0.2372 -0.0372 -0.2104
  318POPC   C2B 4127   9.323   7.875   4.720  0.0222 -0.1311 -0.2951
  318POPC   C3B 4128   9.621   7.831   4.990 -0.0043 -0.0247  0.1325
  318POPC   C4B 4129   9.993   8.043   5.151  0.0850  0.4942 -0.4764
  319POPC   NC3 4130   3.869   4.406   3.661 -0.0279  0.1455 -0.1497
  319POPC   PO4 4131   3.565   4.556   3.572 -0.4082 -0.0914  0.0968
  319POPC   GL1 4132   3.730   4.818   3.909 -0.2301  0.1436  0.1959
  319POPC   GL2 4133   4.079   4.783   3.944 -0.1052  0.3176  0.0322
  319POPC   C1A 4134   3.662   4.895   4.340 -0.3976  0.0326  0.0225
  319POPC   D2A 4135   3.622   4.923   4.766 -0.3166 -0.3482  0.1650
  319POPC   C3A 4136   3.593   4.457   5.011  0.0858 -0.0322  0.1047
  319POPC   C4A 4137   3.713   4.251   5.251 -0.2417  0.1154 -0.0052
  319POPC   C1B 4138   4.361   4.890   4.188  0.0972  0.1461 -0.1777
  319POPC   C2B 4139   4.742   5.035   4.177  0.4490 -0.3575  0.2730
  319POPC   C3B 4140   5.083   5.265   4.227 -0.1895  0.0800 -0.0266
  319POPC   C4B 4141   5.326   5.501   3.925  0.1023 -0.0287 -0.2410
  320POPC   NC3 4142   5.607   9.579   3.550  0.0269  0.0144 -0.0563
  320POPC   PO4 4143   5.367   9.278   3.718  0.0240 -0.1333  0.1982
  320POPC   GL1 4144   5.548   9.443   4.098  0.0780  0.2649  0.1452
  320POPC   GL2 4145   5.253   9.307   4.328 -0.0223  0.2021 -0.2842
  320POPC   C1A 4146   5.651   9.648   4.399  0.2629  0.5573 -0.2102
  320POPC   D2A 4147   5.743   9.898   4.756  0.0180  0.1979  0.3769
  320POPC   C3A 4148   5.975   9.554   5.106  0.2130 -0.0009  0.1377
  320POPC   C4A 4149   6.439   9.384   5.136 -0.0685  0.0898 -0.1402
  320POPC   C1B 4150   5.308   9.581   4.790 -0.0299 -0.0972 -0.0416
  320POPC   C2B 4151   5.515   9.636   5.191 -0.1835 -0.4086 -0.3918
  320POPC   C3B 4152   5.717   9.540   5.607  0.1354 -0.1997  0.3561
  320POPC   C4B 4153   6.085   9.386   5.741  0.0968  0.1351 -0.1151
  321POPC   NC3 4154   1.724   2.109   3.608  0.0199 -0.0602 -0.2157
  321POPC   PO4 4155   1.543   2.432   3.585  0.0222 -0.0283  0.0730
  321POPC   GL1 4156   1.259   2.330   3.987 -0.1396  0.1176  0.1740
  321POPC   GL2 4157   1.302   2.603   4.111  0.3013 -0.0499  0.0721
  321POPC   C1A 4158   0.985   2.289   4.310 -0.0147  0.0344  0.0110
  321POPC   D2A 4159   0.770   2.378   4.758  0.3157 -0.1217 -0.2020
  321POPC   C3A 4160   0.798   2.762   5.013 -0.0038  0.1063  0.2078
  321POPC   C4A 4161   0.853   3.057   5.272  0.0904  0.2420  0.1124
  321POPC   C1B 4162   1.043   2.739   4.532  0.1142  0.0288 -0.2974
  321POPC   C2B 4163   0.958   3.112   4.752  0.1671  0.2226  0.0856
  321POPC   C3B 4164   0.766   3.475   4.856  0.2004  0.2754  0.3130
  321POPC   C4B 4165   0.494   3.779   4.763 -0.0972  0.1725  0.1934
  322POPC   NC3 4166   9.600   5.023   3.414 -0.1167 -0.3084 -0.2440
  322POPC   PO4 4167   9.829   5.302   3.644  0.3996 -0.3623 -0.1330
  322POPC   GL1 4168   9.584   5.402   3.977 -0.0620  0.2573  0.1709
  322POPC   GL2 4169   9.791   5.618   4.077 -0.1520 -0.0268  0.3954
  322POPC   C1A 4170   9.162   5.237   4.307 -0.0338  0.0867  0.1945
  322POPC   D2A 4171   9.029   5.426   4.786  0.0609  0.0310  0.0640
  322POPC   C3A 4172   8.891   5.106   5.040 -0.1037  0.1665 -0.0823
  322POPC   C4A 4173   9.081   4.683   5.072 -0.0488 -0.2552 -0.1343
  322POPC   C1B 4174   9.789   5.807   4.510  0.0409 -0.1188  0.0323
  322POPC   C2B 4175  10.032   5.847   4.814 -0.4624  0.2344 -0.0010
  322POPC   C3B 4176  10.370   5.844   5.142  0.0000  0.0341 -0.0607
  322POPC   C4B 4177  10.743   6.152   5.210 -0.3373  0.1623  0.1884
  323POPC   NC3 4178   6.906   1.943   3.693  0.0984 -0.2772  0.1996
  323POPC   PO4 4179   7.126   2.057   3.869 -0.4126 -0.3092 -0.3664
  323POPC   GL1 4180   7.186   1.856   4.201 -0.3195  0.0840 -0.2348
  323POPC   GL2 4181   7.294   1.568   4.113  0.3501 -0.3647  0.0925
  323POPC   C1A 4182   6.973   1.931   4.512 -0.3029  0.0648 -0.0101
  323POPC   D2A 4183   6.920   2.166   4.836 -0.2491  0.0904 -0.2388
  323POPC   C3A 4184   7.114   2.575   5.037  0.0879  0.0835  0.0837
  323POPC   C4A 4185   7.306   2.608   5.359  0.0962 -0.1189  0.0428
  323POPC   C1B 4186   7.613   1.705   4.511 -0.0480  0.2118 -0.1296
  323POPC   C2B 4187   8.026   1.915   4.477  0.0776  0.0728 -0.0086
  323POPC   C3B 4188   8.395   1.986   4.717  0.0856  0.4209  0.0692
  323POPC   C4B 4189   8.583   2.380   4.860 -0.0817 -0.0040 -0.3555
  324POPC   NC3 4190  10.342   8.416   3.896  0.2445  0.0844 -0.1868
  324POPC   PO4 4191  10.636   8.392   3.597  0.3506 -0.2349 -0.0747
  324POPC   GL1 4192  10.850   8.371   3.967  0.1342  0.0349  0.0055
  324POPC   GL2 4193  11.158   8.138   4.104  0.1391  0.1341  0.2244
  324POPC   C1A 4194  10.851   8.441   4.389 -0.2721 -0.0311  0.0804
  324POPC   D2A 4195  11.067   8.519   4.851 -0.1328 -0.2228 -0.1514
  324POPC   C3A 4196  11.245   8.422   5.196 -0.2249 -0.2928  0.1173
  324POPC   C4A 4197  11.537   8.689   5.254  0.0697 -0.1665 -0.3995
  324POPC   C1B 4198  11.322   8.010   4.492  0.0546  0.2426 -0.1576
  324POPC   C2B 4199  11.365   7.883   4.939  0.6112  0.1145  0.0733
  324POPC   C3B 4200  11.246   7.571   5.260 -0.0631 -0.1165 -0.0415
  324POPC   C4B 4201  11.084   7.368   5.461  0.1956 -0.0750  0.0525
  325POPC   NC3 4202   3.840   2.482   3.274 -0.5886 -0.2962 -0.3550
  325POPC   PO4 4203   3.861   2.551   3.712  0.0335  0.2246 -0.0258
  325POPC   GL1 4204   4.012   2.687   4.220 -0.1553  0.0668 -0.1056
  325POPC   GL2 4205   4.318   2.767   4.253 -0.0165 -0.0799 -0.1321
  325POPC   C1A 4206   3.970   2.983   4.532 -0.0250  0.0474 -0.1776
  325POPC   D2A 4207   3.564   3.164   4.680 -0.0020  0.0892  0.0504
  325POPC   C3A 4208   3.669   3.610   4.659 -0.3349  0.3829  0.1671
  325POPC   C4A 4209   3.884   3.756   5.001  0.3159  0.2049  0.1549
  325POPC   C1B 4210   4.174   2.571   4.658 -0.1489  0.3301 -0.1532
  325POPC   C2B 4211   4.162   2.561   5.113 -0.0792 -0.0500  0.0823
  325POPC   C3B 4212   4.413   2.194   5.361  0.0842 -0.0165 -0.0907
  325POPC   C4B 4213   4.577   2.044   5.744  0.0400 -0.0347  0.2438
  326POPC   NC3 4214   3.029   5.396   3.744 -0.0096  0.4490 -0.0316
  326POPC   PO4 4215   2.762   5.643   3.495  0.0070 -0.0976  0.2268
  326POPC   GL1 4216   2.756   5.812   3.919 -0.0634 -0.0502 -0.1566
  326POPC   GL2 4217   3.002   5.973   4.014 -0.1186  0.0366  0.0755
  326POPC   C1A 4218   2.535   5.774   4.361 -0.1202  0.0303 -0.0950
  326POPC   D2A 4219   2.620   5.883   4.781  0.2314 -0.1219 -0.1431
  326POPC   C3A 4220   2.409   6.047   5.011  0.2113  0.0482  0.1742
  326POPC   C4A 4221   2.516   6.377   5.295  0.2395  0.0286  0.0860
  326POPC   C1B 4222   2.873   6.179   4.374  0.1165 -0.0040 -0.2068
  326POPC   C2B 4223   2.707   6.390   4.767 -0.1014  0.2006  0.1540
  326POPC   C3B 4224   2.462   6.740   4.922  0.1568 -0.1580 -0.0422
  326POPC   C4B 4225   2.509   7.169   4.942  0.2659  0.1421 -0.0909
  327POPC   NC3 4226   7.510   5.118   2.865  0.0160  0.2615 -0.1184
  327POPC   PO4 4227   7.582   4.701   2.931 -0.0797 -0.1999  0.2634
  327POPC   GL1 4228   7.740   5.009   3.277  0.0424 -0.3374 -0.1190
  327POPC   GL2 4229   7.841   5.402   3.227  0.2502  0.2784 -0.2416
  327POPC   C1A 4230   7.853   4.858   3.749 -0.1889 -0.2599  0.1436
  327POPC   D2A 4231   7.929   4.870   4.158 -0.3249 -0.0538 -0.2945
  327POPC   C3A 4232   7.644   4.624   4.454 -0.0107  0.1162 -0.0498
  327POPC   C4A 4233   7.642   4.261   4.708  0.1575 -0.0810  0.1533
  327POPC   C1B 4234   8.009   5.365   3.616 -0.0471  0.2871  0.0174
  327POPC   C2B 4235   7.863   5.378   4.064 -0.0857  0.2954  0.3209
  327POPC   C3B 4236   7.664   5.232   4.482 -0.3724 -0.0065  0.0302
  327POPC   C4B 4237   7.429   5.343   4.988  0.2705 -0.0476  0.0763
  328POPC   NC3 4238   4.760   0.370   3.894 -0.0161  0.1908 -0.1817
  328POPC   PO4 4239   5.028   0.724   3.778  0.1815 -0.0517 -0.3777
  328POPC   GL1 4240   5.063   0.951   4.101  0.3208  0.1045  0.0729
  328POPC   GL2 4241   5.336   1.102   4.211  0.3319  0.2007  0.3155
  328POPC   C1A 4242   4.890   1.151   4.433 -0.0989 -0.0180 -0.1331
  328POPC   D2A 4243   4.794   1.600   4.788  0.0343 -0.0193  0.1541
  328POPC   C3A 4244   4.579   1.771   5.124  0.0257 -0.1182 -0.4013
  328POPC   C4A 4245   4.288   1.646   5.413  0.1767 -0.1721 -0.1109
  328POPC   C1B 4246   5.351   0.938   4.610 -0.4842 -0.1192 -0.0358
  328POPC   C2B 4247   5.239   0.705   4.882 -0.1294 -0.2061  0.0699
  328POPC   C3B 4248   5.153   0.531   5.255  0.1898 -0.1889  0.1697
  328POPC   C4B 4249   4.944   0.246   5.557 -0.2255 -0.1985  0.1997
  329POPC   NC3 4250   6.745   4.209   3.069  0.1794 -0.3188 -0.0719
  329POPC   PO4 4251   6.834   4.660   3.280  0.0828  0.2867 -0.0177
  329POPC   GL1 4252   7.234   4.453   3.379 -0.2504  0.0418 -0.0097
  329POPC   GL2 4253   7.359   4.697   3.689  0.0214 -0.4029 -0.3051
  329POPC   C1A 4254   7.604   4.295   3.560  0.1475  0.3720 -0.0968
  329POPC   D2A 4255   7.938   4.362   3.842  0.2520 -0.2931 -0.0810
  329POPC   C3A 4256   8.082   4.359   4.202 -0.0443  0.0499  0.0307
  329POPC   C4A 4257   8.133   4.415   4.646  0.2756 -0.1613  0.1884
  329POPC   C1B 4258   7.307   4.374   3.999 -0.0921  0.1969 -0.1943
  329POPC   C2B 4259   7.398   4.106   4.291  0.0953  0.1046  0.0229
  329POPC   C3B 4260   7.482   3.724   4.473 -0.3193 -0.0198  0.1107
  329POPC   C4B 4261   7.532   3.275   4.426 -0.1282  0.1847  0.1403
  330POPC   NC3 4262   5.786   3.538   3.741 -0.0037 -0.2019  0.0167
  330POPC   PO4 4263   5.700   3.063   3.841 -0.2037  0.0691  0.1113
  330POPC   GL1 4264   5.611   3.234   4.153 -0.1449  0.0460 -0.1439
  330POPC   GL2 4265   5.275   3.163   4.436  0.1222  0.1667  0.2775
  330POPC   C1A 4266   5.737   3.262   4.635 -0.0916  0.1632 -0.4293
  330POPC   D2A 4267   5.890   3.182   5.010 -0.0120  0.2235 -0.2652
  330POPC   C3A 4268   6.043   3.526   5.165 -0.1195 -0.2565  0.2526
  330POPC   C4A 4269   6.277   3.959   5.026 -0.0354 -0.1899 -0.3568
  330POPC   C1B 4270   5.186   3.347   4.789  0.1351  0.0839  0.0249
  330POPC   C2B 4271   5.207   3.235   5.192  0.2086  0.2478 -0.0669
  330POPC   C3B 4272   4.842   3.049   5.473 -0.0194  0.1944  0.1155
  330POPC   C4B 4273   4.691   3.128   5.992  0.0954  0.0369 -0.0593
  331POPC   NC3 4274   8.338   9.059   2.941 -0.1844  0.0705  0.0547
  331POPC   PO4 4275   7.999   9.207   3.238  0.2280 -0.2660  0.2439
  331POPC   GL1 4276   7.931   9.397   3.680  0.0017 -0.2227 -0.3493
  331POPC   GL2 4277   7.889   9.705   3.835  0.0711 -0.0572 -0.0303
  331POPC   C1A 4278   7.877   9.370   4.194 -0.1709  0.0644  0.2162
  331POPC   D2A 4279   8.057   9.500   4.563 -0.1786 -0.0702 -0.2154
  331POPC   C3A 4280   8.209   9.348   4.873  0.1044 -0.0223  0.3236
  331POPC   C4A 4281   8.459   9.413   5.205 -0.1539  0.3811 -0.0014
  331POPC   C1B 4282   8.263   9.689   4.112  0.1477  0.0202 -0.2905
  331POPC   C2B 4283   8.519   9.560   4.427 -0.0739  0.0170  0.2320
  331POPC   C3B 4284   8.776   9.257   4.621  0.1469  0.3862  0.0081
  331POPC   C4B 4285   8.942   9.124   5.079 -0.1896  0.0598 -0.0939
  332POPC   NC3 4286  10.018   2.179   3.296  0.1417 -0.2452  0.2051
  332POPC   PO4 4287   9.674   1.930   3.323  0.1165  0.0709  0.2108
  332POPC   GL1 4288   9.743   2.002   3.696  0.0531 -0.0008 -0.4406
  332POPC   GL2 4289   9.689   1.683   3.886  0.3139  0.1404  0.0423
  332POPC   C1A 4290   9.470   2.266   4.026  0.1336 -0.0357 -0.0839
  332POPC   D2A 4291   9.078   2.292   4.276  0.0799 -0.0840  0.1041
  332POPC   C3A 4292   9.027   2.023   4.683 -0.2299 -0.2340  0.0557
  332POPC   C4A 4293   8.818   1.727   4.817 -0.1868  0.1742 -0.2911
  332POPC   C1B 4294   9.784   1.488   4.264  0.3368 -0.3429 -0.0011
  332POPC   C2B 4295   9.932   1.351   4.608  0.2989 -0.0759  0.0866
  332POPC   C3B 4296  10.326   1.490   4.807  0.1299  0.1646 -0.2205
  332POPC   C4B 4297  10.540   1.671   5.161  0.4759  0.1841 -0.1501
  333POPC   NC3 4298   6.044   2.051   3.548  0.1780  0.0305  0.0936
  333POPC   PO4 4299   6.452   1.863   3.646  0.1069  0.0191 -0.0906
  333POPC   GL1 4300   6.562   1.993   4.075 -0.2784 -0.1967  0.0104
  333POPC   GL2 4301   6.577   2.309   3.937 -0.2839  0.2512 -0.0678
  333POPC   C1A 4302   6.484   1.921   4.505  0.1427 -0.0402  0.0080
  333POPC   D2A 4303   6.154   1.651   4.870  0.2837  0.0750 -0.1748
  333POPC   C3A 4304   5.871   1.609   5.199  0.1719  0.1173 -0.0221
  333POPC   C4A 4305   5.552   1.631   5.416 -0.0878  0.0260  0.0157
  333POPC   C1B 4306   6.588   2.468   4.418  0.2314  0.0546 -0.1232
  333POPC   C2B 4307   6.719   2.670   4.782 -0.0875 -0.0866 -0.2067
  333POPC   C3B 4308   6.604   2.604   5.194  0.2735 -0.0724 -0.1006
  333POPC   C4B 4309   6.601   2.417   5.605 -0.3240 -0.1150 -0.1925
  334POPC   NC3 4310   8.372   1.748   3.418 -0.1302  0.2493 -0.2388
  334POPC   PO4 4311   8.357   2.206   3.578 -0.0608 -0.0363 -0.1369
  334POPC   GL1 4312   8.389   2.167   3.944  0.0550 -0.0072  0.2630
  334POPC   GL2 4313   8.515   2.353   4.147 -0.1102 -0.2306 -0.0301
  334POPC   C1A 4314   8.713   1.914   4.279 -0.1549 -0.0681  0.1528
  334POPC   D2A 4315   8.914   1.521   4.290 -0.0507 -0.0329 -0.2254
  334POPC   C3A 4316   9.316   1.704   4.232 -0.2240 -0.3103  0.0623
  334POPC   C4A 4317   9.520   2.040   4.517 -0.2141  0.1424  0.1566
  334POPC   C1B 4318   8.551   2.701   4.394 -0.2409  0.2687 -0.1392
  334POPC   C2B 4319   8.511   2.946   4.758  0.0168  0.0911 -0.1340
  334POPC   C3B 4320   8.539   3.063   5.277 -0.1455 -0.3039  0.1684
  334POPC   C4B 4321   8.777   3.182   5.588 -0.2071 -0.1707  0.1949
  335POPC   NC3 4322   5.401   1.821   3.256  0.0333 -0.1724  0.3323
  335POPC   PO4 4323   5.190   1.789   3.689 -0.1865  0.1238 -0.0689
  335POPC   GL1 4324   5.169   1.660   4.158  0.2048 -0.4443  0.1378
  335POPC   GL2 4325   4.763   1.646   4.187 -0.0669 -0.0519 -0.2627
  335POPC   C1A 4326   5.276   1.552   4.507 -0.1025 -0.0453  0.0981
  335POPC   D2A 4327   5.369   1.561   4.901  0.1926 -0.0492 -0.1723
  335POPC   C3A 4328   5.050   1.705   5.242 -0.1244 -0.0162 -0.0376
  335POPC   C4A 4329   4.909   2.162   5.310 -0.0561  0.2286 -0.0526
  335POPC   C1B 4330   4.533   1.837   4.445  0.0466 -0.1655 -0.1067
  335POPC   C2B 4331   4.197   2.080   4.680  0.1467 -0.0287  0.1554
  335POPC   C3B 4332   3.913   2.086   4.990 -0.2656  0.1582 -0.1461
  335POPC   C4B 4333   3.693   2.325   5.349 -0.1998 -0.3466  0.2911
  336POPC   NC3 4334   0.803  10.904   3.347  0.2178  0.0643 -0.0659
  336POPC   PO4 4335   0.382  10.873   3.615 -0.1395 -0.0069 -0.0694
  336POPC   GL1 4336   0.223  10.568   4.006 -0.2394  0.0781 -0.1499
  336POPC   GL2 4337   0.093  10.673   4.238  0.0453 -0.1606  0.0873
  336POPC   C1A 4338   0.163  10.114   4.231 -0.5286 -0.0064 -0.1761
  336POPC   D2A 4339  -0.023   9.897   4.673  0.2891  0.0517 -0.2601
  336POPC   C3A 4340   0.059  10.041   5.104 -0.1681  0.0739  0.0431
  336POPC   C4A 4341   0.408  10.064   5.432 -0.1633  0.3820 -0.0561
  336POPC   C1B 4342  -0.266  10.556   4.484  0.3953 -0.0693  0.0462
  336POPC   C2B 4343  -0.412  10.174   4.677 -0.0372 -0.0188  0.0002
  336POPC   C3B 4344  -0.448  10.059   5.109  0.0287 -0.0370 -0.0145
  336POPC   C4B 4345  -0.260  10.070   5.646 -0.0586 -0.0491 -0.2270
  337POPC   NC3 4346  10.288   7.658   3.073 -0.2486 -0.0799  0.3311
  337POPC   PO4 4347  10.466   7.540   3.465  0.0794 -0.0073  0.1878
  337POPC   GL1 4348  10.635   7.395   3.879  0.1372 -0.0890  0.0163
  337POPC   GL2 4349  10.932   7.408   3.906  0.3107  0.3672  0.1321
  337POPC   C1A 4350  10.731   7.757   4.253  0.3104 -0.3274 -0.1237
  337POPC   D2A 4351  10.646   7.995   4.557  0.1801 -0.0844 -0.0748
  337POPC   C3A 4352  10.233   8.305   4.508  0.2003 -0.1556 -0.4102
  337POPC   C4A 4353  10.076   8.535   4.937  0.2308  0.3058  0.1943
  337POPC   C1B 4354  11.171   7.239   4.224  0.1918 -0.4591  0.2832
  337POPC   C2B 4355  11.080   7.524   4.512 -0.3092  0.0151 -0.3406
  337POPC   C3B 4356  10.861   7.680   4.857 -0.3189 -0.0830 -0.0670
  337POPC   C4B 4357  10.453   7.867   5.211 -0.0657  0.1423  0.2099
  338POPC   NC3 4358   5.439   8.006   3.527  0.1127 -0.3160  0.2395
  338POPC   PO4 4359   5.028   8.163   3.270 -0.1608 -0.0851  0.1241
  338POPC   GL1 4360   4.946   8.000   3.725 -0.0462 -0.3318  0.1179
  338POPC   GL2 4361   4.883   7.724   3.929 -0.1322 -0.0424 -0.1505
  338POPC   C1A 4362   4.892   8.098   4.228  0.0053 -0.1116  0.3287
  338POPC   D2A 4363   5.249   8.069   4.555  0.1650 -0.3989 -0.2474
  338POPC   C3A 4364   5.314   8.235   4.932  0.0550  0.1837 -0.4997
  338POPC   C4A 4365   5.702   8.050   5.205  0.0338 -0.0261 -0.0505
  338POPC   C1B 4366   4.434   7.847   4.117  0.1053 -0.0245  0.0345
  338POPC   C2B 4367   4.325   7.998   4.521  0.1179  0.1003  0.0664
  338POPC   C3B 4368   4.297   8.098   5.009  0.3758 -0.2610 -0.2378
  338POPC   C4B 4369   4.164   7.952   5.364 -0.0167  0.0210 -0.1014
  339POPC   NC3 4370   7.595   1.591   3.769 -0.1275  0.0701  0.1678
  339POPC   PO4 4371   7.995   1.394   3.472 -0.2288 -0.3542  0.0625
  339POPC   GL1 4372   8.373   1.431   3.862 -0.2248  0.3776 -0.3877
  339POPC   GL2 4373   8.616   1.343   3.860 -0.1541  0.3489 -0.4201
  339POPC   C1A 4374   8.335   1.595   4.232 -0.1117 -0.3696 -0.2217
  339POPC   D2A 4375   8.125   1.431   4.589  0.1640 -0.0526  0.0659
  339POPC   C3A 4376   7.911   1.584   4.907  0.0254 -0.0395 -0.2464
  339POPC   C4A 4377   7.817   1.511   5.338 -0.0586  0.2518 -0.0684
  339POPC   C1B 4378   8.598   1.050   4.232 -0.0170 -0.2148 -0.0879
  339POPC   C2B 4379   8.583   1.278   4.623  0.0705 -0.1431  0.1333
  339POPC   C3B 4380   8.428   1.471   5.003  0.1501  0.4033  0.1602
  339POPC   C4B 4381   8.244   1.829   5.147  0.1499 -0.2034  0.2698
  340POPC   NC3 4382   6.354   9.856   3.319  0.0087  0.1942 -0.0918
  340POPC   PO4 4383   6.695   9.807   3.417 -0.0228  0.1223 -0.0510
  340POPC   GL1 4384   6.866   9.784   3.789  0.1178  0.0050  0.0484
  340POPC   GL2 4385   6.544   9.613   3.973 -0.2858  0.0234 -0.0607
  340POPC   C1A 4386   7.007   9.726   4.126 -0.0556  0.1943  0.1574
  340POPC   D2A 4387   7.336   9.999   4.327 -0.2086 -0.3212  0.0429
  340POPC   C3A 4388   7.696   9.801   4.316 -0.1820 -0.1044  0.1847
  340POPC   C4A 4389   8.089   9.974   4.575  0.1621 -0.4054 -0.0426
  340POPC   C1B 4390   6.634   9.471   4.315  0.0576 -0.2629  0.0635
  340POPC   C2B 4391   6.618   9.488   4.712  0.1105 -0.2746 -0.1683
  340POPC   C3B 4392   6.957   9.357   5.045  0.1176 -0.0284 -0.1839
  340POPC   C4B 4393   7.345   9.344   5.330  0.0627  0.3710 -0.2753
  341POPC   NC3 4394   1.942   4.191   4.211 -0.1932  0.0395 -0.0772
  341POPC   PO4 4395   2.076   4.636   4.021 -0.3002  0.0118  0.0297
  341POPC   GL1 4396   2.234   4.529   4.419  0.0227  0.2893 -0.1744
  341POPC   GL2 4397   2.342   4.191   4.548 -0.1069  0.2485  0.3332
  341POPC   C1A 4398   2.106   4.476   4.858 -0.2940 -0.0810 -0.1613
  341POPC   D2A 4399   2.139   4.407   5.281 -0.3044 -0.0024 -0.2001
  341POPC   C3A 4400   1.972   4.660   5.623  0.0849  0.2020  0.4423
  341POPC   C4A 4401   2.108   4.611   6.030  0.1182  0.0726 -0.2803
  341POPC   C1B 4402   2.224   3.991   4.920  0.0224  0.2148  0.1412
  341POPC   C2B 4403   2.002   3.887   5.289 -0.0905  0.2295 -0.1628
  341POPC   C3B 4404   1.950   3.544   5.639  0.0604  0.0210 -0.0932
  341POPC   C4B 4405   1.997   3.173   5.803  0.0176  0.1208  0.1219
  342W        W 4406   5.023  10.008   1.548 -0.1654  0.1014  0.2354
  343W        W 4407   0.384   6.517  10.166 -0.0790  0.1060 -0.1006
  344W        W 4408   3.336   7.305  10.639  0.2936 -0.0345  0.0595
  345W        W 4409   7.931   7.210   0.046 -0.3594  0.2010  0.0450
  346W        W 4410   4.796  10.362   2.223 -0.1716  0.0457 -0.2710
  347W        W 4411   2.495   2.561   2.585  0.1116 -0.2452 -0.0291
  348W        W 4412   1.410   1.278  10.689  0.0805  0.0753  0.0407
  349W        W 4413  10.146   5.299   1.827 -0.0109 -0.2024  0.3582
  350W        W 4414   2.287  10.266   2.625  0.2174 -0.0701 -0.0813
  351W        W 4415   4.076  10.605   2.662  0.0673 -0.2771 -0.1021
  352W        W 4416   6.788   4.060   8.853 -0.0294 -0.1623 -0.1176
  353W        W 4417   1.942   6.532   2.804  0.1064  0.2917  0.1325
  354W        W 4418   6.916   4.834   7.613  0.1727 -0.1914 -0.2006
  355W        W 4419   9.376   7.749   1.586  0.2646  0.2562 -0.0210
  356W        W 4420   7.095   6.581   9.974 -0.0057  0.0237  0.2487
  357W        W 4421   9.173   4.101   8.930 -0.0961 -0.0936 -0.0814
  358W        W 4422   9.668   4.098   1.659  0.0127 -0.2483 -0.1394
  359W        W 4423   6.505   0.710   0.436  0.1590 -0.0621  0.1653
  360W        W 4424   4.924  10.308   0.927  0.1275 -0.3149 -0.3068
  361W        W 4425   5.660   0.546   7.734  0.2039 -0.0780 -0.2505
  362W        W 4426   0.113   6.040   7.021  0.1735  0.0525 -0.1089
  363W        W 4427   1.999   0.272   2.937  0.1072  0.0845 -0.1927
  364W        W 4428   8.385   8.469  10.464 -0.4255 -0.2778  0.3876
  365W        W 4429   5.612   1.935   7.872 -0.3687 -0.4501  0.1354
  366W        W 4430   9.982   0.234   8.384  0.3835 -0.4006  0.0882
  367W        W 4431   8.179   8.014   2.449 -0.2028 -0.2040 -0.0874
  368W        W 4432   5.270   4.340  10.619  0.0656  0.0707 -0.2130
  369W        W 4433   0.452   9.175   9.703  0.1252  0.1009 -0.2763
  370W        W 4434  10.902   8.405   2.484 -0.0104 -0.0460  0.1519
  371W        W 4435   3.530   1.114   1.723 -0.0828  0.0437 -0.1238
  372W        W 4436   3.327   1.540  10.753 -0.1113  0.1921 -0.4722
  373W        W 4437   6.139   3.444  10.317  0.1739  0.1829 -0.0655
  374W        W 4438   3.628   8.333   1.451 -0.0391 -0.0316  0.1500
  375W        W 4439   2.902   2.150   8.509 -0.0678 -0.1971 -0.1619
  376W        W 4440   1.329   1.288   9.679  0.0978 -0.1206 -0.0221
  377W        W 4441   1.670   8.202   7.380  0.0398  0.0087  0.0945
  378W        W 4442   7.037   7.038   0.526  0.1590 -0.1513 -0.1767
  379W        W 4443   8.337   2.740   3.881  0.0385  0.0237  0.0060
  380W        W 4444   4.831   9.163   2.354 -0.1934 -0.1533 -0.0760
  381W        W 4445  10.361   6.211   1.435  0.0592 -0.0788 -0.1284
  382W        W 4446   0.786   4.266   3.937 -0.0946  0.0638  0.0976
  383W        W 4447   7.942   8.075   8.401 -0.0322  0.1859  0.0382
  384W        W 4448  10.322   2.646   0.528 -0.0388  0.1512  0.0959
  385W        W 4449   3.008  10.374   0.013  0.4795 -0.3682 -0.0505
  386W        W 4450   0.036   6.295   8.865  0.0635  0.1192  0.1048
  387W        W 4451   8.205   4.427   2.193 -0.2838 -0.0460  0.4325
  388W        W 4452   9.648  10.546   7.183 -0.1417 -0.0610  0.2606
  389W        W 4453   9.667   0.650   8.749 -0.1916 -0.0158  0.0502
  390W        W 4454   7.745   8.943   2.283  0.0735  0.0694  0.1024
  391W        W 4455   8.758   6.059   0.293 -0.1883  0.0956  0.0295
  392W        W 4456   9.327   1.152   2.589 -0.1118  0.2742 -0.2799
  393W        W 4457   2.419   0.189   0.239  0.0556  0.0783  0.1858
  394W        W 4458   0.847   7.706   1.856 -0.0481 -0.2332 -0.1080
  395W        W 4459  10.864   7.055   0.319 -0.0043  0.2325  0.1418
  396W        W 4460   5.754   1.424  10.821 -0.1098  0.0745 -0.0132
  397W        W 4461   0.840   7.840  10.642 -0.1825  0.1767  0.3036
  398W        W 4462   0.892   5.206   9.444  0.0940  0.0814  0.2643
  399W        W 4463   0.765   1.961   7.546 -0.0710  0.0813  0.1016
  400W        W 4464   5.589   4.766   8.251 -0.4613 -0.4341  0.1744
  401W        W 4465   1.341  10.018  10.950  0.2179 -0.2018 -0.1632
  402W        W 4466   0.645   2.287   8.330  0.0972 -0.2067  0.1232
  403W        W 4467   0.340   3.480   3.009  0.1778  0.0928  0.1688
  404W        W 4468  10.269   3.240   7.117  0.1278 -0.0204 -0.1879
  405W        W 4469   4.048   0.068   2.198  0.2363 -0.1259  0.0916
  406W        W 4470   9.904   2.175   8.883  0.0725 -0.0486 -0.0528
  407W        W 4471   4.263   2.855  10.701  0.1093  0.4527  0.3857
  408W        W 4472   3.384   4.814   0.839  0.1679 -0.1500  0.2055
  409W        W 4473   7.512   5.256   1.024  0.2607  0.0651  0.2676
  410W        W 4474   1.565   3.554   7.999  0.2543  0.0303  0.0443
  411W        W 4475   2.518   8.817  10.768 -0.0051  0.0262 -0.1424
  412W        W 4476   7.279   1.810   2.980  0.0799  0.0445  0.0225
  413W        W 4477   9.583   3.911  11.030  0.0162 -0.2478 -0.2233
  414W        W 4478   9.518   3.538   7.920 -0.2523 -0.1619 -0.0756
  415W        W 4479   4.308   0.102   1.025  0.2733  0.1182 -0.2347
  416W        W 4480   2.348   9.973   7.768  0.1047  0.0897 -0.0030
  417W        W 4481   0.791   0.944   0.352  0.1020  0.3712 -0.0858
  418W        W 4482  10.666   7.080   7.928  0.0713 -0.1565 -0.0553
  419W        W 4483  10.694   5.634   7.454 -0.1638 -0.1159  0.0145
  420W        W 4484   1.344   7.741   9.427 -0.0924 -0.0601  0.2663
  421W        W 4485   1.658   2.837   1.496 -0.0495  0.0785  0.2789
  422W        W 4486   3.208   6.293   1.683  0.0618  0.2570  0.2514
  423W        W 4487   2.759   9.237   3.758 -0.0872  0.3393  0.1552
  424W        W 4488   2.655   9.647   7.879  0.2901  0.3066 -0.2349
  425W        W 4489  10.675   6.918   2.445 -0.0262 -0.3455  0.0104
  426W        W 4490   3.498   3.415   2.869 -0.0217 -0.1302  0.2618
  427W        W 4491   1.571   1.732  10.907 -0.0800  0.1433 -0.2166
  428W        W 4492   9.379   7.459   0.227 -0.2263  0.0911 -0.0265
  429W        W 4493   8.347   1.300   8.676 -0.0711 -0.3547  0.0964
  430W        W 4494   4.839   4.849   9.989  0.2303 -0.4612 -0.2609
  431W        W 4495   2.258   5.263   9.370 -0.3704 -0.0802  0.2115
  432W        W 4496   1.801   1.895   1.640  0.3849 -0.0626  0.0565
  433W        W 4497   5.638  10.770   2.175  0.2066 -0.1230  0.1115
  434W        W 4498   1.879   3.539   3.387  0.3437 -0.1688 -0.1276
  435W        W 4499   5.789   9.077   1.587  0.1517 -0.1167 -0.1368
  436W        W 4500  10.314   2.790   9.110 -0.3553 -0.0460 -0.0036
  437W        W 4501   7.290   8.049   0.825  0.1763 -0.1406  0.2973
  438W        W 4502   6.428   3.662   7.325 -0.2066  0.2521 -0.2152
  439W        W 4503   0.435   4.365   1.757  0.1007  0.1743  0.0016
  440W        W 4504   8.709   7.896   2.420 -0.1642 -0.2738 -0.0665
  441W        W 4505   0.718   2.593   1.962 -0.1719  0.0793 -0.0383
  442W        W 4506   1.275   6.263   1.116 -0.1221 -0.2195 -0.2911
  443W        W 4507   5.625   6.503   2.603 -0.1671  0.1272 -0.1263
  444W        W 4508   7.956   5.340   2.739 -0.1840 -0.2630 -0.1601
  445W        W 4509   8.917   3.521   8.956 -0.1447  0.2555  0.0737
  446W        W 4510   6.663   8.323   3.552 -0.2733 -0.0191 -0.2984
  447W        W 4511   0.204   2.734   1.363 -0.0723  0.0913 -0.0954
  448W        W 4512   6.662   9.480   2.509 -0.1387  0.0195 -0.3453
  449W        W 4513   0.412   9.299   0.810 -0.0635 -0.1225  0.0840
  450W        W 4514   3.572   2.125   0.220  0.0395  0.2721  0.0533
  451W        W 4515   3.997   0.828  10.497  0.0925 -0.1455  0.3696
  452W        W 4516   6.236   1.657  10.845  0.1593 -0.1881  0.0420
  453W        W 4517   2.390   1.545   9.023  0.0517 -0.1127  0.2321
  454W        W 4518   8.259   7.793   1.014  0.1251  0.1482  0.1915
  455W        W 4519   3.108   2.838   3.720  0.1066  0.0311  0.0905
  456W        W 4520   5.867   7.893   7.874 -0.0180 -0.0182  0.0680
  457W        W 4521   1.684   1.403   2.341 -0.2300  0.2964  0.2414
  458W        W 4522  10.603  10.128   8.762  0.3861 -0.0570 -0.2345
  459W        W 4523   7.788   2.221   2.590 -0.0314  0.0647  0.0452
  460W        W 4524   4.350   1.456   8.246 -0.4023  0.0507 -0.2671
  461W        W 4525   3.523   3.132   2.468 -0.1241  0.0951 -0.0624
  462W        W 4526   7.170   0.854   3.634 -0.3590 -0.0937 -0.1359
  463W        W 4527   3.136   6.389   2.566  0.2155 -0.1399  0.2918
  464W        W 4528   7.227   7.920   9.100 -0.1250 -0.1425  0.0602
  465W        W 4529   2.783   6.700   1.437 -0.4253 -0.2423 -0.0386
  466W        W 4530  10.722   5.270  10.794  0.0407  0.1644 -0.1021
  467W        W 4531   1.523   3.645   8.467  0.1590  0.0586  0.1814
  468W        W 4532   8.286   3.369  10.722  0.1415  0.0289  0.2211
  469W        W 4533   1.480   6.968   1.289 -0.2805  0.0151 -0.0797
  470W        W 4534   9.354   3.313   1.978 -0.0629 -0.0301 -0.0677
  471W        W 4535   4.263   8.809   7.468  0.2876  0.0529  0.0856
  472W        W 4536   4.978   0.773   1.378 -0.0910  0.1434  0.0067
  473W        W 4537   9.855  10.754   0.282 -0.4560  0.1983 -0.0561
  474W        W 4538   5.228   3.236   3.809  0.1770 -0.1690  0.0302
  475W        W 4539   9.487   2.240   0.775 -0.0868 -0.0649 -0.0635
  476W        W 4540   1.624   2.605   8.369 -0.5854 -0.1335  0.0744
  477W        W 4541   4.536   1.886   0.896 -0.0680 -0.1314 -0.0956
  478W        W 4542   5.628   4.672   2.556 -0.1063  0.1936  0.2712
  479W        W 4543   2.436   5.695   9.770 -0.0317  0.2052  0.5128
  480W        W 4544   1.066   6.679   9.514 -0.2637  0.0884  0.0710
  481W        W 4545   2.824   2.866   9.014  0.1641 -0.0809 -0.3575
  482W        W 4546   8.573   6.548   3.494  0.1775 -0.2189  0.2542
  483W        W 4547   7.668   7.810   8.121 -0.1389 -0.1548  0.1063
  484W        W 4548   3.187   0.909   8.920 -0.0378  0.3278 -0.2726
  485W        W 4549   6.130   7.326   0.875 -0.1648  0.0600 -0.0886
  486W        W 4550   4.517   6.449   9.871  0.2768  0.3490  0.0555
  487W        W 4551   2.252   9.600   1.339 -0.1757  0.0604 -0.2910
  488W        W 4552  10.897  10.058   0.556  0.0940 -0.1188 -0.2443
  489W        W 4553   5.380   6.883   7.852 -0.2249  0.2202 -0.0428
  490W        W 4554   4.531   3.341   0.971 -0.1008 -0.1725 -0.3634
  491W        W 4555   4.350   2.131   2.910  0.0793  0.0154  0.3258
  492W        W 4556   0.808   1.246   3.764  0.1785  0.0529 -0.0287
  493W        W 4557   3.938   4.426  10.318  0.1198  0.0289  0.2169
  494W        W 4558   5.763   9.142   3.301  0.0132  0.4202 -0.1792
  495W        W 4559   7.567   0.820   9.370 -0.0282 -0.3233 -0.2519
  496W        W 4560   2.349   6.254   9.608 -0.4127  0.0631  0.1277
  497W        W 4561   3.740   4.404   0.507 -0.1252 -0.1879 -0.0286
  498W        W 4562   0.912   3.857   7.210  0.0885  0.1991  0.0706
  499W        W 4563   9.423   7.432   8.508  0.1130 -0.0776 -0.1199
  500W        W 4564   7.803   3.103   8.827  0.0603  0.3545  0.0328
  501W        W 4565   1.476   2.944   2.036 -0.1187  0.2043  0.0051
  502W        W 4566   1.273   5.381   8.461  0.4543 -0.0183 -0.3115
  503W        W 4567   3.484   4.807   2.222 -0.1333 -0.0190  0.0609
  504W        W 4568   9.011   3.731   0.076  0.1565  0.0569 -0.2438
  505W        W 4569   7.466   2.527   9.833  0.0589 -0.1655 -0.1745
  506W        W 4570   6.868   2.044   2.733  0.4663 -0.0742 -0.2101
  507W        W 4571   1.622  10.288   8.255 -0.2067 -0.0296  0.0310
  508W        W 4572   7.349   2.511   2.116  0.1093 -0.0626 -0.2650
  509W        W 4573   7.293   8.674   7.924  0.0148 -0.0532  0.1363
  510W        W 4574   7.703   8.054   0.111 -0.0384 -0.1850  0.4315
  511W        W 4575   3.636   1.603   1.708  0.1020  0.1556  0.2275
  512W        W 4576   2.352   6.624   7.695 -0.1013  0.0973  0.0529
  513W        W 4577   8.556   7.789   7.560 -0.2331 -0.1005  0.0275
  514W        W 4578   9.024   7.277  10.712  0.0551 -0.2442  0.1871
  515W        W 4579   2.905   4.333   1.877 -0.0768  0.0681  0.1018
  516W        W 4580   0.753   1.465  10.437 -0.0420  0.3130  0.0069
  517W        W 4581   7.651  10.225   2.984 -0.1347 -0.1207 -0.1798
  518W        W 4582   3.373   2.690   0.248  0.0563  0.0582  0.0787
  519W        W 4583   1.051  10.291   9.823 -0.0400  0.1049  0.0076
  520W        W 4584   2.809   4.712   3.251  0.1895 -0.0143 -0.1498
  521W        W 4585   7.556   7.608  10.950 -0.2794  0.1712 -0.2933
  522W        W 4586   7.241   1.237   8.653  0.1204 -0.1385 -0.1898
  523W        W 4587   5.080   6.867   3.432 -0.0998  0.1943 -0.2443
  524W        W 4588   4.897   3.905   8.252 -0.1913  0.1464  0.2232
  525W        W 4589   3.879   3.584   9.783  0.0140 -0.3823 -0.0078
  526W        W 4590   4.245   6.292   1.724 -0.1525  0.1309 -0.0479
  527W        W 4591   9.511   1.964  10.871  0.0739 -0.2550  0.2512
  528W        W 4592  10.006  10.060   1.558 -0.0180 -0.2209  0.2937
  529W        W 4593   9.882   8.097   7.397  0.2824 -0.3229  0.0644
  530W        W 4594   9.343   6.250   1.342 -0.0472 -0.1097 -0.1017
  531W        W 4595  10.902  10.583   7.476 -0.1145 -0.3182 -0.1354
  532W        W 4596   7.320   6.558  10.686  0.0741  0.3794 -0.1677
  533W        W 4597   4.605   8.145   8.108  0.0467 -0.0476  0.0280
  534W        W 4598   2.827   6.915   8.976 -0.1170  0.1423  0.1796
  535W        W 4599   8.861   7.390   2.334  0.1648  0.3120  0.1032
  536W        W 4600   0.211   2.463   8.636 -0.1985  0.3800  0.2861
  537W        W 4601   6.330   9.696   9.709 -0.3030 -0.0728 -0.1467
  538W        W 4602   2.811   9.055   2.056  0.0842  0.1058  0.4526
  539W        W 4603   1.660   6.058   7.197 -0.3635 -0.3063 -0.0436
  540W        W 4604   1.885  10.200   0.192 -0.1670 -0.0101  0.0295
  541W        W 4605   4.229   0.689   2.868  0.1216  0.0112  0.0247
  542W        W 4606   6.581   6.555   9.526 -0.4285 -0.1520  0.0935
  543W        W 4607   3.996   5.265   9.317  0.2559  0.1665  0.0311
  544W        W 4608   3.657   9.786   2.466 -0.0988 -0.0794  0.0103
  545W        W 4609   9.763   1.045   9.493 -0.0254  0.1052  0.3284
  546W        W 4610   1.529   4.164   9.871  0.3248 -0.0143 -0.1618
  547W        W 4611   3.442   3.928   9.698 -0.0530 -0.0712 -0.3729
  548W        W 4612   4.921   6.718   9.683  0.1964  0.1354 -0.5734
  549W        W 4613   7.200   4.882   0.536 -0.0120  0.2030 -0.0712
  550W        W 4614   2.937   9.949   8.616  0.0961 -0.1396 -0.2600
  551W        W 4615  10.549   6.427   2.410 -0.0058  0.2174 -0.1787
  552W        W 4616   3.332  10.093   3.199  0.1181  0.0149 -0.1146
  553W        W 4617  10.839   8.855   8.161  0.0807 -0.0889 -0.2577
  554W        W 4618   4.653  10.853   0.177 -0.3553  0.2841 -0.1317
  555W        W 4619   6.056   7.368  10.767  0.0469  0.3221 -0.4730
  556W        W 4620   4.177   7.583   0.786  0.0960 -0.2443 -0.0155
  557W        W 4621   5.005   5.652   9.468  0.0366  0.2340 -0.1585
  558W        W 4622   1.569   8.684   7.309  0.0097 -0.3486 -0.1355
  559W        W 4623   4.612   5.908   1.959 -0.0415  0.1652 -0.0133
  560W        W 4624   0.488   0.616   7.592  0.3693 -0.0073  0.2930
  561W        W 4625   3.555   2.222   1.164 -0.0286 -0.1868  0.1114
  562W        W 4626   1.167   3.387  10.505 -0.4034 -0.0058 -0.0141
  563W        W 4627  10.619   6.643   2.920  0.1205  0.0624  0.1264
  564W        W 4628   8.033   9.374   7.714  0.1307 -0.0885 -0.2899
  565W        W 4629   7.487   5.494   7.021  0.0158  0.0324  0.0621
  566W        W 4630   2.189   1.348   2.170  0.3474 -0.1392 -0.0014
  567W        W 4631   8.527   2.321   8.477  0.1187  0.1941  0.1353
  568W        W 4632   3.062   1.002   9.953  0.1596  0.0666 -0.1071
  569W        W 4633   7.213   0.235   8.323 -0.1321 -0.4074  0.4380
  570W        W 4634  10.497   0.311   8.582 -0.1814 -0.2151  0.2726
  571W        W 4635   2.010   1.289   8.334 -0.2281 -0.2388  0.3071
  572W        W 4636   1.522   7.929   1.884 -0.2227  0.3571  0.0800
  573W        W 4637   6.838   5.914   1.179  0.0366  0.0388  0.0761
  574W        W 4638   3.751   9.905   3.027 -0.0666  0.1112 -0.3938
  575W        W 4639   6.197  10.270   2.518  0.3097 -0.0707  0.2099
  576W        W 4640   6.952  10.333   0.595 -0.1177 -0.1116 -0.1550
  577W        W 4641   6.885   3.340   9.695  0.2313 -0.0278 -0.0531
  578W        W 4642   1.174   7.934   2.265 -0.1311 -0.2913  0.1366
  579W        W 4643   0.321   7.721  10.673  0.0553  0.1729 -0.1287
  580W        W 4644   8.477   5.911   9.516  0.1185 -0.2232  0.2762
  581W        W 4645   0.837   6.827   0.672 -0.5738  0.3249 -0.1325
  582W        W 4646   0.927   3.722   8.335 -0.0708 -0.1247  0.2180
  583W        W 4647   6.729   1.014   2.111  0.1081  0.1287  0.2948
  584W        W 4648   0.755   0.020   1.106 -0.2134 -0.0926  0.2448
  585W        W 4649   5.071   4.549   1.291 -0.1878 -0.0821 -0.0062
  586W        W 4650   8.972   4.659   8.980  0.1543 -0.1077 -0.0869
  587W        W 4651   3.900   4.024   0.192 -0.3629  0.0745  0.0751
  588W        W 4652   1.472   4.639   0.028 -0.2697  0.0572  0.2458
  589W        W 4653  10.099   3.816  10.047 -0.0620  0.0208 -0.2582
  590W        W 4654  10.288   8.238   1.097 -0.2409 -0.3928  0.0885
  591W        W 4655   7.021   4.987   1.992  0.1048 -0.1431  0.0618
  592W        W 4656   4.597  10.248   1.325 -0.1706 -0.2903 -0.2672
  593W        W 4657   2.516   9.270   2.373  0.1702 -0.1376 -0.1698
  594W        W 4658   3.288   8.957   3.011 -0.0540  0.1918 -0.2023
  595W        W 4659   3.604   9.513   0.378  0.0411  0.3144  0.1610
  596W        W 4660   3.988   6.560   0.813  0.1519  0.0698 -0.3013
  597W        W 4661   2.482   4.096   0.212  0.1740 -0.2229  0.1224
  598W        W 4662   9.198   4.227   8.154 -0.1875 -0.5386  0.3373
  599W        W 4663   0.057   7.050   0.793  0.1845 -0.2051  0.0103
  600W        W 4664   6.811   3.227   9.095  0.4491  0.1770  0.0429
  601W        W 4665   7.522   4.336   2.488 -0.0090  0.0147 -0.0373
  602W        W 4666  10.630   6.525   7.704 -0.0336 -0.1894  0.1949
  603W        W 4667   6.282   4.842   0.698  0.0789  0.2428  0.1834
  604W        W 4668   2.443   4.638   0.098 -0.0514 -0.1356 -0.0446
  605W        W 4669  10.065   2.390  10.114 -0.5049  0.3097 -0.1026
  606W        W 4670   6.490   2.373   1.806 -0.0390  0.3301 -0.0015
  607W        W 4671   9.852   7.314   2.513  0.1890 -0.3273 -0.1033
  608W        W 4672   9.307   9.131   7.798  0.3680  0.2090  0.0490
  609W        W 4673   6.295   9.399  10.189  0.1429 -0.2469 -0.1839
  610W        W 4674   2.780   3.478   8.190 -0.2907  0.1282  0.2492
  611W        W 4675   9.960   4.928   9.966  0.5436 -0.4518 -0.0636
  612W        W 4676   0.157   9.407   1.931 -0.1288  0.0463 -0.0438
  613W        W 4677   7.049   1.860  11.013 -0.0044  0.0330 -0.2841
  614W        W 4678   1.483   0.428   3.050 -0.2131 -0.2295  0.2114
  615W        W 4679   7.250   0.391   3.755  0.2992 -0.0862 -0.1738
  616W        W 4680  10.450   1.790   0.161  0.2710  0.3364 -0.0009
  617W        W 4681   6.004   5.122   2.149 -0.1458 -0.1474 -0.0937
  618W        W 4682   3.345   7.390   8.332  0.0203 -0.1188 -0.1061
  619W        W 4683   3.423   8.003   9.046 -0.1639 -0.0639  0.0453
  620W        W 4684   2.890   7.189   1.600  0.0937 -0.3816  0.1114
  621W        W 4685   1.964   6.262   9.957  0.2046  0.0115 -0.0892
  622W        W 4686   7.036   8.554   0.642 -0.3359 -0.1295  0.1384
  623W        W 4687   8.790   0.551   0.192 -0.0728 -0.2015 -0.2915
  624W        W 4688   8.847   9.620   8.259 -0.3008  0.1520  0.1017
  625W        W 4689  10.142   8.083   8.367  0.1780 -0.0113 -0.0759
  626W        W 4690   7.309   6.894  10.282  0.1191  0.2573 -0.0791
  627W        W 4691   7.151   4.519   2.907  0.1455 -0.2518 -0.1254
  628W        W 4692   6.866   5.361   2.259  0.4344 -0.2791 -0.1819
  629W        W 4693   8.865   0.812   0.843 -0.1536  0.1257  0.3359
  630W        W 4694   1.550   3.310   9.179 -0.0231 -0.1587 -0.1895
  631W        W 4695  10.512  10.780  10.242  0.2275 -0.2729  0.0016
  632W        W 4696   5.754   2.959   1.978  0.0850  0.0730  0.2157
  633W        W 4697   2.020   0.106   9.973 -0.0987 -0.0957 -0.0557
  634W        W 4698   9.244   9.597   1.781  0.0424  0.2729 -0.3254
  635W        W 4699  10.643   8.850   7.715  0.1183  0.1926 -0.0357
  636W        W 4700   8.553   3.814   9.759  0.0939  0.1976  0.2268
  637W        W 4701   7.612   6.408   9.205 -0.1177 -0.3012 -0.2308
  638W        W 4702  10.144   9.251   2.140 -0.0846  0.1734  0.0232
  639W        W 4703   9.517   9.490   7.473 -0.1400  0.0189 -0.3440
  640W        W 4704   2.798   3.381  10.541 -0.1099 -0.0077  0.1515
  641W        W 4705   4.430   2.323   3.417 -0.3485  0.0320 -0.0078
  642W        W 4706   5.120   3.090   2.678  0.0258 -0.4700  0.0661
  643W        W 4707   1.409   8.286   0.548  0.1477  0.0841  0.4778
  644W        W 4708   9.038  10.057   2.477 -0.1282  0.0339 -0.0320
  645W        W 4709   1.031   6.341  10.791  0.0310  0.1580 -0.2317
  646W        W 4710  10.454   0.755   0.749  0.0748  0.2896  0.0228
  647W        W 4711   6.079   5.082   9.515 -0.2858  0.0923  0.2295
  648W        W 4712   2.074  10.866   6.914  0.0492 -0.0808 -0.0612
  649W        W 4713   2.564   0.245  10.718  0.1423 -0.0109  0.0516
  650W        W 4714   9.002   9.534   7.753  0.2053 -0.1525 -0.0395
  651W        W 4715   0.994  10.194   2.598  0.0424 -0.1764  0.3365
  652W        W 4716   3.274   3.124   1.808  0.2983 -0.0992  0.2573
  653W        W 4717   5.674  10.507   1.668 -0.1204  0.2937 -0.0051
  654W        W 4718   1.118   0.294   9.908  0.2859  0.0235  0.2345
  655W        W 4719   5.217   3.191   7.733  0.0800 -0.1738 -0.0627
  656W        W 4720   6.410   3.866   8.438  0.0109 -0.1089 -0.2607
  657W        W 4721   4.899   0.760   8.594 -0.0624 -0.1319  0.0373
  658W        W 4722   0.153   4.217  10.136  0.0367  0.2067  0.0258
  659W        W 4723   4.116   9.071  10.928  0.1223 -0.3795  0.0682
  660W        W 4724   7.480   0.834  10.731  0.0066  0.2286 -0.0717
  661W        W 4725   3.168   3.852   1.291  0.0002 -0.1158  0.0957
  662W        W 4726   0.609  10.898  10.145 -0.0108  0.1382 -0.0390
  663W        W 4727   9.356   2.942  10.826  0.5656  0.2418 -0.0149
  664W        W 4728  10.879   0.072   0.437 -0.4504 -0.1206  0.1056
  665W        W 4729   5.627   3.421   8.542 -0.3026  0.2299  0.3434
  666W        W 4730   8.985   8.698   0.612 -0.1896 -0.3340  0.2956
  667W        W 4731   9.830   5.887   9.859  0.1346 -0.2329 -0.2356
  668W        W 4732   8.055   0.071  10.411 -0.1776 -0.3349  0.2643
  669W        W 4733  10.356   4.618   3.356 -0.1199  0.0703  0.0310
  670W        W 4734  10.085   8.677   2.195 -0.2278 -0.0785 -0.2604
  671W        W 4735   1.486   2.091  10.465 -0.0656 -0.4388 -0.2487
  672W        W 4736   0.380   7.784   1.079  0.1810 -0.2129 -0.1027
  673W        W 4737   2.332   3.365  10.314  0.1987 -0.0650 -0.2010
  674W        W 4738   3.874   0.838   0.638 -0.0288 -0.1348  0.1292
  675W        W 4739  10.906   1.984   2.377  0.0833  0.0255 -0.0516
  676W        W 4740   0.591   2.761   8.283  0.0152  0.1335 -0.2619
  677W        W 4741  10.050   2.042   9.653 -0.2234  0.1213  0.0485
  678W        W 4742  10.909   1.036  10.213  0.1055 -0.0881  0.1507
  679W        W 4743   8.217   5.315  10.128 -0.3126  0.3084 -0.2158
  680W        W 4744   3.077   2.086   0.998  0.4061 -0.1334  0.3760
  681W        W 4745   5.559   6.077   7.086  0.0130 -0.2012  0.1197
  682W        W 4746   9.944   7.679   2.093 -0.1560 -0.2365 -0.0228
  683W        W 4747   5.683   9.962   0.538  0.2078 -0.1802  0.1006
  684W        W 4748   2.960  10.101  10.206 -0.3346  0.0967 -0.0406
  685W        W 4749  10.590   0.559   9.603 -0.2365 -0.2644 -0.0294
  686W        W 4750   0.652   6.357   2.713 -0.2652 -0.2466 -0.1028
  687W        W 4751   8.053   8.812   9.474 -0.2694 -0.1302  0.1693
  688W        W 4752   1.514  10.267   9.175 -0.1639  0.1617 -0.0241
  689W        W 4753   3.431   5.701   1.150  0.0226 -0.1049  0.0109
  690W        W 4754   7.364   0.121  10.950  0.0903  0.3114  0.3873
  691W        W 4755   6.242   1.840   7.390  0.0990  0.0266 -0.2337
  692W        W 4756  10.836   7.637   1.892 -0.2490 -0.1778 -0.0838
  693W        W 4757   6.672   6.132   2.933 -0.2883 -0.1240  0.1506
  694W        W 4758   2.434   8.428   6.836 -0.2019 -0.0302  0.0044
  695W        W 4759   3.566   8.023   2.613  0.2437  0.2410  0.2113
  696W        W 4760   9.049   7.630   9.065  0.2168  0.0680  0.3009
  697W        W 4761   6.053   4.573   9.536 -0.0008 -0.0589 -0.1367
  698W        W 4762   4.557   0.121  10.153 -0.0797 -0.0430  0.2361
  699W        W 4763   9.796   9.135   8.081 -0.2896 -0.0384 -0.0870
  700W        W 4764  10.282   7.845   9.023  0.2372 -0.0782 -0.3308
  701W        W 4765   2.021   2.891   2.300 -0.0034 -0.0156  0.1262
  702W        W 4766   0.411   6.843   0.480  0.1955 -0.0969  0.1585
  703W        W 4767   7.503   9.861   9.472 -0.0763  0.2627 -0.0546
  704W        W 4768   6.215   1.084   8.555 -0.0893  0.0027  0.2933
  705W        W 4769   7.978   0.713  11.031 -0.1066 -0.0743 -0.0616
  706W        W 4770  10.250   5.778   7.289 -0.0729  0.1780 -0.0255
  707W        W 4771   9.761   3.625   1.833 -0.0197  0.2177  0.1119
  708W        W 4772   8.186   5.405   7.471  0.2021  0.1972  0.0356
  709W        W 4773   2.036   9.590  10.509 -0.0464  0.1863 -0.1242
  710W        W 4774   2.291   7.885   2.320  0.0390  0.1475 -0.0947
  711W        W 4775   4.392   6.572   3.075 -0.0178 -0.3500 -0.1087
  712W        W 4776   9.432   7.111   9.582 -0.2525  0.2079 -0.2402
  713W        W 4777   3.092   1.093  10.528 -0.1270 -0.1987  0.2789
  714W        W 4778   2.846   0.514   7.651  0.1142  0.1436 -0.5146
  715W        W 4779   4.870   4.987   0.827  0.3886  0.3298  0.0004
  716W        W 4780   8.441   1.688   9.967 -0.1801  0.2799 -0.3052
  717W        W 4781   5.692   3.440  10.097 -0.2266  0.1510  0.2081
  718W        W 4782   8.052   3.844  10.962 -0.1200 -0.2247 -0.0977
  719W        W 4783   4.931   3.511   1.823  0.0575 -0.0901 -0.4656
  720W        W 4784   8.605   5.057   9.565 -0.2431 -0.1917  0.1940
  721W        W 4785   4.713   7.471   2.058 -0.0664 -0.2826  0.1999
  722W        W 4786   5.163   7.518   8.710 -0.1733 -0.2545 -0.2574
  723W        W 4787   1.426   4.488   1.845 -0.2797  0.0265 -0.5776
  724W        W 4788   3.885   2.809   8.628  0.2238  0.0252 -0.0200
  725W        W 4789   9.266   4.529   0.032 -0.1990  0.1206  0.1399
  726W        W 4790   6.865   8.818   7.581 -0.0024  0.3126  0.0759
  727W        W 4791   7.934   8.584  10.651 -0.4499  0.0421 -0.0415
  728W        W 4792   9.714   4.680   1.713  0.0138 -0.1010 -0.0889
  729W        W 4793   1.435   3.047   0.222 -0.0109 -0.3747 -0.0547
  730W        W 4794   1.770   4.290   3.189 -0.0228 -0.0605 -0.1572
  731W        W 4795  10.289   6.832   8.352 -0.0695  0.0499 -0.4038
  732W        W 4796  10.665   2.688   0.118 -0.1555 -0.0966  0.3029
  733W        W 4797  10.417   4.648   9.886 -0.0470  0.0695 -0.0709
  734W        W 4798   8.014  10.208   8.181 -0.3056 -0.3775  0.1126
  735W        W 4799   1.864  10.578  10.880  0.2005  0.1586 -0.2578
  736W        W 4800   4.353   1.447   1.249 -0.3796 -0.0784 -0.0721
  737W        W 4801   9.204   3.220   1.435 -0.1385  0.0187 -0.2098
  738W        W 4802   8.964   5.220   1.329  0.0701 -0.4061 -0.1766
  739W        W 4803   7.142   3.380   8.406 -0.0561  0.0933 -0.0359
  740W        W 4804   3.731   8.961   3.472  0.1324  0.3229  0.0195
  741W        W 4805   7.760   4.304   8.016  0.1695 -0.2197  0.0332
  742W        W 4806   7.476  10.615   3.203 -0.0844 -0.0707  0.2796
  743W        W 4807   9.075   0.634   8.589 -0.0569  0.3141  0.2725
  744W        W 4808  10.213   9.157   7.446 -0.0577 -0.1818 -0.1160
  745W        W 4809   7.549   2.218   3.067  0.0382 -0.1381 -0.2407
  746W        W 4810   9.698   6.445   7.501 -0.0150 -0.1709  0.1435
  747W        W 4811   8.252   2.426   7.364  0.2705  0.1373  0.2047
  748W        W 4812   9.794   2.975   9.560 -0.3452 -0.0462  0.1673
  749W        W 4813   8.196   6.643   2.826  0.1012  0.1383 -0.1443
  750W        W 4814   8.096   6.297   9.761  0.1183  0.0472  0.0788
  751W        W 4815   4.056   3.749   8.303 -0.1742  0.4330 -0.0536
  752W        W 4816   3.583   9.902   3.655 -0.0943 -0.1022 -0.2425
  753W        W 4817   5.937   6.316   1.907 -0.0733 -0.1558 -0.1708
  754W        W 4818   5.744   0.761   8.613  0.1115 -0.0673 -0.3309
  755W        W 4819   8.302   0.258   2.865 -0.3021 -0.0981  0.0763
  756W        W 4820   6.767   0.501  10.203  0.3310 -0.0493 -0.0316
  757W        W 4821   8.336   1.447   2.181  0.0241  0.1209  0.2162
  758W        W 4822   0.227   8.742  10.502 -0.2997  0.1884 -0.2618
  759W        W 4823   4.772   1.065   3.337  0.2235  0.2748 -0.1952
  760W        W 4824   6.067   9.303   1.922  0.1959  0.1143 -0.2431
  761W        W 4825  10.507   5.190   9.006  0.0457 -0.0047  0.0847
  762W        W 4826  10.358   6.300   9.832  0.3568 -0.1953  0.0320
  763W        W 4827   9.313   5.034   8.430  0.0290 -0.1334  0.1395
  764W        W 4828   2.448   1.448   0.137 -0.1136 -0.0477 -0.1200
  765W        W 4829   1.482   6.940   1.839 -0.0472  0.5146 -0.3223
  766W        W 4830   4.750   5.564   2.538  0.4242 -0.2149  0.2482
  767W        W 4831   5.010   8.378   9.643 -0.1722  0.0966  0.1110
  768W        W 4832   5.263   2.682   9.449 -0.0737  0.1087 -0.0491
  769W        W 4833   3.814  10.340   8.420  0.0864  0.3354  0.1795
  770W        W 4834   8.102   8.602   8.564 -0.3370 -0.2559  0.0216
  771W        W 4835   1.048   0.667   2.457 -0.1367 -0.2853 -0.4344
  772W        W 4836   1.636   5.589   8.197  0.0743  0.1810  0.0610
  773W        W 4837   3.032   5.035   7.884 -0.0566  0.1411 -0.1147
  774W        W 4838   6.670   9.536  10.538  0.1375 -0.3205  0.0347
  775W        W 4839  10.098   6.596   7.727  0.1831  0.1381  0.1955
  776W        W 4840   7.869   9.840  10.793 -0.0328  0.1279  0.2291
  777W        W 4841   9.791   1.266   8.762  0.2955 -0.1318  0.1937
  778W        W 4842   6.625   5.685   2.745 -0.1192  0.1107  0.0300
  779W        W 4843   0.791   7.252   8.432  0.3909  0.2673  0.1985
  780W        W 4844   1.601   0.381  10.892  0.0754 -0.1146  0.1435
  781W        W 4845   3.749   4.639   8.420 -0.1478  0.1219  0.1316
  782W        W 4846   1.802   5.157   3.033 -0.0287 -0.1202  0.1000
  783W        W 4847   2.205   8.819   9.819  0.0091 -0.2267 -0.1322
  784W        W 4848   0.899   6.589   7.845 -0.1347  0.0183 -0.0462
  785W        W 4849   0.156   5.583   7.803 -0.3031  0.0573  0.0774
  786W        W 4850   0.888   0.123   0.548  0.3633  0.4013 -0.1910
  787W        W 4851   1.965   0.960   2.398 -0.0518 -0.2580 -0.2563
  788W        W 4852   9.318   1.392   9.931  0.1369 -0.0115  0.3075
  789W        W 4853   4.215   8.153   2.135  0.0930  0.1520  0.0155
  790W        W 4854   1.857   3.792   1.051 -0.2398 -0.3522 -0.1034
  791W        W 4855   4.131   1.377  10.435 -0.0112  0.0363  0.1011
  792W        W 4856   6.304   9.041   9.176 -0.1667 -0.2330 -0.0369
  793W        W 4857   2.578   2.288   1.152  0.0332  0.2101  0.0632
  794W        W 4858   2.771   3.193   7.762 -0.2630  0.4652 -0.1048
  795W        W 4859   0.746   5.812   2.245  0.0712  0.1236 -0.0094
  796W        W 4860   4.941   1.368  10.990  0.1319 -0.1659  0.0567
  797W        W 4861   2.855   1.903   1.761  0.2012  0.1370  0.1426
  798W        W 4862   2.568  10.641   3.501  0.0371 -0.2887  0.4743
  799W        W 4863  10.411   4.786   0.675 -0.2456 -0.2356  0.0988
  800W        W 4864   5.915   2.910   1.132 -0.0135  0.0383 -0.1398
  801W        W 4865   0.876   4.037   0.900 -0.2388  0.0481 -0.2342
  802W        W 4866   6.671   9.278   8.871  0.0655  0.0746  0.1005
  803W        W 4867   2.774   4.089   0.616 -0.0302  0.0447 -0.2648
  804W        W 4868   7.836   3.765   7.097 -0.2456 -0.0356  0.1592
  805W        W 4869   4.918   7.873   8.402  0.2604  0.2693  0.4317
  806W        W 4870   9.324   1.883   2.000  0.1438  0.1065 -0.0747
  807W        W 4871   1.666   8.522   2.803  0.1599  0.1023 -0.0533
  808W        W 4872   1.572   9.646   7.740  0.1324  0.2837  0.0018
  809W        W 4873   3.745   9.619   1.717  0.0213 -0.0925  0.2230
  810W        W 4874   3.669   2.202   9.284  0.1384  0.0511 -0.1720
  811W        W 4875   1.698   1.399   0.804  0.0443 -0.0774 -0.0423
  812W        W 4876   5.056   1.817   8.915  0.0815  0.1107 -0.1362
  813W        W 4877   2.996   4.362   0.017  0.0875  0.1086 -0.5170
  814W        W 4878   9.400  10.724   0.596  0.0330  0.1656  0.1197
  815W        W 4879   8.379   6.552   8.868 -0.1020 -0.0037  0.4038
  816W        W 4880  10.458   8.124  10.791  0.1454  0.2994 -0.1267
  817W        W 4881   6.886   7.160   2.348 -0.1305 -0.0453  0.1483
  818W        W 4882   2.166   7.411   2.457  0.1082  0.1531 -0.1045
  819W        W 4883   1.329   2.553   8.756  0.0066 -0.0304  0.0182
  820W        W 4884   1.421   6.465   2.116  0.1940  0.0116  0.0668
  821W        W 4885   2.015   1.943   9.830  0.1248 -0.2008 -0.1688
  822W        W 4886   8.196   5.320   9.138  0.0619  0.1438  0.1221
  823W        W 4887   2.708   5.195   9.645 -0.3502  0.1340 -0.2620
  824W        W 4888  10.802   9.475   9.587 -0.3414  0.4301  0.0526
  825W        W 4889   2.774   6.253   0.092 -0.3987 -0.1382  0.2898
  826W        W 4890   5.299   5.272   8.099 -0.0576 -0.1156  0.1008
  827W        W 4891   3.375   1.065   1.108 -0.1169  0.1539  0.1650
  828W        W 4892   1.838   4.457  10.169 -0.1963  0.1114 -0.0872
  829W        W 4893   2.365  10.807  10.484  0.1695  0.3359  0.0736
  830W        W 4894   2.261   4.393   0.672  0.2756  0.0225  0.2957
  831W        W 4895   5.099  10.720   2.219  0.2326  0.0686 -0.1019
  832W        W 4896  10.212   1.858   9.213 -0.1410 -0.0346 -0.2661
  833W        W 4897   9.570   4.087   7.855 -0.1103 -0.0141  0.4305
  834W        W 4898   1.617   8.175   3.678 -0.0417  0.0454 -0.1220
  835W        W 4899   3.518   0.197   2.782  0.0849  0.0484 -0.3170
  836W        W 4900   0.160   4.996   1.386 -0.0834 -0.0820 -0.0927
  837W        W 4901   6.518   3.799   3.179  0.2418  0.1523  0.1541
  838W        W 4902   4.880   5.851   1.131 -0.3059  0.2844  0.0641
  839W        W 4903   2.351   4.610   7.631  0.0003 -0.1199  0.3652
  840W        W 4904   6.545   1.635   2.776 -0.3026 -0.3470 -0.0998
  841W        W 4905   5.180   4.703   0.615 -0.0252 -0.0303 -0.0393
  842W        W 4906   3.561   4.087   1.465  0.4797 -0.1229 -0.4379
  843W        W 4907   5.982   9.846   2.200 -0.1024 -0.2383  0.2491
  844W        W 4908   8.101  10.446   9.530  0.2181  0.1013  0.0047
  845W        W 4909   8.379   0.673   9.638 -0.0077 -0.1333 -0.0619
  846W        W 4910   5.344   1.207   3.316 -0.1840 -0.2387 -0.0490
  847W        W 4911   5.819   9.560   9.774 -0.2415  0.2228 -0.1035
  848W        W 4912   2.336  10.814   9.656  0.0555  0.4789 -0.1235
  849W        W 4913   2.822   7.889   8.875  0.1040 -0.0048  0.0051
  850W        W 4914   6.116   4.063   9.611 -0.1351 -0.0171  0.1008
  851W        W 4915   2.238  10.331   1.703  0.1238 -0.1349 -0.0050
  852W        W 4916   2.800   6.443   8.922  0.0864  0.0775  0.0828
  853W        W 4917  10.049   0.573   1.629  0.1348 -0.2054  0.0353
  854W        W 4918   1.009   1.982   9.059 -0.0281  0.3085  0.2070
  855W        W 4919  10.058   0.457  10.608  0.0841 -0.3335 -0.2301
  856W        W 4920   8.370   0.539   0.787 -0.1058  0.2167 -0.1210
  857W        W 4921   7.016  10.426   9.450  0.3670 -0.3749  0.0191
  858W        W 4922   9.915   9.708   2.395 -0.1365  0.3455 -0.0345
  859W        W 4923   3.983   4.816   2.568  0.0586  0.0225  0.0041
  860W        W 4924   3.232   3.570  10.394  0.4845 -0.0920 -0.1991
  861W        W 4925   0.483   3.905   9.896  0.0815  0.1580 -0.1324
  862W        W 4926   4.878   1.609   9.820 -0.2031  0.1184 -0.0584
  863W        W 4927   5.072   2.044   0.762  0.1149 -0.1502 -0.0973
  864W        W 4928   8.636   7.594   1.947 -0.0378  0.2084 -0.1817
  865W        W 4929   4.615   8.809   0.290  0.2207  0.2389 -0.1391
  866W        W 4930   4.956   2.601   9.920 -0.2490  0.0767 -0.0098
  867W        W 4931   7.522   9.517  10.950 -0.0847 -0.0145  0.0273
  868W        W 4932   2.140   4.148   9.138  0.0781  0.1538 -0.2517
  869W        W 4933   5.437   1.097   9.788 -0.0907  0.0090 -0.2213
  870W        W 4934   7.896   0.772   9.814  0.0494  0.0857  0.3336
  871W        W 4935   1.655   0.319   1.286  0.1315  0.2648  0.0356
  872W        W 4936   5.381   2.833   3.089  0.0442  0.0886 -0.0392
  873W        W 4937   2.548   6.362   3.047 -0.3526  0.1853  0.3946
  874W        W 4938   0.016  10.174   8.405  0.1119  0.0431 -0.0356
  875W        W 4939   0.973   9.616   1.576  0.1017  0.0480  0.0006
  876W        W 4940   2.755   8.454   2.013 -0.0966 -0.0284 -0.0841
  877W        W 4941   2.387   6.682   8.690 -0.3912  0.0161 -0.2509
  878W        W 4942   1.610   2.316   1.463 -0.1431  0.0283 -0.1640
  879W        W 4943   7.460   8.499   0.974 -0.0616 -0.1279  0.1527
  880W        W 4944  10.895   8.545   7.368 -0.0804 -0.0621  0.1710
  881W        W 4945   9.929   4.665   7.684  0.0911  0.2986 -0.0598
  882W        W 4946   0.820   3.437   9.746  0.0774 -0.0190 -0.1993
  883W        W 4947   3.869   0.888   3.229  0.0522 -0.2367  0.3343
  884W        W 4948   2.957   9.256   1.478 -0.2105  0.0801 -0.0753
  885W        W 4949   7.890   8.330   1.663  0.1264  0.1590 -0.1968
  886W        W 4950   9.690   9.017   9.348 -0.0583  0.2488  0.3311
  887W        W 4951   1.759   5.231   8.531 -0.0366 -0.3214 -0.0209
  888W        W 4952   7.613   6.878   8.306  0.0444  0.1894 -0.0545
  889W        W 4953   6.667   7.204   0.804  0.0371 -0.2416  0.1315
  890W        W 4954   0.474   0.135   2.096  0.1778 -0.0456  0.0364
  891W        W 4955   1.367   4.037   7.182 -0.2159  0.4963  0.3917
  892W        W 4956   5.207   2.255  10.324  0.3955 -0.0514  0.2401
  893W        W 4957   4.103   4.676   8.893 -0.0950 -0.1894  0.1203
  894W        W 4958   0.511  10.034   2.373  0.1346  0.2646 -0.2269
  895W        W 4959   4.976   7.846   7.858  0.1535 -0.0768  0.2119
  896W        W 4960   9.452   3.529   2.880 -0.1142  0.0379 -0.0068
  897W        W 4961   9.066  10.124   1.811  0.0072 -0.2450 -0.2652
  898W        W 4962   6.815   0.443   8.609 -0.0936  0.0009 -0.0350
  899W        W 4963   5.230   4.267   3.975  0.1525  0.2180 -0.0665
  900W        W 4964   9.711   3.312   0.155  0.4415 -0.1811 -0.2020
  901W        W 4965   0.541  10.692   1.723  0.1206  0.1411  0.1453
  902W        W 4966   5.390   9.215   9.681 -0.5245 -0.2267  0.7480
  903W        W 4967  10.812   1.158   0.822 -0.1174  0.2163  0.1463
  904W        W 4968   6.357   3.130   8.857  0.0678 -0.1224  0.0555
  905W        W 4969   6.970  10.172   0.068 -0.1863 -0.0243  0.0291
  906W        W 4970   2.403   4.275   2.691 -0.0705  0.0765  0.4409
  907W        W 4971   1.147   6.150   1.669  0.2541  0.1879 -0.1669
  908W        W 4972   1.131   9.053   1.093 -0.2403 -0.1311  0.0102
  909W        W 4973   6.091   4.034   7.048 -0.0516  0.0859 -0.2867
  910W        W 4974   5.488   9.962   2.382  0.1047  0.3672 -0.1721
  911W        W 4975   8.484   3.817   1.682 -0.1538 -0.1621 -0.1011
  912W        W 4976  10.854   3.365   7.916 -0.2734 -0.3853 -0.2690
  913W        W 4977   0.246   4.843   1.837  0.3090  0.2305 -0.0688
  914W        W 4978   2.061   7.792   1.783  0.3689  0.3456 -0.1138
  915W        W 4979   6.917   5.402   1.004 -0.0671  0.2381 -0.1441
  916W        W 4980   8.201   7.198   2.970  0.1012  0.0420 -0.2214
  917W        W 4981  10.750   9.660   9.122  0.0596 -0.1091  0.1073
  918W        W 4982   3.760   8.431   3.623 -0.0076 -0.1311 -0.0573
  919W        W 4983   8.678   7.717   8.122 -0.0610 -0.2346  0.0149
  920W        W 4984   6.489   2.002   2.421 -0.2878 -0.1551 -0.2208
  921W        W 4985   0.330   2.329   9.165 -0.0121  0.1542  0.3400
  922W        W 4986   2.455   2.554   9.436  0.2683 -0.0399 -0.2579
  923W        W 4987   6.411   6.046   1.485  0.0905 -0.3105  0.1442
  924W        W 4988   7.299   0.404   2.577 -0.0429  0.3531  0.0256
  925W        W 4989   8.897   9.254   9.352  0.1692  0.0524 -0.2542
  926W        W 4990   0.759   1.168   9.455  0.1050  0.3099 -0.0839
  927W        W 4991   1.058   3.925   9.881 -0.0514 -0.0651 -0.0218
  928W        W 4992   8.165   9.659   8.146  0.1324 -0.0154  0.1182
  929W        W 4993   0.449   5.380   1.451  0.2651  0.0937 -0.0099
  930W        W 4994   6.609   2.456   2.891  0.5760 -0.0262 -0.0847
  931W        W 4995   3.394   9.081   8.188 -0.3274  0.0680 -0.3588
  932W        W 4996   9.760   3.984   0.507 -0.1414  0.0323 -0.1782
  933W        W 4997   7.409   1.921   3.457  0.1275 -0.1103 -0.2307
  934W        W 4998   4.067   8.758  10.467 -0.0664 -0.0312  0.2338
  935W        W 4999   7.453   7.661   8.742 -0.0669  0.1777  0.1082
  936W        W 5000  10.612  10.721   8.924 -0.1491  0.0382  0.1113
  937W        W 5001   6.303   5.408   2.953 -0.3313 -0.2244 -0.1810
  938W        W 5002   6.022   5.114   8.662  0.3347 -0.0568 -0.0033
  939W        W 5003   3.080   6.874   0.660  0.0536  0.0830  0.0266
  940W        W 5004   0.851  10.880  10.674 -0.1310 -0.0870 -0.2169
  941W        W 5005   0.007   2.481   3.273  0.1475  0.0499  0.2266
  942W        W 5006   8.023   0.499   9.328  0.1775  0.3427 -0.0562
  943W        W 5007   5.246   0.543   8.320 -0.0462  0.3437 -0.4060
  944W        W 5008   0.328   6.691   8.666  0.1909  0.0274 -0.1341
  945W        W 5009   8.408   3.208   3.735 -0.0872 -0.1479  0.0051
  946W        W 5010   2.936   2.192   9.472 -0.0666 -0.4147  0.1220
  947W        W 5011   4.275   9.120   2.151  0.3360  0.3798  0.4214
  948W        W 5012   0.226   4.409   8.769  0.0865  0.1596  0.1258
  949W        W 5013   4.814   7.068   7.767 -0.0598 -0.0750 -0.1616
  950W        W 5014   5.007   5.880   8.984  0.1845 -0.0630  0.0870
  951W        W 5015  10.301   9.827   8.391 -0.2049 -0.1086 -0.1467
  952W        W 5016   1.584   6.874   8.268  0.1421  0.0963  0.1362
  953W        W 5017  10.579   5.533   2.008 -0.0066 -0.2235 -0.0775
  954W        W 5018   0.870  10.187   1.614 -0.0275 -0.2433  0.2089
  955W        W 5019   6.523   3.104   2.364  0.0259 -0.0014 -0.1385
  956W        W 5020   0.357   8.671   3.340  0.1680 -0.0603 -0.1157
  957W        W 5021   1.096   6.638   8.344  0.0915 -0.1924 -0.0560
  958W        W 5022   9.262   8.935   9.559 -0.2227  0.4355 -0.0614
  959W        W 5023   5.239   3.638   0.403 -0.7248  0.0919  0.1148
  960W        W 5024   5.731   4.456   0.150 -0.0447 -0.1976  0.1642
  961W        W 5025   5.191   6.938   7.380 -0.0747  0.0296 -0.0590
  962W        W 5026   2.382   5.304  10.014 -0.1704  0.0647 -0.1068
  963W        W 5027   8.602   5.512  10.423 -0.0621 -0.1602  0.0268
  964W        W 5028   3.293   4.802  10.231 -0.0513 -0.0577 -0.0340
  965W        W 5029   5.122   4.822   7.946  0.0292  0.2626  0.1011
  966W        W 5030   0.781   1.564   2.966  0.0224 -0.0224 -0.0756
  967W        W 5031   7.178   3.670   8.860 -0.1011  0.0882  0.3731
  968W        W 5032   6.312   2.667   1.413 -0.0557  0.0708  0.0574
  969W        W 5033   5.339   2.101   8.238  0.2463  0.1770 -0.1924
  970W        W 5034   8.994   7.479   7.151  0.1766 -0.1090 -0.0332
  971W        W 5035   4.615   4.323   7.288 -0.1801  0.2292 -0.4237
  972W        W 5036   3.986   0.387   3.291  0.1582 -0.2259  0.0733
  973W        W 5037   6.855   0.500   3.459  0.0187 -0.0109 -0.2643
  974W        W 5038   7.672   9.465   1.716 -0.1217 -0.1845 -0.4073
  975W        W 5039   4.465   9.039   1.579  0.1155  0.1357  0.1788
  976W        W 5040   8.077   8.580   3.230 -0.2067 -0.4738  0.1800
  977W        W 5041   1.837   5.517   9.350  0.3415  0.1546  0.1129
  978W        W 5042   0.466   7.244   2.571  0.0495  0.1208  0.0490
  979W        W 5043   2.261   3.110   2.719 -0.0749  0.0458  0.1112
  980W        W 5044   5.380   0.759   9.402 -0.0739 -0.1286  0.0634
  981W        W 5045   4.541   4.238  10.242  0.1231  0.1706 -0.0949
  982W        W 5046   5.348   5.908   1.348  0.0668 -0.0598  0.1648
  983W        W 5047   6.714   4.013   7.871 -0.0789  0.1039 -0.0149
  984W        W 5048  10.045   6.670   1.442  0.1011 -0.3078 -0.1111
  985W        W 5049   1.251   8.442   2.336 -0.0602  0.2133 -0.2675
  986W        W 5050   8.265   1.839   8.627 -0.1230  0.0113  0.1270
  987W        W 5051   8.358   9.276  10.321  0.2229  0.0834 -0.2000
  988W        W 5052   6.804   0.545   8.075 -0.0123  0.1730 -0.2897
  989W        W 5053   0.657   4.628   2.134 -0.3000 -0.2050  0.1156
  990W        W 5054   4.908   2.028   1.265  0.3624 -0.2059  0.2291
  991W        W 5055   2.012   7.069   2.786  0.1870 -0.1021  0.0136
  992W        W 5056   5.792   6.162   1.458  0.1169  0.4081 -0.1965
  993W        W 5057   2.062   8.091   2.729  0.0470 -0.1537 -0.1113
  994W        W 5058   2.137   1.104   0.956  0.1353 -0.2123  0.1034
  995W        W 5059   5.990   5.977   7.857 -0.3147 -0.0306  0.3706
  996W        W 5060   3.638   1.656   8.999  0.0974 -0.1707 -0.0809
  997W        W 5061   5.157   8.694   3.061 -0.0328  0.1882 -0.1510
  998W        W 5062   8.484   3.112   3.177  0.0649 -0.3331 -0.1993
  999W        W 5063   3.205   7.589   6.778  0.0011  0.0277  0.0692
 1000W        W 5064   5.407   6.163   2.238  0.0288  0.1700  0.5579
 1001W        W 5065   8.987   0.136  10.336 -0.0991 -0.0093  0.0142
 1002W        W 5066  10.792   0.287  10.057 -0.0655 -0.5333  0.3765
 1003W        W 5067   9.805  10.867   9.822  0.0006 -0.0793  0.2143
 1004W        W 5068   4.269   6.725   1.826 -0.1897 -0.1731 -0.3854
 1005W        W 5069   0.996   1.519   0.530  0.1579  0.1395 -0.2960
 1006W        W 5070   3.080   9.516   9.257 -0.0606 -0.1779 -0.4235
 1007W        W 5071   4.221   8.993   8.596 -0.2949 -0.0384  0.0531
 1008W        W 5072   5.884   6.773   9.483  0.3232  0.1838 -0.0305
 1009W        W 5073   1.440   0.190   8.662 -0.0032  0.0830  0.0094
 1010W        W 5074   6.857   7.629   0.170 -0.0099  0.2251  0.0826
 1011W        W 5075   1.609   1.207   0.130  0.0208  0.1858 -0.0156
 1012W        W 5076   3.041   9.677   7.547  0.1644  0.0586  0.2772
 1013W        W 5077   3.176   6.491   9.335  0.3240 -0.0282 -0.3006
 1014W        W 5078  10.022   9.917  10.664 -0.0068 -0.4175  0.1194
 1015W        W 5079   0.546  10.117  10.614 -0.2602 -0.2015 -0.2091
 1016W        W 5080   5.940   1.844   1.140  0.1310 -0.1046  0.0955
 1017W        W 5081   9.093   3.359   9.978  0.3309 -0.0984  0.0278
 1018W        W 5082   8.847   1.975   2.685  0.1062 -0.1402  0.4290
 1019W        W 5083  10.128   4.024   3.517 -0.0429  0.0369 -0.1867
 1020W        W 5084   0.621   9.143   9.170  0.2052 -0.0260  0.2725
 1021W        W 5085  10.507   9.569   7.451  0.2974 -0.0441  0.3463
 1022W        W 5086   7.851   4.957  10.328 -0.2242  0.0799  0.0389
 1023W        W 5087   9.602   3.009   7.821 -0.0586  0.1066 -0.2254
 1024W        W 5088   0.567   5.244  10.142  0.1063  0.0857  0.1620
 1025W        W 5089   9.520   0.960   2.180 -0.1609 -0.1399  0.0727
 1026W        W 5090   9.335   9.669   2.697  0.0918 -0.1845 -0.0302
 1027W        W 5091   6.125   6.046   8.353  0.0500  0.2345 -0.1719
 1028W        W 5092   5.257   7.706   0.182 -0.0371 -0.0929 -0.0102
 1029W        W 5093   6.640   9.903   0.332  0.0812  0.2358  0.0706
 1030W        W 5094   8.088   9.367   0.090  0.1036 -0.1752 -0.1332
 1031W        W 5095  10.220  10.450  10.522  0.3440  0.0611 -0.1215
 1032W        W 5096   1.426   8.981   0.522 -0.1452 -0.0767 -0.3939
 1033W        W 5097   1.605   9.126   3.259 -0.1388 -0.0490  0.2273
 1034W        W 5098  10.487   3.023   0.834  0.0276  0.1436 -0.0108
 1035W        W 5099  10.808   5.763   1.512 -0.2127  0.1917  0.2439
 1036W        W 5100   3.433   3.710   3.290 -0.2174 -0.0881  0.3874
 1037W        W 5101  10.745   9.121   0.448 -0.0193 -0.0959 -0.1264
 1038W        W 5102  10.421  10.911   0.187  0.0785  0.0084  0.1216
 1039W        W 5103   8.777   7.407   0.271  0.2043  0.0586  0.1322
 1040W        W 5104   7.260   0.721   8.822  0.0366  0.3104 -0.3343
 1041W        W 5105   8.471   3.165   8.891 -0.1394 -0.0181  0.1827
 1042W        W 5106   5.453  10.857   9.028  0.1027 -0.1240 -0.2090
 1043W        W 5107   3.938   0.516   9.980  0.2846  0.3590 -0.0101
 1044W        W 5108   0.493   5.668   0.219 -0.1008 -0.1728 -0.3275
 1045W        W 5109   1.590   2.512   2.390  0.1201 -0.0508  0.0654
 1046W        W 5110   1.971   9.128   8.348  0.3430  0.1123 -0.3261
 1047W        W 5111   2.082  10.720   2.735  0.2734  0.1484  0.3490
 1048W        W 5112   6.416   0.703   8.320 -0.0791  0.0861 -0.1575
 1049W        W 5113   8.221   8.419   2.012  0.1853  0.1035 -0.1240
 1050W        W 5114   3.588   7.310   2.793 -0.0768  0.0199 -0.1028
 1051W        W 5115   7.110   0.884   8.318 -0.1920  0.1271 -0.2118
 1052W        W 5116   3.288   1.957   1.515  0.1105 -0.0968 -0.2162
 1053W        W 5117   8.475  10.856  10.023 -0.3935  0.1289 -0.2011
 1054W        W 5118   0.328   8.321   0.118  0.0184 -0.1926  0.0370
 1055W        W 5119   8.979   5.889   2.005 -0.0261  0.0526  0.2076
 1056W        W 5120   3.570   0.560   8.812 -0.0136 -0.0605  0.1045
 1057W        W 5121   1.857  10.027   7.899  0.0460  0.2192 -0.0319
 1058W        W 5122   3.506   9.631   7.330 -0.2337 -0.0839  0.3213
 1059W        W 5123   1.039   4.818   1.859  0.4220  0.0691  0.0850
 1060W        W 5124   9.128   1.657  10.357 -0.4158 -0.1614 -0.3076
 1061W        W 5125   5.359   5.497   7.577 -0.4671 -0.0676  0.3439
 1062W        W 5126   6.202   4.257  10.959  0.2939  0.0781  0.0023
 1063W        W 5127   4.065   7.501   2.911 -0.0752  0.3056 -0.4318
 1064W        W 5128   8.051   4.213   7.272  0.1063  0.1291  0.1849
 1065W        W 5129   5.246   0.595  10.621 -0.2306  0.2038 -0.3471
 1066W        W 5130   8.689   1.719   1.561  0.0416  0.0280 -0.0833
 1067W        W 5131   6.726   3.703   1.683  0.0173  0.0048  0.2087
 1068W        W 5132   4.776   2.352   0.413  0.1746 -0.0320  0.2034
 1069W        W 5133   9.604   2.209  10.042  0.4514 -0.1104 -0.3156
 1070W        W 5134  10.730  10.000   3.054 -0.1103  0.1785  0.0369
 1071W        W 5135   6.371   8.163   9.894  0.1148 -0.1392  0.1609
 1072W        W 5136   8.833   9.976   0.044  0.0359  0.2327  0.1803
 1073W        W 5137   1.433   5.585   0.197 -0.0429  0.0266 -0.1438
 1074W        W 5138   9.795   0.161   9.332 -0.0450 -0.0880  0.0541
 1075W        W 5139   3.631   4.851   0.193 -0.0514  0.0354 -0.0042
 1076W        W 5140  10.902   1.172  10.784 -0.5245  0.0987  0.0168
 1077W        W 5141  10.593   9.141   2.004  0.1446  0.0639 -0.2634
 1078W        W 5142   3.012   3.907  10.678  0.0582  0.3053 -0.2069
 1079W        W 5143   5.429   8.908   0.539 -0.1181  0.1744  0.0168
 1080W        W 5144   0.305   7.254   1.687  0.0215  0.2554 -0.1184
 1081W        W 5145   7.536   5.111   8.725  0.1012 -0.1312 -0.0653
 1082W        W 5146   1.785   7.988   0.375 -0.2722 -0.2510  0.1200
 1083W        W 5147   8.089   3.386   0.267 -0.0896  0.2522 -0.1181
 1084W        W 5148   6.509   3.981  10.046  0.0451  0.2026 -0.2079
 1085W        W 5149   6.954   5.206   0.235  0.0080  0.0340 -0.1577
 1086W        W 5150   2.069   7.982  10.194  0.1868  0.0523 -0.1348
 1087W        W 5151   0.389   4.190   2.846  0.2172 -0.1679  0.0580
 1088W        W 5152   7.706   1.725   1.745 -0.0049 -0.4568 -0.2988
 1089W        W 5153   0.849   7.583   9.621  0.1569  0.2008 -0.0030
 1090W        W 5154   4.533   7.942   3.072 -0.1289  0.1672  0.0651
 1091W        W 5155   6.306   8.962   9.639  0.1152 -0.2437 -0.2447
 1092W        W 5156   0.464   4.957   8.609 -0.0520 -0.0632  0.1743
 1093W        W 5157   9.471   4.133   2.135 -0.3423 -0.2009  0.2106
 1094W        W 5158   1.425   1.716   8.945 -0.3210  0.3591 -0.1223
 1095W        W 5159   2.437   5.847   8.202  0.0778 -0.0400  0.3564
 1096W        W 5160   6.075   0.923   0.098 -0.1808  0.2252  0.0295
 1097W        W 5161   4.421  10.271   1.801  0.1554 -0.1443 -0.1719
 1098W        W 5162   0.011   7.304   9.332 -0.1051  0.2070  0.2465
 1099W        W 5163   5.265   8.733   1.034 -0.0305 -0.2658 -0.0309
 1100W        W 5164   4.768   9.075   0.810  0.0512 -0.1243 -0.2945
 1101W        W 5165   4.941   0.793   0.811 -0.0278 -0.2104  0.1047
 1102W        W 5166   8.714  10.746   0.551  0.1279 -0.0198 -0.1139
 1103W        W 5167   5.768  10.036  10.609  0.1175  0.2737 -0.1366
 1104W        W 5168   6.426   5.358   2.049 -0.0150 -0.1146  0.1659
 1105W        W 5169   4.077   6.731   7.729  0.1612  0.0037  0.3439
 1106W        W 5170   3.120   6.270  10.740 -0.1096  0.1935 -0.2037
 1107W        W 5171   9.350   9.455   8.180 -0.0267 -0.0259 -0.0743
 1108W        W 5172   9.601   9.305  10.473  0.1400 -0.3012 -0.4015
 1109W        W 5173   8.995   1.784   3.159  0.2877  0.1977 -0.1907
 1110W        W 5174   4.971   8.888  10.888  0.0539 -0.2977  0.1480
 1111W        W 5175   1.649   2.563   2.981 -0.2164 -0.0339 -0.0284
 1112W        W 5176   2.464   7.396   8.201 -0.2122 -0.3869  0.3009
 1113W        W 5177   6.225   6.136  10.232 -0.0176  0.0874  0.3097
 1114W        W 5178   2.545   6.478   9.950  0.0606  0.0639  0.0404
 1115W        W 5179   2.083   0.591   9.823 -0.0229  0.1209 -0.2369
 1116W        W 5180   8.374   0.924  10.133  0.1603  0.0412 -0.0637
 1117W        W 5181   2.224   9.797   0.447  0.3081 -0.0721  0.4451
 1118W        W 5182   3.103   9.405   8.772 -0.1422  0.0546  0.1915
 1119W        W 5183   9.533  10.309   7.960  0.0177  0.0187 -0.2032
 1120W        W 5184   6.724   7.817   9.750  0.0813  0.0679  0.2137
 1121W        W 5185   6.835   4.079  10.463 -0.4602 -0.1988 -0.1466
 1122W        W 5186   7.437   2.611   0.235  0.1255  0.2664  0.2674
 1123W        W 5187   0.164   7.417  11.017  0.1939  0.1831 -0.1084
 1124W        W 5188   4.048  10.889  10.058  0.4314  0.0489 -0.1521
 1125W        W 5189   3.389   7.822   1.243 -0.2200  0.1826 -0.0410
 1126W        W 5190  10.856   1.561   9.852  0.2192 -0.2221  0.0025
 1127W        W 5191   8.475   4.229   7.545  0.1022  0.2902  0.0576
 1128W        W 5192   8.267   6.754   7.643 -0.3359  0.0169  0.1898
 1129W        W 5193   2.279   8.749   8.095 -0.1228 -0.1973  0.0480
 1130W        W 5194   3.755   6.545  11.026  0.2941 -0.0523 -0.3648
 1131W        W 5195   8.282   9.877   0.131  0.1664  0.2192 -0.1122
 1132W        W 5196   8.958  10.578  10.090 -0.2959  0.1292 -0.1195
 1133W        W 5197   7.441   6.693   7.505 -0.1112 -0.1417  0.1836
 1134W        W 5198   8.893   1.636   9.640  0.1861 -0.0109 -0.0288
 1135W        W 5199   6.412   3.548   0.811 -0.5683 -0.0028 -0.1328
 1136W        W 5200   4.391   0.244   1.717 -0.0818 -0.0446  0.0709
 1137W        W 5201   4.106   6.163   0.015  0.2377 -0.3895  0.1743
 1138W        W 5202   6.510  10.087   1.563  0.3542  0.1239 -0.0741
 1139W        W 5203   9.261   6.769   9.970 -0.1540 -0.0071  0.0763
 1140W        W 5204   5.979   3.891   0.891 -0.0621  0.1692  0.0067
 1141W        W 5205   0.284   2.011  11.004 -0.0422  0.1378  0.0995
 1142W        W 5206   4.238   3.669   9.346  0.0277 -0.1416 -0.2500
 1143W        W 5207   5.033   3.155   2.198  0.2144  0.3479 -0.2921
 1144W        W 5208   6.177   8.376  10.451  0.0162  0.1954  0.1035
 1145W        W 5209   8.419   9.230   8.113  0.1639 -0.0543  0.2999
 1146W        W 5210   5.321   2.333   2.931 -0.0716 -0.1575 -0.0982
 1147W        W 5211   0.699   0.810   3.240  0.2382  0.0462 -0.1045
 1148W        W 5212   3.141   1.471   9.649  0.3712 -0.1170 -0.0892
 1149W        W 5213   8.986   1.886   1.214 -0.3098  0.1597 -0.0027
 1150W        W 5214   2.459   0.312   1.916  0.0264  0.2760  0.4264
 1151W        W 5215   1.096   7.249   1.699  0.1440  0.2762  0.1930
 1152W        W 5216   6.684   5.719  10.169  0.2661  0.1350 -0.0964
 1153W        W 5217   9.087   7.197  10.166  0.0268 -0.2066 -0.1346
 1154W        W 5218   1.018   8.955   8.238  0.0586 -0.1100 -0.2232
 1155W        W 5219   0.347   9.757   8.328 -0.1850  0.0941 -0.0208
 1156W        W 5220   2.565   5.158  10.421 -0.5080  0.0509  0.0228
 1157W        W 5221   8.630   0.475   2.546  0.3701  0.0459  0.0112
 1158W        W 5222   0.210   6.232   1.810 -0.0313 -0.1343  0.1823
 1159W        W 5223   8.890   6.643   9.021  0.1738 -0.0646  0.0887
 1160W        W 5224   9.271   9.365   3.115  0.3737  0.0217 -0.0762
 1161W        W 5225   7.717   9.351   9.211 -0.1602  0.0571  0.1364
 1162W        W 5226   1.523   3.042   8.781 -0.1252  0.1232  0.0698
 1163W        W 5227   5.189   4.209   9.117  0.3604 -0.2141 -0.1547
 1164W        W 5228   1.526   0.717   0.294  0.3664 -0.3948 -0.0386
 1165W        W 5229   4.108   4.291   3.260 -0.1894  0.5445  0.0663
 1166W        W 5230   2.695   3.674   1.101 -0.0612  0.1090  0.0616
 1167W        W 5231   5.159   4.248   9.606  0.0638 -0.1818 -0.1134
 1168W        W 5232   6.137   6.526   1.516  0.0931  0.1565  0.2068
 1169W        W 5233   7.690   8.152   2.617 -0.1118 -0.0171 -0.1641
 1170W        W 5234   3.394   4.335   1.967 -0.0902 -0.0640 -0.2249
 1171W        W 5235   3.509   7.883   8.186 -0.2892 -0.4654  0.1051
 1172W        W 5236   1.041   7.731   8.758  0.1419  0.0396  0.1365
 1173W        W 5237  10.533   0.431  10.496 -0.0245  0.1262  0.1352
 1174W        W 5238   6.653   3.452  10.965  0.0825  0.0012 -0.2900
 1175W        W 5239   5.079   3.176   0.093  0.1036  0.0637  0.0976
 1176W        W 5240   2.982   8.394   0.554 -0.0328  0.1002 -0.1722
 1177W        W 5241  10.544   4.284  10.353  0.3426  0.0895 -0.0817
 1178W        W 5242   5.192   9.600   9.410  0.1627  0.0199 -0.2076
 1179W        W 5243   3.101   1.437   1.722 -0.2442 -0.0041 -0.1167
 1180W        W 5244   1.591   0.017   7.604  0.0266  0.0565  0.2603
 1181W        W 5245   4.676   7.422   9.556  0.2092 -0.0360 -0.0561
 1182W        W 5246   9.819   9.972   1.099 -0.0400  0.0945 -0.1288
 1183W        W 5247   2.208   0.788   1.912 -0.0185 -0.1924 -0.0195
 1184W        W 5248   7.254   2.002   1.250  0.0196  0.1269 -0.1038
 1185W        W 5249   0.546   3.260   0.982 -0.0539  0.0198 -0.0948
 1186W        W 5250   5.990   7.546   1.285  0.3410  0.1090  0.0235
 1187W        W 5251   1.922   7.322   0.005  0.1007 -0.0693 -0.3081
 1188W        W 5252   0.212   7.276   1.230  0.1016 -0.1984  0.1628
 1189W        W 5253   8.945   2.195   1.771  0.2636  0.1808 -0.1414
 1190W        W 5254   5.058   1.315   3.762  0.2013 -0.1317  0.2252
 1191W        W 5255   7.253   2.419  10.430 -0.1538 -0.0623  0.4302
 1192W        W 5256   7.581   9.160   7.773 -0.3519 -0.2609 -0.0710
 1193W        W 5257   2.158   3.013   1.498  0.0533  0.1761  0.2072
 1194W        W 5258   7.674  10.506   3.732  0.1289 -0.1125  0.2807
 1195W        W 5259   0.040   3.707   1.638 -0.0149  0.1476  0.0867
 1196W        W 5260   2.299  10.318   6.930  0.0770 -0.1414  0.1284
 1197W        W 5261   2.084   5.466   8.936 -0.1127  0.1092  0.2412
 1198W        W 5262   7.090   0.246   9.981 -0.0321  0.2252  0.0806
 1199W        W 5263   1.602   1.315   1.480 -0.0777  0.1580  0.1441
 1200W        W 5264   8.712   5.841   8.537  0.1785 -0.1235  0.2872
 1201W        W 5265   4.122   5.180   9.921  0.0916  0.0839 -0.0811
 1202W        W 5266   1.253   4.145   9.446 -0.0440  0.0609  0.4732
 1203W        W 5267   6.471   6.562  10.057  0.2567 -0.1977  0.0643
 1204W        W 5268   8.740   7.935   1.107 -0.2089  0.0743 -0.2437
 1205W        W 5269   0.324   2.216   0.587 -0.1806 -0.0964 -0.0391
 1206W        W 5270   8.778   6.389   8.575 -0.0356 -0.1510  0.1322
 1207W        W 5271   6.848   1.635   2.177  0.4854  0.1635  0.2699
 1208W        W 5272  10.609   8.961   8.702  0.0477 -0.3088  0.1218
 1209W        W 5273   9.249   1.859   3.614  0.1523  0.0016  0.0590
 1210W        W 5274   5.849   5.899   9.327  0.0152  0.3710 -0.3623
 1211W        W 5275   9.878   6.854   3.018  0.2869 -0.1063 -0.1761
 1212W        W 5276   2.560   7.013  10.230 -0.1241  0.2266  0.1702
 1213W        W 5277  10.106   2.882   7.689 -0.0356 -0.0072  0.3263
 1214W        W 5278  10.805   4.176   9.134  0.0589 -0.3548  0.1863
 1215W        W 5279  10.062   9.431   0.311 -0.0371  0.1253 -0.3828
 1216W        W 5280   8.188   8.102  10.709 -0.3263  0.2090 -0.2992
 1217W        W 5281   3.659   5.494   3.685  0.1399 -0.1191 -0.2444
 1218W        W 5282   4.395   4.946  10.525 -0.1679  0.0244  0.0562
 1219W        W 5283   6.871   2.240   2.113  0.0837  0.0948 -0.1867
 1220W        W 5284   1.066   5.889   0.797 -0.1889  0.1025  0.0996
 1221W        W 5285   2.086   1.029   3.272  0.0095 -0.0588 -0.2644
 1222W        W 5286   4.022   0.776   8.567  0.1598 -0.2688 -0.2187
 1223W        W 5287   1.504  10.483   4.417  0.1687 -0.1156 -0.2899
 1224W        W 5288  10.835   6.821  10.177 -0.0284 -0.1301  0.1989
 1225W        W 5289   1.194   0.557   1.942 -0.0801  0.2533  0.0212
 1226W        W 5290   8.816   6.143   7.160  0.0351 -0.2745 -0.2509
 1227W        W 5291   1.114   2.607   2.218 -0.1014 -0.1742 -0.0959
 1228W        W 5292   1.088   8.520   9.114 -0.3630  0.2899 -0.2397
 1229W        W 5293   0.946   2.180   3.502  0.0016 -0.0060  0.2365
 1230W        W 5294   6.030   7.841  10.318 -0.0215 -0.1569  0.1383
 1231W        W 5295  10.681  10.468   0.185  0.0488 -0.0215  0.1120
 1232W        W 5296   2.315   8.836  10.322  0.1568  0.4408  0.1532
 1233W        W 5297   9.605   0.346   7.083  0.0298 -0.2529 -0.0536
 1234W        W 5298   4.957   6.333  10.668 -0.1301 -0.0294 -0.0261
 1235W        W 5299   0.589   5.618  10.684  0.0370  0.0096  0.0777
 1236W        W 5300   2.246   5.395   1.521  0.1298  0.0461  0.6018
 1237W        W 5301   3.281   8.574   8.194 -0.3276 -0.0544  0.0220
 1238W        W 5302   8.609   6.629   0.535  0.1633 -0.2203  0.1988
 1239W        W 5303   7.415   3.753   7.424 -0.2842 -0.1776 -0.0279
 1240W        W 5304   8.584   0.746  10.861 -0.0006 -0.2754  0.2149
 1241W        W 5305   1.187   2.943   1.610  0.1193  0.0000  0.2604
 1242W        W 5306   0.072   3.136   3.257 -0.1122 -0.0228  0.1156
 1243W        W 5307   7.965   3.118   0.922  0.0911  0.0067  0.0120
 1244W        W 5308   7.283   1.829  10.581  0.2634 -0.3873 -0.0839
 1245W        W 5309   7.618   6.156   0.683  0.0787 -0.1768 -0.1689
 1246W        W 5310   7.880   5.109   1.322 -0.0316  0.1071  0.0488
 1247W        W 5311   5.025   3.931  10.500  0.1101  0.0508 -0.1515
 1248W        W 5312   5.122   2.074   9.821 -0.0181 -0.1630  0.1416
 1249W        W 5313   2.807   0.143   0.609 -0.2212  0.1141 -0.2830
 1250W        W 5314   0.792   0.444   3.566 -0.1851  0.4068  0.1503
 1251W        W 5315   7.872   2.885   0.497  0.1119  0.0881  0.2978
 1252W        W 5316   8.088   2.220   1.008 -0.0550 -0.0561  0.3063
 1253W        W 5317   7.013   8.255   9.958  0.0715 -0.1717  0.3970
 1254W        W 5318   1.748   7.420   0.484  0.0936 -0.2305 -0.1220
 1255W        W 5319   5.433   0.278  10.226 -0.0344 -0.0092  0.2249
 1256W        W 5320   6.165   8.904   2.898 -0.1332 -0.2850 -0.0927
 1257W        W 5321   3.229   0.356  10.769  0.0217  0.4377  0.2038
 1258W        W 5322   0.359   4.520   3.863 -0.1562 -0.1767 -0.3832
 1259W        W 5323   5.643   3.412   9.476  0.1595 -0.0019 -0.1568
 1260W        W 5324   8.182   3.917   2.124  0.2279  0.0664  0.0149
 1261W        W 5325   9.658   0.879   8.301  0.0886 -0.0957 -0.1957
 1262W        W 5326   8.821   3.939   8.492  0.0768 -0.1504 -0.0552
 1263W        W 5327   7.505   5.786   8.496 -0.0677 -0.1364 -0.0757
 1264W        W 5328  10.347   8.414   8.040 -0.4300  0.1676  0.0745
 1265W        W 5329   4.110   3.601   2.026  0.2428  0.1808 -0.2098
 1266W        W 5330   7.253   9.674   1.630  0.0528 -0.1988 -0.0160
 1267W        W 5331   9.699   9.734   0.574 -0.2091 -0.0685  0.1549
 1268W        W 5332   2.357   9.760   9.963 -0.3728 -0.3887 -0.1775
 1269W        W 5333   8.321   4.906   7.560 -0.0738 -0.0867 -0.0198
 1270W        W 5334  10.576   6.598   1.645  0.0577 -0.1520  0.1174
 1271W        W 5335  10.600   6.957   9.481 -0.1018 -0.0105  0.1698
 1272W        W 5336   3.253   3.402   9.007 -0.0699  0.0734  0.0977
 1273W        W 5337   9.657   6.687   9.490 -0.2732  0.0785  0.1023
 1274W        W 5338  10.551   3.627   1.982  0.0222  0.2815 -0.1406
 1275W        W 5339   4.617   9.241  10.931  0.0291 -0.2341 -0.3432
 1276W        W 5340   2.716   5.047   0.304 -0.1219 -0.0750 -0.0976
 1277W        W 5341   8.051   2.331   3.201  0.1744  0.0855  0.0656
 1278W        W 5342   9.779   2.371   1.320  0.3926 -0.2155  0.1122
 1279W        W 5343   6.865   4.488   3.750  0.0313  0.2110 -0.0747
 1280W        W 5344   3.581   6.944   7.520  0.1424 -0.2097  0.1237
 1281W        W 5345   4.476   3.157  10.272 -0.3348  0.1910 -0.2437
 1282W        W 5346   9.455   1.378   3.082 -0.2734 -0.0472 -0.0935
 1283W        W 5347   4.614   1.609   8.688  0.1726  0.3945  0.3069
 1284W        W 5348   0.978   7.103   1.111 -0.2048  0.4030 -0.1820
 1285W        W 5349   8.295   8.859   1.040 -0.0863 -0.1635  0.1055
 1286W        W 5350   7.623   2.147   0.912  0.1402 -0.0839 -0.0695
 1287W        W 5351   9.566   0.039   7.514  0.1245  0.1812 -0.3593
 1288W        W 5352   2.525   0.320   1.001  0.4129  0.0485 -0.1740
 1289W        W 5353   9.553  10.789   8.359  0.1028 -0.0569 -0.2353
 1290W        W 5354   1.810   9.584  10.993 -0.2274  0.1391  0.0411
 1291W        W 5355   9.392   1.205   9.194 -0.0723 -0.1670  0.1113
 1292W        W 5356   0.669   4.029   8.029  0.1252 -0.0608  0.0069
 1293W        W 5357   2.441   1.765   2.214  0.3483 -0.2583 -0.1197
 1294W        W 5358   9.630   2.750   0.165 -0.2205 -0.5187  0.0907
 1295W        W 5359   3.181   9.744   9.945 -0.1716  0.0162  0.0423
 1296W        W 5360   4.803   4.353   0.392  0.2902 -0.0596  0.0745
 1297W        W 5361   5.299  10.803   2.763 -0.0813 -0.4277 -0.0554
 1298W        W 5362   0.796   3.676  10.207  0.0998 -0.1182  0.0288
 1299W        W 5363   9.028   7.872   9.484 -0.2890  0.0655 -0.1344
 1300W        W 5364   7.644   7.210   8.844 -0.1673 -0.0325 -0.1204
 1301W        W 5365   1.639   7.771   8.640 -0.1872 -0.0231 -0.0681
 1302W        W 5366   4.377   1.440   2.066 -0.0718 -0.1364  0.3460
 1303W        W 5367  10.479   7.555   7.766 -0.1542  0.1319 -0.4189
 1304W        W 5368   0.070   7.809   8.463  0.1080 -0.2403 -0.0054
 1305W        W 5369   1.637   8.300  11.005  0.0691  0.0508 -0.1530
 1306W        W 5370   1.432   6.723   7.774 -0.0834  0.0424 -0.1404
 1307W        W 5371   2.195   1.964   3.576  0.0577  0.0080 -0.0944
 1308W        W 5372   8.074   4.027   0.468  0.2010 -0.0474 -0.1381
 1309W        W 5373   0.811   6.235   8.189  0.1185  0.1175 -0.3013
 1310W        W 5374   4.420  10.063   2.269  0.2281 -0.0432  0.1745
 1311W        W 5375   0.362   1.226   6.839  0.1439  0.3715  0.1152
 1312W        W 5376   4.905   5.921   2.878 -0.0932 -0.0590  0.1888
 1313W        W 5377   3.874   7.032   9.772  0.0867 -0.0754 -0.0465
 1314W        W 5378   7.932   3.921   9.644 -0.3869 -0.1996 -0.0091
 1315W        W 5379   3.392  10.304   3.890 -0.1141  0.0730 -0.1242
 1316W        W 5380   6.389   1.081   1.444 -0.1975 -0.1375 -0.2658
 1317W        W 5381   5.796   2.782   3.379  0.1686  0.1953 -0.1640
 1318W        W 5382  10.898   8.404   3.073  0.2728  0.0877  0.1558
 1319W        W 5383   7.178   4.400  10.866 -0.0539 -0.0461 -0.1366
 1320W        W 5384   7.544   7.306   2.557  0.2156  0.2993  0.2981
 1321W        W 5385   9.727   5.862   1.091  0.0900 -0.3051  0.0828
 1322W        W 5386   2.190   4.863   1.578  0.2559 -0.2280 -0.5118
 1323W        W 5387   9.691  10.162   3.782  0.3803  0.0471 -0.0034
 1324W        W 5388   1.598   9.270   2.050  0.1991  0.0177  0.0797
 1325W        W 5389   7.077   3.947   0.100 -0.0948 -0.2311  0.1216
 1326W        W 5390   3.397   9.967   0.031 -0.1507  0.0954 -0.1232
 1327W        W 5391   8.422  10.160  10.754 -0.0302 -0.0793 -0.0038
 1328W        W 5392  10.656   3.255   2.401 -0.1875  0.2859 -0.0324
 1329W        W 5393   4.100   0.360   8.200 -0.0196  0.0178 -0.0331
 1330W        W 5394   4.404   7.931   1.146  0.0602 -0.0914  0.0754
 1331W        W 5395   6.131   1.362  10.007 -0.2630 -0.0775  0.2036
 1332W        W 5396   7.931   8.289  10.215  0.2602 -0.1053  0.1775
 1333W        W 5397   7.660   6.550  10.008  0.1637  0.0641 -0.0620
 1334W        W 5398   4.521   3.755   1.670 -0.0615  0.2275  0.3196
 1335W        W 5399  10.287   0.106   9.685  0.1875  0.3635  0.0721
 1336W        W 5400   6.722   5.002   0.646  0.1542  0.1370 -0.2092
 1337W        W 5401   0.831   8.828  10.030 -0.1412 -0.0962  0.2528
 1338W        W 5402  10.476   8.325   2.190 -0.2514 -0.0183 -0.0127
 1339W        W 5403   3.560  10.578   1.982 -0.2089 -0.0022  0.2802
 1340W        W 5404   3.812  10.331   2.342  0.3234  0.1871  0.0295
 1341W        W 5405   5.500   6.838   0.231  0.2729  0.3638  0.0687
 1342W        W 5406  10.084   7.556   0.786 -0.0834  0.1430  0.0374
 1343W        W 5407   8.416   1.231   3.296  0.0303  0.0557  0.0505
 1344W        W 5408   9.897   1.470  10.878  0.0144  0.1570 -0.0189
 1345W        W 5409   1.797   9.175   9.751 -0.0517 -0.1510  0.0914
 1346W        W 5410   8.580   6.092   9.052 -0.3697 -0.1689  0.0781
 1347W        W 5411   6.181   8.807   1.401  0.3468 -0.0333 -0.0012
 1348W        W 5412   3.968   3.837   2.941  0.2219  0.0248  0.0011
 1349W        W 5413   6.334   5.350   0.660 -0.0500  0.4979  0.1499
 1350W        W 5414   4.062   7.063   0.907  0.0075 -0.1474  0.1116
 1351W        W 5415   1.334   3.764  10.794  0.1411 -0.0815  0.1725
 1352W        W 5416   9.232   1.233   1.704 -0.1180 -0.0567  0.2674
 1353W        W 5417   8.344   1.909   0.060 -0.3788  0.2521  0.1675
 1354W        W 5418   8.070   2.943  10.685  0.1455 -0.0594  0.2545
 1355W        W 5419   8.600   7.190   9.995  0.0886  0.1829  0.0191
 1356W        W 5420   2.548   2.246   8.085 -0.1756  0.0182 -0.0676
 1357W        W 5421   6.064   0.468  10.886 -0.0398 -0.2033 -0.0954
 1358W        W 5422   3.489  10.290   0.996 -0.0636 -0.1586  0.1010
 1359W        W 5423   8.533   2.860   8.375  0.0713 -0.2757 -0.1916
 1360W        W 5424   3.178   9.480   0.094  0.1504 -0.1923 -0.0566
 1361W        W 5425  10.701   8.599   9.669  0.4067  0.1097 -0.1576
 1362W        W 5426   0.923   5.291   8.959 -0.2027 -0.2777 -0.1947
 1363W        W 5427   1.232   5.669   1.249  0.2222 -0.2382  0.0452
 1364W        W 5428   7.658  10.806  10.606  0.1911 -0.0598 -0.0052
 1365W        W 5429  10.275   6.937   0.771 -0.0693 -0.5689 -0.1872
 1366W        W 5430   0.770   2.459   9.810  0.0855  0.1627  0.0875
 1367W        W 5431   2.442   1.590  10.689  0.0939  0.2755 -0.1047
 1368W        W 5432  10.158   9.384   2.994  0.2630  0.3623  0.0887
 1369W        W 5433   9.803   1.552   9.258 -0.0451 -0.1244 -0.0479
 1370W        W 5434   2.645   9.789   0.923 -0.1681 -0.1272  0.0885
 1371W        W 5435  10.178   6.197   0.240  0.1825 -0.4016 -0.0524
 1372W        W 5436   6.693   0.833   7.650 -0.4797 -0.2250  0.2735
 1373W        W 5437  10.482   6.523  10.252  0.1024  0.0031  0.0271
 1374W        W 5438   3.048   6.421   3.081 -0.2618  0.1003 -0.2295
 1375W        W 5439   0.449   6.034  10.852 -0.0284 -0.1027 -0.2558
 1376W        W 5440   0.992   3.833   1.363 -0.3306 -0.0189  0.2431
 1377W        W 5441   2.472   6.067  10.177 -0.1476  0.3833  0.1189
 1378W        W 5442   6.731   6.163   0.719 -0.0561 -0.0893 -0.2162
 1379W        W 5443   5.424   6.425   7.578 -0.2304  0.2249  0.2166
 1380W        W 5444   8.188   8.377   1.015  0.0399 -0.1433 -0.1733
 1381W        W 5445   8.941   1.311   1.282  0.1375 -0.0131 -0.1187
 1382W        W 5446   8.754   2.591   1.485 -0.1413  0.0401 -0.0044
 1383W        W 5447   9.053   8.291   9.054  0.1594  0.1448  0.2713
 1384W        W 5448   5.110   7.381   9.211  0.1311  0.1158  0.2922
 1385W        W 5449   8.131   8.147   7.548 -0.2753  0.1660 -0.4023
 1386W        W 5450   3.221  10.577  10.184  0.0160 -0.2497 -0.1462
 1387W        W 5451   9.578   1.628   0.241  0.2827  0.0758  0.0609
 1388W        W 5452   1.763   4.656   0.571 -0.0154 -0.0513 -0.0534
 1389W        W 5453   3.020   2.454   9.960 -0.3110 -0.0377 -0.1472
 1390W        W 5454   0.461   1.090   1.798  0.1185 -0.0715 -0.1967
 1391W        W 5455   7.320   6.614   0.703  0.0985 -0.3279  0.0735
 1392W        W 5456   7.671   8.135  10.659 -0.0416 -0.2843  0.0937
 1393W        W 5457   9.599  10.236   0.192  0.1070 -0.2464  0.3025
 1394W        W 5458   6.400   5.484   9.383  0.1212 -0.0682 -0.0400
 1395W        W 5459   1.291   6.695   0.908  0.0684 -0.2285 -0.1550
 1396W        W 5460   2.854   6.040   9.815 -0.0419 -0.0537  0.0318
 1397W        W 5461   7.095  10.892  10.402 -0.1308 -0.2002 -0.0704
 1398W        W 5462   9.724   7.820   8.337  0.2743 -0.3174  0.3508
 1399W        W 5463   9.209   4.668   3.499 -0.2284 -0.2710  0.1348
 1400W        W 5464   1.295   6.768   0.428  0.1523  0.0036  0.2397
 1401W        W 5465   8.352   6.170   1.904  0.0236 -0.1491  0.0851
 1402W        W 5466   4.496   7.064   1.209  0.1257 -0.2433  0.2336
 1403W        W 5467   2.862   8.692   0.129 -0.0360  0.1565  0.1195
 1404W        W 5468   3.994   6.546  10.492  0.1519  0.0180  0.0580
 1405W        W 5469   2.263   8.921   0.832 -0.1634 -0.1220 -0.0651
 1406W        W 5470   7.192   3.888  10.192  0.0901 -0.0653  0.1515
 1407W        W 5471   2.184   1.720   3.066  0.1277  0.0166  0.1741
 1408W        W 5472   5.986   7.666   9.244  0.3262 -0.4028 -0.0977
 1409W        W 5473   9.013   2.734   8.367  0.1386 -0.0029  0.2819
 1410W        W 5474   8.192   0.694   2.669 -0.0827 -0.0128  0.1861
 1411W        W 5475   9.362  10.191   2.878 -0.1544 -0.0961 -0.0504
 1412W        W 5476   9.552   6.210  10.609  0.0765  0.0740  0.1228
 1413W        W 5477   8.703   8.470   1.679 -0.1713  0.2837  0.0366
 1414W        W 5478   3.710   6.233   8.281  0.0306 -0.0842  0.1706
 1415W        W 5479   3.932   8.756   1.366  0.4124 -0.0520 -0.1287
 1416W        W 5480   1.225   9.014   2.262  0.2457  0.3979 -0.3801
 1417W        W 5481   5.986   6.576   8.522 -0.0435 -0.0794 -0.4265
 1418W        W 5482   8.520   5.903   2.256 -0.3721  0.1598 -0.0671
 1419W        W 5483   6.864   2.236   7.843  0.4259  0.2445  0.0357
 1420W        W 5484   2.671   4.579   9.651  0.0292 -0.2193  0.1500
 1421W        W 5485   1.905   2.615   1.908 -0.0088  0.2584 -0.0584
 1422W        W 5486   5.844   9.838   3.234 -0.0714 -0.2428  0.0611
 1423W        W 5487   4.010   9.674   0.106  0.2346 -0.0683 -0.2366
 1424W        W 5488   8.653   2.444  11.003 -0.2952 -0.1120  0.1223
 1425W        W 5489   2.405   0.821   7.637  0.1493  0.2672  0.0622
 1426W        W 5490   2.305   6.960  10.626  0.1449  0.2790 -0.2226
 1427W        W 5491   5.370   9.878   0.156 -0.2024 -0.1942  0.2881
 1428W        W 5492   1.159   0.170   7.741  0.0341  0.2004 -0.3785
 1429W        W 5493  10.164   6.139   3.161  0.2084  0.1746  0.1335
 1430W        W 5494   0.939   4.634   9.371  0.0329 -0.0409  0.1416
 1431W        W 5495   4.527   5.093   1.679 -0.0262  0.3057  0.2184
 1432W        W 5496   0.959   5.677   0.349  0.0756 -0.0598  0.0276
 1433W        W 5497   7.190   4.973  10.885 -0.1113  0.0067 -0.1567
 1434W        W 5498   5.459   1.000   8.907  0.1169  0.1374  0.0617
 1435W        W 5499   2.842   0.806   4.264  0.0818 -0.2069 -0.0597
 1436W        W 5500   8.795   2.230  10.537  0.0108 -0.0058  0.4472
 1437W        W 5501   5.916   7.849   9.697  0.1933 -0.1467 -0.0799
 1438W        W 5502   5.185   8.819   8.022  0.3894  0.0432 -0.3044
 1439W        W 5503   8.785   5.941   3.131  0.1186 -0.0622 -0.0101
 1440W        W 5504   0.579   7.430  10.268 -0.4203  0.2076  0.0581
 1441W        W 5505   4.942   6.058   0.088 -0.0638 -0.0786  0.1198
 1442W        W 5506   2.672   9.629   9.559  0.0612 -0.2367 -0.0217
 1443W        W 5507   2.373   3.687   3.461  0.0990  0.0677 -0.1080
 1444W        W 5508   7.574   8.449   7.193  0.0445 -0.1876  0.0078
 1445W        W 5509   2.054   0.531   0.267  0.1822 -0.2969 -0.2377
 1446W        W 5510   5.003   9.141   0.362  0.0638  0.2407 -0.1890
 1447W        W 5511   5.941  10.167   1.056  0.4713  0.2882 -0.0648
 1448W        W 5512   0.130   4.965   8.923 -0.0045 -0.0617  0.1397
 1449W        W 5513   8.844   7.564  10.368  0.2690  0.4177  0.4510
 1450W        W 5514   7.153   2.262   7.315 -0.0242  0.1219 -0.1960
 1451W        W 5515  10.717   1.699   0.639  0.1481  0.1986 -0.0824
 1452W        W 5516   5.072   3.660   3.400  0.4196 -0.0438 -0.0111
 1453W        W 5517   4.777   5.182   7.775 -0.2529 -0.0376  0.1523
 1454W        W 5518   7.720   5.621   9.458 -0.1184  0.0633 -0.1503
 1455W        W 5519   8.620   9.796  10.182 -0.1752  0.2016 -0.2288
 1456W        W 5520   5.974  10.334   8.401  0.0138  0.0485  0.0973
 1457W        W 5521   9.642   5.309   9.725  0.1469 -0.2532 -0.1019
 1458W        W 5522   7.151   6.671   1.575 -0.1597 -0.0557 -0.0428
 1459W        W 5523   7.568   6.535   1.212  0.2035  0.3346 -0.0154
 1460W        W 5524   5.296   4.931   3.387 -0.0645  0.0625 -0.3450
 1461W        W 5525   1.842   9.835   0.822  0.0992 -0.3050 -0.3526
 1462W        W 5526   3.796   7.810   8.588 -0.2009 -0.4080 -0.1585
 1463W        W 5527   6.904  10.298   8.629 -0.1357  0.2282 -0.2192
 1464W        W 5528   7.189   5.107   1.501  0.0914  0.1053  0.1928
 1465W        W 5529   0.481   2.569   0.910 -0.0106 -0.0372  0.4990
 1466W        W 5530   0.615   0.631   2.792 -0.2245 -0.1526  0.1291
 1467W        W 5531   8.985   4.332   7.630 -0.0298 -0.1317 -0.4326
 1468W        W 5532   1.028   7.077   7.973 -0.4627 -0.0143 -0.0309
 1469W        W 5533   9.823   6.852   3.530 -0.1763 -0.2602 -0.0148
 1470W        W 5534   4.954   0.786  10.207  0.1758  0.1241  0.0749
 1471W        W 5535   2.566   5.343   8.081  0.0814 -0.0348 -0.2338
 1472W        W 5536  10.459   2.466   3.201  0.1239  0.1426  0.1757
 1473W        W 5537  10.736   5.197   8.553  0.1839  0.0418 -0.1200
 1474W        W 5538   4.496   7.065   2.609  0.0570  0.2277  0.2235
 1475W        W 5539   6.625   7.563   3.032 -0.0411  0.2430  0.0101
 1476W        W 5540   9.675   2.080   9.317  0.1076 -0.1121 -0.1219
 1477W        W 5541   5.640   5.462   9.971 -0.1231  0.4801 -0.0316
 1478W        W 5542   5.010   8.348   7.830  0.2046 -0.2606  0.4005
 1479W        W 5543  10.773   2.421   2.715 -0.0304 -0.1773 -0.2000
 1480W        W 5544   0.241   9.402   7.936  0.0352  0.0322  0.1755
 1481W        W 5545   1.713   6.642  10.275  0.1965  0.1250  0.3002
 1482W        W 5546   2.751   5.849   2.989 -0.0227 -0.0351  0.1587
 1483W        W 5547   8.895   7.591   1.510  0.2178  0.2619 -0.2821
 1484W        W 5548   4.412   4.107   0.150  0.1376 -0.0192  0.0810
 1485W        W 5549   3.365   7.935  10.441 -0.1126 -0.2544  0.0085
 1486W        W 5550  10.239   5.150  10.453  0.0224 -0.2052 -0.1362
 1487W        W 5551   6.458   0.212   8.251  0.1145 -0.0335 -0.2348
 1488W        W 5552   3.773   3.108   3.844  0.2066  0.0627  0.1135
 1489W        W 5553   9.124   0.296   2.542 -0.1149  0.1593 -0.0657
 1490W        W 5554   2.048  10.373   7.336 -0.2593 -0.0438 -0.1046
 1491W        W 5555  10.701   1.390   1.631 -0.0957 -0.0966 -0.0947
 1492W        W 5556   0.540   3.831   3.791  0.2493 -0.2453  0.0583
 1493W        W 5557  10.092   0.976  10.873 -0.3825  0.2302 -0.2375
 1494W        W 5558   7.036   7.451   7.850  0.0753 -0.2043  0.3851
 1495W        W 5559   9.128   9.591  10.838 -0.1997  0.0679 -0.1530
 1496W        W 5560   0.101   4.891  10.627 -0.2066  0.0490 -0.0431
 1497W        W 5561   9.247  10.847   7.969 -0.0000 -0.1476  0.0416
 1498W        W 5562   4.109   2.653   2.847  0.2215  0.0890  0.0736
 1499W        W 5563  10.454   3.201   3.697 -0.0086  0.0266 -0.0488
 1500W        W 5564   4.746   0.016   3.337 -0.1191  0.1624 -0.2091
 1501W        W 5565   5.257  10.295   1.950 -0.2880 -0.0072 -0.1218
 1502W        W 5566   8.999   8.530  10.509 -0.1322  0.2613 -0.0665
 1503W        W 5567   3.701   3.211   8.956  0.1345 -0.0724  0.0838
 1504W        W 5568   2.936   8.053  10.617  0.0937 -0.1159 -0.2701
 1505W        W 5569   0.062   1.467   3.116  0.0952 -0.3387  0.1655
 1506W        W 5570   2.207  10.611   0.275 -0.0353  0.1881 -0.1296
 1507W        W 5571   3.484   2.892   3.340  0.0905 -0.0952  0.2865
 1508W        W 5572   0.844   6.255   9.901 -0.0205 -0.1668  0.0857
 1509W        W 5573   7.720   9.791   2.141  0.0661  0.0583 -0.0554
 1510W        W 5574   1.735   3.821   8.971  0.1616 -0.1240 -0.2130
 1511W        W 5575   7.015   0.928   9.621  0.0163 -0.3369 -0.1284
 1512W        W 5576   9.832   6.925   9.883 -0.2195 -0.1142 -0.0522
 1513W        W 5577   3.867   7.366   8.423 -0.1062 -0.0729  0.0460
 1514W        W 5578   5.076   0.885   1.931  0.0998  0.1838  0.1345
 1515W        W 5579   6.487   6.885   8.017 -0.1511  0.1035  0.1333
 1516W        W 5580   4.068   5.663   3.317  0.1548  0.0284 -0.2729
 1517W        W 5581   9.966   7.773   3.434 -0.3773 -0.1144 -0.2043
 1518W        W 5582   7.926  10.786   2.898  0.1035 -0.3259  0.1076
 1519W        W 5583   0.836   4.592  11.007 -0.0333  0.0840 -0.4318
 1520W        W 5584   3.826   8.822   2.202 -0.1363  0.2964 -0.0099
 1521W        W 5585   1.744   4.846   9.919  0.0854  0.4947 -0.0841
 1522W        W 5586   4.768   1.830   2.181 -0.1668  0.0406  0.2213
 1523W        W 5587   0.785   5.923   2.701  0.2081 -0.1221  0.0479
 1524W        W 5588   9.242   4.839   9.371 -0.1909 -0.3753 -0.0096
 1525W        W 5589  10.082   3.474  10.884 -0.1893 -0.0869  0.0833
 1526W        W 5590   1.267   1.306  10.226  0.0536 -0.4055 -0.2894
 1527W        W 5591   6.683   2.318   8.708  0.2276 -0.0867 -0.0343
 1528W        W 5592   7.311   6.193   8.807  0.1130  0.3385 -0.0171
 1529W        W 5593  10.829   6.498   8.303  0.1465  0.3410  0.0826
 1530W        W 5594   9.170   3.686   2.189  0.4094  0.1429 -0.5887
 1531W        W 5595   5.210   9.269   0.817 -0.1407  0.0057  0.0270
 1532W        W 5596  10.233   1.413   1.858 -0.0521  0.0109 -0.3914
 1533W        W 5597   7.070   5.694   0.089 -0.1847 -0.1140 -0.1709
 1534W        W 5598   6.350   7.135  10.283  0.0215  0.1761 -0.0664
 1535W        W 5599   9.975   6.610   0.482  0.0449 -0.0826  0.0931
 1536W        W 5600   4.973   5.775   7.940  0.0229 -0.0631 -0.1645
 1537W        W 5601   2.317   9.924   9.389 -0.0764  0.0087  0.1578
 1538W        W 5602   0.172   0.539   9.704  0.0160 -0.1322 -0.0499
 1539W        W 5603  10.629   6.871   1.224  0.4485 -0.2183  0.2548
 1540W        W 5604   0.138   0.264   1.727  0.2354 -0.0812 -0.0888
 1541W        W 5605   0.348   3.472  10.261  0.2019  0.1162 -0.3754
 1542W        W 5606   3.482   8.093  10.927 -0.2008 -0.0979 -0.0187
 1543W        W 5607   0.887   3.338   1.348  0.2045  0.3162  0.1797
 1544W        W 5608   4.658   2.832   2.453  0.0371  0.1908  0.0963
 1545W        W 5609   8.866   6.040   1.153 -0.0989 -0.2105 -0.3194
 1546W        W 5610   8.948   8.788   9.174  0.0409  0.0597  0.0520
 1547W        W 5611   9.626   4.222   8.770 -0.0246 -0.0148 -0.4692
 1548W        W 5612   3.167   2.639   7.527 -0.0958  0.1549 -0.1515
 1549W        W 5613   3.981   5.260   8.044 -0.0448 -0.1044 -0.2325
 1550W        W 5614   1.305   3.621   9.574 -0.4465 -0.2518 -0.0509
 1551W        W 5615   3.675   3.239   1.168  0.0204  0.2693 -0.2024
 1552W        W 5616   8.982   0.086   3.352 -0.4259  0.0244 -0.0071
 1553W        W 5617   5.322   8.239  10.012  0.3873  0.0959 -0.1799
 1554W        W 5618   3.636   8.300   7.940  0.2789 -0.0713 -0.1324
 1555W        W 5619   4.245   7.995   7.761 -0.1429  0.0712 -0.0665
 1556W        W 5620   7.181   1.605   1.694 -0.0357  0.3008  0.2537
 1557W        W 5621   8.424   6.713   2.231  0.0248 -0.4115  0.1843
 1558W        W 5622   5.236  10.321   9.678  0.1178 -0.2170  0.0531
 1559W        W 5623   4.224   3.670   0.002  0.1053 -0.0231 -0.2974
 1560W        W 5624   0.431   1.489   8.190 -0.2154 -0.1890 -0.2319
 1561W        W 5625   6.536   8.011  10.287 -0.3662  0.1348  0.0381
 1562W        W 5626   3.136   5.434   1.487 -0.1345 -0.0761 -0.0678
 1563W        W 5627   5.354   8.289   1.997 -0.1377  0.0009 -0.2666
 1564W        W 5628   9.786   9.764   2.931 -0.2786 -0.2078 -0.0398
 1565W        W 5629   0.017   2.166  10.081 -0.1789  0.1651  0.0851
 1566W        W 5630   2.547   0.240   3.600 -0.0591  0.0603  0.1000
 1567W        W 5631  10.075   9.527  10.377  0.3141  0.1539  0.0125
 1568W        W 5632   3.376  10.055   9.312  0.0867 -0.1765  0.3081
 1569W        W 5633   6.657   3.946   2.637 -0.0433  0.1083  0.0632
 1570W        W 5634   7.188   5.897   9.802 -0.1169  0.0942 -0.2680
 1571W        W 5635   8.224   5.224  10.619  0.2143  0.4601  0.0868
 1572W        W 5636   2.194   5.509   8.407  0.1776 -0.1670 -0.3226
 1573W        W 5637  10.620   4.025   3.438 -0.1360 -0.0585  0.0990
 1574W        W 5638   2.127   9.552   8.021 -0.0019 -0.3326 -0.0858
 1575W        W 5639   3.791   2.075   1.631  0.2901 -0.2337  0.2122
 1576W        W 5640   5.552   4.306   1.023 -0.3239  0.0773  0.2914
 1577W        W 5641   1.644   1.632  10.408  0.2116 -0.1805  0.1685
 1578W        W 5642   1.346   5.740   7.619 -0.3336  0.0626  0.0263
 1579W        W 5643   8.789   9.975   7.609 -0.1338 -0.0387 -0.3155
 1580W        W 5644   6.790   1.939   9.638  0.0577 -0.1621 -0.1738
 1581W        W 5645   7.231   2.162   1.791 -0.0511 -0.0280  0.0901
 1582W        W 5646   8.460   8.684  10.877 -0.2050 -0.1970  0.0474
 1583W        W 5647   5.737   3.208  10.554  0.0709 -0.2293 -0.0572
 1584W        W 5648   8.175   8.918   2.022  0.2590  0.0459  0.2532
 1585W        W 5649   0.549   4.069   7.508 -0.1474 -0.2865 -0.0150
 1586W        W 5650   3.504   3.109  10.968 -0.1117  0.0361 -0.2290
 1587W        W 5651   9.299   1.446  10.784  0.4058 -0.0653 -0.2231
 1588W        W 5652   3.200   9.727  10.500 -0.2118  0.2015 -0.1293
 1589W        W 5653   9.577   7.951   0.218  0.2006  0.2481  0.0598
 1590W        W 5654   9.999   6.212   9.439 -0.1767  0.0554  0.1434
 1591W        W 5655   4.424   6.989   7.444 -0.0518  0.0404 -0.1181
 1592W        W 5656   7.526   9.513  10.469 -0.0352 -0.1812  0.1759
 1593W        W 5657   7.821   7.585   2.239 -0.0018 -0.2457 -0.2341
 1594W        W 5658   8.586  10.332   0.920  0.2896 -0.2442 -0.2247
 1595W        W 5659   0.199   4.703   7.333 -0.0538 -0.3681  0.0318
 1596W        W 5660   8.797   5.147   2.239  0.0165 -0.2434  0.1158
 1597W        W 5661   7.320   9.289  10.040 -0.1438 -0.1849  0.0758
 1598W        W 5662   4.849   5.222   7.271 -0.0134 -0.0633  0.2214
 1599W        W 5663   5.327   9.193   9.167 -0.1187  0.0849 -0.1249
 1600W        W 5664   5.774   4.597   0.636  0.0132 -0.3462 -0.2783
 1601W        W 5665   8.542   8.098   2.867  0.0134 -0.0881  0.0760
 1602W        W 5666   2.979   0.521   1.030 -0.1079 -0.1678 -0.0145
 1603W        W 5667   0.838   0.404  10.332  0.1665 -0.2723  0.1028
 1604W        W 5668   6.862  10.695   9.017 -0.0027  0.0139 -0.1340
 1605W        W 5669   0.187   9.993   9.424  0.1771 -0.1122 -0.0845
 1606W        W 5670   5.330   7.412   7.204 -0.2931 -0.1335  0.2365
 1607W        W 5671   4.139   7.482   1.335  0.0846 -0.0311 -0.0694
 1608W        W 5672   6.504   4.721   7.970  0.2430  0.0291  0.0710
 1609W        W 5673   0.267  10.738   8.308  0.2687 -0.0411  0.2600
 1610W        W 5674   0.664   6.938   1.542 -0.0955  0.1987  0.1188
 1611W        W 5675   8.291   4.192   3.461  0.2624  0.0982  0.1584
 1612W        W 5676   4.203   5.379   1.370 -0.0735 -0.0055 -0.1893
 1613W        W 5677   6.942   5.394  10.781 -0.1178 -0.5112  0.0305
 1614W        W 5678   2.454   7.943   9.206 -0.1444 -0.0484 -0.1726
 1615W        W 5679   1.372   3.121   3.065 -0.1512  0.1826  0.0003
 1616W        W 5680   5.031   8.780   8.580 -0.0607  0.3549  0.0847
 1617W        W 5681   4.062  10.809  10.600  0.0091  0.1753  0.0489
 1618W        W 5682   9.333   8.799   7.389 -0.3277 -0.0047  0.0184
 1619W        W 5683   4.487   9.832   0.061 -0.1073 -0.1542 -0.1563
 1620W        W 5684   5.290   9.584   1.508  0.1004 -0.1387  0.0809
 1621W        W 5685   0.049   4.310  10.689  0.0923 -0.2296  0.0313
 1622W        W 5686   5.438   3.556  10.947 -0.4212 -0.0250  0.0924
 1623W        W 5687   7.081   2.240   3.248  0.1212  0.1838 -0.0003
 1624W        W 5688   2.789   5.706   2.372 -0.0821  0.3031  0.0551
 1625W        W 5689   1.776  10.485   3.120  0.1002  0.1776 -0.2416
 1626W        W 5690   1.517   8.043   2.841  0.0716 -0.1431 -0.0506
 1627W        W 5691   9.515   8.896   0.445 -0.1037  0.0784 -0.3428
 1628W        W 5692   1.215   0.856   6.763 -0.0307 -0.3205  0.0564
 1629W        W 5693   1.210   7.657   1.395  0.0640  0.1657 -0.1224
 1630W        W 5694   1.696   4.189   9.309  0.2842  0.2549 -0.0875
 1631W        W 5695   3.212   5.211   2.342 -0.2102  0.0375 -0.0308
 1632W        W 5696   7.905   1.884   3.484 -0.4225  0.2276  0.1375
 1633W        W 5697   3.551   5.796   0.634 -0.1382  0.2665  0.0565
 1634W        W 5698   2.291   3.333   1.011  0.0375 -0.0481  0.1581
 1635W        W 5699   0.386   8.520   2.132  0.0176  0.1673 -0.1223
 1636W        W 5700   8.645   9.532   0.112 -0.0220 -0.1794  0.2508
 1637W        W 5701   2.625  10.604   2.945  0.1073  0.0023  0.1138
 1638W        W 5702   1.904  10.573   9.806 -0.2297 -0.1715 -0.2099
 1639W        W 5703   6.643   9.352   9.411  0.2579 -0.0499  0.4279
 1640W        W 5704   8.977   4.518   3.060 -0.0103 -0.3039  0.2034
 1641W        W 5705   8.447  10.348   3.415 -0.0378 -0.0395  0.1651
 1642W        W 5706   4.633   4.458   3.137  0.1161  0.1024 -0.3430
 1643W        W 5707   3.036   5.402   0.372 -0.2677 -0.2157  0.0342
 1644W        W 5708   0.125   4.982   3.730 -0.0643 -0.0376 -0.2677
 1645W        W 5709   1.340   1.150   0.612 -0.0495  0.0938  0.0389
 1646W        W 5710   9.745   4.642   1.199 -0.1641 -0.0345  0.0545
 1647W        W 5711   0.481   4.822   9.684  0.0511  0.2990 -0.2144
 1648W        W 5712   4.338   7.196   2.146 -0.0169  0.2567 -0.0836
 1649W        W 5713   1.651   5.292   4.343 -0.2145  0.0415  0.4531
 1650W        W 5714   0.247   5.645  10.028 -0.5177  0.0556 -0.0929
 1651W        W 5715   3.753  10.775   3.124  0.2359 -0.0991  0.1772
 1652W        W 5716   3.217   4.384   0.463  0.0207  0.1055  0.0263
 1653W        W 5717   0.553   8.250   1.046 -0.2478  0.0867 -0.3301
 1654W        W 5718   1.160   1.727  10.625 -0.0914 -0.0063  0.0092
 1655W        W 5719   6.621   8.083   3.106 -0.1517 -0.2048 -0.1260
 1656W        W 5720   6.065  10.385   0.586 -0.0894  0.3883 -0.1049
 1657W        W 5721   5.806   9.018   2.344  0.0776 -0.1411 -0.3057
 1658W        W 5722   4.051   5.053  10.876  0.3925 -0.1153  0.3345
 1659W        W 5723   2.586   4.149   1.082  0.0102 -0.1826  0.2558
 1660W        W 5724   7.567   6.032   1.258  0.1535  0.1476  0.2866
 1661W        W 5725   2.415   0.333   7.849 -0.2069 -0.2037  0.2221
 1662W        W 5726   0.891   2.088   3.034  0.3544  0.0604 -0.0005
 1663W        W 5727   9.132   9.171   2.043 -0.0436  0.0436 -0.0219
 1664W        W 5728   8.492   5.774   7.576 -0.0691  0.3748  0.0072
 1665W        W 5729   9.224   6.515   8.014  0.1664 -0.2391  0.2523
 1666W        W 5730   9.431   8.778   8.064 -0.0954  0.0277 -0.1856
 1667W        W 5731   1.609   0.673   6.940  0.1740 -0.0382  0.2409
 1668W        W 5732   1.957   2.989   0.593  0.0302 -0.0848  0.4523
 1669W        W 5733   9.005   1.404   9.013 -0.3261  0.2019  0.0161
 1670W        W 5734   4.845   8.635   1.279  0.2041 -0.2837 -0.2725
 1671W        W 5735   9.216   0.543  10.040 -0.0781  0.2434 -0.2491
 1672W        W 5736   7.527   1.667  10.988 -0.5519  0.0344 -0.0274
 1673W        W 5737   6.569   8.884   1.731  0.3648  0.4012 -0.2730
 1674W        W 5738   8.761   5.045   1.757 -0.3233  0.1727  0.0677
 1675W        W 5739   5.996   2.340   1.260  0.1996 -0.0005 -0.0964
 1676W        W 5740   5.482   7.685   9.523  0.1128 -0.0216  0.0050
 1677W        W 5741   3.550   2.359   0.655 -0.0162 -0.0961 -0.0936
 1678W        W 5742   8.708   2.552   0.992 -0.1450 -0.0547  0.0168
 1679W        W 5743   6.474   0.152   8.796 -0.1396  0.0935  0.1840
 1680W        W 5744   4.503   6.780   0.772 -0.0077  0.0215  0.5137
 1681W        W 5745  10.881   9.368  10.997 -0.0432 -0.1567  0.0450
 1682W        W 5746   2.533   8.957   2.877 -0.0602  0.2178  0.1119
 1683W        W 5747   5.142   1.617   2.457  0.0318  0.0828 -0.1341
 1684W        W 5748   5.955   7.857   0.818 -0.0083  0.1880  0.0890
 1685W        W 5749   5.408  10.211   0.930 -0.1018 -0.1260 -0.1644
 1686W        W 5750   2.401   1.034   0.418  0.1725  0.0100  0.2353
 1687W        W 5751   1.267  10.459   8.766  0.3040 -0.2288 -0.0836
 1688W        W 5752   8.843   6.846  10.888  0.1954 -0.2193 -0.0885
 1689W        W 5753   7.288   7.330   0.196 -0.0277  0.1349  0.0913
 1690W        W 5754   4.136   8.823   9.510 -0.2886  0.1964 -0.0222
 1691W        W 5755   0.612   6.291   9.318 -0.1063 -0.1216  0.0792
 1692W        W 5756   3.049   7.393   8.807  0.0459 -0.1044  0.2732
 1693W        W 5757   1.480  10.911   8.184 -0.1629 -0.3627 -0.1615
 1694W        W 5758   9.079   6.763   1.690 -0.0433  0.0284 -0.0054
 1695W        W 5759   6.468   0.379   2.211 -0.0083 -0.1547  0.2104
 1696W        W 5760   3.765   6.599   1.637 -0.0901 -0.1052  0.2145
 1697W        W 5761   1.919   8.457  10.291  0.1384 -0.0905 -0.0522
 1698W        W 5762   1.937   0.286   8.976 -0.1177  0.0768 -0.5215
 1699W        W 5763   0.729   0.546   8.060  0.0111  0.0416 -0.1423
 1700W        W 5764   5.807  10.531  10.256 -0.0425 -0.0233  0.1485
 1701W        W 5765   4.025   3.287  10.244 -0.0045 -0.0024 -0.1173
 1702W        W 5766   3.847   7.215   8.904  0.0323  0.3778  0.1118
 1703W        W 5767   9.963  10.825   1.007  0.1450 -0.0912  0.3784
 1704W        W 5768   7.775   7.158   7.530 -0.2924 -0.0332  0.1784
 1705W        W 5769   8.836   3.037   7.668  0.1838 -0.0769  0.0538
 1706W        W 5770  10.327   3.213   8.853 -0.2951 -0.1071 -0.2783
 1707W        W 5771   9.952   8.063  10.933  0.1244  0.0059  0.0240
 1708W        W 5772   9.791   5.059   2.087 -0.1337 -0.1362 -0.0306
 1709W        W 5773   5.004   6.397   9.059 -0.2190 -0.0810  0.2393
 1710W        W 5774   3.213   9.317  10.204 -0.0241 -0.0816  0.1033
 1711W        W 5775   7.111   7.410   9.676  0.2349 -0.1855 -0.1689
 1712W        W 5776   2.007   7.472   8.382 -0.5882 -0.1338 -0.1267
 1713W        W 5777   7.816   0.944   2.409  0.1912 -0.3111  0.2961
 1714W        W 5778   0.416   3.037  10.535  0.1021  0.0284  0.1860
 1715W        W 5779   2.633   5.212   7.594  0.0453  0.1032 -0.1657
 1716W        W 5780  10.391   3.897   3.070  0.1148 -0.0911 -0.3743
 1717W        W 5781   5.413   9.134  10.163  0.3889 -0.1194 -0.1364
 1718W        W 5782   0.364   6.167   2.291 -0.2301  0.1831 -0.2679
 1719W        W 5783   6.170   3.123   1.545  0.0270  0.0969  0.0060
 1720W        W 5784   8.881  10.802   1.815  0.1479  0.3263 -0.1439
 1721W        W 5785   7.193   5.911   9.247  0.2026  0.0137 -0.0326
 1722W        W 5786   9.330   5.240   0.791  0.0908 -0.0393  0.3520
 1723W        W 5787   8.203   6.413   8.077 -0.0018  0.3865  0.0866
 1724W        W 5788   0.119   4.090   1.981 -0.1708 -0.0141 -0.0003
 1725W        W 5789  10.678   4.332   3.036  0.1650  0.1076  0.1135
 1726W        W 5790   8.349   2.857   2.255 -0.1489  0.4652 -0.1210
 1727W        W 5791   9.486   6.474   3.688  0.5657  0.2699 -0.0363
 1728W        W 5792   0.373   0.956   8.842 -0.3447  0.0215  0.0519
 1729W        W 5793   4.375   4.467   7.870  0.1558 -0.2969  0.0927
 1730W        W 5794  10.541   9.528   0.364  0.1638 -0.3604 -0.1304
 1731W        W 5795   7.568   9.357   8.761 -0.3590 -0.0724  0.0761
 1732W        W 5796   7.426   1.969   2.204  0.0061 -0.1124 -0.1737
 1733W        W 5797   6.483   9.286   0.062  0.0988 -0.2393 -0.3726
 1734W        W 5798   3.260   6.139   8.454 -0.2391 -0.0460  0.1150
 1735W        W 5799   0.585  10.831   9.146  0.1866 -0.0485 -0.1267
 1736W        W 5800  10.524   7.904   8.100  0.0594 -0.1146  0.2791
 1737W        W 5801   3.103   0.784  11.018 -0.0480  0.2440 -0.0124
 1738W        W 5802  10.397   6.376   8.081  0.0003  0.0116 -0.4818
 1739W        W 5803  10.151   0.091   1.502  0.0992  0.1503  0.1366
 1740W        W 5804  10.252   5.702   9.733  0.2901  0.1578  0.0135
 1741W        W 5805   9.595   5.478   8.627 -0.0994  0.0830  0.1395
 1742W        W 5806   5.560   8.939   2.914  0.1824  0.0809 -0.1197
 1743W        W 5807   6.276   3.722   7.876 -0.2879  0.0304 -0.0840
 1744W        W 5808   0.981   9.322   0.698  0.1266  0.0520  0.1428
 1745W        W 5809   7.549   9.641   0.755 -0.1389  0.1692  0.1152
 1746W        W 5810   0.106   0.103  10.472 -0.2618 -0.3082  0.1090
 1747W        W 5811   4.459   3.574   8.485  0.0534  0.0601 -0.0919
 1748W        W 5812   0.716   9.285   2.220  0.0119 -0.0532  0.3294
 1749W        W 5813   7.208   8.541   2.108  0.2129  0.1432 -0.2506
 1750W        W 5814   3.904   5.754   7.976 -0.0718 -0.1788 -0.1829
 1751W        W 5815   5.454   8.005   4.052  0.1012  0.1063 -0.3095
 1752W        W 5816   1.463   4.555   9.583  0.0176  0.0889 -0.0330
 1753W        W 5817   6.660   3.969  10.917 -0.1889 -0.0075  0.0299
 1754W        W 5818   9.814   1.014   7.738 -0.0250  0.0712  0.0786
 1755W        W 5819  10.053   6.201  10.357  0.0470  0.0744  0.2389
 1756W        W 5820   2.046   2.149   8.436  0.1138 -0.1870  0.1186
 1757W        W 5821   8.000   6.144  10.238 -0.1492 -0.1171 -0.0430
 1758W        W 5822   8.574   5.065   0.994 -0.2233  0.1112 -0.1649
 1759W        W 5823   7.196   6.060  10.805  0.0971  0.1393  0.2505
 1760W        W 5824   7.559   3.297   9.278  0.2573 -0.4644 -0.2026
 1761W        W 5825   0.344   0.189   7.965 -0.2412  0.2671 -0.3062
 1762W        W 5826   5.998   2.478   1.813  0.2537  0.2601  0.3330
 1763W        W 5827   7.136   6.931   9.647  0.2862 -0.1267 -0.0665
 1764W        W 5828   0.835   1.122   0.832 -0.1152  0.0509  0.0292
 1765W        W 5829   8.147   1.624   9.462 -0.0746 -0.0514 -0.1502
 1766W        W 5830   1.696   4.140  10.966  0.1186  0.4542  0.0360
 1767W        W 5831   6.541   2.319   0.491 -0.2204 -0.2072  0.1044
 1768W        W 5832   1.767   0.015   0.193  0.1459  0.2647 -0.0141
 1769W        W 5833   4.307   5.032   7.721 -0.0097 -0.1802 -0.2759
 1770W        W 5834   1.197   5.919   2.093  0.0526 -0.3786 -0.4331
 1771W        W 5835   9.356   5.796   9.686  0.2084 -0.0047  0.3993
 1772W        W 5836   0.185   8.697   8.563 -0.0486 -0.1807 -0.1093
 1773W        W 5837  10.207   7.882  10.000  0.0024  0.3175 -0.2068
 1774W        W 5838   3.828   1.377   0.347  0.1183  0.0774  0.1804
 1775W        W 5839   2.766  10.047   0.447 -0.3087 -0.1604  0.3653
 1776W        W 5840   1.293   1.911   3.732 -0.0544  0.2813  0.1250
 1777W        W 5841   2.737   1.774   8.121 -0.2193 -0.3008 -0.0891
 1778W        W 5842   4.658   9.757   1.362 -0.0354  0.2658 -0.1781
 1779W        W 5843   5.728   1.319   8.517  0.3329 -0.1316 -0.1557
 1780W        W 5844   7.960   7.824   1.511 -0.1194  0.2131  0.2796
 1781W        W 5845   0.100   4.834   2.322  0.3091  0.2871  0.0060
 1782W        W 5846   8.339   7.382   7.774  0.2261 -0.0041 -0.0696
 1783W        W 5847   7.443   6.644   3.231  0.0156  0.0034 -0.1729
 1784W        W 5848   4.836   7.946   0.003  0.1928 -0.0774  0.1879
 1785W        W 5849   9.089   4.690   8.043 -0.1519  0.0678  0.0330
 1786W        W 5850   8.251   2.649   0.748  0.0874 -0.2537  0.0599
 1787W        W 5851   9.450   0.064  10.555 -0.1582 -0.1672 -0.0868
 1788W        W 5852   5.988   7.913   0.304 -0.5312  0.3623  0.4315
 1789W        W 5853   8.440   5.380   1.418 -0.0801  0.2025 -0.0551
 1790W        W 5854   1.322   0.743  10.518  0.2088 -0.2536  0.1554
 1791W        W 5855   9.719   1.396   0.784 -0.1403  0.1449 -0.0649
 1792W        W 5856   2.039   5.182   3.563 -0.2021  0.1271  0.4900
 1793W        W 5857   6.948   4.344   2.517  0.1074  0.0514 -0.0589
 1794W        W 5858   1.885   0.550   9.366 -0.1066  0.3431  0.0675
 1795W        W 5859   2.528   5.679   1.875 -0.1420  0.0773  0.4255
 1796W        W 5860   8.471   5.173   2.716 -0.1498 -0.0023  0.0276
 1797W        W 5861   5.463   8.813   3.513 -0.2049  0.2912 -0.1983
 1798W        W 5862   1.003   5.802  10.876 -0.0879 -0.0318 -0.2016
 1799W        W 5863   1.047   8.122  10.265  0.1736 -0.1126  0.1909
 1800W        W 5864   1.483   4.932   8.191  0.1189 -0.0870  0.0966
 1801W        W 5865   1.101   9.151   1.835  0.1998  0.5920  0.0740
 1802W        W 5866   0.271   4.727  10.192  0.0416  0.0804  0.4051
 1803W        W 5867   0.412   6.778   9.253  0.0285 -0.1294 -0.1376
 1804W        W 5868   3.728   6.568  10.000  0.1567 -0.0804  0.1548
 1805W        W 5869   3.770   5.959   2.923  0.0737 -0.1711 -0.4113
 1806W        W 5870   4.534   5.285   1.033  0.0017 -0.1744  0.2596
 1807W        W 5871  10.303  10.083   2.303 -0.2526  0.1718 -0.0288
 1808W        W 5872   8.476   7.393   8.914  0.2027  0.1712  0.1349
 1809W        W 5873   9.178   3.893   9.684  0.0236  0.1359 -0.2037
 1810W        W 5874   6.499  10.713   2.166  0.0394  0.1809  0.0379
 1811W        W 5875   6.849   9.861   1.286  0.0056  0.0815 -0.2963
 1812W        W 5876   7.580   3.336   0.523 -0.0083 -0.0604  0.0254
 1813W        W 5877   0.242   0.417   0.171 -0.1803  0.2786  0.3931
 1814W        W 5878   2.071   8.650  10.739 -0.1124 -0.0896  0.3537
 1815W        W 5879   0.168  10.480   8.726 -0.0862  0.0793 -0.1507
 1816W        W 5880   5.351  10.015   2.894 -0.1349 -0.0433 -0.2247
 1817W        W 5881  10.481   6.632   7.152  0.0668 -0.0956 -0.1479
 1818W        W 5882   2.514   0.198   3.035  0.1130  0.2500  0.0938
 1819W        W 5883  10.811   2.277   1.486 -0.0538 -0.1207 -0.1775
 1820W        W 5884   6.266   4.099   2.913  0.0213  0.2699 -0.0825
 1821W        W 5885   9.224   7.003   8.716 -0.4165  0.0771 -0.2403
 1822W        W 5886   2.227   8.159   0.692 -0.0012 -0.2032  0.0659
 1823W        W 5887   4.700   0.302   0.647 -0.1250  0.0082  0.0805
 1824W        W 5888  10.904  10.166   7.132  0.1364 -0.0552  0.3125
 1825W        W 5889   9.106   3.534   8.293 -0.0185 -0.2252 -0.0670
 1826W        W 5890   3.009   4.994   1.243 -0.2594 -0.0106 -0.0314
 1827W        W 5891   1.191   3.699   7.581 -0.1874 -0.2292  0.3528
 1828W        W 5892   3.937   8.126   9.799  0.5246 -0.2363  0.1139
 1829W        W 5893   8.141   4.473   9.061  0.2445 -0.0384 -0.1322
 1830W        W 5894   7.520   8.518  10.906 -0.0090  0.2721 -0.1627
 1831W        W 5895   6.908   3.682   9.252  0.0525 -0.5060  0.1622
 1832W        W 5896   9.983   1.689   8.760  0.1292 -0.0901 -0.0721
 1833W        W 5897   3.417   4.160   0.866 -0.1676  0.3250  0.3250
 1834W        W 5898   9.178   9.940   8.062  0.2085 -0.0217  0.0449
 1835W        W 5899   3.638   5.974   7.244  0.1149  0.0140  0.2659
 1836W        W 5900   2.958   9.016   8.492 -0.0237  0.1038 -0.1714
 1837W        W 5901   5.656   3.190   1.532 -0.1864 -0.2203 -0.2230
 1838W        W 5902   5.329   4.613   8.766 -0.0176  0.0258  0.0345
 1839W        W 5903   3.884   9.723   9.278  0.1334 -0.0963  0.2202
 1840W        W 5904   9.589   9.751  10.961 -0.1938 -0.0468 -0.0944
 1841W        W 5905   8.331  10.494   2.929  0.1856 -0.1824  0.3746
 1842W        W 5906   1.509   6.485   3.055  0.1313 -0.4385  0.1578
 1843W        W 5907   2.148   9.801   8.823 -0.0571 -0.3358 -0.1077
 1844W        W 5908   3.833   3.367   7.539  0.1309 -0.0118  0.2352
 1845W        W 5909   3.149   2.079   0.522  0.1455 -0.0786  0.1987
 1846W        W 5910  10.493   7.829   0.680  0.0127  0.1454 -0.0180
 1847W        W 5911   8.087   9.683   1.470 -0.0647 -0.3682 -0.1819
 1848W        W 5912   4.871   1.300   1.468  0.0922 -0.1640 -0.0242
 1849W        W 5913   5.566  10.075   9.285  0.0436 -0.1065 -0.3414
 1850W        W 5914   1.188   4.883  10.694 -0.1386  0.1187 -0.0829
 1851W        W 5915   0.248   0.465   2.425 -0.0424  0.1506  0.0818
 1852W        W 5916   7.385   3.147  10.618  0.0673 -0.0216  0.1709
 1853W        W 5917   0.133   8.195   9.900  0.0724 -0.2484 -0.0117
 1854W        W 5918   6.287   2.629   8.642  0.0180 -0.1239 -0.1022
 1855W        W 5919   1.254   1.899   1.748  0.0368  0.2255 -0.0400
 1856W        W 5920   0.681   9.184   1.616  0.2980  0.3531  0.2144
 1857W        W 5921   3.148   6.447   9.833  0.5461 -0.1684  0.0611
 1858W        W 5922   8.296   2.090   9.730  0.1361 -0.0482 -0.1330
 1859W        W 5923   1.477   9.524   1.609  0.0539 -0.0984 -0.0870
 1860W        W 5924   4.437   6.052   2.608  0.2336  0.2714  0.0026
 1861W        W 5925   7.639   4.997   6.851 -0.0823  0.1885  0.2071
 1862W        W 5926   9.454   0.332   8.344  0.0723 -0.0753  0.2557
 1863W        W 5927   8.630   2.010   9.354  0.1829  0.1409 -0.0703
 1864W        W 5928   6.667   3.012   1.510 -0.0008  0.1745  0.1210
 1865W        W 5929   4.211   1.725   9.119  0.3469  0.0832 -0.0929
 1866W        W 5930   5.168   0.589   8.946 -0.2962  0.1714 -0.1148
 1867W        W 5931   8.816  10.909   2.859 -0.1268  0.0858 -0.3001
 1868W        W 5932   3.006   0.484   9.783 -0.3876 -0.3111 -0.1407
 1869W        W 5933   1.981   7.025   1.083  0.2121 -0.0526  0.4550
 1870W        W 5934   0.188   9.941   2.751 -0.0272 -0.1717  0.1463
 1871W        W 5935   4.417   2.689   1.997  0.2352 -0.0333 -0.1096
 1872W        W 5936   1.182   2.431   1.707 -0.0101  0.1870  0.0060
 1873W        W 5937   6.221   7.939  10.755  0.2360 -0.2305 -0.1194
 1874W        W 5938   0.700   1.039   8.105  0.1766  0.0083 -0.1048
 1875W        W 5939   1.013   2.854   9.907 -0.4366 -0.1062  0.2405
 1876W        W 5940   5.649   5.365   1.817 -0.1212  0.0392 -0.1614
 1877W        W 5941   0.101  10.321   2.416  0.3886 -0.2193  0.0415
 1878W        W 5942   6.146   4.652  10.695  0.1331  0.1135 -0.0006
 1879W        W 5943   6.950   2.094   9.160 -0.1074  0.1144  0.0744
 1880W        W 5944   8.335   7.435  10.394  0.0888  0.2491  0.4596
 1881W        W 5945   7.941   0.786   1.533 -0.0437  0.2597 -0.0242
 1882W        W 5946   6.304   7.010   9.706 -0.0299  0.0452  0.2537
 1883W        W 5947   9.022   5.670   0.747 -0.1275 -0.0641 -0.2191
 1884W        W 5948   0.419   7.345   3.083  0.1571  0.0771  0.3714
 1885W        W 5949   8.383   1.318   1.317 -0.4026  0.1452  0.2792
 1886W        W 5950   9.948   2.913   8.229 -0.0134  0.2945 -0.1754
 1887W        W 5951   9.143   7.045   1.118 -0.1330 -0.0212  0.0798
 1888W        W 5952   0.416   0.061   0.749 -0.1758 -0.1795 -0.2310
 1889W        W 5953  10.896   2.592   0.627  0.1908 -0.1796  0.3029
 1890W        W 5954   0.817   8.406   0.173 -0.3359 -0.0686 -0.0025
 1891W        W 5955   0.579   8.741  10.931 -0.2891  0.0575 -0.2750
 1892W        W 5956   3.767   7.927   1.769 -0.0386  0.3774 -0.2890
 1893W        W 5957   2.960   4.829   2.070  0.1484  0.1955  0.2397
 1894W        W 5958   1.963   9.863   8.366  0.1411 -0.0808 -0.1588
 1895W        W 5959   4.693   8.762   9.890  0.0610 -0.2891 -0.0042
 1896W        W 5960   8.748   1.365  10.143  0.3171  0.1800 -0.1355
 1897W        W 5961   2.767   3.175   1.091  0.0468 -0.2519  0.4424
 1898W        W 5962   8.197   3.482   1.219  0.2755 -0.2911 -0.2002
 1899W        W 5963  10.757   9.604   0.822 -0.0999  0.0949  0.0021
 1900W        W 5964   8.505   6.681   1.718  0.0387  0.5067  0.1385
 1901W        W 5965   2.396   7.080   0.103 -0.0378 -0.1467  0.1055
 1902W        W 5966   8.133   0.884   8.906  0.1470  0.2257 -0.1951
 1903W        W 5967   8.289   5.765   8.875  0.1535 -0.1283 -0.1046
 1904W        W 5968   9.729   5.066   9.307 -0.1346 -0.2128  0.3053
 1905W        W 5969   0.845   7.976   7.730  0.0695 -0.1600  0.1545
 1906W        W 5970   0.598   4.973   9.133 -0.2028 -0.1944 -0.0163
 1907W        W 5971   4.551   6.588   7.847 -0.2157 -0.1228 -0.2893
 1908W        W 5972   3.905   4.026   9.172 -0.3690  0.2664 -0.0758
 1909W        W 5973   2.094   7.494   1.367 -0.0401  0.0447 -0.1964
 1910W        W 5974   2.573   4.871   8.025 -0.1655 -0.0534  0.1955
 1911W        W 5975   1.291   3.069   9.546 -0.1785 -0.0686 -0.0377
 1912W        W 5976   6.576   3.937   1.167 -0.1394  0.1185  0.4939
 1913W        W 5977   2.887  10.211   6.844 -0.3723 -0.2338  0.3134
 1914W        W 5978   2.941   1.586   8.617  0.2380 -0.1927 -0.2689
 1915W        W 5979   3.195   9.127   0.488 -0.0877 -0.0174  0.0871
 1916W        W 5980   9.334   6.186   3.175  0.1513  0.0696  0.0083
 1917W        W 5981   2.389   0.301   8.331 -0.0790  0.1126 -0.1624
 1918W        W 5982   4.260   7.641  10.426  0.1930 -0.1933 -0.0210
 1919W        W 5983   4.620  10.838   2.015  0.2593 -0.0603 -0.1054
 1920W        W 5984   3.248  10.276   9.756 -0.1572 -0.1107 -0.4584
 1921W        W 5985   6.750   6.161   9.767 -0.0271 -0.0238 -0.1338
 1922W        W 5986   7.427   2.001   0.395  0.2363 -0.0353 -0.2316
 1923W        W 5987   3.949   2.389   0.390 -0.0375 -0.0418  0.1015
 1924W        W 5988   9.278   0.945  10.981 -0.0075  0.1304 -0.1465
 1925W        W 5989   1.065   3.933   3.229  0.5839  0.0123  0.0940
 1926W        W 5990   3.935   4.591   9.868  0.2221 -0.3089  0.0811
 1927W        W 5991  10.096   3.882   2.237  0.1330  0.0633 -0.0189
 1928W        W 5992   2.041   7.690   0.811 -0.0022  0.1204  0.0383
 1929W        W 5993   0.782   3.023   9.475  0.1080 -0.2521  0.5408
 1930W        W 5994   6.723   1.444   8.401  0.1090  0.0538 -0.2420
 1931W        W 5995   7.321   5.689   7.450  0.0917  0.0127 -0.2076
 1932W        W 5996   8.983   9.804   8.716 -0.0517  0.2352 -0.0331
 1933W        W 5997   5.436   8.431   0.646  0.2664  0.0451  0.1100
 1934W        W 5998   7.790   6.520  10.465  0.1494  0.5369 -0.3238
 1935W        W 5999   7.963   0.249   0.850  0.1493 -0.0191 -0.1577
 1936W        W 6000   7.169   3.114   2.686  0.5035 -0.0261 -0.1403
 1937W        W 6001   4.403   9.187   9.741  0.1348 -0.0352 -0.0953
 1938W        W 6002   5.631   1.990   3.840  0.0632  0.0839  0.2523
 1939W        W 6003  10.436   5.616   8.631 -0.1372 -0.0184  0.1210
 1940W        W 6004  10.788   5.484   0.250 -0.0623 -0.4564 -0.0756
 1941W        W 6005   9.980   0.609   8.028 -0.0009 -0.0186  0.3053
 1942W        W 6006   0.313   2.948   2.007 -0.3699  0.3382  0.3218
 1943W        W 6007   8.401  10.915   1.913 -0.3301 -0.0996 -0.1601
 1944W        W 6008   3.995   0.219   2.667 -0.1604  0.1617  0.0034
 1945W        W 6009   5.570   1.895   0.708 -0.0340  0.1741  0.1862
 1946W        W 6010   6.940   3.303   1.948  0.0011  0.1008  0.2629
 1947W        W 6011   4.458   9.916   0.976 -0.0270 -0.0239  0.1187
 1948W        W 6012   8.000   7.370   9.177  0.0912  0.3338 -0.1055
 1949W        W 6013   3.586   9.585  10.180 -0.0356 -0.0460  0.0777
 1950W        W 6014   7.308  10.162   9.884 -0.0601  0.2593  0.0392
 1951W        W 6015   4.789   2.873   1.633  0.1364 -0.2699 -0.2316
 1952W        W 6016   1.128   8.554   8.643  0.2873  0.1147 -0.0313
 1953W        W 6017  10.398   9.265   2.555 -0.4554  0.0235 -0.1294
 1954W        W 6018  10.076   0.072  10.325  0.2265  0.0103 -0.1514
 1955W        W 6019   9.229   3.631   3.728 -0.1398  0.2717 -0.0802
 1956W        W 6020   0.893   0.262   9.441 -0.0333 -0.1652  0.2303
 1957W        W 6021   5.831   4.128   1.718  0.2045  0.2441  0.4919
 1958W        W 6022   6.644   8.556   9.784  0.0420  0.1065 -0.3126
 1959W        W 6023   7.290   7.830   0.375 -0.1639 -0.0012 -0.0913
 1960W        W 6024   5.527   8.521   8.310  0.1020  0.1898  0.0976
 1961W        W 6025   9.342   4.880   3.042 -0.2122  0.2117  0.0381
 1962W        W 6026   2.882   8.420   7.740  0.1442 -0.0812  0.4107
 1963W        W 6027   4.090   9.424   8.346  0.0516  0.0588 -0.0220
 1964W        W 6028   2.689   8.992   0.539 -0.0466 -0.2713 -0.1476
 1965W        W 6029   1.688   4.275   0.908  0.1129  0.1210 -0.3032
 1966W        W 6030   9.954   1.933   7.736 -0.1547 -0.0184 -0.2708
 1967W        W 6031   2.549   0.772   3.328  0.4307  0.1581  0.0375
 1968W        W 6032   7.014   9.946   9.353  0.0624 -0.1914 -0.0065
 1969W        W 6033   9.750  10.171   8.846  0.2307  0.1410 -0.0208
 1970W        W 6034   3.669   9.912  10.641  0.1476  0.2167 -0.3602
 1971W        W 6035   6.276  10.248   1.986 -0.3842  0.0692 -0.2575
 1972W        W 6036  10.485  10.427   1.506 -0.0816 -0.2530 -0.1365
 1973W        W 6037   8.951   3.829  10.123 -0.2984  0.1680 -0.0971
 1974W        W 6038  10.063   7.962   7.873 -0.1393  0.0787 -0.2070
 1975W        W 6039   6.879   7.677   0.643 -0.1420 -0.0296 -0.4639
 1976W        W 6040   5.701   5.360   0.203  0.0305 -0.3276  0.0682
 1977W        W 6041   4.667   6.548   3.494  0.0491 -0.2827 -0.1727
 1978W        W 6042   1.362   6.172   0.122  0.1106 -0.3031 -0.0529
 1979W        W 6043   0.474  10.379   2.697  0.0189  0.2461 -0.0523
 1980W        W 6044   4.205   8.500   8.512  0.1079 -0.0799  0.0926
 1981W        W 6045   5.066   6.697   1.649  0.1461  0.2795  0.0470
 1982W        W 6046   9.164  10.147  10.179 -0.0826 -0.1096 -0.2355
 1983W        W 6047   5.816   4.346   2.172  0.1364 -0.1513  0.4310
 1984W        W 6048   1.243   0.029   7.258 -0.2955 -0.0932 -0.0023
 1985W        W 6049   7.963   3.145   1.490  0.1794  0.2776  0.1084
 1986W        W 6050  10.457   6.246  10.851 -0.1041 -0.0497 -0.2541
 1987W        W 6051   4.517   5.546   3.578 -0.0260  0.0995  0.3464
 1988W        W 6052   5.276  10.013  10.696 -0.2375  0.0186 -0.1960
 1989W        W 6053   5.858   3.353   8.983 -0.0992 -0.0326  0.0538
 1990W        W 6054   9.915   7.135   0.530 -0.2151  0.0372  0.1503
 1991W        W 6055   4.453   6.043   7.739  0.2181  0.2068  0.4192
 1992W        W 6056   4.727   2.907   0.443 -0.0024  0.0075  0.3611
 1993W        W 6057  10.704  10.646   8.413  0.0069 -0.0074 -0.1530
 1994W        W 6058   1.492   8.472   1.898 -0.1092 -0.1290 -0.0541
 1995W        W 6059   6.643   8.685   0.942 -0.1097  0.1685  0.2674
 1996W        W 6060  10.089  10.130   9.735  0.0579 -0.0063  0.1255
 1997W        W 6061   6.224   7.113   7.285  0.0572  0.2617  0.0522
 1998W        W 6062   6.818   4.420   1.236 -0.0182  0.1309 -0.0859
 1999W        W 6063   2.802   0.373   1.498 -0.4643  0.1240  0.0633
 2000W        W 6064   0.181   9.082   8.963  0.0158 -0.2406 -0.1460
 2001W        W 6065   3.388   8.679   0.695 -0.0977  0.0474 -0.0645
 2002W        W 6066   1.056   7.501  11.015 -0.3893  0.1702  0.4400
 2003W        W 6067   2.599   1.382   0.817  0.1208  0.0126 -0.0250
 2004W        W 6068   1.569   5.149   0.521  0.1944  0.3042 -0.1156
 2005W        W 6069   3.239  10.308  10.646  0.0683  0.2581  0.1459
 2006W        W 6070   0.701   0.589   2.103  0.2144  0.0503  0.6392
 2007W        W 6071  10.903   3.692   2.306 -0.0356  0.1339 -0.0412
 2008W        W 6072  10.896   7.557   2.860 -0.0294 -0.0015 -0.0031
 2009W        W 6073   4.371  10.469  10.784  0.2071  0.1319  0.3203
 2010W        W 6074   5.182  10.080   8.133 -0.0457  0.1835 -0.0359
 2011W        W 6075   4.957   5.116   2.460  0.1886  0.2456  0.4184
 2012W        W 6076   6.272   7.988   2.747 -0.2313 -0.1165  0.1610
 2013W        W 6077   9.122   8.682   2.384 -0.0668  0.2396  0.2917
 2014W        W 6078   4.999   5.031   9.480  0.0446  0.1264 -0.1140
 2015W        W 6079   4.076   9.334  10.087  0.1119  0.2426 -0.0855
 2016W        W 6080   3.725   7.221   0.564  0.3720  0.0366  0.0314
 2017W        W 6081   8.880   6.054   2.551  0.0124 -0.1647 -0.1804
 2018W        W 6082   1.917   9.902   1.627 -0.0816  0.0207 -0.0960
 2019W        W 6083   4.102   6.154   7.087  0.1957 -0.1039 -0.0293
 2020W        W 6084   2.561   0.449   4.091  0.1288  0.0759  0.3858
 2021W        W 6085   6.824   8.888   2.132 -0.1153  0.1772  0.0525
 2022W        W 6086   0.165   5.375  10.473 -0.3101  0.0399 -0.1480
 2023W        W 6087   6.027   2.137   2.206 -0.1122  0.1076 -0.0121
 2024W        W 6088   6.342   2.033   3.061  0.2149  0.2139 -0.1437
 2025W        W 6089   8.667   3.437   8.539  0.0321 -0.0917  0.1632
 2026W        W 6090   8.932  10.389   9.275  0.0633 -0.0413  0.1674
 2027W        W 6091   6.925   0.944  10.061 -0.2064  0.0478 -0.1619
 2028W        W 6092  10.280   8.780   9.363  0.0290 -0.1056 -0.0240
 2029W        W 6093   4.852   0.961  10.688 -0.1710 -0.0675  0.2023
 2030W        W 6094   1.483   9.495   0.681 -0.2953  0.4040  0.1655
 2031W        W 6095  10.748  10.548   0.636 -0.1113  0.0499  0.1216
 2032W        W 6096   4.026  10.386  10.253 -0.3817 -0.1301  0.0048
 2033W        W 6097  10.903   0.735   9.264 -0.1394  0.1362 -0.3365
 2034W        W 6098   0.928   4.244   1.877  0.0939  0.2955 -0.0596
 2035W        W 6099   3.311   6.774  10.786  0.3367 -0.1041 -0.1969
 2036W        W 6100   0.011   1.484   7.898  0.0317 -0.0604 -0.0516
 2037W        W 6101   1.587   0.580   2.548 -0.0566 -0.1278  0.4613
 2038W        W 6102   2.692   3.294   3.687 -0.3686 -0.4297  0.3350
 2039W        W 6103   3.204   2.265   2.586  0.1931  0.0252 -0.1898
 2040W        W 6104   4.498  10.377   9.254 -0.2119 -0.0767  0.0240
 2041W        W 6105   4.376   2.013   1.943  0.3301 -0.4215 -0.0531
 2042W        W 6106   2.015   3.735   8.107 -0.3342 -0.1032 -0.1672
 2043W        W 6107   8.785   2.390   9.739 -0.1591 -0.2227 -0.4486
 2044W        W 6108   2.231   1.452   9.700 -0.0845  0.1293 -0.1395
 2045W        W 6109   6.563  10.742   7.337 -0.0895  0.3198 -0.1602
 2046W        W 6110   7.386   7.801   2.767 -0.1227 -0.1892 -0.1708
 2047W        W 6111   3.061   5.205  10.526  0.1485 -0.1739  0.1019
 2048W        W 6112   7.876   0.095   0.122 -0.1937 -0.0354  0.2413
 2049W        W 6113   0.704   9.380   8.202 -0.5154 -0.3182  0.2864
 2050W        W 6114   7.282   7.217   7.489 -0.2451 -0.3059  0.2825
 2051W        W 6115   6.166   3.049   9.309  0.0153  0.1007 -0.1644
 2052W        W 6116   5.120  10.469   8.437  0.0263 -0.0229  0.1198
 2053W        W 6117   1.095   2.909   9.059  0.2992  0.1515 -0.1521
 2054W        W 6118   6.077   6.966   6.816 -0.1639 -0.1992  0.1637
 2055W        W 6119   8.506   3.266   9.837 -0.2264 -0.0481  0.1723
 2056W        W 6120   9.760   1.498   7.915  0.0583 -0.2763  0.0565
 2057W        W 6121   9.098   6.755  10.445  0.0990 -0.0785  0.1229
 2058W        W 6122   2.153   6.144   1.673  0.1450 -0.2838 -0.3691
 2059W        W 6123   3.958   1.273  10.904 -0.2416  0.1501 -0.3251
 2060W        W 6124   8.736   4.422   3.478  0.1394 -0.1733  0.1868
 2061W        W 6125   0.476   2.697   7.517 -0.0174 -0.3186  0.5251
 2062W        W 6126   3.166  10.881   2.448  0.1947 -0.1524 -0.0982
 2063W        W 6127   2.065   4.663   2.946  0.0099 -0.1282  0.2856
 2064W        W 6128  10.760   3.808  10.343  0.1070  0.1096 -0.1107
 2065W        W 6129   5.800   9.356   0.727  0.1173 -0.1581  0.0046
 2066W        W 6130   2.655   2.412   8.934 -0.1411  0.2078  0.0299
 2067W        W 6131   1.506   7.726   0.089  0.0538 -0.0354  0.0662
 2068W        W 6132   1.428  10.016   2.429  0.3248 -0.0309 -0.3632
 2069W        W 6133   7.946   2.590   0.037 -0.0589 -0.1023 -0.2779
 2070W        W 6134   1.263   4.044   8.591  0.1794 -0.1300  0.2397
 2071W        W 6135   9.249   4.178  10.147  0.0717 -0.0271 -0.0736
 2072W        W 6136   0.483   7.228   3.701 -0.1201 -0.4196 -0.2503
 2073W        W 6137   9.289   4.527   2.671 -0.0576 -0.1599  0.1125
 2074W        W 6138   8.123   2.051   9.093  0.0337  0.0140 -0.0451
 2075W        W 6139   1.146   9.019   8.971  0.5641 -0.0641  0.0825
 2076W        W 6140   9.610   0.154   8.823  0.0416  0.3080 -0.1061
 2077W        W 6141   5.039   2.266   9.161  0.0937  0.1670  0.0225
 2078W        W 6142   0.880   9.290   7.406 -0.1459  0.0887  0.2748
 2079W        W 6143   7.730   5.376   8.243 -0.2361 -0.0162 -0.0358
 2080W        W 6144   1.953   2.284   3.207 -0.0912 -0.1044 -0.2536
 2081W        W 6145   9.426   2.350   2.542  0.0610 -0.2119 -0.0372
 2082W        W 6146   1.241  10.592   7.736 -0.0801  0.2953 -0.1413
 2083W        W 6147   7.955   5.513   0.383 -0.3596 -0.0597 -0.0393
 2084W        W 6148   6.748   9.455   9.902  0.1949 -0.2586  0.0376
 2085W        W 6149   9.410   9.895   9.681 -0.0700 -0.1575  0.3783
 2086W        W 6150   4.690   7.520   8.628 -0.0958  0.2715  0.1949
 2087W        W 6151   8.344   9.990   8.555 -0.1325 -0.2139 -0.0619
 2088W        W 6152   2.537   8.751   7.603  0.2027 -0.3729  0.0096
 2089W        W 6153   1.759   5.327   1.875 -0.0744 -0.1151 -0.0935
 2090W        W 6154   1.822   4.067  10.459  0.2183 -0.2672 -0.0378
 2091W        W 6155   0.975  10.865   6.390 -0.0008 -0.0569 -0.0251
 2092W        W 6156   3.956   2.380   8.356  0.1282 -0.2250 -0.0013
 2093W        W 6157  10.015   6.692  10.353 -0.0226 -0.3143 -0.3102
 2094W        W 6158   3.469   0.555   3.982 -0.0498  0.1322 -0.2368
 2095W        W 6159   7.583   3.614  10.390  0.1722 -0.3708 -0.2117
 2096W        W 6160   3.885   4.111   8.623 -0.2848  0.1895 -0.1199
 2097W        W 6161   4.118   1.347   8.735 -0.0066 -0.0006 -0.2389
 2098W        W 6162   4.022   3.288   0.739  0.0391  0.1223 -0.0616
 2099W        W 6163  10.807   8.943   2.891 -0.1051 -0.2263  0.0134
 2100W        W 6164  10.318   1.222   0.728  0.2740 -0.1923 -0.0128
 2101W        W 6165   6.972   0.320   2.998 -0.2488  0.0186 -0.0922
 2102W        W 6166   9.731   8.598   1.722 -0.1785 -0.3301 -0.1187
 2103W        W 6167   0.519   8.514   0.623 -0.1815  0.2349  0.1736
 2104W        W 6168   7.895   0.981   7.964 -0.4369  0.1376  0.0599
 2105W        W 6169   3.488   3.310   0.640 -0.4919  0.2265 -0.0565
 2106W        W 6170   2.601   8.292  10.966  0.2441 -0.0521 -0.2926
 2107W        W 6171   3.181   3.932   2.864  0.0992 -0.4061 -0.1135
 2108W        W 6172   2.324   8.897   2.032  0.0945 -0.3153 -0.0848
 2109W        W 6173   0.804   0.033   6.938 -0.0869  0.1358  0.1074
 2110W        W 6174   9.304   4.547   8.556 -0.2293 -0.4653 -0.4064
 2111W        W 6175   9.738   1.532   2.685  0.3088 -0.0010 -0.0836
 2112W        W 6176   3.880   2.869   0.397 -0.1538  0.1858 -0.0329
 2113W        W 6177   8.266   4.385   0.024 -0.0930  0.0172 -0.1537
 2114W        W 6178   8.575   7.239   3.289  0.2595 -0.0383  0.1178
 2115W        W 6179   5.958   2.431  10.304 -0.0934 -0.0681  0.3006
 2116W        W 6180   2.449   6.115   3.621 -0.0372 -0.0487  0.0116
 2117W        W 6181   7.196  10.807   2.679 -0.0932 -0.2262  0.2571
 2118W        W 6182   3.868   5.748   9.382 -0.1473  0.0869 -0.1322
 2119W        W 6183   4.528  10.572   9.767 -0.0720  0.2086  0.0157
 2120W        W 6184   9.833   2.707   2.743  0.2250 -0.0394  0.1351
 2121W        W 6185   9.209   3.250   0.199  0.3042  0.0586  0.1851
 2122W        W 6186   6.320   2.153  10.568 -0.3112  0.1638 -0.0621
 2123W        W 6187   7.444   9.311   0.398 -0.0853  0.0648 -0.0280
 2124W        W 6188   4.642   3.091   7.485  0.0698 -0.2830  0.0012
 2125W        W 6189   7.629   9.689   1.211 -0.0634  0.0642 -0.0058
 2126W        W 6190   4.151   2.918   9.030  0.1079 -0.1039  0.3105
 2127W        W 6191  10.727   8.233   9.375 -0.0026  0.0231 -0.1555
 2128W        W 6192   0.677  10.473   0.027 -0.3831  0.3524  0.0221
 2129W        W 6193   7.430   7.758   1.181  0.0938 -0.0209 -0.0444
 2130W        W 6194   9.556   9.367   0.242 -0.2017 -0.0007  0.1093
 2131W        W 6195   0.305   2.477   1.756  0.0990  0.1148  0.0170
 2132W        W 6196   2.307   8.406   7.345 -0.3911 -0.1032  0.3291
 2133W        W 6197   9.145   7.752   2.129  0.1279  0.0170 -0.2039
 2134W        W 6198   6.419   3.364   1.894  0.0588  0.0704  0.1457
 2135W        W 6199   9.593   7.181  10.814  0.2653 -0.0047 -0.2099
 2136W        W 6200   2.930   7.114   9.420  0.1141 -0.2307 -0.0781
 2137W        W 6201   8.360   4.043   9.301 -0.0001 -0.0468 -0.1807
 2138W        W 6202   6.020   1.607   1.964 -0.0279  0.0907  0.1284
 2139W        W 6203   2.173   2.491   1.438 -0.0521  0.1621 -0.3320
 2140W        W 6204   1.537  10.809   0.617  0.2150 -0.3374  0.2916
 2141W        W 6205   5.874   7.453   3.514 -0.3437 -0.0615  0.0427
 2142W        W 6206   9.601   9.358   2.217 -0.2292 -0.0991 -0.0543
 2143W        W 6207   9.579   6.576  10.289  0.0079 -0.0619  0.5110
 2144W        W 6208   4.040   3.082   2.011 -0.2559 -0.2545 -0.0645
 2145W        W 6209   6.201   7.331   2.952  0.0919 -0.1301  0.2064
 2146W        W 6210   1.579   0.540   7.965 -0.0412 -0.2999  0.1061
 2147W        W 6211   8.365   0.927   0.342  0.2101 -0.0448  0.2004
 2148W        W 6212   0.466   3.396   9.212  0.0646 -0.0170 -0.1220
 2149W        W 6213   5.697  10.516   2.614  0.5152  0.0264 -0.3830
 2150W        W 6214   1.591  10.256   2.015  0.2008  0.0764 -0.1662
 2151W        W 6215   4.542   0.411   8.434  0.3704 -0.1576 -0.1739
 2152W        W 6216   4.606   8.040  10.475 -0.1556 -0.2579 -0.0775
 2153W        W 6217   5.650   3.547   2.523  0.0190  0.0191  0.0410
 2154W        W 6218   2.862   8.288   9.220 -0.1265 -0.0891 -0.1100
 2155W        W 6219   2.652   2.036  10.416 -0.0726  0.0869  0.0334
 2156W        W 6220  10.152   4.418   8.590  0.2542  0.0864 -0.0907
 2157W        W 6221   4.298   7.386   9.940  0.1724  0.0561  0.1954
 2158W        W 6222   3.520  10.080   1.491 -0.0078 -0.0239 -0.1971
 2159W        W 6223   2.495  10.766   7.158 -0.2310 -0.1428  0.2277
 2160W        W 6224   2.031   3.105   9.152 -0.0198 -0.0997  0.1162
 2161W        W 6225   6.094   1.830   7.937  0.0494  0.0517  0.1138
 2162W        W 6226   6.885   8.939   0.321 -0.0529  0.2102  0.2077
 2163W        W 6227   2.216   5.657   1.031 -0.0813  0.0540 -0.2017
 2164W        W 6228  10.471   9.717   3.304 -0.0426 -0.2292 -0.0773
 2165W        W 6229   0.540   0.732   9.351 -0.0084 -0.1798  0.1603
 2166W        W 6230   0.753   1.556   7.778  0.3151  0.4300 -0.2199
 2167W        W 6231   9.798   0.139   7.974  0.1208 -0.2212  0.1195
 2168W        W 6232   9.995   7.296   3.303 -0.3167 -0.0151  0.3814
 2169W        W 6233   3.441   6.817   9.618  0.1141 -0.0721 -0.0427
 2170W        W 6234   5.536   0.588   9.825  0.4818 -0.2537 -0.0960
 2171W        W 6235   8.256   6.761  10.793  0.0493  0.0421  0.1236
 2172W        W 6236  10.913   0.536   1.283 -0.0135 -0.0039  0.0109
 2173W        W 6237  10.781   9.581  10.073  0.2887 -0.0193 -0.4401
 2174W        W 6238   2.702   5.326  10.937 -0.1542 -0.3638  0.1939
 2175W        W 6239  10.549   4.548   9.409 -0.0215 -0.3018  0.2101
 2176W        W 6240   0.139   1.374   2.433  0.0412  0.1314 -0.0429
 2177W        W 6241   0.853   3.693   2.738  0.1608 -0.0976 -0.1230
 2178W        W 6242   7.245   7.516   8.262  0.2632  0.1264 -0.2332
 2179W        W 6243   7.900   2.504   9.038 -0.3509 -0.1586 -0.1283
 2180W        W 6244   5.862   8.420   8.733  0.1820  0.0120  0.2072
 2181W        W 6245   3.266   3.517   8.058  0.0222  0.0197  0.1065
 2182W        W 6246   7.650   0.075   8.185  0.2188  0.0830 -0.2377
 2183W        W 6247   3.648   4.439   8.906  0.3271  0.0691  0.0081
 2184W        W 6248   1.680   5.810  10.723 -0.2684  0.0215  0.0568
 2185W        W 6249   9.803   8.274   3.467  0.1104  0.0193  0.0959
 2186W        W 6250   6.169  10.221   9.845 -0.1679 -0.0068 -0.1189
 2187W        W 6251   9.163   7.675   2.871  0.4589  0.2650 -0.0621
 2188W        W 6252   0.637   8.540   1.502  0.0162 -0.0753  0.1701
 2189W        W 6253   9.396   9.256   9.927 -0.0593 -0.0744 -0.0422
 2190W        W 6254   9.721   3.074   8.807 -0.1321 -0.4472  0.1433
 2191W        W 6255   1.278   4.092  10.328 -0.3122  0.0738 -0.0074
 2192W        W 6256   3.087   1.420   3.070  0.0175  0.0109  0.5214
 2193W        W 6257   6.159   0.630   1.860 -0.1392  0.0528  0.2102
 2194W        W 6258   5.497   0.946  10.275  0.1592 -0.4130  0.2094
 2195W        W 6259   7.924   9.301  10.634  0.0303 -0.0588 -0.0531
 2196W        W 6260   0.756   9.534   9.521  0.2525  0.0318 -0.2320
 2197W        W 6261   9.030   7.258   1.904  0.1440 -0.1289 -0.0442
 2198W        W 6262   0.908   7.463   2.399  0.1355 -0.0557 -0.0175
 2199W        W 6263   0.440   9.050   0.386 -0.2870 -0.3288  0.1867
 2200W        W 6264   9.363   2.299   9.044 -0.0100  0.4517  0.1025
 2201W        W 6265   1.845   5.600   3.272 -0.2275 -0.4421 -0.1455
 2202W        W 6266   3.533   9.775   0.851 -0.0231  0.1404  0.1484
 2203W        W 6267   7.350   0.731   9.906  0.1152 -0.2048 -0.1030
 2204W        W 6268   1.157  10.854   9.091  0.3366  0.0255 -0.0477
 2205W        W 6269   8.805  10.172   8.455 -0.0662 -0.1452  0.1329
 2206W        W 6270   6.355   0.714   9.382  0.0876  0.0807 -0.0372
 2207W        W 6271   2.052   0.123   0.602  0.0796 -0.0238  0.1329
 2208W        W 6272   9.537   9.869   1.511  0.1740 -0.0159  0.1653
 2209W        W 6273   8.062   5.786   2.463 -0.0922  0.1548  0.1595
 2210W        W 6274   8.932  10.372   1.414 -0.1230 -0.0202 -0.3085
 2211W        W 6275   2.910   6.292  10.287  0.0235  0.0161  0.1392
 2212W        W 6276  10.059   7.301  10.334  0.1556 -0.3244  0.2098
 2213W        W 6277   9.713  10.610   2.807 -0.0414  0.0325  0.1146
 2214W        W 6278  10.816   3.429   2.819  0.2696  0.3050 -0.0568
 2215W        W 6279   5.482   9.303   1.920 -0.2224 -0.0779  0.2217
 2216W        W 6280   9.603   3.873  10.475  0.0396  0.2129  0.0239
 2217W        W 6281  10.364   7.289   0.401 -0.5092 -0.1616 -0.0281
 2218W        W 6282   3.520   8.328   9.404  0.0382  0.2673 -0.1758
 2219W        W 6283   7.566   6.711   2.660  0.1370 -0.1079 -0.0912
 2220W        W 6284   0.600   2.105   8.773 -0.0797  0.1454 -0.1720
 2221W        W 6285   6.235   9.628   0.646 -0.1240 -0.1910 -0.2827
 2222W        W 6286   5.942  10.893   8.811 -0.1309  0.0733 -0.3318
 2223W        W 6287   2.833   6.158   9.336 -0.3765  0.0362 -0.0361
 2224W        W 6288   1.868   1.761   2.076 -0.3459  0.0333 -0.0741
 2225W        W 6289   3.578   1.728   9.679 -0.1924 -0.1782 -0.1226
 2226W        W 6290   9.266   5.620   1.195  0.1166 -0.0309 -0.0554
 2227W        W 6291   0.006   8.135   1.949 -0.2504 -0.3312 -0.0378
 2228W        W 6292   1.224   4.361   0.782  0.0312  0.1398  0.1255
 2229W        W 6293   0.967   7.962   9.237  0.1522  0.0344 -0.0040
 2230W        W 6294   4.705   1.752   1.676 -0.3638 -0.1200 -0.0707
 2231W        W 6295   3.334   6.755   1.405  0.1092 -0.0996 -0.0400
 2232W        W 6296  10.369   1.992   2.861  0.3010 -0.1315 -0.0989
 2233W        W 6297   2.349   2.815   0.945 -0.1177  0.1039 -0.0510
 2234W        W 6298   0.903   5.001   7.813 -0.5806  0.2042  0.1090
 2235W        W 6299   4.457   5.409  10.724  0.2210 -0.4938 -0.1014
 2236W        W 6300   9.629   4.562  10.222  0.0075  0.1656 -0.2604
 2237W        W 6301   4.946   5.116  10.372  0.0896 -0.0995  0.1084
 2238W        W 6302   4.333   5.510   7.795  0.0212 -0.0825  0.1212
 2239W        W 6303  10.643   0.090   1.413 -0.2721  0.2045  0.0865
 2240W        W 6304   6.052   8.887   0.527 -0.2371  0.2494 -0.1766
 2241W        W 6305   7.020   4.925   1.042 -0.0432  0.0070  0.2308
 2242W        W 6306   3.079   4.603   3.671 -0.0766  0.0729  0.1368
 2243W        W 6307   7.058   8.118   1.888 -0.3719  0.0374 -0.0805
 2244W        W 6308   8.023   7.175  10.107 -0.2401  0.1207  0.3270
 2245W        W 6309   2.291   3.823   1.307 -0.1309  0.1572  0.0765
 2246W        W 6310   7.761   1.426   2.101 -0.1193  0.1189  0.1447
 2247W        W 6311   7.661   2.791   9.393 -0.0939 -0.0749 -0.4395
 2248W        W 6312   1.892   5.755   0.190  0.0658 -0.0964  0.1254
 2249W        W 6313   4.596   8.580  10.352  0.0711  0.0862  0.2917
 2250W        W 6314   6.781   3.237   0.667 -0.0792  0.0723 -0.0218
 2251W        W 6315   8.992   2.277   8.660 -0.0291  0.1255  0.0405
 2252W        W 6316   2.597   3.353   3.119  0.1764 -0.3592 -0.1489
 2253W        W 6317  10.375   9.248   1.272 -0.2685  0.0851 -0.0308
 2254W        W 6318   3.397   4.969   8.318 -0.1215 -0.0951 -0.0787
 2255W        W 6319   3.760   0.651   2.711 -0.1519 -0.1750  0.2786
 2256W        W 6320   6.303   5.338   1.553  0.1199  0.0445 -0.0433
 2257W        W 6321   4.091  10.083   2.717  0.0706 -0.0458 -0.2388
 2258W        W 6322   5.805   5.775   3.148  0.1327 -0.3061 -0.2366
 2259W        W 6323   1.768   6.515   1.722  0.3498  0.2299  0.1132
 2260W        W 6324   2.562  10.747   8.112 -0.1795 -0.3147 -0.3262
 2261W        W 6325   6.472   3.070   8.320  0.1029 -0.1125 -0.1313
 2262W        W 6326   1.044   2.073   7.956 -0.0634 -0.0657 -0.1388
 2263W        W 6327   1.274   2.758   7.318 -0.0695 -0.0560  0.1329
 2264W        W 6328   3.718   2.948   1.616 -0.1020  0.0938  0.2818
 2265W        W 6329   1.907   0.870   7.321 -0.4003 -0.0762  0.1018
 2266W        W 6330   7.429  10.455   1.695  0.2264 -0.0183 -0.0511
 2267W        W 6331   5.931   1.389   0.271  0.2657  0.3660 -0.1133
 2268W        W 6332   5.755   0.635   2.505 -0.1548  0.0065  0.0021
 2269W        W 6333   0.211   3.408   0.675  0.2396  0.3070  0.1235
 2270W        W 6334   8.224   6.733  10.263  0.1209  0.0596 -0.0071
 2271W        W 6335   7.530  10.288   8.232  0.0817 -0.2434  0.2398
 2272W        W 6336   0.148   3.887   8.792  0.0102 -0.1369  0.1430
 2273W        W 6337   4.860   1.550   3.367 -0.4230  0.0038  0.1679
 2274W        W 6338   0.364   1.279   0.149  0.3557 -0.0918  0.2088
 2275W        W 6339   2.457   9.901   1.769 -0.2173 -0.1197 -0.0206
 2276W        W 6340   3.007   8.025   0.882 -0.2075  0.0143 -0.0434
 2277W        W 6341   0.522   5.494   2.977 -0.0244  0.0711 -0.0079
 2278W        W 6342   2.081   7.598   7.888  0.1481  0.0084  0.4972
 2279W        W 6343   3.431   0.503   7.403 -0.1030  0.1807 -0.0226
 2280W        W 6344   2.157   7.072   0.585  0.0375 -0.0376  0.0191
 2281W        W 6345   4.714   5.707   7.491 -0.1853  0.1493  0.2568
 2282W        W 6346   2.405  10.743   0.737 -0.1004 -0.0826  0.1500
 2283W        W 6347   6.625   0.648   2.961 -0.0759  0.1738  0.0310
 2284W        W 6348  10.328   7.549   1.684  0.2222 -0.3438  0.1542
 2285W        W 6349   3.820   5.115   7.531  0.2037  0.2851 -0.0717
 2286W        W 6350   0.855   9.878   8.141  0.2124  0.1868  0.0824
 2287W        W 6351   5.045   8.338   2.641 -0.0850 -0.4745 -0.1565
 2288W        W 6352   6.793   5.526   1.511  0.0479  0.0883 -0.1620
 2289W        W 6353   0.204   5.335   0.982  0.2086  0.2365  0.0930
 2290W        W 6354   6.487   0.169   3.180 -0.2020  0.0193  0.2568
 2291W        W 6355   9.180  10.628   2.612  0.0566  0.1113 -0.0131
 2292W        W 6356   4.786   4.698   7.642 -0.0045  0.0904 -0.0001
 2293W        W 6357   6.349  10.675   8.511 -0.1189  0.1428  0.0192
 2294W        W 6358   9.353   8.871   1.251  0.3045 -0.2290  0.2100
 2295W        W 6359   4.329   2.517   7.557  0.0174 -0.2991  0.0165
 2296W        W 6360   9.730   7.009   8.855  0.1136  0.1029 -0.3048
 2297W        W 6361   3.515   0.646   9.747  0.2114  0.0426 -0.4077
 2298W        W 6362   8.014   5.766   2.932 -0.0840  0.1252 -0.2877
 2299W        W 6363   2.412   9.272  10.547  0.1866  0.0889 -0.2296
 2300W        W 6364   7.921   2.025   6.965 -0.0476  0.1104  0.0117
 2301W        W 6365   5.725   7.612   8.592  0.1562 -0.0252  0.0634
 2302W        W 6366   9.490   1.622   1.520 -0.1821  0.0893 -0.2528
 2303W        W 6367   4.197   6.728   3.626 -0.0600  0.0122  0.0872
 2304W        W 6368   7.838   0.612   0.465 -0.2069  0.0139 -0.3294
 2305W        W 6369   2.141   8.450   2.167 -0.0137 -0.2749 -0.0041
 2306W        W 6370  10.657   7.460   8.314 -0.2779 -0.0448  0.1212
 2307W        W 6371   1.313   1.710   9.983  0.2155  0.2515  0.2167
 2308W        W 6372   3.015   5.583   9.572 -0.1938 -0.1714  0.2664
 2309W        W 6373   7.080   3.959   1.342  0.2369  0.0915  0.0488
 2310W        W 6374   3.405   7.747   2.210  0.0013  0.1610 -0.0985
 2311W        W 6375  10.023   4.283  10.774 -0.1641 -0.2664  0.0413
 2312W        W 6376   3.760   4.730   3.050 -0.0125  0.0817 -0.0191
 2313W        W 6377   1.721   9.590   3.799  0.2979 -0.1072  0.0088
 2314W        W 6378   3.573   2.848  10.110 -0.0849 -0.0594  0.0371
 2315W        W 6379   4.718   0.972   0.152  0.1680 -0.0418  0.1938
 2316W        W 6380   0.399   3.710   2.572  0.0361  0.2180 -0.1410
 2317W        W 6381   6.953   8.654   2.542 -0.1132  0.0688 -0.2944
 2318W        W 6382   6.460   0.936   9.851 -0.0391  0.0544  0.2624
 2319W        W 6383   2.615   4.444   9.060 -0.1823  0.2591 -0.1339
 2320W        W 6384   3.476   0.592   0.943 -0.0519 -0.0028  0.0809
 2321W        W 6385   9.251  10.153  10.860 -0.2691  0.1114 -0.0676
 2322W        W 6386   9.997   5.591   1.382 -0.3520 -0.0564 -0.2677
 2323W        W 6387   6.288   6.850   2.845  0.1450  0.1859  0.0925
 2324W        W 6388   7.714   7.073   2.996 -0.0859  0.2764 -0.0309
 2325W        W 6389   9.769   9.006   7.573 -0.0938  0.1669  0.2148
 2326W        W 6390   7.258   0.941   2.366 -0.0239 -0.0270 -0.0492
 2327W        W 6391   1.078   9.876   9.388  0.0739  0.0432  0.3082
 2328W        W 6392   4.799   2.203   8.622  0.3251  0.4923  0.0628
 2329W        W 6393   3.303   6.032  10.270  0.1663 -0.1562  0.0787
 2330W        W 6394   5.642   0.153   2.594 -0.0848  0.1437 -0.0874
 2331W        W 6395  10.786   2.696  10.012  0.3225  0.1638  0.3863
 2332W        W 6396   8.732   1.800   3.757 -0.0662  0.0425 -0.2408
 2333W        W 6397   2.603   1.172  10.427 -0.0416 -0.1813  0.3029
 2334W        W 6398   9.427   5.802   1.686 -0.0412  0.2057  0.0202
 2335W        W 6399   1.388   3.946   1.832 -0.1549 -0.1599 -0.1530
 2336W        W 6400   4.430  10.434   0.881  0.2242 -0.3409 -0.3557
 2337W        W 6401   2.718   7.617   9.627  0.1295 -0.0265  0.1620
 2338W        W 6402   8.033   1.859   2.211 -0.0950  0.0683  0.0355
 2339W        W 6403   5.203   0.252   3.606  0.2016  0.3289  0.1757
 2340W        W 6404   1.898   7.354   1.993  0.2402 -0.1375 -0.2613
 2341W        W 6405   0.338   6.949  10.545  0.0222 -0.3819  0.4401
 2342W        W 6406   9.262   2.097  10.435 -0.0234 -0.0305 -0.1103
 2343W        W 6407   6.632   7.299   8.969 -0.1351  0.0436  0.1277
 2344W        W 6408  10.098   7.836   2.572 -0.2444 -0.0015  0.2951
 2345W        W 6409   3.938   1.533   3.469  0.1140 -0.2071 -0.1313
 2346W        W 6410   5.860   7.817   3.189  0.0433  0.0506  0.1460
 2347W        W 6411   5.067   8.792  10.322  0.1382  0.4322  0.3000
 2348W        W 6412  10.164   7.061   7.941 -0.2629  0.1620  0.2020
 2349W        W 6413   6.269   3.193  10.762  0.1393 -0.3286  0.2102
 2350W        W 6414   6.421   2.834  10.442  0.0721  0.0806 -0.1257
 2351W        W 6415   3.331   9.072   9.116 -0.3267  0.0713 -0.2897
 2352W        W 6416   8.270   5.462   8.289  0.1451 -0.1174  0.1410
 2353W        W 6417  10.129  10.519   1.899  0.1351 -0.2789  0.0274
 2354W        W 6418   7.680   0.580   3.646 -0.0977  0.0773 -0.1217
 2355W        W 6419   0.328   9.590   9.859 -0.0517  0.0117 -0.1133
 2356W        W 6420   4.836   4.242   7.903  0.0579  0.2324  0.0384
 2357W        W 6421   6.882   1.876   8.709 -0.2036  0.1102  0.1464
 2358W        W 6422   0.371   7.446   9.797  0.4389 -0.0009  0.5159
 2359W        W 6423   1.437  10.031   0.449 -0.2713 -0.3566 -0.1372
 2360W        W 6424  10.526   7.555  10.138 -0.0009 -0.1571  0.1258
 2361W        W 6425   6.271   8.843   0.032  0.4886  0.0416 -0.0073
 2362W        W 6426   0.817   9.813  10.898  0.3082 -0.0712  0.2572
 2363W        W 6427   1.994   3.790   9.447 -0.2826  0.2058 -0.1699
 2364W        W 6428   1.464   0.556   7.501  0.1640  0.2037  0.0977
 2365W        W 6429   2.043   3.554  10.676 -0.0397 -0.4541 -0.0482
 2366W        W 6430  10.785   4.181   2.553 -0.2459  0.0355  0.1271
 2367W        W 6431   4.894   2.131   2.712 -0.1243 -0.1152 -0.0634
 2368W        W 6432  10.347   6.704  10.735  0.0246  0.1089  0.0645
 2369W        W 6433   8.618   6.971   7.947  0.0939  0.0041 -0.5063
 2370W        W 6434   5.303   9.126   2.526 -0.1131  0.3696  0.2453
 2371W        W 6435  10.028   0.890   9.027  0.0125  0.2465 -0.1033
 2372W        W 6436  10.176   7.303   9.730  0.1136  0.0313  0.0709
 2373W        W 6437  10.313   8.326   9.135  0.0537  0.1921  0.0096
 2374W        W 6438  10.485  10.066   0.365  0.5037 -0.0459  0.2131
 2375W        W 6439   6.158   3.409   8.489 -0.0919 -0.0563 -0.1095
 2376W        W 6440   3.192   6.337   6.974  0.0162 -0.2287  0.1090
 2377W        W 6441   3.806   5.602   7.495  0.2910 -0.2173  0.0119
 2378W        W 6442  10.145   9.331   9.312  0.1748 -0.2038  0.1281
 2379W        W 6443   0.038   8.836  10.955  0.1558 -0.3441 -0.1116
 2380W        W 6444   7.966   3.993   8.757 -0.0620 -0.0099 -0.0134
 2381W        W 6445   1.150   2.055   8.607 -0.0018 -0.2054 -0.0735
 2382W        W 6446   0.579   8.314  10.144 -0.1172  0.2375 -0.3076
 2383W        W 6447   4.225   0.214   9.613  0.3064 -0.4955  0.0286
 2384W        W 6448   8.775   9.412  10.508  0.1469 -0.2778 -0.1912
 2385W        W 6449   7.659   2.683   3.234 -0.0587  0.3629 -0.1752
 2386W        W 6450   2.858   5.003   0.740  0.0340  0.1532  0.1308
 2387W        W 6451  10.696   4.962   1.082 -0.1163  0.1820 -0.0062
 2388W        W 6452   8.708   2.509   0.478 -0.3183 -0.2131  0.3331
 2389W        W 6453   2.237   0.498   1.474 -0.0351 -0.2638 -0.0377
 2390W        W 6454   1.916   9.289   1.583 -0.1692  0.0021 -0.0112
 2391W        W 6455   6.392   4.210  10.484  0.2938 -0.2266 -0.2237
 2392W        W 6456   2.372   1.880   0.899  0.0595  0.0442  0.0570
 2393W        W 6457   3.997   1.034   1.899 -0.0806  0.0148  0.0755
 2394W        W 6458   5.999   0.270   3.410 -0.2136 -0.1916  0.2633
 2395W        W 6459   3.732   5.580   1.543 -0.1683 -0.2727  0.1444
 2396W        W 6460   8.757   6.695  10.052  0.1742  0.0611  0.0342
 2397W        W 6461   2.593   2.779   1.398 -0.3119  0.0884 -0.1665
 2398W        W 6462   1.329   4.508   8.397 -0.1267  0.1878 -0.2081
 2399W        W 6463   2.204   3.577   2.906  0.0090  0.1807 -0.1995
 2400W        W 6464   2.884   2.590  10.603  0.0676  0.0969  0.1534
 2401W        W 6465   0.377  10.776   7.141  0.2785  0.1074 -0.2101
 2402W        W 6466   1.064  10.706   0.180 -0.0637  0.2857 -0.1054
 2403W        W 6467  10.841   5.907   2.379  0.3146 -0.0580  0.0444
 2404W        W 6468   7.098   4.911   2.475  0.2721  0.0195 -0.0480
 2405W        W 6469  10.896   0.058   0.991  0.0450  0.1276 -0.2714
 2406W        W 6470   2.488   1.054   8.110  0.2857 -0.1629  0.0272
 2407W        W 6471   7.537   2.091  10.160 -0.0240 -0.1666 -0.2900
 2408W        W 6472   1.294   3.068   1.152  0.0208 -0.1275  0.0847
 2409W        W 6473   1.474   8.981   1.490  0.0068 -0.2099  0.1089
 2410W        W 6474   8.734   9.280  10.010 -0.2582 -0.0754 -0.1763
 2411W        W 6475   3.986   2.416   9.793 -0.0678 -0.0685  0.0883
 2412W        W 6476   4.156  10.655   8.975 -0.0025 -0.0748  0.2391
 2413W        W 6477   7.504   2.710   2.767 -0.0691 -0.3781  0.1640
 2414W        W 6478   8.546   2.994   2.670  0.0580 -0.0217 -0.1005
 2415W        W 6479   9.638   9.009   3.023 -0.0521  0.2243 -0.0010
 2416W        W 6480   5.703   0.819  10.789  0.0260 -0.0728  0.0924
 2417W        W 6481   5.761   8.696   0.112  0.0127  0.0536 -0.1038
 2418W        W 6482   5.880   7.917   3.682 -0.1665  0.1269  0.0069
 2419W        W 6483   0.557   5.266   2.438  0.0740  0.0195 -0.2148
 2420W        W 6484   1.993   2.519  10.706 -0.0619  0.1795 -0.2572
 2421W        W 6485   2.134   0.404   3.404  0.1488 -0.1537 -0.1415
 2422W        W 6486   4.418   4.903   0.676  0.1934  0.1469  0.0251
 2423W        W 6487  10.516   0.436   1.746 -0.2317  0.1862 -0.1313
 2424W        W 6488   0.819   0.500   0.118 -0.2886 -0.2963 -0.0113
 2425W        W 6489   9.840   9.405   0.957  0.1727  0.3723  0.4600
 2426W        W 6490   3.062   7.972   9.606  0.0280 -0.2338  0.0379
 2427W        W 6491   8.918   8.410   2.776 -0.0374  0.0405 -0.1698
 2428W        W 6492   8.992   3.520   7.726 -0.0215  0.2339  0.1467
 2429W        W 6493   1.856   7.632   2.856 -0.1513  0.0064  0.3336
 2430W        W 6494   2.703   3.907  10.012  0.2619 -0.3711 -0.2872
 2431W        W 6495   4.863   2.626   7.622 -0.0906  0.1615  0.0158
 2432W        W 6496   3.990   0.424   9.195 -0.3140 -0.0028  0.4251
 2433W        W 6497  10.480   3.355  10.089  0.0794 -0.2414  0.2703
 2434W        W 6498   9.592   4.640   8.070 -0.0276 -0.0011 -0.1508
 2435W        W 6499   2.887   8.383   9.743 -0.2917 -0.0490  0.1034
 2436W        W 6500   3.700  10.368   8.908 -0.0031 -0.2475  0.0319
 2437W        W 6501   2.301   4.934   0.597 -0.2168  0.2374 -0.0168
 2438W        W 6502   1.764   0.793   8.910  0.0965 -0.0692  0.0460
 2439W        W 6503   4.398   7.158  10.444  0.0794 -0.0754  0.0708
 2440W        W 6504  10.803   4.910   0.156  0.0328 -0.1661 -0.0118
 2441W        W 6505   9.587   3.421   3.364  0.0845  0.0990 -0.0261
 2442W        W 6506   8.319   2.828   0.276  0.2865 -0.0419  0.1784
 2443W        W 6507   5.486   1.270   2.623 -0.0653  0.0203  0.2125
 2444W        W 6508   6.952  10.312   1.611 -0.0995 -0.1987 -0.0607
 2445W        W 6509   6.245   4.212   2.381 -0.1514 -0.0688  0.2313
 2446W        W 6510   0.736   7.484   1.417 -0.0674 -0.2621 -0.0799
 2447W        W 6511   3.239   1.890   8.211 -0.0568  0.0656 -0.1134
 2448W        W 6512   0.201   9.938   8.926 -0.1812  0.1462  0.5083
 2449W        W 6513   6.818   5.198   9.476  0.3089  0.2732 -0.1153
 2450W        W 6514   0.084   8.987   9.454 -0.1849  0.1948  0.1438
 2451W        W 6515   8.997   8.474   8.246 -0.1628 -0.4445 -0.3479
 2452W        W 6516   3.803   8.839   7.712 -0.0518 -0.0967 -0.2038
 2453W        W 6517   1.450   9.220   0.061 -0.1135 -0.2102 -0.3372
 2454W        W 6518   1.357   5.671   1.718 -0.2783 -0.2310 -0.2342
 2455W        W 6519   7.799   3.891   2.611 -0.0726 -0.0910 -0.1663
 2456W        W 6520   5.568   0.154   0.447 -0.3006  0.0527  0.1674
 2457W        W 6521  10.795   4.431   0.992 -0.0244 -0.1493  0.0163
 2458W        W 6522   7.526   7.537   9.943  0.4169  0.2537 -0.0659
 2459W        W 6523   7.525   3.255   1.767  0.0782  0.2715  0.0977
 2460W        W 6524   4.814  10.540   8.832 -0.3013  0.0786  0.0238
 2461W        W 6525  10.137   1.808   1.004  0.3133  0.0770 -0.1627
 2462W        W 6526   6.421   5.608   1.195  0.0025 -0.0686 -0.2012
 2463W        W 6527   1.573   0.981   8.322 -0.1627 -0.2847 -0.0709
 2464W        W 6528   5.231   4.450   8.229  0.0260  0.1092 -0.2991
 2465W        W 6529   0.777   0.235   2.516 -0.0675  0.1167  0.1733
 2466W        W 6530   7.081   5.413   9.954 -0.0104 -0.0988  0.3558
 2467W        W 6531   7.385   9.954   7.383 -0.0222 -0.1522  0.0135
 2468W        W 6532   5.499   2.307   0.458  0.0291  0.0309 -0.0216
 2469W        W 6533   1.684   3.337   9.662  0.1712 -0.0431 -0.0036
 2470W        W 6534   5.450   2.457   9.895 -0.2154  0.1408  0.0358
 2471W        W 6535   9.214  10.642   9.630 -0.3991 -0.3025  0.1139
 2472W        W 6536  10.492   3.346  10.592 -0.1702  0.0039 -0.4762
 2473W        W 6537  10.314   3.112   0.333 -0.0192 -0.1275  0.4157
 2474W        W 6538   4.532   6.678   8.814  0.0848 -0.2123 -0.1778
 2475W        W 6539  10.173   8.366   2.586  0.1438 -0.0199  0.0615
 2476W        W 6540   4.530   1.077   8.716 -0.3030 -0.1371 -0.2244
 2477W        W 6541  10.470   8.162   3.183 -0.0242  0.2599  0.0174
 2478W        W 6542   0.412   9.500   8.742  0.0152 -0.0124 -0.3398
 2479W        W 6543   5.187   4.623   2.355 -0.1508  0.1424 -0.0805
 2480W        W 6544   8.939   7.181   3.005  0.3619  0.1470  0.3608
 2481W        W 6545   6.361   7.668   0.565  0.3609  0.2074 -0.1450
 2482W        W 6546   9.501   8.835   8.610 -0.3160  0.0343  0.0853
 2483W        W 6547   4.327   6.115   9.583 -0.1003 -0.1528 -0.0898
 2484W        W 6548   1.562   2.160   8.129  0.0469  0.0221  0.1447
 2485W        W 6549  10.378   2.827   2.774  0.0798  0.1055  0.0720
 2486W        W 6550   8.070   5.812   9.829 -0.0243 -0.1975 -0.0036
 2487W        W 6551   4.363   8.766   1.092  0.1758  0.0706 -0.0775
 2488W        W 6552   3.630   1.759   7.598  0.1793 -0.2850  0.1929
 2489W        W 6553   5.168   8.630   0.204 -0.2241 -0.1734 -0.0142
 2490W        W 6554   3.417   9.596   3.260  0.3564  0.0472  0.1815
 2491W        W 6555   2.443   1.124   3.742 -0.5235  0.0841 -0.2093
 2492W        W 6556   7.923   3.622   0.816  0.2421 -0.0249 -0.0544
 2493W        W 6557   4.246   2.843   9.484 -0.1153 -0.0077  0.0076
 2494W        W 6558   4.743   4.581   8.785 -0.1346 -0.1482  0.0747
 2495W        W 6559  10.894   5.124   9.968  0.0032  0.1587  0.0927
 2496W        W 6560   5.912   1.063   1.611  0.0447 -0.2624 -0.0497
 2497W        W 6561   5.280   5.997  10.418  0.0886 -0.2600  0.0104
 2498W        W 6562   8.976   2.238   3.356  0.1371  0.2066  0.1266
 2499W        W 6563   1.502   4.630   2.859 -0.2429  0.1467  0.0144
 2500W        W 6564   2.675   0.734  10.133  0.1004  0.1159 -0.3014
 2501W        W 6565   9.163   3.764  10.571 -0.1020 -0.0441 -0.2157
 2502W        W 6566   9.926   2.404   3.711 -0.3900 -0.0711 -0.1531
 2503W        W 6567   5.129   2.584   0.823  0.1634  0.2051  0.2404
 2504W        W 6568   0.093   5.696   0.671  0.2268 -0.2497 -0.1997
 2505W        W 6569   9.301   5.514   8.195 -0.4629  0.0096  0.2420
 2506W        W 6570   3.452   1.827   3.395 -0.0931  0.0794  0.0660
 2507W        W 6571   1.795   5.648   1.365  0.0100 -0.1953 -0.1817
 2508W        W 6572  10.164   6.474   2.821  0.0653  0.1316 -0.0419
 2509W        W 6573   9.456   5.570  10.122  0.0305 -0.2461 -0.1640
 2510W        W 6574  10.205   4.777   1.996 -0.2469  0.0770 -0.0756
 2511W        W 6575   7.550   1.157   9.785 -0.2602 -0.2778 -0.2078
 2512W        W 6576   5.882   9.882   2.742  0.0083  0.1036  0.0158
 2513W        W 6577   9.659   8.536  10.909 -0.1761  0.1130  0.2908
 2514W        W 6578   1.825   6.712  10.742 -0.0312  0.0101  0.3847
 2515W        W 6579   4.007   0.808   9.555  0.4326  0.1482 -0.0083
 2516W        W 6580   8.414  10.412   2.127 -0.2021 -0.1578  0.2560
 2517W        W 6581   4.095   6.015  10.569 -0.2785  0.0368 -0.1698
 2518W        W 6582   7.396   3.539   7.895 -0.3548 -0.1894  0.1682
 2519W        W 6583   3.452   6.083   0.092 -0.1273 -0.1030  0.0664
 2520W        W 6584   7.113   3.990   3.353  0.3057  0.1705  0.1222
 2521W        W 6585   6.812   6.536   0.401 -0.1556 -0.1488 -0.3003
 2522W        W 6586   3.715   5.140   3.357 -0.0452  0.0948 -0.1210
 2523W        W 6587   8.020  10.334   2.590  0.0495 -0.0640  0.2519
 2524W        W 6588   9.443  10.676   9.097  0.0717 -0.0920 -0.1941
 2525W        W 6589   8.161   7.550   8.278 -0.0122  0.1123  0.0227
 2526W        W 6590   2.897   4.825   9.296 -0.2008 -0.0686  0.0825
 2527W        W 6591   5.947   9.854   8.929  0.2495 -0.1225  0.5138
 2528W        W 6592   0.345   9.153   2.829 -0.3866 -0.1012 -0.0819
 2529W        W 6593   1.459   1.595   8.410 -0.1068 -0.1170 -0.2986
 2530W        W 6594   7.527   7.281   7.907 -0.0951 -0.0670 -0.1300
 2531W        W 6595   0.754  10.376  10.240  0.2403  0.0527 -0.1263
 2532W        W 6596   0.678   8.629   8.482 -0.0337  0.0480  0.2158
 2533W        W 6597   1.650   8.664   9.874  0.0175  0.0652 -0.0563
 2534W        W 6598   0.864   4.328   2.955 -0.1429 -0.1892 -0.0683
 2535W        W 6599   6.257   9.788   1.195  0.3106 -0.0340 -0.2414
 2536W        W 6600   5.615   7.247   9.143 -0.0221 -0.2950  0.0086
 2537W        W 6601   6.275  10.825  10.761 -0.0284  0.0263 -0.2147
 2538W        W 6602   7.966   6.658   8.512  0.1823  0.0105 -0.1694
 2539W        W 6603   2.722   9.170   9.293 -0.1136 -0.0988 -0.1628
 2540W        W 6604   8.912   1.346   0.668 -0.1563 -0.1152  0.2380
 2541W        W 6605   2.318  10.312   9.690 -0.0195  0.2767 -0.1632
 2542W        W 6606   5.786   5.523  10.741  0.2409 -0.0062 -0.2254
 2543W        W 6607   4.126   1.007  10.022 -0.1436  0.0120  0.1206
 2544W        W 6608   6.663   3.572   2.306 -0.1267  0.0123 -0.4236
 2545W        W 6609   0.093   8.690   0.400  0.0530 -0.2315  0.3969
 2546W        W 6610   1.250   7.230   0.666 -0.1763 -0.0591  0.0416
 2547W        W 6611   7.982   5.882   8.346 -0.1115  0.2659 -0.1806
 2548W        W 6612   0.360   4.555   1.269 -0.1364 -0.3419 -0.0502
 2549W        W 6613   4.056  10.237   9.782  0.0303  0.0467  0.2394
 2550W        W 6614   0.418   6.998  10.030  0.0578 -0.1483  0.0167
 2551W        W 6615   7.915   4.136  10.081  0.1015 -0.1030  0.0050
 2552W        W 6616   7.507   0.278   0.471 -0.0302  0.1699 -0.3380
 2553W        W 6617   9.336   7.100   3.515 -0.4297  0.1673 -0.1933
 2554W        W 6618   6.716   3.653   0.424 -0.2081  0.0952 -0.0416
 2555W        W 6619   8.203   1.667   1.749  0.1063  0.2081 -0.4540
 2556W        W 6620  10.462   0.427   7.885  0.0750  0.2691 -0.0506
 2557W        W 6621  10.836   9.670   8.601 -0.4590 -0.2357  0.1923
 2558W        W 6622  10.520   4.600   2.446  0.0992  0.1460 -0.3349
 2559W        W 6623   8.868   3.433   0.523  0.1490  0.1059 -0.2107
 2560W        W 6624  10.431   7.696   0.029 -0.2503 -0.0295  0.0838
 2561W        W 6625   5.158   5.505   1.699  0.1051 -0.0311  0.1084
 2562W        W 6626   8.583   0.868   1.337 -0.2751 -0.1252  0.3120
 2563W        W 6627   9.687   9.668  10.103  0.2092 -0.0517  0.1722
 2564W        W 6628   0.444   0.018   9.645 -0.2982 -0.3426 -0.0621
 2565W        W 6629   1.209   0.164   2.723  0.2631 -0.0973  0.0778
 2566W        W 6630   3.429   1.527   1.221 -0.1857  0.0741  0.0165
 2567W        W 6631   0.163   4.105   1.393 -0.1912 -0.1683  0.1106
 2568W        W 6632   9.380   0.063  10.012  0.2519 -0.2950 -0.0446
 2569W        W 6633   7.273   6.320   2.871 -0.0876 -0.1259 -0.1904
 2570W        W 6634   5.873   8.637   9.608  0.0593  0.0354  0.3731
 2571W        W 6635   4.118   6.208   8.542 -0.2485 -0.3573 -0.2214
 2572W        W 6636   2.497   9.758   2.275 -0.0059  0.2813 -0.2047
 2573W        W 6637   7.647   8.436   3.030  0.0973 -0.0550  0.2091
 2574W        W 6638   0.691   6.185   1.918 -0.1852 -0.4253  0.0124
 2575W        W 6639  10.291   2.010   2.032  0.0717 -0.1822 -0.2533
 2576W        W 6640   4.683   6.192   8.165 -0.0038 -0.2567 -0.0843
 2577W        W 6641   8.256   9.936   2.367 -0.1587 -0.0882  0.2247
 2578W        W 6642   1.480   3.593   3.121 -0.0692  0.3045  0.1879
 2579W        W 6643   2.391   7.086   1.360  0.0682 -0.0981 -0.2302
 2580W        W 6644   2.858   1.615  10.456 -0.0255 -0.0252  0.0068
 2581W        W 6645   3.410   1.828   2.115  0.0682 -0.1632 -0.0511
 2582W        W 6646   8.258   0.506   1.260  0.4770 -0.0922  0.3026
 2583W        W 6647   9.987   1.920   0.095 -0.0505  0.1427 -0.0411
 2584W        W 6648   5.254   9.819   8.978  0.1845 -0.2319  0.0781
 2585W        W 6649   5.684   7.982   1.778  0.1647 -0.2732  0.2298
 2586W        W 6650   5.599   6.101   0.882  0.3151 -0.3236  0.0205
 2587W        W 6651   7.011   9.294   2.822 -0.0282 -0.2701 -0.2607
 2588W        W 6652   3.015   8.721   1.589 -0.0054 -0.1532  0.1082
 2589W        W 6653  10.901   5.473   2.883  0.4920 -0.1471  0.0871
 2590W        W 6654   7.472  10.016  10.435  0.1639 -0.2355  0.0110
 2591W        W 6655   1.817   4.709   8.499  0.0517 -0.1632 -0.4040
 2592W        W 6656  10.099   6.219   7.290  0.0336  0.0829 -0.0910
 2593W        W 6657   3.730  10.577   9.874 -0.1329 -0.0617 -0.0604
 2594W        W 6658   8.604   2.548   1.964  0.2704  0.0445 -0.4055
 2595W        W 6659   0.820   4.217   0.403 -0.0066 -0.1927 -0.0367
 2596W        W 6660   4.270   6.835  10.866  0.0756  0.0538 -0.0864
 2597W        W 6661   4.087  10.479   0.513  0.1339  0.0579 -0.0913
 2598W        W 6662   0.685   4.830   1.548 -0.4443  0.0091 -0.2783
 2599W        W 6663   7.864   2.911   8.327 -0.2221 -0.1069  0.0747
 2600W        W 6664   5.920   4.144   8.460 -0.0564 -0.2464  0.4190
 2601W        W 6665   9.457   6.778   1.367  0.2695  0.1616 -0.1190
 2602W        W 6666   6.523   4.362   9.215 -0.0902 -0.3679 -0.2101
 2603W        W 6667   6.247  10.022   3.998  0.0553  0.0669  0.0046
 2604W        W 6668   5.391   5.039   1.524 -0.0005 -0.2662 -0.0150
 2605W        W 6669   2.772  10.441   2.416  0.1667 -0.0158 -0.3970
 2606W        W 6670   5.442   4.511   7.733 -0.0068  0.0694  0.0604
 2607W        W 6671   4.517  10.844   2.502 -0.0972 -0.0380  0.1269
 2608W        W 6672   0.057   2.364  10.670  0.0823  0.2246 -0.1691
 2609W        W 6673  10.768   0.107   9.552  0.1572  0.0681 -0.0753
 2610W        W 6674   7.072   2.693   8.973  0.2356 -0.1665  0.2790
 2611W        W 6675   2.953   0.579   1.947  0.1470 -0.3552 -0.3884
 2612W        W 6676   5.745   6.569   3.556 -0.0404  0.0830  0.2364
 2613W        W 6677   6.031  10.308   2.997  0.0046 -0.2147  0.0873
 2614W        W 6678   6.072   9.217   1.127 -0.1382 -0.0611  0.0181
 2615W        W 6679   4.788   0.662   2.948  0.2138 -0.0015 -0.0081
 2616W        W 6680   6.245   6.341   0.564  0.1215  0.0651  0.0170
 2617W        W 6681   3.308   6.787   2.767 -0.0949 -0.1440  0.0674
 2618W        W 6682   7.099   9.526   8.639 -0.1175 -0.1676 -0.0794
 2619W        W 6683   4.163   1.854   8.553  0.0272 -0.1015  0.3385
 2620W        W 6684   2.228   6.128   2.737 -0.1393  0.0542  0.0149
 2621W        W 6685   2.329   7.101   7.675 -0.0503  0.1107 -0.0131
 2622W        W 6686   4.923   3.240  10.047  0.1643 -0.2061 -0.1374
 2623W        W 6687   0.858   8.282   1.932 -0.1397  0.0789 -0.2743
 2624W        W 6688   0.398   5.127   7.731 -0.0379  0.1843  0.0477
 2625W        W 6689   1.494  10.476   0.219  0.3722 -0.0673 -0.4197
 2626W        W 6690   0.087   4.554   2.741 -0.2480 -0.0937  0.1119
 2627W        W 6691   1.419   5.533   2.980 -0.1775  0.1783  0.1348
 2628W        W 6692   0.887   9.646   8.628  0.2237 -0.0302  0.2935
 2629W        W 6693   0.699   4.217   1.341  0.0886  0.1383  0.1599
 2630W        W 6694   0.119   8.592   0.905 -0.0926  0.0176  0.0006
 2631W        W 6695   0.856   1.843   2.546 -0.2701 -0.2848 -0.1440
 2632W        W 6696   1.694   4.114   8.213  0.0414  0.1344 -0.0574
 2633W        W 6697   9.587   4.688   3.863  0.1271  0.3449  0.0900
 2634W        W 6698   8.266   9.557   2.979  0.0975 -0.0207  0.0320
 2635W        W 6699   0.944   5.375  10.385  0.1366  0.2103 -0.2487
 2636W        W 6700   3.447   7.433   7.662  0.1955 -0.0869  0.3835
 2637W        W 6701   2.488  10.013   3.420 -0.3244  0.0114  0.0465
 2638W        W 6702   7.099   5.881   3.041  0.5769 -0.0572  0.1339
 2639W        W 6703   5.977   6.592   0.973 -0.0619  0.3752  0.2208
 2640W        W 6704   9.805   9.259   2.649  0.1291  0.0673  0.1559
 2641W        W 6705   5.933   3.784   8.732  0.0264  0.2169 -0.3484
 2642W        W 6706   4.552  10.323   2.700  0.0198  0.0488 -0.1394
 2643W        W 6707   0.236   1.997   1.790  0.0073 -0.0304  0.0714
 2644W        W 6708   4.584   3.810   1.123  0.1332 -0.1457  0.0798
 2645W        W 6709  10.787  10.882   7.887 -0.0840  0.1005  0.1910
 2646W        W 6710   7.647  10.519  10.128 -0.0255 -0.0517  0.4956
 2647W        W 6711   7.092   9.462   9.218  0.0026 -0.0516  0.2093
 2648W        W 6712   2.731   1.746   1.172  0.2176 -0.0855 -0.4474
 2649W        W 6713   2.299   0.475  10.302 -0.0759 -0.2189 -0.1898
 2650W        W 6714   4.085   7.995   2.877 -0.4450 -0.1771  0.0605
 2651W        W 6715   0.584   6.776   8.231  0.1598  0.1725 -0.1871
 2652W        W 6716   8.133  10.055   3.059 -0.0718  0.0824  0.0224
 2653W        W 6717   5.117   4.580   0.063  0.1876  0.2469  0.1330
 2654W        W 6718   9.733   5.330   3.063 -0.0335  0.0359  0.1361
 2655W        W 6719   5.620   0.786   1.900 -0.1253  0.2484 -0.1364
 2656W        W 6720   3.169   4.687   8.682  0.0523  0.3049 -0.1621
 2657W        W 6721   6.774   8.358   2.210  0.1221  0.5505  0.2468
 2658W        W 6722   6.919   2.543   1.393 -0.0452 -0.0137  0.0252
 2659W        W 6723   6.742   8.611   3.103  0.2621  0.1184  0.0001
 2660W        W 6724   6.364   1.265   9.007  0.0059  0.0430  0.1157
 2661W        W 6725   1.367   6.940   9.172 -0.1797  0.0140 -0.0993
 2662W        W 6726   2.231   4.901   9.733  0.3994  0.0583 -0.0101
 2663W        W 6727   5.396  10.756   9.962 -0.1379 -0.1532 -0.0259
 2664W        W 6728   9.123   5.295  10.370  0.2342  0.3472  0.3448
 2665W        W 6729   5.438   7.769   9.050  0.0359 -0.1291 -0.0947
 2666W        W 6730   1.948   0.449   7.612  0.0452  0.2097  0.0923
 2667W        W 6731   0.711   1.460   9.062 -0.1620 -0.0957  0.0102
 2668W        W 6732   7.927   7.439   9.693  0.3290  0.1429  0.1254
 2669W        W 6733   1.401   1.236   2.783 -0.0573 -0.2852  0.0151
 2670W        W 6734   3.540   8.174   0.949 -0.1969 -0.0313  0.2032
 2671W        W 6735   8.194  10.837   0.467 -0.0645  0.2343 -0.2179
 2672W        W 6736   7.327   7.447   0.743 -0.2455 -0.1703 -0.0697
 2673W        W 6737   4.996   4.930   8.985 -0.3001 -0.1799  0.0447
 2674W        W 6738   1.063   4.750   2.671  0.0292 -0.2069  0.0195
 2675W        W 6739   1.109  10.776   1.403  0.0093  0.0208  0.2117
 2676W        W 6740   6.670   0.207   9.272  0.0381 -0.2938  0.0932
 2677W        W 6741   0.670   9.881   9.130 -0.2004 -0.0455 -0.0541
 2678W        W 6742   8.654   1.572  11.026 -0.0502 -0.0212 -0.1974
 2679W        W 6743   4.880   3.927   9.920 -0.2376 -0.3363 -0.2103
 2680W        W 6744   2.404  10.667   8.642  0.0787 -0.1293 -0.2042
 2681W        W 6745   5.126   1.267  10.140 -0.2816  0.0790 -0.1499
 2682W        W 6746   6.313   6.038   9.730  0.4005 -0.1652 -0.0990
 2683W        W 6747   3.704   3.526   0.155 -0.0743 -0.2234 -0.2675
 2684W        W 6748   1.855   0.465   8.420  0.3525  0.1014 -0.0163
 2685W        W 6749   5.274   5.771  10.806  0.2265  0.1568 -0.2183
 2686W        W 6750   2.817   4.434   2.937  0.2653  0.0320  0.1273
 2687W        W 6751   6.588   5.303   9.915  0.1423 -0.1333 -0.1765
 2688W        W 6752   3.201   9.132   3.508  0.0008 -0.0997  0.3157
 2689W        W 6753   9.298   3.796   1.674 -0.3077 -0.1273  0.1502
 2690W        W 6754   7.084   7.675   2.347 -0.0650  0.1071 -0.0106
 2691W        W 6755   2.064   0.148   1.094  0.2235  0.2325  0.0889
 2692W        W 6756   6.817   5.624   0.553 -0.2784 -0.1249  0.0649
 2693W        W 6757   4.126   9.517   2.502  0.1810  0.1123 -0.0638
 2694W        W 6758   8.369   2.946   1.188  0.2369  0.1213 -0.1893
 2695W        W 6759   5.104   9.689   3.792  0.2251  0.0966  0.0165
 2696W        W 6760   5.899   8.900   8.462  0.2398 -0.0018 -0.2400
 2697W        W 6761   4.982   0.921   9.713 -0.2088  0.1329 -0.1762
 2698W        W 6762   1.562   5.212   3.449  0.2158  0.0460 -0.1820
 2699W        W 6763  10.880   6.797   8.946  0.1570 -0.1416 -0.2906
 2700W        W 6764   6.025   3.109   0.588  0.1553  0.0300 -0.1910
 2701W        W 6765   8.365   8.070   1.387 -0.0460 -0.0709  0.4308
 2702W        W 6766   3.983   8.125   8.236  0.2140 -0.1024 -0.0427
 2703W        W 6767   5.176   3.781   3.898 -0.2781  0.1129  0.1517
 2704W        W 6768   3.984   9.507   0.740  0.0761  0.0758 -0.1682
 2705W        W 6769   8.515   8.249   8.373  0.1667  0.1026 -0.2843
 2706W        W 6770   3.686  10.099   0.430 -0.1189 -0.5767 -0.1857
 2707W        W 6771   4.014   5.234   0.409  0.2598 -0.0313 -0.2965
 2708W        W 6772   8.142   1.805   1.289  0.3332 -0.2155 -0.1111
 2709W        W 6773   3.892   5.772   8.522 -0.0709 -0.0258 -0.0766
 2710W        W 6774   6.681  10.251   9.094 -0.0210 -0.4392  0.0926
 2711W        W 6775   6.210   6.450   8.070  0.0193  0.0039 -0.0362
 2712W        W 6776   1.026   4.407  10.609 -0.1223 -0.0218 -0.0220
 2713W        W 6777  10.000   9.150  10.036  0.1803  0.3301  0.0704
 2714W        W 6778   4.627   8.243   9.161 -0.1389 -0.1520  0.4141
 2715W        W 6779   1.477   0.892   9.336 -0.0768 -0.0910  0.1569
 2716W        W 6780   9.653   6.614   1.805 -0.5187  0.0551  0.1108
 2717W        W 6781   8.877  10.847   9.238 -0.0593 -0.0820  0.0151
 2718W        W 6782   6.614   0.236   7.731 -0.1679 -0.0889 -0.1227
 2719W        W 6783   0.478   2.979   0.542 -0.0732  0.2582 -0.2842
 2720W        W 6784   2.518   2.831   0.489  0.1791  0.0702 -0.0451
 2721W        W 6785   1.271   0.585   8.375 -0.0903 -0.3194 -0.0923
 2722W        W 6786   8.547   3.317   1.476 -0.0910 -0.0957  0.2257
 2723W        W 6787   2.121   0.091  10.885 -0.0556 -0.1513  0.0794
 2724W        W 6788   2.134   3.011  10.706 -0.1783 -0.1863 -0.1199
 2725W        W 6789   3.932   1.849   1.167  0.0885  0.1821  0.2090
 2726W        W 6790   0.820   4.262   2.465  0.1703  0.1696  0.0646
 2727W        W 6791   8.585   4.912   8.166  0.0908 -0.1958  0.2437
 2728W        W 6792   2.119   1.043  11.030  0.0210 -0.0021  0.2524
 2729W        W 6793   7.179  10.298   2.975  0.1733 -0.4396  0.2497
 2730W        W 6794   7.823   6.144   7.884 -0.0332  0.0176  0.2542
 2731W        W 6795   9.285   9.164   2.566  0.0872  0.0424  0.0041
 2732W        W 6796   3.841   4.783   9.373  0.1224 -0.0802 -0.0078
 2733W        W 6797   3.721   9.022   0.362 -0.1317  0.1371 -0.3033
 2734W        W 6798   3.266  10.742   8.617  0.1651  0.0223 -0.2159
 2735W        W 6799   7.191   9.628   9.734 -0.0147  0.1984  0.0938
 2736W        W 6800   9.510   9.960   8.487  0.0104  0.0265 -0.0464
 2737W        W 6801   5.787   7.086   8.607  0.2843  0.0179  0.0037
 2738W        W 6802   5.530   0.262   8.606 -0.1493  0.0392 -0.2264
 2739W        W 6803   3.992   9.269   9.489  0.0202 -0.1641 -0.0700
 2740W        W 6804   6.087   8.496   8.238  0.2891 -0.1442  0.0849
 2741W        W 6805   7.092   3.207   3.172  0.0448  0.0648  0.0299
 2742W        W 6806   3.223   6.267   7.982  0.1073 -0.1872  0.1482
 2743W        W 6807   6.817   5.616   9.082 -0.2589 -0.0142 -0.0598
 2744W        W 6808   8.097   1.904  10.216  0.1291 -0.0029  0.3936
 2745W        W 6809   2.881   1.930   2.511  0.5163 -0.2126 -0.1993
 2746W        W 6810   9.602   3.902   3.203 -0.0701 -0.2966 -0.1795
 2747W        W 6811   1.526   9.878   1.243  0.2936 -0.0872  0.1804
 2748W        W 6812   0.613   2.022   9.400  0.2236 -0.0149 -0.0217
 2749W        W 6813   5.198   3.073   0.692  0.2552  0.0046  0.1456
 2750W        W 6814   2.768   6.386   0.592 -0.1100  0.0222 -0.3193
 2751W        W 6815   8.861   6.247   1.643 -0.2486 -0.2692 -0.2034
 2752W        W 6816   5.045   3.489   0.964  0.2430 -0.0126 -0.1817
 2753W        W 6817   9.907  10.671   8.882  0.3500 -0.2161 -0.3925
 2754W        W 6818   5.907   8.359   2.113  0.4323 -0.1305 -0.1066
 2755W        W 6819   9.072   9.333   0.312 -0.2006 -0.1995  0.0842
 2756W        W 6820   3.652   6.478   7.883  0.1576 -0.3866  0.1594
 2757W        W 6821   2.854   6.909   0.056 -0.1986 -0.2647  0.0896
 2758W        W 6822   8.716   6.419   8.022 -0.2569  0.2905  0.0673
 2759W        W 6823   7.923   1.415   7.334  0.2248  0.3026  0.1150
 2760W        W 6824   5.303  10.906   8.263  0.1114  0.0574 -0.0483
 2761W        W 6825   8.783   1.256  10.666 -0.0718  0.1515  0.2635
 2762W        W 6826   6.096   2.214   4.070 -0.0320 -0.2892  0.2145
 2763W        W 6827  10.915   1.768   1.410 -0.3795 -0.2067 -0.0329
 2764W        W 6828   5.263   4.864  10.639 -0.2256  0.1578 -0.0912
 2765W        W 6829   1.860  10.690   1.986  0.1576 -0.2323  0.1940
 2766W        W 6830   6.795   8.227   9.243  0.2617  0.2221 -0.0950
 2767W        W 6831   6.559   6.075   7.925 -0.2155 -0.2333  0.0275
 2768W        W 6832   3.707   6.398   8.755 -0.0361 -0.5638 -0.1901
 2769W        W 6833   2.689   6.140   2.573  0.0606  0.2497 -0.0686
 2770W        W 6834   5.153   7.315   9.832 -0.1601  0.2341  0.1706
 2771W        W 6835   3.565   0.867  10.186  0.2277 -0.0775  0.0543
 2772W        W 6836   0.287   1.738   7.575 -0.0322 -0.3097 -0.0486
 2773W        W 6837   5.292   5.734   0.780 -0.1542 -0.0790 -0.3016
 2774W        W 6838   7.365  10.057   3.828  0.3010  0.0268  0.2782
 2775W        W 6839   1.150   8.510   3.741  0.0189 -0.3461 -0.1742
 2776W        W 6840   8.644   4.550   9.354 -0.2620  0.0181  0.2017
 2777W        W 6841   2.033   8.392   8.301  0.0715 -0.1065 -0.0092
 2778W        W 6842  10.363   7.466   7.213 -0.0911 -0.0495 -0.0601
 2779W        W 6843  10.402   0.405   3.716  0.4098 -0.0314 -0.0658
 2780W        W 6844  10.078   2.103  10.505 -0.1477  0.1386 -0.1239
 2781W        W 6845   5.337   8.024  10.778 -0.0917  0.1899  0.1601
 2782W        W 6846   5.201   1.528   0.681  0.0805 -0.1918 -0.3151
 2783W        W 6847   0.538   7.176   8.901 -0.2931 -0.2561 -0.1087
 2784W        W 6848   1.843   3.956   1.545 -0.1807  0.0864 -0.0730
 2785W        W 6849  10.122   4.728   8.170 -0.1914  0.0947  0.2292
 2786W        W 6850   9.942   0.405   1.136 -0.2598  0.1050  0.4253
 2787W        W 6851  10.798   5.204   0.636  0.1360 -0.2904  0.1877
 2788W        W 6852   8.043   5.043   0.093  0.2104 -0.2378  0.1196
 2789W        W 6853   9.311   1.763   9.310  0.1168 -0.0879 -0.2021
 2790W        W 6854  10.470   0.475   1.154 -0.2474  0.4349  0.1309
 2791W        W 6855   8.180   0.105   8.604  0.0384  0.0359  0.4531
 2792W        W 6856   7.378   2.936   0.727  0.0725 -0.3719 -0.2331
 2793W        W 6857   9.984   4.272   3.091  0.0133 -0.1657  0.2753
 2794W        W 6858   5.313   5.886   9.960  0.1822 -0.1199 -0.1052
 2795W        W 6859   3.707   7.913   7.630  0.2490 -0.1168 -0.0907
 2796W        W 6860  10.032   5.631   0.759 -0.1543 -0.2561  0.1675
 2797W        W 6861   3.779   3.992   1.967  0.0059 -0.1151 -0.0837
 2798W        W 6862  10.129   4.808   9.504  0.0798  0.2550  0.0528
 2799W        W 6863   2.872   9.263   3.140  0.1343  0.1597 -0.2281
 2800W        W 6864   4.907   9.657   0.230  0.0033  0.3090 -0.0388
 2801W        W 6865   4.368   5.788   1.079  0.1557  0.2894 -0.1749
 2802W        W 6866  10.540   9.675   2.264 -0.0508  0.0895  0.2145
 2803W        W 6867  10.432   6.211   0.622  0.0164  0.0743 -0.4273
 2804W        W 6868   1.838   6.491   6.994  0.0894 -0.2731  0.2154
 2805W        W 6869  10.047   0.362   3.367  0.4292  0.0925 -0.1926
 2806W        W 6870   1.757   1.506   9.840  0.0313  0.1333 -0.2573
 2807W        W 6871  10.328   7.229  10.894  0.1435  0.1022 -0.2873
 2808W        W 6872   5.345   6.853   2.872  0.0966  0.0585 -0.0474
 2809W        W 6873   5.951   8.680   9.126 -0.1148  0.1078 -0.0662
 2810W        W 6874   9.819   2.483   2.260 -0.1720 -0.0583  0.1264
 2811W        W 6875   5.438   3.962   8.400  0.2658 -0.0600  0.0293
 2812W        W 6876   1.169   0.886   0.007 -0.1675  0.0776  0.0999
 2813W        W 6877   7.228   5.209   7.839  0.5118  0.2075  0.1182
 2814W        W 6878   5.280  10.386   8.939  0.0165  0.2529  0.0610
 2815W        W 6879   2.255   5.189   1.976 -0.0987  0.2724  0.1722
 2816W        W 6880   7.635   5.776  10.050  0.1178 -0.1855 -0.0246
 2817W        W 6881   3.646   7.577  11.002 -0.2203 -0.1848 -0.0745
 2818W        W 6882   8.955   6.308   0.720 -0.3806 -0.2019  0.0001
 2819W        W 6883   1.817   9.365   9.267 -0.0665 -0.1210 -0.0601
 2820W        W 6884   7.378   2.222  10.889  0.0207 -0.2519 -0.0947
 2821W        W 6885   7.856   3.528   3.731 -0.2140 -0.3999 -0.1044
 2822W        W 6886   0.814   9.481  10.527 -0.3045 -0.0835 -0.0752
 2823W        W 6887   8.384   9.959   7.250 -0.1914 -0.3961  0.0540
 2824W        W 6888   4.380   9.446   1.778  0.1442 -0.2290  0.1231
 2825W        W 6889   5.574   2.533   1.479 -0.5059  0.1359  0.0960
 2826W        W 6890   8.032   6.984   0.650  0.0681  0.1866 -0.2484
 2827W        W 6891   0.444  10.150   3.178  0.2301 -0.1182 -0.1286
 2828W        W 6892   7.031   0.589   2.000  0.0848  0.1512  0.0466
 2829W        W 6893   8.168   5.788   3.432  0.2746  0.0206  0.3231
 2830W        W 6894   9.840   9.812   9.380 -0.1610  0.2287  0.5020
 2831W        W 6895   8.655   9.985   0.513  0.0695 -0.1472  0.1683
 2832W        W 6896   1.283   7.255   9.558  0.0214  0.0595  0.0289
 2833W        W 6897   4.319   4.804   2.955  0.1039  0.1538 -0.0073
 2834W        W 6898   0.820   6.653   8.965 -0.2321 -0.0588  0.1169
 2835W        W 6899   9.064   0.481   8.050  0.0129  0.1845  0.1919
 2836W        W 6900   8.894   3.498   9.511  0.1524  0.0330 -0.1508
 2837W        W 6901   5.503   4.136  10.202 -0.1821  0.3049  0.1440
 2838W        W 6902   8.729   0.384   1.970 -0.0988 -0.0735  0.0708
 2839W        W 6903   5.988   2.292   0.585  0.1770 -0.1797 -0.1116
 2840W        W 6904   5.543  10.881   1.339 -0.2399  0.0458  0.2311
 2841W        W 6905   7.243   2.827   3.409  0.1813  0.3202  0.0291
 2842W        W 6906   5.305   6.969  10.768 -0.0437  0.0605 -0.0766
 2843W        W 6907  10.023   2.299   0.879 -0.0506  0.1756  0.0030
 2844W        W 6908   4.672   8.682   9.381 -0.2558  0.1827 -0.0647
 2845W        W 6909   2.086   3.856   2.439 -0.2461  0.3155  0.1427
 2846W        W 6910   5.618   7.599  10.519  0.1971  0.1475  0.2871
 2847W        W 6911   5.032   6.534   0.092 -0.0286 -0.1081  0.0825
 2848W        W 6912   5.052   6.319   1.328  0.0726  0.0486  0.0811
 2849W        W 6913   9.782   5.755  10.435  0.0133 -0.0710 -0.0835
 2850W        W 6914   4.370   7.711   8.305  0.3144 -0.0849  0.0893
 2851W        W 6915   5.193   1.773  10.757  0.1119  0.0331  0.1494
 2852W        W 6916   8.526   1.625   9.028  0.0562  0.1942  0.4366
 2853W        W 6917   0.749   3.370   0.339 -0.1849  0.0199  0.0999
 2854W        W 6918   1.138   3.442   8.692  0.2341 -0.0364  0.1329
 2855W        W 6919   5.093   0.210   3.068  0.0930 -0.0817 -0.1292
 2856W        W 6920   4.967   2.389   8.089  0.1646  0.0877  0.0158
 2857W        W 6921   0.728   5.380   8.491  0.1448  0.0755 -0.0273
 2858W        W 6922   5.802   4.061   7.902  0.2719  0.4693  0.1644
 2859W        W 6923   1.402   4.907   8.702 -0.2560 -0.4140  0.2717
 2860W        W 6924   4.739   4.614   2.682 -0.1499 -0.3815  0.1765
 2861W        W 6925   2.918   0.452   3.310 -0.0223  0.1215  0.3333
 2862W        W 6926   0.077   5.319   1.817  0.1336 -0.1720 -0.2709
 2863W        W 6927   1.445   0.986   2.242 -0.2430  0.2447  0.0196
 2864W        W 6928   1.990   1.544   1.176 -0.0156  0.3492 -0.2281
 2865W        W 6929   5.973   2.036   9.298 -0.1531  0.1365 -0.3823
 2866W        W 6930   0.177   1.639   7.127  0.1496  0.2641  0.2841
 2867W        W 6931   8.302   9.155   9.796  0.0843 -0.0438  0.0502
 2868W        W 6932   6.880   9.025   3.364 -0.2182  0.1546 -0.0786
 2869W        W 6933   6.724   2.994   2.857 -0.0260 -0.1579  0.0557
 2870W        W 6934   5.557   2.727   8.275 -0.0353  0.2406 -0.2843
 2871W        W 6935   6.024  10.155   1.554  0.0143  0.1558  0.0919
 2872W        W 6936   3.741   7.455   2.018  0.0446  0.1136  0.1634
 2873W        W 6937   9.037   6.234  10.377 -0.1585 -0.0637  0.4606
 2874W        W 6938   2.346   8.913   9.148  0.2067 -0.1928 -0.0487
 2875W        W 6939   4.472   8.512   1.659  0.0649 -0.1391 -0.1144
 2876W        W 6940  10.774   5.518   9.646 -0.0029  0.1414 -0.0734
 2877W        W 6941   9.617   1.074   1.371  0.0147  0.1652  0.0596
 2878W        W 6942   3.901   4.528   1.721  0.2220  0.0203  0.1830
 2879W        W 6943   5.280   3.220  10.379 -0.0959  0.1172  0.1679
 2880W        W 6944   3.609   3.425   2.031 -0.2620  0.1413 -0.3203
 2881W        W 6945   0.819   2.694   3.758  0.0974  0.1914  0.2339
 2882W        W 6946   3.150   5.701   0.006  0.3808 -0.2033  0.4136
 2883W        W 6947   4.725   6.403   1.842  0.2943 -0.3729  0.0363
 2884W        W 6948   9.026   2.170   2.266 -0.2847 -0.1470  0.4091
 2885W        W 6949   2.293   0.755   8.577  0.0269 -0.0622 -0.3308
 2886W        W 6950  10.257   9.209   0.777 -0.0245 -0.0603  0.2602
 2887W        W 6951   3.107   3.029   1.398  0.0968 -0.0938 -0.0832
 2888W        W 6952   5.492   8.867   8.781 -0.1775  0.0657 -0.1570
 2889W        W 6953   1.755   7.842   8.182  0.0785  0.0019  0.2797
 2890W        W 6954   2.754   2.289   2.147 -0.2268 -0.1229  0.0934
 2891W        W 6955   8.708   7.052   1.497  0.1073  0.1341  0.1766
 2892W        W 6956  10.020   6.936   0.067  0.3074  0.1227 -0.0385
 2893W        W 6957   7.430   9.820   8.972 -0.1587  0.0273 -0.2288
 2894W        W 6958   6.364   6.636   0.095  0.0306 -0.1476 -0.4275
 2895W        W 6959   8.146   3.470   2.541 -0.2019 -0.0291  0.3852
 2896W        W 6960   0.793   0.744   8.537 -0.0374 -0.0388  0.2864
 2897W        W 6961   2.455   8.417  10.048  0.2669 -0.2180 -0.3847
 2898W        W 6962   7.846   8.915   2.807  0.1263 -0.2539  0.1616
 2899W        W 6963   9.268   1.779   8.333 -0.1739  0.2912  0.0859
 2900W        W 6964   0.701   1.681   0.075 -0.0477  0.2006  0.2683
 2901W        W 6965   9.530   2.061   8.011  0.2464 -0.0047  0.3673
 2902W        W 6966   4.578   1.385   9.160 -0.1586  0.3354  0.0094
 2903W        W 6967   5.151   3.301   1.449 -0.0459 -0.0307 -0.0882
 2904W        W 6968   9.689   2.918   1.061 -0.3990 -0.2358 -0.0282
 2905W        W 6969   3.111   4.314   9.272  0.2408  0.0972  0.0249
 2906W        W 6970   4.162   9.045   0.661  0.0294 -0.0407 -0.1297
 2907W        W 6971   7.262   2.255   2.591  0.1611 -0.2344 -0.0761
 2908W        W 6972   1.954   2.190  10.280 -0.0766  0.1335 -0.0022
 2909W        W 6973   7.182   6.255   0.330 -0.0191 -0.1341 -0.2233
 2910W        W 6974   1.168   5.421   0.756  0.0422 -0.3009 -0.1791
 2911W        W 6975   2.681   0.980   1.624 -0.0721 -0.1797  0.0668
 2912W        W 6976  10.729   3.157   9.713  0.1975 -0.1991  0.2327
 2913W        W 6977   3.139   5.184   9.967 -0.1493  0.0446 -0.0774
 2914W        W 6978   5.546   8.287   9.075  0.0825  0.0863  0.2972
 2915W        W 6979  10.603   8.200   1.546 -0.1540  0.0728  0.1568
 2916W        W 6980   9.944   3.096   3.011  0.0613  0.0887 -0.3146
 2917W        W 6981   3.408   3.013   7.765 -0.0957  0.1073  0.0566
 2918W        W 6982   0.636   7.347   0.835 -0.2324 -0.0132 -0.2069
 2919W        W 6983   9.586   3.314   3.850 -0.3072 -0.1413 -0.1042
 2920W        W 6984   7.644   3.537   8.829  0.1463  0.0733  0.4350
 2921W        W 6985   0.442   1.908   3.182 -0.0812 -0.0409 -0.1070
 2922W        W 6986   1.297   8.973   9.932  0.2098  0.1643  0.1433
 2923W        W 6987   8.422   6.770   8.364  0.0454  0.4978 -0.2092
 2924W        W 6988   7.144   8.999   8.913 -0.0464 -0.0851 -0.0261
 2925W        W 6989   3.340   8.844  10.394  0.0137  0.1127 -0.0116
 2926W        W 6990   7.035   1.968   8.198  0.1016  0.0611  0.2121
 2927W        W 6991   8.533  10.633   1.397  0.3025  0.0722  0.3440
 2928W        W 6992   3.649   8.925  10.882  0.0541  0.1765  0.0948
 2929W        W 6993   3.987   6.743   8.223 -0.1855 -0.0165 -0.2267
 2930W        W 6994   2.851   0.775   3.743  0.3542 -0.0400  0.3163
 2931W        W 6995   5.696   8.212   0.983  0.2347 -0.0138  0.0875
 2932W        W 6996   0.393   3.340   1.548 -0.1240 -0.0125 -0.0733
 2933W        W 6997   6.270  10.691   0.237  0.0784  0.1175 -0.1382
 2934W        W 6998   5.219   9.742   0.631 -0.0279  0.0859 -0.3242
 2935W        W 6999   5.915   8.862  10.669 -0.0125  0.0016  0.2026
 2936W        W 7000   5.564  10.118   8.601  0.1290 -0.1248  0.0050
 2937W        W 7001   7.665  10.038   1.645 -0.3301  0.3262 -0.0420
 2938W        W 7002   4.729   7.612  10.098 -0.1706  0.0386  0.3615
 2939W        W 7003   2.475  10.238   0.108  0.3162 -0.2300 -0.0970
 2940W        W 7004   0.640   8.436   3.737  0.1593  0.0920  0.4082
 2941W        W 7005  10.384   5.254   3.046  0.0930  0.2110 -0.3877
 2942W        W 7006   8.089   8.262   9.434 -0.0592 -0.4117 -0.0682
 2943W        W 7007   1.681   4.981  10.567 -0.1338 -0.2740  0.2970
 2944W        W 7008   6.990   5.808   8.654 -0.1344  0.1263  0.0295
 2945W        W 7009  10.825   9.877   0.048  0.0831 -0.0345  0.1611
 2946W        W 7010   3.551   8.259   2.123 -0.3141 -0.2504 -0.2497
 2947W        W 7011   2.149   0.943  10.489  0.0837  0.2701 -0.3180
 2948W        W 7012   2.807   0.303   2.363  0.3577  0.1479 -0.1731
 2949W        W 7013   8.122  10.883   1.390 -0.0906  0.3890  0.0456
 2950W        W 7014   4.239   3.372  10.646  0.0058  0.0123  0.1642
 2951W        W 7015   8.930   8.105   8.620 -0.3819  0.3408 -0.0839
 2952W        W 7016   7.416   7.963   6.643 -0.2461  0.1102 -0.0970
 2953W        W 7017   6.205   9.341  10.677  0.0243  0.0638  0.0260
 2954W        W 7018   5.322   5.264   0.566 -0.1240 -0.1049 -0.1903
 2955W        W 7019   6.034   5.884   1.047  0.1047 -0.0903  0.0383
 2956W        W 7020   1.457  10.694   9.507  0.0610 -0.0331  0.0685
 2957W        W 7021   8.958   9.221   8.812 -0.0459  0.1188 -0.0639
 2958W        W 7022   3.482   3.329   8.525 -0.2913  0.0710 -0.1949
 2959W        W 7023   5.260   8.986   1.594 -0.3304  0.0073  0.1992
 2960W        W 7024   9.102   6.184   8.907 -0.0832 -0.0328 -0.2434
 2961W        W 7025   7.329   8.997   8.339  0.1377  0.1438  0.1004
 2962W        W 7026   8.325  10.189   9.883 -0.0606 -0.1492  0.0956
 2963W        W 7027   0.853  10.703   2.784 -0.3257 -0.1243 -0.1409
 2964W        W 7028   9.495   6.882   8.277 -0.2077  0.1519  0.2786
 2965W        W 7029   2.911   2.741   1.002 -0.0170  0.0208  0.2195
 2966W        W 7030   0.266   8.933   1.287  0.1271  0.0728 -0.0483
 2967W        W 7031   8.513   6.344   1.246 -0.0979 -0.0679 -0.1763
 2968W        W 7032   4.686  10.714   8.280 -0.2303  0.0789 -0.0371
 2969W        W 7033   2.118   6.689   9.515 -0.0677 -0.3192 -0.0292
 2970W        W 7034   3.616   9.876   9.743  0.0632  0.0529  0.0562
 2971W        W 7035   2.977   8.813   0.897 -0.2215  0.0606  0.3948
 2972W        W 7036   8.012  10.485   1.670 -0.1570 -0.0125 -0.2296
 2973W        W 7037   6.666   4.502   0.738  0.0473 -0.3102  0.2033
 2974W        W 7038   7.582   5.827   2.286  0.3165 -0.1156 -0.1090
 2975W        W 7039   2.567   7.531   2.119  0.0997  0.0967  0.1668
 2976W        W 7040   8.772   0.040   2.351 -0.2712  0.2448 -0.2645
 2977W        W 7041   7.224  10.529   2.180 -0.1113 -0.0616  0.0449
 2978W        W 7042  10.178   2.616  10.619 -0.1671  0.0600 -0.0559
 2979W        W 7043   7.334   7.020   1.020 -0.0462  0.0169  0.2282
 2980W        W 7044   7.267   5.431   9.472  0.0736 -0.4821 -0.0789
 2981W        W 7045  10.005   3.688   1.328  0.0481 -0.0094 -0.0007
 2982W        W 7046   6.150   9.327   2.541  0.0410 -0.2837  0.0010
 2983W        W 7047   0.400   9.565   2.473 -0.0021 -0.1693  0.0788
 2984W        W 7048   4.843   5.553   0.664  0.0049 -0.0806  0.2346
 2985W        W 7049   5.800   2.089   3.018 -0.1848  0.1595  0.1768
 2986W        W 7050   0.564   4.679   2.653  0.0747 -0.0980  0.0887
 2987W        W 7051   1.423   3.397   1.657 -0.1081  0.0967 -0.0675
 2988W        W 7052   9.604   4.984   7.134  0.0931  0.0192  0.0354
 2989W        W 7053   4.462   3.869   7.091 -0.0283 -0.2341 -0.0442
 2990W        W 7054   2.176   9.723   3.737 -0.3165 -0.0159  0.2884
 2991W        W 7055   0.249   9.589  10.417 -0.0199 -0.2589 -0.2029
 2992W        W 7056  10.746   8.672   1.932  0.0156  0.1395 -0.1378
 2993W        W 7057   6.687   7.847   2.041 -0.2780  0.1516 -0.2294
 2994W        W 7058   2.111   6.725   9.997 -0.1932 -0.3703 -0.1011
 2995W        W 7059   2.792   8.608   8.252  0.0024  0.3749  0.2134
 2996W        W 7060   4.400   7.851  10.880  0.0670  0.4304  0.1531
 2997W        W 7061   8.001   0.021   9.272  0.0832  0.3277 -0.0302
 2998W        W 7062   5.343   1.640   8.486  0.2471  0.0122 -0.1970
 2999W        W 7063  10.814   1.062   0.248  0.2240  0.1086 -0.0896
 3000W        W 7064   1.948   5.268   9.812 -0.0348 -0.0726  0.0437
 3001W        W 7065   3.270   9.760   2.810  0.2917 -0.0253 -0.0070
 3002W        W 7066   7.162  10.904   9.390 -0.1408 -0.1255  0.0175
 3003W        W 7067   7.261   7.072   8.576 -0.0301  0.0999  0.0822
 3004W        W 7068   2.088   5.931   9.338  0.1478 -0.2875  0.0028
 3005W        W 7069   3.688   8.656   9.951 -0.0740 -0.0440 -0.1244
 3006W        W 7070   4.120   2.325   0.925  0.0458  0.1124 -0.2602
 3007W        W 7071   9.968   9.107   8.524  0.0759  0.0245  0.0234
 3008W        W 7072   9.346   1.235   0.400  0.1704 -0.1288  0.0892
 3009W        W 7073   7.896   4.793   2.074 -0.1136 -0.2439  0.0732
 3010W        W 7074   8.926   7.460   3.501  0.0806 -0.4537 -0.4366
 3011W        W 7075   6.737   2.402  10.479  0.0101  0.1848  0.0460
 3012W        W 7076   7.751   5.861   8.990  0.2234  0.0794 -0.1540
 3013W        W 7077   5.848   9.127   9.453  0.2589  0.1224 -0.0937
 3014W        W 7078   3.489   7.535  10.229  0.2146  0.0340  0.1051
 3015W        W 7079   7.787   3.455  10.812 -0.4078 -0.0894  0.2787
 3016W        W 7080   3.446   8.156   0.424  0.2176  0.0433  0.3532
 3017W        W 7081   2.726   3.960   1.556 -0.1321  0.1544  0.1843
 3018W        W 7082   7.830   6.690   9.545 -0.0588  0.3157  0.1431
 3019W        W 7083   1.580   6.237   2.589 -0.0561 -0.3176  0.1755
 3020W        W 7084   3.626   7.240   9.403 -0.2150 -0.1289 -0.1896
 3021W        W 7085   3.941   7.778   2.442 -0.3020  0.1410 -0.1598
 3022W        W 7086   5.699   4.939  10.812 -0.0662  0.0832 -0.0555
 3023W        W 7087   8.172   0.413  10.043  0.0024 -0.3060  0.1982
 3024W        W 7088   4.430   5.203   0.174 -0.2840 -0.0193 -0.0092
 3025W        W 7089   0.666   9.472   0.230 -0.3810 -0.0589  0.0332
 3026W        W 7090   9.263   1.500   7.819 -0.2639  0.3173 -0.3496
 3027W        W 7091   8.773   1.824   8.573 -0.4169  0.1060 -0.1439
 3028W        W 7092   2.918   1.289   3.605  0.0746  0.1208  0.3647
 3029W        W 7093   8.334   6.155   8.532  0.2613 -0.2140  0.1076
 3030W        W 7094   4.761   6.840  10.775 -0.1667 -0.0248 -0.1193
 3031W        W 7095   8.854   3.824   2.705 -0.2970  0.1470 -0.2411
 3032W        W 7096   2.157   6.463   0.823  0.1359 -0.2561 -0.1137
 3033W        W 7097   8.658   7.937   9.042 -0.1628 -0.4979 -0.2192
 3034W        W 7098   4.633   5.568   1.522 -0.2292  0.0512 -0.1147
 3035W        W 7099   0.943   5.285   1.575  0.0492 -0.1383  0.1946
 3036W        W 7100   6.426   3.492   1.316  0.0486 -0.0511 -0.0350
 3037W        W 7101   8.560   7.126   7.370  0.0279 -0.0627 -0.2266
 3038W        W 7102   0.906   6.879  10.835 -0.0619 -0.0203  0.0486
 3039W        W 7103   7.778   8.144   1.172  0.0328 -0.0542  0.0855
 3040W        W 7104  10.390   9.773   2.766 -0.0261 -0.1865  0.1313
 3041W        W 7105   1.749  10.480   7.796  0.0086 -0.2801 -0.0513
 3042W        W 7106   1.422   7.255   7.596 -0.1129  0.2398  0.1418
 3043W        W 7107   6.669   2.943   9.495  0.4797  0.0084 -0.1445
 3044W        W 7108  10.854   6.050   0.151  0.0440  0.0434 -0.0803
 3045W        W 7109   2.432   1.459   2.644 -0.0527  0.0400  0.1743
 3046W        W 7110   4.681   9.580   9.560  0.2613 -0.4339 -0.0818
 3047W        W 7111   8.146  10.010   1.912 -0.1542 -0.3737 -0.0649
 3048W        W 7112   0.023  10.544   1.303 -0.2660 -0.1273 -0.1118
 3049W        W 7113   8.608   8.091   2.019 -0.0364 -0.2311  0.0142
 3050W        W 7114   6.867   7.607   9.331  0.0784 -0.1741  0.1688
 3051W        W 7115   9.504   4.399   3.122 -0.0013 -0.2403 -0.1870
 3052W        W 7116   2.759   2.683   7.904  0.0584  0.3356  0.2810
 3053W        W 7117   3.499  10.003   2.042 -0.0174 -0.3739  0.1626
 3054W        W 7118   2.401   7.695   8.671  0.0490  0.0189 -0.0230
 3055W        W 7119   3.128   8.640   2.258  0.1591  0.0718 -0.1599
 3056W        W 7120   8.051   4.698  10.754  0.0532 -0.1842  0.2606
 3057W        W 7121   6.428   8.159   0.732  0.6495 -0.0691 -0.1056
 3058W        W 7122   1.446   5.181   9.627  0.1220 -0.0916  0.0231
 3059W        W 7123   2.931   2.730   1.919 -0.1690 -0.0266 -0.1489
 3060W        W 7124   3.661   6.416   1.134  0.1450 -0.2805 -0.1935
 3061W        W 7125   8.242   8.136   9.871 -0.0137  0.0951 -0.0246
 3062W        W 7126   0.838   6.786  10.265 -0.1432  0.0423  0.1729
 3063W        W 7127   6.354   5.786   8.983  0.0473  0.3202 -0.0446
 3064W        W 7128   9.577   4.448   0.480  0.2159 -0.1511 -0.0008
 3065W        W 7129   1.591   3.319  10.695  0.2073  0.1061 -0.3312
 3066W        W 7130   5.920   6.070   2.341  0.1207 -0.1771  0.1184
 3067W        W 7131   2.049   5.750  10.020 -0.2856 -0.2598 -0.1286
 3068W        W 7132   4.596   8.356   0.952 -0.2104 -0.0624  0.0185
 3069W        W 7133   7.418   9.523   2.502  0.2820  0.0416 -0.2546
 3070W        W 7134   0.741  10.403   7.986  0.1838 -0.1572  0.1809
 3071W        W 7135   8.706   0.883   8.091  0.3608  0.1618 -0.1238
 3072W        W 7136   3.980   2.007  10.104 -0.0731 -0.1213  0.1522
 3073W        W 7137   5.287   4.049   7.849  0.0989 -0.0856  0.0412
 3074W        W 7138  10.465  10.065   1.865 -0.0644 -0.3380  0.2229
 3075W        W 7139   7.819   6.708   7.864  0.0294  0.3026  0.2221
 3076W        W 7140  10.321   2.420   1.448  0.3379  0.2013 -0.0664
 3077W        W 7141  10.153   0.540   9.402 -0.3652  0.4346  0.3473
 3078W        W 7142   6.609   5.861   1.901  0.3955 -0.0875  0.1483
 3079W        W 7143   5.840   1.008   8.115 -0.0125  0.1627 -0.3367
 3080W        W 7144   4.256   5.389   2.015  0.0387 -0.1951 -0.0011
 3081W        W 7145   5.928   1.139  10.417  0.1462  0.0579  0.0891
 3082W        W 7146   2.375   6.518   8.182 -0.0467 -0.2222  0.0948
 3083W        W 7147   2.770   7.061   7.502  0.2424 -0.2336 -0.1421
 3084W        W 7148   3.648   4.561   1.176  0.0594  0.0967 -0.3452
 3085W        W 7149   6.259   6.953   8.676  0.2479 -0.1249  0.3096
 3086W        W 7150   8.086   8.446   8.046  0.0700  0.0581  0.0922
 3087W        W 7151   9.351   6.055   0.888 -0.0989 -0.1698  0.0214
 3088W        W 7152   1.961   6.603   8.537  0.1885  0.0238 -0.0660
 3089W        W 7153  10.901  10.068   1.215 -0.0673  0.0873 -0.1574
 3090W        W 7154   1.823   2.562   8.845 -0.0117  0.0294 -0.0249
 3091W        W 7155  10.152   9.862   8.896 -0.1066  0.0186 -0.2141
 3092W        W 7156   9.656   5.606   2.639 -0.3088  0.1592 -0.0206
 3093W        W 7157   9.046   5.574   2.425 -0.3736  0.1797 -0.0548
 3094W        W 7158   2.935   6.003   2.039 -0.2833  0.3725  0.0547
 3095W        W 7159   6.700   0.420   9.726 -0.0684  0.0575  0.3362
 3096W        W 7160  10.605   1.126   8.091 -0.2932 -0.1377  0.2485
 3097W        W 7161   6.843   6.512   7.964 -0.0220 -0.0223 -0.0232
 3098W        W 7162   6.844  10.356   1.116  0.1137 -0.2060 -0.2891
 3099W        W 7163   5.727   8.851   7.976 -0.5203 -0.2243 -0.1246
 3100W        W 7164   6.128   6.162   0.069 -0.2999 -0.2958  0.2101
 3101W        W 7165   5.720   8.359   7.871 -0.1253  0.1684 -0.0165
 3102W        W 7166   0.830   2.117  10.433 -0.1895 -0.1841  0.2504
 3103W        W 7167  10.774   1.673   2.014 -0.1385  0.2306  0.0476
 3104W        W 7168   4.556  10.453   3.246 -0.2540  0.0441  0.1088
 3105W        W 7169   5.377   7.086   2.285  0.1874  0.0725 -0.1200
 3106W        W 7170   8.641   9.478   7.225  0.1324 -0.0053 -0.1213
 3107W        W 7171   8.482   4.875   9.014  0.0996  0.3016 -0.0410
 3108W        W 7172   8.451   9.376   1.139  0.2166 -0.1779  0.0343
 3109W        W 7173   9.915   7.537   0.197  0.1628 -0.2923 -0.2065
 3110W        W 7174   1.738   8.137   0.937 -0.0658 -0.2627 -0.0875
 3111W        W 7175   0.832   1.334   9.940  0.2585  0.1367  0.0088
 3112W        W 7176   0.057   4.786   7.797 -0.2186 -0.1479 -0.1283
 3113W        W 7177   2.767   5.327   9.170 -0.1566  0.5251  0.1483
 3114W        W 7178   9.137   4.748  10.265  0.1133 -0.1227 -0.0011
 3115W        W 7179   8.238   1.598   2.609  0.2893  0.0991 -0.0918
 3116W        W 7180   3.282   8.531   8.993  0.0810  0.0123 -0.1353
 3117W        W 7181   6.804   1.340   9.782  0.0698 -0.0062  0.2286
 3118W        W 7182   3.058  10.201   2.765 -0.0661 -0.1493 -0.2240
 3119W        W 7183  10.627   9.448   7.905  0.0370 -0.0406 -0.2103
 3120W        W 7184   5.642   1.299   0.741 -0.2024  0.1089 -0.0859
 3121W        W 7185   6.123   4.105   1.314 -0.0166  0.1937  0.0214
 3122W        W 7186   6.102   4.506   1.832 -0.3613  0.1710 -0.2312
 3123W        W 7187  10.450   8.470   8.676  0.0471 -0.0680 -0.2768
 3124W        W 7188   1.697   5.981   7.891 -0.1439  0.4189  0.0694
 3125W        W 7189   0.234   5.877   9.359  0.3039 -0.2051  0.0126
 3126W        W 7190   7.293  10.480  10.500 -0.2459  0.2856 -0.0886
 3127W        W 7191   9.093   1.070   8.218  0.0385  0.2272  0.0323
 3128W        W 7192   6.677   1.434   0.831  0.4122 -0.1176 -0.1249
 3129W        W 7193   9.979   4.181  10.327  0.2883 -0.1793  0.2300
 3130W        W 7194   3.434   4.586   2.682 -0.0473  0.2699 -0.2209
 3131W        W 7195   2.507   3.415   1.497  0.1830  0.0781 -0.1566
 3132W        W 7196   8.697   1.552   2.543 -0.1233  0.1651 -0.1134
 3133W        W 7197   0.507   3.876   1.641 -0.2675  0.1496  0.1815
 3134W        W 7198   6.795   8.292   7.896  0.4310 -0.1287  0.2550
 3135W        W 7199   1.461   4.695   3.354 -0.1301 -0.0414 -0.1122
 3136W        W 7200   9.604   7.395   8.037 -0.2333 -0.0908  0.1917
 3137W        W 7201   3.921   0.281   4.070  0.1065  0.1236 -0.2263
 3138W        W 7202   0.708   1.843  10.028 -0.0519 -0.3367  0.2510
 3139W        W 7203   5.609   1.720   2.267  0.0266 -0.0121 -0.1965
 3140W        W 7204   3.047   7.636   1.610  0.1398  0.2572 -0.1880
 3141W        W 7205   5.302   1.090   8.427 -0.0526 -0.0219  0.1179
 3142W        W 7206   6.808   2.770   2.031  0.3463  0.1909 -0.0032
 3143W        W 7207   3.584   0.797   9.276 -0.1868 -0.0737 -0.1033
 3144W        W 7208   1.416   6.634  11.013  0.0098 -0.1307  0.2916
 3145W        W 7209   9.779   4.250   8.311 -0.0866  0.1694  0.2352
 3146W        W 7210   3.962   3.234   9.411 -0.0447 -0.1731  0.1860
 3147W        W 7211   9.210   6.481   2.357 -0.1603  0.2390  0.2792
 3148W        W 7212   9.858   2.610   8.629 -0.0802 -0.0376  0.1571
 3149W        W 7213   6.390  10.666   9.060  0.0606  0.2633  0.0003
 3150W        W 7214   8.656  10.089   8.936 -0.1740 -0.1932  0.4494
 3151W        W 7215   8.694   9.530   1.596 -0.0057 -0.1881 -0.1367
 3152W        W 7216   0.921  10.758   9.699  0.1071  0.1982  0.3477
 3153W        W 7217   1.443   5.795   2.540  0.2236 -0.0348 -0.1342
 3154W        W 7218   1.278   0.252   0.242 -0.3032  0.2044 -0.2510
 3155W        W 7219   3.832   4.617  10.786 -0.3452  0.0082  0.3333
 3156W        W 7220   5.380   3.022   9.876 -0.0912  0.0517  0.0483
 3157W        W 7221   4.103   9.441   8.881 -0.1390 -0.1307  0.3741
 3158W        W 7222   6.355   1.780   9.614  0.0815 -0.3745  0.1692
 3159W        W 7223   0.911   9.126   0.036 -0.0652  0.0624 -0.0493
 3160W        W 7224   4.275   8.311  10.970  0.0306  0.1520 -0.0705
 3161W        W 7225   5.391  10.475  10.534 -0.0334 -0.2820  0.2231
 3162W        W 7226  10.427   9.794   3.806 -0.1037  0.0004  0.0689
 3163W        W 7227  10.555  10.140  10.726  0.1050  0.0461 -0.0455
 3164W        W 7228   8.433   3.559   7.750 -0.0641  0.3796 -0.1432
 3165W        W 7229   6.504   2.512   0.021 -0.2781 -0.0278 -0.1092
 3166W        W 7230   3.211  10.257   0.469  0.1732 -0.0819 -0.0360
 3167W        W 7231   2.775  10.828   2.059  0.0585 -0.1687  0.0000
 3168W        W 7232   1.299   9.331   8.586  0.2164 -0.2706  0.2402
 3169W        W 7233   7.933   1.104   0.541 -0.1679 -0.1946  0.1520
 3170W        W 7234   8.137   5.159   1.809 -0.0488  0.1989  0.2501
 3171W        W 7235   8.607   4.608   0.897 -0.3006 -0.2997  0.2883
 3172W        W 7236   8.017   3.147   2.035  0.0815  0.3459  0.0358
 3173W        W 7237   3.599   2.795   8.213  0.1926  0.3542  0.0605
 3174W        W 7238   4.598   3.867   0.613  0.1155 -0.1966 -0.1120
 3175W        W 7239   5.149  10.768   0.306  0.1362  0.2164 -0.1348
 3176W        W 7240   8.380   3.507   9.367  0.0787 -0.2109 -0.0167
 3177W        W 7241   9.022   6.315   3.552 -0.0762 -0.3187  0.1069
 3178W        W 7242   1.024   7.252  10.487 -0.1769 -0.1864  0.4281
 3179W        W 7243  10.369   5.212   9.929  0.1290  0.1800  0.1031
 3180W        W 7244   4.078   4.569   0.160 -0.3360 -0.3420  0.3349
 3181W        W 7245   4.174   9.561   3.075 -0.1908  0.1421  0.0773
 3182W        W 7246   8.428   1.136   2.616  0.2601  0.0230 -0.0981
 3183W        W 7247   1.741   1.149  10.258  0.0313  0.1389 -0.1342
 3184W        W 7248   7.633  10.636   2.517  0.1182  0.2192 -0.4097
 3185W        W 7249   5.826   5.181  10.383  0.2594  0.0548 -0.1556
 3186W        W 7250   8.570   1.769  10.558 -0.1279  0.1232  0.3368
 3187W        W 7251   1.320   5.100  10.206  0.2251 -0.1047  0.0711
 3188W        W 7252   9.338   8.588   2.971  0.0839  0.3225 -0.1053
 3189W        W 7253   9.073   2.969   9.688  0.0084 -0.0601  0.1522
 3190W        W 7254   0.481   4.243  11.012 -0.1702 -0.2087 -0.0782
 3191W        W 7255   9.010   8.719   7.792  0.1085 -0.1134  0.2531
 3192W        W 7256   4.670   8.306   8.669  0.0878  0.0471  0.4896
 3193W        W 7257  10.611   2.638   1.125 -0.0499 -0.0539  0.0810
 3194W        W 7258   5.360   5.301  10.894 -0.3436  0.3114 -0.1848
 3195W        W 7259   2.903   1.896   9.053  0.1681 -0.1319  0.0899
 3196W        W 7260   8.996   1.945   9.023  0.0539  0.0847 -0.1625
 3197W        W 7261   8.060   4.840   9.375 -0.1771  0.0096  0.0265
 3198W        W 7262   3.042   4.588   8.185  0.2112  0.3684  0.0337
 3199W        W 7263  10.789   6.056  10.016  0.0013 -0.0551  0.1362
 3200W        W 7264   5.797   2.421   7.528  0.0495 -0.3802  0.0542
 3201W        W 7265   2.254   5.692  10.900  0.2461  0.1324  0.3729
 3202W        W 7266   8.456   8.654   9.284  0.1526 -0.1827  0.1216
 3203W        W 7267   6.548   5.463   0.128 -0.0015 -0.0587 -0.1976
 3204W        W 7268   9.978   6.769   7.251  0.3201  0.1709 -0.2337
 3205W        W 7269   5.337  10.384   0.025 -0.2455  0.2636  0.1772
 3206W        W 7270   7.024   6.024   7.741  0.0574  0.0334  0.1920
 3207W        W 7271   1.687   5.437   7.743  0.0322 -0.0078  0.0593
 3208W        W 7272   7.502   0.122   7.719  0.0876  0.0236  0.0397
 3209W        W 7273   6.434   1.870   0.902 -0.1910 -0.1084 -0.0673
 3210W        W 7274   3.452   5.280   7.911  0.0459 -0.1143 -0.0572
 3211W        W 7275   9.332   7.860   8.748 -0.0347 -0.0714  0.2955
 3212W        W 7276   4.024   7.239   7.667  0.0426 -0.3990  0.3084
 3213W        W 7277   7.420   2.337   9.120  0.0214  0.0568 -0.1204
 3214W        W 7278   9.464   7.573   9.503 -0.0672  0.1537 -0.2170
 3215W        W 7279   4.181   2.378   9.342 -0.3329  0.0222  0.4711
 3216W        W 7280   7.595   7.985   3.241  0.0218  0.1060  0.1235
 3217W        W 7281   0.267  10.083   9.970 -0.1541  0.3063 -0.1896
 3218W        W 7282   3.018   7.202   2.773 -0.0071 -0.0723 -0.1708
 3219W        W 7283   9.904   9.398  10.872 -0.3301 -0.1248  0.1708
 3220W        W 7284  10.445   6.636   0.220 -0.0734  0.0156 -0.0841
 3221W        W 7285   2.106   8.829   2.525  0.0520  0.0557  0.2413
 3222W        W 7286   0.692   4.701   4.231  0.3434  0.2030  0.0838
 3223W        W 7287   9.040   7.923   7.735  0.2447  0.1858 -0.1152
 3224W        W 7288   3.086   9.372   7.947 -0.3788 -0.0436 -0.2624
 3225W        W 7289  10.388   6.082   8.986 -0.1287 -0.1581  0.0356
 3226W        W 7290   2.302   9.468   8.486  0.1615 -0.0655 -0.3390
 3227W        W 7291   3.071   0.903   9.443 -0.2851  0.1331 -0.4494
 3228W        W 7292  10.287   3.038  10.905  0.1596 -0.1450  0.2444
 3229W        W 7293   8.974   2.744   2.298  0.0675  0.2815  0.2848
 3230W        W 7294   3.308   1.859   9.337  0.0415 -0.1698  0.4077
 3231W        W 7295   5.710  10.053   9.794  0.2992  0.0223 -0.1963
 3232W        W 7296  10.756  10.796   2.651  0.0763 -0.0709  0.0525
 3233W        W 7297   3.804   7.901  10.201  0.0189 -0.0170  0.1606
 3234W        W 7298   4.148   6.273   8.051 -0.5191 -0.0490 -0.2594
 3235W        W 7299   2.655   1.153   9.494 -0.1388  0.2030  0.3426
 3236W        W 7300   3.680   0.397  10.508  0.0302  0.1759  0.0391
 3237W        W 7301   2.309   7.041   9.203  0.1676  0.0234  0.1117
 3238W        W 7302   0.815   6.108   1.212 -0.0512 -0.1950 -0.0756
 3239W        W 7303   0.539   7.949   9.675  0.1331 -0.0006 -0.0288
 3240W        W 7304   7.218   6.854   7.929 -0.2884 -0.0352 -0.1552
 3241W        W 7305   5.060   0.563   0.318 -0.1570 -0.0756  0.2275
 3242W        W 7306   0.360   5.741   2.589 -0.0410  0.2591  0.1247
 3243W        W 7307   2.987   7.957  10.082 -0.2380  0.0263 -0.4202
 3244W        W 7308   6.145   5.051   7.870 -0.3427 -0.0588 -0.0965
 3245W        W 7309   1.480   9.638   9.088  0.2099 -0.2634 -0.0577
 3246W        W 7310   7.734   0.775   8.645  0.0353  0.0405 -0.0636
 3247W        W 7311   2.015  10.338   8.854 -0.0012 -0.1973 -0.0084
 3248W        W 7312   0.618   0.427   8.954 -0.1167  0.1198 -0.2039
 3249W        W 7313   1.292   1.305   3.630 -0.0825  0.0431  0.2016
 3250W        W 7314   0.826   7.850   0.907  0.1557  0.3096 -0.1025
 3251W        W 7315   8.096   1.522   0.895 -0.0453 -0.2558 -0.0350
 3252W        W 7316   5.846   8.121   2.664  0.3445 -0.0056  0.0518
 3253W        W 7317   4.421  10.721   1.427 -0.2142 -0.1020 -0.0772
 3254W        W 7318   3.082   1.491   0.804  0.6193 -0.0185 -0.0837
 3255W        W 7319   5.522   9.201   1.180  0.1032 -0.2207  0.1218
 3256W        W 7320   9.388   1.904   2.878 -0.4354  0.0193  0.1933
 3257W        W 7321   6.964   2.998   1.072  0.2447  0.0911  0.1620
 3258W        W 7322   8.588  10.560   9.648 -0.3755 -0.1318  0.1072
 3259W        W 7323   4.369   0.244   3.587 -0.3898 -0.1069  0.0790
 3260W        W 7324   6.631  10.369   7.732 -0.3085 -0.0782  0.0102
 3261W        W 7325   1.215   4.873   0.795  0.2764  0.0472 -0.2262
 3262W        W 7326   4.363   4.324  10.726 -0.1247 -0.0838  0.0302
 3263W        W 7327   5.382   6.036   9.400  0.1808  0.0419 -0.1656
 3264W        W 7328  10.511   6.480   8.688 -0.0641 -0.3553  0.0029
 3265W        W 7329   8.407   6.255   2.532  0.2874  0.1813 -0.3666
 3266W        W 7330   9.903   3.334   9.252 -0.2644  0.0109 -0.1034
 3267W        W 7331   2.119   7.018   8.248  0.0194 -0.3016 -0.0306
 3268W        W 7332   8.577   0.577   8.683  0.1755 -0.2101  0.1232
 3269W        W 7333   2.323   8.508   1.644  0.0001  0.2768  0.0842
 3270W        W 7334   5.085   7.816   9.847  0.0259 -0.0663  0.2643
 3271W        W 7335   8.964   6.807   8.325 -0.2069 -0.0883  0.1644
 3272W        W 7336   0.064   4.742   8.346 -0.2836  0.2878  0.0955
 3273W        W 7337   6.691   3.471   8.668 -0.2092 -0.1095  0.1032
 3274W        W 7338   0.914   3.144   1.984 -0.0309  0.1954 -0.0214
 3275W        W 7339   7.895   2.883   9.867 -0.0259  0.2183 -0.1741
 3276W        W 7340   2.721   4.067   3.524  0.2797  0.0557 -0.3050
 3277W        W 7341   2.368   6.654   0.384 -0.2639  0.1488 -0.2375
 3278W        W 7342   4.422   1.161   1.677 -0.1247 -0.3620  0.0543
 3279W        W 7343  10.507   3.030   3.240 -0.0177 -0.0134 -0.3906
 3280W        W 7344   0.877   4.477   8.236  0.1495 -0.2456  0.0775
 3281W        W 7345   5.779   6.068   9.789  0.0544 -0.0715  0.0125
 3282W        W 7346   7.155   4.635   6.800 -0.3327  0.0796 -0.1456
 3283W        W 7347   6.053   7.018   0.152  0.3508  0.1002  0.1983
 3284W        W 7348  10.338   2.118   0.523 -0.0033 -0.1002  0.0895
 3285W        W 7349   3.667  10.898   8.879 -0.1937 -0.0644  0.1021
 3286W        W 7350   0.215   8.221   1.466 -0.0170 -0.1947 -0.0533
 3287W        W 7351  10.678   6.699   0.671  0.0418 -0.1351 -0.0249
 3288W        W 7352   5.913   3.437   2.017 -0.3796  0.0608 -0.1099
 3289W        W 7353   7.124   8.752  10.056  0.1558 -0.2802 -0.1113
 3290W        W 7354   9.455   5.004  10.073 -0.2142  0.0343  0.1182
 3291W        W 7355   5.503   7.600   2.215  0.2192  0.0994  0.0022
 3292W        W 7356   2.595   9.989   8.225  0.2321 -0.0824 -0.3517
 3293W        W 7357   9.802   1.692   1.895  0.0575 -0.2614 -0.1838
 3294W        W 7358   7.815   5.104   7.317 -0.0652 -0.1259  0.1130
 3295W        W 7359   3.744   8.712   3.056 -0.3235  0.0627  0.2407
 3296W        W 7360  10.295   1.368   9.067 -0.2137 -0.1954 -0.1713
 3297W        W 7361   3.994   7.296  10.746  0.1181 -0.0990 -0.0980
 3298W        W 7362   0.192   9.636   0.426 -0.1413 -0.0283 -0.1365
 3299W        W 7363   9.541   9.093   1.780 -0.2121  0.1433  0.1363
 3300W        W 7364   3.244   4.574   3.170  0.0066 -0.2732  0.2176
 3301W        W 7365   5.679   4.813   7.333 -0.2683  0.2616  0.1493
 3302W        W 7366   7.059   3.800   9.730 -0.1230 -0.0489  0.1174
 3303W        W 7367   8.417   4.379   1.275  0.2749  0.1393 -0.1605
 3304W        W 7368   9.835   3.015   1.961  0.0336 -0.1162  0.0137
 3305W        W 7369   7.156   6.621   8.410 -0.2670 -0.1295  0.2440
 3306W        W 7370   7.063   7.771  10.094 -0.0028 -0.1431 -0.0740
 3307W        W 7371   6.719   1.164   9.339  0.0373  0.0795  0.3466
 3308W        W 7372  10.216   7.915   3.826  0.2170 -0.0103  0.3060
 3309W        W 7373   6.383  10.480   1.203  0.1017 -0.0351  0.1771
 3310W        W 7374   3.168   4.654   9.760 -0.5149 -0.0200 -0.0313
 3311W        W 7375   1.328   4.586  10.082  0.1767 -0.0315 -0.0820
 3312W        W 7376   0.746   8.508   7.799 -0.3218  0.1176 -0.3657
 3313W        W 7377   3.616   9.456  10.865  0.1899  0.1118 -0.0998
 3314W        W 7378   7.368   3.400   3.769 -0.1963  0.1422  0.4107
 3315W        W 7379   9.678   6.447   2.308  0.1880 -0.0230 -0.1933
 3316W        W 7380   3.639   3.623   9.285 -0.0449 -0.1828  0.1537
 3317W        W 7381   8.543   7.687  10.775  0.0910 -0.2949 -0.1075
 3318W        W 7382   5.049   5.374   8.713  0.0804 -0.0689 -0.1642
 3319W        W 7383   6.587   4.406   7.589  0.0377 -0.0895 -0.4182
 3320W        W 7384   2.483   0.239   8.831 -0.3554 -0.0842  0.0095
 3321W        W 7385   2.114   3.784   0.097  0.3978 -0.0030 -0.1647
 3322W        W 7386   1.240   3.153   2.399  0.0094 -0.0373  0.1290
 3323W        W 7387   2.286   3.429   2.144 -0.0496  0.1680 -0.1049
 3324W        W 7388  10.165   4.491   1.565  0.0934  0.2674 -0.2987
 3325W        W 7389   3.641   4.957   8.805 -0.3250 -0.1966 -0.1558
 3326W        W 7390   3.178   8.845   9.949  0.1170  0.0766  0.3828
 3327W        W 7391   2.843   0.448   8.138  0.2521 -0.2013  0.3417
 3328W        W 7392   3.105   5.453   2.771 -0.2713  0.2532  0.0349
 3329W        W 7393   4.835   9.479   9.080 -0.3560 -0.0107 -0.0482
 3330W        W 7394   9.202  10.546  10.529  0.0267  0.4100 -0.0420
 3331W        W 7395   5.121   2.189   2.249 -0.3742  0.2005  0.1488
 3332W        W 7396   4.640   1.239  10.034 -0.1951  0.1421  0.5521
 3333W        W 7397   7.589   4.816   2.451  0.0180  0.0995  0.0630
 3334W        W 7398   3.063   6.990  10.397  0.0600  0.0520  0.0951
 3335W        W 7399   1.071   1.418   1.535  0.0841  0.0860  0.1772
 3336W        W 7400   5.448   9.339   0.348  0.4383  0.0164 -0.0462
 3337W        W 7401   5.128   0.988   2.851  0.0663  0.0850  0.0267
 3338W        W 7402   9.804   6.140   1.580  0.2160 -0.0995 -0.1171
 3339W        W 7403   2.963   5.573   7.889 -0.3361  0.1805  0.0199
 3340W        W 7404   7.385   0.556   3.242 -0.2035  0.0320 -0.1517
 3341W        W 7405   7.967  10.633   8.887 -0.1649 -0.0733 -0.3470
 3342W        W 7406   9.972   6.055   2.554 -0.3221 -0.0443 -0.2111
 3343W        W 7407   0.155   8.943   7.044 -0.0347  0.0225  0.1223
 3344W        W 7408   3.151   6.580   0.261 -0.2183  0.1781 -0.0566
 3345W        W 7409   9.715  10.445   0.906 -0.5059 -0.0842 -0.0078
 3346W        W 7410   1.212   0.230   0.968 -0.1636 -0.3936 -0.1631
 3347W        W 7411   6.348   2.402   8.235  0.1651 -0.0397 -0.1448
 3348W        W 7412   3.436   5.245   1.928  0.0923  0.0079  0.2450
 3349W        W 7413   9.005   8.435   9.561  0.1086  0.0899 -0.0719
 3350W        W 7414   8.378   0.250   9.065 -0.4205 -0.1351 -0.2367
 3351W        W 7415   5.133   4.851   2.876  0.0551 -0.1602  0.1905
 3352W        W 7416   0.585   6.272   8.834  0.0920  0.1759 -0.0519
 3353W        W 7417   0.137  10.659   2.067 -0.1786 -0.1461  0.1228
 3354W        W 7418   2.975   4.137   9.702  0.0795  0.0327 -0.3990
 3355W        W 7419   4.534   0.790   0.608 -0.0250  0.2647  0.0456
 3356W        W 7420   0.930   9.358   9.962  0.0531 -0.0596  0.3042
 3357W        W 7421   6.953   5.334   3.772  0.0166  0.1374 -0.3097
 3358W        W 7422   6.597   1.738  10.091  0.3036  0.0531 -0.1582
 3359W        W 7423   2.651   8.740   2.411 -0.1017  0.0302 -0.3892
 3360W        W 7424   5.421   8.003   8.075 -0.1037  0.1073  0.0665
 3361W        W 7425   1.779   0.872   2.882  0.1734 -0.2024 -0.2505
 3362W        W 7426   2.993  10.056   4.064 -0.0501 -0.1740  0.0352
 3363W        W 7427   4.753   3.409   7.858  0.2688 -0.1238  0.0200
 3364W        W 7428   4.197   8.573   3.008 -0.2337  0.1670 -0.0175
 3365W        W 7429   6.881   9.427   0.423  0.2853  0.1812  0.0358
 3366W        W 7430   1.021  10.447   9.330 -0.2934  0.2065  0.0236
 3367W        W 7431   4.540   1.083   2.760 -0.1531 -0.1516 -0.2123
 3368W        W 7432   4.806  10.828   1.113  0.1511 -0.0433  0.1471
 3369W        W 7433   7.169   1.507   0.335  0.1036  0.0928 -0.0347
 3370W        W 7434   1.644   2.030   8.626  0.0507 -0.0435 -0.1211
 3371W        W 7435   9.036   6.049   9.384 -0.2062 -0.0129  0.3237
 3372W        W 7436   5.659   1.347   1.216 -0.1211 -0.1096 -0.1591
 3373W        W 7437   8.587   6.374  10.995  0.0732 -0.0418  0.2147
 3374W        W 7438   7.679   1.627  10.336  0.1915 -0.0928  0.4350
 3375W        W 7439   3.055   9.475   2.281  0.0587  0.1866 -0.0511
 3376W        W 7440   8.181   4.598   1.690  0.0570 -0.0999 -0.2462
 3377W        W 7441  10.158   2.534   0.063  0.0423 -0.1471 -0.1659
 3378W        W 7442   3.734   3.326   8.015  0.0477  0.3656 -0.0778
 3379W        W 7443   7.339   5.367   2.392  0.0323 -0.0098  0.0674
 3380W        W 7444   1.091   3.839   3.783  0.2560 -0.1999 -0.1155
 3381W        W 7445   2.404   2.478  10.409 -0.2073 -0.1301  0.2408
 3382W        W 7446   1.119   6.247   8.677  0.1141 -0.1698  0.2405
 3383W        W 7447   8.054   4.489   7.665 -0.0642 -0.0337 -0.1514
 3384W        W 7448   9.259   5.048   2.413  0.2863  0.2795 -0.0944
 3385W        W 7449   4.075  10.184   9.238 -0.0132  0.0031 -0.2677
 3386W        W 7450   1.258   5.045   3.065  0.0825 -0.2236 -0.0518
 3387W        W 7451   4.322   0.770   3.389  0.1672 -0.1383  0.1938
 3388W        W 7452   2.481   1.324   8.532 -0.1423  0.3042 -0.0947
 3389W        W 7453   3.244   3.617   2.385 -0.3893 -0.2657 -0.0217
 3390W        W 7454   6.016   5.080   2.632 -0.1592 -0.2340 -0.2230
 3391W        W 7455   0.272   8.877   1.766  0.0956 -0.0805 -0.2111
 3392W        W 7456   4.885   7.164   0.789  0.0136  0.0272 -0.0099
 3393W        W 7457   4.921   6.873   9.125 -0.1910 -0.0942 -0.1029
 3394W        W 7458   8.057   3.017   9.230 -0.0220  0.0311 -0.2512
 3395W        W 7459   9.037   4.648   0.458  0.2972  0.0400  0.0880
 3396W        W 7460   2.679   8.401   0.946 -0.0104 -0.2928  0.0392
 3397W        W 7461   9.106   0.642   2.179 -0.1407 -0.1296  0.2751
 3398W        W 7462   3.646   6.104   1.598 -0.2605 -0.1272  0.1949
 3399W        W 7463   6.630   4.061   3.609 -0.1351  0.0791 -0.1073
 3400W        W 7464   0.794   3.149  10.192 -0.1468  0.0571  0.0879
 3401W        W 7465   9.156   9.112  10.363  0.0314 -0.0602  0.1889
 3402W        W 7466   6.580   6.743   2.425 -0.5437  0.0061  0.2336
 3403W        W 7467   9.067   7.345   0.705 -0.2433 -0.3972  0.1882
 3404W        W 7468   3.613   6.719   0.437 -0.1750 -0.0374 -0.1580
 3405W        W 7469   9.169   2.202   7.714 -0.2820 -0.4417 -0.0485
 3406W        W 7470   4.350   2.879   0.722 -0.0264 -0.3346 -0.0200
 3407W        W 7471   7.563   0.358   9.138  0.1000 -0.1455  0.1499
 3408W        W 7472   8.912   0.088   9.710 -0.0023  0.1846  0.3249
 3409W        W 7473   3.704   1.430   3.047 -0.0957 -0.1314  0.0707
 3410W        W 7474   2.251   4.673   2.438  0.0983  0.0096 -0.1721
 3411W        W 7475   7.905   9.255   1.051 -0.1734 -0.0858  0.1624
 3412W        W 7476   1.285   6.244   8.016  0.0305 -0.2152 -0.1369
 3413W        W 7477   8.350   3.149   0.630  0.0321 -0.2521  0.0582
 3414W        W 7478   0.130   3.045  10.972 -0.1362  0.2118 -0.0703
 3415W        W 7479   8.124   5.295   9.647 -0.1882 -0.2308  0.0241
 3416W        W 7480   1.724   0.324   6.653 -0.1762  0.4155  0.2524
 3417W        W 7481   7.818   6.938   1.093 -0.1158  0.0775  0.1294
 3418W        W 7482   1.181   0.962   3.989 -0.2654  0.0883  0.1772
 3419W        W 7483   2.015   1.770   2.524  0.1043  0.1286 -0.1898
 3420W        W 7484  10.612   4.681  10.797  0.2085  0.1393 -0.1412
 3421W        W 7485   0.316   6.276   8.397 -0.0260  0.2769 -0.4089
 3422W        W 7486   7.664   5.194   9.182 -0.0215  0.3629  0.0938
 3423W        W 7487  10.833   3.194   9.148  0.3259 -0.0181 -0.1031
 3424W        W 7488   2.094   6.412   3.270 -0.0027  0.1284 -0.1270
 3425W        W 7489   3.917   1.270   1.389 -0.3291 -0.2394 -0.0684
 3426W        W 7490   7.655   8.770   8.727  0.2425 -0.0471 -0.3225
 3427W        W 7491   9.840   8.442   7.765 -0.1551  0.1096  0.1349
 3428W        W 7492   7.797   8.786   1.242 -0.0922 -0.0744  0.3019
 3429W        W 7493   7.719   0.959   7.485  0.0086  0.1135  0.1881
 3430W        W 7494   9.958   3.671   2.798 -0.0510 -0.1418 -0.2434
 3431W        W 7495   6.777   5.611   7.563 -0.1186  0.1008  0.2119
 3432W        W 7496   9.062   0.383   9.004  0.0228 -0.1297  0.0539
 3433W        W 7497   6.253   5.478   7.458 -0.0096  0.0654 -0.0189
 3434W        W 7498  10.343   7.013   1.658  0.2860 -0.2927 -0.0417
 3435W        W 7499   1.742   9.472   1.125  0.0818 -0.0867  0.0124
 3436W        W 7500   7.522   7.966  10.116  0.1888 -0.5693 -0.4438
 3437W        W 7501   6.230   4.237   8.075 -0.3208 -0.1384  0.1158
 3438W        W 7502   9.535   7.066  10.351 -0.3031  0.2627 -0.4559
 3439W        W 7503   9.572   5.072   7.829  0.1189 -0.0049  0.1350
 3440W        W 7504   6.274   6.631   7.184 -0.0588  0.1444  0.1194
 3441W        W 7505   5.953   8.693   7.572  0.1250  0.1969  0.1699
 3442W        W 7506   7.404   0.050   2.205 -0.1326  0.0387  0.2287
 3443W        W 7507  10.110   6.331   1.917 -0.2196 -0.0319  0.0140
 3444W        W 7508   7.855   2.710   2.363  0.2005 -0.0678  0.1235
 3445W        W 7509   1.516   4.461  10.566  0.0063 -0.0902  0.0676
 3446W        W 7510   0.386   5.348   9.635  0.1580 -0.2013 -0.1689
 3447W        W 7511   4.588   6.057   1.454  0.3726 -0.0151  0.5205
 3448W        W 7512   6.202   5.910  10.672  0.2075  0.2149 -0.1113
 3449W        W 7513   1.284   2.533   7.801  0.2377  0.2307 -0.2640
 3450W        W 7514   9.273   1.736   0.705  0.3103 -0.1717  0.2371
 3451W        W 7515   8.383   9.448   3.462 -0.1042 -0.1585 -0.2722
 3452W        W 7516   1.585   3.988   2.342 -0.1055 -0.3173  0.1062
 3453W        W 7517   5.081  10.547   3.244 -0.0752 -0.1279 -0.1680
 3454W        W 7518   8.684   2.010   7.161  0.0155  0.3660  0.2698
 3455W        W 7519   1.857   4.446   1.527  0.1082 -0.0754  0.2925
 3456W        W 7520   6.354   9.334   1.534  0.1055 -0.2233 -0.1164
 3457W        W 7521   5.570   8.233   9.587  0.0880 -0.1056 -0.0934
 3458W        W 7522   1.918   9.102  10.702  0.0889 -0.1418 -0.0795
 3459W        W 7523  10.093   0.383   8.927  0.0019  0.0717  0.0388
 3460W        W 7524   6.058   5.590   8.565 -0.1095 -0.1448 -0.0940
 3461W        W 7525  10.436   3.010   8.066 -0.0010 -0.1824  0.0276
 3462W        W 7526   0.445   2.941   2.887 -0.0900 -0.0261 -0.0361
 3463W        W 7527   7.610   5.780   6.621 -0.2266  0.0067 -0.2498
 3464W        W 7528   8.619   6.482  10.485  0.0163  0.1477 -0.1028
 3465W        W 7529   2.998   2.688   2.421 -0.1269  0.1640 -0.1846
 3466W        W 7530  10.396   2.205   8.896  0.1031  0.0561  0.2633
 3467W        W 7531   6.450   6.427  10.670 -0.0667 -0.2099 -0.0783
 3468W        W 7532   8.754   7.043   8.729  0.2828 -0.0194 -0.0831
 3469W        W 7533   3.193   0.545  10.316 -0.2050 -0.0847 -0.2363
 3470W        W 7534   9.879   3.743   9.578 -0.1127  0.0057 -0.1141
 3471W        W 7535   1.025   3.370   9.222  0.0008  0.0388  0.2738
 3472W        W 7536   1.646   0.185   3.874  0.2174  0.1820  0.1928
 3473W        W 7537   6.322  10.195   8.743 -0.1299 -0.1786  0.2149
 3474W        W 7538  10.420  10.009  10.263 -0.0767  0.2203 -0.2580
 3475W        W 7539   0.695   1.021   1.326 -0.2303  0.2004  0.0997
 3476W        W 7540   8.298   6.176   3.652 -0.1817  0.0014  0.0773
 3477W        W 7541   4.835   6.440   0.512 -0.3992  0.2267 -0.2771
 3478W        W 7542   1.741   5.889   9.693  0.1585 -0.1647  0.0146
 3479W        W 7543   2.261   1.295   7.332  0.0140  0.0112 -0.1838
 3480W        W 7544   2.303  10.516   7.770 -0.0024  0.2949  0.1302
 3481W        W 7545   5.366   8.744   9.832  0.0571  0.0026 -0.2740
 3482W        W 7546   8.056   1.738  10.664 -0.0283  0.1591 -0.3227
 3483W        W 7547   5.712   7.269   3.055 -0.0264 -0.1113  0.2008
 3484W        W 7548   2.278   8.861   0.179  0.1251  0.0615  0.5204
 3485W        W 7549   3.625   5.577   2.648 -0.1222  0.0027  0.4855
 3486W        W 7550   2.101   2.612   3.531 -0.1315  0.0349 -0.0969
 3487W        W 7551   1.157  10.658  10.328 -0.2442 -0.3759  0.2994
 3488W        W 7552  10.186   9.472   8.033  0.0571 -0.1780  0.0916
 3489W        W 7553   6.093   1.865  10.228 -0.0965 -0.1981 -0.1555
 3490W        W 7554  10.611   4.435   8.260 -0.0738  0.2072 -0.1412
 3491W        W 7555   5.312   5.805   2.594  0.1984  0.2662 -0.0442
 3492W        W 7556   3.842   8.435   2.587 -0.3960 -0.1340  0.2360
 3493W        W 7557   7.105   8.273   1.311  0.0775  0.2339  0.2045
 3494W        W 7558   5.644   1.960   8.848  0.0134 -0.1586  0.0742
 3495W        W 7559   6.827   5.223  10.332  0.1986 -0.0417  0.0342
 3496W        W 7560   9.906   7.702   9.308  0.0289 -0.0847 -0.0242
 3497W        W 7561   1.917   3.159   1.876  0.0042 -0.0217  0.1270
 3498W        W 7562   1.216   0.657   4.374 -0.0655  0.2116  0.3075
 3499W        W 7563  10.251  10.806   8.577 -0.1333  0.0376 -0.5046
 3500W        W 7564  10.207   3.389   1.713  0.1024  0.3075  0.2059
 3501W        W 7565   2.870   9.893  11.031 -0.2576  0.0467 -0.0786
 3502W        W 7566   5.378   1.573   9.741  0.0731  0.0611  0.0861
 3503W        W 7567   1.695   0.889  10.834  0.2562 -0.0804 -0.2440
 3504W        W 7568   2.534   1.923   8.664 -0.0478 -0.2221  0.1187
 3505W        W 7569  10.525   0.763  10.141  0.0026 -0.0735  0.4366
 3506W        W 7570   9.351   9.154  10.894  0.4377  0.0197 -0.1864
 3507W        W 7571   4.749   0.484   3.389 -0.5112 -0.0042  0.0554
 3508W        W 7572   8.878   1.363   3.440 -0.2881  0.2103  0.4593
 3509W        W 7573   6.657   5.206   7.909 -0.1294 -0.0988 -0.1630
 3510W        W 7574   1.924   3.254   0.041  0.1729 -0.0547 -0.0079
 3511W        W 7575   8.898   2.823   0.137  0.1510 -0.1007 -0.0689
 3512W        W 7576   4.933   5.087   0.299 -0.2094  0.2633 -0.1926
 3513W        W 7577   4.997   0.165  10.428 -0.0445 -0.0601  0.1147
 3514W        W 7578   2.421   7.207   8.710 -0.2081  0.1443 -0.0947
 3515W        W 7579   3.631   0.213   8.431 -0.3846  0.0498 -0.0370
 3516W        W 7580   6.543   4.873   8.722  0.0988  0.1609  0.2735
 3517W        W 7581   8.557   8.391   2.425  0.0036  0.3206 -0.0463
 3518W        W 7582   2.062   2.665   2.753 -0.1020 -0.0024 -0.0855
 3519W        W 7583   0.957   7.171   9.933  0.2780  0.0137 -0.3158
 3520W        W 7584   9.371   3.652   0.531 -0.1071  0.2998  0.2833
 3521W        W 7585   8.703   8.182  10.826  0.0872  0.0883 -0.0859
 3522W        W 7586   1.228   8.658   0.013 -0.2594 -0.1493 -0.3386
 3523W        W 7587   0.335   4.195   0.904 -0.1485 -0.3498  0.3480
 3524W        W 7588   7.210   8.686   3.447  0.1940  0.0549 -0.0870
 3525W        W 7589   0.402   8.189   8.615  0.1081  0.3216 -0.1142
 3526W        W 7590   7.494   8.647   2.575  0.0056 -0.1797 -0.0603
 3527W        W 7591   0.737   9.821  10.104 -0.0053 -0.2398 -0.0461
 3528W        W 7592   2.689   3.516   0.637 -0.4305  0.4931 -0.0513
 3529W        W 7593   2.393   2.543   8.514  0.0207  0.2538 -0.2610
 3530W        W 7594   0.174   1.990   6.776  0.0488  0.0795 -0.1157
 3531W        W 7595   9.674   6.945   7.809 -0.0652  0.0341  0.1502
 3532W        W 7596   7.038   5.370   2.794 -0.3119 -0.3390  0.0830
 3533W        W 7597  10.446  10.562   7.738  0.2338  0.1211 -0.4603
 3534W        W 7598   1.893   8.214   1.696  0.0522 -0.0052 -0.0019
 3535W        W 7599   4.584   7.527   1.085 -0.4042  0.2491  0.0141
 3536W        W 7600   3.449   2.421  10.209  0.2716  0.0282 -0.3305
 3537W        W 7601   2.445   5.646  10.421  0.0976 -0.0296 -0.3088
 3538W        W 7602  10.158   4.785   7.209 -0.3792 -0.1225 -0.0863
 3539W        W 7603   8.505   6.965   9.171  0.0062  0.0676 -0.0042
 3540W        W 7604   6.378   0.229   3.679  0.1865 -0.1321 -0.1928
 3541W        W 7605   4.521   6.381  10.431  0.0771 -0.1179 -0.1732
 3542W        W 7606   6.162   5.561  10.109 -0.2993 -0.0814  0.2122
 3543W        W 7607   5.052   9.903   9.803  0.1969 -0.1786  0.0524
 3544W        W 7608   2.494  10.890   2.587 -0.0884 -0.1074 -0.2079
 3545W        W 7609   0.912   9.112   2.641  0.0874 -0.0255  0.1711
 3546W        W 7610   9.751   8.891   0.890 -0.1551  0.1095  0.0309
 3547W        W 7611   0.355   9.721  10.943  0.1840  0.1284  0.0169
 3548W        W 7612   9.016   2.557   3.819  0.0432  0.0600 -0.2049
 3549W        W 7613   5.633   1.974   9.980  0.0319  0.2885 -0.0116
 3550W        W 7614   3.741   0.067   9.437  0.0551 -0.0083 -0.2119
 3551W        W 7615   5.756   0.143   1.740  0.2303 -0.0504 -0.2169
 3552W        W 7616   5.732   8.396   3.399  0.3059 -0.1882 -0.0038
 3553W        W 7617   4.198   7.570   8.778  0.0268  0.1800 -0.2435
 3554W        W 7618   2.232   7.473  10.592  0.2119  0.0598 -0.3378
 3555W        W 7619   6.557   9.369   2.004  0.2150 -0.1516  0.1668
 3556W        W 7620   1.630   6.817   9.559  0.1233 -0.2113 -0.0852
 3557W        W 7621   2.820   6.631  10.686 -0.0244 -0.0517 -0.0596
 3558W        W 7622   1.655   1.295   8.802  0.1680  0.1797  0.0178
 3559W        W 7623   7.200   1.349  10.783 -0.1129  0.0602  0.3180
 3560W        W 7624   2.828   2.291   2.915  0.0530  0.0910 -0.3400
 3561W        W 7625   3.564   4.308   0.040 -0.0055  0.1004 -0.0984
 3562W        W 7626   5.788   0.056  10.561 -0.0995  0.3761  0.1728
 3563W        W 7627   0.208   8.872   2.439  0.1035 -0.1600  0.1254
 3564W        W 7628   3.511   4.802   7.810  0.2208  0.1621  0.3032
 3565W        W 7629   3.878   7.922   1.249  0.3660 -0.2311 -0.0610
 3566W        W 7630   6.901   7.842   7.595 -0.0106  0.0242 -0.2400
 3567W        W 7631   5.704   3.728  10.536 -0.0252  0.2392 -0.1091
 3568W        W 7632   7.524   6.940   9.267 -0.0317 -0.0547 -0.0276
 3569W        W 7633   2.926   3.270   2.181  0.0838 -0.1800 -0.1804
 3570W        W 7634   0.615   7.256   7.108  0.3286 -0.0152 -0.0815
 3571W        W 7635   8.745  10.529  10.884  0.0334  0.0455  0.3937
 3572W        W 7636   7.772  10.592   7.910  0.0915 -0.0230  0.5333
 3573W        W 7637   3.793   5.218   2.303  0.2811  0.4711 -0.1599
 3574W        W 7638   7.155   8.543   9.004 -0.1702  0.1916  0.1469
 3575W        W 7639   1.517   1.792   1.191  0.0816 -0.2582  0.2113
 3576W        W 7640   4.956   8.793   7.472  0.1591 -0.0578 -0.1970
 3577W        W 7641   0.454  10.212   1.918 -0.3762  0.0862  0.2215
 3578W        W 7642   8.110   0.864  10.582 -0.0617  0.0233  0.0298
 3579W        W 7643   9.046   5.051   0.098  0.0835  0.1691  0.0548
 3580W        W 7644   4.325  10.239   8.736  0.3965 -0.1943 -0.3069
 3581W        W 7645   1.988   4.394   0.214 -0.0946  0.0650  0.2167
 3582W        W 7646   4.373  10.334   3.751 -0.0397  0.0354  0.1277
 3583W        W 7647   3.105   8.083   7.018 -0.0116  0.4605 -0.0153
 3584W        W 7648   8.800  10.433   3.059  0.2776 -0.0751 -0.2058
 3585W        W 7649  10.223   5.072   2.537  0.0185 -0.1288  0.1706
 3586W        W 7650   9.462   2.857   2.319  0.2709 -0.0124  0.2266
 3587W        W 7651   1.896   6.451   2.246  0.1348 -0.1790  0.4607
 3588W        W 7652   9.126   5.432   1.805  0.0515  0.1991  0.1198
 3589W        W 7653   1.392   3.546   2.132  0.0286 -0.0009 -0.2101
 3590W        W 7654   6.102   1.018   0.612  0.0261  0.1127  0.2995
 3591W        W 7655   3.853   8.923   9.121  0.2698  0.5232 -0.0457
 3592W        W 7656   8.810   9.017   1.039  0.2331  0.2365  0.0173
 3593W        W 7657   1.711   8.748   2.222 -0.1141 -0.1169 -0.2700
 3594W        W 7658  10.187   0.428   0.140 -0.1076  0.0012  0.0366
 3595W        W 7659   6.442   2.524   0.987  0.1179 -0.2290  0.3919
 3596W        W 7660   7.783   8.370   0.639 -0.4074 -0.4225 -0.0480
 3597W        W 7661   5.844   5.205   8.214 -0.2378 -0.0447  0.2688
 3598W        W 7662   7.498   3.144   9.738 -0.0996  0.1691 -0.0136
 3599W        W 7663   1.712   8.119  10.584  0.1120 -0.0686  0.0116
 3600W        W 7664  10.350   0.001  10.764  0.1411 -0.1621 -0.1104
 3601W        W 7665   7.960   7.640  10.645 -0.0038  0.1929  0.0087
 3602W        W 7666   5.151   9.395   8.712 -0.2411 -0.0615  0.2825
 3603W        W 7667   6.184   2.091   8.737  0.1445  0.1960 -0.1718
 3604W        W 7668  10.106   4.659  10.395 -0.2191 -0.1804  0.0982
 3605W        W 7669   8.485   0.003   0.085  0.2841  0.4098 -0.0027
 3606W        W 7670   3.232  10.869   0.178 -0.0122  0.0420  0.0081
 3607W        W 7671   4.240   9.759   7.984 -0.1815 -0.3457  0.3031
 3608W        W 7672   8.231   6.377   9.310  0.2461  0.0889 -0.0445
 3609W        W 7673   7.714   0.263   1.302 -0.0237  0.1002 -0.0739
 3610W        W 7674   4.816   1.552   1.079 -0.0375 -0.0511 -0.1668
 3611W        W 7675   9.747   4.571   0.029  0.0286 -0.0650 -0.0953
 3612W        W 7676   3.327  10.415   2.398  0.0668  0.1049  0.1184
 3613W        W 7677   1.819   3.904   2.863 -0.2001  0.3712 -0.0028
 3614W        W 7678   4.674   5.744   9.840  0.1619  0.0935  0.1684
 3615W        W 7679   8.245   7.940   7.983  0.1649  0.2524  0.0884
 3616W        W 7680   3.294   9.623   1.871  0.1752 -0.2486 -0.2407
 3617W        W 7681   0.275   2.560   2.292  0.3312 -0.0624 -0.2032
 3618W        W 7682   0.450   0.208   3.001 -0.0726  0.0666 -0.2727
 3619W        W 7683   5.721   1.882   0.124 -0.0351  0.0842  0.0597
 3620W        W 7684   9.170   3.025  10.332  0.5737  0.2172  0.0827
 3621W        W 7685   3.395   0.605   3.036  0.1855 -0.3381 -0.0775
 3622W        W 7686  10.900   3.881   2.962  0.0700  0.2080 -0.0978
 3623W        W 7687   0.991   5.956   3.768 -0.2910  0.0055  0.1744
 3624W        W 7688   3.510   0.893  10.651 -0.0705 -0.4325  0.4294
 3625W        W 7689   6.725  10.824   1.283  0.0233  0.0004  0.0978
 3626W        W 7690   5.676   3.854   2.132 -0.1891 -0.1599  0.5149
 3627W        W 7691   5.892   0.197  10.078  0.0869  0.4471  0.0543
 3628W        W 7692   2.024   5.810   7.438  0.0316 -0.1672 -0.1370
 3629W        W 7693   2.013   8.075   9.674 -0.1007  0.1296 -0.1368
 3630W        W 7694   1.471   7.761   0.719  0.0871  0.1085  0.1646
 3631W        W 7695   9.253   5.890   8.542 -0.1635  0.3082  0.0265
 3632W        W 7696   5.172   7.636   0.780  0.0274  0.1391  0.0252
 3633W        W 7697   8.883   4.190   1.149 -0.1003 -0.0269 -0.2013
 3634W        W 7698   1.050   1.402   8.163  0.1312  0.0298  0.1107
 3635W        W 7699   1.362   5.197   2.601  0.0942 -0.0067  0.0105
 3636W        W 7700   3.998   8.573   1.806  0.2942 -0.1080  0.2510
 3637W        W 7701   6.522   6.520   7.627  0.0097 -0.1222 -0.0449
 3638W        W 7702   2.989   1.375   8.206 -0.1769  0.1678  0.1756
 3639W        W 7703   4.394   4.264   8.988  0.3215  0.2331 -0.2601
 3640W        W 7704   2.289   5.023   8.402 -0.0007 -0.2977 -0.0920
 3641W        W 7705   1.083   0.516   8.960 -0.5118  0.1236 -0.0533
 3642W        W 7706  10.209   9.719   0.854 -0.1875 -0.1188 -0.1712
 3643W        W 7707  10.558   6.027  10.425  0.1731 -0.0702 -0.0701
 3644W        W 7708   6.077   8.779   1.912 -0.0433 -0.1160  0.1626
 3645W        W 7709   6.974   2.832  10.317 -0.1354  0.0750 -0.1076
 3646W        W 7710   4.380   2.467   8.671  0.1219 -0.0900  0.0065
 3647W        W 7711  10.062  10.141   0.632 -0.0089 -0.2476  0.0013
 3648W        W 7712   0.809   2.504   8.766  0.1755  0.1082  0.1138
 3649W        W 7713  10.008  10.564   9.448  0.0063  0.0895  0.1058
 3650W        W 7714   2.929   1.435   9.114  0.2134 -0.2321  0.1564
 3651W        W 7715   1.653   9.928  10.312 -0.2234  0.0663  0.3135
 3652W        W 7716   2.273   5.865   3.147  0.2624  0.2144 -0.0535
 3653W        W 7717   7.646   0.473   2.018 -0.0581  0.0714 -0.0647
 3654W        W 7718   5.321   1.350  10.590 -0.2222  0.1484  0.0288
 3655W        W 7719   6.346   8.948  10.371  0.1729 -0.2906  0.1516
 3656W        W 7720   1.951   4.561  10.666  0.0360 -0.1101  0.0693
 3657W        W 7721   9.916   3.877   9.030  0.0149  0.3510 -0.0559
 3658W        W 7722   8.353   2.896   1.683  0.0941  0.1710 -0.2671
 3659W        W 7723   1.488   2.208   9.136  0.1746  0.1414 -0.4175
 3660W        W 7724   1.489   1.623   0.382 -0.0013 -0.1740  0.0547
 3661W        W 7725   4.266   8.088   8.872 -0.3457 -0.0296 -0.1044
 3662W        W 7726   1.622   1.398   3.240  0.0530 -0.4734 -0.2177
 3663W        W 7727   0.104  10.789   9.957  0.1536 -0.1379 -0.0442
 3664W        W 7728   1.428   3.620   1.135  0.0189  0.0339 -0.1339
 3665W        W 7729   0.857   4.733  10.248  0.1069  0.3224  0.2894
 3666W        W 7730   8.589   2.492   2.517 -0.2748  0.0790  0.1332
 3667W        W 7731   7.260   4.030   2.189 -0.0936  0.4094  0.2691
 3668W        W 7732   8.000   2.674   7.011  0.2757 -0.0212 -0.1409
 3669W        W 7733   5.692   0.397   9.088 -0.0992 -0.2710  0.1410
 3670W        W 7734   8.991   1.254   2.263 -0.0529  0.4117  0.0772
 3671W        W 7735   8.046   4.657   0.405  0.0012  0.1255 -0.3496
 3672W        W 7736   7.421   1.173   3.329  0.0441 -0.1859  0.1540
 3673W        W 7737   9.712   3.288   1.451  0.1526  0.1275  0.1055
 3674W        W 7738   1.415   1.451   1.935  0.1578  0.0738  0.2634
 3675W        W 7739   0.611   8.676   9.009 -0.0387  0.2513 -0.2911
 3676W        W 7740   1.120   0.352  10.778  0.0065 -0.3230 -0.4248
 3677W        W 7741   4.526   6.385  10.968 -0.1865  0.1168 -0.2347
 3678W        W 7742   1.671   8.610   7.975  0.1621 -0.0151  0.1529
 3679W        W 7743   0.187   9.718   7.579 -0.2503  0.0253 -0.1942
 3680W        W 7744   7.395   8.332   0.341  0.1600 -0.0698  0.0064
 3681W        W 7745   1.464   4.208   0.351 -0.2377  0.2757  0.1072
 3682W        W 7746   2.627   5.767   0.207 -0.0126 -0.0767 -0.1780
 3683W        W 7747   8.244   1.284   8.155 -0.0157 -0.1353 -0.6401
 3684W        W 7748   7.680   6.112   2.680  0.1109 -0.2043  0.1927
 3685W        W 7749   6.290   2.311   7.777 -0.0123  0.0072  0.2490
 3686W        W 7750   8.644   8.169   7.868 -0.0090  0.0739 -0.0540
 3687W        W 7751   5.791   7.089   2.580  0.2410 -0.0762  0.0194
 3688W        W 7752   6.686   5.881  10.752  0.2775 -0.1204 -0.3517
 3689W        W 7753   5.000   7.149   0.124  0.1225 -0.0657 -0.0488
 3690W        W 7754   7.164   0.470   9.440  0.0787 -0.0468  0.0006
 3691W        W 7755   1.411  10.244   3.301  0.0237 -0.0930 -0.0786
 3692W        W 7756   9.414   0.655  10.535  0.0269  0.1551  0.0088
 3693W        W 7757   5.753   8.826   0.897 -0.3409  0.0380  0.1821
 3694W        W 7758  10.577   8.816  10.598  0.1374  0.0038  0.2577
 3695W        W 7759   7.205   6.380   9.519  0.0951 -0.0762 -0.0617
 3696W        W 7760   4.111   5.417  10.410  0.0987 -0.0337  0.1346
 3697W        W 7761   3.166   8.375   1.240 -0.2333 -0.1257 -0.3982
 3698W        W 7762   0.070   9.902   2.104 -0.3677 -0.0359 -0.1189
 3699W        W 7763   7.559   1.147   0.074  0.0784  0.1693 -0.0503
 3700W        W 7764   8.745   7.441   1.053 -0.1069 -0.0380  0.0378
 3701W        W 7765   1.905  10.056   3.974 -0.1128  0.2392  0.0257
 3702W        W 7766   9.012   9.564   2.344 -0.3857  0.0425 -0.0407
 3703W        W 7767   1.397   8.662   0.922  0.0206 -0.1944  0.0413
 3704W        W 7768   3.244   8.093   7.569 -0.0539 -0.0498 -0.0873
 3705W        W 7769   7.937   1.468   9.920  0.2427 -0.0256 -0.1798
 3706W        W 7770   6.685   8.497  10.288 -0.1069 -0.0537 -0.0356
 3707W        W 7771   7.278   4.023   7.937  0.4962 -0.1689  0.0815
 3708W        W 7772   7.974   1.671   8.307 -0.0188  0.0839  0.0479
 3709W        W 7773   4.654   8.805   2.070 -0.3772  0.0451 -0.0075
 3710W        W 7774   5.042   8.297  10.469 -0.3208  0.2113 -0.1340
 3711W        W 7775   7.596   8.855   9.240  0.0592 -0.0964 -0.0682
 3712W        W 7776   4.632   2.756   9.064  0.1649  0.3385 -0.2523
 3713W        W 7777   3.310   1.012   8.209 -0.0920 -0.0070 -0.2944
 3714W        W 7778   0.450   7.578   9.227 -0.1213  0.1503 -0.2407
 3715W        W 7779   4.112   7.427   9.326 -0.0306  0.0510 -0.0611
 3716W        W 7780   1.103   8.660   1.588 -0.3273 -0.0352  0.0103
 3717W        W 7781   5.770   4.256  10.640  0.1127  0.0735  0.1494
 3718W        W 7782   1.207   9.614   2.026 -0.0561  0.2366 -0.0735
 3719W        W 7783   8.089   8.500   2.619  0.2542  0.1679 -0.1825
 3720W        W 7784   9.506  10.323   2.352  0.1779 -0.2476  0.1490
 3721W        W 7785   1.324   9.464   9.541  0.0344  0.0380 -0.2266
 3722W        W 7786   3.045   3.896   0.189  0.0913 -0.0179 -0.0800
 3723W        W 7787   4.468   2.404  10.839 -0.1437 -0.1241  0.2253
 3724W        W 7788   3.806   6.909   2.076 -0.0567 -0.1460  0.4758
 3725W        W 7789   3.504   3.874   0.414  0.2885  0.1076  0.0877
 3726W        W 7790   3.291   1.575   0.283  0.0640  0.1066  0.2721
 3727W        W 7791   3.481  10.167  10.249 -0.1378 -0.1070 -0.1330
 3728W        W 7792   9.244   5.461   0.347 -0.1725 -0.2288 -0.0365
 3729W        W 7793   5.479   3.337   2.097 -0.0401 -0.1092  0.0135
 3730W        W 7794   1.952   5.613   2.799 -0.0826 -0.0004  0.1243
 3731W        W 7795   4.381   7.152   8.501 -0.1592 -0.1177 -0.2116
 3732W        W 7796   4.518   4.859   9.194  0.2248 -0.2995 -0.0166
 3733W        W 7797   4.725   7.904   0.726 -0.2139  0.2805 -0.3019
 3734W        W 7798   2.246   4.680   9.283  0.1290 -0.1674  0.2195
 3735W        W 7799   5.430   7.365   1.361  0.1070  0.2511 -0.0244
 3736W        W 7800   6.384   4.894   3.104  0.0375  0.1477 -0.0969
 3737W        W 7801   4.535   4.918   8.164  0.0253  0.0968 -0.3775
 3738W        W 7802   0.771   4.256   9.109 -0.4390 -0.0164 -0.1186
 3739W        W 7803   5.472   2.575   2.123 -0.2169 -0.1798  0.3390
 3740W        W 7804  10.644   0.393   2.704 -0.0469 -0.1010  0.0594
 3741W        W 7805   0.634   0.037   0.146  0.1847 -0.2853 -0.0620
 3742W        W 7806   3.482   9.168   1.586 -0.1239  0.2314  0.0666
 3743W        W 7807   8.497   2.039   0.699  0.2256  0.3893 -0.0160
 3744W        W 7808   5.541   2.739  10.272 -0.1066 -0.0971 -0.1741
 3745W        W 7809   4.410   9.735   8.568  0.1777 -0.2276 -0.1018
 3746W        W 7810   4.720   4.182   2.070 -0.3893  0.1804  0.1703
 3747W        W 7811   3.886   7.811   9.142  0.0813  0.1361 -0.2061
 3748W        W 7812   7.067   3.595  10.621 -0.1905 -0.2908 -0.2812
 3749W        W 7813  10.265   2.604   2.014 -0.0199 -0.0008 -0.0976
 3750W        W 7814   2.775   0.722   2.700 -0.0164  0.4550 -0.1290
 3751W        W 7815   4.443   7.268   0.561  0.0585 -0.2930 -0.2119
 3752W        W 7816  10.142   0.888   9.778 -0.2963 -0.1608  0.0852
 3753W        W 7817   1.694   0.205   7.177  0.3134 -0.1053 -0.0412
 3754W        W 7818   9.198   6.360   6.804 -0.0876  0.0396 -0.0061
 3755W        W 7819   0.203   5.207   8.179  0.1703 -0.0906 -0.0353
 3756W        W 7820   2.371   3.175   8.762  0.0339  0.0521 -0.1650
 3757W        W 7821   4.349   8.711   2.408  0.0312 -0.2167  0.0258
 3758W        W 7822   8.044   0.331   1.738 -0.2173  0.0903  0.1795
 3759W        W 7823   5.390   4.978  10.062  0.3826 -0.1273 -0.2756
 3760W        W 7824   9.368   2.141   1.527  0.0528  0.1721  0.1342
 3761W        W 7825   0.752   2.085   1.738 -0.1514  0.1005  0.0629
 3762W        W 7826   4.591   2.316   2.333  0.1552  0.0528 -0.2370
 3763W        W 7827   8.926   2.697  10.623 -0.1903  0.1096 -0.0535
 3764W        W 7828   0.675   6.756   2.332  0.0393 -0.1073 -0.5762
 3765W        W 7829   1.791   3.263   1.123  0.0104  0.0186  0.3088
 3766W        W 7830   1.228   5.868  10.447  0.0096  0.1248  0.0573
 3767W        W 7831   3.454   3.852  10.847  0.1226  0.0863 -0.2564
 3768W        W 7832   2.365   0.562   2.387 -0.1822  0.0004 -0.1566
 3769W        W 7833   0.836  10.903   3.855  0.2388  0.0702 -0.0110
 3770W        W 7834   8.912   2.412   9.236 -0.0228 -0.0638  0.2628
 3771W        W 7835   6.100  10.806   1.954 -0.0933  0.0229  0.2254
 3772W        W 7836   8.128   9.921   7.735  0.0196 -0.1543 -0.0687
 3773W        W 7837   4.169   1.663   1.644  0.1656  0.1325  0.2818
 3774W        W 7838   0.767  10.892   8.106  0.1229 -0.0830  0.1032
 3775W        W 7839   2.420   4.109   9.576 -0.0077 -0.4243  0.3545
 3776W        W 7840   4.598   2.552   2.861 -0.0237 -0.0484  0.3111
 3777W        W 7841   9.371   5.612   7.646  0.4404 -0.0645  0.1492
 3778W        W 7842   1.989   6.920   2.264 -0.0137  0.2060 -0.2548
 3779W        W 7843   7.448   4.719  10.095  0.1504  0.1695  0.1070
 3780W        W 7844   9.391   6.587   8.982  0.1410  0.3355  0.0928
 3781W        W 7845   9.280   2.131   0.259  0.0532 -0.0487  0.2143
 3782W        W 7846   5.288   2.917   1.737  0.2475 -0.1723 -0.2413
 3783W        W 7847   8.658   4.010   3.175  0.1965  0.0275 -0.1661
 3784W        W 7848   3.244   0.186   2.027  0.1017  0.2329  0.2480
 3785W        W 7849   6.709  10.115  10.673 -0.0941  0.0909 -0.1604
 3786W        W 7850   8.008   9.789   9.410 -0.1701  0.1691 -0.1091
 3787W        W 7851   5.169   6.339   2.717 -0.3473 -0.2389  0.0795
 3788W        W 7852  10.307   3.987   0.778 -0.1236 -0.1189 -0.1392
 3789W        W 7853   7.107   4.526   9.014  0.1694 -0.3193  0.2479
 3790W        W 7854   2.677   3.205   9.907 -0.0303  0.0035 -0.2614
 3791W        W 7855   7.856   1.083  10.200 -0.1971 -0.0948 -0.0423
 3792W        W 7856   1.087   8.631   2.841 -0.2879 -0.0071 -0.0545
 3793W        W 7857   7.396   4.454   9.401  0.3219  0.1362 -0.0659
 3794W        W 7858   6.359  10.180   0.035 -0.0577 -0.0461 -0.2563
 3795W        W 7859   2.943   0.306   4.344 -0.1946  0.1620  0.0784
 3796W        W 7860   7.409   0.632   0.169 -0.3365 -0.0064  0.1545
 3797W        W 7861   4.663  10.861   7.744 -0.1579  0.1810 -0.3297
 3798W        W 7862   4.787  10.757   2.907  0.0705  0.1499 -0.0501
 3799W        W 7863   7.700   6.854   1.601  0.0498 -0.1031 -0.2109
 3800W        W 7864   2.970   4.060   2.358 -0.1906 -0.0994 -0.1480
 3801W        W 7865   7.729   5.666   0.923 -0.1726 -0.3179 -0.0319
 3802W        W 7866   6.616   9.877   8.006 -0.2499 -0.0860  0.1105
 3803W        W 7867  10.337   3.487   8.369 -0.1072  0.0221  0.2134
 3804W        W 7868   0.931   9.468   3.047 -0.0326 -0.2451 -0.2204
 3805W        W 7869   6.629   0.738  10.913  0.3543  0.0213 -0.2202
 3806W        W 7870   8.300   6.230   7.641 -0.1836  0.3501  0.2059
 3807W        W 7871   5.894   3.597   0.407 -0.3670  0.2316 -0.2177
 3808W        W 7872   5.541   3.334   0.854 -0.2941  0.2853  0.1619
 3809W        W 7873   0.268   0.665   8.220  0.0964  0.1360 -0.1527
 3810W        W 7874   0.675   9.919   2.867  0.0478  0.0815  0.0402
 3811W        W 7875   6.317  10.637   3.292  0.2381 -0.1883  0.0875
 3812W        W 7876   7.055   5.826   3.657 -0.0250  0.0261 -0.1566
 3813W        W 7877   3.845   9.240  10.493  0.1315  0.0564  0.2895
 3814W        W 7878   3.657   7.024   0.038  0.1758  0.0609  0.1496
 3815W        W 7879   0.243   0.277   9.252  0.3077 -0.0362 -0.0016
 3816W        W 7880   1.451   1.870   2.336 -0.0367 -0.3042  0.1074
 3817W        W 7881   3.941   4.325   2.714  0.0155  0.0211  0.0325
 3818W        W 7882   6.972  10.797   1.863  0.0621  0.1300  0.2945
 3819W        W 7883   5.442   9.058  10.627  0.0058 -0.2370  0.3441
 3820W        W 7884   2.289   4.401   3.372 -0.3736  0.2656 -0.0984
 3821W        W 7885   4.334   4.721  10.076  0.0418 -0.1611  0.1248
 3822W        W 7886   0.300   1.484  10.248 -0.5080  0.2419  0.1667
 3823W        W 7887   8.306   2.089   2.600  0.3194 -0.0007 -0.0199
 3824W        W 7888   8.356   7.248  10.874 -0.2330 -0.0323 -0.2784
 3825W        W 7889  10.877   9.307   2.377 -0.1209  0.0901  0.1430
 3826W        W 7890   9.838   2.448   8.008 -0.2179 -0.0669  0.3160
 3827W        W 7891   7.343   5.092  10.359 -0.0484 -0.2397 -0.1469
 3828W        W 7892   1.256  10.756   3.131  0.0035 -0.0939  0.1069
 3829W        W 7893   1.122   1.667   7.308 -0.1572 -0.0008 -0.6154
 3830W        W 7894   3.488   6.908   0.936  0.2606 -0.2097  0.2193
 3831W        W 7895   5.887   0.962   9.942  0.1030  0.3232 -0.0126
 3832W        W 7896  10.044   4.452   0.651 -0.1951 -0.1280 -0.0702
 3833W        W 7897   7.097   2.616   2.950 -0.2138  0.0911 -0.1125
 3834W        W 7898   3.428   7.039   2.306  0.0031 -0.2054 -0.0935
 3835W        W 7899   9.944   5.023   1.431  0.1302  0.0860  0.4555
 3836W        W 7900   0.789   2.222  11.007 -0.0801 -0.1214 -0.3879
 3837W        W 7901   4.264   4.241   9.479  0.2340  0.2608  0.1353
 3838W        W 7902   7.448   5.578  10.767  0.0931 -0.1357 -0.2888
 3839W        W 7903   2.998   3.387   2.810 -0.0113 -0.2519  0.1143
 3840W        W 7904   1.808  10.791   4.237 -0.1421  0.0956  0.0350
 3841W        W 7905   3.998   3.170   0.011 -0.1463 -0.0213 -0.1813
 3842W        W 7906   9.939   1.474   1.306  0.3553  0.2938  0.0230
 3843W        W 7907   5.954   3.949  10.126 -0.1385  0.0076  0.1248
 3844W        W 7908   6.143   4.343   0.885  0.1460  0.0560 -0.0558
 3845W        W 7909   2.393   0.314   7.365 -0.1412 -0.3781  0.3025
 3846W        W 7910  10.801   7.728   9.069  0.1555  0.2136  0.0376
 3847W        W 7911   9.895   6.415   9.906 -0.0316 -0.1832 -0.1197
 3848W        W 7912   9.442   2.689   9.887  0.5426  0.3590  0.0932
 3849W        W 7913   4.274   4.068   7.571 -0.3765 -0.0622  0.1953
 3850W        W 7914   1.342   2.135   3.199  0.0794 -0.3238  0.0014
 3851W        W 7915   8.796   4.266   9.784 -0.1420  0.0012 -0.2562
 3852W        W 7916  10.729   1.109   2.825 -0.1469  0.0008  0.0399
 3853W        W 7917   3.772   3.006   2.936  0.1136  0.1397 -0.0736
 3854W        W 7918   9.926   5.985  10.824 -0.1049  0.0308 -0.5452
 3855W        W 7919   8.476   5.301   8.714  0.0154 -0.0092  0.1414
 3856W        W 7920   6.285   0.477   9.962  0.1397  0.0735  0.0508
 3857W        W 7921   6.798   2.241   0.870  0.1406  0.0134  0.2134
 3858W        W 7922   4.676   0.401   1.136  0.2121  0.2220  0.1301
 3859W        W 7923   2.966   3.043   0.617 -0.1581  0.0903 -0.1772
 3860W        W 7924   1.992   3.505   1.513  0.1332  0.1405  0.0274
 3861W        W 7925   3.800   5.957   8.959 -0.0687  0.1296  0.0067
 3862W        W 7926   1.132   9.602   7.063 -0.3425  0.2684  0.1017
 3863W        W 7927   9.528   5.655   0.703 -0.0051 -0.1130 -0.0995
 3864W        W 7928   8.455   1.232   9.748  0.1452 -0.0416  0.1423
 3865W        W 7929   4.838   8.163   1.428 -0.0876 -0.1507 -0.1352
 3866W        W 7930   9.367   4.329   1.337  0.0464  0.1317  0.0292
 3867W        W 7931   3.388   9.578   8.331  0.0117  0.3617  0.2432
 3868W        W 7932   7.919  10.837   2.091  0.2245 -0.0818  0.0829
 3869W        W 7933   5.823   3.909   0.008 -0.1735  0.0974 -0.1961
 3870W        W 7934   3.220   5.138   3.186 -0.0346  0.2417  0.0702
 3871W        W 7935   5.484   7.916   0.573 -0.0630 -0.3691  0.1092
 3872W        W 7936   8.196   8.144   8.915  0.1743 -0.0190 -0.0955
 3873W        W 7937   4.174   6.739   2.490 -0.0418  0.1559  0.1378
 3874W        W 7938   4.156   4.824   2.085  0.0721  0.0021  0.0212
 3875W        W 7939   9.797   5.289   7.455 -0.2598  0.2635 -0.5588
 3876W        W 7940   0.743   2.421   1.396  0.1136  0.0842  0.2917
 3877W        W 7941   2.344   1.974   1.441 -0.3379  0.2425  0.3007
 3878W        W 7942   9.082   5.810   6.878  0.1150 -0.0082  0.0219
 3879W        W 7943   6.441   8.128   0.180  0.1650  0.1387 -0.0759
 3880W        W 7944  10.314   6.928  10.047 -0.0570  0.1510  0.0319
 3881W        W 7945   6.932   0.949  10.535 -0.1293 -0.1592 -0.2125
 3882W        W 7946   8.479   9.467   2.405 -0.0573  0.0837 -0.4305
 3883W        W 7947   6.004   6.473   9.847 -0.0463 -0.0382 -0.2191
 3884W        W 7948   0.422   7.634   2.128 -0.2388  0.1690 -0.2418
 3885W        W 7949   9.098  10.229   3.443 -0.0852 -0.0677  0.1371
 3886W        W 7950   7.280   2.619   7.975  0.1315 -0.1072  0.0611
 3887W        W 7951   3.156  10.354   8.965 -0.0738  0.0156 -0.1581
 3888W        W 7952  10.240   8.576  10.908 -0.1366 -0.1461 -0.1960
 3889W        W 7953   0.174   1.709   0.948  0.2102 -0.2869  0.0399
 3890W        W 7954   3.956   4.050   9.902 -0.0746  0.0538 -0.0420
 3891W        W 7955   5.102   3.645   2.394 -0.4553 -0.0959 -0.2194
 3892W        W 7956   9.354   6.610  10.860  0.0256  0.1592 -0.0486
 3893W        W 7957   4.946   0.174   2.545  0.2082 -0.0535 -0.0462
 3894W        W 7958   7.735   2.354   0.505  0.0424  0.0979 -0.0940
 3895W        W 7959   9.570   0.587   9.249 -0.1712  0.0012  0.0320
 3896W        W 7960   3.125   9.329   0.998 -0.2311 -0.0419  0.1455
 3897W        W 7961   6.056   1.642   0.667  0.1504 -0.1932 -0.4329
 3898W        W 7962   1.435   6.354   9.751 -0.1176 -0.2618  0.1992
 3899W        W 7963   7.709   7.482   0.416  0.2987 -0.1057  0.3063
 3900W        W 7964   1.809   1.109   3.817  0.1736  0.0621  0.3184
 3901W        W 7965   1.666   6.038   1.932 -0.0758 -0.1123 -0.1528
 3902W        W 7966   4.540   7.342   0.028 -0.0746 -0.3057  0.0856
 3903W        W 7967   2.341  10.820   1.728  0.4279  0.0927 -0.2211
 3904W        W 7968   0.890   8.569  10.511  0.0344  0.1658 -0.1306
 3905W        W 7969   6.046   2.317   0.046 -0.3442  0.1545 -0.0242
 3906W        W 7970   1.021   0.096   2.008 -0.1170  0.0891  0.0316
 3907W        W 7971   5.882   3.334   0.022  0.0794  0.0308  0.2605
 3908W        W 7972   9.692   0.494   2.070  0.1488  0.1109  0.0304
 3909W        W 7973   5.101   1.500   2.912 -0.0513  0.3733 -0.2731
 3910W        W 7974  10.295   3.711   7.365  0.1119  0.0564 -0.2924
 3911W        W 7975   4.248   0.627   1.013  0.2328 -0.0750 -0.0091
 3912W        W 7976   6.436   1.899   1.884  0.2602  0.1219 -0.3261
 3913W        W 7977   2.098   8.339   0.159 -0.2112 -0.3428  0.1090
 3914W        W 7978   0.480   8.954   8.191  0.2537  0.3739  0.0493
 3915W        W 7979   0.228   5.429   8.655 -0.0397 -0.0931 -0.0902
 3916W        W 7980   4.634   5.265   9.701 -0.1241  0.3503 -0.0279
 3917W        W 7981   5.401   9.639  10.010  0.0930 -0.0250  0.1171
 3918W        W 7982   7.361   1.635   8.939 -0.0694  0.0823  0.0855
 3919W        W 7983   7.930   4.539   6.699  0.0119 -0.2522  0.0973
 3920W        W 7984   1.048   0.537   7.161 -0.0318  0.3101 -0.0395
 3921W        W 7985   5.651   2.949   9.280  0.0796  0.1599 -0.1019
 3922W        W 7986   9.352   1.422   1.077  0.2511  0.0014 -0.2022
 3923W        W 7987   9.993   5.490  10.078  0.1401  0.2553 -0.1140
 3924W        W 7988   3.560   9.130   0.907  0.1105 -0.0663  0.0112
 3925W        W 7989  10.910   4.601   9.768 -0.4635 -0.1541  0.0397
 3926W        W 7990   2.355   4.900   3.303  0.1933  0.2803  0.0942
 3927W        W 7991   5.344   3.336   8.956 -0.0142  0.1623 -0.0220
 3928W        W 7992   4.427   9.822   9.132  0.0120  0.1890  0.3081
 3929W        W 7993   3.335   0.320   1.426  0.3458  0.2982  0.1205
 3930W        W 7994  10.316   1.296   8.597 -0.2087  0.0966  0.0194
 3931W        W 7995   4.879   6.090   2.364 -0.2522 -0.2592  0.1624
 3932W        W 7996   8.937   7.534   8.628  0.0825 -0.1381  0.1535
 3933W        W 7997  10.245   1.445   9.585  0.2681  0.0152  0.0754
 3934W        W 7998   5.681   6.098   2.819 -0.0723  0.1837 -0.1149
 3935W        W 7999   5.742   5.817  10.311  0.2758 -0.0491  0.6738
 3936W        W 8000   8.976   6.330   9.843 -0.1217  0.2248 -0.1965
 3937W        W 8001   8.601   1.642   1.013  0.1593 -0.3149  0.0284
 3938W        W 8002   7.846   8.057   7.150 -0.1887 -0.0021  0.1956
 3939W        W 8003   8.759   3.756   3.557  0.0253  0.1681 -0.0489
 3940W        W 8004   7.236   1.110   9.158 -0.0977  0.0054 -0.2180
 3941W        W 8005   2.636   7.464   9.155  0.2257 -0.2872  0.1894
 3942W        W 8006   1.815   4.561   8.003  0.0830 -0.0383 -0.3749
 3943W        W 8007   3.056   8.745   9.402  0.3500 -0.0540  0.0620
 3944W        W 8008   5.597   1.609   1.672  0.1110  0.1453  0.2650
 3945W        W 8009   6.774   5.310   8.730 -0.0727 -0.2776 -0.1239
 3946W        W 8010   2.932   7.035   1.099  0.0866  0.2399  0.1540
 3947W        W 8011   9.049  10.305   0.374  0.0667  0.1176  0.0372
 3948W        W 8012   3.739   9.368   2.153 -0.1930  0.1117  0.1003
 3949W        W 8013   5.567   9.848   1.902 -0.1570  0.0222 -0.2923
 3950W        W 8014   6.469   9.877  10.199  0.0417  0.0490  0.3225
 3951W        W 8015   5.457   4.885   0.224  0.0773 -0.0039  0.0714
 3952W        W 8016   2.431  10.494  10.126 -0.3051 -0.0173 -0.1099
 3953W        W 8017   7.656   1.460   9.413 -0.0009 -0.1554  0.0741
 3954W        W 8018  10.263   2.371   9.334 -0.0645  0.1096  0.0656
 3955W        W 8019   4.493   0.630   9.957 -0.1332 -0.0389 -0.3127
 3956W        W 8020  10.542  10.828   1.861 -0.0227  0.1358  0.1348
 3957W        W 8021   0.775   8.551   2.445 -0.1452  0.0497  0.0347
 3958W        W 8022   1.663   2.087   0.397 -0.1750  0.0689 -0.1361
 3959W        W 8023   7.005   8.757   1.252  0.1863  0.0737 -0.1462
 3960W        W 8024   4.754   0.667   2.420 -0.2232 -0.0134 -0.1634
 3961W        W 8025   7.930   2.018   7.891  0.0562 -0.1938  0.0067
 3962W        W 8026   7.459   0.603   1.559 -0.3014  0.1572 -0.0252
 3963W        W 8027   6.969   9.056   0.806  0.1194  0.0998 -0.0414
 3964W        W 8028   7.560   7.003   0.539 -0.0130  0.1357  0.0963
 3965W        W 8029   7.280   6.446   7.083 -0.1145  0.3313 -0.0344
 3966W        W 8030  10.654   3.376   0.097 -0.4016 -0.2641  0.2556
 3967W        W 8031   0.417  10.055   7.919  0.1783 -0.0377  0.0284
 3968W        W 8032   4.336   5.850   8.238 -0.0159  0.2363 -0.1644
 3969W        W 8033   4.108   2.820   9.999  0.3202 -0.1127 -0.1762
 3970W        W 8034   3.257   7.715   2.805 -0.0671 -0.2038 -0.1831
 3971W        W 8035   4.504   9.605  10.238  0.2913 -0.0545  0.1332
 3972W        W 8036   6.574   2.679   9.064 -0.1064 -0.2025 -0.4344
 3973W        W 8037  10.253   2.755   9.739 -0.1280 -0.1555 -0.1529
 3974W        W 8038   0.725   5.629   1.072  0.4176  0.3277 -0.1232
 3975W        W 8039   8.809   9.048   2.453  0.2834  0.0853  0.0612
 3976W        W 8040   3.013   2.483   1.414 -0.4639  0.1960 -0.3295
 3977W        W 8041   9.293   0.121   2.096 -0.0858 -0.1207 -0.0499
 3978W        W 8042   8.872   4.178  10.900 -0.1401 -0.1588 -0.0140
 3979W        W 8043   0.437   2.922   9.946  0.1903  0.1236 -0.1675
 3980W        W 8044   6.946   2.648   7.557 -0.1294 -0.0674  0.1658
 3981W        W 8045   9.540   8.824  10.048 -0.0162 -0.0382 -0.3144
 3982W        W 8046   0.486   8.091   9.195  0.1081  0.1388  0.1048
 3983W        W 8047   6.411   3.979   0.631  0.4385 -0.3119 -0.1179
 3984W        W 8048   3.587   2.057   3.861 -0.4328  0.0064 -0.0851
 3985W        W 8049   5.967   8.342   0.544 -0.0520 -0.1345  0.1156
 3986W        W 8050   0.241   7.025   2.141 -0.0195 -0.1839  0.1508
 3987W        W 8051   0.562   3.860   3.255 -0.4370  0.1486 -0.5218
 3988W        W 8052  10.120   2.387   7.581  0.0512  0.2131  0.0584
 3989W        W 8053   1.573   4.685   1.149  0.3603 -0.2016 -0.0608
 3990W        W 8054   7.224   9.074   2.404 -0.0881  0.2333  0.0595
 3991W        W 8055   7.363   0.899   0.599 -0.1575  0.0537 -0.1137
 3992W        W 8056   4.496   0.381   0.055  0.2298 -0.0604 -0.0604
 3993W        W 8057   1.198   5.620   9.399  0.0306  0.0181  0.0406
 3994W        W 8058   4.794   5.566   0.045  0.0700 -0.0910 -0.1033
 3995W        W 8059   8.687   1.197   1.755  0.0412 -0.0379 -0.0484
 3996W        W 8060   3.636  10.765  10.350 -0.0848  0.2630 -0.4105
 3997W        W 8061   6.492   8.425  10.797 -0.0047  0.0983 -0.1333
 3998W        W 8062   0.835   5.752   1.603 -0.3911 -0.2222  0.1241
 3999W        W 8063   5.193   4.356   2.781 -0.0200 -0.0811  0.1528
 4000W        W 8064   9.656   0.144   1.664 -0.2079  0.0026 -0.3416
 4001W        W 8065   4.791   8.167  10.066 -0.0967  0.0033 -0.0213
 4002W        W 8066  10.165  10.448   0.034  0.1352  0.0213  0.0518
 4003W        W 8067   7.989   7.775  10.142  0.3330  0.0036  0.0633
 4004W        W 8068   5.877   5.913   0.533  0.1996  0.2597  0.0942
 4005W        W 8069   9.201  10.423   8.339 -0.1865  0.0460  0.1415
 4006W        W 8070   2.288   6.650   1.980 -0.2139  0.1147  0.2114
 4007W        W 8071   9.525   0.529   1.324  0.2436  0.0601  0.1568
 4008W        W 8072   9.806   4.969   0.787  0.3688 -0.1931  0.2339
 4009W        W 8073   2.693   2.920   2.865  0.0234 -0.0187 -0.1495
 4010W        W 8074   8.620   4.243   8.919 -0.1505 -0.2232  0.3330
 4011W        W 8075   5.184   0.009   4.072 -0.3041  0.1931 -0.4096
 4012W        W 8076   2.169   9.292  10.088  0.0162  0.1482  0.1274
 4013W        W 8077   6.430   0.848   2.492 -0.1039 -0.1416  0.0046
 4014W        W 8078   5.086   6.225   0.884  0.1661 -0.0141  0.3004
 4015W        W 8079   6.519   7.808   8.938 -0.1557 -0.1124  0.0289
 4016W        W 8080   6.915   7.062   1.855  0.1130 -0.2000  0.2908
 4017W        W 8081   2.534   6.152  10.708 -0.0588 -0.2436 -0.1423
 4018W        W 8082   4.179   4.897   1.418  0.0627  0.0389 -0.0908
 4019W        W 8083   0.437   3.689   8.400  0.0233  0.0093 -0.0134
 4020W        W 8084   4.334   0.806  10.862  0.1243 -0.3564 -0.1635
 4021W        W 8085   1.599   0.986   7.785  0.0591 -0.1444 -0.1902
 4022W        W 8086   2.268   1.889   0.359  0.0351  0.2714 -0.3836
 4023W        W 8087   7.241   8.924   0.003  0.0003  0.0016  0.1507
 4024W        W 8088  10.763   2.232   9.349  0.1179  0.1301 -0.2641
 4025W        W 8089   6.488  10.411   9.526 -0.3159  0.2192  0.0768
 4026W        W 8090   6.688   0.241  10.803  0.2117  0.1698  0.4350
 4027W        W 8091   2.118  10.879   3.861  0.1532  0.2674  0.1751
 4028W        W 8092   8.206   8.878   7.738  0.0703  0.1463  0.0418
 4029W        W 8093   0.310   9.524   9.266  0.1463  0.2532  0.2781
 4030W        W 8094   5.779   9.094   7.335 -0.0422  0.1397  0.2353
 4031W        W 8095   4.563   2.035   9.062  0.0154 -0.0523 -0.0082
 4032W        W 8096   5.035   2.548   1.392 -0.1189  0.2537 -0.0032
 4033W        W 8097   6.188   7.619   7.162 -0.0404 -0.1921 -0.3829
 4034W        W 8098   1.044   1.517   8.698 -0.2157  0.0874 -0.0000
 4035W        W 8099   0.965   0.422   3.088  0.0204 -0.2116 -0.0529
 4036W        W 8100   9.855   9.586   8.426  0.0024  0.1526 -0.1497
 4037W        W 8101   6.888   6.546   2.032  0.1045  0.0225  0.1305
 4038W        W 8102   1.800   1.333   9.357 -0.0000  0.0808 -0.0787
 4039W        W 8103   7.465   6.341   1.785  0.1594 -0.0658 -0.2126
 4040W        W 8104   7.480   3.825   9.445  0.3764  0.0154  0.3737
 4041W        W 8105   6.579   7.601  10.584 -0.0113 -0.3778  0.2178
 4042W        W 8106   8.180   9.322   9.310 -0.4734  0.1667  0.4265
 4043W        W 8107   6.876   1.146   2.554 -0.0323 -0.1250 -0.3614
 4044W        W 8108   6.766   0.951   8.667 -0.0450  0.3403  0.1217
 4045W        W 8109   7.997   0.155   7.791  0.3269 -0.0293  0.1545
 4046W        W 8110   3.915   2.506   1.376  0.1891  0.2258  0.0176
 4047W        W 8111   1.618   1.403   7.471  0.0100  0.1574  0.3988
 4048W        W 8112   8.435   0.098   1.061  0.0012 -0.0581  0.1636
 4049W        W 8113   7.154   8.513   8.447 -0.2440  0.0213 -0.0132
 4050W        W 8114   6.003   2.480   9.073 -0.0383  0.0354  0.1536
 4051W        W 8115   5.289   0.530   2.726  0.3759 -0.1862 -0.0137
 4052W        W 8116   9.837   2.225   1.790  0.0346  0.4141 -0.0878
 4053W        W 8117  10.473   9.095  10.957  0.2205 -0.1289 -0.0875
 4054W        W 8118   2.758   0.586   8.559  0.1813 -0.1119 -0.2113
 4055W        W 8119   8.635   9.570   9.051 -0.4034  0.2044  0.4216
 4056W        W 8120   2.876   7.296   7.978  0.1079  0.1206  0.0949
 4057W        W 8121   5.003   6.482   8.573  0.2731  0.1413 -0.2729
 4058W        W 8122   7.622   0.318   9.733 -0.0758 -0.2606  0.1875
 4059W        W 8123   0.729   9.753   0.636  0.0735  0.1815  0.1390
 4060W        W 8124   1.209   8.158   1.572  0.1705 -0.2916 -0.0593
 4061W        W 8125   8.768   0.891   3.177 -0.0523  0.0429 -0.0485
 4062W        W 8126   9.305   0.404  10.950  0.0927  0.3256  0.0368
 4063W        W 8127  10.506   2.284   9.829 -0.5486  0.0604 -0.0594
 4064W        W 8128   7.941   8.808   0.740  0.0233  0.1127 -0.0247
 4065W        W 8129   0.645  10.005   9.620 -0.0725 -0.0469 -0.1909
 4066W        W 8130   7.760   2.096   1.377 -0.0095  0.0328 -0.2923
 4067W        W 8131   4.436   1.319  10.827  0.1025 -0.0151 -0.4034
 4068W        W 8132   5.078   8.395   8.955  0.1262  0.1157  0.0281
 4069W        W 8133   0.393   3.908  10.566 -0.0972  0.2459  0.0533
 4070W        W 8134  10.367   5.056   0.115 -0.2832  0.1739 -0.0661
 4071W        W 8135   6.526   2.812   0.576  0.2007  0.0163  0.0219
 4072W        W 8136   2.255   5.374   3.123  0.0611  0.1962  0.2147
 4073W        W 8137   1.892   1.824   9.113 -0.2422 -0.1216  0.1757
 4074W        W 8138   7.975   6.278   8.864  0.0421 -0.2286 -0.0907
 4075W        W 8139   3.648   9.126   9.917  0.2012 -0.0131 -0.2336
 4076W        W 8140   8.566   0.928   3.673 -0.0050  0.0514  0.4081
 4077W        W 8141   5.455   0.363   2.180 -0.3268  0.0848  0.2734
 4078W        W 8142   7.627   6.136   9.631  0.1934 -0.0211  0.0579
 4079W        W 8143   8.420   3.927   1.121 -0.1620  0.1825 -0.1637
 4080W        W 8144   2.092   4.957  10.218 -0.0828  0.0851  0.0279
 4081W        W 8145   2.500   6.975   2.296  0.1574 -0.3852 -0.1101
 4082W        W 8146   4.371   4.264   1.246 -0.3198  0.2365 -0.0290
 4083W        W 8147   9.344   0.277   9.543  0.0831 -0.0119  0.0671
 4084W        W 8148  10.511   1.057  10.538  0.2019  0.1347 -0.3178
 4085W        W 8149   9.028   9.656   3.612  0.0124  0.0390 -0.0118
 4086W        W 8150   2.476  10.157   8.733 -0.0943  0.0094  0.3703
 4087W        W 8151   7.237   8.073  10.976  0.1367 -0.2506  0.0266
 4088W        W 8152   4.406   8.743  10.818  0.1717  0.1249  0.0419
 4089W        W 8153   6.850   3.528   1.106 -0.1089 -0.0653 -0.0494
 4090W        W 8154   7.967  10.550   3.346 -0.0195  0.0010  0.2548
 4091W        W 8155   7.675   1.958   9.218 -0.2624  0.3591  0.0722
 4092W        W 8156   1.843   7.245   9.414 -0.2573  0.1065  0.2001
 4093W        W 8157   4.004   2.950   3.411 -0.1063  0.1560 -0.1334
 4094W        W 8158   4.322   1.269   3.239 -0.2693  0.3378 -0.3111
 4095W        W 8159   9.462   2.601  10.497  0.0814 -0.0595 -0.1412
 4096W        W 8160   1.977   1.699   8.600 -0.1113 -0.0317  0.0601
 4097W        W 8161  10.806   8.270   8.330 -0.2904 -0.2586 -0.1274
 4098W        W 8162   9.838   8.033   8.880  0.2844  0.1049  0.3494
 4099W        W 8163   4.946   6.690   0.976 -0.1869  0.1736 -0.0522
 4100W        W 8164   2.950  10.391   3.217 -0.0136 -0.2507 -0.0965
 4101W        W 8165   0.401   5.821   8.212 -0.0732  0.1491 -0.0239
 4102W        W 8166   2.846   9.027  10.324 -0.0648 -0.2983  0.1327
 4103W        W 8167   6.394   1.404   2.350  0.2483 -0.0075  0.1929
 4104W        W 8168   6.387   8.497   9.279 -0.2231  0.2166  0.0304
 4105W        W 8169   3.946  10.652   0.941  0.0236  0.0899 -0.1304
 4106W        W 8170   2.348   8.376   8.976 -0.0181  0.1334  0.0254
 4107W        W 8171   5.215   7.462  10.782 -0.4856 -0.3162  0.0565
 4108W        W 8172   3.921   1.382   9.370  0.2127  0.3574 -0.1185
 4109W        W 8173  10.853   3.641   9.890  0.0400  0.4302  0.1296
 4110W        W 8174   6.180   2.500   3.146  0.1353  0.1809  0.1507
 4111W        W 8175  10.844   6.598   2.049 -0.3446  0.0905  0.0739
 4112W        W 8176   4.534   2.204  10.056  0.0234 -0.4139 -0.0655
 4113W        W 8177   4.670   3.624  10.260  0.1549  0.1035 -0.0675
 4114W        W 8178   4.910  10.671  10.797  0.0207  0.0715 -0.1431
 4115W        W 8179   4.788   4.197   1.519  0.0136  0.0799  0.2352
 4116W        W 8180  10.455   3.695   2.568  0.1070 -0.1241 -0.0168
 4117W        W 8181   4.939   9.306   9.921 -0.0337  0.3329 -0.2170
 4118W        W 8182   7.592   4.649   8.995 -0.0101 -0.0552 -0.2995
 4119W        W 8183   8.880   5.121   0.582  0.0849 -0.0153 -0.3144
 4120W        W 8184   4.260   4.123   1.857 -0.0250  0.0350 -0.1664
 4121W        W 8185  10.628   4.080   1.683 -0.1663 -0.0403  0.1216
 4122W        W 8186   4.720   9.998   0.576  0.0674  0.0526  0.2802
 4123W        W 8187   7.102   0.251   1.581  0.1080 -0.1195 -0.1506
 4124W        W 8188   2.312   6.823   3.075 -0.2310  0.2586  0.2613
 4125W        W 8189   0.242   1.742   9.222  0.1146  0.2169  0.0718
 4126W        W 8190   7.513   3.044   7.883 -0.0402 -0.0412  0.1163
 4127W        W 8191   4.141   1.109   3.744  0.1646 -0.3101  0.1713
 4128W        W 8192   1.628   0.652   1.647 -0.1429  0.0765 -0.0635
 4129W        W 8193   0.681   5.392   0.606 -0.3240 -0.2184  0.2865
 4130W        W 8194   7.349   5.544   8.954 -0.2910 -0.1955 -0.1416
 4131W        W 8195   5.909   5.577   1.420 -0.0388  0.0859 -0.2409
 4132W        W 8196   5.532   2.323   3.386  0.4137  0.2876 -0.0406
 4133W        W 8197   0.429   7.997   3.141 -0.2469  0.2033  0.1811
 4134W        W 8198   7.946   9.299   2.548 -0.1581  0.1298 -0.2312
 4135W        W 8199   0.346   3.538   2.038 -0.1253 -0.0974  0.0622
 4136W        W 8200   8.785  10.593   3.573 -0.0374  0.1854  0.1137
 4137W        W 8201   5.995   4.618   2.921  0.0142  0.2184 -0.0844
 4138W        W 8202   8.144   8.901   0.202 -0.1019 -0.0606  0.0229
 4139W        W 8203   9.876   8.970   1.347 -0.2500 -0.0114 -0.0226
 4140W        W 8204   1.989  10.172  10.082  0.2165  0.0940 -0.1358
 4141W        W 8205   4.980   1.242   8.827 -0.0653  0.0290 -0.0946
 4142W        W 8206   1.002   8.435   1.133 -0.1797  0.3587  0.2692
 4143W        W 8207   7.334   9.638   7.718 -0.0768  0.4166 -0.3378
 4144W        W 8208   9.186   7.647   1.080 -0.0173 -0.0374 -0.0881
 4145W        W 8209   6.520   2.250  10.031 -0.0489  0.1302  0.1142
 4146W        W 8210   2.810   9.505   8.355  0.2780  0.0776  0.1577
 4147W        W 8211   1.836  10.087   2.857  0.1440  0.1507 -0.3293
 4148W        W 8212   7.691   3.240   2.491  0.0604  0.1313  0.2091
 4149W        W 8213   0.865   3.808  10.701 -0.2278 -0.2112  0.1173
 4150W        W 8214   1.299   5.463   3.996  0.1850 -0.2832  0.0566
 4151W        W 8215   0.281   5.744   1.936 -0.1152 -0.1152 -0.0148
 4152W        W 8216   2.313   9.404   2.798  0.3197  0.2547  0.1974
 4153W        W 8217   6.144   7.147   1.602 -0.2360 -0.0996 -0.1755
 4154W        W 8218   6.443   7.477   9.548  0.3964  0.0436 -0.2504
 4155W        W 8219   2.182   9.463   0.841 -0.0152  0.0080 -0.0441
 4156W        W 8220   3.227   1.430  10.161  0.0803 -0.0179 -0.1932
 4157W        W 8221   3.747   5.643   2.039 -0.4280 -0.3147 -0.0251
 4158W        W 8222  10.787   9.140   1.571  0.1065 -0.0969 -0.0990
 4159W        W 8223   5.448   3.905   2.835 -0.3954  0.2033  0.3050
 4160W        W 8224   2.119   2.818  10.180  0.1619 -0.3308  0.0350
 4161W        W 8225   8.524   1.966   2.120 -0.2067 -0.0719  0.0535
 4162W        W 8226   0.257   7.332   8.278  0.0537 -0.1339  0.2185
 4163W        W 8227   1.816  10.385   2.458  0.0456 -0.1085 -0.0991
 4164W        W 8228   2.653   8.022   0.327  0.1670 -0.1143 -0.1963
 4165W        W 8229   2.502   4.684  10.506  0.2632  0.1034  0.1261
 4166W        W 8230   8.001   5.609   7.037  0.0791 -0.1176  0.0050
 4167W        W 8231   6.602   3.636  10.423  0.1206 -0.2801 -0.1066
 4168W        W 8232   0.806   7.692   8.287  0.1666  0.0301  0.0184
 4169W        W 8233   2.002   9.259   2.332 -0.0773 -0.2787  0.0192
 4170W        W 8234   2.369  10.646   1.204  0.2367  0.1535 -0.3525
 4171W        W 8235   3.991   4.001  10.703 -0.0417  0.0954 -0.1305
 4172W        W 8236   5.817   4.214   2.643 -0.2113 -0.0105  0.0267
 4173W        W 8237   4.494   0.008   8.703 -0.1173  0.2090 -0.0053
 4174W        W 8238  10.793   9.593   1.520 -0.3308 -0.0802  0.3268
 4175W        W 8239   5.037  10.469  10.160 -0.0408  0.0979 -0.1492
 4176W        W 8240   5.938   6.348   7.521  0.2286 -0.1021  0.0526
 4177W        W 8241   2.341   6.146   2.169 -0.0931 -0.2692  0.1378
 4178W        W 8242   4.717   3.291   2.513  0.1962 -0.2306 -0.0488
 4179W        W 8243   5.725   3.174   2.905 -0.0899  0.0653 -0.1652
 4180W        W 8244   3.377   9.049   2.085  0.0614 -0.1528 -0.1792
 4181W        W 8245   3.354   2.553   9.492  0.0353  0.0565 -0.0174
 4182W        W 8246  10.910   2.061   8.916  0.0083  0.0153  0.1629
 4183W        W 8247   1.494   7.379   8.939 -0.1195 -0.0148 -0.1557
 4184W        W 8248   9.909   4.337   9.288 -0.1416 -0.1009  0.0948
 4185W        W 8249   4.622   4.788   1.280  0.0549 -0.0832 -0.2682
 4186W        W 8250  10.249   4.187   2.695  0.0583 -0.2378  0.2168
 4187W        W 8251   9.365   5.303  10.812 -0.0318 -0.0773 -0.1803
 4188W        W 8252   5.583   2.257  10.733 -0.1558  0.3565 -0.0354
 4189W        W 8253   4.156   4.037   2.306 -0.1547  0.1637  0.4004
 4190W        W 8254  10.352   8.858   8.307  0.2481 -0.0034  0.0166
 4191W        W 8255  10.147  10.127   3.052  0.2888 -0.0320 -0.0052
 4192W        W 8256   3.871   0.792   0.084 -0.2973  0.0235 -0.2115
 4193W        W 8257   5.481   6.485   1.292  0.0868 -0.1634 -0.1366
 4194W        W 8258   5.052   1.796   9.373 -0.0278  0.4358  0.2514
 4195W        W 8259   9.132   0.832   1.276  0.0514  0.0949  0.5189
 4196W        W 8260   7.456   9.009   0.843 -0.0009  0.2711  0.0471
 4197W        W 8261   1.192   7.809   3.672  0.0960 -0.0796  0.2659
 4198W        W 8262   7.421   8.517   1.582 -0.0994  0.3906 -0.2193
 4199W        W 8263   3.004   4.371  10.545 -0.0540 -0.1628 -0.1204
 4200W        W 8264   3.469   2.539   1.682  0.0721  0.1484 -0.0269
 4201W        W 8265   1.022   2.932   0.510  0.0487  0.0170  0.0714
 4202W        W 8266   2.242   9.180   7.570 -0.1438 -0.1030 -0.0817
 4203W        W 8267   0.098   4.114   9.653  0.1725 -0.0614  0.1740
 4204W        W 8268   5.662   0.968   2.973  0.0632 -0.1050  0.0380
 4205W        W 8269   4.885   3.959   3.039 -0.1641 -0.2995  0.0082
 4206W        W 8270   6.665   4.610   2.165  0.0436  0.0572 -0.1686
 4207W        W 8271   6.069  10.771   2.439 -0.2228  0.0514  0.2009
 4208W        W 8272   1.240   8.263  10.710 -0.2110 -0.2051 -0.0349
 4209W        W 8273  10.552  10.500   2.253 -0.1752 -0.0433  0.1987
 4210W        W 8274   3.299   7.021   9.103  0.0300 -0.2546 -0.3822
 4211W        W 8275  10.701   7.136   1.985  0.1379  0.1439  0.2761
 4212W        W 8276   1.105  10.124   8.439  0.0348  0.3111 -0.0226
 4213W        W 8277   8.585   3.327   0.153 -0.1214 -0.1757 -0.1042
 4214W        W 8278  10.127   1.921   1.522 -0.0994  0.1881  0.1340
 4215W        W 8279   0.247   3.494   0.191  0.0343  0.0442  0.1970
 4216W        W 8280   9.074   8.278   2.149  0.0149 -0.0239  0.1596
 4217W        W 8281   0.119   9.206   8.500 -0.2780  0.0427  0.3983
 4218W        W 8282   1.861   2.621   1.086  0.4385 -0.2483  0.3551
 4219W        W 8283   1.396   3.868   0.721 -0.4486 -0.1762  0.0116
 4220W        W 8284   8.766  10.712   8.286 -0.2933  0.1404 -0.1204
 4221W        W 8285   9.961   3.995   7.098 -0.1360  0.0555  0.1773
 4222W        W 8286   3.857   0.285   0.828  0.0515 -0.0233  0.3932
 4223W        W 8287   0.139   0.686   1.995 -0.1410 -0.0284  0.2065
 4224W        W 8288   6.086   0.348   2.683 -0.1333  0.2105  0.1153
 4225W        W 8289   6.755   1.407   0.031 -0.2993 -0.1647  0.2286
 4226W        W 8290   8.940   4.950   2.783  0.1825 -0.1772 -0.1269
 4227W        W 8291   4.714   5.712   8.630 -0.1763 -0.1651  0.1872
 4228W        W 8292   5.579   6.312  10.156 -0.0102  0.2242  0.1395
 4229W        W 8293   5.657   0.914   0.306  0.4177 -0.0368  0.0873
 4230W        W 8294   0.782   8.809   1.971  0.1882 -0.0076 -0.1365
 4231W        W 8295   7.853   6.993  10.549 -0.0130  0.0376  0.3378
 4232W        W 8296  10.776   0.226  10.933  0.2139  0.0057  0.5752
 4233W        W 8297   4.091   3.626   1.100  0.0715 -0.0037 -0.0267
 4234W        W 8298   4.337   5.645   9.385 -0.2068 -0.2867 -0.0712
 4235W        W 8299   8.114   8.358   0.189 -0.0015 -0.2493  0.0475
 4236W        W 8300   5.800   6.950   0.645 -0.0148 -0.2797 -0.2403
 4237W        W 8301   1.773   6.436   8.070  0.0658 -0.1938  0.0161
 4238W        W 8302   7.969   3.370   9.656 -0.1758  0.1462 -0.1889
 4239W        W 8303   9.895   8.416   9.362 -0.4896 -0.1475 -0.1271
 4240W        W 8304   9.461   4.922   0.369  0.1107  0.0445  0.1114
 4241W        W 8305   6.406   1.410   0.383  0.0492 -0.0184 -0.2324
 4242W        W 8306   9.464   8.043   9.257  0.0611  0.2749 -0.0858
 4243W        W 8307   5.903   2.914   9.699  0.1019 -0.0898 -0.0440
 4244W        W 8308   9.808   8.410   1.069 -0.0870 -0.3254  0.2928
 4245W        W 8309  10.833   7.777   1.397  0.1517 -0.3117  0.2225
 4246W        W 8310   5.274   2.487   8.645 -0.1719  0.1162 -0.2460
 4247W        W 8311   3.324   5.988   9.544  0.0897  0.1681  0.1349
 4248W        W 8312   0.991   7.636   0.477  0.1251  0.0897 -0.3284
 4249W        W 8313   2.559   8.761   1.286 -0.2302 -0.0575  0.2837
 4250W        W 8314   0.119   0.543   8.814  0.1716 -0.1117  0.0848
 4251W        W 8315   9.620   7.821   7.770 -0.0601  0.0436  0.1380
 4252W        W 8316  10.443   7.386   9.241  0.1620  0.1543 -0.1585
 4253W        W 8317   7.484  10.220   0.405 -0.0001 -0.1450 -0.1932
 4254W        W 8318   1.349   6.459   9.129  0.0408 -0.0644 -0.2034
 4255W        W 8319   3.863   2.678  10.972 -0.1098  0.0308 -0.1802
 4256W        W 8320   1.884   9.961   3.355 -0.0872 -0.1445 -0.3965
 4257W        W 8321   8.162  10.525  10.252  0.0447  0.2628  0.2474
 4258W        W 8322  10.872   2.012   7.871 -0.2248  0.0852 -0.0606
 4259W        W 8323  10.454   1.582   7.928  0.2516 -0.0693 -0.0959
 4260W        W 8324   4.986   3.448  10.682  0.0725  0.0436  0.2634
 4261W        W 8325  10.784   1.901  10.678 -0.1532  0.1775 -0.1004
 4262W        W 8326   1.603   5.592   0.799 -0.3344 -0.1646 -0.1006
 4263W        W 8327   2.799   9.542   1.863 -0.3296  0.1554 -0.0155
 4264W        W 8328   6.978   4.414   7.890 -0.2673 -0.1384 -0.3319
 4265W        W 8329   6.696   3.534   8.131  0.3473  0.1033  0.2987
 4266W        W 8330   6.934   3.856   8.391 -0.2434 -0.3081  0.2299
 4267W        W 8331   3.429   7.140   1.774  0.0360  0.0456  0.1342
 4268W        W 8332   9.126   9.635  10.203 -0.4308  0.0392 -0.1400
 4269W        W 8333   3.404   1.472   3.729  0.0424  0.2244 -0.0861
 4270W        W 8334   7.868   4.484   1.360  0.0306 -0.1096  0.1677
 4271W        W 8335   4.207   5.723   9.851  0.2087  0.0770 -0.0617
 4272W        W 8336   1.192   7.621   7.869  0.1114 -0.0217  0.0176
 4273W        W 8337   2.338   4.310   1.648  0.0959 -0.0043 -0.1739
 4274W        W 8338   7.882   2.049   0.112 -0.2838 -0.1200  0.1336
 4275W        W 8339   7.155   3.023   9.346  0.0204  0.3188 -0.0902
 4276W        W 8340   3.470   6.846   6.999 -0.2500  0.5166 -0.1004
 4277W        W 8341   0.821   0.909   9.024 -0.0195  0.2814 -0.0236
 4278W        W 8342   9.418   2.459   3.563 -0.2586 -0.1439  0.0929
 4279W        W 8343   3.934   3.841   3.448 -0.1155 -0.2749 -0.3420
 4280W        W 8344   7.768   7.962   9.655 -0.2624  0.4310 -0.2553
 4281W        W 8345   8.924   0.841   2.629  0.0507 -0.1254  0.1094
 4282W        W 8346   0.709   1.256   8.563  0.0545 -0.0260  0.0196
 4283W        W 8347   1.069   6.178   9.445  0.2706  0.2655 -0.0599
 4284W        W 8348   5.743   8.183  10.586  0.3299 -0.0868 -0.0904
 4285W        W 8349   9.008   2.397   2.841 -0.0767 -0.2967 -0.3790
 4286W        W 8350   5.749   6.146  10.640  0.0933 -0.0524  0.1176
 4287W        W 8351  10.256   4.662   1.122 -0.0096  0.0262 -0.0349
 4288W        W 8352   4.506   1.079   7.785  0.1032  0.1814 -0.0280
 4289W        W 8353   0.552   6.663   9.723 -0.0310 -0.1225 -0.2967
 4290W        W 8354   9.935   0.123   2.897 -0.2184  0.1409 -0.1110
 4291W        W 8355   0.144   5.678   3.267 -0.0141 -0.1953  0.0948
 4292W        W 8356   3.908   7.285  10.234  0.1132  0.0506  0.0906
 4293W        W 8357   7.767   4.307   2.055  0.3653 -0.1541 -0.2016
 4294W        W 8358   8.021   9.053   8.870 -0.0396  0.1561 -0.2368
 4295W        W 8359   7.388   1.090  10.329 -0.1244  0.0757  0.3219
 4296W        W 8360   9.494   1.352   8.319 -0.4257  0.3442 -0.1296
 4297W        W 8361   7.904   0.404   3.212  0.0340 -0.0595 -0.0542
 4298W        W 8362   8.671   5.220   7.403 -0.1044 -0.1681  0.0526
 4299W        W 8363   1.531   6.134   8.441  0.1425 -0.2540  0.0548
 4300W        W 8364   5.123   8.708   2.194  0.0230 -0.0855 -0.0519
 4301W        W 8365   2.512   3.003   8.233  0.1167 -0.1213 -0.2375
 4302W        W 8366   0.321  10.043   3.726 -0.3376  0.2859  0.0569
 4303W        W 8367   6.626   4.653  10.251  0.0142  0.0110  0.0680
 4304W        W 8368   5.420   6.437   9.716  0.1265  0.2279 -0.1070
 4305W        W 8369   5.147   7.755  10.350  0.2714  0.3170 -0.0157
 4306W        W 8370   4.885  10.057   8.739  0.3306  0.4284  0.1293
 4307W        W 8371   9.231   5.092   3.833  0.0089 -0.2816  0.2191
 4308W        W 8372   1.914   6.867   0.193 -0.2164 -0.3412  0.0529
 4309W        W 8373   9.959   4.886   0.333 -0.2625  0.0274 -0.1249
 4310W        W 8374   5.285   3.123   8.552 -0.0271  0.0938 -0.0258
 4311W        W 8375   6.795   6.226  10.271 -0.0606  0.2211  0.5314
 4312W        W 8376   2.499   3.823  10.661 -0.0521  0.0208 -0.1705
 4313W        W 8377   8.478   5.360   7.868  0.1281 -0.0601  0.1630
 4314W        W 8378   7.951   2.428  10.192  0.0958 -0.5313  0.1818
 4315W        W 8379   9.769   7.450   9.971  0.0374 -0.0853  0.0090
 4316W        W 8380   8.666   0.485  10.031 -0.2554  0.1355 -0.2728
 4317W        W 8381   6.869   0.610   2.467 -0.0680 -0.2675 -0.1073
 4318W        W 8382   6.148   4.773   9.099 -0.3016 -0.3010  0.3698
 4319W        W 8383   9.118   2.346   1.184  0.3886 -0.1332 -0.0302
 4320W        W 8384   2.697   6.828   8.011  0.0378  0.0341  0.3441
 4321W        W 8385   9.849   8.525   3.038  0.0524 -0.3215 -0.1802
 4322W        W 8386   7.113   9.209   7.901  0.0879  0.1213 -0.1631
 4323W        W 8387   8.509   7.090   2.596 -0.2010  0.2659 -0.2751
 4324W        W 8388   5.495   7.833   1.302 -0.1300  0.1142 -0.0598
 4325W        W 8389   3.974   7.652   7.968 -0.2429 -0.0290 -0.2891
 4326W        W 8390   2.824   0.665  10.601 -0.0984  0.1736  0.2754
 4327W        W 8391   5.301  10.177   3.487 -0.0794  0.1967 -0.0553
 4328W        W 8392   7.497   8.359   9.323  0.0833 -0.0815 -0.2293
 4329W        W 8393  10.520   0.616   7.407  0.2136 -0.4213 -0.3282
 4330W        W 8394   5.318   4.035   0.038  0.0335 -0.1244 -0.2725
 4331W        W 8395   5.226   1.762  10.223  0.2540  0.1019 -0.1127
 4332W        W 8396   4.034   6.361   2.756 -0.0836 -0.1241  0.1250
 4333W        W 8397   6.163   4.677   7.453  0.4173  0.2109 -0.0725
 4334W        W 8398   4.794   8.430  10.882 -0.3888 -0.2414 -0.0449
 4335W        W 8399   5.344   9.570   8.124  0.4434  0.0479 -0.0112
 4336W        W 8400   2.469   8.290   8.504 -0.0907 -0.1675 -0.1751
 4337W        W 8401   3.799  10.404  10.710  0.1198 -0.1331 -0.0446
 4338W        W 8402   8.692   7.000  10.457  0.2009 -0.0934  0.2209
 4339W        W 8403   8.664   6.505   9.422 -0.7205 -0.2546 -0.0961
 4340W        W 8404   7.221   6.735   0.154 -0.3075  0.2521 -0.0462
 4341W        W 8405   1.063   5.443   9.885  0.0561 -0.1642 -0.0918
 4342W        W 8406  10.777   2.822  10.599 -0.0769 -0.1115  0.0636
 4343W        W 8407   2.978   7.607  10.419  0.1657  0.2382 -0.1694
 4344W        W 8408   0.676   7.758   2.758 -0.0761  0.0650 -0.1388
 4345W        W 8409  10.599   3.615   8.803 -0.0380  0.1590 -0.1992
 4346W        W 8410   4.112  10.689   8.462  0.1387  0.3791 -0.0540
 4347W        W 8411  10.814   5.615   8.248 -0.1291  0.0642  0.2173
 4348W        W 8412  10.156   2.871   1.570  0.0216 -0.1121  0.2149
 4349W        W 8413   6.358   5.274   8.952 -0.0484  0.0871 -0.1879
 4350W        W 8414   4.628   3.318   1.448 -0.0776 -0.0606  0.0214
 4351W        W 8415   5.652   2.763   0.674  0.3139  0.4459 -0.0966
 4352W        W 8416   2.121  10.328   8.249  0.2602  0.1122 -0.6468
 4353W        W 8417   2.018   8.174   7.017 -0.4435 -0.0342  0.3308
 4354W        W 8418   3.366   6.987   3.737  0.0378 -0.1401  0.0066
 4355W        W 8419   8.633   4.468   1.814 -0.0199  0.3103 -0.1286
 4356W        W 8420   7.674   5.364   7.708  0.1405 -0.0217  0.1248
 4357W        W 8421   5.358   7.039   0.984  0.2403 -0.2446 -0.0180
 4358W        W 8422   5.725   1.483   3.053 -0.1141  0.1351  0.0967
 4359W        W 8423   8.906   5.126   9.200  0.1532  0.0063  0.1378
 4360W        W 8424   2.756   5.017   3.615 -0.1623  0.2757  0.1255
 4361W        W 8425   5.112  10.277   0.465 -0.1163 -0.1822  0.0516
 4362W        W 8426   2.141   9.257   8.898  0.5057  0.0228  0.0232
 4363W        W 8427   1.882   6.247  11.015 -0.0052 -0.1319  0.3482
 4364W        W 8428   1.320   4.379   8.982  0.1851 -0.1782 -0.1980
 4365W        W 8429   8.397   3.735   8.900 -0.1667 -0.1746  0.0552
 4366W        W 8430   5.826  10.126   0.097  0.0380  0.0646  0.0277
 4367W        W 8431  10.565   7.399   1.047  0.0410 -0.0623 -0.1820
 4368W        W 8432   5.889   8.224  10.071 -0.1874 -0.0611 -0.0282
 4369W        W 8433   8.918   5.633   7.355  0.1790  0.1455  0.0307
 4370W        W 8434   2.915   0.023   1.132 -0.3076 -0.0407  0.2886
 4371W        W 8435   8.042   2.181   8.362 -0.1293  0.1158  0.0517
 4372W        W 8436   8.014   9.979  10.326  0.1249 -0.1695  0.0538
 4373W        W 8437   5.347   2.779  10.705 -0.1571 -0.2479  0.1252
 4374W        W 8438   0.606   6.437   0.801  0.1771 -0.5200  0.0432
 4375W        W 8439  10.559   0.075   7.440 -0.0846 -0.0858  0.2511
 4376W        W 8440  10.300   1.746   8.396 -0.0270 -0.1117  0.0279
 4377W        W 8441   5.806   9.613   1.447 -0.4980  0.0671  0.1451
 4378W        W 8442   1.224   1.299   9.112  0.0788  0.0526  0.2083
 4379W        W 8443   4.304   2.761   0.185 -0.0953  0.0298  0.2076
 4380W        W 8444   5.645   9.528   2.360 -0.1675 -0.3340 -0.0439
 4381W        W 8445   8.912   2.108   8.172 -0.1241 -0.2200 -0.2497
 4382W        W 8446   0.436   5.837   8.795  0.3759  0.3174  0.0080
 4383W        W 8447   9.625   6.223   0.195 -0.2051 -0.0343 -0.1360
 4384W        W 8448   3.500   5.311  10.202 -0.2504  0.1601  0.0299
 4385W        W 8449   0.442   7.710   7.425  0.0225 -0.0849  0.1310
 4386W        W 8450   6.247  10.266  10.406 -0.4108 -0.0505  0.0794
 4387W        W 8451   1.393  10.331   2.857  0.0776 -0.0097 -0.1662
 4388W        W 8452   9.199   4.479   1.771 -0.2598  0.1219  0.0979
 4389W        W 8453   9.879  10.062   7.688 -0.0433 -0.3058 -0.3302
 4390W        W 8454   3.761   2.039   3.034  0.1830 -0.0532 -0.0066
 4391W        W 8455   9.220   5.960   0.388  0.1628  0.0470  0.2696
 4392W        W 8456   3.132   3.433   0.351 -0.1511 -0.1487 -0.1609
 4393W        W 8457  10.642   5.553  10.184  0.0059 -0.1408 -0.1487
 4394W        W 8458   8.892   1.668   2.033 -0.0933 -0.2131  0.1247
 4395W        W 8459   5.132   2.672   0.260  0.2192 -0.0285  0.0512
 4396W        W 8460   2.830   7.501   3.128 -0.3268 -0.2987 -0.2162
 4397W        W 8461   3.615   2.250   2.182  0.1683 -0.1488 -0.0078
 4398W        W 8462   8.861   6.097   7.651  0.3526 -0.1710  0.1317
 4399W        W 8463   1.183   9.965   8.866  0.2209  0.2481  0.1118
 4400W        W 8464   8.706   5.091  10.186  0.2866  0.5718 -0.0034
 4401W        W 8465   4.125   7.190   1.714  0.2368 -0.0018 -0.2164
 4402W        W 8466   4.511   7.660   9.173 -0.3249  0.1863  0.1250
 4403W        W 8467   2.977   7.035   8.416  0.1095  0.3060  0.4515
 4404W        W 8468   7.574  10.866   0.920  0.1268  0.1148  0.2185
 4405W        W 8469   5.579   4.199   8.843 -0.0467  0.1979  0.2127
 4406W        W 8470   9.495   5.786  11.001 -0.0713  0.3273 -0.1722
 4407W        W 8471  10.537  10.452   3.216  0.0915 -0.0905  0.2097
 4408W        W 8472   3.814   8.495   8.827 -0.0699  0.0831  0.2257
 4409W        W 8473   8.968   6.594   1.238  0.1547 -0.0505  0.0625
 4410W        W 8474   7.051   0.901   1.599 -0.2338  0.0542  0.0055
 4411W        W 8475   3.882   2.427  10.486  0.0016  0.3307  0.2637
 4412W        W 8476   2.977   5.838  10.586  0.3292 -0.0021  0.0020
 4413W        W 8477   2.766   7.405   0.192 -0.1193 -0.1732  0.3287
 4414W        W 8478   3.691   3.692   8.748 -0.1020 -0.2428  0.1390
 4415W        W 8479   1.497   8.874   8.503 -0.0999  0.0456 -0.1243
 4416W        W 8480   0.899   1.692   1.983 -0.2340  0.1163 -0.0451
 4417W        W 8481   0.131   2.963   0.944  0.0074 -0.2851  0.2073
 4418W        W 8482   7.597   8.941  10.482  0.0794  0.3525  0.2258
 4419W        W 8483   1.729   0.668   3.493  0.1077 -0.2172  0.1530
 4420W        W 8484   8.389   3.721   8.211 -0.2443 -0.1374 -0.1357
 4421W        W 8485   1.551  10.257   0.879 -0.1833 -0.2518  0.1557
 4422W        W 8486  10.023   1.699   3.048  0.1391  0.1552 -0.3082
 4423W        W 8487  10.583   9.160   9.184 -0.1656 -0.1468  0.0016
 4424W        W 8488   7.948   5.431   8.713 -0.0468  0.3619 -0.0826
 4425W        W 8489   2.545   2.174   9.800  0.2129 -0.1151 -0.0972
 4426W        W 8490   7.866   5.845   7.458 -0.1808  0.0841  0.1759
 4427W        W 8491   3.229   0.550   8.408  0.1884 -0.3323 -0.1387
 4428W        W 8492   4.865   4.189  10.926 -0.0978 -0.0852 -0.2761
 4429W        W 8493   2.654   4.503   8.515 -0.4061 -0.1409  0.3163
 4430W        W 8494   4.593   5.113   8.651 -0.0107  0.0250 -0.0350
 4431W        W 8495   4.770   8.301   2.230  0.1713  0.4749 -0.0221
 4432W        W 8496   2.135   0.568   0.861  0.0724 -0.1855 -0.0472
 4433W        W 8497   3.373   8.603   0.163  0.1282  0.2042  0.0492
 4434W        W 8498   1.599   9.667   7.191 -0.1471 -0.0486  0.1244
 4435W        W 8499   2.305   9.259   9.543  0.2886  0.2825 -0.2861
 4436W        W 8500   8.923   4.068   1.688 -0.3140 -0.2048  0.0614
 4437W        W 8501   6.568   0.222   2.695  0.0541  0.1310 -0.0957
 4438W        W 8502   0.056   0.743   7.315 -0.2438  0.0209  0.1897
 4439W        W 8503  10.258   9.610   9.911 -0.0069  0.1007 -0.2384
 4440W        W 8504   9.871   2.216   2.826 -0.0970 -0.0148  0.1111
 4441W        W 8505   4.086   0.513   1.950  0.1440  0.2406 -0.0192
 4442W        W 8506   6.484   6.536   3.288  0.0467  0.1902  0.0316
 4443W        W 8507   9.704   3.201   2.571  0.0160 -0.1271  0.2058
 4444W        W 8508  10.378   5.311   7.204  0.1120  0.1638 -0.1689
 4445W        W 8509   7.896   2.379   9.570  0.2225  0.0639  0.1391
 4446W        W 8510   0.603   0.892   7.125  0.0520  0.0313 -0.1052
 4447W        W 8511   3.347   6.666   8.271 -0.1025 -0.1827  0.1361
 4448W        W 8512   9.316  10.680   1.666 -0.1039 -0.0049 -0.2766
 4449W        W 8513   6.403   7.970   9.399  0.0691  0.1283 -0.1824
 4450W        W 8514   4.682   7.899   9.604 -0.1708 -0.2506  0.1514
 4451W        W 8515   3.484   5.261   0.560  0.0003  0.3361  0.0227
 4452W        W 8516   7.522   7.444  10.434 -0.0921 -0.1289 -0.0087
 4453W        W 8517  10.666   5.061   2.118  0.1287  0.5233  0.2965
 4454W        W 8518   2.547   0.794   1.194 -0.0250 -0.0091  0.0580
 4455W        W 8519   7.036   7.358  10.693 -0.2184  0.0025 -0.0774
 4456W        W 8520   4.074   5.572   2.507 -0.1262 -0.0661 -0.2362
 4457W        W 8521   3.770   7.057   1.418  0.0619  0.2763 -0.2948
 4458W        W 8522   7.525   4.829   8.271 -0.1267 -0.0885 -0.0549
 4459W        W 8523   9.463   9.813   8.992 -0.0252  0.0410 -0.2824
 4460W        W 8524   0.694   0.627   9.891  0.1053 -0.0609 -0.1158
 4461W        W 8525   2.007   2.454   0.629  0.1933  0.2432 -0.1450
 4462W        W 8526  10.162  10.249   8.520 -0.2257  0.0438  0.1937
 4463W        W 8527   7.678   0.395  10.669 -0.0544 -0.1362  0.2321
 4464W        W 8528   5.983   2.794  10.745 -0.0468  0.1380  0.2191
 4465W        W 8529   2.132  10.063   2.123  0.0717  0.0945  0.0843
 4466W        W 8530   2.838   9.455  10.712 -0.1450 -0.0907 -0.0964
 4467W        W 8531   0.266   5.285  10.963 -0.0942 -0.0263 -0.1835
 4468W        W 8532   2.236  10.782   9.111 -0.3218  0.5096  0.3359
 4469W        W 8533   9.902   7.706   7.088  0.1739  0.0794  0.0589
 4470W        W 8534   2.474   3.150   9.437  0.2161  0.1536  0.1986
 4471W        W 8535   2.204  10.262   3.108 -0.1839 -0.2717  0.2849
 4472W        W 8536   0.731   6.623   0.198 -0.1886 -0.0281 -0.0745
 4473W        W 8537   2.177   1.041   9.402  0.1728 -0.0636 -0.0576
 4474W        W 8538   2.109   8.913   1.301 -0.1421 -0.0381  0.1569
 4475W        W 8539   0.072  10.094  10.444 -0.0042 -0.1203 -0.0705
 4476W        W 8540   7.643   6.296   8.405 -0.0844  0.1463  0.3539
 4477W        W 8541   1.906   9.081   7.877 -0.2431  0.0004  0.1425
 4478W        W 8542   3.941   9.896   8.662  0.2136 -0.1201  0.1059
 4479W        W 8543   6.897   4.720   0.167  0.1989  0.0304 -0.0461
 4480W        W 8544   8.749   2.838  10.075 -0.3842 -0.2735 -0.1592
 4481W        W 8545   7.416   7.487   3.122  0.1271 -0.2047  0.1059
 4482W        W 8546   7.985   6.615   2.398 -0.2549 -0.0654 -0.1810
 4483W        W 8547   9.036   7.764  10.908 -0.0765  0.0200  0.0448
 4484W        W 8548   4.445   3.030   8.620  0.1515  0.0774 -0.0183
 4485W        W 8549   8.932   5.353   6.951  0.3461 -0.0527 -0.0946
 4486W        W 8550   2.481   8.026   9.726  0.1336 -0.2719 -0.1220
 4487W        W 8551   1.750   1.088   1.880 -0.0760  0.2851 -0.2313
 4488W        W 8552   0.212   1.046   7.842 -0.3792  0.1708 -0.2725
 4489W        W 8553   6.545   6.653   8.447 -0.2984 -0.0076 -0.1937
 4490W        W 8554   4.101   6.022   0.756  0.4288  0.0901 -0.0512
 4491W        W 8555   5.584   7.011   3.445 -0.0188 -0.0606 -0.0898
 4492W        W 8556   0.552   5.950   0.633  0.3585  0.1232 -0.1292
 4493W        W 8557   2.308  10.632   2.183  0.1404  0.1912  0.0099
 4494W        W 8558   0.966  10.138   0.245 -0.1884 -0.0146  0.1436
 4495W        W 8559  10.232   7.786   1.243 -0.1438 -0.1081 -0.1680
 4496W        W 8560   6.606   0.672   1.683 -0.1092 -0.1225 -0.1306
 4497W        W 8561   5.608   5.904   0.060 -0.1629 -0.1309 -0.2432
 4498W        W 8562   8.824   2.955   0.711 -0.1990 -0.0009 -0.0938
 4499W        W 8563   3.502   7.032   8.616  0.0266  0.0626 -0.0644
 4500W        W 8564  10.803   7.837   3.290 -0.2043  0.3289  0.4226
 4501W        W 8565   7.541   5.825   0.277 -0.1782  0.0225 -0.0729
 4502W        W 8566  10.865   6.262   1.402 -0.3783 -0.0325  0.1657
 4503W        W 8567   2.043   0.358   4.145 -0.0413 -0.0332  0.1066
 4504W        W 8568   0.674   1.508   1.078  0.1465 -0.4256  0.1902
 4505W        W 8569   9.725   5.313   0.277 -0.1123 -0.0009  0.0162
 4506W        W 8570   3.389   4.272   8.531  0.2304  0.0842  0.0599
 4507W        W 8571   9.067   8.762  10.008 -0.0795  0.1304 -0.2883
 4508W        W 8572   3.654   5.361   8.427  0.0595 -0.2361  0.0758
 4509W        W 8573   9.539   8.009   1.969 -0.0919 -0.0219  0.3892
 4510W        W 8574   2.668   3.719   8.684  0.1081  0.3333  0.0086
 4511W        W 8575   9.947   5.725   8.350  0.7562  0.0927 -0.2719
 4512W        W 8576   2.486   1.761  10.015 -0.2665 -0.1839  0.1993
 4513W        W 8577   3.366   2.845   8.647  0.1853 -0.0101 -0.0841
 4514W        W 8578   9.735   1.917   2.320 -0.0177  0.1996  0.1256
 4515W        W 8579   3.969   9.100   1.732  0.0339  0.3333 -0.2367
 4516W        W 8580   5.558  10.033   1.400 -0.0815 -0.0897  0.2102
 4517W        W 8581   0.305   3.325   9.682 -0.0862 -0.1471  0.2465
 4518W        W 8582   6.572   4.378   9.741 -0.0965  0.1008  0.1702
 4519W        W 8583   9.868   6.965   2.110  0.2361 -0.2283  0.1699
 4520W        W 8584  10.363  10.896   8.106 -0.1424  0.1213  0.2453
 4521W        W 8585   4.328   1.804  10.624 -0.0645 -0.2063 -0.2258
 4522W        W 8586   4.867   9.278   3.575  0.0426  0.4690  0.0880
 4523W        W 8587   0.707   2.890   1.528  0.0131  0.1882 -0.1167
 4524W        W 8588   5.519   2.957   2.452  0.0388 -0.0610  0.4675
 4525W        W 8589   1.354   8.563  10.247 -0.0806 -0.0362  0.3462
 4526W        W 8590   0.973   8.147   2.703 -0.4448 -0.2048 -0.3112
 4527W        W 8591   5.685   2.911   8.800 -0.2831 -0.1294 -0.1203
 4528W        W 8592   4.136   3.067   1.137  0.3220  0.1350  0.2565
 4529W        W 8593   4.884   6.176   9.536  0.2891  0.1465 -0.1664
 4530W        W 8594   2.590   5.430   2.756  0.0394 -0.3166  0.0066
 4531W        W 8595   3.198   4.051  10.186 -0.3509  0.1334 -0.2728
 4532W        W 8596   6.707   1.744   0.433  0.0498 -0.6327  0.2239
 4533W        W 8597   0.705   8.491   9.535  0.1435 -0.0592 -0.0630
 4534W        W 8598   6.775   8.002  10.770 -0.1889  0.3922  0.0730
 4535W        W 8599   6.946   3.590   7.621  0.1213  0.3441  0.2876
 4536W        W 8600   7.074   6.773   9.138 -0.2804 -0.1745 -0.1628
 4537W        W 8601   3.648   4.985   9.828 -0.0295 -0.2839  0.1132
 4538W        W 8602   7.300  10.086   1.345  0.2075 -0.4559 -0.2686
 4539W        W 8603  10.178   9.939   7.305  0.3166 -0.0251 -0.1053
 4540W        W 8604   6.144   8.484   0.999  0.1711  0.1274 -0.5108
 4541W        W 8605   7.578   0.026   1.732 -0.0133 -0.4064  0.0527
 4542W        W 8606   3.503   1.856   0.813  0.0348 -0.1890 -0.1837
 4543W        W 8607   9.995   5.237   8.910  0.2645 -0.1693 -0.0746
 4544W        W 8608   0.418   1.086  10.514 -0.1470 -0.0701 -0.0835
 4545W        W 8609   7.540   1.243   8.070  0.2559 -0.2036 -0.0662
 4546W        W 8610   0.340   8.666   9.833 -0.4192 -0.2603  0.0157
 4547W        W 8611   3.596   7.064   8.063 -0.0711  0.1442  0.2037
 4548W        W 8612   7.617   8.819   9.903  0.2033  0.0916  0.2752
 4549W        W 8613   7.294   3.441   0.029  0.1473  0.3800 -0.1516
 4550W        W 8614   7.149   1.652   2.546 -0.2244 -0.1766  0.0712
 4551W        W 8615   8.889   6.867   2.190 -0.1322 -0.0032  0.0566
 4552W        W 8616   5.645   1.463  10.136 -0.0608 -0.1791 -0.2040
 4553W        W 8617   5.716   7.450   1.729 -0.1789  0.0189 -0.0718
 4554W        W 8618   9.220   2.607   0.482 -0.0125  0.0408  0.2145
 4555W        W 8619  10.666   0.678   8.293 -0.1216 -0.0070  0.2180
 4556W        W 8620  10.222   8.348   9.723 -0.0199  0.3154 -0.4012
 4557W        W 8621   9.696   2.880   7.374  0.3935 -0.1950  0.0356
 4558W        W 8622   1.489  10.843   9.988 -0.0008  0.2919  0.1160
 4559W        W 8623  10.105   3.549   0.391 -0.2002  0.0730  0.0871
 4560W        W 8624   7.894   3.339   7.743 -0.0506 -0.3416 -0.3054
 4561W        W 8625   6.020   0.012   0.545 -0.0584 -0.1579 -0.0420
 4562W        W 8626   4.576   5.920  10.767 -0.1881 -0.0170 -0.0469
 4563W        W 8627   8.261   0.739   3.142  0.2984 -0.3830  0.0907
 4564W        W 8628   1.956   8.626   7.592 -0.0455  0.1745 -0.3394
 4565W        W 8629   7.904   8.991   8.098 -0.2226 -0.2244  0.3072
 4566W        W 8630   2.382   5.135   1.118 -0.1208 -0.0450  0.2043
 4567W        W 8631   4.606   6.221   8.654 -0.1403 -0.2122 -0.2260
 4568W        W 8632   7.594   4.011   1.528 -0.1098  0.0834 -0.1258
 4569W        W 8633   4.492   9.317   0.391  0.2541  0.0671  0.1317
 4570W        W 8634   4.558   6.297   1.059 -0.1844 -0.3632  0.2146
 4571W        W 8635   1.508   2.820  10.799 -0.1531 -0.0714  0.1100
 4572W        W 8636   6.717   7.066   9.422 -0.0590  0.1459  0.0857
 4573W        W 8637   1.886   0.999   0.508  0.0476  0.0948 -0.1428
 4574W        W 8638   9.392   9.739   1.032 -0.1181  0.0531  0.0840
 4575W        W 8639   9.817   5.221   8.254 -0.0740  0.1185  0.0357
 4576W        W 8640   6.928   8.571   1.701 -0.0086 -0.1978  0.0925
 4577W        W 8641   6.835   6.371  10.984 -0.1180 -0.2406  0.1758
 4578W        W 8642   6.271   1.416   8.175  0.1483  0.1185 -0.1105
 4579W        W 8643   5.167   7.837   1.778 -0.2994  0.2415  0.0567
 4580W        W 8644  10.530  10.577   9.516 -0.0928  0.0276  0.0638
 4581W        W 8645   9.853   0.017  10.827  0.2369  0.4256 -0.1806
 4582W        W 8646   6.965   8.473   0.079  0.1185 -0.1711  0.2649
 4583W        W 8647   8.289   7.769   9.337 -0.1465 -0.2007  0.1890
 4584W        W 8648   6.526   8.466   1.345 -0.1235  0.3720  0.0416
 4585W        W 8649   9.816   7.562   1.545  0.0826  0.1367  0.1717
 4586W        W 8650  10.204   5.082   7.768  0.1055 -0.0889 -0.0512
 4587W        W 8651  10.268   9.021   1.710 -0.3326  0.0879 -0.1627
 4588W        W 8652  10.564   5.034   9.530 -0.3593 -0.1813 -0.1824
 4589W        W 8653   3.299   3.868   1.890  0.1842 -0.0438  0.0829
 4590W        W 8654   2.550   0.570   0.526  0.2482 -0.0205 -0.0261
 4591W        W 8655  10.481   2.237  10.914  0.1330  0.1238  0.3352
 4592W        W 8656   8.669   5.954  10.664  0.2798 -0.0925 -0.0838
 4593W        W 8657   0.984   3.456   0.865  0.1373 -0.0239 -0.1440
 4594W        W 8658   4.956   2.551   3.228 -0.3093 -0.1755 -0.0721
 4595W        W 8659   9.534   3.663   9.980 -0.0225 -0.0806 -0.2858
 4596W        W 8660   9.067   2.451  10.147  0.0981  0.3032  0.1345
 4597W        W 8661   3.759   5.437   8.889 -0.0301 -0.1693  0.0854
 4598W        W 8662   5.598   3.701   3.283  0.2148  0.0476  0.2406
 4599W        W 8663   4.887  10.161   0.002  0.1651  0.3136  0.3398
 4600W        W 8664   4.243   0.264   7.633  0.1792  0.0438  0.3627
 4601W        W 8665   8.156   7.444   1.842  0.3209  0.1692 -0.2557
 4602W        W 8666   1.324   9.601   3.380  0.0115 -0.0121  0.1574
 4603W        W 8667   2.714   4.625   1.495  0.3024  0.1009  0.1060
 4604W        W 8668   2.083   8.686   8.707  0.0900  0.0988  0.1009
 4605W        W 8669   8.059   6.031   1.084  0.1122 -0.0953  0.1107
 4606W        W 8670   5.310   1.102   1.589  0.0446  0.5315  0.4515
 4607W        W 8671   6.966   4.680   9.545 -0.0659  0.1094 -0.0881
 4608W        W 8672   0.648   1.398   2.403 -0.3184 -0.0235 -0.1600
 4609W        W 8673   0.712  10.735   8.587  0.0621  0.2023  0.0622
 4610W        W 8674   0.251   5.051   2.771  0.0059  0.0790 -0.1313
 4611W        W 8675   6.867   9.858   8.907  0.1510  0.3838  0.1699
 4612W        W 8676   3.041   8.121   0.089  0.0635 -0.2825  0.1200
 4613W        W 8677   8.170  10.216   0.639  0.1300 -0.0341  0.0067
 4614W        W 8678   6.809   6.926   8.713 -0.0873  0.1804 -0.0404
 4615W        W 8679   0.777   0.563   1.151 -0.3235  0.1204 -0.0841
 4616W        W 8680   2.167   2.125   1.905 -0.0813  0.1381 -0.0021
 4617W        W 8681   7.804   5.334   2.269 -0.1896 -0.1325  0.1677
 4618W        W 8682   7.769   4.543   9.703 -0.0169 -0.0040 -0.0961
 4619W        W 8683   8.247   4.665   7.168 -0.0741  0.3376  0.0371
 4620W        W 8684   4.137  10.660   9.488  0.1633  0.1681 -0.1567
 4621W        W 8685   1.353   3.580   2.617 -0.0511 -0.0481 -0.2095
 4622W        W 8686   4.690   1.936  10.984 -0.1162 -0.1126  0.4544
 4623W        W 8687   3.544   4.342  10.009  0.2451  0.2735 -0.2949
 4624W        W 8688   4.365   3.500   0.447 -0.1036 -0.1201 -0.3333
 4625W        W 8689   1.177   8.543   9.693  0.0796 -0.0495 -0.0401
 4626W        W 8690   4.027  10.729   0.089 -0.0646 -0.1885 -0.1522
 4627W        W 8691   2.696   1.373   9.961 -0.3395  0.0358 -0.3538
 4628W        W 8692   7.211   9.660   8.163  0.3166  0.1376 -0.1620
 4629W        W 8693   6.441  10.126   0.812 -0.0015  0.2882  0.0215
 4630W        W 8694   5.491   3.770   1.143  0.0185  0.0582  0.0775
 4631W        W 8695   8.984   8.084   1.666  0.4718  0.0732  0.3061
 4632W        W 8696   6.233  10.774  10.189  0.0427  0.0009 -0.0479
 4633W        W 8697   1.537  10.720   1.123  0.1159  0.3004 -0.0382
 4634W        W 8698   5.013   4.157   0.945 -0.2657  0.4098  0.1419
 4635W        W 8699   7.072   9.465   3.286 -0.0948  0.1777  0.1940
 4636W        W 8700   7.224   7.025   2.975  0.0740 -0.1344 -0.0919
 4637W        W 8701   9.631   3.618   2.407 -0.2975 -0.3070 -0.0312
 4638W        W 8702   8.312   5.371   3.118  0.0670 -0.0315 -0.0000
 4639W        W 8703   9.833  10.133  10.225 -0.0940 -0.0019 -0.3566
 4640W        W 8704   1.531  10.005   9.600 -0.0771 -0.4572  0.1873
 4641W        W 8705   8.604   3.754  10.707 -0.2924  0.0538  0.0731
 4642W        W 8706   8.851   3.944   9.253  0.0018  0.2770 -0.3436
 4643W        W 8707   9.800   9.428   9.696 -0.0908 -0.3507 -0.3127
 4644W        W 8708   3.967   3.877   1.549 -0.1894 -0.2345  0.2998
 4645W        W 8709   9.647   0.122   2.468  0.0504  0.2263 -0.1419
 4646W        W 8710   3.082   9.712   0.542 -0.0408 -0.2061 -0.1412
 4647W        W 8711   5.383   1.258   2.091 -0.1322  0.3078  0.0213
 4648W        W 8712   8.120   5.708   1.939 -0.2321 -0.1378  0.0494
 4649W        W 8713   0.559   2.128   2.228  0.1614 -0.0136 -0.2326
 4650W        W 8714   2.303   1.873   7.660 -0.5391 -0.1439 -0.0789
 4651W        W 8715   0.365   1.581  10.752  0.0746 -0.1524  0.3657
 4652W        W 8716   5.672   5.059   3.676 -0.1034  0.0894  0.0991
 4653W        W 8717   7.288   4.521   2.126  0.1721 -0.2360 -0.0772
 4654W        W 8718   0.387   4.645   3.122 -0.2033 -0.4431  0.2506
 4655W        W 8719   4.289   1.477   0.710 -0.0605 -0.0064  0.0437
 4656W        W 8720   7.104   6.345   1.133 -0.0308 -0.1975 -0.3163
 4657W        W 8721   5.705   6.793   2.089  0.0597 -0.1911 -0.3677
 4658W        W 8722   6.967   2.746   7.043 -0.2467  0.0282 -0.1889
 4659W        W 8723  10.252   2.428   2.461 -0.0332  0.0708  0.0549
 4660W        W 8724   9.621   8.814   2.481 -0.1560 -0.0543 -0.1649
 4661W        W 8725   3.998   2.143  10.957  0.2554  0.0485 -0.1935
 4662W        W 8726   6.363   8.099   8.070 -0.1697  0.0798  0.1082
 4663W        W 8727   9.785   0.484   9.748 -0.1293 -0.1377  0.0959
 4664W        W 8728   2.879   0.024   9.429 -0.1907  0.0797  0.2878
 4665W        W 8729   4.034   6.593   9.567 -0.2031 -0.0475  0.0210
 4666W        W 8730   1.158   1.253   7.693  0.1469  0.0348 -0.0864
 4667W        W 8731  10.559   7.131  10.413  0.1000 -0.1598  0.0619
 4668W        W 8732   1.296   6.830  10.526 -0.0183 -0.0140 -0.0385
 4669W        W 8733   4.682   8.513   3.063  0.1959  0.0430 -0.0451
 4670W        W 8734  10.899   6.559   0.167 -0.1772 -0.0750  0.1699
 4671W        W 8735   7.004   5.486   7.141  0.1406 -0.1578 -0.0887
 4672W        W 8736   2.996   5.921   0.959 -0.0876 -0.3587 -0.1718
 4673W        W 8737   6.634   4.867   9.219 -0.0250  0.3802 -0.0840
 4674W        W 8738   7.206   0.175   8.866  0.0283 -0.2328  0.2206
 4675W        W 8739   7.017   2.710  10.838  0.0133  0.1782  0.1180
 4676W        W 8740   9.449   3.923   6.958 -0.1282 -0.1754  0.1786
 4677W        W 8741   4.389   5.490   0.584  0.1218 -0.1218 -0.0562
 4678W        W 8742   9.831   9.669   1.878  0.1042 -0.0750  0.0740
 4679W        W 8743   6.461   9.891   2.294  0.3410  0.1321  0.0781
 4680W        W 8744   0.372   1.026   9.755 -0.0332 -0.1523  0.1955
 4681W        W 8745   4.983   4.776   3.732  0.3363  0.2555 -0.1508
 4682W        W 8746   9.328   7.279   1.499 -0.1021  0.1128  0.2193
 4683W        W 8747   0.156  10.242  10.907 -0.1807 -0.0590 -0.2410
 4684W        W 8748   2.033   5.918   0.652 -0.2235 -0.1818 -0.0494
 4685W        W 8749   2.336   6.556  10.925  0.1016 -0.1584 -0.0601
 4686W        W 8750   6.891   3.578   2.883 -0.1935  0.1735 -0.1142
 4687W        W 8751  10.270   8.299  10.285 -0.1703 -0.0047 -0.2759
 4688W        W 8752   0.248  10.392   0.887  0.2989 -0.1639  0.0663
 4689W        W 8753   7.284   2.926   3.906 -0.0305  0.5191 -0.1594
 4690W        W 8754   3.054  10.805  10.742 -0.0952 -0.1407  0.1873
 4691W        W 8755   9.043   6.051   8.116  0.3170 -0.2988 -0.2120
 4692W        W 8756   7.306   4.325   8.354  0.1317  0.5046 -0.1124
 4693W        W 8757   3.794   5.775  10.231  0.4625  0.0766  0.0701
 4694W        W 8758   4.660   1.031   1.153  0.3585  0.0078 -0.0348
 4695W        W 8759   2.058   2.448   9.812  0.0846  0.1092 -0.2652
 4696W        W 8760   4.280   3.186   3.987  0.2566 -0.1438  0.0115
 4697W        W 8761   5.853   5.528   7.771  0.0967 -0.2054 -0.1870
 4698W        W 8762   7.542   0.144  10.186 -0.1611 -0.0298 -0.3110
 4699W        W 8763  10.032   3.340   9.887 -0.0699 -0.1575  0.0587
 4700W        W 8764   6.116   2.181   7.063  0.4568  0.1464 -0.4898
 4701W        W 8765   9.915   4.208   1.142 -0.2311 -0.1276 -0.3831
 4702W        W 8766   3.330   2.399   3.103  0.3077  0.3869  0.0021
 4703W        W 8767   1.197  10.576   3.612  0.4245  0.1001 -0.0954
 4704W        W 8768   3.481   9.657   8.996 -0.0282  0.0277 -0.0200
 4705W        W 8769   2.526   4.636   1.948  0.1121 -0.2052  0.0751
 4706W        W 8770   1.746   5.784   8.669 -0.2385 -0.0652 -0.4111
 4707W        W 8771   0.418   1.551   9.660  0.2692  0.4198 -0.0464
 4708W        W 8772   6.131   7.346   8.320 -0.1331 -0.0317 -0.1512
 4709W        W 8773   5.693   4.988   9.031 -0.2337 -0.0406  0.0304
 4710W        W 8774   5.929   7.217   2.092  0.0356  0.0266  0.0706
 4711W        W 8775   3.575   0.903   2.337 -0.0070  0.1353 -0.0013
 4712W        W 8776   3.129   5.365   8.328 -0.4100  0.2770 -0.1092
 4713W        W 8777   7.962   8.562   9.053 -0.2825 -0.1174  0.2678
 4714W        W 8778  10.810   8.770   3.358  0.0900  0.0288 -0.2194
 4715W        W 8779   7.379   6.366   7.919  0.1917  0.0457 -0.1879
 4716W        W 8780   3.992  10.664   4.119  0.2209  0.2409  0.0563
 4717W        W 8781   1.839   7.874   9.225  0.0167  0.0932  0.1305
 4718W        W 8782   6.171   1.210   9.460  0.1250  0.0515  0.1729
 4719W        W 8783   8.910   0.919   9.910  0.2591  0.1897 -0.0896
 4720W        W 8784   0.811   0.743  10.672 -0.5155 -0.1375  0.7296
 4721W        W 8785   7.502  10.722   9.072  0.1203  0.0743 -0.1834
 4722W        W 8786   7.494   7.979   2.073 -0.0582 -0.0670  0.0127
 4723W        W 8787   3.864   6.388   2.054 -0.0985 -0.0061  0.0006
 4724W        W 8788   5.193   1.197   1.058 -0.0461 -0.1630  0.2414
 4725W        W 8789   8.954   4.718  10.727  0.1036  0.2964  0.4039
 4726W        W 8790   3.874   9.782   1.214 -0.0723 -0.0583 -0.0867
 4727W        W 8791   9.876   7.131   8.356  0.0059 -0.0240  0.1172
 4728W        W 8792   7.772   2.165  10.593 -0.0467  0.1871  0.1356
 4729W        W 8793   3.134   7.756   7.952  0.2295 -0.1136 -0.2505
 4730W        W 8794   6.732   7.890   1.538 -0.0154  0.2314  0.2306
 4731W        W 8795  10.015   8.025   0.722  0.2458 -0.0539  0.2837
 4732W        W 8796   8.388   2.460   9.354  0.1869  0.0428  0.0234
 4733W        W 8797   4.116   9.003   8.093  0.0637 -0.2230 -0.2640
 4734W        W 8798   3.981   1.202   2.670 -0.0547  0.1239 -0.1208
 4735W        W 8799   2.082   5.177   4.106  0.4073 -0.0127 -0.3787
 4736W        W 8800   5.048   5.403   1.171  0.1832  0.1156  0.1782
 4737W        W 8801   8.605   9.903   3.329  0.1179  0.1545  0.2092
 4738W        W 8802   4.985   2.608   2.006 -0.1841 -0.2392  0.2545
 4739W        W 8803   7.285   2.542   1.010  0.0340 -0.0442 -0.2732
 4740W        W 8804   7.742  10.350   2.122  0.0101 -0.1594 -0.2489
 4741W        W 8805   6.895   9.831   2.944  0.0059  0.0672 -0.0398
 4742W        W 8806  10.527   5.491   2.542 -0.0743 -0.3290  0.0616
 4743W        W 8807   0.958   5.639   3.091  0.0650 -0.1029  0.3070
 4744W        W 8808   6.372   9.682   8.894  0.3209 -0.0616 -0.0746
 4745W        W 8809   3.569   3.726   1.027  0.0037 -0.4240  0.0697
 4746W        W 8810   3.187   4.424   1.380  0.0616 -0.3243 -0.2951
 4747W        W 8811   5.311   5.946   3.107 -0.2460 -0.1054  0.2708
 4748W        W 8812   2.000   9.039   3.013 -0.0884 -0.1142  0.1033
 4749W        W 8813   7.547   5.817   1.790 -0.2043 -0.0819 -0.0625
 4750W        W 8814   9.707   0.575   2.946  0.0023  0.0027  0.2716
 4751W        W 8815   4.763   4.532   8.305 -0.0863 -0.1747 -0.0534
 4752W        W 8816  10.580   4.294   0.514  0.2023  0.1148 -0.1275
 4753W        W 8817   6.407   6.229   8.773 -0.1611 -0.0793 -0.4507
 4754W        W 8818   4.214   5.149   8.920 -0.0624  0.0260  0.0569
 4755W        W 8819   8.253   2.304   0.316 -0.0100 -0.0408 -0.4765
 4756W        W 8820   4.137   8.541   7.912  0.0875  0.0349  0.0620
 4757W        W 8821   4.348   6.413   0.499  0.0668 -0.0810  0.1863
 4758W        W 8822   8.974   9.864   1.395 -0.0817 -0.1767  0.1611
 4759W        W 8823   4.725   5.433   8.208 -0.0390  0.1384  0.3059
 4760W        W 8824   5.343   4.118   3.262  0.1411 -0.1293 -0.1666
 4761W        W 8825   1.896   0.070   9.507 -0.0619  0.0836 -0.0033
 4762W        W 8826   5.817   9.443   8.159 -0.2187  0.2472  0.3073
 4763W        W 8827   3.041   3.519   1.623  0.0586 -0.0602  0.1358
 4764W        W 8828   3.396   3.991   9.006  0.1331 -0.1711  0.0513
 4765W        W 8829   5.777   5.487   2.751  0.1468 -0.0950 -0.0101
 4766W        W 8830   1.526   6.272  10.657  0.1123  0.1853 -0.0551
 4767W        W 8831   6.282   2.871   1.978 -0.0078  0.0357  0.3801
 4768W        W 8832   3.662   0.645   1.383 -0.1467 -0.2295  0.1431
 4769W        W 8833   8.587   8.131   9.544 -0.0058  0.0114 -0.5631
 4770W        W 8834   6.193   3.787  10.712  0.2149 -0.0125  0.0747
 4771W        W 8835   6.212   6.858   2.035  0.2430  0.0657  0.2764
 4772W        W 8836   4.485   0.079  10.692 -0.2393 -0.2190  0.0844
 4773W        W 8837   9.717   0.445  10.216  0.1257 -0.0079 -0.3036
 4774W        W 8838   5.490  10.065   7.736 -0.3536  0.0216  0.1575
 4775W        W 8839   0.787   5.109   1.128 -0.0045  0.2302  0.1313
 4776W        W 8840   6.341   8.244   8.825  0.0317 -0.1999 -0.1102
 4777W        W 8841   8.141   1.866   7.472 -0.3388 -0.0108  0.0531
 4778W        W 8842   4.116   0.748   1.456 -0.1047 -0.0033  0.2157
 4779W        W 8843   8.453   3.310   1.947  0.0669  0.1823 -0.0558
 4780W        W 8844  10.233  10.307   9.087 -0.1300 -0.1950 -0.6018
 4781W        W 8845   0.698   7.194   2.000  0.0832  0.3297  0.1746
 4782W        W 8846   0.064   2.283   3.706 -0.0923 -0.2441 -0.2078
 4783W        W 8847   8.652   5.577   1.042 -0.3723  0.3366  0.2154
 4784W        W 8848  10.352   2.906  10.230  0.0535 -0.1003 -0.0147
 4785W        W 8849   0.204   0.408   3.427  0.0087  0.0054 -0.0026
 4786W        W 8850   6.049   1.313   2.670  0.2096  0.3194 -0.0203
 4787W        W 8851   3.350   4.999   3.672 -0.2336  0.0537  0.3049
 4788W        W 8852   0.352   2.313   2.882  0.1134  0.1857 -0.0740
 4789W        W 8853   2.049  10.857   7.452  0.0097  0.0320 -0.0300
 4790W        W 8854  10.074   1.481   0.291  0.2053 -0.0458 -0.0468
 4791W        W 8855   0.800  10.585   2.225 -0.3964  0.0547  0.0809
 4792W        W 8856   1.196   0.492   1.454  0.1115  0.0402  0.1899
 4793W        W 8857   3.522   5.566   3.155 -0.0491  0.1595 -0.1108
 4794W        W 8858  10.437   5.659   9.228 -0.2199  0.3734  0.0334
 4795W        W 8859   4.124   5.946   2.138  0.3108  0.0797  0.2711
 4796W        W 8860  10.117   5.668   2.858 -0.0104 -0.0770  0.1130
 4797W        W 8861   3.958   5.735   0.308 -0.5330  0.4385  0.1790
 4798W        W 8862   5.839   0.902   0.992 -0.3789 -0.1750 -0.4384
 4799W        W 8863   8.543   9.413   8.582  0.1226 -0.0791  0.0987
 4800W        W 8864  10.800   8.417   7.828  0.2073  0.0690  0.2825
 4801W        W 8865   2.079   1.447   3.511 -0.1011 -0.0771  0.0480
 4802W        W 8866   5.953   6.930  10.040  0.2121 -0.1765  0.1123
 4803W        W 8867   0.794   8.164   8.213  0.0980 -0.0476 -0.0528
 4804W        W 8868   5.383   4.168   2.358  0.0661 -0.0819 -0.1028
 4805W        W 8869   8.004  10.038   6.873 -0.0782  0.2572 -0.0981
 4806W        W 8870   8.527   7.999   0.188  0.0250  0.0863 -0.3154
 4807W        W 8871   0.474   6.654   1.891  0.1424 -0.2124 -0.4204
 4808W        W 8872   4.239  10.859   3.100  0.0428 -0.0522 -0.2356
 4809W        W 8873   0.029   9.640   3.481 -0.2089 -0.3271  0.0231
 4810W        W 8874   6.529   7.623   2.488 -0.0808  0.0175  0.2208
 4811W        W 8875   9.698   7.877   1.150 -0.2481 -0.0914  0.1386
 4812W        W 8876  10.005   1.754  10.148 -0.1089  0.0205  0.1028
 4813W        W 8877   6.433   8.351   1.845  0.0771  0.2106  0.1999
 4814W        W 8878   3.187   2.431   9.061  0.1650  0.4423 -0.1178
 4815W        W 8879   4.810   9.938   1.970 -0.2969 -0.1613  0.0622
 4816W        W 8880   5.309   5.317   9.163  0.3241 -0.1122 -0.1084
 4817W        W 8881   2.348   7.077   9.696 -0.0187 -0.2310 -0.1410
 4818W        W 8882  10.553   0.726   8.841  0.1725  0.1432 -0.2857
 4819W        W 8883   5.523   5.144   8.591 -0.5156 -0.2365  0.1561
 4820W        W 8884   0.446   1.994   7.958  0.0966 -0.5233  0.0543
 4821W        W 8885   1.253   2.385   0.510  0.0008 -0.0965 -0.5506
 4822W        W 8886   3.945  10.095   0.858 -0.0028 -0.2743  0.0639
 4823W        W 8887   7.763  10.583   0.476  0.0503 -0.2557  0.1895
 4824W        W 8888   6.805   1.944   1.628 -0.0070 -0.5122 -0.0796
 4825W        W 8889   0.713   3.733   8.901 -0.1368  0.0505 -0.6186
 4826W        W 8890   4.408   3.932   9.838  0.0593  0.0614 -0.1860
 4827W        W 8891   9.392   2.437   1.956 -0.0170 -0.2840 -0.1838
 4828W        W 8892   3.085   1.649   7.756 -0.1068  0.1142 -0.1278
 4829W        W 8893   1.229   1.039   8.651  0.2241 -0.3737  0.0373
 4830W        W 8894  10.324   1.675  10.701  0.0134 -0.4397  0.1750
 4831W        W 8895   8.834   0.449   1.172  0.3387 -0.0540 -0.2031
 4832W        W 8896   4.453  10.381   7.762 -0.3744  0.0272  0.0260
 4833W        W 8897   7.151   7.260   9.092 -0.0813 -0.0143 -0.2042
 4834W        W 8898   3.538   4.353   9.465 -0.0404  0.1413  0.0273
 4835W        W 8899   2.431   1.307   1.304 -0.3557  0.0414 -0.1095
 4836W        W 8900   5.079   8.185   0.412  0.0086  0.0075 -0.0285
 4837W        W 8901   9.222   5.825   2.819 -0.1481 -0.1426  0.1659
 4838W        W 8902  10.154   5.038   3.415 -0.2698 -0.0907 -0.1776
 4839W        W 8903   7.428   4.188   9.831  0.2126 -0.0503 -0.2394
 4840W        W 8904   7.174  10.030   3.357 -0.0053 -0.0301  0.2874
 4841W        W 8905  10.829   5.826   8.960  0.1552 -0.0785  0.4533
 4842W        W 8906   6.194   0.332   9.150  0.0526 -0.0398 -0.2552
 4843W        W 8907   6.511   0.939   0.908  0.2353  0.2856  0.0760
 4844W        W 8908   4.873   7.533   0.421 -0.4894  0.0535 -0.0624
 4845W        W 8909   5.687   3.191   8.019 -0.0418  0.1576 -0.2853
 4846W        W 8910   4.944  10.029   9.284  0.4325  0.0530 -0.0147
 4847W        W 8911   3.312   4.773   1.738  0.1642 -0.1669  0.0547
 4848W        W 8912   0.272   1.215   9.245  0.2467  0.1663  0.1128
 4849W        W 8913  10.506   1.595   3.209  0.0599  0.1029  0.1254
 4850W        W 8914   2.358   7.150   1.874  0.1472  0.3999  0.2455
 4851W        W 8915   5.487   5.409   3.349  0.3829 -0.2140 -0.1244
 4852W        W 8916   2.801   5.010   8.420  0.2313  0.0615  0.3278
 4853W        W 8917   6.793   2.628   8.355 -0.2410  0.4293 -0.1308
 4854W        W 8918   9.025   6.811   0.708  0.0626  0.0869  0.0252
 4855W        W 8919   0.354   9.903   0.896 -0.1727  0.1345  0.0052
 4856W        W 8920  10.134   6.148   8.549 -0.2373  0.3427  0.0828
 4857W        W 8921   8.953   5.737  10.083  0.0040 -0.3486  0.0346
 4858W        W 8922   2.540   7.821  10.328 -0.1913  0.0878  0.1889
 4859W        W 8923   7.488   6.146   7.453 -0.0395  0.1841  0.2336
 4860W        W 8924   5.526   3.733   1.702  0.0523 -0.1243  0.0223
 4861W        W 8925   7.440   7.046  10.826 -0.2783 -0.0586 -0.2453
 4862W        W 8926   1.877   2.399   9.342  0.0288 -0.1566 -0.2745
 4863W        W 8927   0.240   2.588  10.312  0.0208 -0.0256  0.2046
 4864W        W 8928   6.793   9.042  10.217  0.0033  0.0658 -0.0506
 4865W        W 8929   1.973   6.959   1.650 -0.1893 -0.0945 -0.2062
 4866W        W 8930   8.113   3.450   8.604 -0.2294 -0.2632 -0.3743
 4867W        W 8931  10.856   6.596   3.444 -0.0949 -0.0268 -0.0787
 4868W        W 8932   6.850   1.089   0.479  0.1062  0.1967  0.0602
 4869W        W 8933   2.900   0.320   0.064 -0.3834  0.0271  0.4479
 4870W        W 8934   5.955   3.706   2.935 -0.2862  0.0557 -0.2117
 4871W        W 8935   3.208   3.360   1.044  0.2691 -0.2302 -0.0171
 4872W        W 8936   5.093   9.839   1.128 -0.1265 -0.2719 -0.0713
 4873W        W 8937   7.491   9.144   1.374  0.0411  0.2162  0.0276
 4874W        W 8938  10.005   0.488   2.521 -0.1449  0.1396 -0.1101
 4875W        W 8939   6.086   6.310   9.364 -0.0429 -0.1349 -0.0481
 4876W        W 8940   7.629   8.476   8.259 -0.1251  0.3091 -0.2355
 4877W        W 8941   6.796   4.662   1.669  0.5083  0.1430  0.1390
 4878W        W 8942   4.114  10.303   1.357  0.5198  0.1044  0.1054
 4879W        W 8943   7.987   8.389   6.813 -0.0214  0.3914  0.2371
 4880W        W 8944   4.845   2.737   8.554  0.0872  0.0430  0.0414
 4881W        W 8945  10.442   1.285  10.988  0.1337  0.1411 -0.2552
 4882W        W 8946   0.084   6.546  10.592 -0.0526  0.0572 -0.1724
 4883W        W 8947   9.151   3.301   0.941  0.2111  0.0089 -0.0861
 4884W        W 8948   5.936   3.445   1.125  0.2120 -0.1303 -0.1946
 4885W        W 8949   1.284   5.439   2.190 -0.0670 -0.2152 -0.4375
 4886W        W 8950   7.554   4.187   3.071  0.1343  0.1131 -0.0553
 4887W        W 8951   0.744   9.052   7.812  0.0596 -0.0691  0.0783
 4888W        W 8952   4.630   0.520  10.526 -0.0796  0.0939  0.3302
 4889W        W 8953   3.745   2.825   9.629 -0.0631  0.0384  0.1498
 4890W        W 8954   2.882   2.785   9.556  0.1218 -0.2067  0.0297
 4891W        W 8955   7.358   9.841   2.886  0.0710 -0.0066 -0.2207
 4892W        W 8956   1.199   7.048   2.246  0.1861 -0.1633 -0.2471
 4893W        W 8957   6.691  10.609  10.479 -0.6378 -0.2654 -0.3686
 4894W        W 8958   2.856   5.547  10.134  0.2141  0.0574  0.1203
 4895W        W 8959   8.549   8.695   8.032 -0.0000  0.1062  0.0439
 4896W        W 8960   5.179   3.571   9.682 -0.2956 -0.2273  0.3185
 4897W        W 8961   9.296   8.718   3.838 -0.1607  0.0253 -0.0439
 4898W        W 8962   9.778   2.641   3.251 -0.4160  0.2195 -0.2412
 4899W        W 8963   4.273   5.425   8.413  0.0080 -0.1174  0.2154
 4900W        W 8964   8.352   4.041   2.601  0.0005 -0.1553 -0.1520
 4901W        W 8965   9.199   1.661   2.463  0.3432 -0.1449  0.0547
 4902W        W 8966   9.511  10.213   9.313 -0.0497 -0.1249  0.2693
 4903W        W 8967   7.416   7.380   1.996 -0.2325  0.1428  0.0500
 4904W        W 8968   5.563  10.566   9.394 -0.1281  0.1098  0.0658
 4905W        W 8969   5.823  10.310   2.113 -0.1348 -0.0581 -0.2423
 4906W        W 8970   5.902   8.060   8.354 -0.0790 -0.0920  0.2347
 4907W        W 8971   6.067   5.490   6.968 -0.0805 -0.1588  0.0515
 4908W        W 8972   0.889   1.645   9.494 -0.1855  0.0790  0.0437
 4909W        W 8973   2.119   4.239   1.152 -0.0644  0.2402 -0.0375
 4910W        W 8974  10.456   4.878   1.572 -0.4167 -0.2939  0.0089
 4911W        W 8975   1.283   4.134   2.744 -0.0257 -0.0551 -0.3682
 4912W        W 8976   8.598   7.137   0.662  0.1821 -0.0985 -0.1455
 4913W        W 8977   5.185   5.635   0.279  0.2102 -0.2282 -0.1033
 4914W        W 8978   3.642   0.409   2.290  0.4779 -0.2560  0.0898
 4915W        W 8979   7.042  10.659  10.915  0.1197 -0.2657  0.1362
 4916W        W 8980   6.134   2.294   2.698  0.0029 -0.1140 -0.0965
 4917W        W 8981   3.784   5.981   9.781  0.1495  0.0386  0.0434
 4918W        W 8982   5.883  10.659   9.776 -0.1225  0.0820 -0.0386
 4919W        W 8983   1.702   0.001   3.363  0.2243 -0.1024  0.2053
 4920W        W 8984   4.679   6.490   2.596 -0.0917  0.3596 -0.2011
 4921W        W 8985   9.790   1.109   0.269  0.2793  0.2687  0.3888
 4922W        W 8986   9.295   6.247   1.873 -0.0349 -0.2069 -0.1243
 4923W        W 8987   5.909   6.611   9.000 -0.0259 -0.2809 -0.2040
 4924W        W 8988   5.491   6.395   1.761 -0.1661 -0.1722  0.0167
 4925W        W 8989   3.109   0.783   1.450 -0.2476  0.1171  0.1937
 4926W        W 8990   4.039   9.027   2.664 -0.2749 -0.0740  0.0320
 4927W        W 8991   8.418   4.182  10.631 -0.0059 -0.1514  0.1126
 4928W        W 8992   8.933   0.687  10.445  0.1199  0.3792 -0.1711
 4929W        W 8993   2.915   6.898   9.886 -0.2998 -0.1450  0.0304
 4930W        W 8994   8.246   0.622   7.830 -0.1174 -0.0800 -0.0041
 4931W        W 8995   5.294   7.534   8.229 -0.2978 -0.1613 -0.0375
 4932W        W 8996   4.060   1.318   7.831  0.2914  0.0896 -0.2943
 4933W        W 8997  10.546   2.050   0.991 -0.1137  0.3325  0.1492
 4934W        W 8998   2.213   7.592   7.045  0.1061 -0.1280  0.5801
 4935W        W 8999   7.096   0.530  10.865  0.0323  0.3477 -0.0886
 4936W        W 9000   5.262   3.676  10.167  0.0940  0.1357  0.2472
 4937W        W 9001   4.419   7.668   2.531 -0.0020  0.0941 -0.1913
 4938W        W 9002   8.253  10.767   2.461  0.0050 -0.2198  0.0323
 4939W        W 9003   1.804   8.969  10.251 -0.3352 -0.1116 -0.0403
 4940W        W 9004   4.749   2.038  10.511 -0.2372 -0.0662  0.1847
 4941W        W 9005   2.247   8.174  10.628 -0.3224 -0.1088 -0.0811
 4942W        W 9006   5.076  10.539   7.888 -0.2060 -0.1896  0.2071
 4943W        W 9007   0.771   7.905   7.086 -0.0802 -0.1675  0.2477
 4944W        W 9008  10.804  10.397  10.147  0.2912 -0.3264  0.2237
 4945W        W 9009   5.364   1.454   0.145 -0.1195  0.2953 -0.2748
 4946W        W 9010   6.786   4.463   8.389  0.4125 -0.0059  0.1777
 4947W        W 9011   3.847   6.210   0.407 -0.0777 -0.0312 -0.2005
 4948W        W 9012   1.978  10.414   9.340  0.2187 -0.0506  0.1466
 4949W        W 9013   1.984  10.172   1.182  0.0138  0.1724 -0.1117
 4950W        W 9014   2.901   5.809   8.374  0.4008  0.0526 -0.1527
 4951W        W 9015  10.717   2.712   9.489 -0.2277 -0.0181  0.0265
 4952W        W 9016  10.776   9.042   1.022 -0.1057 -0.2431 -0.5644
 4953W        W 9017   3.524   0.021   1.113  0.1738 -0.1900 -0.2603
 4954W        W 9018   2.556   9.860  10.418 -0.1445 -0.1571 -0.0509
 4955W        W 9019   3.054   6.517   0.981  0.1949  0.0392 -0.3587
 4956W        W 9020   5.607   7.274  11.031 -0.4036 -0.0098  0.2300
 4957W        W 9021  10.067   1.148   8.159  0.1205 -0.0314 -0.3160
 4958W        W 9022   1.336   4.434   2.337  0.1852  0.1968 -0.0677
 4959W        W 9023   0.368   7.876   8.090  0.0931 -0.0269 -0.0646
 4960W        W 9024   8.234   8.638   1.502  0.1708 -0.0576  0.2076
 4961W        W 9025   1.101   9.019  10.516  0.3689  0.0740  0.2405
 4962W        W 9026   8.562   7.261   8.340  0.1071  0.3339  0.0519
 4963W        W 9027   4.656   7.963   1.898  0.2132  0.1567  0.3734
 4964W        W 9028   8.832   5.454   2.972 -0.0121  0.3072  0.0161
 4965W        W 9029   3.699   7.713   0.571 -0.0487  0.1954  0.1690
 4966W        W 9030   0.431   0.849  10.926 -0.0425  0.3382 -0.0343
 4967W        W 9031   6.554   1.390   7.172  0.2342 -0.1479 -0.0777
 4968W        W 9032   2.175   8.492   1.037 -0.1068  0.0065 -0.2988
 4969W        W 9033  10.606  10.253   2.661 -0.0827  0.1814 -0.1649
 4970W        W 9034   9.075   0.301   1.574 -0.0558  0.3973 -0.2324
 4971W        W 9035   1.696   8.235   2.316  0.2441  0.3069  0.1839
 4972W        W 9036   8.125  10.659   0.914 -0.0713  0.0319 -0.0514
 4973W        W 9037   8.583   9.977   2.858  0.2684  0.0993  0.0559
 4974W        W 9038   1.852   3.689   1.980 -0.2106 -0.2955 -0.2560
 4975W        W 9039   2.440   4.123   8.739  0.0730 -0.2408 -0.2298
 4976W        W 9040  10.270   4.171   9.555  0.1135 -0.3296 -0.0855
 4977W        W 9041   7.944   5.607   1.455 -0.0228  0.0772  0.2148
 4978W        W 9042   5.967   2.769   7.158  0.1087  0.1216  0.2330
 4979W        W 9043   5.276   3.423   2.986 -0.0820  0.1525  0.0011
 4980W        W 9044   7.353   7.667   3.592 -0.0697  0.0516  0.0489
 4981W        W 9045   4.986   7.143   1.345 -0.2562  0.0555  0.0925
 4982W        W 9046   0.276   6.051  10.341  0.1800 -0.0460 -0.1242
 4983W        W 9047   1.462   8.948   9.395  0.2148  0.0334  0.2854
 4984W        W 9048   7.093   9.460   2.071  0.2024 -0.1166 -0.0895
 4985W        W 9049   9.250   9.109   0.809 -0.2075  0.0098  0.1599
 4986W        W 9050   4.826   4.501   9.325 -0.3057  0.0642  0.4442
 4987W        W 9051   6.780   6.619   2.893 -0.2314 -0.0057 -0.0954
 4988W        W 9052  10.890   0.252   8.301 -0.0141  0.2492 -0.0505
 4989W        W 9053   0.934   8.299   0.680 -0.2943 -0.3457  0.0850
 4990W        W 9054   3.445   2.715   1.227 -0.1609 -0.0036  0.3220
 4991W        W 9055   0.010   3.112  10.217  0.0582  0.1588  0.0465
 4992W        W 9056  10.759  10.625  10.627 -0.0843 -0.1445 -0.1336
 4993W        W 9057   9.454   9.856   2.171  0.2836  0.0387  0.3044
 4994W        W 9058   1.797   1.009   9.743 -0.1024 -0.0008 -0.1811
 4995W        W 9059   9.827   8.366  10.052 -0.1118  0.2091  0.2455
 4996W        W 9060   4.163   6.311   9.057 -0.2561  0.2652  0.0045
 4997W        W 9061  10.186   3.385   2.312  0.0419 -0.2010 -0.1667
 4998W        W 9062   6.269   0.099   9.655 -0.2065  0.1005 -0.0678
 4999W        W 9063   4.973   1.292   7.839  0.2513  0.2538  0.0222
 5000W        W 9064   5.716   7.752  10.982 -0.2711 -0.1067  0.3987
 5001W        W 9065  10.736   1.413   9.384  0.4602  0.0520 -0.0318
 5002W        W 9066   1.512   2.287   0.957  0.0299  0.0757  0.2365
 5003W        W 9067   5.268  10.790   1.761 -0.1759  0.0244  0.3451
 5004W        W 9068   0.028   6.492   9.825  0.1806  0.1523 -0.2328
 5005W        W 9069   2.615   2.950  10.380  0.1102  0.1337  0.0865
 5006W        W 9070   8.717   5.596   8.997 -0.0633  0.3720 -0.2323
 5007W        W 9071   1.536   5.394   8.990  0.0780  0.1707 -0.1968
 5008W        W 9072   6.203   0.258   7.390  0.0468  0.0153  0.1299
 5009W        W 9073   3.644   4.192   3.223  0.2469 -0.2887 -0.0242
 5010W        W 9074   3.809   8.706   8.285 -0.0249  0.4034  0.0210
 5011W        W 9075   5.218   9.149   3.266 -0.2079  0.2220  0.1004
 5012W        W 9076   4.462   0.274   2.897 -0.2948 -0.2256 -0.5695
 5013W        W 9077   4.398   5.132   2.486  0.0295 -0.1328 -0.1136
 5014W        W 9078   2.271   3.599   8.991  0.1564  0.0867 -0.1063
 5015W        W 9079   7.002   4.848   8.179  0.1147  0.0759 -0.0641
 5016W        W 9080   6.575   3.940   9.488 -0.5197 -0.1728  0.2686
 5017W        W 9081   7.735   4.295   0.090 -0.0013 -0.2245 -0.0125
 5018W        W 9082   7.053   7.807   3.178  0.0206  0.0779  0.2873
 5019W        W 9083   7.939   4.967   8.448 -0.3647 -0.1976  0.1343
 5020W        W 9084  10.513   1.447   1.128 -0.1556 -0.1349  0.2223
 5021W        W 9085   8.145   9.475   2.024  0.2571 -0.0606 -0.0960
 5022W        W 9086   4.662   0.625   1.693 -0.1914 -0.1397  0.0652
 5023W        W 9087   7.604   9.429   8.174  0.2688 -0.1332  0.0818
 5024W        W 9088   1.399   4.263   1.354  0.1396  0.3275  0.0191
 5025W        W 9089   4.160   3.419   8.897 -0.0534 -0.2170 -0.2007
 5026W        W 9090   4.523   4.127   8.522 -0.5767 -0.0845 -0.1037
 5027W        W 9091   3.654  10.350   2.840  0.0241 -0.1118  0.1402
 5028W        W 9092   0.357  10.553  10.447  0.3032  0.1510  0.0792
 5029W        W 9093   1.365  10.817  10.842 -0.1743 -0.0879  0.0889
 5030W        W 9094   9.076   7.274   8.139  0.0012  0.1756  0.0514
 5031W        W 9095   0.476   7.856   0.087  0.2489 -0.3086 -0.1154
 5032W        W 9096   5.516   2.036   1.403  0.1394 -0.0655  0.2976
 5033W        W 9097   0.471   5.490   9.136 -0.0487 -0.1430 -0.2148
 5034W        W 9098   2.795   7.987   3.004  0.2599  0.0090 -0.0472
 5035W        W 9099   5.966   2.629   2.348 -0.0271  0.1837  0.2288
 5036W        W 9100   6.839   4.935   2.895  0.0056 -0.0150  0.2122
 5037W        W 9101   7.148   8.656   9.511  0.1603  0.1301 -0.2605
 5038W        W 9102   1.131   1.430   2.369 -0.3190 -0.0209 -0.0402
 5039W        W 9103   0.511   6.499  10.784  0.2970  0.2920 -0.3500
 5040W        W 9104   6.429   5.036   7.514 -0.1255  0.0428  0.1906
 5041W        W 9105   9.065   5.416   8.682  0.0609  0.0652 -0.0795
 5042W        W 9106   0.200   3.384   8.768  0.2258  0.1540  0.2471
 5043W        W 9107   8.303   5.087   0.527 -0.3341  0.2907 -0.0618
 5044W        W 9108   8.642   4.027   0.709 -0.0615 -0.0296 -0.0549
 5045W        W 9109  10.598   3.840   0.343 -0.0646 -0.0828  0.0861
 5046W        W 9110   3.272   0.441   9.372  0.3533 -0.1300  0.2161
 5047W        W 9111   2.898   1.554  11.023 -0.0509 -0.0031 -0.1928
 5048W        W 9112   2.906   5.856   1.462  0.2127  0.1235 -0.0370
 5049W        W 9113   5.120   7.983   9.356  0.0162  0.3738  0.0282
 5050W        W 9114   6.989   9.270   1.533 -0.3344 -0.0782  0.1040
 5051W        W 9115   5.593   5.546   9.486 -0.1017  0.0397 -0.1101
 5052W        W 9116   7.629   3.333   8.378  0.3798  0.2226  0.0129
 5053W        W 9117   9.693   6.382   7.031  0.0434 -0.2790  0.0575
 5054W        W 9118   5.566   5.424   1.088 -0.1753 -0.0978 -0.3829
 5055W        W 9119   5.551   0.041   7.800 -0.0289 -0.0011 -0.0043
 5056W        W 9120   7.097   3.084   0.316  0.2673  0.0435  0.0589
 5057W        W 9121   6.722  10.277   2.600  0.1132  0.2637  0.0307
 5058W        W 9122   4.118   9.085   3.163  0.4015  0.0417  0.1203
 5059W        W 9123   0.122   6.799   1.512 -0.3233 -0.1704  0.0880
 5060W        W 9124   1.009   6.629   1.890  0.0416 -0.1321  0.1184
 5061W        W 9125  10.396   5.779   0.031 -0.2128  0.3136 -0.2673
 5062W        W 9126  10.595   3.651   3.841 -0.3450 -0.0810  0.0787
 5063W        W 9127   9.918  10.020   8.163  0.2897  0.2863  0.3143
 5064W        W 9128   3.336   8.632   3.514 -0.0815  0.1924 -0.1636
 5065W        W 9129   7.252   8.776   2.960  0.1756 -0.1770  0.0707
 5066W        W 9130   9.880   8.762   9.706  0.1951  0.0798  0.0428
 5067W        W 9131   1.458   2.788   0.804  0.1193  0.1610  0.3258
 5068W        W 9132   5.288   7.026   8.309 -0.0129 -0.1903  0.1164
 5069W        W 9133  10.005  10.619   2.398  0.3078 -0.0562 -0.1530
 5070W        W 9134   7.053   9.651  10.247 -0.1502  0.2504  0.0183
 5071W        W 9135   8.192   7.623   3.151 -0.2543 -0.0715 -0.1179
 5072W        W 9136   4.069   4.564   0.929 -0.1896  0.3781 -0.0505
 5073W        W 9137   9.710   5.345   1.070 -0.2284  0.1082  0.0867
 5074W        W 9138   5.152   5.704   2.161  0.0261  0.0087  0.4290
 5075W        W 9139   6.018   6.563  10.342 -0.0504  0.2132 -0.0619
 5076W        W 9140   6.243   1.568   1.526  0.2245  0.0620  0.4350
 5077W        W 9141   4.887   9.297   1.300 -0.0171  0.3245 -0.0214
 5078W        W 9142   6.216   3.246   7.942  0.4156  0.0093 -0.3305
 5079W        W 9143   0.741   3.269   8.286  0.2377 -0.0976  0.0681
 5080W        W 9144   1.862   6.787   9.081 -0.5449 -0.1620  0.2945
 5081W        W 9145   2.800   9.526   2.759  0.0168 -0.2054  0.0695
 5082W        W 9146   2.984   3.200   4.049 -0.1330  0.0514 -0.0843
 5083W        W 9147   7.864   4.249  10.590 -0.3140 -0.3251  0.0261
 5084W        W 9148   1.625   8.401   8.551 -0.3800  0.1726  0.1970
 5085W        W 9149   7.908   9.312   0.584  0.3056 -0.0618 -0.2583
 5086W        W 9150   3.333   6.580  10.350 -0.1525  0.0074 -0.3051
 5087W        W 9151   0.281   5.174   3.269 -0.0731  0.0431  0.0250
 5088W        W 9152   8.494   7.792   8.611 -0.1568  0.1757 -0.2275
 5089W        W 9153   3.892   5.110   1.764 -0.1958 -0.0570  0.0790
 5090W        W 9154   3.387   2.805   0.725 -0.0707  0.0721 -0.1270
 5091W        W 9155   9.387   5.982   2.378  0.0946  0.0071  0.0493
 5092W        W 9156   3.325   6.148   8.993 -0.1244 -0.0244 -0.3423
 5093W        W 9157   8.158   2.782   3.350  0.0248  0.0694 -0.1295
 5094W        W 9158   0.641   2.940   2.370  0.1113 -0.1090 -0.1585
 5095W        W 9159  10.749   2.698   8.359  0.0960  0.0700  0.0082
 5096W        W 9160   1.567   2.204   9.715 -0.3407 -0.3180 -0.1766
 5097W        W 9161   6.664   0.231   0.725  0.2437  0.2893 -0.2059
 5098W        W 9162   5.829  10.069   4.245 -0.0724  0.0130 -0.0336
 5099W        W 9163   6.915   6.319   2.533 -0.0803 -0.0236  0.1401
 5100W        W 9164   6.151   2.673   4.157  0.2181 -0.0016 -0.0406
 5101W        W 9165   7.514   6.636   8.793  0.2250 -0.1716  0.2111
 5102W        W 9166   1.332   9.967   1.725  0.0087 -0.1519 -0.1028
 5103W        W 9167   9.424   8.344   8.494  0.2725  0.0355 -0.0758
 5104W        W 9168   1.966   3.179   8.128 -0.3812 -0.1453  0.0621
 5105W        W 9169   4.960   7.816   2.309  0.2950  0.3518  0.1388
 5106W        W 9170   2.212   5.361   0.239 -0.1086  0.1396  0.0173
 5107W        W 9171   7.158   5.996   2.067 -0.0638  0.4900  0.1984
 5108W        W 9172   8.773   6.949   9.624 -0.4138  0.2461  0.0981
 5109W        W 9173   5.726   7.399   8.007 -0.0309  0.0926  0.0317
 5110W        W 9174   5.730   2.487   9.499 -0.1384  0.3860  0.1721
 5111W        W 9175   4.195   0.377  10.374 -0.0329  0.2093 -0.1810
 5112W        W 9176   1.735   7.677   9.783 -0.0191  0.6280  0.0553
 5113W        W 9177   8.899   1.154   9.480 -0.1805  0.2559  0.1045
 5114W        W 9178   5.794   1.907   8.341  0.2090  0.0652 -0.2456
 5115W        W 9179   2.617   5.437   8.680  0.1727  0.3003  0.1927
 5116W        W 9180   8.998   8.044  10.408  0.0368  0.1387  0.3814
 5117W        W 9181   9.413   6.076  10.139 -0.1971 -0.3305 -0.3749
 5118W        W 9182   5.928   9.884  10.187  0.0579 -0.0198  0.0809
 5119W        W 9183   7.724   7.363   8.355 -0.2882  0.0099 -0.0154
 5120W        W 9184  10.305   8.719  10.023 -0.1479 -0.0307 -0.4028
 5121W        W 9185   8.859   3.001   1.185  0.0892 -0.1771 -0.2238
 5122W        W 9186   7.800   9.258   9.692  0.4787 -0.0773 -0.0215
 5123W        W 9187   9.823   7.077   1.593  0.0628  0.1443 -0.0284
 5124W        W 9188   1.573   2.850   9.917 -0.0528  0.0870 -0.0083
 5125W        W 9189  10.058   0.163   2.049 -0.1925  0.0053  0.3263
 5126W        W 9190   9.627   0.082   3.348 -0.2502  0.0889  0.1059
 5127W        W 9191   9.613   1.440  10.345  0.3350  0.3328  0.0318
 5128W        W 9192   0.816  10.283   8.906 -0.5868  0.0383 -0.1740
 5129W        W 9193   5.517   6.973   1.651 -0.0369  0.1280 -0.0129
 5130W        W 9194   9.583   9.748   7.878 -0.0378 -0.2161 -0.0989
 5131W        W 9195   7.570   4.674  10.729  0.0630  0.0639 -0.1405
 5132W        W 9196   5.637   5.022   2.919  0.2985  0.0891 -0.0193
 5133W        W 9197   3.631   4.674   7.303  0.1492 -0.1496 -0.2819
 5134W        W 9198   4.088   8.347   1.145  0.0292  0.3078 -0.2120
 5135W        W 9199   8.528   5.573   9.874  0.1744 -0.3063  0.0590
 5136W        W 9200   8.306   8.552   3.685 -0.1302 -0.0318  0.3004
 5137W        W 9201   1.406   0.902   9.982  0.2112  0.1072 -0.1061
 5138W        W 9202   8.682   8.991   0.168 -0.0725 -0.2830 -0.1076
 5139W        W 9203   4.359   1.511   9.640  0.1608  0.0125  0.1333
 5140W        W 9204   6.159   7.474   9.903 -0.1556  0.1958 -0.1764
 5141W        W 9205   4.549   2.912   3.334 -0.1360  0.0373 -0.3557
 5142W        W 9206   0.177   6.616   0.924  0.0166  0.0901  0.4570
 5143W        W 9207   7.735  10.296   9.205 -0.2446  0.1602  0.0410
 5144W        W 9208   4.672   6.797   2.179  0.1268  0.0733 -0.4291
 5145W        W 9209   9.192   0.004   8.679  0.1420 -0.2063 -0.1338
 5146W        W 9210   2.665   8.962   9.820 -0.3079 -0.2569  0.0955
 5147W        W 9211   6.348   8.153   2.290 -0.3039 -0.0906 -0.0467
 5148W        W 9212   3.307   0.613   7.900  0.2592  0.2484  0.2014
 5149W        W 9213   1.501   9.249   8.151 -0.0471  0.0565  0.1443
 5150W        W 9214   1.451   4.910   2.132  0.1863  0.0866  0.0395
 5151W        W 9215   8.271   1.384  10.371  0.0356 -0.3553  0.1866
 5152W        W 9216   2.238   9.360   0.076  0.2390  0.1279 -0.1438
 5153W        W 9217   5.827  10.517  10.800 -0.0766 -0.3360  0.1763
 5154W        W 9218   8.315   7.168   9.560 -0.1449  0.0934  0.0245
 5155W        W 9219   3.982   5.616  10.849  0.2271  0.0914  0.1350
 5156W        W 9220   1.640  10.620   7.216  0.0734  0.1218 -0.1697
 5157W        W 9221  10.781   2.766   1.702  0.3726 -0.1389  0.0308
 5158W        W 9222   1.245   0.957   1.244  0.2901 -0.2168 -0.0108
 5159W        W 9223   6.071  10.019   9.413  0.3184 -0.0370 -0.0822
 5160W        W 9224   3.984   5.222   2.858 -0.2260  0.0701  0.0926
 5161W        W 9225   3.540   1.824  10.160  0.0046  0.3792 -0.2321
 5162W        W 9226   6.016   3.647   9.362  0.0485  0.1991  0.2657
 5163W        W 9227   4.181   9.900   1.611  0.2072  0.1763 -0.0710
 5164W        W 9228   7.014   2.632   0.627  0.0319  0.0184 -0.2365
 5165W        W 9229   3.980   7.978  10.696 -0.0156 -0.0739  0.2394
 5166W        W 9230   4.440   0.360   2.274 -0.0185 -0.3286  0.0788
 5167W        W 9231   4.534  10.573  10.319  0.3274  0.1377  0.0546
 5168W        W 9232   5.553   9.679   1.029 -0.1057  0.1873  0.3232
 5169W        W 9233   6.445   1.770   9.049  0.0292 -0.2203  0.0537
 5170W        W 9234   2.054   5.341   0.688  0.1080  0.0887 -0.0833
 5171W        W 9235   9.456   7.044   0.709 -0.2932  0.0917 -0.0592
 5172W        W 9236   5.156   5.891   7.338 -0.0107  0.0083 -0.0551
 5173W        W 9237  10.431   4.151   1.245 -0.1328  0.1065 -0.1500
 5174W        W 9238   4.946   0.355   2.100 -0.1074  0.0964  0.2237
 5175W        W 9239   6.968   0.362   0.340 -0.2270  0.4210 -0.0699
 5176W        W 9240   1.893   6.923   7.826  0.0456  0.0335 -0.1246
 5177W        W 9241   9.025   8.635   8.724  0.0932  0.1839  0.0069
 5178W        W 9242   1.630   6.079   0.851 -0.0060  0.1508 -0.0642
 5179W        W 9243   6.021   3.676   1.572  0.0327 -0.3836  0.5601
 5180W        W 9244   3.262  10.780   9.665 -0.1154  0.0755 -0.2461
 5181W        W 9245   0.342   2.000  10.392 -0.1787  0.3176  0.2592
 5182W        W 9246   9.766   1.184   1.807  0.1637 -0.1071 -0.0822
 5183W        W 9247   9.300   7.419   2.477 -0.3582 -0.1589 -0.0395
 5184W        W 9248   4.465   0.998  10.411  0.0155  0.2597  0.1671
 5185W        W 9249   4.934   1.151   2.438  0.0192  0.0430  0.1504
 5186W        W 9250   6.479   5.448  10.569 -0.0581  0.0030 -0.2522
 5187W        W 9251  10.247   0.967   2.554 -0.2382 -0.0087  0.0365
 5188W        W 9252   5.892   6.097   8.788 -0.5307 -0.1494  0.0527
 5189W        W 9253   0.359   0.795   0.986  0.1871  0.0189  0.2691
 5190W        W 9254   2.845   4.854  10.897 -0.1352 -0.1813 -0.0173
 5191W        W 9255   6.967   4.353  10.050  0.0820 -0.0944  0.1019
 5192W        W 9256  10.451   9.183  10.300  0.2635 -0.0722  0.1394
 5193W        W 9257   2.746  10.390   0.921  0.2685  0.1728  0.1751
 5194W        W 9258   7.600   4.760   7.720 -0.0999  0.4559 -0.0356
 5195W        W 9259   8.128   2.555   2.765  0.1050 -0.0653  0.3549
 5196W        W 9260   8.709   0.118   8.714 -0.1175 -0.1525 -0.1466
 5197W        W 9261   5.413   8.054   2.480  0.0897  0.1997  0.2517
 5198W        W 9262   6.751   2.788   3.339  0.2445  0.2199 -0.0636
 5199W        W 9263   3.334   5.776   1.804  0.1480  0.2955 -0.1634
 5200W        W 9264   0.935   7.408   9.135 -0.1694  0.0634  0.4944
 5201W        W 9265   1.568   6.947   3.656 -0.0063 -0.0930 -0.0957
 5202W        W 9266   7.529   7.500   9.348  0.0652  0.2767  0.1561
 5203W        W 9267   8.087   5.959   0.488  0.1126  0.0703 -0.0173
 5204W        W 9268   9.356   9.066   9.037 -0.0189 -0.1241 -0.1527
 5205W        W 9269   9.872   4.765   3.003  0.1115  0.1854 -0.0569
 5206W        W 9270   8.497   4.665   2.523 -0.2756  0.1232 -0.1522
 5207W        W 9271   7.826   1.385   4.144  0.0548 -0.4112  0.0158
 5208W        W 9272   0.871   5.886   9.039  0.2152 -0.1150  0.0622
 5209W        W 9273   3.717   1.906   2.556 -0.1409 -0.2298 -0.1569
 5210W        W 9274   4.851   0.878   9.154  0.1854 -0.1052  0.3100
 5211W        W 9275   3.288   0.242   0.662 -0.0252 -0.1649 -0.0195
 5212W        W 9276   0.762   3.489   2.290 -0.1257 -0.1405 -0.0467
 5213W        W 9277   0.695   5.763   9.555 -0.2512 -0.0761  0.0346
 5214W        W 9278   0.565   3.968   2.159  0.3007 -0.2893  0.1535
 5215W        W 9279   2.763   5.214   3.161  0.0776 -0.0317  0.3956
 5216W        W 9280   0.800   5.231   0.080 -0.2959 -0.0857  0.1003
 5217W        W 9281   8.787   2.542   7.912 -0.0295  0.0090  0.0845
 5218W        W 9282   4.058   6.725   8.701 -0.0881 -0.0980 -0.3122
 5219W        W 9283   3.239   0.574   2.558  0.0155 -0.1518 -0.0402
 5220W        W 9284   7.435   5.721   7.965  0.1736 -0.1536  0.2965
 5221W        W 9285   4.922   9.076   9.443 -0.4506  0.2645  0.1049
 5222W        W 9286   3.639   2.502   2.659 -0.1087 -0.0432 -0.0392
 5223W        W 9287   5.529   4.571   3.096 -0.4537  0.0142  0.0257
 5224W        W 9288   3.393   1.084   0.511 -0.0954 -0.1625 -0.0912
 5225W        W 9289   5.625   2.254   2.558 -0.1563  0.1647 -0.1545
 5226W        W 9290   7.960   1.472   0.139  0.1252  0.1316 -0.1772
 5227W        W 9291  10.662   2.222   8.451  0.0371  0.1016 -0.0829
 5228W        W 9292   1.768   4.897   2.521  0.0614 -0.1865  0.1425
 5229W        W 9293  10.912   7.907  10.992  0.0465  0.1154  0.1344
 5230W        W 9294   3.543   5.063   1.326  0.3882  0.0341  0.1450
 5231W        W 9295   1.943  10.576   0.916  0.0878  0.2261  0.0373
 5232W        W 9296   2.506   0.657   0.003 -0.2138 -0.1485 -0.0964
 5233W        W 9297   1.516   2.277  10.923 -0.1502 -0.1461  0.1098
 5234W        W 9298  10.137   3.974   0.152  0.0062 -0.0757 -0.1203
 5235W        W 9299   7.204   1.318   2.050 -0.0921 -0.4077  0.0876
 5236W        W 9300  10.383   3.666   9.673 -0.0670  0.0015  0.0993
 5237W        W 9301   8.500   6.077   0.828 -0.2206 -0.1470  0.2057
 5238W        W 9302   6.872   6.916   1.278  0.1092 -0.2296  0.3265
 5239W        W 9303   2.911   9.327   7.118 -0.4167  0.0700 -0.0057
 5240W        W 9304   4.525   9.832   2.742  0.0239  0.0272  0.1931
 5241W        W 9305   6.354   6.885   0.700 -0.1842  0.3182  0.0764
 5242W        W 9306   8.421   3.742   6.614 -0.0738 -0.0644  0.0736
 5243W        W 9307   1.939   4.478   9.636 -0.1507 -0.0742 -0.1101
 5244W        W 9308   7.565   3.152   3.017 -0.2916  0.5101 -0.1078
 5245W        W 9309   5.927   0.568   9.577  0.1174  0.2056  0.2469
 5246W        W 9310   6.829   9.222   8.306 -0.1243 -0.1560 -0.0351
 5247W        W 9311   1.623   7.370   1.553  0.1303  0.2456 -0.0266
 5248W        W 9312   6.468   6.051   2.416  0.4453 -0.1422 -0.0127
 5249W        W 9313   7.912   3.662   9.221  0.1997 -0.0759 -0.3872
 5250W        W 9314   3.857   8.660   0.914  0.1146 -0.2178 -0.0351
 5251W        W 9315   2.638   2.360   1.670  0.0880  0.1056 -0.2839
 5252W        W 9316  10.543   5.355   1.507  0.1757 -0.1208  0.2300
 5253W        W 9317   4.434   3.950   8.020 -0.1277  0.0089  0.0260
 5254W        W 9318   5.909   7.942   8.887 -0.1354  0.1190  0.2202
 5255W        W 9319   9.891  10.152   2.611 -0.0902  0.0312 -0.1738
 5256W        W 9320   2.273   2.717   8.982  0.1194 -0.2006 -0.0813
 5257W        W 9321   3.519   5.096   2.723  0.1423  0.2864 -0.0207
 5258W        W 9322   4.184   7.656   1.932  0.0186  0.0233 -0.2639
 5259W        W 9323   8.396  10.644   9.102 -0.1098  0.3127 -0.2385
 5260W        W 9324   9.282   2.717   9.353  0.1095 -0.1930  0.1750
 5261W        W 9325   1.768   2.793   3.943 -0.0311 -0.0437 -0.0186
 5262W        W 9326   9.671   1.730   9.740 -0.2790 -0.1658  0.3195
 5263W        W 9327   9.296   5.339   2.822  0.1154  0.1877 -0.2300
 5264W        W 9328   7.936   5.543  10.908 -0.3211  0.0265 -0.2472
 5265W        W 9329   5.265   1.724   1.158 -0.1629  0.1701 -0.0050
 5266W        W 9330   6.728   6.105   9.247 -0.0220 -0.3023  0.3018
 5267W        W 9331   8.066   9.739   0.925  0.0046 -0.2431  0.0571
 5268W        W 9332   7.690   8.447   2.157 -0.0738 -0.1043  0.3698
 5269W        W 9333   7.235   8.164   2.456 -0.1800 -0.0888 -0.2348
 5270W        W 9334   1.790   3.400   2.389 -0.2278  0.0544 -0.4284
 5271W        W 9335   7.572   2.214   8.243 -0.0806 -0.2402  0.1814
 5272W        W 9336   0.830   3.858   9.422  0.2724 -0.0222  0.3568
 5273W        W 9337   3.204   1.120   4.032  0.4117  0.1126 -0.3490
 5274W        W 9338   0.979   9.743   2.465  0.0706  0.1629 -0.2339
 5275W        W 9339   0.110   0.707   2.892 -0.1661  0.1122 -0.2447
 5276W        W 9340   8.772   5.164  10.721  0.1213  0.2049  0.1095
 5277W        W 9341  10.083   5.457   2.299 -0.0949  0.1539  0.2403
 5278W        W 9342  10.241   7.821  10.507  0.2038  0.0898 -0.0586
 5279W        W 9343  10.432   7.407   8.728  0.2184 -0.0407 -0.0517
 5280W        W 9344   6.924   2.513   9.453 -0.1403 -0.0973  0.3491
 5281W        W 9345   4.162   3.802  10.304 -0.0476  0.4610  0.1735
 5282W        W 9346   7.691   0.655   2.874  0.0399 -0.0977 -0.0700
 5283W        W 9347   3.695  10.562   1.366 -0.5636  0.1350 -0.4797
 5284W        W 9348   5.693   5.648   8.230 -0.0486  0.2550 -0.0407
 5285W        W 9349   9.663   8.643   6.693  0.2952 -0.0388  0.2279
 5286W        W 9350   6.528   6.808   1.673 -0.2195 -0.1545 -0.0820
 5287W        W 9351   4.719   1.708   0.431  0.1699  0.0200 -0.0511
 5288W        W 9352   4.321   7.911  10.006  0.0715  0.2197  0.1900
 5289W        W 9353   4.514  10.081  10.112 -0.0410  0.3004  0.4231
 5290W        W 9354   1.778   0.653  10.244  0.0143 -0.1218  0.1284
 5291W        W 9355   2.607   1.685   3.562  0.0026  0.2699 -0.0737
 5292W        W 9356   3.078   3.016   8.154  0.0611  0.2050 -0.1925
 5293W        W 9357   1.864   9.846   9.208 -0.2114  0.1022 -0.1137
 5294W        W 9358   6.476   8.450   2.700 -0.0913 -0.1914 -0.0803
 5295W        W 9359   4.791  10.695   0.658  0.1388  0.2008 -0.0500
 5296W        W 9360   4.233   5.692   8.872 -0.2519 -0.0817  0.0708
 5297W        W 9361   0.405   5.084   0.384  0.3125  0.1120 -0.1224
 5298W        W 9362   6.280   7.174   2.466  0.0801 -0.3238 -0.3835
 5299W        W 9363   5.538   2.379   0.979 -0.4942 -0.0396  0.0483
 5300W        W 9364   1.629   6.124   1.459  0.0687  0.3823 -0.0373
 5301W        W 9365   0.631  10.255   7.063 -0.0821 -0.0573 -0.0297
 5302W        W 9366   5.235   7.416   7.754  0.0651  0.0249  0.0592
 5303W        W 9367   2.009   9.693   7.513  0.1612  0.1431  0.0845
 5304W        W 9368   3.668   6.977  10.518  0.0804  0.2276 -0.0002
 5305W        W 9369   4.824  10.166  10.514 -0.0195  0.0778 -0.1888
 5306W        W 9370   5.874   4.623   8.718 -0.3145  0.1129  0.0070
 5307W        W 9371   4.278   8.581   0.628 -0.2461 -0.2947 -0.0999
 5308W        W 9372   4.835   3.406   0.540  0.1001  0.0917 -0.0263
 5309W        W 9373   8.149  10.203   1.226 -0.0692  0.3069  0.1537
 5310W        W 9374   9.403   0.755   1.760 -0.1872 -0.2012  0.0613
 5311W        W 9375   8.889   4.123   2.220  0.2481  0.0035 -0.0398
 5312W        W 9376   1.009  10.354  10.700 -0.2208 -0.0076 -0.2364
 5313W        W 9377   7.211   2.837   1.707 -0.1949 -0.0873  0.3023
 5314W        W 9378   0.817   2.484   9.256  0.1919 -0.0784  0.0198
 5315W        W 9379   7.497   9.317   3.050  0.4225 -0.0226  0.4125
 5316W        W 9380   6.653   7.420  10.025 -0.0759 -0.4436  0.3281
 5317W        W 9381   1.129   3.928   2.265  0.0835  0.2169  0.0150
 5318W        W 9382   3.723   2.655   9.126 -0.3061  0.2205  0.2103
 5319W        W 9383   6.829   7.932   8.256 -0.0641 -0.1524  0.2841
 5320W        W 9384   6.215   9.734   0.141  0.2482 -0.0259  0.0259
 5321W        W 9385   2.254   5.070  10.827 -0.1657 -0.1113 -0.1119
 5322W        W 9386   9.892   8.499   8.752  0.0104  0.0860  0.1753
 5323W        W 9387   2.497   8.495   0.484 -0.2351 -0.0721  0.3016
 5324W        W 9388   9.227   8.110   2.572 -0.2439 -0.0843  0.0034
 5325W        W 9389   0.738   9.376   1.171 -0.1395  0.5081  0.0771
 5326W        W 9390   2.389   2.100   9.354  0.0254  0.0091  0.1844
 5327W        W 9391   1.007   5.498   2.588 -0.1264  0.3452  0.0977
 5328W        W 9392   1.052   2.043   9.639  0.0308 -0.0625 -0.0750
 5329W        W 9393   5.197   0.699   3.260 -0.0046  0.1917  0.0025
 5330W        W 9394   8.842   1.139   0.211 -0.0577 -0.0209  0.0043
 5331W        W 9395   0.106   6.321   3.994  0.1884  0.2802  0.0953
 5332W        W 9396   2.992   1.552   2.207 -0.0935 -0.2689 -0.0093
 5333W        W 9397  10.373   5.851   8.159  0.0443  0.0621  0.1820
 5334W        W 9398   0.343   0.158   1.314 -0.1799  0.0316  0.0186
 5335W        W 9399   1.287   7.618   2.677 -0.0639  0.0668  0.3670
 5336W        W 9400   3.975   3.755   0.625 -0.1037 -0.3821 -0.3886
 5337W        W 9401   1.994   6.037   8.316 -0.2433 -0.0721  0.2516
 5338W        W 9402   1.283   5.766   8.868 -0.1197  0.0768 -0.0911
 5339W        W 9403   2.984   3.264   9.496 -0.0858 -0.0057  0.0019
 5340W        W 9404   2.101   3.028   9.701 -0.1506  0.1254  0.0257
 5341W        W 9405   8.706   3.297   8.083  0.2135  0.2958 -0.2466
 5342W        W 9406   8.840   4.677   1.384  0.1622 -0.2261  0.0228
 5343W        W 9407   7.719   2.253   1.869 -0.1388 -0.1317 -0.1921
 5344W        W 9408   1.229   2.508   9.518  0.0505 -0.0631  0.2194
 5345W        W 9409   3.051   4.967   4.071 -0.0694  0.6107 -0.0714
 5346W        W 9410   0.015   7.790   9.526  0.1702  0.0254 -0.3483
 5347W        W 9411   1.399   5.422  10.669 -0.0956 -0.1193  0.0688
 5348W        W 9412   6.806   8.050   1.015 -0.1303  0.2634  0.0128
 5349W        W 9413   5.825   0.001   0.048  0.1132 -0.1551 -0.0996
 5350W        W 9414   7.135   3.290   1.459  0.1470 -0.1810 -0.0669
 5351W        W 9415   5.436   8.261   2.983  0.0807 -0.2580 -0.0571
 5352W        W 9416  10.307   5.353   8.255  0.1591 -0.0526  0.1167
 5353W        W 9417   7.611   4.771   0.213 -0.2185 -0.2369  0.1366
 5354W        W 9418   5.635   9.555   8.603 -0.1346  0.6346  0.3756
 5355W        W 9419   3.384   5.735   8.682  0.0067 -0.0470 -0.0159
 5356W        W 9420   3.002   3.973   8.163 -0.1106  0.0986  0.0337
 5357W        W 9421   1.654   9.439  10.231 -0.2811  0.0879  0.0442
 5358W        W 9422   7.896   4.012   1.119 -0.0557  0.0946 -0.1228
 5359W        W 9423   8.704   9.839   2.028 -0.0852 -0.0822 -0.1444
 5360W        W 9424   7.889   3.804   8.172 -0.1081 -0.1460  0.0892
 5361W        W 9425   7.743   9.818   8.480  0.1958 -0.0470  0.0661
 5362W        W 9426   5.336   8.319   1.536  0.2160  0.0332  0.0626
 5363W        W 9427   9.746   6.529   8.054  0.0230 -0.0420 -0.1959
 5364W        W 9428   2.302   7.950   8.233  0.1936 -0.1592  0.0671
 5365W        W 9429   6.440   3.053   1.055 -0.1985 -0.2444 -0.0430
 5366W        W 9430   6.529   4.604   2.689 -0.2011  0.2256 -0.0231
 5367W        W 9431   7.748   1.275   8.543  0.1191 -0.1253  0.1309
 5368W        W 9432   9.443  10.683   0.030 -0.3513 -0.0669 -0.2373
 5369W        W 9433   4.245   0.008   0.554  0.0608  0.5102  0.0317
 5370W        W 9434   6.596   6.041   0.273 -0.2298 -0.1723  0.1391
 5371W        W 9435   3.438   1.453   2.532 -0.0931  0.2326  0.1655
 5372W        W 9436   8.620   4.616  10.112 -0.1209  0.1919  0.0773
 5373W        W 9437   6.621   9.713   8.454 -0.0272  0.0110 -0.3246
 5374W        W 9438   8.325   8.939   2.494 -0.2854  0.1373 -0.0157
 5375W        W 9439   0.470  10.367   9.315 -0.2127  0.1381  0.1286
 5376W        W 9440   4.013   9.832  10.246  0.4575 -0.0551  0.0190
 5377W        W 9441   6.764   8.827   9.188  0.0283 -0.3164 -0.3476
 5378W        W 9442   4.839   1.249   8.335  0.0279 -0.1530  0.1149
 5379W        W 9443   6.811   3.170  10.598 -0.1571  0.2642 -0.2008
 5380W        W 9444   7.074   1.769   0.779  0.0703 -0.4287  0.1234
 5381W        W 9445   5.055   8.352   8.318 -0.2031 -0.2161 -0.0782
 5382W        W 9446  10.496  10.239   0.927 -0.2348 -0.0702 -0.0507
 5383W        W 9447   8.378   6.909   0.222 -0.1180 -0.2374 -0.0804
 5384W        W 9448   9.627   1.077  10.674 -0.1604  0.0331 -0.2228
 5385W        W 9449   9.866   5.464  10.882 -0.2637 -0.0632  0.0260
 5386W        W 9450   3.494  10.466   0.086 -0.0008  0.3207  0.3226
 5387W        W 9451   1.793   5.494   3.828  0.3695 -0.1498 -0.4176
 5388W        W 9452   2.079   7.833  11.017 -0.0477  0.0087  0.0535
 5389W        W 9453   9.202   5.747  10.572  0.1125 -0.1166 -0.1527
 5390W        W 9454   8.497   5.661   0.552 -0.0786 -0.1514 -0.2184
 5391W        W 9455   6.409   6.958  10.762  0.1323  0.0419 -0.1238
 5392W        W 9456   6.462   6.334   1.900  0.2186  0.0563  0.3135
 5393W        W 9457   1.997  10.874   8.518  0.0984 -0.1005 -0.2965
 5394W        W 9458   7.044   7.418   2.789 -0.1943 -0.1661 -0.4282
 5395W        W 9459   8.501   7.140   2.032  0.3020 -0.0508  0.0151
 5396W        W 9460   6.498   9.110   0.610  0.0624 -0.2019 -0.0710
 5397W        W 9461   0.261   6.081   1.061  0.4208 -0.3789  0.1229
 5398W        W 9462   6.468   1.901   8.342 -0.0744 -0.0385 -0.0554
 5399W        W 9463   4.649   1.700   2.865  0.0404  0.0336 -0.0612
 5400W        W 9464   9.918  10.112   2.080 -0.1587  0.0192  0.0462
 5401W        W 9465   8.149   7.112   8.657  0.1746 -0.0090  0.0984
 5402W        W 9466   7.040   9.857   0.773  0.0530  0.0772 -0.3139
 5403W        W 9467   5.156   6.266   8.142 -0.2773 -0.1936 -0.0782
 5404W        W 9468   9.940   7.535   8.762  0.1814  0.1574 -0.2327
 5405W        W 9469   3.898   4.076   1.050 -0.1091 -0.1832 -0.1958
 5406W        W 9470   9.221   2.227   9.653  0.2561 -0.1806  0.1693
 5407W        W 9471   7.884   1.483   7.833 -0.0915 -0.1252  0.3341
 5408W        W 9472   7.884   7.654   2.738 -0.1792  0.1829  0.0406
 5409W        W 9473   5.781   2.392   8.594  0.6108  0.2035 -0.2008
 5410W        W 9474   0.654   8.063   2.328  0.2640  0.0095 -0.1517
 5411W        W 9475   9.318   3.172   9.124  0.0040  0.1678 -0.0798
 5412W        W 9476   5.852   1.060   3.415 -0.0150 -0.3021 -0.2293
 5413W        W 9477   5.138   0.381   9.643 -0.0670 -0.3674 -0.0064
 5414W        W 9478   0.193   2.023   9.656 -0.2582 -0.3793  0.3713
 5415W        W 9479   6.523  10.269   8.251  0.3093 -0.0189 -0.2049
 5416W        W 9480   4.847   5.001  10.824  0.1937 -0.1406  0.1781
 5417W        W 9481   9.782   6.009   2.041 -0.0416  0.3201  0.0945
 5418W        W 9482   8.546   1.565   3.006  0.2588  0.0391 -0.1570
 5419W        W 9483   6.116   3.707   2.445  0.2414  0.0435 -0.0083
 5420W        W 9484   8.113   4.747   0.987 -0.2373  0.0001 -0.0052
 5421W        W 9485   7.294   4.630   7.295  0.4339 -0.4088 -0.1559
 5422W        W 9486   2.802  10.658   9.827 -0.1069 -0.0560  0.0311
 5423W        W 9487  10.880   5.759  10.728  0.0292 -0.0412 -0.0078
 5424W        W 9488   5.883   8.989   9.946  0.1319  0.0589  0.1070
 5425W        W 9489   8.536   2.914  10.843 -0.2252 -0.1562  0.2450
 5426W        W 9490   9.319   2.713   1.443  0.1729  0.0239 -0.0710
 5427W        W 9491   2.567   4.923   8.883  0.0015 -0.0330 -0.0517
 5428W        W 9492   4.819   2.858  10.804 -0.1568  0.1329 -0.2390
 5429W        W 9493   8.215   4.128   8.003 -0.2876  0.0762 -0.1599
 5430W        W 9494   2.931   1.046   8.548 -0.0765 -0.1264  0.1651
 5431W        W 9495   5.908   6.952   8.113 -0.3204 -0.0459 -0.0820
 5432W        W 9496   9.296   4.957   1.909  0.0447  0.1065 -0.4543
 5433W        W 9497   5.320   6.193   0.405  0.1832 -0.0829  0.0732
 5434W        W 9498   4.418   9.020  10.294 -0.3666  0.1274 -0.0203
 5435W        W 9499   0.793   9.902   1.162  0.0937  0.1221  0.0751
 5436W        W 9500   0.246   1.305   1.208  0.0370 -0.0013  0.0302
 5437W        W 9501   6.943   9.882   2.412 -0.0040 -0.2138  0.1905
 5438W        W 9502   2.660   1.691   9.488 -0.1906 -0.1908  0.0975
 5439W        W 9503   2.545   2.278   0.568 -0.0811  0.0378 -0.1358
 5440W        W 9504   6.979   7.549   8.713 -0.0938 -0.0630  0.1591
 5441W        W 9505   6.060  10.726   1.455  0.0342  0.0168 -0.0572
 5442W        W 9506   6.135   1.101   3.806 -0.1236  0.1957  0.2053
 5443W        W 9507   9.110   7.876   0.403 -0.4182 -0.2157 -0.1490
 5444W        W 9508   7.430   3.559   2.756  0.0177  0.1464  0.0981
 5445W        W 9509   2.758  10.060   9.768 -0.1324 -0.3196 -0.0607
 5446W        W 9510   2.162  10.776   3.302 -0.1507 -0.1180  0.0389
 5447W        W 9511   2.242   9.480   1.935 -0.4730 -0.1866 -0.0067
 5448W        W 9512  10.175   6.921   2.549  0.2846 -0.1505  0.1257
 5449W        W 9513   9.704   8.327   2.563 -0.3359 -0.2508  0.0489
 5450W        W 9514   3.643   1.353  10.445  0.0038  0.1870 -0.1242
 5451W        W 9515  10.331   9.851   9.330  0.0301 -0.0386 -0.0053
 5452W        W 9516   4.531   3.748   8.951 -0.1129  0.2371 -0.2837
 5453W        W 9517   4.980   0.269  10.959  0.0679 -0.0840  0.0971
 5454W        W 9518   6.355   3.351   0.301 -0.2116 -0.2056  0.0549
 5455W        W 9519  10.545   7.968   8.591  0.1973 -0.2018 -0.2106
 5456W        W 9520   9.363   3.905   8.476  0.2485  0.1610 -0.3279
 5457W        W 9521   1.797   3.307   2.868 -0.1701  0.0194 -0.1702
 5458W        W 9522   8.484  10.786  10.577 -0.1212  0.0774  0.0703
 5459W        W 9523   9.746   0.602  10.953  0.4139 -0.0510 -0.2094
 5460W        W 9524   1.891   9.739   9.862  0.2800 -0.0134  0.0559
 5461W        W 9525   6.662   0.036  10.143 -0.2002  0.1127 -0.1037
 5462W        W 9526   5.600   4.609  10.300 -0.1028 -0.1153  0.0462
 5463W        W 9527   0.329   1.576   2.027  0.0992 -0.0674 -0.0611
 5464W        W 9528  10.108   8.866   2.695  0.2009  0.0102 -0.2689
 5465W        W 9529   3.011   8.367   8.638 -0.0664 -0.0869  0.1370
 5466W        W 9530   3.528   4.311  10.572 -0.2931 -0.0907  0.0773
 5467W        W 9531  10.307   3.826  10.523 -0.1834 -0.0259 -0.1962
 5468W        W 9532   4.873   4.692   7.084 -0.2221 -0.1764  0.1092
 5469W        W 9533   6.588   7.394   8.477  0.1392 -0.5751 -0.0735
 5470W        W 9534   1.175   6.148   2.875 -0.5307  0.0860  0.0783
 5471W        W 9535   6.022   4.191   9.136  0.0626 -0.0572 -0.1605
 5472W        W 9536   0.009   7.479   2.394  0.0310  0.0618 -0.2377
 5473W        W 9537   6.081   5.680   0.148 -0.0624  0.2218 -0.3003
 5474W        W 9538   3.283   0.144   8.027  0.3444  0.0734  0.1577
 5475W        W 9539   5.171   9.342  10.999 -0.0691 -0.1097  0.2009
 5476W        W 9540   9.861   8.319   0.271 -0.1396  0.3033  0.0408
 5477W        W 9541   9.117   4.405   9.443 -0.0373  0.1090  0.0333
 5478W        W 9542   5.651   5.617   2.241  0.0733 -0.0902  0.1179
 5479W        W 9543   6.782   1.827   3.231  0.0866 -0.3002 -0.2292
 5480W        W 9544   7.327   4.465   1.367 -0.0753  0.0494 -0.0370
 5481W        W 9545   9.504   8.013   0.723  0.1535 -0.0698 -0.2245
 5482W        W 9546   3.393   6.622   1.967 -0.0017 -0.0070 -0.1044
 5483W        W 9547   7.309   5.598   1.285  0.3779 -0.4423  0.4450
 5484W        W 9548  10.339   9.935   7.778  0.2417 -0.0722  0.1048
 5485W        W 9549   0.609   5.026  10.607 -0.1707 -0.0182 -0.1072
 5486W        W 9550   1.471   8.233   9.482 -0.1575 -0.0011  0.0816
 5487W        W 9551   6.378   7.639   0.085  0.0664 -0.1186  0.0964
 5488W        W 9552   2.982   2.544   0.529  0.1570 -0.0970  0.0618
 5489W        W 9553   6.881   6.450   8.817  0.1424 -0.0702  0.3611
 5490W        W 9554   3.642  10.441   9.429  0.0066  0.2903  0.2224
 5491W        W 9555   6.362   0.694   8.878 -0.0882  0.1761 -0.0729
 5492W        W 9556   9.723   8.024  10.484  0.0862  0.4491  0.1703
 5493W        W 9557   1.735   6.582   1.073 -0.0024 -0.0007  0.0760
 5494W        W 9558   2.679   6.268   1.640 -0.2768 -0.1448 -0.4406
 5495W        W 9559   7.531   0.137   2.970  0.0745  0.1174 -0.0852
 5496W        W 9560   8.929   4.667   2.211  0.2548 -0.0526  0.1574
 5497W        W 9561   6.306   5.857   0.670 -0.3907  0.2469 -0.1258
 5498W        W 9562   4.918   6.755   8.129 -0.0056 -0.0911 -0.3025
 5499W        W 9563   9.962   3.330  10.375 -0.0437 -0.0033 -0.3163
 5500W        W 9564  10.576   8.787   2.413 -0.2242  0.0019  0.0876
 5501W        W 9565   6.458   3.442   9.419 -0.1833 -0.0287 -0.1245
 5502W        W 9566   5.138   9.599   2.221  0.0142  0.1192  0.2768
 5503W        W 9567   1.216  10.557   1.852  0.0246  0.1036 -0.1252
 5504W        W 9568   5.257  10.460   1.355  0.1433  0.1696 -0.1835
 5505W        W 9569   0.269   1.931   8.421 -0.1698  0.0660 -0.1342
 5506W        W 9570   9.688   0.945   3.251 -0.0150  0.2151  0.1605
 5507W        W 9571   3.872   4.435   2.206  0.3546  0.2424 -0.0371
 5508W        W 9572   2.295   5.617   2.390  0.0732 -0.3213  0.2779
 5509W        W 9573   2.086   0.466   6.987 -0.3500 -0.0311 -0.3550
 5510W        W 9574   9.991  10.548   8.125 -0.2047  0.2870 -0.1256
 5511W        W 9575   6.551   9.836   9.323  0.0181  0.4161  0.2137
 5512W        W 9576   4.584   6.031   9.148  0.3580  0.0715  0.0898
 5513W        W 9577  10.475   6.551   9.207  0.0750  0.0834  0.2563
 5514W        W 9578   5.234   4.921   7.460  0.3753 -0.1539 -0.3874
 5515W        W 9579   1.165   4.102   8.045  0.0965  0.2602 -0.3441
 5516W        W 9580   6.737   0.573   1.208 -0.1592 -0.0832 -0.1864
 5517W        W 9581   5.882  10.700   0.957 -0.2014 -0.2240 -0.2003
 5518W        W 9582   9.370   9.477   9.383  0.0251 -0.0724  0.0699
 5519W        W 9583  10.093   8.958   8.938 -0.1652 -0.0364 -0.1904
 5520W        W 9584   5.052   4.952   8.425 -0.1217  0.0258  0.0263
 5521W        W 9585  10.428   3.863   9.224 -0.1372  0.3661  0.3446
 5522W        W 9586   1.992   1.340   2.817  0.1070  0.0684  0.1216
 5523W        W 9587   8.392   7.486   3.753 -0.0569 -0.0387  0.1627
 5524W        W 9588   3.805   3.627   2.456  0.1487  0.2472  0.0875
 5525W        W 9589   7.395   4.320  10.355  0.0485 -0.0529 -0.1101
 5526W        W 9590   6.763   9.976   9.785  0.0904 -0.1904  0.0911
 5527W        W 9591   7.210   5.830   0.821  0.0560 -0.0722 -0.0313
 5528W        W 9592   4.845   7.460   7.440  0.0850  0.1718 -0.1560
 5529W        W 9593   0.352   7.732   1.565 -0.2172  0.1115 -0.1029
 5530W        W 9594   1.044   2.153   2.156 -0.0946  0.0622  0.4026
 5531W        W 9595   7.649   9.699  10.014 -0.0974  0.0701 -0.1010
 5532W        W 9596   2.292   3.845   1.839 -0.2848 -0.3691 -0.0307
 5533W        W 9597  10.883   5.380   9.195 -0.3349 -0.1490  0.3918
 5534W        W 9598   8.897   3.237  10.809  0.2743 -0.2983  0.2379
 5535W        W 9599   1.656   7.436   1.032 -0.1455  0.1221 -0.2755
 5536W        W 9600   4.974   7.858   2.764 -0.0272 -0.1856  0.0272
 5537W        W 9601   0.085  10.680   9.215  0.2196 -0.3514  0.1315
 5538W        W 9602   0.795   4.939   0.614 -0.3779  0.0313  0.1730
 5539W        W 9603   7.682   1.961   8.679  0.2065 -0.0152  0.0938
 5540W        W 9604   7.932  10.849   9.850  0.2339 -0.2637  0.2315
 5541W        W 9605   1.152   4.338   3.573 -0.2761  0.3277 -0.2700
 5542W        W 9606   8.694  10.409   2.567 -0.0437 -0.0360  0.4078
 5543W        W 9607   8.674   7.484   9.400 -0.2924  0.1840  0.1008
 5544W        W 9608   3.527   7.553   8.924 -0.2561  0.0076  0.1772
 5545W        W 9609   2.061   5.717   1.951 -0.1003  0.2377 -0.2990
 5546W        W 9610   3.573   8.854   9.519  0.1466 -0.0928  0.0840
 5547W        W 9611   9.415   1.726   8.825 -0.2600 -0.1905 -0.2079
 5548W        W 9612   8.603   2.638   8.876 -0.0589  0.1202 -0.0616
 5549W        W 9613   4.071   8.116   0.677  0.0885  0.0835 -0.0279
 5550W        W 9614   8.306   3.004   7.825 -0.2812 -0.0434 -0.1655
 5551W        W 9615   1.867   5.126   1.227 -0.1379 -0.4424  0.0329
 5552W        W 9616   6.635   9.021   2.711  0.1206  0.2807  0.0526
 5553W        W 9617   7.013  10.240   8.100 -0.0553 -0.2848 -0.1173
 5554W        W 9618   0.558  10.415   1.257  0.2491  0.1339  0.1322
 5555W        W 9619   8.639   9.196   1.994 -0.0721 -0.0368 -0.2386
 5556W        W 9620   7.444   4.914   9.511  0.2990  0.2503  0.0431
 5557W        W 9621   1.249   8.017   1.053  0.0783 -0.0900 -0.2243
 5558W        W 9622   6.529   3.197  10.062 -0.1952  0.2502  0.0101
 5559W        W 9623   0.955   3.620   1.821  0.3030 -0.2150  0.0285
 5560W        W 9624   2.908   9.755   3.275  0.4982  0.1762 -0.1365
 5561W        W 9625   7.324   9.217   9.558  0.1824 -0.0652  0.0433
 5562W        W 9626  10.573   8.891   7.190 -0.1574  0.0691 -0.1471
 5563W        W 9627  10.606   1.117   3.359  0.0521  0.1028 -0.2151
 5564W        W 9628   3.096   9.243   9.679  0.0203  0.2782 -0.0610
 5565W        W 9629   2.535   8.304   2.607  0.2270 -0.1838 -0.2802
 5566W        W 9630   6.165   7.391   7.784 -0.2367  0.0457 -0.2523
 5567W        W 9631   3.285   3.412   7.563  0.0280 -0.1395 -0.0918
 5568W        W 9632   2.631   1.023   2.140 -0.5095  0.2463 -0.1701
 5569W        W 9633   8.248   2.142   1.699  0.1921  0.2813 -0.2598
 5570W        W 9634   9.391   3.342   9.564 -0.2181  0.1084 -0.2151
 5571W        W 9635   6.035   5.572   9.669 -0.0341  0.0993  0.0697
 5572W        W 9636   7.895   4.505   8.604  0.1713  0.1738  0.0119
 5573W        W 9637   9.109   6.145  10.931  0.4651  0.1563  0.0107
 5574W        W 9638   9.466   2.971   3.051  0.0511  0.0218 -0.0187
 5575W        W 9639   8.795  10.582   8.840 -0.2412  0.2638 -0.1391
 5576W        W 9640  10.566   0.955   1.248  0.0978 -0.0714  0.2893
 5577W        W 9641   9.480   9.906  10.477 -0.0591  0.2188 -0.2184
 5578W        W 9642  10.667   3.098   1.380 -0.3075 -0.1083  0.1128
 5579W        W 9643   6.895   0.075   2.326 -0.0244 -0.1015  0.1633
 5580W        W 9644   9.783   2.361  10.871 -0.0012 -0.1371 -0.1271
 5581W        W 9645   5.689   1.168   9.353 -0.2202  0.1000 -0.2133
 5582W        W 9646   2.576   7.743  10.901  0.0305 -0.0215 -0.0433
 5583W        W 9647  10.726   1.640   2.723  0.1335  0.1727 -0.0069
 5584W        W 9648   6.827   8.121   0.433 -0.2583 -0.0891 -0.0628
 5585W        W 9649   4.393   7.761   0.391  0.0037  0.2350  0.2623
 5586W        W 9650   8.224   0.393   2.267 -0.1993 -0.1387  0.0390
 5587W        W 9651   8.163   0.285  10.844 -0.2865  0.0294 -0.0729
 5588W        W 9652   7.224   8.975   1.850  0.3545  0.3022 -0.2850
 5589W        W 9653   1.174   2.631   3.366 -0.2474  0.2032  0.0164
 5590W        W 9654   1.843   8.259   3.229 -0.0340  0.1426 -0.0654
 5591W        W 9655   5.770   7.028  10.504 -0.0946 -0.1481  0.1450
 5592W        W 9656  10.445   1.298  10.094  0.5982  0.0012  0.2481
 5593W        W 9657   0.933   4.731   3.230 -0.0990 -0.1929 -0.1781
 5594W        W 9658   8.472   1.111   0.833 -0.0162 -0.2780  0.0938
 5595W        W 9659   2.994   3.060   7.361  0.0204  0.0956  0.4254
 5596W        W 9660   9.454   1.429   2.113 -0.0381  0.1636 -0.1342
 5597W        W 9661   1.616   3.647   0.158 -0.4173  0.1052 -0.0188
 5598W        W 9662   3.874   4.917  10.310  0.2177  0.2354  0.3464
 5599W        W 9663   0.459  10.646   3.126  0.0864 -0.1383 -0.0061
 5600W        W 9664   8.288   0.398   0.292 -0.1719 -0.0764  0.0503
 5601W        W 9665   1.690   4.652   9.072  0.0539  0.0528  0.0173
 5602W        W 9666   8.983   6.534   0.239  0.0183  0.0854  0.0205
 5603W        W 9667   0.490   0.423   7.097  0.0668  0.2484 -0.0687
 5604W        W 9668   0.115   4.966   9.406 -0.2297  0.0267 -0.1658
 5605W        W 9669   5.216   5.402   2.884  0.1490  0.3300  0.0978
 5606W        W 9670   0.938   8.821   0.484 -0.1750  0.0846 -0.2150
 5607W        W 9671   2.891   9.970   9.194  0.1653 -0.0708 -0.0604
 5608W        W 9672   5.261   0.964  10.994 -0.0726  0.2082 -0.2404
 5609W        W 9673   5.143   3.972   1.962  0.1105 -0.0952 -0.0154
 5610W        W 9674   6.502   4.226   1.657 -0.0149  0.1490  0.2497
 5611W        W 9675   2.661   3.871   2.950  0.2666  0.0546 -0.5265
 5612W        W 9676  10.191   6.009   1.004 -0.1529  0.0163 -0.0182
 5613W        W 9677   2.672   5.144   1.605  0.2461  0.2824  0.0119
 5614W        W 9678   0.020   0.962   1.568  0.0380  0.3012 -0.1110
 5615W        W 9679   5.451   6.581   0.794  0.1688  0.0789  0.1961
 5616W        W 9680   6.730   7.419   7.424 -0.0697  0.0586  0.0762
 5617W        W 9681   2.444   9.518   3.366 -0.1734  0.0442 -0.2545
 5618W        W 9682   0.190   9.416   1.209 -0.0771 -0.0200 -0.0960
 5619W        W 9683   7.750   3.851   3.385 -0.3362 -0.0541  0.1323
 5620W        W 9684  10.455   4.166   2.122 -0.0316  0.1085 -0.0026
 5621W        W 9685   5.834   4.704   1.115 -0.0358 -0.2817  0.1560
 5622W        W 9686   4.456   8.179   2.592 -0.0186  0.0135 -0.3954
 5623W        W 9687   0.434   0.612   1.519 -0.0277 -0.1732 -0.1805
 5624W        W 9688   2.802  10.462  10.497  0.1157  0.1128 -0.2903
 5625W        W 9689   3.443   0.528   0.221 -0.0990 -0.2095 -0.1191
 5626W        W 9690   0.356   1.721   2.730 -0.2059  0.2394  0.0391
 5627W        W 9691   2.799  10.750   8.955  0.3103  0.2335 -0.4768
 5628W        W 9692  10.021   8.054   3.014 -0.2741 -0.1730  0.2297
 5629W        W 9693   6.240   0.644   1.321  0.4644  0.1124  0.1105
 5630W        W 9694  10.435   0.961   9.347 -0.2409 -0.0824 -0.4555
 5631W        W 9695   9.924   8.515   8.271 -0.1049  0.1259 -0.1747
 5632W        W 9696   4.992   9.942   2.570 -0.1434  0.2143 -0.1975
 5633W        W 9697   6.317   9.656   7.615  0.0274  0.0640  0.0032
 5634W        W 9698   9.105  10.520   0.929  0.1367 -0.0260  0.1709
 5635W        W 9699   5.386   7.259   0.439  0.1255 -0.1572 -0.1541
 5636W        W 9700   2.064   6.059  10.497  0.0155  0.0045  0.0652
 5637W        W 9701   6.372   3.414   2.772  0.3103 -0.2928 -0.1196
 5638W        W 9702   7.104   0.780   2.892 -0.1602  0.0223 -0.0295
 5639W        W 9703  10.771   1.028   9.706 -0.0874  0.0387 -0.2687
 5640W        W 9704   9.293   0.312   0.857  0.1847  0.0742  0.0814
 5641W        W 9705   8.865   4.917   8.570  0.1371 -0.0425  0.0604
 5642W        W 9706   0.263   1.508   8.791 -0.1552 -0.0295 -0.0828
 5643W        W 9707   0.897   7.263   2.900  0.0112 -0.0339 -0.0059
 5644W        W 9708  10.237   4.973   8.580 -0.1648  0.0874  0.0131
 5645W        W 9709   8.860   4.316   2.641  0.1317 -0.1702  0.2575
 5646W        W 9710   8.879   9.950  10.586  0.2029 -0.0631  0.1884
 5647W        W 9711   6.103   0.807   2.928 -0.0263  0.0790  0.0352
 5648W        W 9712   0.544   2.603  10.704 -0.1450  0.2698 -0.2204
 5649W        W 9713   5.414  10.094  10.182  0.1478 -0.0832 -0.1468
 5650W        W 9714   0.989   4.409   9.800 -0.1923 -0.1180 -0.2354
 5651W        W 9715   1.685  10.647   3.730  0.3960  0.1615  0.3419
 5652W        W 9716   7.401   2.163   7.759  0.1222  0.1109  0.1187
 5653W        W 9717   3.772   1.381   2.198 -0.0921 -0.1381  0.1163
 5654W        W 9718   0.061   0.672  10.668 -0.0459 -0.0030  0.1074
 5655W        W 9719   1.426   3.371   0.641 -0.1927  0.1001 -0.1661
 5656W        W 9720   9.804   9.399   8.956  0.0616 -0.3328  0.0412
 5657W        W 9721   9.805   2.450   9.644 -0.1904 -0.1236 -0.0431
 5658W        W 9722   2.790   6.457   2.193 -0.1279 -0.1043 -0.0073
 5659W        W 9723   8.933   6.404   3.034  0.0077 -0.0292  0.0906
 5660W        W 9724   2.897   0.998   0.804  0.3681  0.0502  0.2694
 5661W        W 9725  10.811   7.573   0.348 -0.0935 -0.0317  0.2728
 5662W        W 9726   4.278   2.125   1.433  0.0826 -0.2336  0.0512
 5663W        W 9727   6.174   4.744   8.352  0.2060 -0.2289  0.0028
 5664W        W 9728   6.033   8.443   3.010  0.1415  0.4475 -0.3394
 5665W        W 9729   3.512   1.126   0.051 -0.1442 -0.0109 -0.0523
 5666W        W 9730   2.984   1.163   0.306  0.0737  0.0285  0.2268
 5667W        W 9731   2.137   6.896   3.567 -0.0394  0.0579 -0.1993
 5668W        W 9732   3.804   2.980  10.540 -0.2006  0.1331  0.0016
 5669W        W 9733   0.518  10.180   8.473 -0.2765 -0.1904 -0.1494
 5670W        W 9734   9.035   7.112   9.267 -0.2083  0.0628 -0.2388
 5671W        W 9735   5.737   0.269   0.934  0.0160 -0.0260 -0.3169
 5672W        W 9736   9.263   4.358   0.845  0.0326  0.3289  0.1518
 5673W        W 9737   7.729   0.637  10.274  0.2753  0.1398 -0.0011
 5674W        W 9738   5.013   8.966   3.951  0.0190  0.3739  0.3464
 5675W        W 9739   2.090   5.630   7.893  0.2357  0.1191 -0.0126
 5676W        W 9740   4.583   6.843   0.229 -0.6304 -0.0418 -0.0982
 5677W        W 9741   8.847   9.466   0.817 -0.1667  0.0435 -0.0163
 5678W        W 9742   0.087   2.282   0.996 -0.0013  0.0923 -0.1673
 5679W        W 9743   3.025   9.961   1.598  0.1154  0.0287  0.1168
 5680W        W 9744   2.506   3.916   8.269  0.2112  0.5849  0.3531
 5681W        W 9745   2.906  10.885   3.287  0.1023 -0.0520 -0.0883
 5682W        W 9746   9.993   9.596   7.601  0.4094 -0.0163 -0.0071
 5683W        W 9747   3.479   3.228   9.571 -0.1780  0.0294 -0.2842
 5684W        W 9748   9.776   7.617   2.912 -0.0443 -0.2241 -0.0151
 5685W        W 9749   0.437   0.201   4.147 -0.1114  0.1198  0.3676
 5686W        W 9750   6.773  10.809   9.664 -0.0288 -0.0116  0.3483
 5687W        W 9751   8.844   4.308  10.398 -0.2215  0.2468 -0.2574
 5688W        W 9752   8.521  10.026   8.085 -0.1547  0.1676  0.1800
 5689W        W 9753   3.177   8.474  10.731 -0.2511 -0.2815  0.2221
 5690W        W 9754   7.595   3.534   1.290 -0.2543  0.0197 -0.1448
 5691W        W 9755   9.545   4.607   9.051  0.2070 -0.1293  0.1656
 5692W        W 9756   5.322   4.461   1.948 -0.0202  0.0459  0.1607
 5693W        W 9757   1.261   0.816   2.936 -0.0277 -0.0637  0.2063
 5694W        W 9758   8.096   0.919   1.050  0.4048  0.2705  0.0480
 5695W        W 9759   7.621   1.056   3.840 -0.2631 -0.2377  0.0705
 5696W        W 9760   7.631   2.691  10.696  0.2851  0.0161  0.0984
 5697W        W 9761   4.962   0.126   9.166 -0.1272 -0.2013  0.2627
 5698W        W 9762   8.880   7.427   7.713  0.4239  0.2405  0.0597
 5699W        W 9763   0.800   2.676  10.287 -0.2634  0.2007 -0.0511
 5700W        W 9764   7.702   9.861   7.977 -0.1713 -0.0118  0.1596
 5701W        W 9765   6.405   6.050   7.436  0.0632  0.0548  0.2150
 5702W        W 9766   3.432   2.776   2.145  0.0476  0.0193 -0.0311
 5703W        W 9767   3.161   0.127   7.565  0.2209 -0.3100 -0.2374
 5704W        W 9768   5.131   2.872   8.133  0.0672 -0.3964  0.3349
 5705W        W 9769   9.507   4.080   9.372 -0.4245  0.1914 -0.0746
 5706W        W 9770  10.392   9.885   1.313  0.0859 -0.1725  0.4798
 5707W        W 9771   9.556   5.507   2.161  0.0221  0.0424  0.0209
 5708W        W 9772   1.291   0.200  10.351  0.1510 -0.1700 -0.1799
 5709W        W 9773   1.186   1.393   0.091  0.0941  0.0801  0.0794
 5710W        W 9774   6.025   8.311   1.581 -0.0285 -0.0975 -0.0892
 5711W        W 9775   9.562   7.416   2.007  0.0494 -0.0715 -0.0644
 5712W        W 9776   7.113   1.569   9.441  0.3812  0.1417  0.0209
 5713W        W 9777   1.308   2.957  10.330 -0.1566  0.0245  0.0126
 5714W        W 9778   0.682   5.400   8.008  0.1302  0.2487 -0.2426
 5715W        W 9779   9.914   8.890   0.092 -0.0903 -0.0478 -0.0210
 5716W        W 9780   4.633   0.463   9.399 -0.2118 -0.0239  0.4581
 5717W        W 9781   3.930   8.533   0.293  0.3206 -0.1577  0.0903
 5718W        W 9782  10.126   2.751   1.075 -0.2579 -0.0358  0.1076
 5719W        W 9783   1.983   2.900   8.593  0.2520 -0.1106 -0.0987
 5720W        W 9784   5.173   1.078   0.462 -0.1446  0.1736 -0.1271
 5721W        W 9785   7.158  10.642   9.896 -0.0680  0.3245  0.0291
 5722W        W 9786   3.823   1.441   0.908  0.1953  0.1336  0.1198
 5723W        W 9787   5.414   8.594  10.696  0.1133 -0.2187  0.0126
 5724W        W 9788   7.315   1.649   8.439  0.1298 -0.4160 -0.0635
 5725W        W 9789   7.426   3.950  10.769  0.0409  0.0568 -0.0444
 5726W        W 9790   8.493   9.551   7.708  0.2966 -0.2873  0.1640
 5727W        W 9791   9.204   8.715   0.060 -0.0091  0.0281  0.0450
 5728W        W 9792   9.216   1.118  10.384  0.1107  0.0390  0.0312
 5729W        W 9793   5.387   8.055   8.643  0.1162 -0.2070 -0.0034
 5730W        W 9794   9.580  10.354   9.843  0.0050 -0.3288 -0.0258
 5731W        W 9795   9.858   7.614  10.719  0.0312  0.0399 -0.1241
 5732W        W 9796   5.490   6.365  10.981  0.0603 -0.0117  0.0180
 5733W        W 9797   6.809   5.672   8.040  0.2557  0.1932 -0.0304
 5734W        W 9798   5.352   6.232   8.750 -0.3646 -0.2298 -0.0590
 5735W        W 9799   2.246   5.910   8.860 -0.0608  0.0772 -0.1912
 5736W        W 9800   8.741   8.471   0.210  0.1009  0.1109 -0.1242
 5737W        W 9801  10.687   8.449   0.075  0.1469  0.0402 -0.1724
 5738W        W 9802   1.879  10.036  10.760  0.2501 -0.2210 -0.0429
 5739W        W 9803   7.845   9.850   2.665 -0.0259 -0.0926 -0.0661
 5740W        W 9804   8.183   9.164   1.530 -0.0722  0.0287 -0.0481
 5741W        W 9805   0.476   2.370   3.424  0.2174 -0.1801  0.2367
 5742W        W 9806   7.174   1.326   0.833  0.1119 -0.0206  0.1096
 5743W        W 9807   9.204   2.695   8.840  0.2781  0.0513  0.4025
 5744W        W 9808   9.162   6.821   2.796 -0.1733 -0.2431 -0.2094
 5745W        W 9809   7.820   0.267   2.571  0.1987  0.1465  0.3752
 5746W        W 9810   1.103   5.811   7.188  0.3765 -0.2652  0.1474
 5747W        W 9811   4.723   7.037  10.062  0.3143 -0.0659 -0.2569
 5748W        W 9812   6.451  10.386   3.657 -0.2425  0.0582 -0.0983
 5749W        W 9813  10.353   9.613  10.953 -0.3154  0.1412 -0.2551
 5750W        W 9814   3.175   3.700   8.565  0.2268 -0.5110  0.2643
 5751W        W 9815   2.203   2.028  10.694  0.0111 -0.1482  0.3184
 5752W        W 9816   2.954   2.433   0.051 -0.3427 -0.0414 -0.4108
 5753W        W 9817   1.132   4.577   3.974  0.0250  0.1317  0.0465
 5754W        W 9818   3.428   5.760   8.142 -0.5823  0.0702  0.0068
 5755W        W 9819   7.263  10.709   8.076 -0.1352 -0.1280  0.3909
 5756W        W 9820   8.333   9.676  10.697 -0.0059 -0.0148 -0.3532
 5757W        W 9821   1.508   5.987   9.284  0.2634 -0.1741  0.1792
 5758W        W 9822   6.361   3.638   8.980 -0.2128  0.0091 -0.3835
 5759W        W 9823   2.788   4.376  10.105  0.0963  0.0718 -0.1355
 5760W        W 9824  10.812   4.496   1.490  0.2069 -0.2953  0.1977
 5761W        W 9825   6.221   4.462   0.376  0.2844 -0.5159  0.0763
 5762W        W 9826   3.729   9.328   2.950  0.0438  0.2323 -0.0466
 5763W        W 9827  10.460  10.740   1.040  0.2060 -0.2307 -0.0830
 5764W        W 9828   9.784   5.676   9.390  0.1159  0.0199 -0.2212
 5765W        W 9829   7.512   5.229   0.186 -0.0685 -0.1432 -0.0983
 5766W        W 9830   5.510   4.973   9.559  0.1148 -0.1419 -0.0267
 5767W        W 9831   5.805  10.375   8.956  0.1534 -0.0625  0.3367
 5768W        W 9832   8.022   2.995   2.867 -0.2074 -0.1287 -0.2380
 5769W        W 9833   9.033   3.164   8.598 -0.1807 -0.0963  0.2065
 5770W        W 9834   2.468   6.806   0.976 -0.1317 -0.2597  0.0843
 5771W        W 9835   4.687   5.929   3.276  0.3949  0.0289  0.0468
 5772W        W 9836   7.800   5.050   0.628  0.4826  0.2377  0.0657
 5773W        W 9837   1.657   0.684   4.118  0.0808  0.0617 -0.1035
 5774W        W 9838   3.337   4.721  10.806 -0.0157 -0.3661  0.1548
 5775W        W 9839   1.378   9.487  10.678 -0.2632 -0.3783 -0.0481
 5776W        W 9840   8.005   0.447   8.293 -0.0920 -0.2885  0.0883
 5777W        W 9841   3.143  10.345   1.875 -0.0419  0.3465  0.0981
 5778W        W 9842   0.682   1.081   7.559  0.2388  0.1845 -0.0231
 5779W        W 9843  10.892  10.240   1.718 -0.0730  0.0017  0.0869
 5780W        W 9844   6.194   8.609  10.025  0.1756 -0.3042 -0.2237
 5781W        W 9845   2.756   1.749   0.461  0.0619  0.4321 -0.3172
 5782W        W 9846   7.366  10.673   7.409  0.0501 -0.2022  0.1685
 5783W        W 9847   9.388   9.438   8.664  0.0168  0.1737 -0.3243
 5784W        W 9848   1.716   1.863   3.112 -0.0830 -0.4239  0.0246
 5785W        W 9849   6.510   2.187   9.326  0.2660 -0.4176 -0.2205
 5786W        W 9850   9.752   4.809   8.578  0.1194  0.1601  0.0552
 5787W        W 9851   3.357   5.671   9.173  0.1942  0.0653 -0.2702
 5788W        W 9852   8.901   0.558   9.558  0.0723 -0.4476  0.2861
 5789W        W 9853   9.795   0.703   0.617  0.2500 -0.2599 -0.1557
 5790W        W 9854   4.554   5.415  10.144 -0.0253  0.1676 -0.2764
 5791W        W 9855   6.698   6.194   8.372 -0.1873  0.2583 -0.0136
 5792W        W 9856   6.286   8.993   8.185  0.1001 -0.0806  0.1992
 5793W        W 9857   6.319   4.314   3.344 -0.0291 -0.1222  0.3269
 5794W        W 9858   4.849   1.279   1.966  0.0708  0.1297 -0.1823
 5795W        W 9859   3.129   0.997   2.141  0.3485  0.1736  0.0181
 5796W        W 9860   4.758   7.564  10.615 -0.2621 -0.4867 -0.1914
 5797W        W 9861   4.339   2.786   3.769 -0.3423 -0.0509 -0.0164
 5798W        W 9862   1.495   1.307   6.969 -0.2644 -0.1208  0.1017
 5799W        W 9863   9.200   8.648   1.820  0.2386 -0.0933 -0.0485
 5800W        W 9864   2.171   4.009   3.140 -0.0894  0.1180 -0.1628
 5801W        W 9865   7.645   0.662   0.942 -0.1833 -0.2077  0.0780
 5802W        W 9866   8.837   0.194  10.891  0.0307  0.1059  0.0385
 5803W        W 9867   3.387   9.640   1.331  0.2935  0.1421 -0.1808
 5804W        W 9868  10.125   5.811   3.759  0.1017  0.2908  0.4294
 5805W        W 9869   7.156   4.013   2.861  0.2800  0.0420 -0.5342
 5806W        W 9870   4.750   4.012   9.382  0.1896  0.1298  0.1713
 5807W        W 9871   5.933   5.393   9.140  0.0322 -0.2496  0.4371
 5808W        W 9872   1.638   7.281   2.504 -0.1436  0.2587 -0.0189
 5809W        W 9873   7.054   1.381   8.039 -0.3639 -0.2339  0.0173
 5810W        W 9874  10.326   8.820   0.346  0.1880  0.1456 -0.0195
 5811W        W 9875   6.312   4.997  10.225  0.2112  0.0054 -0.1127
 5812W        W 9876   0.764   4.194  10.181  0.5115 -0.3097 -0.0372
 5813W        W 9877   1.591   7.242  10.609 -0.0530 -0.4369 -0.1280
 5814W        W 9878   2.091   0.594  10.788 -0.1762  0.2940  0.0892
 5815W        W 9879   0.282  10.749  10.908 -0.0320  0.3004  0.0293
 5816W        W 9880   7.070   3.670   7.131 -0.2746  0.0546  0.0906
 5817W        W 9881   1.461   3.178   8.297 -0.3126 -0.0656  0.0933
 5818W        W 9882   7.570   8.161   7.605  0.1447 -0.0141 -0.0053
 5819W        W 9883   3.176   2.216   1.943 -0.1466  0.2337  0.0687
 5820W        W 9884   0.616   5.325   1.921  0.2253  0.1006  0.0188
 5821W        W 9885   5.919   4.611   7.903 -0.0181 -0.0818  0.0337
 5822W        W 9886   3.344   2.534  10.775  0.1207  0.0474 -0.0169
 5823W        W 9887   5.907  10.832   3.013  0.0258  0.1787  0.3214
 5824W        W 9888   2.066   6.094   1.196  0.2144 -0.2320 -0.0402
 5825W        W 9889   2.113   3.533   9.852 -0.0860  0.0519 -0.2316
 5826W        W 9890   7.998   7.066   2.545  0.0736 -0.1731 -0.1554
 5827W        W 9891   0.963   0.621   7.637 -0.4304 -0.0274 -0.2552
 5828W        W 9892   5.497   6.501   9.231  0.2415  0.2018 -0.0989
 5829W        W 9893   2.464   8.023   1.861 -0.3183 -0.1428  0.0951
 5830W        W 9894   0.817   6.113   0.195 -0.0810 -0.2451 -0.2554
 5831W        W 9895   4.989   9.520   2.827 -0.0854  0.2145  0.1182
 5832W        W 9896   2.094   1.515   1.653  0.4186  0.2291 -0.2781
 5833W        W 9897   9.681   8.196   1.496  0.2474 -0.0071  0.1525
 5834W        W 9898   0.028   9.208  10.525  0.0125  0.0113 -0.1212
 5835W        W 9899  10.688   9.658  10.597  0.2187 -0.0518  0.0938
 5836W        W 9900   7.734   2.128   3.908  0.1463  0.0771 -0.0089
 5837W        W 9901   9.043  10.510   2.172 -0.2800 -0.0918  0.2774
 5838W        W 9902   5.869   7.422   0.416  0.2020  0.3669  0.4745
 5839W        W 9903   6.055   6.682   2.470  0.2504  0.0847 -0.4211
 5840W        W 9904   5.517   2.071   1.983 -0.1024  0.2164 -0.1505
 5841W        W 9905   7.658   4.434   0.615  0.0128  0.0982 -0.0521
 5842W        W 9906   8.151   5.422   0.906 -0.1198  0.1480 -0.1448
 5843W        W 9907   6.576   7.607   7.989  0.0243 -0.0259 -0.1387
 5844W        W 9908   7.720   0.183   8.693 -0.2767 -0.3060 -0.1044
 5845W        W 9909   3.967   3.306   8.451  0.0269  0.3693  0.2018
 5846W        W 9910   4.002   4.768   7.983  0.1412 -0.0135  0.0898
 5847W        W 9911  10.885   8.263   8.900 -0.2319 -0.0836 -0.0150
 5848W        W 9912   0.398  10.686   7.693 -0.0512 -0.1869 -0.3207
 5849W        W 9913   9.407   4.829  10.740 -0.5257 -0.0196  0.3691
 5850W        W 9914   1.226   2.232   2.731  0.1096 -0.1880 -0.2033
 5851W        W 9915   5.546   8.770   1.967  0.1986 -0.0364  0.0763
 5852W        W 9916   8.498   2.095   3.077  0.2217 -0.5020 -0.2007
 5853W        W 9917   1.723   9.746   2.136 -0.0414  0.4160 -0.4393
 5854W        W 9918   0.012   7.679   0.817  0.1022  0.1920  0.1790
 5855W        W 9919   9.360   6.986   2.175  0.0689 -0.0753 -0.0049
 5856W        W 9920   9.598   7.765   2.430 -0.2839 -0.0915 -0.1149
 5857W        W 9921   5.755   9.580   7.656 -0.0688 -0.1389 -0.2213
 5858W        W 9922  10.876   4.684   0.580 -0.0153 -0.3971 -0.2363
 5859W        W 9923   1.104   7.992   0.031  0.0530  0.1155 -0.3464
 5860W        W 9924  10.714   6.200   3.152 -0.0524  0.1805  0.0723
 5861W        W 9925   4.872   6.140  10.080  0.1162  0.0745  0.0550
 5862W        W 9926   7.162   5.509   1.839 -0.0492 -0.0353  0.2707
 5863W        W 9927   9.359   7.569  10.397  0.1600 -0.2534 -0.0366
 5864W        W 9928   9.143   6.593   9.446 -0.0215 -0.0913  0.0210
 5865W        W 9929   2.007   0.750   8.045 -0.0147 -0.1556  0.1698
 5866W        W 9930   1.158   1.437   1.057 -0.0556  0.0465  0.1953
 5867W        W 9931   1.375   8.065   7.957  0.1912 -0.1560 -0.1284
 5868W        W 9932   1.074  10.070   7.121  0.4526  0.0845 -0.0088
 5869W        W 9933   7.139   5.114   9.108  0.0871  0.1295 -0.3756
 5870W        W 9934   8.614   7.792   3.308  0.2088  0.1601  0.2370
 5871W        W 9935   8.881  10.113   9.726 -0.0213 -0.5343 -0.2031
 5872W        W 9936   8.369   9.559   0.542  0.2479  0.0057 -0.1765
 5873W        W 9937   1.172   9.890  10.463 -0.0837  0.0680 -0.1214
 5874W        W 9938   2.218   7.570   9.540 -0.0260 -0.1608 -0.1531
 5875W        W 9939   2.309   0.680   2.907 -0.1414  0.0399 -0.1673
 5876W        W 9940   6.382   6.323   1.034  0.2233  0.1473 -0.0205
 5877W        W 9941   7.180   5.307   8.407  0.1665 -0.3343 -0.0562
 5878W        W 9942   8.940   5.624   0.024 -0.1013 -0.1969  0.1467
 5879W        W 9943   6.187   4.708   2.314  0.0614  0.0849 -0.3005
 5880W        W 9944   3.662   9.276   8.674 -0.1979  0.1412  0.0835
 5881W        W 9945   0.778   2.008   0.470 -0.0150  0.0876 -0.2439
 5882W        W 9946   9.461   7.439   6.948 -0.2382  0.1736 -0.1599
 5883W        W 9947   2.330   3.818   0.752 -0.1971  0.2014 -0.2610
 5884W        W 9948   8.538   2.161   8.923 -0.1319  0.3091 -0.1342
 5885W        W 9949   8.687   8.895  10.328 -0.1669 -0.0183  0.2252
 5886W        W 9950   6.949  10.175  10.234  0.2966 -0.0566 -0.0398
 5887W        W 9951  10.592   3.495   0.736  0.3301 -0.2775  0.0727
 5888W        W 9952   3.027   4.866   2.754 -0.4616 -0.1259  0.0612
 5889W        W 9953   6.683   6.440   1.421  0.1406  0.1220 -0.2027
 5890W        W 9954   5.392   1.896   2.746  0.1551 -0.3154  0.2028
 5891W        W 9955   0.329   7.660   6.923  0.0217  0.1924  0.1454
 5892W        W 9956   4.326   3.651   2.595  0.0895 -0.1230 -0.0880
 5893W        W 9957   5.298  10.705   0.829  0.0968  0.0460 -0.0145
 5894W        W 9958   4.941   7.895   8.934  0.2108  0.0904 -0.0226
 5895W        W 9959   0.396   6.326   0.306 -0.1982  0.3999 -0.2024
 5896W        W 9960   9.083   1.659   0.239 -0.0469 -0.1826  0.1986
 5897W        W 9961  10.038   9.928   0.163 -0.0639  0.1055  0.0633
 5898W        W 9962   1.838   8.542   0.566  0.2175  0.1398  0.3320
 5899W        W 9963   5.372   9.130   8.369  0.0559  0.0741 -0.1046
 5900W        W 9964   2.033   0.204   2.416  0.0028 -0.5199 -0.1349
 5901W        W 9965  10.340   3.333   2.873 -0.1519 -0.1048 -0.3106
 5902W        W 9966   6.864   6.924  10.964 -0.0919 -0.1359  0.2210
 5903W        W 9967   0.869   8.209   8.834 -0.0927  0.3731  0.1362
 5904W        W 9968   2.083   3.619   7.400 -0.2622  0.0398 -0.1028
 5905W        W 9969   9.920   0.235   0.674  0.1486 -0.0352 -0.3763
 5906W        W 9970   4.907   9.249  10.486  0.0018  0.0456 -0.2202
 5907W        W 9971   2.758   9.486  10.082 -0.1290  0.2605 -0.1155
 5908W        W 9972   6.681   4.471  10.799  0.1523 -0.0268 -0.5052
 5909W        W 9973   4.576   8.911   7.862  0.3153 -0.3426 -0.1916
 5910W        W 9974   2.523   3.223  10.902 -0.3278 -0.3477  0.0163
 5911W        W 9975   4.031   9.802   2.095  0.1648 -0.2418  0.1839
 5912W        W 9976   0.651   3.807   0.152 -0.0365  0.2830  0.0302
 5913W        W 9977  10.306   5.890   2.241  0.0450  0.2416  0.0816
 5914W        W 9978   6.118   5.764   1.905 -0.1220 -0.0624  0.0313
 5915W        W 9979   8.896   1.740   7.551 -0.2181 -0.0461 -0.1832
 5916W        W 9980   0.835   8.166   3.383  0.2146  0.1753 -0.2148
 5917W        W 9981   5.882  10.885   8.220 -0.1580  0.2630 -0.0286
 5918W        W 9982  10.828   1.144   8.877  0.0688 -0.2304 -0.0557
 5919W        W 9983   9.983   8.152   2.147 -0.2986  0.0362  0.1794
 5920W        W 9984   1.634   0.420   0.726 -0.2720  0.3873 -0.2169
 5921W        W 9985   0.941   9.485   9.070 -0.2461  0.2555  0.0559
 5922W        W 9986   9.532   4.625   9.700 -0.3762  0.0576  0.1278
 5923W        W 9987   4.227   9.991  10.659  0.0024  0.0565 -0.1611
 5924W        W 9988   4.598   2.974   9.809 -0.0850 -0.1254  0.1881
 5925W        W 9989   8.034   5.040   7.937  0.1187 -0.1463 -0.2082
 5926W        W 9990   7.735   1.161   9.010  0.0731 -0.3497 -0.0598
 5927W        W 9991   1.509  10.300   9.998  0.5367  0.2183  0.0760
 5928W        W 9992   8.045   5.920   9.333  0.3206 -0.0485  0.0560
 5929W        W 9993   9.163   6.478   7.410 -0.2783 -0.3073 -0.0109
 5930W        W 9994   2.265   2.113   2.766 -0.1877  0.2841  0.1001
 5931W        W 9995   2.574  10.725  10.910  0.2968 -0.0025  0.5083
 5932W        W 9996   8.182   3.287   8.180  0.3320 -0.1437  0.1685
 5933W        W 9997   7.655   3.677   2.121  0.1685  0.4292  0.1858
 5934W        W 9998   2.744   3.517   7.394  0.1107 -0.0906  0.0589
 5935W        W 9999   5.778   6.434   0.328 -0.2881  0.1033 -0.2446
 5936W        W10000   4.197   1.075   0.991 -0.2811  0.0303 -0.0005
 5937W        W10001   0.764   5.083   2.863  0.1559  0.1434 -0.0539
 5938W        W10002   1.307   5.106   0.125  0.1478 -0.3166  0.0466
 5939W        W10003   2.547   2.961   2.296  0.2124 -0.1446  0.2430
 5940W        W10004   2.897   7.568   1.122 -0.1740 -0.0154  0.2038
 5941W        W10005   5.190   9.727   3.307 -0.2375  0.1320  0.0205
 5942W        W10006  10.257  10.898   9.184  0.0985 -0.2068 -0.0482
 5943W        W10007   8.039   8.158   2.996 -0.0089 -0.0763  0.0978
 5944W        W10008   8.512   9.866   1.131 -0.3954 -0.0148 -0.1274
 5945W        W10009   7.487   8.009   1.566 -0.2872 -0.3199  0.3165
 5946W        W10010   2.527   8.560   9.475 -0.0873 -0.0638  0.1394
 5947W        W10011   6.499   7.184   0.283  0.0958 -0.0405 -0.1499
 5948W        W10012   9.036   9.368   1.266 -0.2105 -0.0846  0.0421
 5949W        W10013   0.675   8.904   0.947 -0.0473 -0.4501 -0.0709
 5950W        W10014   8.469   4.107  10.114 -0.0191  0.0736 -0.0188
 5951W        W10015   5.495   2.351   9.093  0.0892  0.0434 -0.0703
 5952W        W10016  10.009   4.421   9.876 -0.0013  0.0885  0.1811
 5953W        W10017   1.712   1.606   3.821 -0.2505 -0.3450 -0.0317
 5954W        W10018   1.251   0.815   3.517  0.0526  0.2217 -0.1357
 5955W        W10019  10.749   8.494  10.202  0.0938  0.0922  0.1973
 5956W        W10020   8.217   6.249  10.673 -0.0174  0.0269 -0.0304
 5957W        W10021   6.975   9.359  10.950  0.0573 -0.1022 -0.2290
 5958W        W10022   5.136   3.697   8.687  0.0128  0.1003  0.2740
 5959W        W10023   2.662  10.882   7.633  0.1227 -0.1839 -0.0792
 5960W        W10024   8.142   4.624   8.165  0.0622  0.1383  0.1797
 5961W        W10025   7.619   1.672   1.142  0.2970  0.2367  0.4214
 5962W        W10026   8.604   8.895   8.529  0.1285  0.1056  0.0981
 5963W        W10027   0.030   7.336   8.771 -0.2654  0.1007 -0.2210
 5964W        W10028   2.021   4.728   1.018 -0.1139  0.4438  0.2848
 5965W        W10029   9.871   1.323   9.933  0.1746 -0.0388  0.0624
 5966W        W10030   6.089   2.182   9.812 -0.1471 -0.0450 -0.1619
 5967W        W10031   3.828   1.240   8.300  0.0702 -0.2195 -0.1254
 5968W        W10032   8.555   6.822   1.043  0.3456  0.5762 -0.1075
 5969W        W10033   8.028   2.571   1.471  0.0838  0.0459 -0.1557
 5970W        W10034  10.799   9.457   2.897  0.4277 -0.1554 -0.0047
 5971W        W10035   1.300   4.945   9.199 -0.1169  0.0553 -0.3741
 5972W        W10036   2.528   2.658   9.936 -0.0907  0.0656  0.1329
 5973W        W10037  10.394   7.070   3.005  0.1084  0.0925  0.1324
 5974W        W10038   2.226   6.109   7.834 -0.1514 -0.3450  0.1852
 5975W        W10039   5.826   9.379  10.337 -0.1856 -0.0593  0.3108
 5976W        W10040  10.570   5.464   1.008  0.0165  0.1499 -0.2081
 5977W        W10041   2.772   6.714   2.775 -0.2987  0.1889 -0.0132
 5978W        W10042   6.837   6.675  10.448 -0.1347  0.1768 -0.1334
 5979W        W10043   7.125   7.310  10.161  0.0060 -0.0802  0.1859
 5980W        W10044   4.058  10.217   0.065 -0.3343  0.0195 -0.0797
 5981W        W10045   3.626   6.542   2.431  0.1632 -0.0968  0.0740
 5982W        W10046   1.220   5.913   9.837  0.3914  0.3114  0.0635
 5983W        W10047   7.059   4.701  10.488  0.0063  0.0562  0.0848
 5984W        W10048   3.460   8.190   9.944  0.3820 -0.2341  0.1499
 5985W        W10049   7.517   0.595   8.145  0.4543  0.1716 -0.1705
 5986W        W10050   1.232   6.209   7.506 -0.1654  0.2965 -0.0899
 5987W        W10051   9.488   3.606   8.916  0.1702  0.1600 -0.2674
 5988W        W10052   7.597   7.086   9.774  0.2270 -0.2504  0.0846
 5989W        W10053  10.672   0.520   0.343  0.0464 -0.0627  0.1372
 5990W        W10054   5.121   5.387   9.997 -0.0610 -0.2018  0.1945
 5991W        W10055   2.806   8.092   1.457 -0.1813  0.0613 -0.2419
 5992W        W10056   4.464   6.931   9.565 -0.1602 -0.0034  0.1738
 5993W        W10057   1.360   5.168   1.252 -0.1314  0.1385  0.3433
 5994W        W10058   4.207   5.760   1.676  0.4873  0.0690 -0.0275
 5995W        W10059   9.504   8.525   9.087  0.1039  0.3369  0.0728
 5996W        W10060   9.909   2.474   7.109  0.4866  0.1081 -0.2603
 5997W        W10061   1.346   1.733   2.813 -0.1394 -0.2230 -0.2554
 5998W        W10062   1.934   8.781   1.780 -0.2359  0.0287  0.2263
 5999W        W10063  10.022   0.876   2.099 -0.2219  0.2320 -0.1761
 6000W        W10064   5.502   8.251   0.158  0.0631 -0.0036 -0.0894
 6001W        W10065   7.947  10.243   0.132 -0.1023 -0.1716 -0.0014
 6002W        W10066   1.072   8.075   9.791 -0.0825 -0.1128  0.0891
 6003W        W10067   0.577   6.859   2.867  0.1152  0.2250  0.0791
 6004W        W10068   3.199   3.024  10.537 -0.2735  0.0697 -0.1987
 6005W        W10069   0.636   7.316  10.839  0.2122 -0.1020  0.0853
 6006W        W10070   2.065   4.104   3.645  0.0684  0.2622  0.1510
 6007W        W10071   1.329   3.340   9.995 -0.4063 -0.0412 -0.1556
 6008W        W10072   4.515   0.912   2.113 -0.4788 -0.5061 -0.3169
 6009W        W10073   4.932  10.801   9.724 -0.2205  0.1982  0.1211
 6010W        W10074   8.134   7.039   8.099  0.1685  0.2197  0.2423
 6011W        W10075   0.462   0.319  10.735  0.1387  0.1651 -0.1573
 6012W        W10076  10.414   7.375   2.581 -0.1995 -0.1354 -0.1390
 6013W        W10077   0.693  10.265   0.725 -0.0388 -0.0293  0.1247
 6014W        W10078   9.520   9.365   1.384  0.2027 -0.1136 -0.2181
 6015W        W10079   2.773   9.190   7.576  0.1132  0.1095  0.3341
 6016W        W10080   2.957   8.131   8.190  0.2382  0.1734  0.0384
 6017W        W10081  10.227   0.885   0.320 -0.0681  0.2121  0.1612
 6018W        W10082   7.804   6.588   0.422 -0.1805 -0.2181  0.3106
 6019W        W10083   5.141   5.834   8.401 -0.0415  0.0940 -0.0469
 6020W        W10084   4.588   7.537   1.604 -0.3271 -0.2546  0.0193
 6021W        W10085   1.638  10.844   2.746  0.1031  0.0003 -0.1001
 6022W        W10086   7.024   4.215   1.758 -0.0580  0.2009  0.0580
 6023W        W10087   6.264   2.860   2.803 -0.3608 -0.0419 -0.1106
 6024W        W10088   5.701   8.622   1.387 -0.1302  0.0547 -0.0708
 6025W        W10089   6.306   3.856   0.174  0.0763 -0.0516 -0.2149
 6026W        W10090   0.294   1.711   0.400 -0.0186 -0.1358 -0.1152
 6027W        W10091   0.462   9.708   1.571 -0.3283  0.1441 -0.1323
 6028W        W10092   3.131   3.087   9.978 -0.3455 -0.1320  0.2185
 6029W        W10093   2.049   8.106   8.728 -0.0092 -0.0171 -0.1010
 6030W        W10094  10.673   9.946   9.768 -0.1435  0.0091  0.0060
 6031W        W10095  10.697  10.155   9.278  0.2551  0.1662  0.2219
 6032W        W10096   4.687   5.217   2.866 -0.0365  0.2447  0.1067
 6033W        W10097   9.238   8.125   1.107  0.3104  0.0580 -0.4135
 6034W        W10098   6.322   9.496   8.053  0.0469 -0.2217 -0.0517
 6035W        W10099   2.743   4.501   2.428 -0.1825  0.1937 -0.0388
 6036W        W10100   8.475   1.195   9.237  0.0005  0.0543 -0.1898
 6037W        W10101   6.770   1.802  10.561 -0.3617 -0.0194  0.1320
 6038W        W10102   1.916   8.752   3.433  0.0820 -0.0908  0.0068
 6039W        W10103   4.886  10.065   3.058 -0.2923  0.1168  0.3078
 6040W        W10104   2.991   6.632   3.824 -0.2915 -0.2931  0.2972
 6041W        W10105  10.087  10.549  10.056  0.1976 -0.1548 -0.1915
 6042W        W10106   2.051   3.832   8.587 -0.2698 -0.2095 -0.2566
 6043W        W10107   9.560   0.933  10.093  0.1283  0.1584 -0.2524
 6044W        W10108  10.555   2.330  10.374  0.2443  0.0318  0.0639
 6045W        W10109   1.285   9.724   9.982 -0.2628  0.0903  0.0076
 6046W        W10110   0.455   7.661   8.684 -0.0822  0.1605  0.2989
 6047W        W10111   4.557   3.199   1.986 -0.0887 -0.2317 -0.1201
 6048W        W10112   8.630   3.403  10.317 -0.0062  0.0850 -0.1302
 6049W        W10113   1.660   9.995   8.772  0.0461  0.1496  0.2592
 6050W        W10114   3.032   5.887   0.491  0.2986 -0.2312  0.2362
 6051W        W10115   8.759   8.878   9.645  0.0043  0.0963  0.0863
 6052W        W10116   6.600   2.021  10.942  0.1047 -0.1799  0.0400
 6053W        W10117   3.097  10.669   0.774  0.1352  0.0560  0.0149
 6054W        W10118   5.934   0.295   2.199  0.2078 -0.2465  0.2049
 6055W        W10119   8.835   3.001   1.755 -0.0813  0.3843 -0.0822
 6056W        W10120   8.276   2.473   7.960  0.0948 -0.1433 -0.1729
 6057W        W10121   9.815   3.506   0.870 -0.0684  0.1219 -0.1408
 6058W        W10122   1.800   6.031   3.018  0.0232  0.0066 -0.3134
 6059W        W10123   7.438   1.723   7.959  0.1352  0.1472  0.0286
 6060W        W10124   0.592   3.401  10.782 -0.0774  0.2642  0.2169
 6061W        W10125   9.071   4.860   0.951  0.1416  0.2663  0.3216
 6062W        W10126   6.730   8.943  10.813  0.0248 -0.2971  0.1249
 6063W        W10127   7.399   6.376   2.318 -0.0697 -0.0202  0.2528
 6064W        W10128   0.612   5.902   7.783  0.0231 -0.0860 -0.1653
 6065W        W10129   0.071   3.495   1.141 -0.1175 -0.1962 -0.0647
 6066W        W10130   7.860  10.091   9.755  0.1854 -0.0789 -0.2998
 6067W        W10131  10.683   3.969   8.067 -0.3253  0.0891 -0.1965
 6068W        W10132   8.391  10.513   7.878  0.0149 -0.1129  0.0154
 6069W        W10133   9.039   5.549   3.840 -0.4748  0.1620  0.1219
 6070W        W10134   8.415   9.182  10.838  0.2618 -0.2340 -0.0469
 6071W        W10135   4.139   6.254  10.102 -0.1231  0.3467  0.2945
 6072W        W10136   8.899   9.409   2.795 -0.0880  0.0835  0.1946
 6073W        W10137   6.241   9.832  10.634  0.3262 -0.2068 -0.1277
 6074W        W10138   8.567   3.695   2.297  0.2344  0.2044  0.2792
 6075W        W10139   8.587   0.679   9.196  0.1761  0.1758 -0.1753
 6076W        W10140   2.830   0.032  10.240  0.3388  0.0281 -0.0667
 6077W        W10141   3.845   2.751   0.923 -0.0386 -0.1275  0.0665
 6078W        W10142  10.115   7.972   1.657  0.3876  0.1136  0.2496
 6079W        W10143  10.516   3.642   1.333 -0.0158  0.0945  0.2157
 6080W        W10144   6.250   2.603   9.516  0.0318 -0.0733  0.0794
 6081W        W10145   0.476   3.187   7.815  0.1852  0.3126 -0.1171
 6082W        W10146   2.568   6.169   8.540  0.1131  0.1355  0.0135
 6083W        W10147   0.284   0.568  10.228  0.1826 -0.1021 -0.1645
 6084W        W10148   7.896  10.628   8.390 -0.0922 -0.0422  0.1592
 6085W        W10149  10.297   6.534   1.061 -0.0387 -0.0006 -0.2770
 6086W        W10150   4.278   3.352   8.087 -0.2927 -0.3754  0.0176
 6087W        W10151   9.573   8.455   2.132 -0.1087 -0.0453  0.0363
 6088W        W10152   0.308   0.860   0.457  0.2609 -0.0336 -0.0726
 6089W        W10153   6.604   9.078   1.236  0.1786  0.0673 -0.0186
 6090W        W10154   2.892   6.536   8.393 -0.2768 -0.2125 -0.1473
 6091W        W10155   2.428   5.851   1.405  0.1919 -0.0098  0.1800
 6092W        W10156   9.661   6.161   8.727  0.1936 -0.2681 -0.1041
 6093W        W10157   2.599   9.259   0.981  0.0748 -0.0141  0.0026
 6094W        W10158   3.002   9.977   2.202 -0.0119 -0.0423  0.3093
 6095W        W10159   8.147   3.664  10.008 -0.0001  0.1286  0.0966
 6096W        W10160   6.151   9.461   9.320 -0.0012  0.0039  0.2424
 6097W        W10161   8.447   4.867   2.088  0.1518 -0.0102 -0.1502
 6098W        W10162   7.337   2.822   8.397 -0.1557 -0.2491 -0.1586
 6099W        W10163   3.390   1.073   2.866 -0.0901 -0.3752  0.0196
 6100W        W10164   1.744   6.339   7.555 -0.0830  0.2482  0.0985
 6101W        W10165   5.853   3.657   8.197  0.1420 -0.1227  0.0956
 6102W        W10166   8.381   0.713   1.752  0.0412  0.4180  0.0805
 6103W        W10167   7.851   7.863   0.684 -0.0232 -0.1191  0.1960
 6104W        W10168   9.669   4.124   9.836 -0.0088 -0.0769  0.1113
 6105W        W10169   0.082   3.920  11.015 -0.0233 -0.2142  0.2968
 6106W        W10170   1.159  10.546   8.250  0.0339 -0.3197  0.2004
 6107W        W10171   6.230   3.910   1.969  0.0364  0.3762 -0.1279
 6108W        W10172   3.182   6.894   7.845  0.1952 -0.1317  0.3246
 6109W        W10173   2.591   9.498   0.526 -0.2997 -0.1306 -0.1179
 6110W        W10174   5.909   1.102   2.254  0.2334 -0.0559  0.1418
 6111W        W10175   7.776   4.195   9.233  0.0478 -0.1027 -0.0255
 6112W        W10176   5.080   2.168   1.748  0.0004  0.1741  0.0560
 6113W        W10177  10.001   4.894  10.860  0.2032  0.0500  0.0650
 6114W        W10178   7.256   2.987   2.223  0.1089 -0.0535  0.2781
 6115W        W10179   7.759   3.758   0.236  0.2452 -0.0721  0.2422
 6116W        W10180   5.648   8.643  10.202 -0.0831 -0.2786  0.1783
 6117W        W10181   5.107   8.162   0.928 -0.0898 -0.0479  0.3100
 6118W        W10182   5.942   1.999   1.671 -0.0237 -0.4769 -0.2405
 6119W        W10183   4.441   5.912  10.256 -0.1472 -0.0695 -0.3452
 6120W        W10184   1.303   6.568   1.508  0.1301  0.1965 -0.2144
 6121W        W10185   1.000   1.188   3.213 -0.2461  0.0124  0.1904
 6122W        W10186   4.955   8.541   1.726 -0.0014 -0.2438 -0.1697
 6123W        W10187   8.172   2.364   2.220  0.2524  0.2750  0.1025
 6124W        W10188   2.000   0.027   7.948  0.0995  0.3070 -0.0876
 6125W        W10189   8.032   1.830   3.017  0.0199 -0.3360  0.1758
 6126W        W10190   3.315  10.754   9.183 -0.3175 -0.2115 -0.0891
 6127W        W10191   9.544   6.093   8.192 -0.0607 -0.3277 -0.3360
 6128W        W10192   3.281   7.168   0.257  0.2135 -0.1604 -0.0827
 6129W        W10193   7.173   6.089   8.268 -0.2844 -0.1136  0.2045
 6130W        W10194   2.407   8.266   7.851 -0.0321  0.2227  0.2482
 6131W        W10195   9.621  10.629  10.289 -0.0396  0.0021  0.1440
 6132W        W10196   7.053   1.946  10.094 -0.0909  0.0999 -0.3293
 6133W        W10197   2.336   6.551   2.508 -0.0307  0.0156 -0.1715
 6134W        W10198   7.845  10.365  10.627  0.1796 -0.0345 -0.0017
 6135W        W10199   7.584  10.539   9.607 -0.2005 -0.1214 -0.1889
 6136W        W10200   1.450   7.180  10.138 -0.2302  0.0060  0.1183
 6137W        W10201   6.123  10.806   3.940  0.0516  0.3720  0.0938
 6138W        W10202   6.932   7.441   1.132  0.0960 -0.0271  0.1728
 6139W        W10203   5.614   5.882   1.802  0.0892  0.0222 -0.0816
 6140W        W10204   5.638   7.461   0.869 -0.1012  0.0388  0.1147
 6141W        W10205   8.538   4.462   0.424  0.1881 -0.2797  0.1852
 6142W        W10206   9.449   6.279   9.711  0.1402  0.0241  0.1783
 6143W        W10207   0.527  10.472   9.825 -0.1209 -0.1839  0.1071
 6144W        W10208   1.785   2.008   7.623  0.1236 -0.0761 -0.0910
 6145W        W10209   8.257   4.350   9.730  0.2561  0.0535  0.3124
 6146W        W10210   7.301   3.159   8.839 -0.1025  0.1230 -0.2135
 6147W        W10211   2.831   0.574   9.109  0.3209  0.0973 -0.1568
 6148W        W10212   7.271   4.368   0.346 -0.0245 -0.1346 -0.1979
 6149W        W10213   2.946   7.573   7.531 -0.3750  0.0602 -0.1580
 6150W        W10214   4.438   1.992   8.197  0.0273 -0.3772  0.0938
 6151W        W10215   2.735  10.650   6.036 -0.1072  0.2738 -0.1558
 6152W        W10216   5.510   0.083   3.256 -0.3831  0.0547  0.2469
 6153W        W10217   8.715   6.598   7.565  0.4608  0.3335 -0.3693
 6154W        W10218   4.298   1.615   0.159  0.1938  0.2601  0.3381
 6155W        W10219   2.390   2.586   2.025  0.1408  0.2334  0.1521
 6156W        W10220   4.509  10.878   9.237 -0.1037  0.3214  0.0386
 6157W        W10221   4.901   5.665  10.453  0.1497 -0.2518 -0.3190
 6158W        W10222   8.382   4.709   8.597 -0.1791 -0.1440  0.0261
 6159W        W10223   2.623   3.933   9.152 -0.2216 -0.0435  0.0200
 6160W        W10224   4.194   3.436   3.101 -0.1274  0.2168  0.0799
 6161W        W10225   4.365   6.369   2.187 -0.1254 -0.0482 -0.2746
 6162W        W10226  10.776   7.271   9.837 -0.2954 -0.2099 -0.1424
 6163W        W10227   7.248   8.009   8.483  0.0653  0.4597  0.1172
 6164W        W10228   0.147   4.168   8.346  0.2853 -0.1988  0.3188
 6165W        W10229   8.402   5.882   1.412  0.1229  0.0046  0.0878
 6166W        W10230   6.289   8.782   8.758  0.1407  0.1688 -0.0505
 6167W        W10231   2.609   3.616   2.493  0.1087  0.0015 -0.2418
 6168W        W10232   3.470   5.240   9.410  0.0382  0.0289  0.0459
 6169W        W10233   1.789   9.520   8.672 -0.0174 -0.0549  0.0099
 6170W        W10234   7.316   8.115   8.017 -0.0736  0.1762  0.1550
 6171W        W10235  10.520   4.919   3.769 -0.1017 -0.1754  0.0277
 6172W        W10236  10.482   3.902   4.316 -0.0756 -0.2487 -0.1339
 6173W        W10237   7.287  10.024   8.553 -0.3608 -0.0143  0.1566
 6174W        W10238   1.729   8.810   0.092 -0.1144  0.1276  0.0191
 6175W        W10239   7.795   1.906   9.719 -0.1302  0.2820  0.1817
 6176W        W10240   1.157   9.641   0.198  0.1052 -0.4452 -0.1442
 6177W        W10241  10.903   3.255   1.894  0.3457 -0.0442 -0.0652
 6178W        W10242   3.139   7.615   9.282  0.2516  0.1619 -0.1117
 6179W        W10243  10.333   6.772   2.123 -0.1034 -0.1621  0.2509
 6180W        W10244  10.744   8.640   1.374 -0.1000 -0.4101  0.0021
 6181W        W10245   2.468   2.661  10.867 -0.1341 -0.2463 -0.1184
 6182W        W10246   1.662   6.050  10.241  0.1555  0.2311 -0.1957
 6183W        W10247   8.205   5.767  10.467  0.3495 -0.1648  0.1660
 6184W        W10248   8.995   1.977  10.026  0.1148  0.2499 -0.0371
 6185W        W10249   3.917   1.480  10.026  0.1873  0.2478  0.1169
 6186W        W10250   2.945   1.184   2.650  0.1505 -0.0891  0.0673
 6187W        W10251   7.077   0.954   0.033  0.0118  0.0417 -0.3235
 6188W        W10252   0.132   4.130   0.476  0.0248 -0.1652 -0.1269
 6189W        W10253   2.712   1.120  10.907  0.0915  0.0550 -0.0793
 6190W        W10254   4.688   2.517   9.490 -0.1462 -0.2668  0.0615
 6191W        W10255   4.383   9.384   1.085 -0.2011  0.0844 -0.1210
 6192W        W10256   8.542   2.884   9.495  0.1385 -0.1647  0.1938
 6193W        W10257   7.115   9.246  10.522  0.0108  0.0551 -0.0219
 6194W        W10258   9.556   6.397   2.803 -0.2176  0.1141 -0.0461
 6195W        W10259   5.479   0.669   0.718 -0.2038  0.1004  0.0684
 6196W        W10260   8.318   5.863   0.059  0.2064  0.2690 -0.4057
 6197W        W10261   2.310   4.447  10.024  0.0816 -0.0649 -0.2868
 6198W        W10262  10.134   5.312   9.383  0.0940  0.2981  0.1578
 6199W        W10263  10.678   4.566   1.961 -0.0583 -0.1758  0.0537
 6200W        W10264   3.374   4.767   9.229  0.1100  0.3026  0.1691
 6201W        W10265   9.388   8.780  10.621  0.2393 -0.2647  0.1236
 6202W        W10266   2.137  10.368   3.614  0.1744  0.1619  0.1952
 6203W        W10267   1.744   9.000   0.973  0.0326 -0.2635 -0.2073
 6204W        W10268   0.919   6.624   1.231  0.1547 -0.1088  0.0729
 6205W        W10269   8.999   7.431   9.733 -0.1186  0.1910 -0.0752
 6206W        W10270   4.468   7.177   9.010  0.0290 -0.2034 -0.1791
 6207W        W10271   9.450   7.187   2.915 -0.2930  0.0175 -0.1498
 6208W        W10272   6.404   4.918   1.880 -0.1323 -0.2173 -0.1436
 6209W        W10273   6.488   7.618   1.113  0.2380  0.2149  0.2115
 6210W        W10274   7.598   8.221   8.806  0.1139 -0.2275  0.0344
 6211W        W10275   4.044  10.733   1.752  0.0634 -0.1179  0.3027
 6212W        W10276   9.039   9.595   9.727 -0.1251  0.1250 -0.1314
 6213W        W10277   6.858   3.015   8.618  0.3291 -0.0367 -0.2084
 6214W        W10278   1.453   9.523   2.476 -0.0258 -0.0417 -0.0713
 6215W        W10279   4.615   2.398   1.642 -0.2672  0.2105 -0.2260
 6216W        W10280   8.500   5.724   2.765  0.1261 -0.1878  0.2374
 6217W        W10281   8.045   6.621   1.883 -0.1981 -0.0798 -0.4124
 6218W        W10282   8.264   2.254  10.770  0.0873 -0.3727  0.2519
 6219W        W10283   7.603   2.486   8.669 -0.2647  0.2349  0.3019
 6220W        W10284   7.214   0.333   1.029  0.2960  0.0654 -0.0819
 6221W        W10285   3.099   3.587   9.891 -0.0888 -0.1517 -0.1244
 6222W        W10286   7.055   6.015   1.564 -0.3955  0.5395 -0.1442
 6223W        W10287   3.293   1.858   2.854 -0.2208  0.0956  0.0072
 6224W        W10288   2.663   1.065   8.988  0.0279 -0.2555  0.0500
 6225W        W10289   2.632   3.620   0.127  0.1608  0.1943  0.2837
 6226W        W10290   0.618   0.542   0.648 -0.2554  0.0345  0.1508
 6227W        W10291   5.860   2.408   8.048 -0.1613 -0.0240 -0.0606
 6228W        W10292   1.649   0.873   0.943  0.1792 -0.0769 -0.2355
 6229W        W10293   2.401   3.280   0.365  0.0350  0.0717 -0.0697
 6230W        W10294   6.495   8.607   0.424  0.1042 -0.2144 -0.3518
 6231W        W10295   1.968   3.508   0.526  0.0810 -0.0600  0.0635
 6232W        W10296   8.122   7.955   1.957  0.1339 -0.4036  0.0864
 6233W        W10297   3.594   8.373  10.404 -0.2540 -0.1965  0.1421
 6234W        W10298   8.770   8.959   1.603 -0.3460 -0.1596  0.0550
 6235W        W10299   6.451   4.904   0.208 -0.2401 -0.0957 -0.2957
 6236W        W10300   9.267  10.515   7.597  0.3451 -0.1081 -0.0977
 6237W        W10301   5.854   6.701  10.847  0.1810  0.0326  0.2881
 6238W        W10302   5.814   7.290   9.599 -0.0293 -0.1158  0.1932
 6239W        W10303   4.684   9.569   3.208  0.1366 -0.0982 -0.3820
 6240W        W10304   5.625   2.629   0.106 -0.1960 -0.2376  0.0308
 6241W        W10305   8.002   1.574   8.981 -0.1085  0.0037 -0.0538
 6242W        W10306   5.340   4.238   0.509  0.0663 -0.0446  0.3833
 6243W        W10307   4.918   9.310   1.854  0.0872 -0.2921 -0.2667
 6244W        W10308   3.622   6.046  10.666  0.2034 -0.0850  0.4715
 6245W        W10309   8.507   9.061   9.004  0.1048 -0.0056  0.0814
 6246W        W10310   3.415   8.789   1.224  0.3332 -0.3506 -0.2500
 6247W        W10311   8.650  10.341  10.379  0.0881  0.1556 -0.0010
 6248W        W10312   0.707   4.533   0.870  0.2601 -0.0715  0.1098
 6249W        W10313   8.038   4.042   6.800 -0.1997  0.0720  0.1427
 6250W        W10314   3.427   9.156   2.575 -0.2974  0.3179  0.2238
 6251W        W10315   0.309   4.376   2.345 -0.4175  0.1124  0.0170
 6252W        W10316   9.490   2.314   8.473 -0.3433  0.1625  0.1390
 6253W        W10317  10.599   4.064   9.914  0.1797  0.1883 -0.0671
 6254W        W10318   0.191   5.988   7.554  0.0263  0.3944  0.1825
 6255W        W10319   6.182   5.264  10.893  0.2896 -0.1727 -0.2123
 6256W        W10320   7.086   9.773  10.740 -0.0265 -0.0468  0.0035
 6257W        W10321   4.551   3.227   9.273  0.1789 -0.0212  0.4028
 6258W        W10322   3.633   3.842  10.221  0.1742 -0.1208  0.0402
 6259W        W10323   1.173   2.332  10.070  0.2345 -0.0356 -0.0971
 6260W        W10324   6.737  10.770   0.283 -0.0339  0.0959  0.0751
 6261W        W10325   1.741   6.419   0.483 -0.4352 -0.3715 -0.1097
 6262W        W10326  10.328   3.165   9.429  0.2937 -0.3718 -0.0640
 6263W        W10327   4.366   2.069   0.448 -0.2336 -0.1218 -0.2093
 6264W        W10328   0.523   3.774   1.173  0.0394 -0.1131 -0.3699
 6265W        W10329   0.475   8.423   2.859  0.1529  0.2304 -0.0191
 6266W        W10330   4.105   0.753   2.371 -0.0776  0.1400 -0.2661
 6267W        W10331   1.265   1.014   1.769 -0.1896 -0.1721 -0.0421
 6268W        W10332   1.014  10.144   2.103  0.1558  0.2450  0.0358
 6269W        W10333  10.483   1.870  10.098 -0.0748  0.2153 -0.1982
 6270W        W10334   5.747   0.475   3.007  0.3325  0.2904  0.4457
 6271W        W10335   4.608   8.989   3.137  0.1288 -0.1511 -0.0001
 6272W        W10336   6.534   5.680   8.492  0.2005 -0.0799 -0.1882
 6273W        W10337  10.596   1.690   8.894  0.0774 -0.0312  0.0260
 6274W        W10338   3.698   7.455   1.008  0.2299 -0.0887  0.3100
 6275W        W10339   1.250   6.735   9.975  0.0549 -0.0535  0.0624
 6276W        W10340   3.907   5.034   0.927  0.2189 -0.0216 -0.1586
 6277W        W10341   0.703   9.126   8.617 -0.2815  0.2788  0.0314
 6278W        W10342   5.781   9.613  10.887 -0.0710 -0.2225 -0.0709
 6279W        W10343   1.929   4.741   2.026  0.1964  0.1252  0.0750
 6280W        W10344   7.682   1.733   2.591 -0.2806 -0.2221 -0.1209
 6281W        W10345   2.278   4.238  10.805 -0.0286  0.0389  0.3310
 6282W        W10346   5.400   6.942   9.553 -0.0520 -0.1219 -0.1480
 6283W        W10347   4.509   9.351   8.145  0.0207 -0.3196  0.4917
 6284W        W10348   8.096   4.544  10.204  0.0182 -0.1368 -0.2590
 6285W        W10349   5.770   1.969   7.400  0.0338  0.1014  0.0019
 6286W        W10350   6.986   2.308   0.235  0.1511  0.0464 -0.1539
 6287W        W10351   2.805  10.206   7.712  0.0754  0.0599 -0.0718
 6288W        W10352   5.067   3.179   9.325  0.0463 -0.2511 -0.0505
 6289W        W10353   1.859   6.255   8.864 -0.1153 -0.0776 -0.1235
 6290W        W10354   0.404   0.926   2.342  0.0098  0.3054 -0.3746
 6291W        W10355   0.013   6.236   0.611  0.0873 -0.0528 -0.2845
 6292W        W10356  10.550   8.655   0.742  0.1500  0.2006 -0.2146
 6293W        W10357   9.689   5.243  10.408  0.5247  0.0445  0.0611
 6294W        W10358   9.301   2.841   7.019 -0.1688 -0.0214  0.2111
 6295W        W10359   7.755   8.997  10.960 -0.0379  0.0915  0.0790
 6296W        W10360   0.918   1.032   2.164  0.0322  0.1959  0.2687
 6297W        W10361   8.909   5.523   7.809  0.1133 -0.1249 -0.0411
 6298W        W10362   0.975   0.246   8.547 -0.1056  0.2962  0.0285
 6299W        W10363   4.349   7.062   7.994 -0.0490  0.1591  0.0198
 6300W        W10364   3.955   0.271   1.365  0.1445 -0.0198  0.1206
 6301W        W10365   2.222   4.582   8.777 -0.2117  0.1243 -0.0492
 6302W        W10366   4.304   1.748   2.444  0.0032  0.1444  0.2877
 6303W        W10367   9.437   7.401   7.571  0.0497  0.1386 -0.1820
 6304W        W10368   4.806   4.060   2.519 -0.2886  0.0102 -0.1760
 6305W        W10369   7.243   0.525  10.375  0.2324  0.1294 -0.2747
 6306W        W10370   6.555   5.158   2.535  0.2612  0.0682 -0.1444
 6307W        W10371   6.125   5.557   2.388 -0.3636  0.2060 -0.1110
 6308W        W10372   2.139   2.826   0.181 -0.1714  0.0276  0.1949
 6309W        W10373   2.282   1.034  10.012 -0.2058  0.0254 -0.2770
 6310W        W10374   2.779   7.726   2.571 -0.4542  0.0823  0.3091
 6311W        W10375   0.502   6.936   1.095 -0.0249 -0.1213 -0.1117
 6312W        W10376   5.374   5.423  10.427 -0.1521  0.0004 -0.0724
 6313W        W10377   9.924   3.482   8.731 -0.0791  0.0033  0.0444
 6314W        W10378   3.921   2.732   2.312 -0.0815  0.3168  0.1055
 6315W        W10379  10.849   7.952  10.317  0.1752 -0.0837 -0.2601
 6316W        W10380   0.678   2.923   0.086 -0.0532  0.1284  0.1452
 6317W        W10381   3.276  10.783   1.586  0.0997  0.1307 -0.1871
 6318W        W10382   4.864   8.841   2.685 -0.0837  0.0275 -0.0597
 6319W        W10383   6.879   1.151   1.197  0.2101  0.0066 -0.2418
 6320W        W10384   0.965   2.997  10.700 -0.2766 -0.1296 -0.3044
 6321W        W10385   6.678   7.114   2.834 -0.0646  0.1152 -0.1762
 6322W        W10386   5.520  10.446   3.121 -0.1694  0.1188  0.0996
 6323W        W10387   9.194   3.382   7.045 -0.0016  0.0851 -0.0896
 6324W        W10388   1.121   2.754   2.733 -0.0090 -0.3257  0.0296
 6325W        W10389   9.323   4.303  10.638 -0.0090 -0.2128  0.2665
 6326W        W10390  10.188   0.425  10.040 -0.0313 -0.0103 -0.3507
 6327W        W10391  10.093  10.361   1.194 -0.1054 -0.0012 -0.1158
 6328W        W10392   3.320   5.708   9.942 -0.1008  0.2562  0.1838
 6329W        W10393   8.207   4.312   0.820  0.1005 -0.0378  0.0119
 6330W        W10394   6.152   5.165   1.102  0.3819  0.2097 -0.0306
 6331W        W10395   1.698   3.670  10.062  0.1497 -0.3821 -0.1060
 6332W        W10396   7.958   4.469   2.712 -0.0841  0.3124 -0.3427
 6333W        W10397   7.759   1.254  10.644  0.1068 -0.2137  0.0071
 6334W        W10398  10.401   7.786   2.128  0.0379  0.6893  0.0809
 6335W        W10399  10.210   5.828   1.749 -0.0513  0.1307  0.1048
 6336W        W10400   2.132   8.083   1.306 -0.2310  0.0788 -0.1306
 6337W        W10401  10.817   2.160   0.296  0.0982  0.2770 -0.1468
 6338W        W10402   1.150   4.184   0.019  0.4824  0.0657 -0.0320
 6339W        W10403  10.106   5.561   3.336 -0.1130 -0.1041 -0.1405
 6340W        W10404   1.787   6.368   9.373 -0.1267  0.3312 -0.0810
 6341W        W10405   3.122   0.228   8.859 -0.0706 -0.0924  0.1236
 6342W        W10406   1.364   8.157   8.916 -0.0931 -0.2161 -0.2756
 6343W        W10407   2.862   6.866   1.926  0.2525  0.0412 -0.1954
 6344W        W10408   4.239   8.687   9.971  0.1105 -0.2793  0.0309
 6345W        W10409   7.582   3.036   0.040  0.0244  0.0988 -0.0501
 6346W        W10410   8.416   1.484   0.490  0.2733 -0.2027 -0.0204
 6347W        W10411   8.809   4.429   8.418 -0.0727 -0.1918  0.0886
 6348W        W10412   8.538   9.670   9.613 -0.1037 -0.3572  0.1875
 6349W        W10413   3.522   8.257   8.500  0.3528 -0.0738  0.1340
 6350W        W10414  10.299   5.575   7.725 -0.0403  0.0548 -0.0906
 6351W        W10415   3.008   0.274   2.890  0.1587  0.1411 -0.0161
 6352W        W10416   5.297   4.103   1.441  0.3023  0.1215 -0.0519
 6353W        W10417   4.300   4.868   9.616 -0.4875  0.4266  0.4189
 6354W        W10418   9.051   5.235   9.842  0.1707 -0.0039  0.0368
 6355W        W10419   3.887  10.235   1.795  0.2934  0.0375  0.1939
 6356W        W10420   7.587   5.282   9.865  0.0884 -0.0303  0.2556
 6357W        W10421   2.291   7.535   0.332 -0.1878  0.1169 -0.2030
 6358W        W10422   5.699   4.824   2.009  0.1217  0.0155  0.1318
 6359W        W10423   6.544  10.585   1.685  0.1186  0.1938  0.2698
 6360W        W10424   7.914   7.678   7.688 -0.0515  0.1792 -0.0655
 6361W        W10425   5.485   3.234   3.384 -0.2036  0.0596  0.0305
 6362W        W10426   0.333   4.682   0.000  0.2792  0.0671  0.0482
 6363W        W10427   1.081  10.644   0.817 -0.2547 -0.2135  0.2785
 6364W        W10428  10.873   8.971  10.071 -0.1705  0.1744  0.4940
 6365W        W10429   1.638   2.604   0.255 -0.4317  0.1194  0.3656
 6366W        W10430   3.019   1.976   3.276 -0.4003  0.0330  0.1978
 6367W        W10431   7.443   2.968   1.267  0.2704 -0.1389  0.1966
 6368W        W10432   6.650   9.474   0.954  0.1661  0.0258 -0.1896
 6369W        W10433   5.489   5.207   2.455  0.1489 -0.0465 -0.0569
 6370W        W10434   5.608   3.924   9.666 -0.2299  0.0646 -0.0225
 6371W        W10435   3.500   0.643   1.875  0.0668 -0.2515 -0.0519
 6372W        W10436   6.316   3.615   6.823 -0.0296  0.0135 -0.2944
 6373W        W10437   8.895   8.945  10.770 -0.2643  0.1160 -0.2672
 6374W        W10438   2.625   6.670   9.434 -0.0120  0.1668 -0.0075
 6375W        W10439   6.936  10.389   7.296  0.0507  0.0039  0.0557
 6376W        W10440   3.053   3.771   9.321 -0.4068  0.2426  0.0574
 6377W        W10441   8.158   2.653   8.643  0.0565 -0.2470 -0.0088
 6378W        W10442   1.839   4.345   2.587 -0.1548  0.0946  0.2291
 6379W        W10443   6.628   7.350   1.555 -0.1487 -0.3282  0.2353
 6380W        W10444   2.569   5.727   9.277 -0.3264 -0.0432 -0.0651
 6381W        W10445  10.805   6.995  10.846  0.0459  0.1448 -0.3241
 6382W        W10446   6.656   2.965   0.103 -0.1493 -0.3381 -0.1750
 6383W        W10447   6.110   2.770   0.241 -0.2449  0.1082 -0.1643
 6384W        W10448   6.889   1.619   1.253  0.0309  0.0316 -0.1175
 6385W        W10449   4.246  10.522   2.198  0.1061  0.1050  0.2559
 6386W        W10450   4.512   9.225   2.720 -0.0973  0.1302  0.0320
 6387W        W10451   6.019   3.405   3.324  0.1132 -0.3212 -0.0817
 6388W        W10452   2.696   4.454   4.290 -0.0915 -0.0301  0.1852
 6389W        W10453   3.141   4.856   0.358  0.0380  0.1612  0.1900
 6390W        W10454   4.593   9.292   8.672  0.2720  0.2733  0.0055
 6391W        W10455   4.247   2.921   1.594  0.2499  0.1011 -0.0294
 6392W        W10456   7.302  10.414   0.907 -0.2715  0.2197 -0.0504
 6393W        W10457   1.624   2.573  10.333  0.3037  0.1054 -0.0302
 6394W        W10458   8.443   0.172   9.585  0.1709 -0.0543  0.3606
 6395W        W10459   6.333   7.875   8.490 -0.0390  0.0299  0.0076
 6396W        W10460   1.460   7.171   0.201 -0.0063  0.2068 -0.0555
 6397W        W10461  10.270  10.691   0.595  0.6290  0.0793  0.1941
 6398W        W10462   1.260   8.040   8.420 -0.1764  0.1153  0.1855
 6399W        W10463   1.113   0.653   0.680 -0.0894  0.0859 -0.1246
 6400W        W10464   4.626   4.423   9.741 -0.1501  0.0369 -0.1614
 6401W        W10465   6.817   8.808   8.105 -0.0883  0.1065  0.2405
 6402W        W10466   6.567   9.423   3.083 -0.2110  0.1727 -0.2707
 6403W        W10467   2.613   2.053  10.946 -0.1041 -0.0849 -0.0950
 6404W        W10468   7.190   5.665  10.350 -0.1048  0.2683 -0.1058
 6405W        W10469   3.559   3.562   1.563 -0.0144 -0.1497 -0.1742
 6406W        W10470   5.958   0.635  10.338  0.2334  0.4114 -0.1598
 6407W        W10471   6.446   2.157   1.350  0.1017  0.2712 -0.0642
 6408W        W10472   3.420   5.626  10.595 -0.1654 -0.0100 -0.0604
 6409W        W10473   1.445   9.757   8.289 -0.1155 -0.0323  0.2081
 6410W        W10474   9.503   8.072   2.966 -0.1243  0.0410 -0.3356
 6411W        W10475   6.123   7.686   2.135 -0.1900  0.0590 -0.1685
 6412W        W10476   1.833   1.725   8.016  0.0498 -0.0803 -0.1081
 6413W        W10477   0.079  10.517   3.452  0.0005  0.0002  0.2280
 6414W        W10478   9.211   8.250  10.914 -0.0560  0.2184 -0.3261
 6415W        W10479   9.741  10.437  10.730  0.0498  0.2625  0.4664
 6416W        W10480   1.261   7.446   8.405  0.0943 -0.0570  0.3589
 6417W        W10481   3.241   7.411   0.723  0.0705  0.0320 -0.1068
 6418W        W10482   0.066   5.354   2.355  0.3216 -0.0102  0.0296
 6419W        W10483   3.898   7.173   2.451 -0.0922 -0.2117 -0.0830
 6420W        W10484   4.814   4.584  10.537  0.2439 -0.0377  0.0975
 6421W        W10485   8.087   8.773  10.097  0.0585 -0.5213 -0.0925
 6422W        W10486   7.713   5.157  10.757  0.0728  0.0497  0.0383
 6423W        W10487   0.960   2.323   0.912  0.2016  0.0419 -0.0245
 6424W        W10488   7.437   4.054   0.994  0.0345 -0.0457  0.0442
 6425W        W10489  10.210   5.122   0.993  0.0041 -0.1153 -0.0913
 6426W        W10490  10.054   1.317  10.414  0.2613  0.1239  0.1297
 6427W        W10491   9.333   6.095   7.749 -0.4931  0.2712 -0.1741
 6428W        W10492   8.642   0.869   2.169  0.1249  0.0770  0.2673
 6429W        W10493   5.770   5.271   7.362 -0.2919  0.1358  0.3049
 6430W        W10494   3.927   7.999   0.171  0.0349 -0.0290  0.1415
 6431W        W10495   9.938   1.310   2.270 -0.1744 -0.0468 -0.3969
 6432W        W10496  10.696   5.065   2.645  0.4865 -0.1632 -0.3581
 6433W        W10497   4.250   1.127   0.324 -0.2759  0.0477  0.1315
 6434W        W10498  10.123   6.810   9.461 -0.2653 -0.0606 -0.0787
 6435W        W10499   7.172   4.511   0.838 -0.0431 -0.1120  0.3097
 6436W        W10500   5.204   5.147   2.020  0.3930  0.0532  0.0073
 6437W        W10501   5.882   9.179   8.944  0.1010  0.0287 -0.0628
 6438W        W10502   7.977   7.680   8.736 -0.0995  0.1391  0.1330
 6439W        W10503   6.121   9.829   8.431  0.0339 -0.1619  0.2904
 6440W        W10504  10.542   0.681  10.930  0.1273  0.2953  0.0326
 6441W        W10505   7.545   8.358   9.822 -0.2817 -0.0258  0.2057
 6442W        W10506   5.987   8.216   9.317  0.1428  0.2315  0.1937
 6443W        W10507   5.183   1.680   1.962  0.0341  0.1021 -0.2214
 6444W        W10508   9.230   9.768   0.531  0.1631  0.0305  0.0022
 6445W        W10509   1.948   4.854   0.148  0.1396  0.2387  0.0881
 6446W        W10510  10.893   3.590   8.386 -0.0994 -0.2708 -0.2885
 6447W        W10511   6.756   6.953   9.999 -0.1741  0.0964  0.0234
 6448W        W10512   0.142   6.938   9.641  0.1159 -0.1157  0.1947
 6449W        W10513   4.573   7.435   3.030  0.0960 -0.0948  0.1667
 6450W        W10514   7.750   6.684  10.985  0.1838 -0.0411  0.2810
 6451W        W10515   1.822   4.990   9.430 -0.0138  0.2822 -0.0333
 6452W        W10516   3.924   1.857   0.526  0.1016  0.0740  0.1566
 6453W        W10517   5.025   9.699  10.310  0.2523 -0.0217  0.2878
 6454W        W10518  10.211   6.978   9.025 -0.0726  0.0793  0.1927
 6455W        W10519   2.465   9.176   1.564 -0.0805 -0.1379  0.2804
 6456W        W10520  10.817   0.193   2.186 -0.0935  0.1061  0.0266
 6457W        W10521   2.996   6.841   2.369 -0.0208 -0.0660 -0.3248
 6458W        W10522   8.921   0.751   1.737  0.1926 -0.1748  0.0603
 6459W        W10523   4.878   6.605  10.203  0.1020 -0.1601 -0.0342
 6460W        W10524   9.836   2.770  10.183  0.0352 -0.1798  0.0216
 6461W        W10525   6.336   4.657   1.241  0.1028 -0.0349  0.2520
 6462W        W10526   2.851  10.488   8.539 -0.1952 -0.0241  0.1158
 6463W        W10527   5.562   4.591   9.276  0.0724 -0.0053  0.0257
 6464W        W10528   0.033   3.465  10.710 -0.0988  0.0290 -0.2283
 6465W        W10529   5.862   5.794   7.343  0.1327 -0.1146  0.0252
 6466W        W10530   4.056   9.150   3.941  0.1981  0.3713 -0.3960
 6467W        W10531   7.138   5.841   2.541 -0.0442 -0.0122 -0.0071
 6468W        W10532   1.811   7.736   2.291 -0.1155  0.0439 -0.2324
 6469W        W10533   3.567   5.140  10.705 -0.0537  0.1210 -0.2255
 6470W        W10534   9.191   7.848   8.232  0.0194 -0.3164  0.0333
 6471W        W10535   9.881   5.781   0.276  0.1585 -0.0429  0.3053
 6472W        W10536   1.330   9.793   2.915 -0.0444 -0.0173 -0.0612
 6473W        W10537   7.403   3.530   3.297 -0.0187 -0.0630  0.0759
 6474W        W10538   0.976   4.616   8.750 -0.1633 -0.0866 -0.2277
 6475W        W10539   7.945   6.152   1.633  0.2822  0.0971 -0.0125
 6476W        W10540   8.857   5.699   1.541  0.2652  0.0448 -0.3874
 6477W        W10541   1.089   2.959   8.514 -0.0377 -0.0229 -0.2716
 6478W        W10542   2.755   5.461   1.211 -0.0201 -0.0104  0.1375
 6479W        W10543   9.553   0.293   0.293 -0.4543 -0.0159  0.0124
 6480W        W10544   2.531   0.659   9.607 -0.0013  0.2142  0.1619
 6481W        W10545   9.475   2.864   8.434  0.1715  0.0341 -0.0836
 6482W        W10546   1.272   8.941   7.836  0.1116 -0.0924  0.1114
 6483W        W10547   1.230   6.815   3.301 -0.1465  0.1205  0.0443
 6484W        W10548  10.598   2.475   7.621  0.2494 -0.0350 -0.0587
 6485W        W10549   0.009   8.138   0.592  0.1764  0.0867 -0.1025
 6486W        W10550   2.055   9.810   2.555 -0.1819  0.1885  0.3179
 6487W        W10551  10.736   8.679   9.056 -0.1945  0.1201  0.1012
 6488W        W10552   0.798   1.204  10.924  0.1399  0.1621 -0.1019
 6489W        W10553  10.159   7.566   8.298 -0.1328 -0.4737  0.2616
 6490W        W10554   1.720   2.908   3.393  0.3395  0.0329 -0.1315
 6491W        W10555   2.740  10.517   1.586  0.1017  0.3046  0.0069
 6492W        W10556   3.110  10.478   1.251  0.0436 -0.1471  0.1117
 6493W        W10557   1.918   3.345   8.722  0.0721  0.0719 -0.0447
 6494W        W10558   6.134   5.839   2.785  0.2807  0.0983 -0.2296
 6495W        W10559   2.403   9.008   3.377  0.1301 -0.4369  0.1229
 6496W        W10560   1.992   4.025   9.897  0.3180  0.1585  0.0848
 6497W        W10561   9.421   0.976   0.878  0.0961 -0.2624  0.0466
 6498W        W10562   1.619   7.721   7.642 -0.3306  0.0029  0.0794
 6499W        W10563   6.293   0.258  10.444  0.3651 -0.0584  0.0053
 6500W        W10564   0.488   7.957   0.537 -0.0364 -0.1362 -0.0264
 6501W        W10565   5.183   0.326   0.961 -0.2721  0.2691 -0.2182
 6502W        W10566  10.033   9.027  10.560  0.0582 -0.2018  0.3057
 6503W        W10567   1.600   8.597   9.027 -0.3300  0.1344 -0.0864
 6504W        W10568   1.051   4.207   7.557  0.2556  0.2136 -0.1458
 6505W        W10569   7.112   8.333   2.937  0.0375  0.0485  0.1538
 6506W        W10570   1.180   2.489  10.586 -0.1981  0.4488  0.1280
 6507W        W10571   4.235   4.221   0.645  0.2261  0.1103  0.2430
 6508W        W10572   5.559   3.209   0.355 -0.6314  0.0228 -0.0679
 6509W        W10573   5.512   6.643   8.499  0.1173  0.3920  0.0502
 6510W        W10574   5.537   0.441   0.027 -0.1031  0.3288 -0.2080
 6511W        W10575   8.359   3.624   0.621 -0.0424 -0.3555 -0.3408
 6512W        W10576   9.377   4.631   7.583 -0.0954  0.0528  0.2845
 6513W        W10577  10.441   8.903   3.755 -0.0151 -0.0456 -0.0102
 6514W        W10578   0.126   1.785   3.563  0.0678 -0.0898  0.1128
 6515W        W10579   6.610  10.281   3.105 -0.2811  0.0138 -0.1567
 6516W        W10580   5.440   6.805  10.053  0.1115  0.0759 -0.0848
 6517W        W10581   2.113   1.448   0.569  0.0252 -0.0881  0.4951
 6518W        W10582   8.962   2.148   0.754  0.0923 -0.2662  0.3500
 6519W        W10583   5.595   4.500   1.536 -0.2321  0.1644 -0.1681
 6520W        W10584   3.200   8.177   1.767  0.0695 -0.0063 -0.0113
 6521W        W10585   9.470   3.137   0.638 -0.1783  0.1520  0.4996
 6522W        W10586   8.187   6.410   0.692  0.1019  0.0603  0.3233
 6523W        W10587   1.686   5.498   7.158 -0.0087  0.1184  0.3117
 6524W        W10588   6.749   5.692   9.625  0.1916  0.1705  0.1149
 6525W        W10589   2.241   6.106   0.232 -0.0116  0.0791 -0.2404
 6526W        W10590   4.151   2.907   8.204  0.1457 -0.0650  0.1770
 6527W        W10591   5.413   1.509   8.981 -0.3752  0.0217  0.1683
 6528W        W10592   8.434   1.938   8.158  0.1154 -0.0731 -0.1848
 6529W        W10593   0.773   6.171  10.409 -0.0371 -0.0571 -0.0547
 6530W        W10594   3.120   3.462  10.883 -0.0102 -0.0208 -0.0649
 6531W        W10595   3.305   2.956   9.189  0.1860 -0.0699 -0.0687
 6532W        W10596   5.598   5.018   7.778 -0.3114 -0.2663 -0.2489
 6533W        W10597   8.554   3.881   0.221 -0.2987  0.0873  0.0088
 6534W        W10598   3.426   1.321   9.268 -0.0961 -0.0097  0.1638
 6535W        W10599   4.259   9.493  10.652  0.0019 -0.2134 -0.0051
 6536W        W10600   5.025   3.099   3.292 -0.2094  0.1823 -0.1716
 6537W        W10601   6.558   2.355   3.425  0.2810 -0.3875  0.0347
 6538W        W10602   4.443   1.702  10.106 -0.1469  0.3514 -0.2079
 6539W        W10603   1.994   5.441  10.422  0.0053 -0.1225 -0.3213
 6540W        W10604   1.102   4.680   1.269  0.4082  0.0645 -0.1120
 6541W        W10605  10.482   0.211   0.706 -0.2055 -0.1527  0.0559
 6542W        W10606  10.388   0.141   3.085 -0.1477 -0.0492 -0.0013
 6543W        W10607   4.156   3.403   1.575 -0.2290  0.0528  0.0731
 6544W        W10608   2.145   1.448  10.284 -0.0098  0.0164 -0.0946
 6545W        W10609   1.150   6.335   0.575  0.0771  0.1074 -0.0889
 6546W        W10610  10.598   3.523   3.295  0.0026 -0.2467 -0.2841
 6547W        W10611   1.240   3.792   9.031  0.1318  0.0205 -0.3024
 6548W        W10612   3.337   7.406   3.291  0.2189  0.1689 -0.0230
 6549W        W10613   8.887   2.949   9.157 -0.1477  0.0949  0.0467
 6550W        W10614   9.354   7.850   9.917  0.2139  0.0247 -0.1365
 6551W        W10615  10.305   4.543   0.130 -0.2936 -0.0499  0.1586
 6552W        W10616   8.335   5.296   2.256 -0.0784  0.4424  0.0126
 6553W        W10617  10.738   2.769   2.238  0.2223  0.1040 -0.1210
 6554W        W10618   0.387   3.993   9.221  0.0135 -0.2286 -0.1893
 6555W        W10619   9.313   4.022   2.768  0.0330 -0.1629 -0.0083
 6556W        W10620   9.986   3.342   7.961  0.2126 -0.0669  0.0361
 6557W        W10621   9.410   5.704   9.060  0.2286  0.0307 -0.1043
 6558W        W10622   4.617   5.973   0.651  0.0661 -0.0496 -0.0171
 6559W        W10623  10.895   2.922   2.755 -0.0826  0.0905 -0.1641
 6560W        W10624   9.489   8.436   9.624 -0.3752 -0.2540 -0.0366
 6561W        W10625   4.243   8.053   1.620  0.0872  0.0929  0.1743
 6562W        W10626   1.899   5.924   2.374 -0.0288  0.0817  0.1882
 6563W        W10627   8.053   6.547   1.332 -0.1399 -0.0766  0.0551
 6564W        W10628  10.296   5.254   0.561  0.0520 -0.0830  0.2520
 6565W        W10629   1.967   8.407   9.299 -0.1421 -0.0088  0.2024
 6566W        W10630   1.218   6.346  10.293 -0.0151 -0.2509 -0.1872
 6567W        W10631   0.855   2.850   1.005 -0.1795  0.2263  0.1834
 6568W        W10632   0.052  10.409   9.649 -0.0080 -0.2397  0.0421
 6569W        W10633   7.501   2.879  10.186 -0.0235 -0.0478  0.1020
 6570W        W10634   2.466   8.973   8.552 -0.1942  0.1781  0.1413
 6571W        W10635   6.615   5.088   1.276 -0.2887 -0.2843  0.2358
 6572W        W10636   6.426   8.704   2.255  0.1939  0.0304 -0.2537
 6573W        W10637   8.432   7.950  10.317 -0.1326  0.0527 -0.3205
 6574W        W10638   1.010   4.962   8.338 -0.2092 -0.2697  0.1877
 6575W        W10639   8.155  10.157   8.977 -0.0473 -0.2633  0.0300
 6576W        W10640   7.253  10.281   9.052  0.0113 -0.0246 -0.3186
 6577W        W10641   9.753   4.242   2.559 -0.0519  0.0404  0.0380
 6578W        W10642   8.164   7.033   1.583  0.3429  0.2240  0.1164
 6579W        W10643   4.602   9.569   2.247 -0.1256  0.1364  0.1795
 6580W        W10644   6.785   0.686   9.120 -0.0384 -0.0539  0.0480
 6581W        W10645   6.436   0.771  10.446  0.1503 -0.1544 -0.0231
 6582W        W10646   3.580  10.611   0.614 -0.0023  0.0652  0.0234
 6583W        W10647   8.413   4.441   2.970 -0.0778 -0.0130  0.2835
 6584W        W10648  10.327   3.699   7.891 -0.2942 -0.0539  0.0645
 6585W        W10649   3.814   6.850   2.821  0.0245 -0.1235  0.1461
 6586W        W10650   7.282   5.404   0.579  0.2316  0.0363 -0.0774
 6587W        W10651   0.352   6.103   9.782 -0.2680 -0.2493 -0.2282
 6588W        W10652   8.167   3.843  10.463  0.3336  0.2746  0.0434
 6589W        W10653   5.127   2.312  10.939 -0.0880  0.3189 -0.1313
 6590W        W10654   0.526   4.827   8.111  0.2844  0.1712 -0.1337
 6591W        W10655   3.738   3.509  10.586  0.1279 -0.3814 -0.1536
 6592W        W10656  10.790   0.858   2.392  0.1800  0.0536 -0.3768
 6593W        W10657   2.998   7.338   2.035 -0.0315 -0.1328 -0.0148
 6594W        W10658   9.399  10.287   1.253 -0.2661 -0.1729 -0.0532
 6595W        W10659   6.841   6.685   0.876  0.0479 -0.2501 -0.1676
 6596W        W10660   7.986   1.113   9.505  0.1752 -0.3774  0.1921
 6597W        W10661   5.048   0.070   8.685 -0.0518 -0.1486  0.2123
 6598W        W10662   0.075  10.421   7.981 -0.0426  0.0507  0.0999
 6599W        W10663   2.417   7.703   2.852 -0.1376 -0.3923  0.0862
 6600W        W10664  10.565   1.865   9.572 -0.0439  0.0647  0.0408
 6601W        W10665   1.255  10.782   4.075 -0.1149  0.0029 -0.2518
 6602W        W10666   0.957   1.906   1.313 -0.2622  0.1092  0.2076
 6603W        W10667   6.948   4.055   0.784 -0.1533 -0.0070  0.2275
 6604W        W10668   2.536   5.695   7.682 -0.1442 -0.2243 -0.1770
 6605W        W10669   4.501   2.008   9.608 -0.3324  0.0586  0.2764
 6606W        W10670  10.428   9.139   9.755 -0.0299  0.2401  0.3519
 6607W        W10671   9.575   6.867   0.177  0.1828  0.1949 -0.5049
 6608W        W10672   5.301   3.480   8.157 -0.3009 -0.1603  0.1669
 6609W        W10673   1.906   9.173   0.476 -0.0485  0.2064 -0.1863
 6610W        W10674   8.783   0.336   0.646 -0.1290 -0.0571 -0.0762
 6611W        W10675   5.187   7.197  10.303  0.3917  0.2924 -0.1406
 6612W        W10676   8.339   6.721   9.784  0.0011  0.0632 -0.3802
 6613W        W10677   2.960   4.625   7.646 -0.0915 -0.2170 -0.1931
 6614W        W10678   2.533   7.606   1.584  0.0604 -0.0398 -0.1725
 6615W        W10679   2.916   2.590   3.280  0.1804 -0.0385 -0.1364
 6616W        W10680   8.379   8.935   3.424 -0.2584 -0.0611  0.2120
 6617W        W10681   0.226   8.481   9.358 -0.1381  0.0679  0.0387
 6618W        W10682   3.259   6.589   8.786  0.0178  0.2068  0.1677
 6619W        W10683   1.465   0.293   9.310 -0.0027  0.1269 -0.1193
 6620W        W10684   8.117   9.645   8.900 -0.1480 -0.1110 -0.1021
 6621W        W10685  10.853   3.054   0.408  0.4664  0.1967 -0.2850
 6622W        W10686   3.334   0.652   3.490 -0.1128 -0.0288 -0.0721
 6623W        W10687   2.584   1.481   1.815  0.2561  0.3163 -0.1399
 6624W        W10688   3.405   8.840   8.637 -0.1731  0.3598 -0.0050
 6625W        W10689   6.217   8.043   1.221 -0.2638 -0.1823  0.0689
 6626W        W10690  10.757   1.490  10.409  0.1493  0.1164 -0.1692
 6627W        W10691   0.050   0.481   0.751 -0.1091  0.3179 -0.1587
 6628W        W10692   1.667   7.865   1.379 -0.2925 -0.2719 -0.0567
 6629W        W10693   8.772   5.311   8.267  0.1765 -0.1318  0.0286
 6630W        W10694   4.594   8.257   0.376 -0.0547  0.2920  0.0714
 6631W        W10695  10.659  10.584   3.802 -0.0145 -0.0759 -0.1082
 6632W        W10696   0.198   2.483   9.690 -0.0168 -0.0898  0.0981
 6633W        W10697  10.892   1.194   2.030  0.1294  0.1582 -0.2647
 6634W        W10698   2.196   2.196   8.912 -0.3701  0.1626 -0.0373
 6635W        W10699   2.261   6.621   1.409 -0.1356 -0.2623  0.0894
 6636W        W10700   5.989  10.746   9.294  0.4836  0.2970  0.0694
 6637W        W10701   1.931   4.709   3.495 -0.1255 -0.1092  0.1255
 6638W        W10702   3.586   3.856   8.260  0.0323  0.1170  0.2744
 6639W        W10703   3.842   7.447   7.238  0.0705 -0.0538  0.0115
 6640W        W10704  10.694   3.164   8.486  0.0379  0.0379 -0.1444
 6641W        W10705   1.889  10.567  10.305 -0.0529 -0.2277 -0.0445
 6642W        W10706  10.607   0.615   3.242 -0.1491 -0.2105 -0.1184
 6643W        W10707   5.171   6.606   2.108 -0.2253  0.2651 -0.2019
 6644W        W10708   8.554   2.138   1.291 -0.0949 -0.0307 -0.0894
 6645W        W10709  10.230   5.633  10.517 -0.0296  0.2205  0.2663
 6646W        W10710   9.361   2.576   8.010  0.2942 -0.4844 -0.0929
 6647W        W10711   4.686   7.017   1.744 -0.4796 -0.0660 -0.2137
 6648W        W10712   8.302   1.215  10.940 -0.0061  0.0502 -0.2179
 6649W        W10713   8.591   5.543   1.910  0.1109  0.3745 -0.0034
 6650W        W10714   7.016   7.556   1.782  0.1031  0.1694 -0.1402
 6651W        W10715   8.638   3.410   0.967 -0.1017  0.1804 -0.0419
 6652W        W10716  10.646   0.323   9.067  0.0171  0.1355 -0.0127
 6653W        W10717  10.553   1.358   2.322 -0.0741  0.0150 -0.1690
 6654W        W10718   8.278  10.623   3.827 -0.3290 -0.1124 -0.2941
 6655W        W10719   5.362   6.935   8.863  0.0901  0.1658  0.4488
 6656W        W10720  10.000   6.111   7.951 -0.2519 -0.2137  0.1403
 6657W        W10721  10.486   0.937   1.865 -0.1206  0.0181 -0.2112
 6658W        W10722   7.251   0.836   1.146 -0.0646 -0.2865  0.3310
 6659W        W10723   8.608   8.476   8.827 -0.0335  0.3408 -0.0118
 6660W        W10724   7.580   3.594   9.883  0.2122 -0.1212  0.0564
 6661W        W10725   7.717   9.772   0.317 -0.0650 -0.0084  0.1522
 6662W        W10726   6.660   1.087   8.080  0.3360  0.2788  0.1727
 6663W        W10727   2.733   9.199   0.080 -0.0329 -0.0367 -0.1086
 6664W        W10728   9.433   0.639   2.555  0.2010  0.2544  0.0615
 6665W        W10729   0.778   7.988   1.405  0.1135  0.2242  0.2280
 6666W        W10730   8.898   3.669   1.334  0.1920  0.0190 -0.2145
 6667W        W10731   0.466   9.210  10.882  0.1419  0.1165  0.0424
 6668W        W10732   0.763   0.232   1.609 -0.2245  0.1207  0.3478
 6669W        W10733   7.185   9.459   1.114 -0.1823  0.0090  0.2314
 6670W        W10734   9.211  10.239   8.860  0.0334  0.3078 -0.1186
 6671W        W10735   0.899   7.096   0.244  0.0178  0.1814  0.0545
 6672W        W10736   7.662  10.521   1.277 -0.2157  0.2560 -0.0839
 6673W        W10737   8.569  10.122   1.622  0.1401  0.1603 -0.0236
 6674W        W10738   5.957   0.881   9.069  0.0637  0.0655  0.0825
 6675W        W10739  10.310   8.741   1.206  0.2109  0.0476 -0.1108
 6676W        W10740   8.993   9.052   8.268 -0.3071  0.0857 -0.0700
 6677W        W10741   0.853   1.054   2.723 -0.3133 -0.2972  0.0908
 6678W        W10742   1.123  10.023   0.800  0.4130  0.3694  0.2273
 6679W        W10743   1.581   2.808   9.193 -0.0064  0.0362  0.4392
 6680W        W10744   4.417   4.586   1.721 -0.2612  0.0753  0.0593
 6681W        W10745   9.983   4.327   2.022 -0.2159 -0.3950 -0.0216
 6682W        W10746   0.486  10.076   0.238  0.0865 -0.0567 -0.1903
 6683W        W10747   0.474   0.272   8.428 -0.3308  0.4024 -0.2672
 6684W        W10748  10.771   7.929   3.798  0.2999  0.1232 -0.0585
 6685W        W10749   9.861   6.500  10.921  0.1612  0.2729  0.3307
 6686W        W10750   7.773   4.625   7.168 -0.0331 -0.1641 -0.0357
 6687W        W10751   1.503  10.203   7.464  0.1630 -0.0961  0.2356
 6688W        W10752   8.351   4.183   8.486 -0.1059  0.0627  0.1146
 6689W        W10753   0.696   5.800  10.064 -0.1554  0.2925  0.1533
 6690W        W10754   0.507   4.353   9.718  0.0917  0.0918  0.1881
 6691W        W10755   4.399   5.838   0.201 -0.2382  0.1123  0.4110
 6692W        W10756   9.344   8.303  10.143  0.1421 -0.4172 -0.0354
 6693W        W10757   0.689   2.509   0.456  0.0046 -0.0695 -0.3944
 6694W        W10758   7.240   7.818  10.549 -0.1895 -0.2248 -0.0120
 6695W        W10759   2.336   6.389   9.091  0.0488  0.0839  0.0016
 6696W        W10760   6.009   2.937   8.350 -0.0296 -0.1206  0.1108
 6697W        W10761   1.572   0.450   9.755 -0.0563  0.2020  0.1747
 6698W        W10762   8.662   7.571   2.858 -0.0104 -0.0279  0.0947
 6699W        W10763   4.913   9.658   8.300  0.2667 -0.1794  0.0785
 6700W        W10764   8.855   8.634   3.384  0.0276 -0.0655  0.0298
 6701W        W10765   0.995   6.371   2.354  0.1555  0.1627 -0.2198
 6702W        W10766   1.257   1.924   0.727 -0.1552 -0.2100  0.2067
 6703W        W10767   4.611   3.693   2.196 -0.0184  0.1916  0.2496
 6704W        W10768   4.668   2.910   8.027 -0.0303  0.0408 -0.1158
 6705W        W10769   6.165   7.153   9.187  0.0118 -0.0930  0.1237
 6706W        W10770   6.512   2.714   9.968 -0.1840 -0.5477  0.2653
 6707W        W10771   2.065   1.032   1.452  0.2272  0.1622  0.1939
 6708W        W10772   5.039   3.629   9.191  0.0843 -0.3576 -0.4250
 6709W        W10773   6.194   1.894   0.253 -0.1782  0.1119 -0.0327
 6710W        W10774   9.489   3.832   1.153 -0.0909 -0.5269  0.1772
 6711W        W10775   1.857   0.191  10.443 -0.3307 -0.1952 -0.0501
 6712W        W10776   4.860   3.281   8.361  0.2812  0.2490  0.0645
 6713W        W10777   9.504  10.910   1.182 -0.4886 -0.0342  0.2129
 6714W        W10778   8.457   4.793  10.529  0.0183 -0.0665  0.0945
 6715W        W10779   9.829   6.110   0.644 -0.0921 -0.1089 -0.0351
 6716W        W10780   3.600   5.472   0.127  0.0233  0.1939  0.0384
 6717W        W10781   7.773   8.891   1.732 -0.3335 -0.0466 -0.1428
 6718W        W10782   1.509   9.049   2.681  0.1451 -0.3257 -0.3324
 6719W        W10783   0.612   1.977   0.920 -0.0998 -0.1318  0.2522
 6720W        W10784   5.844   1.623   9.620  0.1354 -0.2989  0.2145
 6721W        W10785   7.125   8.738  10.551  0.3574 -0.1776  0.0517
 6722W        W10786   3.934  10.321   7.872 -0.1820  0.5133 -0.0662
 6723W        W10787   4.935   2.023   3.229  0.2294 -0.1547  0.1325
 6724W        W10788   2.888   7.327  10.033 -0.3280 -0.1446 -0.4922
 6725W        W10789   2.563   4.686   0.979 -0.2915  0.2035 -0.0728
 6726W        W10790   2.984   4.455   0.876  0.1398  0.0853 -0.1122
 6727W        W10791  10.810   3.895   0.877 -0.0751  0.2691  0.4510
 6728W        W10792   5.503   6.619  10.535 -0.1303  0.1969 -0.2009
 6729W        W10793  10.232   0.605   2.948  0.0853 -0.2695 -0.3151
 6730W        W10794   5.387  10.842  10.856  0.0477  0.1046 -0.0984
 6731W        W10795   1.850   8.174   7.851 -0.2965 -0.0534  0.1082
 6732W        W10796   7.679   1.521   3.100 -0.1613 -0.0175  0.0301
 6733W        W10797   8.401   5.384   0.059 -0.0509 -0.3398  0.2420
 6734W        W10798   5.647  10.541   0.381 -0.0055  0.1308  0.0586
 6735W        W10799  10.216   1.729   2.461  0.1157  0.0276 -0.1995
 6736W        W10800   6.491   1.140   2.892  0.0264  0.2644 -0.1753
 6737W        W10801   2.193   9.775   3.046 -0.3710  0.4527  0.0248
 6738W        W10802   0.084   6.403   9.351  0.0059 -0.3838  0.2398
 6739W        W10803   4.828   9.688  10.770  0.0139  0.2867 -0.0466
 6740W        W10804   4.028  10.369   3.161  0.2564 -0.0412 -0.0751
 6741W        W10805  10.676   7.611  10.644 -0.0299  0.0434 -0.1233
 6742W        W10806   3.458  10.024   8.612  0.0377 -0.4751  0.2695
 6743W        W10807   2.001   4.988   8.951 -0.4653 -0.0106  0.2013
 6744W        W10808   8.782   9.233   3.248  0.0715  0.1912  0.2718
 6745W        W10809   1.118   2.504   8.275  0.2063  0.1200 -0.2578
 6746W        W10810   3.385   6.311   0.596 -0.1202  0.0964 -0.2424
 6747W        W10811   5.301   0.383   1.653 -0.3813 -0.3317 -0.0989
 6748W        W10812   0.715   4.128   8.550  0.0460  0.2735 -0.0589
 6749W        W10813  10.204   1.734   3.564  0.0008  0.0811  0.0892
 6750W        W10814   6.298   5.716   6.552  0.2740 -0.3334 -0.0625
 6751W        W10815   0.486   7.350   0.363 -0.0228 -0.0637  0.3805
 6752W        W10816   9.654  10.679   2.100  0.2837 -0.3180  0.0303
 6753W        W10817   7.358   1.229   1.408 -0.1423  0.1825 -0.1331
 6754W        W10818  10.075   8.962   3.241  0.2574  0.2571  0.2400
 6755W        W10819   3.672   0.216   1.749  0.1920 -0.1524 -0.1092
 6756W        W10820   6.260   6.364   2.809  0.0992  0.1227  0.1475
 6757W        W10821   7.223   3.742   1.802  0.1854 -0.0149  0.2799
 6758W        W10822   1.769   4.278   8.740 -0.4382 -0.2493  0.0677
 6759W        W10823   6.969   0.647   0.735  0.3080 -0.0316 -0.1272
 6760W        W10824   2.654   9.601   8.994 -0.0722  0.0265  0.3835
 6761W        W10825   9.030   1.890  10.835  0.0168 -0.0728  0.1226
 6762W        W10826   5.401   7.409   2.697  0.0791 -0.1155  0.0510
 6763W        W10827  10.630   6.172   1.920  0.3704 -0.1310 -0.1258
 6764W        W10828   9.578   3.378   8.355 -0.0645  0.0054  0.1819
 6765W        W10829   4.036   2.415   1.891  0.0548 -0.0578  0.0132
 6766W        W10830   5.514   8.559   2.512 -0.0611  0.1597 -0.2856
 6767W        W10831  10.064   0.835  10.292  0.1960 -0.2087 -0.0429
 6768W        W10832   7.903   1.380   1.429  0.1226 -0.1315 -0.1100
 6769W        W10833  10.697   6.065   9.501 -0.2556  0.1430  0.2253
 6770W        W10834   1.865   5.359  10.943 -0.1049  0.3115  0.0283
 6771W        W10835   0.431   4.596   0.455 -0.1102 -0.0405 -0.1944
 6772W        W10836   6.000   8.594   2.533  0.1062 -0.1241  0.3268
 6773W        W10837   9.759   9.411   3.334  0.2127 -0.1251  0.0844
 6774W        W10838   5.961   4.942   0.244 -0.4816 -0.0249  0.3155
 6775W        W10839   4.223   9.963   0.484  0.1809 -0.0650  0.2917
 6776W        W10840   8.785   2.044   0.215  0.0887 -0.1726 -0.0339
 6777W        W10841   6.479   2.492   2.363  0.1513 -0.0915  0.0003
 6778W        W10842   6.808   6.959   7.623 -0.1023  0.1879 -0.2048
 6779W        W10843   9.316   0.863   9.613 -0.2248 -0.2980  0.1714
 6780W        W10844   2.039   2.298   2.351 -0.2951 -0.1448  0.0174
 6781W        W10845   6.719   1.362   1.742  0.0906  0.2732  0.0706
 6782W        W10846   4.692   4.491   0.807  0.2683 -0.0435 -0.0538
 6783W        W10847  10.082   2.210   8.454  0.0595 -0.2080  0.0834
 6784W        W10848   4.698   2.360   0.943  0.2558 -0.3009 -0.2717
 6785W        W10849   3.605   0.009  10.834 -0.1960  0.2139  0.1728
 6786W        W10850   1.896   1.942   0.769  0.4725  0.1105  0.1812
 6787W        W10851   4.273   3.338   9.777 -0.1745  0.0850 -0.0726
 6788W        W10852   8.465   6.264  10.094 -0.1487 -0.2095  0.0096
 6789W        W10853   4.166   8.266  10.294  0.2883  0.2277  0.0100
 6790W        W10854   1.035   4.919   9.780  0.1721  0.0847 -0.0049
 6791W        W10855   4.766   3.733   0.129 -0.3966 -0.1132 -0.1241
 6792W        W10856   3.026   0.653   0.449 -0.0749 -0.0966 -0.1625
 6793W        W10857   3.070   9.872   8.113 -0.0179 -0.1984 -0.2961
 6794W        W10858   5.664   9.562   9.193 -0.3253 -0.0430  0.0308
 6795W        W10859   8.105  10.693  10.873 -0.2956  0.1831  0.0184
 6796W        W10860   7.358  10.649   8.600  0.0754  0.1103 -0.1645
 6797W        W10861   1.090  10.331   1.186 -0.2545  0.0353 -0.3028
 6798W        W10862   4.820   3.239   8.868 -0.0535 -0.1495 -0.0066
 6799W        W10863   2.368   9.788  10.845  0.0199  0.2634  0.2913
 6800W        W10864   6.445   7.355   2.043 -0.0236 -0.0021  0.1494
 6801W        W10865   1.965   7.057  10.342  0.4850 -0.0432 -0.0444
 6802W        W10866   8.130   1.159   1.823 -0.0518  0.1724 -0.1679
 6803W        W10867   7.718   7.905   9.169 -0.4363  0.0117 -0.0810
 6804W        W10868   0.262   7.913   2.531  0.2616  0.0112  0.1252
 6805W        W10869   9.386   8.260   7.959 -0.1247 -0.1323  0.0887
 6806W        W10870   6.358   1.160  10.803  0.1753  0.1517  0.1127
 6807W        W10871  10.347   9.580   1.747 -0.0377  0.0344  0.0045
 6808W        W10872   0.027  10.443   2.967  0.2881  0.1497  0.1747
 6809W        W10873   4.859   2.980   1.132 -0.0766 -0.1751  0.1543
 6810W        W10874   7.233   7.920   9.648 -0.2129 -0.3466  0.1306
 6811W        W10875   0.360   4.502   9.268 -0.0101 -0.0250 -0.2726
 6812W        W10876   4.448   0.605   8.927 -0.5979 -0.2317  0.0372
 6813W        W10877   8.280   7.279   1.026  0.4204 -0.1513  0.0739
 6814W        W10878   2.625  10.010   2.941  0.0580  0.1333 -0.1238
 6815W        W10879   4.033   0.269   8.726 -0.1755  0.0425  0.1695
 6816W        W10880   1.568   2.215   1.954  0.1594 -0.0969  0.0319
 6817W        W10881   1.108   7.021   8.719  0.1627  0.0707 -0.0979
 6818W        W10882   4.528   4.920   3.744 -0.0826 -0.0232  0.2816
 6819W        W10883   3.539   7.877   9.515  0.0064 -0.0819 -0.1881
 6820W        W10884   1.631   9.079   8.917 -0.0322 -0.0083 -0.1555
 6821W        W10885   8.747   8.369  10.079  0.3600  0.0554 -0.2030
 6822W        W10886   7.671  10.260   8.725 -0.4314 -0.2526 -0.1786
 6823W        W10887   6.394   0.175   1.607  0.0138 -0.1799  0.2731
 6824W        W10888   5.129   7.284   1.851  0.3140  0.0190  0.0217
 6825W        W10889   6.664   4.986  10.830  0.3085  0.1324 -0.1313
 6826W        W10890   5.478   0.732   1.321  0.1967  0.0536 -0.0763
 6827W        W10891   6.760   5.124   3.395  0.0215 -0.1020 -0.1191
 6828W        W10892   2.937   0.966   7.932 -0.0689 -0.0422 -0.1332
 6829W        W10893   3.457   2.338   8.510 -0.0060  0.3579  0.1364
 6830W        W10894   9.835   7.217   9.305  0.0428 -0.3088 -0.3127
 6831W        W10895   2.630   7.749   7.929  0.2309  0.0941  0.1611
 6832W        W10896   0.662   9.639   7.730  0.2613 -0.0014  0.1261
 6833W        W10897   2.733  10.576   0.389 -0.1432  0.0461 -0.1034
 6834W        W10898   4.507  10.038   9.641 -0.0450  0.0759  0.0380
 6835W        W10899   0.804   1.788   8.328  0.0593 -0.0343  0.0245
 6836W        W10900   5.106   6.857   0.530 -0.1771 -0.0021  0.0786
 6837W        W10901   5.020  10.561   9.318  0.1188  0.1612  0.1891
 6838W        W10902   5.339   4.946   1.018  0.1820  0.4042 -0.2098
 6839W        W10903  10.497   5.730   0.575 -0.3104  0.1858 -0.2285
 6840W        W10904   3.143   5.258   8.882 -0.3879  0.1979  0.0652
 6841W        W10905  10.135   0.855   3.517  0.2950 -0.0515 -0.0508
 6842W        W10906   6.184   9.751   1.730 -0.1793  0.1796  0.3019
 6843W        W10907   7.017   4.937   9.982  0.2567 -0.2252  0.1215
 6844W        W10908   3.265   2.810   2.834 -0.2288 -0.0249 -0.1390
 6845W        W10909   3.220  10.286   8.277 -0.2378  0.1808  0.1700
 6846W        W10910   9.810   6.332   1.083  0.1834 -0.0480  0.1940
 6847W        W10911   0.332   4.888   0.864 -0.0752  0.4165 -0.0235
 6848W        W10912   7.046   3.040   8.063 -0.2243  0.0053  0.0998
 6849W        W10913   4.167   9.716   9.759  0.4065 -0.1577  0.3361
 6850W        W10914   6.786   9.795   1.816 -0.0911 -0.1627 -0.1125
 6851W        W10915   0.282   2.580   0.132  0.1541  0.0882 -0.2128
 6852W        W10916   8.510  10.130   9.374  0.3804 -0.1707 -0.0095
 6853W        W10917   3.652   7.808   3.584  0.0748  0.0058  0.2117
 6854W        W10918   9.561   4.634   2.200  0.1436 -0.2382  0.1151
 6855W        W10919   3.818   7.540   9.794 -0.1429  0.0336 -0.0629
 6856W        W10920   0.243   3.227   2.432 -0.1449  0.1209 -0.0411
 6857W        W10921   1.795   7.603  10.332  0.1093  0.1870  0.2634
 6858W        W10922   2.798   4.862  10.062  0.0837 -0.2777 -0.2248
 6859W        W10923   9.244   0.969   7.704  0.0808 -0.3494  0.1000
 6860W        W10924   1.397   7.131   2.961 -0.1050  0.0126  0.3829
 6861W        W10925   8.484   0.402  10.501  0.0241 -0.0534 -0.3005
 6862W        W10926   5.788   1.024   7.630  0.0644 -0.3428 -0.1303
 6863W        W10927  10.641   4.827  10.262 -0.0213  0.3508  0.0192
 6864W        W10928   5.923   4.947   1.547 -0.0203 -0.0045  0.3496
 6865W        W10929  10.409   0.571   2.238 -0.1470  0.0825  0.0562
 6866W        W10930   3.636   6.875   3.299 -0.0430 -0.1875 -0.0395
 6867W        W10931   7.227  10.763   1.325 -0.2413 -0.1921 -0.0281
 6868W        W10932  10.148   3.936   1.728  0.2676  0.2154  0.1471
 6869W        W10933   5.831   7.058   1.227 -0.1022 -0.0542  0.0325
 6870W        W10934   7.032   1.451  10.251  0.0801 -0.5213 -0.0143
 6871W        W10935   4.028   1.922   9.557 -0.2098 -0.2164 -0.5984
 6872W        W10936   8.692   8.480   1.072 -0.0819  0.0368  0.2461
 6873W        W10937   1.166   4.635   0.378 -0.2904  0.1323 -0.1188
 6874W        W10938  10.167   7.198   1.244 -0.2360 -0.2476 -0.0954
 6875W        W10939   6.085   0.385   8.554  0.0280 -0.0706  0.0671
 6876W        W10940   4.502   2.652   1.270  0.1247 -0.2250  0.0421
 6877W        W10941   2.505   0.269   9.926 -0.1808  0.2657 -0.1760
 6878W        W10942   9.349   8.359   0.383 -0.0703  0.1769  0.2017
 6879W        W10943   3.914   1.876   2.058  0.2344 -0.1319  0.0742
 6880W        W10944  10.690   6.051   8.496 -0.2030  0.0275  0.1817
 6881W        W10945   7.854   7.083   2.054 -0.3562 -0.1735 -0.1170
 6882W        W10946   9.430  10.163   0.666  0.3359  0.1857  0.0045
 6883W        W10947   8.605   4.799   0.077  0.1558  0.2250  0.1654
 6884W        W10948   9.798   8.625   7.258 -0.0656 -0.4179  0.1794
 6885W        W10949  10.766   2.628   8.967  0.1348  0.0709 -0.1860
 6886W        W10950   5.727   0.516   8.220  0.2211 -0.0390  0.0249
 6887W        W10951   4.539   8.379   7.641  0.0268 -0.2130  0.4463
 6888W        W10952   8.834   4.881   7.660  0.1597  0.1550 -0.1352
 6889W        W10953   4.019   0.351  10.841 -0.0772  0.0240 -0.2613
 6890W        W10954   9.856   1.880   0.613  0.3098  0.1843  0.0650
 6891W        W10955   9.086   0.079   0.297  0.1913 -0.0019 -0.0711
 6892W        W10956   8.702   8.709   2.093  0.1424 -0.1621 -0.0139
 6893W        W10957   7.275   3.792   0.509  0.0814  0.2315 -0.0958
 6894W        W10958  10.332   4.316   9.048 -0.0684 -0.1457 -0.2181
 6895W        W10959   8.762   3.977   7.879  0.1724  0.2010 -0.0399
 6896W        W10960   4.244   3.172   2.503 -0.1984  0.1617 -0.1288
 6897W        W10961   2.616   3.074   1.797 -0.1821  0.2374  0.0206
 6898W        W10962   9.833   3.792   8.179 -0.0959  0.3922 -0.2593
 6899W        W10963   9.983   3.069   0.694  0.1820 -0.0659  0.3909
 6900W        W10964   3.683   0.690   8.239 -0.1145 -0.2300 -0.2789
 6901W        W10965   9.835   2.977  10.754 -0.2614 -0.0417 -0.1556
 6902W        W10966   1.034   6.657   2.870 -0.2579  0.1327  0.3048
 6903W        W10967   1.948   7.283   7.372  0.0715 -0.0252  0.1452
 6904W        W10968   7.151   8.262  10.441  0.1399  0.2192  0.2351
 6905W        W10969   0.407   5.881   1.462  0.2022 -0.1581  0.1156
 6906W        W10970   5.348  10.600   3.721 -0.3897 -0.3816 -0.1617
 6907W        W10971   1.714  10.764   9.095 -0.0710  0.3358 -0.2081
 6908W        W10972   6.814   8.002   2.675 -0.1885  0.1455 -0.1384
 6909W        W10973   8.933   0.484   3.001 -0.2037  0.1823  0.0001
 6910W        W10974   5.570   4.477   9.784  0.1184 -0.0458  0.2041
 6911W        W10975   4.768   1.482  10.464  0.1555  0.4058  0.2430
 6912W        W10976  10.732   7.298   1.519 -0.1105  0.1705 -0.3790
 6913W        W10977   0.798   2.378   2.569 -0.3169  0.2338 -0.2127
 6914W        W10978   3.962   6.134   7.556  0.2967 -0.2107  0.0591
 6915W        W10979   1.128   0.865   8.020 -0.2328  0.2384 -0.1960
 6916W        W10980   8.054   5.717   7.882 -0.1046  0.2227  0.0265
 6917W        W10981   4.912   4.742   1.759  0.1016  0.1451  0.0216
 6918W        W10982   1.870   3.972   0.530 -0.1371 -0.1804 -0.0275
 6919W        W10983   4.100   6.807   0.325  0.1142  0.0698  0.0465
 6920W        W10984   7.873   3.549   2.962  0.1509  0.1114  0.0399
 6921W        W10985   0.348   8.419   8.112  0.2657  0.1575  0.0991
 6922W        W10986  10.290   2.506   8.114  0.0438 -0.0210 -0.0579
 6923W        W10987   6.022   2.958  10.224  0.2941  0.2118  0.1060
 6924W        W10988   3.221   7.716   0.349 -0.0958 -0.0020  0.1770
 6925W        W10989   2.287   1.785   8.187  0.1760  0.0042 -0.3613
 6926W        W10990   0.588   8.241  10.725 -0.1369 -0.0819 -0.2117
 6927W        W10991   9.721   5.092   2.604 -0.1702 -0.0506  0.0241
 6928W        W10992   2.841   0.070   8.488  0.2871  0.0131 -0.3219
 6929W        W10993   0.842   0.799   1.687  0.0010  0.3897 -0.1514
 6930W        W10994  10.573   7.871   2.630 -0.1104  0.0947 -0.0676
 6931W        W10995   4.088   3.943   3.895 -0.4080  0.0904  0.0718
 6932W        W10996   5.299   0.840   2.360  0.2829  0.0259 -0.0835
 6933W        W10997   0.028   7.063   2.925  0.2823  0.0755 -0.3904
 6934W        W10998   2.967   0.953   3.186  0.2008 -0.3141 -0.3625
 6935W        W10999   4.969   2.833  10.346  0.0828 -0.1094 -0.1649
 6936W        W11000   1.161   3.769   0.307  0.5562 -0.1630  0.1609
 6937W        W11001   3.742   5.478   9.773  0.1384  0.0356  0.0611
 6938W        W11002   1.326   7.476   2.079 -0.0975  0.0713  0.1732
 6939W        W11003   5.714   6.419   7.976  0.1375  0.2042 -0.2863
 6940W        W11004   8.299   8.145   0.606  0.2311 -0.3180  0.0698
 6941W        W11005   3.522   6.449   3.014 -0.1902 -0.0303 -0.0750
 6942W        W11006   4.409   9.143   9.203  0.1507  0.0900  0.1803
 6943W        W11007   4.063   7.304   0.246 -0.0798 -0.1120 -0.0739
 6944W        W11008   3.190   5.194  11.001  0.0636 -0.1174 -0.1023
 6945W        W11009   8.496   5.934   8.096  0.0690 -0.4289 -0.0456
 6946W        W11010   3.637  10.779   2.465  0.2041  0.0652  0.2245
 6947W        W11011   0.687  10.443   3.621 -0.0775  0.4111 -0.0290
 6948W        W11012   8.891   3.505   1.820  0.1484 -0.0777  0.3182
 6949W        W11013   0.905   0.247   4.325  0.1905  0.0411 -0.5387
 6950W        W11014  10.238   8.534   1.691 -0.1503  0.3859  0.0994
 6951W        W11015   7.395   1.201   2.767  0.1281  0.2367  0.2532
 6952W        W11016   3.682   7.491   1.558  0.0011  0.1170 -0.1986
 6953W        W11017   0.923   5.820   8.546  0.1637 -0.0532  0.1998
 6954W        W11018   4.143   6.705   1.287  0.2757  0.0032 -0.0948
 6955W        W11019  10.806   6.079   7.954  0.0880 -0.0627 -0.2050
 6956W        W11020   3.412   8.601   2.673 -0.1238 -0.1383  0.2414
 6957W        W11021   0.203   6.845   7.975  0.0483 -0.0320 -0.0110
 6958W        W11022   7.995   1.178   2.877  0.2934 -0.2080  0.0036
 6959W        W11023   1.513   0.265   4.363  0.1827  0.1477  0.0840
 6960W        W11024   9.934   1.003   0.957  0.0235 -0.1575 -0.4260
 6961W        W11025   9.556   6.133   9.214 -0.0265 -0.2594 -0.1625
 6962W        W11026   3.730   1.113   8.880  0.0369  0.1704  0.1895
 6963W        W11027   6.255   1.151   1.941  0.0465 -0.1132  0.1058
 6964W        W11028   1.457   1.781   9.467  0.3632 -0.0623 -0.1305
 6965W        W11029   2.558   6.552   3.467 -0.2567 -0.3040 -0.2090
 6966W        W11030   1.093   3.443   7.971  0.4398  0.1322  0.2320
 6967W        W11031  10.181   3.255   1.152 -0.1880  0.2957  0.0090
 6968W        W11032   8.333   9.044   7.251  0.0018  0.1945  0.2660
 6969W        W11033   6.986   2.423   9.913 -0.1426  0.2245 -0.1732
 6970W        W11034   4.244   7.932   9.458 -0.0670 -0.0636  0.1788
 6971W        W11035   7.505   5.685   2.893  0.1474 -0.2539  0.0948
 6972W        W11036  10.066   3.557   3.296  0.1017 -0.1221  0.0494
 6973W        W11037   1.606   4.949   1.620  0.0605 -0.1390  0.0920
 6974W        W11038   8.215   4.880   9.851 -0.0720 -0.0807 -0.1967
 6975W        W11039   6.159   1.343   1.014 -0.0200 -0.1771 -0.4315
 6976W        W11040   0.063   8.306  10.686  0.0048  0.2765  0.2334
 6977W        W11041   9.330   4.896   1.388  0.6207  0.1046 -0.1027
 6978W        W11042  10.689   7.134   7.014  0.0310 -0.0427 -0.0601
 6979W        W11043   7.590  10.609   0.020  0.1982  0.1032 -0.1562
 6980W        W11044   8.847   3.340   2.943 -0.2199 -0.0929 -0.0531
 6981W        W11045   4.580   3.246  11.025  0.0657 -0.0957  0.1145
 6982W        W11046   7.234   9.769   0.296  0.2325  0.2001  0.3148
 6983W        W11047   8.748   6.371   2.134  0.0833  0.0530 -0.0312
 6984W        W11048   3.287   7.272   1.285 -0.4234  0.1039  0.1751
 6985W        W11049   6.821   8.976   9.733 -0.1835 -0.0315  0.2172
 6986W        W11050   4.907   9.161   8.303 -0.0344  0.0475  0.1089
 6987W        W11051   3.858   5.527   0.992 -0.1674 -0.0487 -0.0896
 6988W        W11052   0.089   7.380  10.329 -0.0585  0.0853  0.0575
 6989W        W11053   6.095   6.777   7.667 -0.1698 -0.0626 -0.2800
 6990W        W11054   8.380   8.590   9.778 -0.1119  0.0744  0.0114
 6991W        W11055   2.320   6.513  10.388 -0.0963  0.1739 -0.0145
 6992W        W11056   4.227   4.487   8.421 -0.0381  0.0061  0.0920
 6993W        W11057   9.441   2.325   3.081 -0.2825  0.2128  0.0731
 6994W        W11058  10.018   6.456   9.016  0.1834  0.1878  0.0326
 6995W        W11059   1.915   4.179   2.003  0.1431  0.0113  0.2567
 6996W        W11060   6.129   3.412   9.824 -0.1977 -0.0261 -0.1869
 6997W        W11061   3.615   1.138   9.785 -0.2497  0.0020  0.0546
 6998W        W11062   9.302   6.475   8.480 -0.1534  0.2585  0.1080
 6999W        W11063   0.965   9.033   9.520 -0.1805  0.5632 -0.2803
 7000W        W11064   5.180   2.834   8.967  0.0225  0.0906 -0.3869
 7001W        W11065   2.049   1.285   7.818  0.3167 -0.0246 -0.0056
 7002W        W11066   7.558   4.784   1.010  0.0979 -0.0205 -0.1659
 7003W        W11067  10.817   6.962   8.448  0.1983  0.0171 -0.0189
 7004W        W11068  10.178   8.592   3.481 -0.2080 -0.0561 -0.2224
 7005W        W11069   0.448   6.487   1.348 -0.0312  0.1707 -0.0324
 7006W        W11070   1.499  10.398  10.569 -0.3473 -0.0252 -0.0240
 7007W        W11071   7.482   3.800   8.433 -0.1134 -0.2057 -0.0281
 7008W        W11072   3.854   8.470  10.817 -0.0036  0.2530  0.0511
 7009W        W11073   3.136   3.750   0.729  0.3825  0.0793  0.1304
 7010W        W11074  10.723   5.917   1.034  0.0217  0.2340 -0.1172
 7011W        W11075   7.953   1.915   0.572 -0.2738 -0.0516 -0.1681
 7012W        W11076   9.555   3.212  10.100 -0.1327 -0.1739 -0.2800
 7013W        W11077   2.154   3.142   3.183 -0.4199 -0.1592 -0.3633
 7014W        W11078   8.566   0.243   1.526  0.2075  0.1192 -0.2003
 7015W        W11079   7.762   5.444  10.373  0.0290  0.2145 -0.0260
 7016W        W11080   8.431   9.091   0.614  0.0184  0.2793  0.0506
 7017W        W11081   9.822   6.565   8.534  0.4857 -0.1356  0.2344
 7018W        W11082   6.233   0.563   0.833  0.0318  0.0521 -0.0232
 7019W        W11083   9.216   3.262   2.525  0.0133  0.3153  0.0481
 7020W        W11084   7.243   3.418   0.885 -0.0065 -0.2166 -0.0163
 7021W        W11085   5.581   7.833  10.116 -0.0280  0.1602 -0.2501
 7022W        W11086   6.733   1.732   7.909  0.0371  0.1495  0.0162
 7023W        W11087   2.727   4.553   0.504 -0.1828  0.0504  0.0372
 7024W        W11088   6.949   6.883   3.357  0.2148  0.1471 -0.1926
 7025W        W11089   5.057   5.984   1.708 -0.1110  0.2275 -0.6181
 7026W        W11090   3.089   7.648  10.916  0.1211 -0.2620  0.0180
 7027W        W11091  10.580   4.953   8.128 -0.0165  0.1986  0.0443
 7028W        W11092   7.110   6.767   2.504  0.1255 -0.0393  0.0890
 7029W        W11093   2.923   2.970   0.140 -0.3682 -0.0698  0.3413
 7030W        W11094   5.491   2.048   9.476 -0.2192 -0.0481  0.0607
 7031W        W11095   2.165   4.174   7.881  0.2451 -0.0971 -0.0681
 7032W        W11096   7.803   0.919   3.331 -0.3638 -0.1196  0.1347
 7033W        W11097   4.879   8.990   8.967  0.3634 -0.1847  0.0333
 7034W        W11098   8.159   6.367   0.153  0.0739  0.0135  0.3124
 7035W        W11099   2.392   7.375   0.902 -0.1030 -0.3431 -0.2894
 7036W        W11100   7.449  10.175   2.469  0.3136 -0.2246  0.2434
 7037W        W11101  10.781   8.183   1.081  0.0912 -0.4614  0.0035
 7038W        W11102   8.277   0.837   8.385 -0.0927  0.2910 -0.2282
 7039W        W11103   5.150   1.900   0.238  0.2382 -0.2656  0.1690
 7040W        W11104   6.842   1.461   8.943 -0.2122  0.1172  0.2661
 7041W        W11105  10.391   0.111   2.405  0.3541  0.0544  0.0561
 7042W        W11106   5.974   0.507   0.374 -0.2694  0.0496 -0.0219
 7043W        W11107   1.947   2.083   1.226 -0.2172  0.1261 -0.2186
 7044W        W11108   8.340  10.521   8.591 -0.3141  0.1778  0.0049
 7045W        W11109   2.150   0.763   3.806 -0.0054 -0.0510 -0.0849
 7046W        W11110   2.498   7.878   0.992  0.0885  0.1116 -0.0768
 7047W        W11111  10.338   2.759   8.625 -0.0197  0.2076 -0.0868
 7048W        W11112   3.679   7.736   3.071 -0.0074 -0.0512 -0.0998
 7049W        W11113   1.136   2.618   0.033 -0.1729  0.0156 -0.1371
 7050W        W11114   2.750   7.265  10.697  0.0691  0.0116 -0.0979
 7051W        W11115   3.520   2.186   9.804 -0.3030  0.1352  0.1635
 7052W        W11116   9.085   0.860   9.091  0.0703 -0.2388  0.1148
 7053W        W11117   1.176   1.948   0.215  0.3753  0.0396 -0.3237
 7054W        W11118   6.878   7.108   8.211 -0.0687 -0.1767 -0.0966
 7055W        W11119   6.557   8.444   8.363  0.1289  0.2038  0.0631
 7056W        W11120  10.625   8.022   9.861  0.0531  0.0655  0.4184
 7057W        W11121   6.403   9.921   2.832  0.0188  0.0575  0.4581
 7058W        W11122   7.043   2.906   9.813 -0.1331 -0.1299  0.0177
 7059W        W11123   8.050   7.720   0.126  0.3616 -0.2853 -0.2492
 7060W        W11124   5.778   5.111   0.720 -0.2047  0.1026  0.3034
 7061W        W11125   5.175   5.154   6.922 -0.1822 -0.1323  0.2685
 7062W        W11126   3.490   0.165   9.965 -0.4072  0.0624  0.0621
 7063W        W11127   6.551   1.272  10.280  0.2084  0.0174  0.1091
 7064W        W11128  10.798   1.590   8.426 -0.2457 -0.2942 -0.4730
 7065W        W11129   9.178   3.119   8.023 -0.0483  0.0069  0.0209
 7066W        W11130   2.952   8.606   2.874  0.2207  0.1185 -0.0521
 7067W        W11131   7.638   8.750   0.338 -0.1261 -0.1346  0.0285
 7068W        W11132   8.236  10.870   8.132  0.0212 -0.1272 -0.1872
 7069W        W11133   4.974   6.883   2.542  0.2659  0.0895 -0.3605
 7070W        W11134   1.703   2.147   2.686 -0.1841  0.2629 -0.2287
 7071W        W11135   1.311   7.678  10.645 -0.2757  0.1812  0.0134
 7072W        W11136   2.729   3.710   1.959  0.1401 -0.2149 -0.0748
 7073W        W11137  10.427   3.078   1.983  0.0081 -0.0503  0.2438
 7074W        W11138   7.195   3.542   2.286 -0.3490 -0.2053 -0.0400
 7075W        W11139   5.875   4.080   0.443 -0.1340  0.0389 -0.1816
 7076W        W11140   8.739   6.589   2.591  0.0243  0.3355 -0.1653
 7077W        W11141   3.529   4.103   2.430  0.0165  0.5600  0.1159
 7078W        W11142   9.597   5.360   1.588  0.2603  0.2676  0.2084
 7079W        W11143   4.965   3.758   1.364  0.2131  0.1824 -0.0413
 7080W        W11144   8.588   4.499   7.911 -0.2905 -0.0681 -0.4972
 7081W        W11145   3.554   3.364  10.080  0.2761 -0.2980 -0.1155
 7082W        W11146   1.923   7.229   9.880 -0.1770 -0.4304  0.1895
 7083W        W11147   3.734   6.066   2.463 -0.1106  0.0330 -0.0621
 7084W        W11148   3.712   0.117   0.344 -0.0929 -0.1029 -0.2629
 7085W        W11149   2.835   8.831   8.914  0.1211  0.0435 -0.1120
 7086W        W11150   4.037   2.239   8.887  0.0312  0.1466 -0.1303
 7087W        W11151   5.410   9.585  10.552  0.1633  0.0869  0.1871
 7088W        W11152   4.106   4.990   8.488  0.3756 -0.2902  0.0307
 7089W        W11153   4.362   4.498   2.423 -0.0814  0.0489  0.0624
 7090W        W11154   6.473   6.780   9.078  0.5104  0.0799 -0.0789
 7091W        W11155   8.549   0.359   8.140 -0.0873 -0.1260  0.0205
 7092W        W11156   4.687   5.317   9.153  0.1162 -0.3612 -0.0407
 7093W        W11157   4.853   0.095   1.596  0.0211 -0.2637  0.3709
 7094W        W11158   7.864   6.182   2.133 -0.0139 -0.0963  0.2876
 7095W        W11159   3.708   1.686  11.031 -0.1151 -0.1657 -0.0667
 7096W        W11160   3.117   5.432   0.861  0.3009  0.0683 -0.0355
 7097W        W11161   5.363   0.836   7.392  0.0608  0.1011 -0.0943
 7098W        W11162   6.011   2.808   7.791 -0.0065 -0.1421 -0.0754
 7099W        W11163   6.784   8.811   8.663  0.0352 -0.1308  0.2885
 7100W        W11164   6.200   1.534   3.099  0.2394 -0.1805  0.0518
 7101W        W11165   9.783   2.597   9.118  0.1394 -0.1263  0.2997
 7102W        W11166   4.674   3.564   9.653 -0.1098  0.0971  0.3537
 7103W        W11167  10.313   9.425   8.846  0.0377 -0.1967 -0.1010
 7104W        W11168   8.033   3.594   1.705 -0.1001 -0.0557  0.2161
 7105W        W11169   5.003   4.174   8.671  0.0551 -0.1064  0.0712
 7106W        W11170   8.400   4.904   1.435 -0.0169  0.1637  0.1337
 7107W        W11171   8.046   4.102   1.634  0.0172 -0.1493 -0.3692
 7108W        W11172   8.975   1.311   2.931 -0.1522  0.2675 -0.0237
 7109W        W11173   7.626   0.965   1.883  0.1130 -0.4536 -0.1624
 7110W        W11174   3.532   5.957   7.729 -0.1826 -0.0038  0.0938
 7111W        W11175   9.491   7.463   9.010 -0.1439 -0.1365  0.1460
 7112W        W11176   2.493  10.091   1.333  0.3000 -0.0365 -0.1771
 7113W        W11177   4.591   4.619   0.011 -0.4585 -0.3309  0.0779
 7114W        W11178   6.800  10.286   2.107 -0.2706 -0.0536 -0.2852
 7115W        W11179   3.049   9.997   1.061  0.0465 -0.3178  0.0464
 7116W        W11180   2.201   4.451   8.309 -0.0347  0.4830 -0.1406
 7117W        W11181   9.682   5.842   3.075  0.1851 -0.0100  0.3515
 7118W        W11182   3.225   7.855   8.605 -0.0693  0.0732  0.2488
 7119W        W11183   2.999   1.852  10.005  0.0188 -0.0792  0.0144
 7120W        W11184   5.667   1.819  10.502 -0.1494 -0.0075  0.1114
 7121W        W11185   2.819   7.614   8.390  0.1144  0.0270 -0.1176
 7122W        W11186   4.500   7.784   3.612 -0.2161 -0.0298 -0.0410
 7123W        W11187   2.366   7.425  10.046  0.4262 -0.1327  0.1526
 7124W        W11188   9.640   6.881   2.574 -0.0670 -0.0441  0.2188
 7125W        W11189   4.846   6.807   3.001  0.1850 -0.1437 -0.0469
 7126W        W11190   6.433  10.654   2.722 -0.2454 -0.0345 -0.3510
 7127W        W11191   4.108   0.492   0.430  0.1040  0.0514  0.3140
 7128W        W11192   4.623   2.160   7.766  0.2716 -0.3095 -0.2452
 7129W        W11193  10.021   9.558   1.366 -0.0981  0.3094 -0.2784
 7130W        W11194   4.375   2.465   8.038  0.0666  0.1568  0.0982
 7131W        W11195   6.318   5.590   8.012  0.0253 -0.2959  0.1806
 7132W        W11196   9.791   7.964   9.734  0.2002 -0.2176  0.0623
 7133W        W11197   5.617   7.320  10.058  0.1018  0.1029  0.1913
 7134W        W11198   0.087   7.447   7.815  0.0854 -0.2510 -0.1798
 7135W        W11199   0.405   1.279   0.655  0.0976  0.2433  0.1127
 7136W        W11200   5.167   1.241   9.333  0.1048 -0.0765 -0.0654
 7137W        W11201   6.819  10.842   8.536  0.0398  0.5429  0.0659
 7138W        W11202   9.162   0.467   7.477  0.2224 -0.0631 -0.0668
 7139W        W11203   2.682   8.482  10.485 -0.1542 -0.1057  0.4341
 7140W        W11204   6.021   3.153   2.482  0.1204 -0.0387  0.2314
 7141W        W11205   2.708   8.029   7.501  0.2191  0.4169  0.1501
 7142W        W11206  10.130   2.920   2.351  0.4319  0.0548  0.1464
 7143W        W11207   0.873   0.934  10.224 -0.3090  0.0567  0.0131
 7144W        W11208   5.299   8.715   9.278 -0.0679  0.3364 -0.3555
 7145W        W11209   9.312   3.697   7.404  0.2109  0.2555  0.1977
 7146W        W11210   7.406   6.837   2.100 -0.1944  0.1120  0.0484
 7147W        W11211   0.928   9.408   3.552 -0.0626  0.1085  0.1100
 7148W        W11212   2.945   3.609   3.346  0.1133 -0.3127 -0.0077
 7149W        W11213   4.631   6.642   1.439  0.5048 -0.4592  0.2472
 7150W        W11214   2.518   4.807   2.856 -0.2217 -0.1597 -0.2700
 7151W        W11215   4.758   1.273   0.708  0.2759  0.1121 -0.2555
 7152W        W11216   6.247   0.164   1.113 -0.1165 -0.0375 -0.2559
 7153W        W11217   2.509  10.353   9.203 -0.2442  0.0562  0.1057
 7154W        W11218   2.355   4.207   2.141 -0.1198  0.4490  0.1542
 7155W        W11219   9.529  10.277   1.807  0.3416 -0.1742  0.2733
 7156W        W11220  10.147   0.742   8.516  0.2993 -0.0406  0.2851
 7157W        W11221   7.500   8.515  10.284 -0.1859  0.0003  0.1314
 7158W        W11222   7.337   6.273  10.288 -0.3872  0.1390 -0.0480
 7159W        W11223   9.334   1.079   8.699 -0.2609  0.0177  0.0719
 7160W        W11224   9.722   2.648   0.676  0.3466  0.1983 -0.1717
 7161W        W11225   6.351   4.353   8.745  0.0014  0.2896  0.2095
 7162W        W11226   3.002  10.611   7.281  0.3424  0.0786  0.5621
 7163W        W11227   4.513  10.365   0.281  0.0163 -0.1217  0.0590
 7164W        W11228   6.020   8.308  10.987 -0.0510 -0.0721 -0.1876
 7165W        W11229   1.881   1.382  10.767  0.2033  0.0426 -0.2888
 7166W        W11230   7.259  10.749   0.380 -0.3792  0.1637 -0.0670
 7167W        W11231   9.572   7.523   0.668  0.0901 -0.3812 -0.0679
 7168W        W11232   1.212   2.597   1.251  0.1398 -0.0944  0.4088
 7169W        W11233   8.399   3.606   2.929 -0.1464  0.2106  0.0715
 7170W        W11234   2.876   7.996   2.129 -0.1491  0.0792 -0.1311
 7171W        W11235   9.806  10.587   1.506 -0.4097 -0.0185  0.0453
 7172W        W11236   2.673  10.276   1.972 -0.0899  0.0791 -0.0286
 7173W        W11237   4.948   8.600   0.648  0.1748 -0.1215 -0.2353
 7174W        W11238   2.630   9.138   8.061 -0.1128 -0.1241  0.0842
 7175W        W11239   4.931   7.662   3.328 -0.1603  0.1343  0.0734
 7176W        W11240   0.229   2.927   8.722 -0.0726  0.0191  0.1509
 7177W        W11241   7.243  10.001   2.022 -0.0159  0.1047  0.0011
 7178W        W11242   4.473   8.309   9.670  0.1259 -0.0952  0.3186
 7179W        W11243   0.631   9.695   2.009 -0.0519  0.0769 -0.0921
 7180W        W11244   9.799   2.298   0.330 -0.2267  0.3096 -0.0994
 7181W        W11245   1.542  10.415   1.525  0.1408 -0.0169  0.0238
 7182W        W11246  10.503   4.213  10.799 -0.1018  0.1228  0.0193
 7183W        W11247   9.195   0.687   0.498 -0.0378  0.1355 -0.1091
 7184W        W11248   8.006   9.355   8.500  0.2097 -0.0145  0.1074
 7185W        W11249   3.377   2.416   3.601 -0.2589 -0.0182  0.0951
 7186W        W11250   3.706   6.260   9.336 -0.1394  0.1087  0.0261
 7187W        W11251   1.651   7.342   8.053 -0.2781 -0.0631  0.0961
 7188W        W11252   8.990  10.070   0.951  0.1725  0.0960 -0.2001
 7189W        W11253   9.114   7.016   0.274  0.0972  0.0595 -0.3956
 7190W        W11254   1.265  10.114   7.951  0.1060 -0.2458  0.0103
 7191W        W11255   5.119   2.595   2.499 -0.0866 -0.2073 -0.0147
 7192W        W11256   1.100   3.403  11.010 -0.1689 -0.0677  0.2466
 7193W        W11257   5.875   4.915   9.961 -0.2546 -0.2468  0.0498
 7194W        W11258   2.598   1.430   7.696  0.2087 -0.0231 -0.3478
 7195W        W11259   2.878   2.621   8.522  0.1281  0.0109  0.2710
 7196W        W11260   9.237   2.730   0.936  0.2199  0.0042 -0.2133
 7197W        W11261   4.616   6.524   9.330 -0.1267 -0.2721 -0.1600
 7198W        W11262   9.528   3.408  10.663 -0.2046  0.1927  0.2051
 7199W        W11263   4.749   5.383   2.101  0.0962  0.2130  0.5041
 7200W        W11264  10.689   5.287   7.809 -0.1159 -0.0210 -0.2441
 7201W        W11265   4.686   4.821   2.146  0.0025  0.0151  0.0302
 7202W        W11266   2.324  10.233   0.714 -0.1537 -0.1356 -0.3039
 7203W        W11267   6.395   6.897   1.196 -0.1987  0.1052  0.0298
 7204W        W11268   8.860   3.233   2.213 -0.0592  0.1996 -0.0864
 7205W        W11269   3.015  10.641   7.933  0.1970  0.0140  0.3444
 7206W        W11270   4.516   2.624  10.310 -0.3388  0.0632  0.0292
 7207W        W11271   1.691   6.913   0.660  0.0443 -0.1123 -0.2116
 7208W        W11272   3.328   1.985   8.802 -0.0348 -0.6165 -0.0122
 7209W        W11273   7.928   6.773   9.082 -0.2649 -0.1817  0.2211
 7210W        W11274   7.893   6.443   7.429  0.0240 -0.1954 -0.2556
 7211W        W11275   3.759   3.357   3.308 -0.0906  0.1727 -0.2152
 7212W        W11276   7.175   3.341  10.183 -0.1483 -0.0900 -0.1018
 7213W        W11277   0.133   0.047   8.762  0.1410  0.1320  0.2665
 7214W        W11278   4.373   4.090   2.807 -0.2758 -0.0206 -0.0536
 7215W        W11279   0.339   7.819  10.126  0.0765  0.1931 -0.0345
 7216W        W11280   9.632   1.332   7.414  0.0233 -0.1330  0.3248
 7217W        W11281   7.585   1.540   0.618 -0.2231 -0.2261  0.1037
 7218W        W11282   1.003   5.062   2.303  0.1801  0.0492  0.3503
 7219W        W11283   7.434  10.087  10.937  0.2932  0.1184 -0.1068
 7220W        W11284   0.191   6.728   2.565  0.2982  0.2245  0.2358
 7221W        W11285   0.520   3.772   0.669 -0.0212  0.3151 -0.2686
 7222W        W11286   1.692   8.544   1.325  0.1991 -0.1588  0.0244
 7223W        W11287   1.711  10.612   6.642  0.3725  0.0695 -0.2327
 7224W        W11288   3.867   9.263   1.242 -0.0137 -0.0308 -0.0747
 7225W        W11289   2.998   0.198   3.823 -0.0662  0.2768  0.1428
 7226W        W11290   2.308   3.462   8.355 -0.2929  0.2414 -0.4031
 7227W        W11291   0.385  10.549   0.401  0.0721 -0.1468  0.3742
 7228W        W11292   0.377   2.066   1.319 -0.1716  0.5451 -0.3563
 7229W        W11293  10.063   8.527   0.690  0.0395  0.3817  0.1386
 7230W        W11294  10.468  10.240   8.165 -0.0048  0.1916 -0.0316
 7231W        W11295   6.856   8.207   8.742  0.2727  0.2007  0.2272
 7232W        W11296   1.280   0.252   3.478 -0.1302 -0.0791 -0.0496
 7233W        W11297   8.765   1.060   8.738  0.0414  0.2001 -0.1122
 7234W        W11298   3.205   1.984  10.962 -0.1929 -0.4095 -0.2503
 7235W        W11299  10.871   1.573   0.045  0.0568 -0.2130 -0.0065
 7236W        W11300  10.694   2.297   2.034 -0.3651 -0.1017  0.0549
 7237W        W11301   5.083  10.386   2.655 -0.2339  0.0376 -0.1656
 7238W        W11302   4.125   1.675   2.952 -0.1360 -0.1750 -0.0673
 7239W        W11303   7.013   4.172   9.371  0.0758 -0.1356  0.3297
 7240W        W11304   0.687   3.062   8.826 -0.0548 -0.1115 -0.2008
 7241W        W11305   5.021   5.245   3.699  0.0482 -0.2864 -0.1390
 7242W        W11306   5.353   2.905   1.198 -0.0164 -0.1961  0.1368
 7243W        W11307   0.857   7.743  10.058 -0.0183  0.1259  0.1758
 7244W        W11308   7.955   4.539   3.247 -0.1475 -0.0085  0.0171
 7245W        W11309  10.227   4.188   8.038 -0.2288 -0.0105  0.2890
 7246W        W11310   5.767   2.650   2.808  0.0059  0.1626 -0.0436
 7247W        W11311   0.512   4.520  10.582 -0.0219  0.1592 -0.0183
 7248W        W11312   6.937   2.642   2.494 -0.1599 -0.1863  0.1984
 7249W        W11313   1.513   0.072   1.722 -0.2056  0.1028 -0.1779
 7250W        W11314   1.207   9.547   1.161 -0.2990 -0.0401  0.2225
 7251W        W11315   6.209   7.801   1.675  0.1613  0.1141  0.0294
 7252W        W11316  10.650   4.714   8.682 -0.1566  0.0406 -0.0570
 7253W        W11317   6.446   5.210   8.348  0.0877  0.1144 -0.0998
 7254W        W11318   8.969   4.738   9.767  0.1312 -0.1304 -0.1677
 7255W        W11319   1.014   0.712   9.517  0.2021  0.0096  0.1942
 7256W        W11320   0.332   2.800   9.231 -0.0815 -0.1031 -0.1468
 7257W        W11321   9.454   6.507   0.673  0.0189 -0.1762 -0.1746
 7258W        W11322   2.926   1.221   1.253  0.3542 -0.3004  0.0645
 7259W        W11323   7.726   2.526   7.811 -0.0301  0.0423  0.1459
 7260W        W11324   8.279   7.523   2.397 -0.1383  0.1211 -0.1581
 7261W        W11325   4.714   1.885   3.757 -0.1321 -0.0440  0.0384
 7262W        W11326   1.621   2.950   2.612 -0.0212 -0.4366 -0.0638
 7263W        W11327   3.686   1.899   8.460  0.2353  0.1568 -0.0988
 7264W        W11328   2.519   1.224   3.100 -0.1637 -0.2518 -0.2486
 7265W        W11329  10.903   3.680   9.353  0.0556 -0.0525 -0.0430
 7266W        W11330   9.798   1.807   8.320 -0.1880  0.1729  0.0513
 7267W        W11331  10.395   7.816   9.516 -0.1270 -0.1345  0.2211
 7268W        W11332   5.526   9.514   2.987 -0.3370 -0.0314 -0.1626
 7269W        W11333   4.529   3.877  10.695 -0.2543  0.2867  0.0256
 7270W        W11334   4.210   6.835  10.122 -0.3031 -0.2645 -0.0981
 7271W        W11335   9.023   2.866   2.878 -0.1126  0.1116 -0.0618
 7272W        W11336   7.859   9.227  10.169 -0.5614  0.0033 -0.2414
 7273W        W11337   7.426   1.635   9.939  0.0959  0.0653  0.1765
 7274W        W11338   9.107   6.963   7.748  0.0941  0.1353 -0.3267
 7275W        W11339   3.109   8.421  10.263  0.0372 -0.1919 -0.2380
 7276W        W11340   1.756   5.404   2.377  0.0566  0.2696  0.2854
 7277W        W11341   0.219   2.415   8.040  0.1552 -0.1571 -0.0983
 7278W        W11342   2.067   2.235   0.114 -0.2326  0.0294  0.2307
 7279W        W11343  10.307   8.124   0.293 -0.1341  0.0436  0.3279
 7280W        W11344   5.973   9.287   0.157  0.1169 -0.0498  0.1620
 7281W        W11345   3.036  10.094   3.593 -0.1235  0.2315  0.3412
 7282W        W11346   1.545   7.801   3.334 -0.0168 -0.0026  0.2392
 7283W        W11347   7.997   4.909   8.906  0.0776 -0.0656  0.3239
 7284W        W11348   3.898   9.832   7.589 -0.1245 -0.0877  0.0997
 7285W        W11349  10.425   3.251   7.639  0.2381 -0.1291 -0.1886
 7286W        W11350   6.053   1.820   2.603 -0.0855 -0.0066 -0.1760
 7287W        W11351   3.541   9.414   9.503 -0.1422 -0.5946  0.1914
 7288W        W11352   6.105   4.450  10.029 -0.1303 -0.1780  0.1914
 7289W        W11353   9.584   1.872   1.121 -0.1036 -0.0495  0.1640
 7290W        W11354   5.573   3.781   9.153 -0.1820  0.2088  0.0779
 7291W        W11355   0.331   6.390   7.895  0.0605 -0.0953  0.1743
 7292W        W11356   0.115   1.148   8.369 -0.0479  0.2998 -0.0728
 7293W        W11357   5.578   5.711   8.904 -0.3804 -0.1593 -0.0330
 7294W        W11358  10.118   1.048   1.435 -0.1440  0.2510 -0.0820
 7295W        W11359   0.577   1.605   1.559  0.0453 -0.3283 -0.2113
 7296W        W11360   3.496   8.620   1.791 -0.0208 -0.0021  0.0381
 7297W        W11361   0.333   6.923  11.008  0.0194 -0.3108 -0.4272
 7298W        W11362   8.656   2.596   3.115  0.0025  0.3070  0.3421
 7299W        W11363   3.778   9.878   8.164  0.2110 -0.1721 -0.1403
 7300W        W11364   4.858  10.510   1.743 -0.0107  0.1312  0.2496
 7301W        W11365   5.020   7.673   1.294 -0.2793 -0.1314 -0.0428
 7302W        W11366  10.858   4.421   0.122  0.0126  0.0878 -0.0192
 7303W        W11367   9.852   8.600  10.448  0.0369  0.1616 -0.1299
 7304W        W11368   3.274   5.981   2.792  0.0266  0.2408 -0.1836
 7305W        W11369   8.427   7.508   1.447  0.1142  0.2272  0.2155
 7306W        W11370   2.253   3.902  10.244  0.1560 -0.0833  0.0266
 7307W        W11371  10.223   7.282   2.124 -0.3020  0.1967  0.0695
 7308W        W11372   3.949   6.449   3.309  0.0083  0.1765 -0.2235
 7309W        W11373   7.623   1.173   0.953  0.0119 -0.2258 -0.2962
 7310W        W11374   7.341   2.022   9.584  0.1434 -0.2540  0.2302
 7311W        W11375  10.394   8.665   3.043  0.2535 -0.1043  0.0069
 7312W        W11376  10.408   6.266   3.602 -0.1648  0.3056 -0.3746
 7313ION    NA+11377  10.019   0.458   7.531 -0.0100 -0.1729 -0.2520
 7314ION    NA+11378   9.221   2.418  10.919  0.1135  0.0935 -0.1023
 7315ION    NA+11379   8.830   7.907   9.981  0.4321  0.0576 -0.2143
 7316ION    NA+11380   1.941   8.921   9.381 -0.0808  0.0682 -0.2097
 7317ION    NA+11381   2.536   6.257   1.148 -0.0691  0.0452  0.0755
 7318ION    NA+11382  10.897   0.008   3.127  0.1067  0.0869  0.3210
 7319ION    NA+11383  10.007   5.747   8.906 -0.1205 -0.3830  0.0427
 7320ION    NA+11384   7.786   7.379   1.503 -0.3313 -0.3624  0.1429
 7321ION    NA+11385   2.824   5.901   8.897 -0.0878  0.1311 -0.1864
 7322ION    NA+11386   0.291   4.344   7.924  0.1404  0.0801  0.0258
 7323ION    NA+11387   5.443   3.846   7.356 -0.0769  0.0610  0.1442
 7324ION    NA+11388   1.320   7.673  10.167 -0.1278  0.3332 -0.0778
 7325ION    NA+11389   8.892   0.555   3.613  0.1051  0.1521 -0.2386
 7326ION    NA+11390   6.651   9.344   3.595 -0.0475 -0.2746  0.3871
 7327ION    NA+11391   8.887   5.573   9.541  0.1754 -0.4474  0.1210
 7328ION    NA+11392   3.200   1.993  10.461 -0.0431 -0.0091 -0.2513
 7329ION    NA+11393   8.521   2.181  10.144  0.2080  0.0798 -0.0321
 7330ION    NA+11394   9.020   9.822   3.101  0.0527 -0.1497  0.1420
 7331ION    NA+11395   1.535   0.097   2.298 -0.0388 -0.1104 -0.0413
 7332ION    NA+11396   6.718   4.098   2.149 -0.2421 -0.3428  0.3230
 7333ION    NA+11397   0.635   7.132   9.535 -0.1480  0.1330  0.3372
 7334ION    NA+11398   4.843   7.049   8.591 -0.0101  0.1210  0.0096
 7335ION    NA+11399   4.470   0.988   9.580  0.1172 -0.1113  0.1035
 7336ION    NA+11400   2.945  10.456   9.375  0.2827  0.0506  0.1202
 7337ION    NA+11401   9.707   7.237   1.110  0.4638 -0.3011 -0.0018
 7338ION    NA+11402   2.815   7.561   0.625 -0.0172 -0.2406 -0.2053
 7339ION    NA+11403   1.868   7.094   8.675  0.0807 -0.2416 -0.2941
 7340ION    NA+11404   0.967   7.081   7.467 -0.0809  0.0140 -0.1378
 7341ION    NA+11405   5.597   0.162   9.517  0.0215  0.0298  0.1699
 7342ION    NA+11406   6.266   0.713   3.404 -0.2985  0.1508 -0.0479
 7343ION    NA+11407   8.998   9.840   9.270 -0.0821 -0.3671 -0.1552
 7344ION    NA+11408   3.660   6.706   9.138 -0.0641 -0.2832 -0.1849
 7345ION    NA+11409   3.241   7.427   9.756  0.0499 -0.1991  0.0538
 7346ION    NA+11410   3.288   5.681   2.316  0.1061  0.2440  0.2030
 7347ION    NA+11411   1.992   0.248   1.804  0.3366 -0.1749 -0.0272
 7348ION    NA+11412   5.943   1.512   9.075 -0.1853 -0.2023  0.0262
 7349ION    NA+11413   5.077   7.246   3.071 -0.1505 -0.3554  0.0056
 7350ION    NA+11414   2.937   9.058   2.628 -0.1727  0.0166 -0.1340
 7351ION    NA+11415   2.569   5.413   0.630 -0.3258  0.0974 -0.2183
 7352ION    NA+11416   2.583   3.648   9.565  0.2106 -0.1503 -0.3613
 7353ION    NA+11417   7.495   2.515   1.453 -0.3415  0.3053  0.1119
 7354ION    NA+11418   2.928   6.120   3.506  0.1531  0.0314  0.3081
 7355ION    NA+11419   9.396   5.100   8.911 -0.0306 -0.2609  0.0759
 7356ION    NA+11420   7.164   2.337   8.604  0.0651  0.0263  0.1881
 7357ION    NA+11421   3.150   9.071  10.857  0.0303 -0.2630 -0.1614
 7358ION    NA+11422   0.191   6.456   7.389  0.0929  0.0519 -0.2409
 7359ION    NA+11423   8.183   7.461   0.555  0.2963 -0.5628 -0.0785
 7360ION    NA+11424   2.252   0.647   9.053 -0.2891 -0.0879 -0.0156
 7361ION    NA+11425   9.223   5.610   3.287  0.0906  0.0109 -0.0811
 7362ION    NA+11426   0.730   0.090   7.501 -0.0917 -0.3936 -0.1319
 7363ION    NA+11427   8.893   8.188   0.704  0.0473  0.2260  0.0792
 7364ION    NA+11428   5.604   6.115   8.341 -0.2514  0.0212 -0.1455
 7365ION    NA+11429   6.484  10.704   0.763 -0.0415  0.2821  0.3096
 7366ION    NA+11430   9.983   9.847   3.515 -0.1149  0.0661 -0.0084
 7367ION    NA+11431  10.219   3.887   8.602 -0.1499  0.0000  0.1533
 7368ION    NA+11432   8.186   9.709   9.960 -0.1539  0.1176 -0.0397
 7369ION    NA+11433   8.959  10.875   1.253  0.2693 -0.0537 -0.1791
 7370ION    NA+11434   3.021   3.218   8.595  0.0014 -0.0889  0.0808
 7371ION    NA+11435   8.337   3.024  10.286  0.0636  0.0386  0.2735
 7372ION    NA+11436   1.559   8.725  10.639 -0.1292  0.2337 -0.1781
 7373ION    NA+11437   0.272   6.516   3.000 -0.1203  0.1149  0.0812
 7374ION    NA+11438   2.575   5.017   2.356 -0.0121 -0.1137  0.2441
 7375ION    NA+11439   4.347   8.663   9.003  0.0549  0.1356  0.0635
 7376ION    NA+11440   1.183   5.589   3.528  0.3139  0.1991 -0.1072
 7377ION    NA+11441   4.084   6.178   1.251  0.1150 -0.3353 -0.2172
 7378ION    NA+11442   3.899   8.338   7.513  0.0349  0.3556 -0.3253
 7379ION    NA+11443   5.331   2.803   4.031 -0.0239 -0.1943  0.1271
 7380ION    NA+11444   0.510   9.177  10.221 -0.0763  0.0967 -0.1511
 7381ION    NA+11445   1.074   8.828   7.385 -0.4575 -0.0813  0.0013
 7382ION    NA+11446   7.845   9.022   7.335  0.1811  0.1219  0.0519
 7383ION    NA+11447  10.038   4.635   2.470  0.3555 -0.0653  0.0572
 7384ION    NA+11448   7.677   5.976  10.569 -0.2425 -0.1008 -0.0707
 7385ION    NA+11449   9.048   4.138   0.406 -0.1334 -0.0154  0.2409
 7386ION    NA+11450   7.624   5.321   1.779 -0.3184 -0.1121 -0.1570
 7387ION    NA+11451   7.059   4.872   8.669  0.0937 -0.2068  0.0227
 7388ION    NA+11452   1.781   3.206  10.188 -0.1728  0.1059 -0.3353
 7389ION    NA+11453   0.391  10.292   7.479 -0.2059 -0.1216  0.0016
 7390ION    CL-11454   5.863   7.611   2.555 -0.1916  0.2122  0.0177
 7391ION    CL-11455   2.191   5.144   2.635 -0.0948  0.0442  0.3341
 7392ION    CL-11456   1.072   5.807   8.034  0.0309  0.1346  0.0652
 7393ION    CL-11457   1.515   6.750   2.526 -0.1410  0.3064  0.1183
 7394ION    CL-11458   6.703   4.220   0.340 -0.0845  0.0738  0.2936
 7395ION    CL-11459   2.563   5.938   0.725  0.0668  0.2058  0.2768
 7396ION    CL-11460   7.795   7.380   0.901  0.2035 -0.1476 -0.3457
 7397ION    CL-11461  10.364   4.750   2.907 -0.0662 -0.2079 -0.2199
 7398ION    CL-11462   0.880   3.213   2.769  0.5350  0.0986 -0.1294
 7399ION    CL-11463   8.442  10.340   0.207 -0.1258 -0.0167 -0.1647
 7400ION    CL-11464   7.935   3.290  10.228  0.3106 -0.0388  0.2929
 7401ION    CL-11465   1.310  10.548   2.416 -0.3692 -0.2594 -0.0484
 7402ION    CL-11466   4.473   6.591   8.341 -0.0001  0.1471  0.1886
 7403ION    CL-11467   9.056   3.812   0.853 -0.1107  0.0977 -0.1352
 7404ION    CL-11468   3.232  10.719   2.950 -0.0958  0.0358  0.1472
 7405ION    CL-11469   7.490   4.083   8.876 -0.0371 -0.2988  0.0221
 7406ION    CL-11470   7.675  10.108   0.981 -0.3132 -0.2351  0.0137
 7407ION    CL-11471   3.955   4.225   8.084 -0.1348  0.0525  0.1895
 7408ION    CL-11472  10.535   9.361   8.399 -0.2398 -0.1695  0.2569
 7409ION    CL-11473   9.363   8.573   0.848 -0.1062 -0.0943 -0.4875
 7410ION    CL-11474   2.097   1.179   8.878 -0.0079  0.2277  0.3188
 7411ION    CL-11475   7.554   4.740   1.713 -0.0283 -0.1915 -0.0914
 7412ION    CL-11476   0.339  10.866   2.592  0.4682  0.0950 -0.1644
 7413ION    CL-11477   2.948   4.167   8.768 -0.3636  0.0494 -0.0520
 7414ION    CL-11478   6.024  10.229   3.472  0.0323  0.2062  0.0679
 7415ION    CL-11479   1.051   7.835   3.080 -0.0522 -0.1377 -0.3656
 7416ION    CL-11480   7.704   2.783   1.909  0.0839  0.0237  0.1596
 7417ION    CL-11481   7.799   2.641   1.028 -0.0221  0.0283  0.2338
 7418ION    CL-11482   9.781   0.982   2.674  0.1480  0.0662 -0.1337
 7419ION    CL-11483   2.425   0.258   9.362 -0.0770  0.2695 -0.3972
 7420ION    CL-11484   1.533   5.610  10.103 -0.0117  0.2718  0.0377
 7421ION    CL-11485   8.673   7.728   0.649 -0.1003  0.1482  0.1410
 7422ION    CL-11486   2.719   3.440   9.102 -0.1784 -0.0504  0.0753
 7423ION    CL-11487   7.026  10.819   0.842  0.3608 -0.1127 -0.0225
 7424ION    CL-11488   8.965   8.892   2.878  0.0268 -0.1248 -0.2449
 7425ION    CL-11489   4.095   6.929   9.207 -0.1491  0.0022 -0.4583
 7426ION    CL-11490   8.428   2.576  10.439 -0.1437  0.1569  0.1114
 7427ION    CL-11491   6.401   0.264   0.245 -0.0502 -0.0905  0.1835
 7428ION    CL-11492   8.549   2.127   7.698  0.0692 -0.1357 -0.1107
 7429ION    CL-11493   4.898   7.374   2.509  0.0325 -0.1277 -0.3507
 7430ION    CL-11494   1.766   0.624   2.097  0.1295  0.2054  0.0993
 7431ION    CL-11495   5.490   5.934   7.858  0.1598  0.0242 -0.0251
 7432ION    CL-11496   4.620   8.609   8.228  0.1205  0.1005 -0.0495
 7433ION    CL-11497   6.222   9.328   8.552 -0.1110  0.0808 -0.0174
 7434ION    CL-11498   0.030   6.270   2.647 -0.0464 -0.0230 -0.2879
 7435ION    CL-11499   9.300   5.357   9.388 -0.1050 -0.1600  0.0588
 7436ION    CL-11500   8.317   2.618   9.876  0.3110 -0.0436 -0.1727
 7437ION    CL-11501   3.438   6.162   2.102 -0.0863  0.1026 -0.2944
 7438ION    CL-11502   5.117   4.460  10.109 -0.3130  0.2416 -0.2542
 7439ION    CL-11503   1.910  10.769   1.465  0.0198 -0.0720  0.1903
 7440ION    CL-11504   0.643   4.351   3.473  0.1164  0.1520  0.0479
 7441ION    CL-11505   1.599   8.104  10.025  0.1275 -0.1000  0.0880
 7442ION    CL-11506   4.205   1.030   9.103  0.1582  0.0316  0.0978
 7443ION    CL-11507   3.428   7.080  10.037  0.1363 -0.1115 -0.0543
 7444ION    CL-11508   4.852   7.402   8.142  0.0794  0.1032  0.0782
 7445ION    CL-11509   6.147   7.477   8.794 -0.0887  0.0270  0.1632
 7446ION    CL-11510   2.003   7.446   9.020 -0.1919 -0.0038 -0.1720
 7447ION    CL-11511   2.635   7.095   0.559 -0.0235 -0.2450  0.3005
 7448ION    CL-11512   8.690   1.398   8.256 -0.2172  0.2454 -0.2645
 7449ION    CL-11513   2.957   5.420   1.945 -0.1023  0.1973  0.1020
 7450ION    CL-11514   6.464   4.849   9.708  0.3139 -0.1912  0.1495
 7451ION    CL-11515   6.129   1.576   8.599  0.1513 -0.1906  0.0558
 7452ION    CL-11516   8.465   8.594   0.602  0.0267 -0.0082 -0.1366
 7453ION    CL-11517   7.589   6.215  11.020 -0.4644 -0.0895 -0.0445
 7454ION    CL-11518   8.435   7.632   9.838  0.2280  0.0267  0.0285
 7455ION    CL-11519   3.667   1.953  10.592  0.1238  0.1292  0.3900
 7456ION    CL-11520   1.505   6.664   8.696 -0.1534  0.2170  0.0862
 7457ION    CL-11521   4.005   8.376   9.301  0.2725  0.0045  0.0100
 7458ION    CL-11522   4.802   9.567   0.787  0.0714 -0.0786  0.2267
 7459ION    CL-11523  10.636   4.131   8.687  0.4010 -0.3446 -0.0561
 7460ION    CL-11524   9.829   6.802   0.943  0.0254 -0.1352 -0.3436
 7461ION    CL-11525   2.256  10.262  10.548 -0.1437  0.0836  0.1498
 7462ION    CL-11526   1.113   9.453   7.873  0.0919 -0.0980  0.0860
 7463ION    CL-11527   4.114   2.224   2.368 -0.1029 -0.0115 -0.1260
 7464ION    CL-11528   7.344   7.205   1.509 -0.0619 -0.1508  0.1685
 7465ION    CL-11529  10.041   4.760   8.986  0.0319 -0.0659  0.1882
 7466ION    CL-11530   5.073   4.519   3.262  0.2303  0.2417  0.3558
  10.91549  10.91549  11.03194
