Protein in INSANE! Membrane UpperLeaflet>POPC=1.0 LowerLeaflet>POPC=1.0
12914
    1AU     AUC    1   5.731   5.816   5.997
    1AU     AUC    2   5.893   5.817   5.922
    1AU     AUC    3   5.882   5.807   6.101
    1AU     AUC    4   5.617   5.837   5.915
    1AU     AUC    5   5.587   5.844   6.083
    1AU     AUC    6   5.681   5.984   6.007
    1AU     AUC    7   5.855   5.941   6.015
    1AU     AUC    8   5.634   5.700   6.011
    1AU     AUC    9   5.814   5.663   6.025
    1AU     AUC   10   5.729   5.727   6.150
    1AU     AUC   11   5.769   5.916   6.146
    1AU     AUC   12   5.732   5.741   5.864
    1AU     AUC   13   5.752   5.907   5.862
    1AU     AUC   14   6.004   5.798   5.829
    1AU     AUC   15   6.065   5.762   5.945
    1AU     AUC   16   6.022   5.782   6.171
    1AU     AUC   17   5.474   5.854   5.826
    1AU     AUC   18   5.420   5.873   6.025
    1AU     AUC   19   5.476   5.879   6.168
    1AU     AUC   20   5.621   6.109   6.020
    1AU     AUC   21   5.789   6.154   6.000
    1AU     AUC   22   5.940   6.084   5.984
    1AU     AUC   23   5.548   5.565   6.001
    1AU     AUC   24   5.634   5.518   5.994
    1AU     AUC   25   5.884   5.535   5.986
    1AU     AUC   26   5.700   5.663   6.281
    1AU     AUC   27   5.690   5.800   6.334
    1AU     AUC   28   5.780   5.994   6.275
    1AU     AUC   29   5.740   5.646   5.750
    1AU     AUC   30   5.738   5.788   5.675
    1AU     AUC   31   5.777   5.987   5.737
    1AU     AUC   32   5.837   5.704   6.304
    1AU     AUC   33   5.885   5.897   6.300
    1AU     AUC   34   5.878   5.686   5.742
    1AU     AUC   35   5.918   5.920   5.739
    1AU     AUC   36   5.552   5.792   6.269
    1AU     AUC   37   5.585   5.932   6.264
    1AU     AUC   38   5.573   5.698   5.743
    1AU     AUC   39   5.569   5.948   5.760
    1AU     AUC   40   6.015   5.969   5.922
    1AU     AUC   41   6.042   5.891   6.146
    1AU     AUC   42   5.488   5.981   5.858
    1AU     AUC   43   5.526   6.052   6.058
    1AU     AUC   44   6.003   5.677   5.877
    1AU     AUC   45   5.976   5.610   6.129
    1AU     AUC   46   5.463   5.690   5.853
    1AU     AUC   47   5.441   5.726   6.087
    1AU     AUC   48   5.699   6.089   6.186
    1AU     AUC   49   5.896   6.095   6.142
    1AU     AUC   50   5.574   5.585   6.175
    1AU     AUC   51   5.805   5.548   6.159
    1AU     AUC   52   5.695   6.089   5.827
    1AU     AUC   53   5.851   6.053   5.776
    1AU     AUC   54   5.643   5.551   5.832
    1AU     AUC   55   5.851   5.556   5.860
    1AU    AUSL   56   5.958   5.740   6.378
    1AU    AUSL   57   5.993   5.470   6.413
    1AU     AUL   58   6.207   5.756   6.612
    1AU       S   59   6.142   5.120   6.638
    1AU     LIG   60   6.325   4.936   6.984
    1AU     LIG   61   6.408   4.517   7.127
    1AU     LIG   62   6.622   4.171   7.324
    1AU     LIG   63   6.880   4.007   7.686
    1AU     LIG   64   6.893   3.742   8.081
    1AU       S   65   6.040   5.455   6.971
    1AU     LIG   66   6.363   5.338   7.320
    1AU     LIG   67   6.633   5.324   7.731
    1AU     LIG   68   6.898   5.339   8.135
    1AU     LIG   69   7.213   5.562   8.433
    1AU     LIG   70   7.544   5.583   8.776
    1AU    AUSL   71   5.744   5.573   6.478
    1AU    AUSL   72   5.690   5.848   6.514
    1AU     AUL   73   5.924   5.827   6.633
    1AU       S   74   5.795   5.420   6.978
    1AU     LIG   75   5.857   5.280   7.429
    1AU     LIG   76   6.159   5.125   7.771
    1AU     LIG   77   6.430   5.030   8.166
    1AU     LIG   78   6.455   4.850   8.622
    1AU     LIG   79   6.485   4.877   9.099
    1AU       S   80   5.547   5.902   7.031
    1AU     LIG   81   5.394   6.020   7.445
    1AU     LIG   82   5.244   5.815   7.849
    1AU     LIG   83   5.087   5.751   8.303
    1AU     LIG   84   5.107   5.957   8.757
    1AU     LIG   85   5.023   6.010   9.232
    1AU    AUSL   86   5.881   5.999   6.400
    1AU    AUSL   87   6.166   5.938   6.395
    1AU     AUL   88   6.115   6.019   6.696
    1AU       S   89   5.940   6.481   6.925
    1AU     LIG   90   6.129   6.546   7.373
    1AU     LIG   91   6.290   6.559   7.839
    1AU     LIG   92   6.288   6.569   8.336
    1AU     LIG   93   6.357   6.680   8.800
    1AU     LIG   94   6.683   6.681   9.137
    1AU       S   95   6.564   6.238   6.586
    1AU     LIG   96   6.922   6.330   6.869
    1AU     LIG   97   7.193   6.545   7.203
    1AU     LIG   98   7.460   6.648   7.588
    1AU     LIG   99   7.816   6.688   7.911
    1AU     LIG  100   8.219   6.901   8.054
    1AU    AUSL  101   6.028   5.868   5.667
    1AU    AUSL  102   5.994   6.101   5.501
    1AU     AUL  103   6.253   5.898   5.435
    1AU       S  104   6.213   5.731   4.981
    1AU     LIG  105   6.524   5.636   4.611
    1AU     LIG  106   6.757   5.564   4.189
    1AU     LIG  107   6.931   5.503   3.746
    1AU     LIG  108   7.313   5.401   3.458
    1AU     LIG  109   7.720   5.444   3.187
    1AU       S  110   6.167   6.373   5.188
    1AU     LIG  111   6.448   6.571   4.831
    1AU     LIG  112   6.817   6.687   4.509
    1AU     LIG  113   7.172   6.878   4.232
    1AU     LIG  114   7.403   7.051   3.845
    1AU     LIG  115   7.584   7.404   3.578
    1AU    AUSL  116   5.821   5.699   5.605
    1AU    AUSL  117   6.080   5.625   5.531
    1AU     AUL  118   6.211   5.740   5.658
    1AU       S  119   6.364   5.314   5.262
    1AU     LIG  120   6.607   4.943   5.072
    1AU     LIG  121   6.818   4.555   4.861
    1AU     LIG  122   7.153   4.330   4.605
    1AU     LIG  123   7.510   4.310   4.284
    1AU     LIG  124   7.957   4.376   4.123
    1AU       S  125   5.952   5.674   4.924
    1AU     LIG  126   6.093   5.355   4.629
    1AU     LIG  127   6.323   5.286   4.229
    1AU     LIG  128   6.462   5.276   3.770
    1AU     LIG  129   6.591   5.179   3.304
    1AU     LIG  130   6.791   5.085   2.864
    1AU    AUSL  131   5.946   5.845   5.407
    1AU    AUSL  132   5.683   5.742   5.376
    1AU     AUL  133   5.882   5.471   5.371
    1AU       S  134   5.485   5.820   4.988
    1AU     LIG  135   5.482   5.619   4.564
    1AU     LIG  136   5.237   5.377   4.207
    1AU     LIG  137   5.011   5.218   3.804
    1AU     LIG  138   4.976   5.034   3.349
    1AU     LIG  139   4.906   4.962   2.874
    1AU       S  140   5.988   5.948   4.955
    1AU     LIG  141   6.081   5.857   4.468
    1AU     LIG  142   6.308   5.766   4.039
    1AU     LIG  143   6.457   5.750   3.572
    1AU     LIG  144   6.459   5.841   3.099
    1AU     LIG  145   6.507   6.158   2.744
    1AU    AUSL  146   5.430   5.935   6.474
    1AU    AUSL  147   5.623   6.079   6.315
    1AU     AUL  148   5.841   6.101   6.654
    1AU       S  149   5.255   5.983   6.910
    1AU     LIG  150   4.958   5.820   7.270
    1AU     LIG  151   4.820   5.589   7.675
    1AU     LIG  152   4.634   5.516   8.116
    1AU     LIG  153   4.283   5.400   8.434
    1AU     LIG  154   3.921   5.489   8.735
    1AU       S  155   5.438   6.486   6.761
    1AU     LIG  156   5.314   6.537   7.200
    1AU     LIG  157   5.103   6.846   7.502
    1AU     LIG  158   4.831   7.181   7.727
    1AU     LIG  159   4.694   7.368   8.163
    1AU     LIG  160   4.569   7.517   8.613
    1AU    AUSL  161   5.494   5.666   6.556
    1AU    AUSL  162   5.292   5.721   6.364
    1AU     AUL  163   5.322   5.541   6.494
    1AU       S  164   4.844   5.429   6.535
    1AU     LIG  165   4.553   5.077   6.689
    1AU     LIG  166   4.243   4.804   6.912
    1AU     LIG  167   3.969   4.579   7.219
    1AU     LIG  168   3.797   4.356   7.592
    1AU     LIG  169   3.465   4.335   7.938
    1AU       S  170   5.364   5.701   6.988
    1AU     LIG  171   5.360   5.502   7.418
    1AU     LIG  172   5.219   5.294   7.828
    1AU     LIG  173   4.989   5.149   8.220
    1AU     LIG  174   4.899   4.942   8.639
    1AU     LIG  175   4.927   4.936   9.113
    1AU    AUSL  176   5.469   5.708   5.536
    1AU    AUSL  177   5.619   5.511   5.692
    1AU     AUL  178   5.615   5.397   5.276
    1AU       S  179   5.238   5.757   5.100
    1AU     LIG  180   4.986   5.672   4.700
    1AU     LIG  181   4.762   5.565   4.283
    1AU     LIG  182   4.590   5.553   3.844
    1AU     LIG  183   4.287   5.652   3.488
    1AU     LIG  184   3.951   5.662   3.132
    1AU       S  185   5.243   5.068   5.399
    1AU     LIG  186   4.980   4.760   5.138
    1AU     LIG  187   4.601   4.576   4.899
    1AU     LIG  188   4.369   4.276   4.592
    1AU     LIG  189   4.259   4.078   4.156
    1AU     LIG  190   4.295   3.824   3.750
    1AU    AUSL  191   5.652   5.921   5.601
    1AU    AUSL  192   5.375   5.952   5.638
    1AU     AUL  193   5.728   6.011   5.470
    1AU       S  194   5.051   6.140   5.334
    1AU     LIG  195   4.913   6.355   4.936
    1AU     LIG  196   4.690   6.585   4.576
    1AU     LIG  197   4.371   6.760   4.252
    1AU     LIG  198   3.983   6.884   3.979
    1AU     LIG  199   3.719   7.158   3.688
    1AU       S  200   5.450   6.063   5.044
    1AU     LIG  201   5.257   6.108   4.628
    1AU     LIG  202   5.163   5.886   4.223
    1AU     LIG  203   5.059   5.761   3.767
    1AU     LIG  204   5.023   5.880   3.286
    1AU     LIG  205   4.942   6.024   2.818
    1AU    AUSL  206   6.106   6.036   5.941
    1AU    AUSL  207   6.228   6.052   5.689
    1AU     AUL  208   6.302   6.392   5.906
    1AU       S  209   6.450   6.380   5.376
    1AU     LIG  210   6.838   6.522   5.164
    1AU     LIG  211   7.184   6.573   4.857
    1AU     LIG  212   7.494   6.596   4.515
    1AU     LIG  213   7.725   6.831   4.184
    1AU     LIG  214   7.921   7.155   3.899
    1AU       S  215   6.737   6.144   6.083
    1AU     LIG  216   7.141   6.414   6.139
    1AU     LIG  217   7.634   6.490   6.064
    1AU     LIG  218   8.135   6.563   6.022
    1AU     LIG  219   8.536   6.806   6.184
    1AU     LIG  220   8.663   7.167   6.484
    1AU    AUSL  221   6.316   5.869   5.893
    1AU    AUSL  222   6.347   5.644   6.058
    1AU     AUL  223   6.460   5.878   5.641
    1AU       S  224   6.828   5.910   6.015
    1AU     LIG  225   7.324   5.982   5.931
    1AU     LIG  226   7.819   6.059   5.854
    1AU     LIG  227   8.279   6.129   5.717
    1AU     LIG  228   8.729   6.270   5.550
    1AU     LIG  229   9.093   6.358   5.262
    1AU       S  230   6.714   5.414   6.184
    1AU     LIG  231   7.092   5.168   6.332
    1AU     LIG  232   7.527   4.952   6.309
    1AU     LIG  233   7.993   4.818   6.281
    1AU     LIG  234   8.472   4.803   6.257
    1AU     LIG  235   8.928   4.858   6.433
    1AU    AUSL  236   6.169   5.846   6.133
    1AU    AUSL  237   6.050   6.097   6.201
    1AU     AUL  238   6.241   6.129   5.996
    1AU       S  239   6.500   6.433   6.396
    1AU     LIG  240   6.786   6.759   6.625
    1AU     LIG  241   7.014   6.994   7.001
    1AU     LIG  242   7.257   7.385   7.211
    1AU     LIG  243   7.475   7.844   7.285
    1AU     LIG  244   7.845   8.078   7.507
    1AU       S  245   6.716   5.917   6.273
    1AU     LIG  246   7.162   5.994   6.427
    1AU     LIG  247   7.653   6.056   6.344
    1AU     LIG  248   8.157   6.139   6.299
    1AU     LIG  249   8.536   6.391   6.529
    1AU     LIG  250   8.973   6.563   6.659
    1AU    AUSL  251   5.452   6.151   6.070
    1AU    AUSL  252   5.374   6.190   6.347
    1AU     AUL  253   5.203   6.159   6.043
    1AU       S  254   5.143   6.382   6.643
    1AU     LIG  255   4.857   6.416   7.004
    1AU     LIG  256   4.643   6.685   7.342
    1AU     LIG  257   4.401   6.778   7.752
    1AU     LIG  258   4.058   6.794   8.100
    1AU     LIG  259   3.706   6.999   8.353
    1AU       S  260   5.001   6.580   6.208
    1AU     LIG  261   4.636   6.850   6.045
    1AU     LIG  262   4.235   7.128   5.998
    1AU     LIG  263   3.804   7.366   5.964
    1AU     LIG  264   3.367   7.587   5.904
    1AU     LIG  265   2.918   7.755   5.966
    1AU    AUSL  266   5.314   5.930   5.924
    1AU    AUSL  267   5.366   6.182   5.809
    1AU     AUL  268   5.183   5.928   5.875
    1AU       S  269   4.726   5.865   5.601
    1AU     LIG  270   4.218   5.930   5.594
    1AU     LIG  271   3.865   6.171   5.334
    1AU     LIG  272   3.370   6.242   5.394
    1AU     LIG  273   2.968   6.520   5.401
    1AU     LIG  274   2.594   6.672   5.162
    1AU       S  275   5.108   6.528   5.627
    1AU     LIG  276   5.088   6.880   5.257
    1AU     LIG  277   4.971   7.273   4.961
    1AU     LIG  278   4.788   7.737   4.822
    1AU     LIG  279   4.520   8.132   4.691
    1AU     LIG  280   4.217   8.532   4.695
    1AU    AUSL  281   5.307   5.961   6.216
    1AU    AUSL  282   5.154   5.652   5.884
    1AU     AUL  283   4.957   6.013   6.028
    1AU       S  284   4.786   5.420   5.847
    1AU     LIG  285   4.383   5.418   5.609
    1AU     LIG  286   3.946   5.225   5.614
    1AU     LIG  287   3.466   5.150   5.631
    1AU     LIG  288   2.996   5.131   5.757
    1AU     LIG  289   2.580   5.128   5.548
    1AU       S  290   4.866   5.984   6.554
    1AU     LIG  291   4.364   6.016   6.494
    1AU     LIG  292   3.887   6.157   6.588
    1AU     LIG  293   3.430   6.346   6.664
    1AU     LIG  294   2.928   6.381   6.715
    1AU     LIG  295   2.471   6.559   6.583
    1AU    AUSL  296   6.198   5.410   6.003
    1AU    AUSL  297   6.081   5.587   6.175
    1AU     AUL  298   6.220   5.655   6.344
    1AU       S  299   6.545   5.130   6.049
    1AU     LIG  300   6.781   4.779   6.202
    1AU     LIG  301   7.213   4.584   6.138
    1AU     LIG  302   7.676   4.439   6.137
    1AU     LIG  303   8.140   4.291   6.188
    1AU     LIG  304   8.453   3.932   6.315
    1AU       S  305   6.412   5.196   6.518
    1AU     LIG  306   6.764   4.964   6.695
    1AU     LIG  307   6.895   4.609   6.984
    1AU     LIG  308   7.107   4.334   7.316
    1AU     LIG  309   7.387   4.208   7.676
    1AU     LIG  310   7.790   4.200   7.935
    1AU    AUSL  311   6.123   5.666   5.906
    1AU    AUSL  312   6.153   5.453   5.737
    1AU     AUL  313   6.435   5.629   5.780
    1AU       S  314   6.701   5.254   5.943
    1AU     LIG  315   7.110   5.006   5.847
    1AU     LIG  316   7.578   4.827   5.812
    1AU     LIG  317   8.047   4.642   5.803
    1AU     LIG  318   8.536   4.657   5.742
    1AU     LIG  319   8.943   4.737   5.497
    1AU       S  320   6.400   5.150   5.524
    1AU     LIG  321   6.552   4.715   5.542
    1AU     LIG  322   6.640   4.324   5.291
    1AU     LIG  323   6.788   3.981   4.992
    1AU     LIG  324   7.034   3.586   4.865
    1AU     LIG  325   7.374   3.259   4.707
    1AU    AUSL  326   5.352   5.474   5.961
    1AU    AUSL  327   5.410   5.705   5.800
    1AU     AUL  328   5.218   5.731   5.670
    1AU       S  329   4.976   5.392   5.366
    1AU     LIG  330   4.605   5.096   5.277
    1AU     LIG  331   4.223   4.873   5.099
    1AU     LIG  332   4.010   4.604   4.764
    1AU     LIG  333   3.862   4.290   4.436
    1AU     LIG  334   3.622   4.002   4.139
    1AU       S  335   4.902   5.202   5.923
    1AU     LIG  336   4.451   5.008   5.907
    1AU     LIG  337   3.982   4.876   5.996
    1AU     LIG  338   3.487   4.853   6.072
    1AU     LIG  339   3.107   4.600   6.272
    1AU     LIG  340   2.659   4.406   6.375
    1AU    AUSL  341   5.329   5.711   6.094
    1AU    AUSL  342   5.272   5.471   6.225
    1AU     AUL  343   5.111   5.794   6.117
    1AU       S  344   4.965   5.190   6.396
    1AU     LIG  345   4.749   4.811   6.294
    1AU     LIG  346   4.503   4.512   6.570
    1AU     LIG  347   4.206   4.274   6.874
    1AU     LIG  348   3.891   4.048   7.162
    1AU     LIG  349   3.556   3.690   7.203
    1AU       S  350   4.740   5.431   6.039
    1AU     LIG  351   4.314   5.654   6.052
    1AU     LIG  352   3.846   5.623   5.926
    1AU     LIG  353   3.415   5.423   6.047
    1AU     LIG  354   3.079   5.137   6.260
    1AU     LIG  355   2.719   4.929   6.473
    1AU    AUSL  356   5.835   6.263   6.294
    1AU    AUSL  357   5.571   6.347   6.219
    1AU     AUL  358   5.629   6.128   6.480
    1AU       S  359   5.479   6.713   6.553
    1AU     LIG  360   5.104   6.869   6.851
    1AU     LIG  361   4.858   7.153   7.169
    1AU     LIG  362   4.736   7.585   7.368
    1AU     LIG  363   4.431   7.967   7.399
    1AU     LIG  364   4.121   8.337   7.462
    1AU       S  365   5.962   6.722   6.502
    1AU     LIG  366   6.118   6.955   6.868
    1AU     LIG  367   6.097   7.409   7.006
    1AU     LIG  368   6.027   7.791   7.312
    1AU     LIG  369   6.082   8.101   7.703
    1AU     LIG  370   6.079   8.525   7.946
    1AU    AUSL  371   5.792   6.458   6.100
    1AU    AUSL  372   5.840   6.423   5.827
    1AU     AUL  373   5.486   6.589   6.052
    1AU       S  374   5.888   6.861   6.248
    1AU     LIG  375   5.743   7.181   6.579
    1AU     LIG  376   5.757   7.641   6.692
    1AU     LIG  377   5.573   8.073   6.751
    1AU     LIG  378   5.445   8.512   6.857
    1AU     LIG  379   5.418   8.970   6.719
    1AU       S  380   5.841   6.804   5.621
    1AU     LIG  381   6.100   7.191   5.460
    1AU     LIG  382   6.244   7.639   5.303
    1AU     LIG  383   6.528   8.044   5.237
    1AU     LIG  384   6.708   8.495   5.174
    1AU     LIG  385   6.609   8.943   5.078
    1AU    AUSL  386   5.881   6.218   6.014
    1AU    AUSL  387   6.052   6.197   6.460
    1AU     AUL  388   6.056   6.341   6.059
    1AU       S  389   6.358   6.465   6.610
    1AU     LIG  390   6.486   6.598   7.008
    1AU     LIG  391   6.736   6.727   7.363
    1AU     LIG  392   7.074   7.001   7.541
    1AU     LIG  393   7.189   7.287   7.913
    1AU     LIG  394   7.202   7.561   8.312
    1AU       S  395   6.148   6.785   6.270
    1AU     LIG  396   6.241   7.229   6.460
    1AU     LIG  397   6.376   7.673   6.630
    1AU     LIG  398   6.703   8.057   6.664
    1AU     LIG  399   6.859   8.514   6.751
    1AU     LIG  400   6.886   8.904   6.997
    1AU    AUSL  401   5.768   5.442   6.224
    1AU    AUSL  402   6.010   5.311   6.181
    1AU     AUL  403   5.703   5.341   6.323
    1AU       S  404   5.703   4.864   6.458
    1AU     LIG  405   5.544   4.526   6.717
    1AU     LIG  406   5.454   4.083   6.834
    1AU     LIG  407   5.580   3.645   6.954
    1AU     LIG  408   5.574   3.366   7.346
    1AU     LIG  409   5.591   3.273   7.824
    1AU       S  410   6.214   4.973   6.401
    1AU     LIG  411   6.432   4.591   6.599
    1AU     LIG  412   6.656   4.194   6.792
    1AU     LIG  413   6.960   3.906   7.035
    1AU     LIG  414   7.088   3.461   7.185
    1AU     LIG  415   7.399   3.098   7.333
    1AU    AUSL  416   5.486   5.304   6.158
    1AU    AUSL  417   5.525   5.566   6.291
    1AU     AUL  418   5.541   5.374   6.547
    1AU       S  419   5.410   4.882   6.267
    1AU     LIG  420   5.173   4.515   6.365
    1AU     LIG  421   5.217   4.049   6.383
    1AU     LIG  422   5.235   3.609   6.565
    1AU     LIG  423   5.069   3.151   6.658
    1AU     LIG  424   4.996   2.681   6.782
    1AU       S  425   5.084   5.117   6.572
    1AU     LIG  426   4.927   4.727   6.788
    1AU     LIG  427   4.620   4.498   7.092
    1AU     LIG  428   4.323   4.253   7.396
    1AU     LIG  429   4.174   4.077   7.820
    1AU     LIG  430   4.204   3.906   8.273
    1AU    AUSL  431   5.770   5.216   6.062
    1AU    AUSL  432   5.628   5.423   5.953
    1AU     AUL  433   5.483   5.284   5.815
    1AU       S  434   5.518   4.794   5.772
    1AU     LIG  435   5.283   4.450   5.540
    1AU     LIG  436   5.277   3.949   5.524
    1AU     LIG  437   5.129   3.475   5.429
    1AU     LIG  438   4.901   3.014   5.404
    1AU     LIG  439   4.786   2.608   5.144
    1AU       S  440   5.732   4.796   6.216
    1AU     LIG  441   5.652   4.323   6.250
    1AU     LIG  442   5.724   3.867   6.453
    1AU     LIG  443   6.018   3.507   6.647
    1AU     LIG  444   6.137   3.040   6.759
    1AU     LIG  445   6.130   2.534   6.710
    1AU    AUSL  446   5.779   6.270   5.588
    1AU    AUSL  447   5.976   6.190   5.758
    1AU     AUL  448   6.079   6.267   5.792
    1AU       S  449   5.728   6.605   5.328
    1AU     LIG  450   5.972   6.885   5.069
    1AU     LIG  451   5.979   7.345   4.963
    1AU     LIG  452   6.000   7.709   4.649
    1AU     LIG  453   6.034   8.011   4.275
    1AU     LIG  454   5.956   8.427   4.075
    1AU       S  455   6.227   6.577   5.401
    1AU     LIG  456   6.487   6.913   5.207
    1AU     LIG  457   6.868   6.996   4.918
    1AU     LIG  458   7.221   7.238   4.675
    1AU     LIG  459   7.484   7.668   4.663
    1AU     LIG  460   7.658   8.134   4.628
    1AU    AUSL  461   5.643   6.221   5.842
    1AU    AUSL  462   5.525   6.175   5.585
    1AU     AUL  463   5.586   6.363   5.928
    1AU       S  464   5.553   6.746   5.530
    1AU     LIG  465   5.600   7.181   5.311
    1AU     LIG  466   5.691   7.675   5.283
    1AU     LIG  467   5.499   8.142   5.208
    1AU     LIG  468   5.327   8.587   5.352
    1AU     LIG  469   5.383   9.092   5.361
    1AU       S  470   5.248   6.399   5.341
    1AU     LIG  471   5.367   6.592   4.931
    1AU     LIG  472   5.131   6.863   4.604
    1AU     LIG  473   4.978   7.022   4.154
    1AU     LIG  474   4.880   7.297   3.751
    1AU     LIG  475   4.618   7.646   3.536
    1AU    AUSL  476   5.750   5.254   5.771
    1AU    AUSL  477   5.341   5.476   5.678
    1AU     AUL  478   5.646   5.492   5.534
    1AU       S  479   5.075   5.219   5.468
    1AU     LIG  480   4.856   4.813   5.624
    1AU     LIG  481   4.505   4.586   5.424
    1AU     LIG  482   4.218   4.320   5.137
    1AU     LIG  483   3.882   4.064   4.903
    1AU     LIG  484   3.488   3.767   4.841
    1AU       S  485   5.709   4.881   5.565
    1AU     LIG  486   5.706   4.576   5.259
    1AU     LIG  487   5.600   4.151   5.180
    1AU     LIG  488   5.513   3.695   5.114
    1AU     LIG  489   5.541   3.356   4.771
    1AU     LIG  490   5.620   3.065   4.388
    1AU    AUSL  491   5.916   5.418   5.927
    1AU    AUSL  492   5.899   5.442   5.649
    1AU     AUL  493   6.036   5.181   5.930
    1AU       S  494   5.865   4.763   5.732
    1AU     LIG  495   5.749   4.306   5.706
    1AU     LIG  496   5.821   3.865   5.542
    1AU     LIG  497   5.979   3.521   5.268
    1AU     LIG  498   6.237   3.153   5.135
    1AU     LIG  499   6.551   2.795   5.199
    1AU       S  500   6.163   5.045   5.390
    1AU     LIG  501   6.215   4.621   5.153
    1AU     LIG  502   6.379   4.279   4.846
    1AU     LIG  503   6.684   4.134   4.501
    1AU     LIG  504   7.010   4.134   4.143
    1AU     LIG  505   7.166   3.982   3.720
    2POPC   NC3  506   1.898   8.077   8.253
    2POPC   PO4  507   2.381   8.477   8.065
    2POPC   GL1  508   2.166   8.185   7.722
    2POPC   GL2  509   1.995   7.882   7.781
    2POPC   C1A  510   2.130   8.081   7.272
    2POPC   D2A  511   2.190   8.348   6.909
    2POPC   C3A  512   2.208   8.238   6.460
    2POPC   C4A  513   2.377   8.441   6.076
    2POPC   C1B  514   1.679   7.875   7.430
    2POPC   C2B  515   1.731   7.783   7.000
    2POPC   C3B  516   1.824   7.855   6.563
    2POPC   C4B  517   1.714   8.160   6.282
    3POPC   NC3  518   1.999   2.833   8.316
    3POPC   PO4  519   1.642   3.228   7.952
    3POPC   GL1  520   1.758   3.091   7.577
    3POPC   GL2  521   1.998   2.925   7.609
    3POPC   C1A  522   1.682   2.712   7.263
    3POPC   D2A  523   1.785   2.523   6.865
    3POPC   C3A  524   1.761   2.827   6.579
    3POPC   C4A  525   1.663   2.878   6.194
    3POPC   C1B  526   2.219   2.754   7.324
    3POPC   C2B  527   2.391   2.781   6.943
    3POPC   C3B  528   2.257   2.599   6.603
    3POPC   C4B  529   2.155   2.802   6.246
    4POPC   NC3  530   8.035   9.795   7.980
    4POPC   PO4  531   8.275   9.177   8.155
    4POPC   GL1  532   8.380   9.382   7.764
    4POPC   GL2  533   8.078   9.531   7.556
    4POPC   C1A  534   8.493   9.325   7.339
    4POPC   D2A  535   8.243   9.536   7.025
    4POPC   C3A  536   8.368   9.621   6.608
    4POPC   C4A  537   8.431   9.416   6.174
    4POPC   C1B  538   7.804   9.813   7.305
    4POPC   C2B  539   7.743   9.927   6.877
    4POPC   C3B  540   7.668   9.741   6.509
    4POPC   C4B  541   7.984   9.650   6.294
    5POPC   NC3  542   1.942   0.557   7.896
    5POPC   PO4  543   1.546   0.032   8.045
    5POPC   GL1  544   1.656   0.118   7.611
    5POPC   GL2  545   1.976   0.289   7.484
    5POPC   C1A  546   1.726   0.033   7.164
    5POPC   D2A  547   1.814   0.333   6.849
    5POPC   C3A  548   1.886   0.166   6.464
    5POPC   C4A  549   1.714   0.153   6.066
    5POPC   C1B  550   1.922   0.678   7.240
    5POPC   C2B  551   1.867   0.850   6.816
    5POPC   C3B  552   2.036   0.675   6.399
    5POPC   C4B  553   1.926   0.573   5.926
    6POPC   NC3  554   7.228   9.208   8.044
    6POPC   PO4  555   7.473   9.818   8.040
    6POPC   GL1  556   7.350   9.577   7.691
    6POPC   GL2  557   7.093   9.832   7.632
    6POPC   C1A  558   7.591   9.348   7.349
    6POPC   D2A  559   7.762   9.390   6.903
    6POPC   C3A  560   7.575   9.265   6.478
    6POPC   C4A  561   7.664   9.392   6.002
    6POPC   C1B  562   7.291   9.751   7.223
    6POPC   C2B  563   7.267   9.695   6.818
    6POPC   C3B  564   7.178   9.578   6.404
    6POPC   C4B  565   7.207   9.664   5.954
    7POPC   NC3  566  10.951   0.438   8.098
    7POPC   PO4  567   0.126   0.729   8.133
    7POPC   GL1  568   0.144   0.539   7.738
    7POPC   GL2  569  11.303   0.478   7.646
    7POPC   C1A  570   0.161   0.672   7.309
    7POPC   D2A  571  11.317   0.701   7.032
    7POPC   C3A  572  11.427   0.529   6.637
    7POPC   C4A  573  11.199   0.515   6.255
    7POPC   C1B  574  10.965   0.432   7.332
    7POPC   C2B  575  10.870   0.514   6.892
    7POPC   C3B  576  10.854   0.257   6.529
    7POPC   C4B  577  10.613   0.056   6.214
    8POPC   NC3  578  10.550   7.261   8.062
    8POPC   PO4  579  10.521   7.942   8.031
    8POPC   GL1  580  10.643   7.648   7.699
    8POPC   GL2  581  10.343   7.438   7.647
    8POPC   C1A  582  10.702   7.522   7.253
    8POPC   D2A  583  10.641   7.707   6.838
    8POPC   C3A  584  10.478   7.428   6.501
    8POPC   C4A  585  10.576   7.412   6.065
    8POPC   C1B  586  10.189   7.575   7.276
    8POPC   C2B  587  10.279   7.303   6.955
    8POPC   C3B  588  10.117   7.062   6.628
    8POPC   C4B  589  10.041   7.284   6.248
    9POPC   NC3  590   2.032   8.881   8.007
    9POPC   PO4  591   1.696   8.303   7.913
    9POPC   GL1  592   1.887   8.577   7.592
    9POPC   GL2  593   2.258   8.690   7.591
    9POPC   C1A  594   1.733   8.418   7.211
    9POPC   D2A  595   1.710   8.302   6.787
    9POPC   C3A  596   1.830   8.608   6.477
    9POPC   C4A  597   1.867   8.590   6.017
    9POPC   C1B  598   2.119   8.798   7.156
    9POPC   C2B  599   2.220   8.861   6.711
    9POPC   C3B  600   2.134   8.975   6.268
    9POPC   C4B  601   1.913   9.311   6.030
   10POPC   NC3  602   9.389   1.740   8.060
   10POPC   PO4  603   8.746   1.971   8.003
   10POPC   GL1  604   8.860   1.950   7.571
   10POPC   GL2  605   9.002   2.308   7.615
   10POPC   C1A  606   8.912   1.742   7.126
   10POPC   D2A  607   9.171   2.011   6.773
   10POPC   C3A  608   9.336   1.864   6.412
   10POPC   C4A  609   9.009   1.979   6.125
   10POPC   C1B  610   8.974   2.253   7.186
   10POPC   C2B  611   8.708   2.123   6.859
   10POPC   C3B  612   8.594   1.971   6.468
   10POPC   C4B  613   8.525   2.236   6.102
   11POPC   NC3  614  11.265   5.940   8.045
   11POPC   PO4  615  10.668   6.299   8.049
   11POPC   GL1  616  10.923   6.150   7.683
   11POPC   GL2  617  10.996   5.773   7.653
   11POPC   C1A  618  11.048   6.032   7.233
   11POPC   D2A  619  11.332   5.809   6.924
   11POPC   C3A  620  11.173   5.825   6.496
   11POPC   C4A  621  11.075   6.228   6.317
   11POPC   C1B  622  11.248   5.536   7.362
   11POPC   C2B  623  11.462   5.307   7.030
   11POPC   C3B  624  11.478   5.413   6.596
   11POPC   C4B  625  11.266   5.408   6.188
   12POPC   NC3  626   0.441   0.296   8.119
   12POPC   PO4  627   0.859   0.782   7.944
   12POPC   GL1  628   0.649   0.581   7.662
   12POPC   GL2  629   0.776   0.275   7.621
   12POPC   C1A  630   0.687   0.715   7.249
   12POPC   D2A  631   0.483   0.595   6.863
   12POPC   C3A  632   0.643   0.763   6.477
   12POPC   C4A  633   0.803   0.646   6.056
   12POPC   C1B  634   0.476   0.250   7.281
   12POPC   C2B  635   0.263   0.127   6.884
   12POPC   C3B  636   0.390   0.260   6.462
   12POPC   C4B  637   0.272   0.588   6.181
   13POPC   NC3  638   2.804   2.836   8.072
   13POPC   PO4  639   2.249   3.196   8.175
   13POPC   GL1  640   2.462   2.980   7.750
   13POPC   GL2  641   2.619   2.660   7.644
   13POPC   C1A  642   2.633   3.044   7.312
   13POPC   D2A  643   2.684   3.230   6.907
   13POPC   C3A  644   2.613   2.995   6.521
   13POPC   C4A  645   2.820   2.664   6.364
   13POPC   C1B  646   2.627   2.439   7.260
   13POPC   C2B  647   2.763   2.436   6.841
   13POPC   C3B  648   2.609   2.224   6.491
   13POPC   C4B  649   2.433   2.392   6.162
   14POPC   NC3  650  11.185   8.782   8.161
   14POPC   PO4  651  10.615   8.828   7.910
   14POPC   GL1  652  10.959   8.726   7.639
   14POPC   GL2  653  11.217   8.984   7.698
   14POPC   C1A  654  10.949   8.725   7.178
   14POPC   D2A  655  11.153   8.686   6.788
   14POPC   C3A  656  10.906   8.771   6.452
   14POPC   C4A  657  10.958   8.649   6.044
   14POPC   C1B  658  11.065   9.204   7.345
   14POPC   C2B  659  11.196   9.219   6.911
   14POPC   C3B  660  11.453   9.196   6.555
   14POPC   C4B  661  11.325   8.966   6.177
   15POPC   NC3  662   8.538  11.386   8.047
   15POPC   PO4  663   9.115  10.963   8.240
   15POPC   GL1  664   8.849  10.975   7.789
   15POPC   GL2  665   8.825  11.310   7.632
   15POPC   C1A  666   8.802  10.934   7.288
   15POPC   D2A  667   8.958  11.170   6.869
   15POPC   C3A  668   8.972  10.954   6.414
   15POPC   C4A  669   8.866  10.895   5.957
   15POPC   C1B  670   8.550  11.399   7.257
   15POPC   C2B  671   8.512   0.057   6.823
   15POPC   C3B  672   8.784  11.483   6.464
   15POPC   C4B  673   9.235  11.402   6.417
   16POPC   NC3  674   6.982  11.221   7.842
   16POPC   PO4  675   6.877  10.618   8.109
   16POPC   GL1  676   6.715  10.785   7.707
   16POPC   GL2  677   6.680  11.097   7.471
   16POPC   C1A  678   6.861  10.679   7.267
   16POPC   D2A  679   6.745  10.967   6.889
   16POPC   C3A  680   6.734  10.804   6.429
   16POPC   C4A  681   6.499  11.031   6.064
   16POPC   C1B  682   6.449  11.344   7.185
   16POPC   C2B  683   6.289  11.220   6.782
   16POPC   C3B  684   6.609  11.304   6.498
   16POPC   C4B  685   6.537   0.085   6.206
   17POPC   NC3  686   0.547   8.057   8.085
   17POPC   PO4  687   0.025   7.646   7.816
   17POPC   GL1  688   0.149   7.942   7.565
   17POPC   GL2  689   0.481   8.079   7.578
   17POPC   C1A  690   0.140   7.960   7.136
   17POPC   D2A  691   0.394   8.143   6.837
   17POPC   C3A  692   0.228   8.065   6.455
   17POPC   C4A  693   0.221   8.114   6.042
   17POPC   C1B  694   0.714   8.343   7.302
   17POPC   C2B  695   0.753   8.506   6.878
   17POPC   C3B  696   0.882   8.203   6.604
   17POPC   C4B  697   0.712   8.000   6.262
   18POPC   NC3  698   4.051  11.075   8.134
   18POPC   PO4  699   4.676  11.421   8.008
   18POPC   GL1  700   4.428  11.431   7.641
   18POPC   GL2  701   4.167  11.186   7.651
   18POPC   C1A  702   4.429  11.448   7.168
   18POPC   D2A  703   4.199   0.043   6.778
   18POPC   C3A  704   4.216  11.302   6.405
   18POPC   C4A  705   4.206  11.376   5.949
   18POPC   C1B  706   4.344  10.956   7.291
   18POPC   C2B  707   4.361  11.048   6.842
   18POPC   C3B  708   4.631  10.931   6.490
   18POPC   C4B  709   4.426  10.907   6.109
   19POPC   NC3  710   5.835  11.121   7.989
   19POPC   PO4  711   6.550  11.150   8.032
   19POPC   GL1  712   6.257  11.017   7.709
   19POPC   GL2  713   6.122  11.323   7.604
   19POPC   C1A  714   6.154  10.936   7.221
   19POPC   D2A  715   5.808  10.741   6.980
   19POPC   C3A  716   5.776  10.829   6.536
   19POPC   C4A  717   6.017  11.069   6.232
   19POPC   C1B  718   5.806  11.312   7.298
   19POPC   C2B  719   5.748  11.232   6.884
   19POPC   C3B  720   5.648  11.324   6.498
   19POPC   C4B  721   5.470   0.107   6.272
   20POPC   NC3  722   6.384   1.004   8.138
   20POPC   PO4  723   6.191   1.626   8.002
   20POPC   GL1  724   6.457   1.330   7.712
   20POPC   GL2  725   6.618   0.987   7.690
   20POPC   C1A  726   6.579   1.395   7.265
   20POPC   D2A  727   6.538   1.648   6.887
   20POPC   C3A  728   6.464   1.422   6.535
   20POPC   C4A  729   6.300   1.362   6.135
   20POPC   C1B  730   6.821   0.945   7.311
   20POPC   C2B  731   6.665   1.012   6.913
   20POPC   C3B  732   6.857   0.972   6.541
   20POPC   C4B  733   6.776   1.175   6.190
   21POPC   NC3  734   0.380   6.289   8.161
   21POPC   PO4  735   0.573   6.970   8.057
   21POPC   GL1  736   0.278   6.797   7.724
   21POPC   GL2  737   0.406   6.463   7.663
   21POPC   C1A  738   0.118   6.718   7.278
   21POPC   D2A  739   0.245   6.520   6.896
   21POPC   C3A  740   0.102   6.734   6.549
   21POPC   C4A  741   0.229   6.891   6.149
   21POPC   C1B  742   0.606   6.589   7.264
   21POPC   C2B  743   0.741   6.385   6.857
   21POPC   C3B  744   0.592   6.570   6.469
   21POPC   C4B  745   0.542   6.494   6.038
   22POPC   NC3  746   2.373   6.254   8.149
   22POPC   PO4  747   2.212   6.854   8.086
   22POPC   GL1  748   1.891   6.864   7.773
   22POPC   GL2  749   1.872   6.512   7.711
   22POPC   C1A  750   1.862   6.917   7.336
   22POPC   D2A  751   1.979   6.757   6.926
   22POPC   C3A  752   2.112   6.976   6.555
   22POPC   C4A  753   2.244   6.856   6.121
   22POPC   C1B  754   2.049   6.287   7.318
   22POPC   C2B  755   1.896   6.255   6.869
   22POPC   C3B  756   1.902   6.482   6.454
   22POPC   C4B  757   1.773   6.321   6.043
   23POPC   NC3  758  11.123   7.679   8.032
   23POPC   PO4  759  10.981   8.357   8.234
   23POPC   GL1  760  10.947   8.166   7.794
   23POPC   GL2  761  11.263   8.296   7.663
   23POPC   C1A  762  11.050   7.911   7.379
   23POPC   D2A  763  11.157   7.659   6.984
   23POPC   C3A  764  11.063   7.828   6.539
   23POPC   C4A  765  11.034   7.983   6.081
   23POPC   C1B  766  11.296   8.345   7.204
   23POPC   C2B  767  11.333   8.201   6.764
   23POPC   C3B  768  11.307   8.362   6.316
   23POPC   C4B  769  11.310   8.326   5.832
   24POPC   NC3  770   0.124   4.258   8.276
   24POPC   PO4  771   0.759   4.424   8.235
   24POPC   GL1  772   0.417   4.282   7.852
   24POPC   GL2  773   0.293   4.538   7.655
   24POPC   C1A  774   0.328   4.110   7.375
   24POPC   D2A  775   0.474   4.178   6.936
   24POPC   C3A  776   0.307   3.990   6.565
   24POPC   C4A  777   0.398   4.049   6.104
   24POPC   C1B  778   0.575   4.548   7.301
   24POPC   C2B  779   0.616   4.658   6.856
   24POPC   C3B  780   0.431   4.507   6.470
   24POPC   C4B  781   0.116   4.514   6.160
   25POPC   NC3  782   1.146   1.143   8.048
   25POPC   PO4  783   1.625   1.583   8.088
   25POPC   GL1  784   1.282   1.529   7.726
   25POPC   GL2  785   1.254   1.161   7.574
   25POPC   C1A  786   1.275   1.548   7.248
   25POPC   D2A  787   1.039   1.483   6.846
   25POPC   C3A  788   1.287   1.579   6.510
   25POPC   C4A  789   1.395   1.436   6.131
   25POPC   C1B  790   1.151   1.017   7.182
   25POPC   C2B  791   1.195   0.980   6.774
   25POPC   C3B  792   1.071   1.097   6.387
   25POPC   C4B  793   1.227   0.983   5.976
   26POPC   NC3  794   1.292   9.618   8.108
   26POPC   PO4  795   1.822   9.292   7.881
   26POPC   GL1  796   1.607   9.656   7.608
   26POPC   GL2  797   1.290   9.830   7.667
   26POPC   C1A  798   1.424   9.729   7.188
   26POPC   D2A  799   1.234   9.404   6.958
   26POPC   C3A  800   1.329   9.369   6.537
   26POPC   C4A  801   1.252   9.521   6.175
   26POPC   C1B  802   0.953   9.724   7.403
   26POPC   C2B  803   0.950   9.856   6.988
   26POPC   C3B  804   1.143   9.831   6.607
   26POPC   C4B  805   0.856   9.803   6.262
   27POPC   NC3  806   5.327   2.703   8.225
   27POPC   PO4  807   5.439   2.024   8.156
   27POPC   GL1  808   5.417   1.821   7.701
   27POPC   GL2  809   5.793   1.733   7.609
   27POPC   C1A  810   5.420   1.943   7.237
   27POPC   D2A  811   5.696   2.095   6.892
   27POPC   C3A  812   5.554   1.993   6.466
   27POPC   C4A  813   5.686   2.204   6.095
   27POPC   C1B  814   5.691   1.517   7.245
   27POPC   C2B  815   5.642   1.596   6.828
   27POPC   C3B  816   5.981   1.732   6.582
   27POPC   C4B  817   5.877   1.624   6.200
   28POPC   NC3  818   7.633   0.296   7.935
   28POPC   PO4  819   7.133  11.422   8.240
   28POPC   GL1  820   7.044   0.233   7.816
   28POPC   GL2  821   7.180   0.585   7.840
   28POPC   C1A  822   7.086   0.143   7.306
   28POPC   D2A  823   6.902  11.480   6.915
   28POPC   C3A  824   7.119   0.008   6.515
   28POPC   C4A  825   7.023   0.168   6.097
   28POPC   C1B  826   7.237   0.629   7.389
   28POPC   C2B  827   7.399   0.480   6.992
   28POPC   C3B  828   7.429   0.414   6.544
   28POPC   C4B  829   7.269   0.621   6.172
   29POPC   NC3  830   7.983   8.818   8.185
   29POPC   PO4  831   8.536   8.568   8.142
   29POPC   GL1  832   8.293   8.800   7.765
   29POPC   GL2  833   7.976   9.045   7.733
   29POPC   C1A  834   7.973   8.638   7.416
   29POPC   D2A  835   7.857   8.786   6.959
   29POPC   C3A  836   8.109   8.675   6.602
   29POPC   C4A  837   7.982   8.514   6.214
   29POPC   C1B  838   8.039   9.116   7.291
   29POPC   C2B  839   8.335   9.003   6.979
   29POPC   C3B  840   8.355   9.119   6.586
   29POPC   C4B  841   8.021   9.122   6.322
   30POPC   NC3  842   6.344   9.590   8.217
   30POPC   PO4  843   6.774   9.103   8.042
   30POPC   GL1  844   6.788   9.431   7.709
   30POPC   GL2  845   6.597   9.760   7.745
   30POPC   C1A  846   6.795   9.621   7.269
   30POPC   D2A  847   6.810   9.479   6.855
   30POPC   C3A  848   6.695   9.729   6.498
   30POPC   C4A  849   6.765   9.438   6.130
   30POPC   C1B  850   6.314   9.704   7.413
   30POPC   C2B  851   6.356   9.808   6.980
   30POPC   C3B  852   6.171   9.685   6.587
   30POPC   C4B  853   6.082   9.873   6.210
   31POPC   NC3  854   2.306   5.398   8.239
   31POPC   PO4  855   3.025   5.328   8.154
   31POPC   GL1  856   2.692   5.512   7.843
   31POPC   GL2  857   2.562   5.858   7.837
   31POPC   C1A  858   2.638   5.532   7.362
   31POPC   D2A  859   2.828   5.375   6.945
   31POPC   C3A  860   2.713   5.467   6.520
   31POPC   C4A  861   2.950   5.624   6.172
   31POPC   C1B  862   2.596   6.032   7.398
   31POPC   C2B  863   2.724   5.893   6.966
   31POPC   C3B  864   2.662   5.978   6.511
   31POPC   C4B  865   2.279   6.151   6.309
   32POPC   NC3  866   8.079   2.050   8.211
   32POPC   PO4  867   7.862   1.558   7.838
   32POPC   GL1  868   8.093   1.805   7.563
   32POPC   GL2  869   8.325   2.022   7.748
   32POPC   C1A  870   8.413   1.641   7.277
   32POPC   D2A  871   8.475   1.549   6.824
   32POPC   C3A  872   8.052   1.624   6.626
   32POPC   C4A  873   7.757   1.581   6.247
   32POPC   C1B  874   8.441   2.144   7.340
   32POPC   C2B  875   8.243   1.999   6.953
   32POPC   C3B  876   8.120   2.166   6.579
   32POPC   C4B  877   8.150   1.895   6.213
   33POPC   NC3  878   4.539  10.954   7.975
   33POPC   PO4  879   4.343  10.334   8.253
   33POPC   GL1  880   4.557  10.353   7.781
   33POPC   GL2  881   4.270  10.351   7.509
   33POPC   C1A  882   4.709  10.438   7.335
   33POPC   D2A  883   4.699  10.695   6.964
   33POPC   C3A  884   4.662  10.425   6.582
   33POPC   C4A  885   4.726  10.487   6.144
   33POPC   C1B  886   3.998  10.155   7.237
   33POPC   C2B  887   3.930   9.955   6.854
   33POPC   C3B  888   3.892  10.133   6.428
   33POPC   C4B  889   4.230  10.401   6.277
   34POPC   NC3  890   7.420   8.227   8.058
   34POPC   PO4  891   6.831   8.195   7.987
   34POPC   GL1  892   7.112   8.408   7.667
   34POPC   GL2  893   7.472   8.431   7.590
   34POPC   C1A  894   7.108   8.442   7.211
   34POPC   D2A  895   7.252   8.182   6.833
   34POPC   C3A  896   7.114   8.253   6.396
   34POPC   C4A  897   6.783   8.085   6.128
   34POPC   C1B  898   7.613   8.366   7.158
   34POPC   C2B  899   7.735   8.329   6.727
   34POPC   C3B  900   7.617   8.174   6.326
   34POPC   C4B  901   7.649   8.276   5.874
   35POPC   NC3  902   0.941   6.756   7.867
   35POPC   PO4  903   0.928   6.130   8.115
   35POPC   GL1  904   0.987   6.293   7.666
   35POPC   GL2  905   1.338   6.446   7.697
   35POPC   C1A  906   1.088   6.493   7.239
   35POPC   D2A  907   0.987   6.820   6.922
   35POPC   C3A  908   1.110   6.615   6.515
   35POPC   C4A  909   1.048   6.483   6.078
   35POPC   C1B  910   1.580   6.472   7.292
   35POPC   C2B  911   1.486   6.618   6.888
   35POPC   C3B  912   1.577   6.872   6.568
   35POPC   C4B  913   1.487   6.744   6.163
   36POPC   NC3  914   3.229   5.739   8.102
   36POPC   PO4  915   3.036   6.318   8.264
   36POPC   GL1  916   3.067   6.190   7.746
   36POPC   GL2  917   3.030   5.855   7.635
   36POPC   C1A  918   3.120   6.153   7.206
   36POPC   D2A  919   3.178   5.912   6.742
   36POPC   C3A  920   3.119   6.127   6.301
   36POPC   C4A  921   3.175   6.370   5.876
   36POPC   C1B  922   3.129   5.649   7.257
   36POPC   C2B  923   3.350   5.455   6.919
   36POPC   C3B  924   3.528   5.568   6.526
   36POPC   C4B  925   3.576   5.912   6.259
   37POPC   NC3  926   8.338   0.620   7.984
   37POPC   PO4  927   8.082   0.057   8.000
   37POPC   GL1  928   8.333   0.198   7.653
   37POPC   GL2  929   8.048   0.440   7.597
   37POPC   C1A  930   8.393   0.384   7.215
   37POPC   D2A  931   8.071   0.346   6.851
   37POPC   C3A  932   8.242   0.379   6.428
   37POPC   C4A  933   8.306   0.075   6.028
   37POPC   C1B  934   7.814   0.657   7.261
   37POPC   C2B  935   7.786   0.789   6.817
   37POPC   C3B  936   7.803   0.691   6.338
   37POPC   C4B  937   7.701   0.715   5.881
   38POPC   NC3  938   1.688   2.718   7.919
   38POPC   PO4  939   1.105   3.000   8.095
   38POPC   GL1  940   1.095   2.724   7.742
   38POPC   GL2  941   1.134   2.985   7.546
   38POPC   C1A  942   1.189   2.534   7.311
   38POPC   D2A  943   1.277   2.711   6.885
   38POPC   C3A  944   1.405   2.470   6.494
   38POPC   C4A  945   1.392   2.482   6.046
   38POPC   C1B  946   0.967   3.133   7.166
   38POPC   C2B  947   0.765   3.014   6.784
   38POPC   C3B  948   0.819   3.096   6.342
   38POPC   C4B  949   0.879   3.149   5.876
   39POPC   NC3  950   0.702   2.775   8.080
   39POPC   PO4  951   0.798   2.142   8.090
   39POPC   GL1  952   0.653   2.404   7.711
   39POPC   GL2  953   0.344   2.616   7.735
   39POPC   C1A  954   0.696   2.682   7.336
   39POPC   D2A  955   0.808   2.489   6.941
   39POPC   C3A  956   0.912   2.609   6.507
   39POPC   C4A  957   0.891   2.346   6.151
   39POPC   C1B  958   0.164   2.728   7.322
   39POPC   C2B  959   0.328   2.680   6.915
   39POPC   C3B  960   0.394   2.784   6.488
   39POPC   C4B  961   0.070   2.771   6.174
   40POPC   NC3  962   5.000   1.884   8.044
   40POPC   PO4  963   4.911   2.611   8.026
   40POPC   GL1  964   4.977   2.266   7.685
   40POPC   GL2  965   4.713   2.016   7.634
   40POPC   C1A  966   4.955   2.199   7.210
   40POPC   D2A  967   5.191   2.195   6.800
   40POPC   C3A  968   5.072   2.337   6.356
   40POPC   C4A  969   5.260   2.422   5.904
   40POPC   C1B  970   4.987   1.706   7.387
   40POPC   C2B  971   4.944   1.754   6.912
   40POPC   C3B  972   5.044   1.830   6.470
   40POPC   C4B  973   4.868   1.660   6.083
   41POPC   NC3  974   8.956  10.548   8.056
   41POPC   PO4  975   8.396  10.169   8.169
   41POPC   GL1  976   8.533  10.436   7.773
   41POPC   GL2  977   8.867  10.341   7.608
   41POPC   C1A  978   8.496  10.482   7.289
   41POPC   D2A  979   8.568  10.308   6.838
   41POPC   C3A  980   8.570  10.596   6.445
   41POPC   C4A  981   8.454  10.605   5.987
   41POPC   C1B  982   8.968  10.199   7.201
   41POPC   C2B  983   9.080  10.272   6.762
   41POPC   C3B  984   8.858  10.185   6.391
   41POPC   C4B  985   8.908  10.361   6.008
   42POPC   NC3  986   7.488   2.225   8.041
   42POPC   PO4  987   7.792   1.710   8.338
   42POPC   GL1  988   7.418   1.736   7.858
   42POPC   GL2  989   7.580   1.967   7.622
   42POPC   C1A  990   7.508   1.606   7.309
   42POPC   D2A  991   7.755   1.871   6.962
   42POPC   C3A  992   7.651   1.998   6.481
   42POPC   C4A  993   7.328   1.880   6.143
   42POPC   C1B  994   7.355   2.079   7.232
   42POPC   C2B  995   7.273   1.901   6.813
   42POPC   C3B  996   7.183   2.210   6.491
   42POPC   C4B  997   6.930   2.210   6.128
   43POPC   NC3  998   7.550   1.236   7.972
   43POPC   PO4  999   6.838   1.251   8.084
   43POPC   GL1 1000   6.984   1.378   7.679
   43POPC   GL2 1001   7.185   1.087   7.653
   43POPC   C1A 1002   7.079   1.373   7.224
   43POPC   D2A 1003   6.982   1.419   6.797
   43POPC   C3A 1004   7.257   1.457   6.440
   43POPC   C4A 1005   7.139   1.456   5.975
   43POPC   C1B 1006   7.474   1.069   7.305
   43POPC   C2B 1007   7.249   0.972   6.938
   43POPC   C3B 1008   7.373   0.951   6.537
   43POPC   C4B 1009   7.479   1.104   6.131
   44POPC   NC3 1010   2.017   9.710   7.902
   44POPC   PO4 1011   2.403   9.150   8.104
   44POPC   GL1 1012   2.336   9.363   7.694
   44POPC   GL2 1013   2.105   9.176   7.485
   44POPC   C1A 1014   2.330   9.590   7.268
   44POPC   D2A 1015   2.338   9.361   6.869
   44POPC   C3A 1016   2.120   9.453   6.491
   44POPC   C4A 1017   2.132   9.757   6.171
   44POPC   C1B 1018   1.875   9.282   7.094
   44POPC   C2B 1019   1.720   9.594   6.794
   44POPC   C3B 1020   1.663   9.742   6.387
   44POPC   C4B 1021   1.686   9.934   6.000
   45POPC   NC3 1022  11.084   3.471   7.975
   45POPC   PO4 1023   0.128   3.280   7.676
   45POPC   GL1 1024  11.192   3.464   7.483
   45POPC   GL2 1025  10.974   3.800   7.609
   45POPC   C1A 1026  10.938   3.649   7.128
   45POPC   D2A 1027  10.758   3.379   6.835
   45POPC   C3A 1028  11.082   3.179   6.606
   45POPC   C4A 1029  11.016   3.179   6.176
   45POPC   C1B 1030  11.330   3.936   7.364
   45POPC   C2B 1031   0.068   3.758   7.019
   45POPC   C3B 1032  11.304   3.799   6.657
   45POPC   C4B 1033  11.055   3.704   6.281
   46POPC   NC3 1034   8.833   8.222   8.066
   46POPC   PO4 1035   8.503   7.744   7.851
   46POPC   GL1 1036   8.868   7.839   7.626
   46POPC   GL2 1037   8.955   8.185   7.572
   46POPC   C1A 1038   8.914   7.738   7.180
   46POPC   D2A 1039   9.067   7.937   6.760
   46POPC   C3A 1040   8.925   7.750   6.344
   46POPC   C4A 1041   8.650   7.762   5.930
   46POPC   C1B 1042   9.103   8.516   7.308
   46POPC   C2B 1043   9.213   8.491   6.867
   46POPC   C3B 1044   9.009   8.331   6.448
   46POPC   C4B 1045   8.932   8.163   6.023
   47POPC   NC3 1046   1.251   8.309   8.064
   47POPC   PO4 1047   0.915   7.780   8.129
   47POPC   GL1 1048   0.979   8.044   7.723
   47POPC   GL2 1049   0.964   7.777   7.517
   47POPC   C1A 1050   1.227   8.196   7.308
   47POPC   D2A 1051   1.260   8.495   6.938
   47POPC   C3A 1052   1.325   8.445   6.473
   47POPC   C4A 1053   1.051   8.354   6.111
   47POPC   C1B 1054   1.228   7.695   7.150
   47POPC   C2B 1055   1.308   7.988   6.804
   47POPC   C3B 1056   1.261   7.948   6.370
   47POPC   C4B 1057   1.493   7.708   6.130
   48POPC   NC3 1058   0.668  10.394   7.977
   48POPC   PO4 1059   0.118  10.024   8.197
   48POPC   GL1 1060   0.286  10.125   7.727
   48POPC   GL2 1061   0.331  10.486   7.613
   48POPC   C1A 1062   0.634  10.154   7.352
   48POPC   D2A 1063   0.497  10.071   6.900
   48POPC   C3A 1064   0.782  10.199   6.603
   48POPC   C4A 1065   0.684  10.406   6.246
   48POPC   C1B 1066   0.178  10.344   7.218
   48POPC   C2B 1067   0.306  10.560   6.852
   48POPC   C3B 1068   0.240  10.568   6.424
   48POPC   C4B 1069   0.092  10.828   6.114
   49POPC   NC3 1070   1.247   3.442   8.063
   49POPC   PO4 1071   0.761   3.913   7.882
   49POPC   GL1 1072   1.138   3.771   7.602
   49POPC   GL2 1073   1.352   3.457   7.576
   49POPC   C1A 1074   1.181   3.636   7.135
   49POPC   D2A 1075   1.042   3.451   6.728
   49POPC   C3A 1076   1.144   3.722   6.367
   49POPC   C4A 1077   1.132   3.600   5.940
   49POPC   C1B 1078   1.468   3.211   7.217
   49POPC   C2B 1079   1.474   3.172   6.831
   49POPC   C3B 1080   1.523   3.397   6.496
   49POPC   C4B 1081   1.287   3.216   6.209
   50POPC   NC3 1082   1.857   7.108   8.215
   50POPC   PO4 1083   1.241   6.965   8.134
   50POPC   GL1 1084   1.374   7.016   7.713
   50POPC   GL2 1085   1.230   7.365   7.723
   50POPC   C1A 1086   1.352   6.943   7.268
   50POPC   D2A 1087   1.332   7.228   6.913
   50POPC   C3A 1088   1.125   7.129   6.535
   50POPC   C4A 1089   1.344   7.233   6.205
   50POPC   C1B 1090   0.979   7.274   7.377
   50POPC   C2B 1091   0.827   7.350   6.968
   50POPC   C3B 1092   1.002   7.605   6.650
   50POPC   C4B 1093   0.951   7.552   6.216
   51POPC   NC3 1094   3.511   9.522   8.337
   51POPC   PO4 1095   3.368  10.143   8.138
   51POPC   GL1 1096   3.597   9.974   7.787
   51POPC   GL2 1097   3.591   9.618   7.736
   51POPC   C1A 1098   3.550   9.946   7.347
   51POPC   D2A 1099   3.251   9.820   7.037
   51POPC   C3A 1100   3.474   9.786   6.674
   51POPC   C4A 1101   3.423   9.954   6.305
   51POPC   C1B 1102   3.506   9.442   7.307
   51POPC   C2B 1103   3.337   9.329   6.882
   51POPC   C3B 1104   3.513   9.328   6.438
   51POPC   C4B 1105   3.819   9.308   6.099
   52POPC   NC3 1106   8.912   3.310   8.227
   52POPC   PO4 1107   9.138   3.855   8.121
   52POPC   GL1 1108   9.239   3.619   7.725
   52POPC   GL2 1109   8.994   3.342   7.722
   52POPC   C1A 1110   9.123   3.605   7.261
   52POPC   D2A 1111   8.847   3.577   6.882
   52POPC   C3A 1112   8.984   3.687   6.454
   52POPC   C4A 1113   8.867   3.828   6.033
   52POPC   C1B 1114   8.860   3.162   7.332
   52POPC   C2B 1115   9.038   3.113   6.940
   52POPC   C3B 1116   8.789   3.142   6.585
   52POPC   C4B 1117   8.668   3.368   6.191
   53POPC   NC3 1118   1.710   5.300   7.981
   53POPC   PO4 1119   2.164   5.837   8.172
   53POPC   GL1 1120   2.116   5.591   7.763
   53POPC   GL2 1121   1.766   5.683   7.646
   53POPC   C1A 1122   2.126   5.704   7.291
   53POPC   D2A 1123   1.896   5.734   6.887
   53POPC   C3A 1124   2.139   5.686   6.511
   53POPC   C4A 1125   2.018   5.470   6.105
   53POPC   C1B 1126   1.627   5.952   7.283
   53POPC   C2B 1127   1.394   6.117   6.912
   53POPC   C3B 1128   1.468   6.195   6.486
   53POPC   C4B 1129   1.729   5.879   6.280
   54POPC   NC3 1130  11.095   9.778   8.169
   54POPC   PO4 1131   0.027   9.186   8.113
   54POPC   GL1 1132   0.011   9.409   7.677
   54POPC   GL2 1133  11.188   9.549   7.730
   54POPC   C1A 1134  11.360   9.616   7.255
   54POPC   D2A 1135  11.431   9.942   6.899
   54POPC   C3A 1136  11.391   9.731   6.523
   54POPC   C4A 1137  11.456   9.678   6.095
   54POPC   C1B 1138  10.890   9.757   7.463
   54POPC   C2B 1139  10.887   9.612   7.052
   54POPC   C3B 1140  10.888   9.569   6.630
   54POPC   C4B 1141  11.068   9.407   6.280
   55POPC   NC3 1142  10.770   5.072   8.032
   55POPC   PO4 1143  10.166   5.430   8.120
   55POPC   GL1 1144  10.219   5.266   7.701
   55POPC   GL2 1145  10.427   4.966   7.654
   55POPC   C1A 1146  10.363   5.389   7.289
   55POPC   D2A 1147  10.485   5.246   6.865
   55POPC   C3A 1148  10.182   5.271   6.543
   55POPC   C4A 1149  10.212   4.930   6.262
   55POPC   C1B 1150  10.662   4.804   7.298
   55POPC   C2B 1151  10.638   4.756   6.867
   55POPC   C3B 1152  10.684   4.899   6.441
   55POPC   C4B 1153  10.600   4.686   6.040
   56POPC   NC3 1154   5.898   0.486   8.128
   56POPC   PO4 1155   5.264   0.313   8.251
   56POPC   GL1 1156   5.456   0.480   7.791
   56POPC   GL2 1157   5.685   0.749   7.748
   56POPC   C1A 1158   5.758   0.399   7.393
   56POPC   D2A 1159   5.672   0.242   6.961
   56POPC   C3A 1160   5.994   0.183   6.643
   56POPC   C4A 1161   5.998   0.080   6.209
   56POPC   C1B 1162   6.109   0.771   7.515
   56POPC   C2B 1163   6.145   0.841   7.047
   56POPC   C3B 1164   5.870   0.700   6.698
   56POPC   C4B 1165   5.784   0.532   6.291
   57POPC   NC3 1166   9.511  11.159   8.097
   57POPC   PO4 1167   9.277  10.658   7.742
   57POPC   GL1 1168   9.561  10.940   7.577
   57POPC   GL2 1169   9.459  11.290   7.591
   57POPC   C1A 1170   9.554  11.048   7.137
   57POPC   D2A 1171   9.799  10.984   6.778
   57POPC   C3A 1172   9.532  10.973   6.444
   57POPC   C4A 1173   9.709  11.015   6.070
   57POPC   C1B 1174   9.745  11.494   7.286
   57POPC   C2B 1175   9.656  11.489   6.839
   57POPC   C3B 1176   9.762  11.442   6.414
   57POPC   C4B 1177   9.726  11.495   5.958
   58POPC   NC3 1178  10.537   8.292   8.342
   58POPC   PO4 1179   9.994   8.412   7.896
   58POPC   GL1 1180  10.032   8.274   7.541
   58POPC   GL2 1181  10.204   7.964   7.608
   58POPC   C1A 1182  10.117   8.216   7.126
   58POPC   D2A 1183  10.334   8.112   6.795
   58POPC   C3A 1184  10.169   8.317   6.478
   58POPC   C4A 1185  10.286   8.204   6.106
   58POPC   C1B 1186  10.551   8.009   7.291
   58POPC   C2B 1187  10.832   8.219   6.967
   58POPC   C3B 1188  10.767   8.262   6.510
   58POPC   C4B 1189  10.596   7.881   6.315
   59POPC   NC3 1190   4.704   1.240   7.999
   59POPC   PO4 1191   4.157   0.775   8.040
   59POPC   GL1 1192   3.998   1.055   7.719
   59POPC   GL2 1193   4.345   1.055   7.622
   59POPC   C1A 1194   3.901   0.962   7.275
   59POPC   D2A 1195   4.163   0.925   6.907
   59POPC   C3A 1196   4.009   0.950   6.538
   59POPC   C4A 1197   4.278   1.190   6.403
   59POPC   C1B 1198   4.297   1.280   7.243
   59POPC   C2B 1199   4.535   1.380   6.863
   59POPC   C3B 1200   4.584   1.566   6.496
   59POPC   C4B 1201   4.147   1.707   6.413
   60POPC   NC3 1202   1.348   4.837   8.195
   60POPC   PO4 1203   2.040   5.028   8.168
   60POPC   GL1 1204   2.036   4.935   7.731
   60POPC   GL2 1205   1.881   5.186   7.527
   60POPC   C1A 1206   2.006   4.735   7.320
   60POPC   D2A 1207   1.902   5.027   6.972
   60POPC   C3A 1208   1.872   4.814   6.571
   60POPC   C4A 1209   1.840   4.996   6.178
   60POPC   C1B 1210   2.250   5.207   7.317
   60POPC   C2B 1211   2.312   5.370   6.894
   60POPC   C3B 1212   2.272   5.198   6.461
   60POPC   C4B 1213   2.543   5.212   6.074
   61POPC   NC3 1214   9.795   5.131   8.200
   61POPC   PO4 1215   9.759   4.466   8.011
   61POPC   GL1 1216   9.925   4.824   7.734
   61POPC   GL2 1217   9.717   5.136   7.701
   61POPC   C1A 1218  10.042   4.976   7.288
   61POPC   D2A 1219  10.126   4.850   6.839
   61POPC   C3A 1220   9.790   4.950   6.514
   61POPC   C4A 1221   9.653   4.817   6.112
   61POPC   C1B 1222   9.533   5.071   7.300
   61POPC   C2B 1223   9.533   5.207   6.864
   61POPC   C3B 1224   9.343   5.183   6.443
   61POPC   C4B 1225   9.427   5.267   6.025
   62POPC   NC3 1226  11.310  11.188   7.936
   62POPC   PO4 1227  10.752   0.014   8.064
   62POPC   GL1 1228  11.008   0.060   7.714
   62POPC   GL2 1229  10.766  11.464   7.461
   62POPC   C1A 1230  11.294   0.049   7.349
   62POPC   D2A 1231  11.047   0.024   6.971
   62POPC   C3A 1232  11.310   0.003   6.637
   62POPC   C4A 1233  11.282  11.445   6.216
   62POPC   C1B 1234  11.027  11.116   7.306
   62POPC   C2B 1235  11.141  10.998   6.903
   62POPC   C3B 1236  11.306  10.993   6.516
   62POPC   C4B 1237  11.106  10.963   6.152
   63POPC   NC3 1238  10.232   3.402   8.240
   63POPC   PO4 1239  10.695   3.308   7.743
   63POPC   GL1 1240  10.306   3.284   7.569
   63POPC   GL2 1241  10.208   3.591   7.754
   63POPC   C1A 1242  10.320   3.266   7.107
   63POPC   D2A 1243  10.254   3.342   6.669
   63POPC   C3A 1244  10.595   3.492   6.350
   63POPC   C4A 1245  10.611   3.321   5.892
   63POPC   C1B 1246  10.172   3.752   7.341
   63POPC   C2B 1247  10.386   3.752   6.929
   63POPC   C3B 1248  10.209   3.853   6.531
   63POPC   C4B 1249  10.222   3.697   6.101
   64POPC   NC3 1250   6.704   0.059   8.218
   64POPC   PO4 1251   6.354   0.547   8.177
   64POPC   GL1 1252   6.293   0.326   7.742
   64POPC   GL2 1253   6.570   0.070   7.679
   64POPC   C1A 1254   6.253   0.320   7.255
   64POPC   D2A 1255   6.471   0.253   6.841
   64POPC   C3A 1256   6.370   0.553   6.516
   64POPC   C4A 1257   6.258   0.493   6.090
   64POPC   C1B 1258   6.716   0.458   7.441
   64POPC   C2B 1259   6.886   0.536   6.993
   64POPC   C3B 1260   6.885   0.457   6.533
   64POPC   C4B 1261   6.757   0.647   6.129
   65POPC   NC3 1262   4.812  10.233   8.222
   65POPC   PO4 1263   4.946  10.954   8.205
   65POPC   GL1 1264   5.034  10.590   7.856
   65POPC   GL2 1265   5.374  10.689   7.761
   65POPC   C1A 1266   5.190  10.379   7.413
   65POPC   D2A 1267   5.070  10.370   6.932
   65POPC   C3A 1268   5.083  10.133   6.524
   65POPC   C4A 1269   5.063  10.111   6.088
   65POPC   C1B 1270   5.381  10.841   7.280
   65POPC   C2B 1271   5.289  10.864   6.812
   65POPC   C3B 1272   5.137  10.657   6.409
   65POPC   C4B 1273   5.227  10.576   5.928
   66POPC   NC3 1274  11.493   5.426   8.104
   66POPC   PO4 1275   0.019   4.692   8.090
   66POPC   GL1 1276  11.190   4.808   7.816
   66POPC   GL2 1277  11.176   5.194   7.754
   66POPC   C1A 1278  11.162   4.865   7.379
   66POPC   D2A 1279  11.129   4.658   6.997
   66POPC   C3A 1280  11.156   4.885   6.642
   66POPC   C4A 1281  11.151   4.739   6.250
   66POPC   C1B 1282  10.839   5.266   7.429
   66POPC   C2B 1283  10.960   5.168   7.015
   66POPC   C3B 1284  10.941   5.361   6.610
   66POPC   C4B 1285  10.612   5.399   6.317
   67POPC   NC3 1286   8.074  10.501   8.061
   67POPC   PO4 1287   8.341   9.965   7.670
   67POPC   GL1 1288   8.014  10.253   7.597
   67POPC   GL2 1289   8.095  10.629   7.581
   67POPC   C1A 1290   7.792  10.330   7.205
   67POPC   D2A 1291   8.064  10.453   6.858
   67POPC   C3A 1292   8.147  10.122   6.558
   67POPC   C4A 1293   7.768  10.197   6.375
   67POPC   C1B 1294   7.830  10.818   7.323
   67POPC   C2B 1295   7.742  10.879   6.878
   67POPC   C3B 1296   8.041  10.899   6.577
   67POPC   C4B 1297   8.081  10.581   6.317
   68POPC   NC3 1298   4.489   2.736   7.932
   68POPC   PO4 1299   3.924   2.444   8.033
   68POPC   GL1 1300   4.092   2.503   7.635
   68POPC   GL2 1301   4.025   2.838   7.645
   68POPC   C1A 1302   4.430   2.550   7.295
   68POPC   D2A 1303   4.590   2.359   6.892
   68POPC   C3A 1304   4.580   2.574   6.492
   68POPC   C4A 1305   4.452   2.426   6.096
   68POPC   C1B 1306   3.924   2.746   7.206
   68POPC   C2B 1307   4.138   2.753   6.785
   68POPC   C3B 1308   4.120   2.749   6.326
   68POPC   C4B 1309   4.389   2.934   5.994
   69POPC   NC3 1310   1.376   6.215   8.210
   69POPC   PO4 1311   1.232   5.556   7.986
   69POPC   GL1 1312   1.257   5.861   7.663
   69POPC   GL2 1313   1.300   5.589   7.456
   69POPC   C1A 1314   1.045   5.978   7.240
   69POPC   D2A 1315   0.896   5.865   6.797
   69POPC   C3A 1316   0.953   6.110   6.410
   69POPC   C4A 1317   0.788   6.056   5.957
   69POPC   C1B 1318   1.593   5.431   7.184
   69POPC   C2B 1319   1.374   5.591   6.829
   69POPC   C3B 1320   1.263   5.693   6.416
   69POPC   C4B 1321   1.513   5.403   6.199
   70POPC   NC3 1322   3.546   0.196   8.168
   70POPC   PO4 1323   3.591  10.983   8.221
   70POPC   GL1 1324   3.675  10.946   7.795
   70POPC   GL2 1325   3.659  11.304   7.734
   70POPC   C1A 1326   3.813  10.940   7.370
   70POPC   D2A 1327   3.890  11.252   7.058
   70POPC   C3A 1328   3.775  11.123   6.627
   70POPC   C4A 1329   3.778  11.182   6.173
   70POPC   C1B 1330   3.379  11.252   7.356
   70POPC   C2B 1331   3.220  11.286   6.915
   70POPC   C3B 1332   3.330  11.332   6.455
   70POPC   C4B 1333   3.332  10.903   6.279
   71POPC   NC3 1334  11.134   4.450   8.237
   71POPC   PO4 1335  11.437   3.899   8.019
   71POPC   GL1 1336  11.367   4.277   7.788
   71POPC   GL2 1337  11.019   4.298   7.765
   71POPC   C1A 1338  11.424   4.436   7.362
   71POPC   D2A 1339  11.489   4.257   6.979
   71POPC   C3A 1340  11.384   4.334   6.575
   71POPC   C4A 1341  11.415   4.056   6.224
   71POPC   C1B 1342  10.941   4.345   7.358
   71POPC   C2B 1343  10.996   4.164   6.949
   71POPC   C3B 1344  10.894   4.428   6.577
   71POPC   C4B 1345  10.963   4.267   6.185
   72POPC   NC3 1346   9.370   4.238   8.064
   72POPC   PO4 1347  10.004   3.861   8.181
   72POPC   GL1 1348   9.831   3.944   7.757
   72POPC   GL2 1349   9.990   4.197   7.559
   72POPC   C1A 1350   9.624   3.810   7.362
   72POPC   D2A 1351   9.386   3.924   6.965
   72POPC   C3A 1352   9.478   3.895   6.523
   72POPC   C4A 1353   9.821   4.041   6.267
   72POPC   C1B 1354   9.747   4.538   7.343
   72POPC   C2B 1355   9.657   4.679   6.931
   72POPC   C3B 1356   9.641   4.462   6.521
   72POPC   C4B 1357   9.303   4.425   6.243
   73POPC   NC3 1358   2.578   8.044   7.960
   73POPC   PO4 1359   2.082   7.536   8.223
   73POPC   GL1 1360   2.045   7.379   7.788
   73POPC   GL2 1361   1.739   7.383   7.760
   73POPC   C1A 1362   2.090   7.557   7.339
   73POPC   D2A 1363   2.217   7.701   6.880
   73POPC   C3A 1364   2.209   7.500   6.471
   73POPC   C4A 1365   1.996   7.610   6.115
   73POPC   C1B 1366   1.617   7.371   7.332
   73POPC   C2B 1367   1.850   7.283   6.943
   73POPC   C3B 1368   1.719   7.359   6.532
   73POPC   C4B 1369   1.824   7.130   6.165
   74POPC   NC3 1370  10.561   1.321   8.359
   74POPC   PO4 1371  10.145   0.856   8.176
   74POPC   GL1 1372  10.234   0.994   7.765
   74POPC   GL2 1373  10.255   1.356   7.763
   74POPC   C1A 1374  10.321   1.020   7.342
   74POPC   D2A 1375   9.994   0.995   7.042
   74POPC   C3A 1376  10.170   1.009   6.630
   74POPC   C4A 1377  10.566   1.114   6.389
   74POPC   C1B 1378  10.165   1.491   7.310
   74POPC   C2B 1379  10.332   1.389   6.922
   74POPC   C3B 1380  10.261   1.515   6.500
   74POPC   C4B 1381  10.405   1.547   6.054
   75POPC   NC3 1382   0.555   4.761   8.002
   75POPC   PO4 1383   0.452   5.481   7.923
   75POPC   GL1 1384   0.516   5.133   7.653
   75POPC   GL2 1385   0.167   5.029   7.694
   75POPC   C1A 1386   0.640   5.060   7.228
   75POPC   D2A 1387   0.412   5.134   6.831
   75POPC   C3A 1388   0.602   5.030   6.461
   75POPC   C4A 1389   0.895   4.746   6.390
   75POPC   C1B 1390   0.166   4.872   7.253
   75POPC   C2B 1391   0.109   4.732   6.822
   75POPC   C3B 1392   0.108   4.954   6.416
   75POPC   C4B 1393   0.281   5.328   6.182
   76POPC   NC3 1394   0.880   7.319   8.172
   76POPC   PO4 1395   0.327   7.720   8.311
   76POPC   GL1 1396   0.536   7.618   7.829
   76POPC   GL2 1397   0.453   7.301   7.688
   76POPC   C1A 1398   0.523   7.631   7.339
   76POPC   D2A 1399   0.321   7.481   7.000
   76POPC   C3A 1400   0.500   7.665   6.642
   76POPC   C4A 1401   0.435   7.577   6.225
   76POPC   C1B 1402   0.515   7.083   7.332
   76POPC   C2B 1403   0.448   6.977   6.928
   76POPC   C3B 1404   0.379   7.170   6.560
   76POPC   C4B 1405   0.672   7.111   6.262
   77POPC   NC3 1406   2.076   4.438   8.019
   77POPC   PO4 1407   1.543   3.899   8.085
   77POPC   GL1 1408   1.618   4.185   7.721
   77POPC   GL2 1409   1.965   4.176   7.577
   77POPC   C1A 1410   1.591   4.344   7.268
   77POPC   D2A 1411   1.789   4.077   6.916
   77POPC   C3A 1412   1.665   4.122   6.477
   77POPC   C4A 1413   1.673   4.475   6.205
   77POPC   C1B 1414   2.220   3.999   7.206
   77POPC   C2B 1415   2.292   4.079   6.744
   77POPC   C3B 1416   2.135   4.364   6.409
   77POPC   C4B 1417   2.279   4.754   6.213
   78POPC   NC3 1418   7.122  10.197   8.052
   78POPC   PO4 1419   7.581  10.738   8.065
   78POPC   GL1 1420   7.566  10.512   7.635
   78POPC   GL2 1421   7.495  10.153   7.644
   78POPC   C1A 1422   7.375  10.666   7.189
   78POPC   D2A 1423   7.106  10.626   6.813
   78POPC   C3A 1424   7.423  10.560   6.520
   78POPC   C4A 1425   7.640  10.848   6.284
   78POPC   C1B 1426   7.175  10.233   7.330
   78POPC   C2B 1427   7.328  10.200   6.921
   78POPC   C3B 1428   7.283  10.074   6.495
   78POPC   C4B 1429   7.181  10.183   6.107
   79POPC   NC3 1430   1.945   1.154   8.063
   79POPC   PO4 1431   2.290   1.623   7.857
   79POPC   GL1 1432   2.081   1.347   7.598
   79POPC   GL2 1433   1.742   1.333   7.644
   79POPC   C1A 1434   2.181   1.129   7.214
   79POPC   D2A 1435   2.364   0.975   6.820
   79POPC   C3A 1436   2.143   1.167   6.454
   79POPC   C4A 1437   2.228   1.408   6.098
   79POPC   C1B 1438   1.657   1.126   7.266
   79POPC   C2B 1439   1.562   1.305   6.885
   79POPC   C3B 1440   1.595   1.143   6.493
   79POPC   C4B 1441   1.720   0.984   6.133
   80POPC   NC3 1442  10.254   9.203   8.123
   80POPC   PO4 1443  10.663   9.745   8.305
   80POPC   GL1 1444  10.563   9.637   7.846
   80POPC   GL2 1445  10.208   9.657   7.779
   80POPC   C1A 1446  10.485   9.421   7.399
   80POPC   D2A 1447  10.396   9.591   6.967
   80POPC   C3A 1448  10.348   9.527   6.521
   80POPC   C4A 1449  10.625   9.787   6.247
   80POPC   C1B 1450  10.205   9.878   7.356
   80POPC   C2B 1451  10.140  10.054   6.916
   80POPC   C3B 1452  10.070   9.960   6.460
   80POPC   C4B 1453  10.176   9.847   6.012
   81POPC   NC3 1454   1.911   3.594   8.047
   81POPC   PO4 1455   2.422   4.034   8.049
   81POPC   GL1 1456   2.245   3.757   7.686
   81POPC   GL2 1457   2.198   3.404   7.689
   81POPC   C1A 1458   1.863   3.676   7.374
   81POPC   D2A 1459   1.805   3.551   6.911
   81POPC   C3A 1460   2.011   3.735   6.496
   81POPC   C4A 1461   2.375   3.938   6.239
   81POPC   C1B 1462   2.154   3.267   7.285
   81POPC   C2B 1463   1.959   3.061   6.997
   81POPC   C3B 1464   2.144   3.154   6.635
   81POPC   C4B 1465   1.962   3.277   6.290
   82POPC   NC3 1466  10.296   2.157   8.000
   82POPC   PO4 1467   9.840   1.676   7.999
   82POPC   GL1 1468   9.668   1.792   7.620
   82POPC   GL2 1469   9.307   1.648   7.572
   82POPC   C1A 1470   9.893   1.975   7.280
   82POPC   D2A 1471  10.093   1.862   6.896
   82POPC   C3A 1472   9.844   1.826   6.491
   82POPC   C4A 1473   9.920   1.678   6.112
   82POPC   C1B 1474   9.386   1.902   7.211
   82POPC   C2B 1475   9.647   2.087   6.863
   82POPC   C3B 1476   9.590   2.335   6.477
   82POPC   C4B 1477   9.379   2.356   6.059
   83POPC   NC3 1478   0.809   5.679   8.188
   83POPC   PO4 1479   0.173   5.847   8.237
   83POPC   GL1 1480   0.214   5.941   7.773
   83POPC   GL2 1481   0.574   5.976   7.753
   83POPC   C1A 1482   0.212   5.733   7.341
   83POPC   D2A 1483   0.548   5.566   7.068
   83POPC   C3A 1484   0.472   5.584   6.610
   83POPC   C4A 1485   0.730   5.651   6.262
   83POPC   C1B 1486   0.550   6.097   7.306
   83POPC   C2B 1487   0.381   6.023   6.886
   83POPC   C3B 1488   0.450   6.061   6.424
   83POPC   C4B 1489   0.131   5.820   6.215
   84POPC   NC3 1490  10.419  10.144   8.126
   84POPC   PO4 1491  10.082  10.772   8.071
   84POPC   GL1 1492  10.260  10.465   7.711
   84POPC   GL2 1493  10.514  10.148   7.642
   84POPC   C1A 1494  10.310  10.454   7.258
   84POPC   D2A 1495  10.291  10.776   6.940
   84POPC   C3A 1496  10.305  10.590   6.553
   84POPC   C4A 1497  10.126  10.754   6.218
   84POPC   C1B 1498  10.804  10.408   7.413
   84POPC   C2B 1499  10.790  10.644   7.023
   84POPC   C3B 1500  10.807  10.732   6.574
   84POPC   C4B 1501  10.789  10.569   6.135
   85POPC   NC3 1502   4.470   0.447   7.880
   85POPC   PO4 1503   4.046   0.046   8.184
   85POPC   GL1 1504   3.981   0.210   7.717
   85POPC   GL2 1505   4.040   0.555   7.608
   85POPC   C1A 1506   4.021   0.242   7.218
   85POPC   D2A 1507   3.913   0.497   6.814
   85POPC   C3A 1508   4.055   0.337   6.385
   85POPC   C4A 1509   4.139   0.377   5.934
   85POPC   C1B 1510   4.339   0.657   7.292
   85POPC   C2B 1511   4.422   0.480   6.901
   85POPC   C3B 1512   4.433   0.670   6.492
   85POPC   C4B 1513   4.635   0.548   6.145
   86POPC   NC3 1514   1.989   1.894   8.098
   86POPC   PO4 1515   2.158   2.586   7.958
   86POPC   GL1 1516   2.015   2.301   7.651
   86POPC   GL2 1517   1.952   1.907   7.589
   86POPC   C1A 1518   2.057   2.293   7.223
   86POPC   D2A 1519   1.958   2.016   6.919
   86POPC   C3A 1520   2.080   2.106   6.486
   86POPC   C4A 1521   1.891   2.374   6.186
   86POPC   C1B 1522   1.854   1.623   7.232
   86POPC   C2B 1523   2.019   1.511   6.815
   86POPC   C3B 1524   1.840   1.601   6.398
   86POPC   C4B 1525   1.939   1.822   6.019
   87POPC   NC3 1526   9.572   3.701   8.132
   87POPC   PO4 1527   9.844   3.158   8.246
   87POPC   GL1 1528   9.766   3.335   7.806
   87POPC   GL2 1529   9.465   3.168   7.827
   87POPC   C1A 1530   9.856   3.359   7.310
   87POPC   D2A 1531   9.872   3.694   6.906
   87POPC   C3A 1532   9.817   3.528   6.460
   87POPC   C4A 1533   9.804   3.115   6.501
   87POPC   C1B 1534   9.380   3.192   7.390
   87POPC   C2B 1535   9.481   3.357   6.952
   87POPC   C3B 1536   9.320   3.302   6.538
   87POPC   C4B 1537   9.354   3.467   6.147
   88POPC   NC3 1538   8.720   8.999   8.108
   88POPC   PO4 1539   9.239   8.469   8.024
   88POPC   GL1 1540   8.899   8.668   7.763
   88POPC   GL2 1541   9.030   8.989   7.642
   88POPC   C1A 1542   8.645   8.807   7.376
   88POPC   D2A 1543   8.812   8.810   6.950
   88POPC   C3A 1544   8.648   8.699   6.542
   88POPC   C4A 1545   8.409   8.827   6.174
   88POPC   C1B 1546   8.981   9.230   7.220
   88POPC   C2B 1547   8.773   9.309   6.795
   88POPC   C3B 1548   8.854   9.141   6.333
   88POPC   C4B 1549   9.183   9.067   5.945
   89POPC   NC3 1550   2.649   1.350   8.009
   89POPC   PO4 1551   2.280   0.812   8.069
   89POPC   GL1 1552   2.478   1.002   7.656
   89POPC   GL2 1553   2.588   1.356   7.515
   89POPC   C1A 1554   2.732   0.937   7.262
   89POPC   D2A 1555   2.933   0.957   6.856
   89POPC   C3A 1556   2.720   0.937   6.450
   89POPC   C4A 1557   2.440   0.878   6.146
   89POPC   C1B 1558   3.022   1.385   7.371
   89POPC   C2B 1559   3.042   1.449   6.940
   89POPC   C3B 1560   3.043   1.315   6.511
   89POPC   C4B 1561   2.719   1.437   6.217
   90POPC   NC3 1562   9.622   8.198   8.032
   90POPC   PO4 1563   9.438   7.678   8.200
   90POPC   GL1 1564   9.382   7.902   7.691
   90POPC   GL2 1565   9.510   8.253   7.572
   90POPC   C1A 1566   9.295   8.050   7.206
   90POPC   D2A 1567   9.593   8.121   6.893
   90POPC   C3A 1568   9.505   8.250   6.524
   90POPC   C4A 1569   9.374   8.016   6.224
   90POPC   C1B 1570   9.768   7.898   7.319
   90POPC   C2B 1571   9.927   7.747   6.866
   90POPC   C3B 1572   9.877   7.901   6.408
   90POPC   C4B 1573   9.794   8.262   6.100
   91POPC   NC3 1574   6.653   1.674   8.035
   91POPC   PO4 1575   7.026   2.222   7.951
   91POPC   GL1 1576   6.965   1.894   7.630
   91POPC   GL2 1577   6.591   1.807   7.564
   91POPC   C1A 1578   6.907   1.845   7.182
   91POPC   D2A 1579   6.804   2.080   6.829
   91POPC   C3A 1580   6.861   1.809   6.475
   91POPC   C4A 1581   6.604   1.774   6.146
   91POPC   C1B 1582   6.220   1.770   7.297
   91POPC   C2B 1583   6.209   2.034   6.940
   91POPC   C3B 1584   6.387   2.046   6.540
   91POPC   C4B 1585   6.159   2.052   6.186
   92POPC   NC3 1586   6.311   3.416   8.284
   92POPC   PO4 1587   6.625   3.029   8.123
   92POPC   GL1 1588   6.453   3.267   7.732
   92POPC   GL2 1589   6.482   3.618   7.806
   92POPC   C1A 1590   6.397   3.252   7.225
   92POPC   D2A 1591   6.626   3.256   6.799
   92POPC   C3A 1592   6.423   3.253   6.372
   92POPC   C4A 1593   6.499   3.138   5.926
   92POPC   C1B 1594   6.647   3.660   7.387
   92POPC   C2B 1595   6.486   3.724   6.962
   92POPC   C3B 1596   6.602   3.719   6.514
   92POPC   C4B 1597   6.514   3.657   6.045
   93POPC   NC3 1598   8.081   1.346   8.186
   93POPC   PO4 1599   7.715   0.784   7.971
   93POPC   GL1 1600   7.909   1.070   7.641
   93POPC   GL2 1601   8.242   1.251   7.666
   93POPC   C1A 1602   7.937   1.285   7.217
   93POPC   D2A 1603   7.635   1.348   6.854
   93POPC   C3A 1604   7.834   1.173   6.493
   93POPC   C4A 1605   7.982   1.115   6.041
   93POPC   C1B 1606   8.273   0.870   7.361
   93POPC   C2B 1607   8.332   0.790   6.902
   93POPC   C3B 1608   8.250   0.906   6.482
   93POPC   C4B 1609   8.342   1.350   6.308
   94POPC   NC3 1610   6.407  10.699   8.149
   94POPC   PO4 1611   6.501  10.023   8.160
   94POPC   GL1 1612   6.481  10.305   7.806
   94POPC   GL2 1613   6.797  10.286   7.676
   94POPC   C1A 1614   6.401  10.545   7.408
   94POPC   D2A 1615   6.532  10.486   6.928
   94POPC   C3A 1616   6.272  10.670   6.577
   94POPC   C4A 1617   6.242  10.607   6.085
   94POPC   C1B 1618   6.646  10.107   7.312
   94POPC   C2B 1619   6.848  10.029   6.918
   94POPC   C3B 1620   6.819  10.268   6.536
   94POPC   C4B 1621   6.447  10.202   6.351
   95POPC   NC3 1622   6.870   2.650   8.036
   95POPC   PO4 1623   7.560   2.679   8.194
   95POPC   GL1 1624   7.341   2.721   7.765
   95POPC   GL2 1625   7.358   2.428   7.600
   95POPC   C1A 1626   7.043   2.724   7.353
   95POPC   D2A 1627   7.083   2.504   6.913
   95POPC   C3A 1628   7.058   2.710   6.468
   95POPC   C4A 1629   6.946   3.101   6.199
   95POPC   C1B 1630   7.507   2.575   7.203
   95POPC   C2B 1631   7.568   2.347   6.838
   95POPC   C3B 1632   7.592   2.533   6.460
   95POPC   C4B 1633   7.451   2.858   6.163
   96POPC   NC3 1634  11.098   2.118   8.082
   96POPC   PO4 1635  11.324   1.459   8.038
   96POPC   GL1 1636  11.255   1.777   7.741
   96POPC   GL2 1637  11.419   1.584   7.522
   96POPC   C1A 1638  11.088   1.965   7.359
   96POPC   D2A 1639  11.069   1.760   6.955
   96POPC   C3A 1640  11.149   2.013   6.587
   96POPC   C4A 1641  11.212   1.812   6.191
   96POPC   C1B 1642   0.062   1.828   7.201
   96POPC   C2B 1643   0.044   1.766   6.785
   96POPC   C3B 1644   0.163   1.928   6.433
   96POPC   C4B 1645   0.252   1.571   6.260
   97POPC   NC3 1646   5.292   0.779   8.170
   97POPC   PO4 1647   5.180   1.443   8.017
   97POPC   GL1 1648   5.059   1.161   7.664
   97POPC   GL2 1649   5.241   0.886   7.526
   97POPC   C1A 1650   4.779   1.121   7.275
   97POPC   D2A 1651   4.686   0.914   6.857
   97POPC   C3A 1652   4.943   0.860   6.510
   97POPC   C4A 1653   4.743   1.051   6.174
   97POPC   C1B 1654   5.257   1.265   7.228
   97POPC   C2B 1655   5.072   1.266   6.836
   97POPC   C3B 1656   5.082   1.337   6.415
   97POPC   C4B 1657   5.391   1.449   6.130
   98POPC   NC3 1658   0.333   3.671   7.837
   98POPC   PO4 1659   0.347   3.044   8.153
   98POPC   GL1 1660   0.593   3.071   7.674
   98POPC   GL2 1661   0.799   3.377   7.643
   98POPC   C1A 1662   0.462   3.122   7.177
   98POPC   D2A 1663   0.072   3.225   6.917
   98POPC   C3A 1664   0.106   3.398   6.486
   98POPC   C4A 1665   0.371   3.235   6.169
   98POPC   C1B 1666   0.670   3.591   7.234
   98POPC   C2B 1667   0.521   3.541   6.794
   98POPC   C3B 1668   0.639   3.640   6.347
   98POPC   C4B 1669   0.615   3.603   5.873
   99POPC   NC3 1670  10.265   6.558   7.978
   99POPC   PO4 1671  10.752   7.016   7.735
   99POPC   GL1 1672  10.396   6.875   7.600
   99POPC   GL2 1673  10.576   6.545   7.578
   99POPC   C1A 1674  10.288   6.830   7.185
   99POPC   D2A 1675  10.390   6.658   6.797
   99POPC   C3A 1676  10.602   6.900   6.551
   99POPC   C4A 1677  10.441   6.965   6.241
   99POPC   C1B 1678  10.453   6.323   7.217
   99POPC   C2B 1679  10.290   6.173   6.829
   99POPC   C3B 1680  10.364   6.297   6.400
   99POPC   C4B 1681  10.192   6.143   6.035
  100POPC   NC3 1682  10.538   5.790   8.083
  100POPC   PO4 1683   9.951   6.178   7.984
  100POPC   GL1 1684  10.306   6.104   7.701
  100POPC   GL2 1685  10.194   5.775   7.691
  100POPC   C1A 1686  10.588   5.857   7.395
  100POPC   D2A 1687  10.775   5.640   7.051
  100POPC   C3A 1688  10.696   5.867   6.686
  100POPC   C4A 1689  10.687   5.904   6.260
  100POPC   C1B 1690  10.113   5.899   7.257
  100POPC   C2B 1691  10.247   5.684   6.880
  100POPC   C3B 1692  10.223   5.777   6.437
  100POPC   C4B 1693  10.294   5.656   5.987
  101POPC   NC3 1694  11.461   2.840   8.002
  101POPC   PO4 1695  10.843   3.130   8.211
  101POPC   GL1 1696  10.984   2.907   7.739
  101POPC   GL2 1697  11.276   2.940   7.554
  101POPC   C1A 1698  10.921   2.998   7.235
  101POPC   D2A 1699  11.246   2.821   6.988
  101POPC   C3A 1700  11.049   2.603   6.705
  101POPC   C4A 1701  11.048   2.691   6.327
  101POPC   C1B 1702  11.199   2.503   7.394
  101POPC   C2B 1703  11.385   2.290   7.024
  101POPC   C3B 1704   0.024   2.395   6.606
  101POPC   C4B 1705  11.365   2.299   6.203
  102POPC   NC3 1706   3.496   2.756   8.049
  102POPC   PO4 1707   2.926   2.378   8.017
  102POPC   GL1 1708   3.153   2.616   7.670
  102POPC   GL2 1709   3.546   2.562   7.578
  102POPC   C1A 1710   3.147   2.838   7.253
  102POPC   D2A 1711   3.040   2.866   6.788
  102POPC   C3A 1712   3.271   2.911   6.361
  102POPC   C4A 1713   3.259   2.909   5.880
  102POPC   C1B 1714   3.535   2.386   7.150
  102POPC   C2B 1715   3.682   2.474   6.731
  102POPC   C3B 1716   3.644   2.562   6.299
  102POPC   C4B 1717   3.577   2.478   5.864
  103POPC   NC3 1718   9.541   7.234   8.135
  103POPC   PO4 1719  10.162   7.000   8.074
  103POPC   GL1 1720   9.907   7.129   7.702
  103POPC   GL2 1721   9.822   7.507   7.708
  103POPC   C1A 1722   9.803   7.019   7.248
  103POPC   D2A 1723   9.708   7.254   6.836
  103POPC   C3A 1724   9.609   7.045   6.397
  103POPC   C4A 1725   9.761   6.979   5.944
  103POPC   C1B 1726   9.489   7.474   7.399
  103POPC   C2B 1727   9.385   7.607   6.991
  103POPC   C3B 1728   9.457   7.649   6.567
  103POPC   C4B 1729   9.588   7.516   6.164
  104POPC   NC3 1730   5.503  10.387   8.441
  104POPC   PO4 1731   5.848   9.715   8.194
  104POPC   GL1 1732   5.638   9.930   7.818
  104POPC   GL2 1733   5.859   9.736   7.641
  104POPC   C1A 1734   5.483   9.934   7.368
  104POPC   D2A 1735   5.801   9.874   6.991
  104POPC   C3A 1736   5.663   9.893   6.539
  104POPC   C4A 1737   5.519   9.804   6.091
  104POPC   C1B 1738   5.695   9.474   7.282
  104POPC   C2B 1739   5.486   9.476   6.846
  104POPC   C3B 1740   5.535   9.386   6.395
  104POPC   C4B 1741   5.949   9.387   6.176
  105POPC   NC3 1742   2.005  11.419   8.143
  105POPC   PO4 1743   1.781  10.822   8.090
  105POPC   GL1 1744   1.793  11.112   7.726
  105POPC   GL2 1745   2.094  11.305   7.659
  105POPC   C1A 1746   1.866  11.051   7.288
  105POPC   D2A 1747   1.696  11.084   6.884
  105POPC   C3A 1748   1.972  11.108   6.545
  105POPC   C4A 1749   1.939  10.917   6.161
  105POPC   C1B 1750   2.306  11.445   7.291
  105POPC   C2B 1751   2.153  11.426   6.886
  105POPC   C3B 1752   2.375  11.449   6.488
  105POPC   C4B 1753   2.143  11.378   6.132
  106POPC   NC3 1754   4.134  10.102   7.919
  106POPC   PO4 1755   4.709   9.700   8.057
  106POPC   GL1 1756   4.524   9.836   7.692
  106POPC   GL2 1757   4.203   9.647   7.691
  106POPC   C1A 1758   4.433   9.863   7.256
  106POPC   D2A 1759   4.327   9.626   6.876
  106POPC   C3A 1760   4.364   9.928   6.544
  106POPC   C4A 1761   4.626   9.932   6.208
  106POPC   C1B 1762   3.968   9.641   7.298
  106POPC   C2B 1763   3.832   9.450   6.891
  106POPC   C3B 1764   3.940   9.611   6.482
  106POPC   C4B 1765   4.234   9.618   6.151
  107POPC   NC3 1766   2.678   9.515   8.123
  107POPC   PO4 1767   2.434  10.080   7.936
  107POPC   GL1 1768   2.690   9.773   7.676
  107POPC   GL2 1769   3.070   9.699   7.691
  107POPC   C1A 1770   2.795   9.844   7.262
  107POPC   D2A 1771   2.734   9.980   6.859
  107POPC   C3A 1772   2.436   9.835   6.646
  107POPC   C4A 1773   2.586   9.649   6.324
  107POPC   C1B 1774   3.011   9.394   7.314
  107POPC   C2B 1775   2.848   9.471   6.890
  107POPC   C3B 1776   3.044   9.552   6.493
  107POPC   C4B 1777   2.924   9.327   6.064
  108POPC   NC3 1778   6.782   8.646   7.997
  108POPC   PO4 1779   7.519   8.688   8.083
  108POPC   GL1 1780   7.457   8.926   7.695
  108POPC   GL2 1781   7.089   8.917   7.650
  108POPC   C1A 1782   7.454   8.851   7.261
  108POPC   D2A 1783   7.354   8.699   6.847
  108POPC   C3A 1784   7.601   8.765   6.497
  108POPC   C4A 1785   7.401   8.618   6.176
  108POPC   C1B 1786   7.106   9.231   7.341
  108POPC   C2B 1787   7.279   9.211   6.925
  108POPC   C3B 1788   7.122   9.045   6.532
  108POPC   C4B 1789   7.221   9.158   6.109
  109POPC   NC3 1790  10.508   2.905   7.902
  109POPC   PO4 1791  10.729   2.240   7.849
  109POPC   GL1 1792  10.471   2.482   7.588
  109POPC   GL2 1793  10.102   2.409   7.482
  109POPC   C1A 1794  10.705   2.529   7.231
  109POPC   D2A 1795  10.859   2.225   6.970
  109POPC   C3A 1796  10.692   2.240   6.544
  109POPC   C4A 1797  10.468   2.551   6.374
  109POPC   C1B 1798  10.246   2.767   7.215
  109POPC   C2B 1799  10.579   2.855   6.869
  109POPC   C3B 1800  10.608   3.012   6.471
  109POPC   C4B 1801  10.241   3.141   6.213
  110POPC   NC3 1802   9.687   8.744   8.072
  110POPC   PO4 1803   9.790   9.348   8.022
  110POPC   GL1 1804   9.554   9.054   7.676
  110POPC   GL2 1805   9.693   8.729   7.575
  110POPC   C1A 1806   9.391   8.921   7.224
  110POPC   D2A 1807   9.224   9.047   6.798
  110POPC   C3A 1808   9.233   8.790   6.449
  110POPC   C4A 1809   9.431   8.629   6.086
  110POPC   C1B 1810   9.712   8.522   7.201
  110POPC   C2B 1811   9.939   8.627   6.862
  110POPC   C3B 1812   9.778   8.670   6.490
  110POPC   C4B 1813   9.955   8.732   6.124
  111POPC   NC3 1814   2.908  10.157   7.981
  111POPC   PO4 1815   2.618  10.799   8.063
  111POPC   GL1 1816   2.913  10.672   7.778
  111POPC   GL2 1817   2.671  10.462   7.648
  111POPC   C1A 1818   3.017  10.712   7.344
  111POPC   D2A 1819   2.742  10.763   6.989
  111POPC   C3A 1820   2.953  10.723   6.600
  111POPC   C4A 1821   2.800  10.615   6.216
  111POPC   C1B 1822   2.609  10.326   7.262
  111POPC   C2B 1823   2.363  10.392   6.928
  111POPC   C3B 1824   2.532  10.378   6.575
  111POPC   C4B 1825   2.555  10.141   6.223
  112POPC   NC3 1826   7.774  11.183   7.987
  112POPC   PO4 1827   8.348  10.903   8.018
  112POPC   GL1 1828   8.342  11.105   7.641
  112POPC   GL2 1829   8.039  11.253   7.578
  112POPC   C1A 1830   8.284  10.974   7.226
  112POPC   D2A 1831   8.444  10.806   6.903
  112POPC   C3A 1832   8.515  11.079   6.642
  112POPC   C4A 1833   8.485  11.090   6.238
  112POPC   C1B 1834   8.040   0.015   7.261
  112POPC   C2B 1835   8.072  11.309   6.891
  112POPC   C3B 1836   8.145  11.390   6.482
  112POPC   C4B 1837   7.989  11.181   6.121
  113POPC   NC3 1838   2.474   2.262   7.918
  113POPC   PO4 1839   2.597   1.740   8.263
  113POPC   GL1 1840   2.707   1.834   7.730
  113POPC   GL2 1841   2.852   2.122   7.592
  113POPC   C1A 1842   2.403   1.953   7.347
  113POPC   D2A 1843   2.459   2.040   6.930
  113POPC   C3A 1844   2.442   1.738   6.570
  113POPC   C4A 1845   2.436   1.876   6.133
  113POPC   C1B 1846   2.869   1.869   7.229
  113POPC   C2B 1847   3.042   1.984   6.857
  113POPC   C3B 1848   3.121   2.239   6.513
  113POPC   C4B 1849   2.936   1.988   6.178
  114POPC   NC3 1850   4.444   9.322   8.037
  114POPC   PO4 1851   3.835   9.322   8.070
  114POPC   GL1 1852   3.917   9.226   7.620
  114POPC   GL2 1853   4.153   8.991   7.710
  114POPC   C1A 1854   4.151   9.172   7.206
  114POPC   D2A 1855   4.080   8.992   6.779
  114POPC   C3A 1856   4.217   9.170   6.374
  114POPC   C4A 1857   4.275   9.140   5.896
  114POPC   C1B 1858   4.413   8.765   7.409
  114POPC   C2B 1859   4.507   8.724   6.972
  114POPC   C3B 1860   4.548   8.829   6.528
  114POPC   C4B 1861   4.307   8.700   6.160
  115POPC   NC3 1862  10.898   1.373   7.847
  115POPC   PO4 1863  10.541   1.773   8.226
  115POPC   GL1 1864  10.572   1.766   7.735
  115POPC   GL2 1865  10.250   1.862   7.611
  115POPC   C1A 1866  10.661   1.639   7.269
  115POPC   D2A 1867  10.579   1.825   6.831
  115POPC   C3A 1868  10.745   1.712   6.444
  115POPC   C4A 1869  10.726   1.941   6.041
  115POPC   C1B 1870  10.424   2.084   7.258
  115POPC   C2B 1871  10.331   2.345   6.918
  115POPC   C3B 1872  10.101   2.259   6.566
  115POPC   C4B 1873  10.297   1.984   6.301
  116POPC   NC3 1874  10.925   6.709   8.019
  116POPC   PO4 1875  11.459   6.348   7.999
  116POPC   GL1 1876  11.400   6.366   7.625
  116POPC   GL2 1877  11.266   6.700   7.640
  116POPC   C1A 1878   0.015   6.217   7.246
  116POPC   D2A 1879  11.265   6.337   6.882
  116POPC   C3A 1880  11.499   6.205   6.581
  116POPC   C4A 1881   0.079   6.348   6.205
  116POPC   C1B 1882  11.027   6.543   7.314
  116POPC   C2B 1883  10.888   6.711   6.939
  116POPC   C3B 1884  11.099   6.828   6.556
  116POPC   C4B 1885  11.243   6.709   6.162
  117POPC   NC3 1886   2.207  10.506   7.993
  117POPC   PO4 1887   1.624   9.977   8.051
  117POPC   GL1 1888   1.628  10.218   7.655
  117POPC   GL2 1889   1.741  10.561   7.659
  117POPC   C1A 1890   1.701  10.157   7.212
  117POPC   D2A 1891   2.025   9.993   6.922
  117POPC   C3A 1892   2.044  10.127   6.488
  117POPC   C4A 1893   1.800  10.380   6.193
  117POPC   C1B 1894   2.021  10.552   7.308
  117POPC   C2B 1895   1.856  10.542   6.893
  117POPC   C3B 1896   2.058  10.615   6.554
  117POPC   C4B 1897   2.281  10.559   6.168
  118POPC   NC3 1898   2.769   0.590   8.011
  118POPC   PO4 1899   2.253   0.220   7.922
  118POPC   GL1 1900   2.417   0.490   7.651
  118POPC   GL2 1901   2.705   0.301   7.571
  118POPC   C1A 1902   2.410   0.537   7.221
  118POPC   D2A 1903   2.505   0.285   6.893
  118POPC   C3A 1904   2.508   0.477   6.515
  118POPC   C4A 1905   2.336   0.360   6.140
  118POPC   C1B 1906   2.918   0.161   7.179
  118POPC   C2B 1907   2.984   0.195   6.734
  118POPC   C3B 1908   2.872   0.170   6.324
  118POPC   C4B 1909   3.114   0.159   5.966
  119POPC   NC3 1910   2.954  11.110   8.088
  119POPC   PO4 1911   3.069   0.199   8.033
  119POPC   GL1 1912   2.983  11.390   7.669
  119POPC   GL2 1913   2.612  11.258   7.715
  119POPC   C1A 1914   2.845  11.180   7.282
  119POPC   D2A 1915   2.638  11.274   6.914
  119POPC   C3A 1916   2.847  11.216   6.544
  119POPC   C4A 1917   2.953  11.189   6.119
  119POPC   C1B 1918   2.398  10.939   7.408
  119POPC   C2B 1919   2.244  10.908   6.968
  119POPC   C3B 1920   2.457  10.902   6.578
  119POPC   C4B 1921   2.495  11.023   6.179
  120POPC   NC3 1922   1.560  10.425   8.147
  120POPC   PO4 1923   0.960  10.723   8.100
  120POPC   GL1 1924   1.236  10.638   7.782
  120POPC   GL2 1925   1.132  10.315   7.755
  120POPC   C1A 1926   1.090  10.693   7.356
  120POPC   D2A 1927   0.851  10.548   6.977
  120POPC   C3A 1928   1.113  10.608   6.575
  120POPC   C4A 1929   1.549  10.723   6.466
  120POPC   C1B 1930   1.169  10.189   7.332
  120POPC   C2B 1931   1.279  10.254   6.931
  120POPC   C3B 1932   1.551  10.192   6.629
  120POPC   C4B 1933   1.318  10.190   6.276
  121POPC   NC3 1934   9.844   1.216   8.065
  121POPC   PO4 1935   9.145   1.358   7.988
  121POPC   GL1 1936   9.449   1.159   7.704
  121POPC   GL2 1937   9.763   1.283   7.581
  121POPC   C1A 1938   9.539   0.899   7.321
  121POPC   D2A 1939   9.513   1.039   6.873
  121POPC   C3A 1940   9.268   1.158   6.492
  121POPC   C4A 1941   9.529   0.910   6.242
  121POPC   C1B 1942   9.678   1.478   7.209
  121POPC   C2B 1943   9.822   1.443   6.825
  121POPC   C3B 1944   9.791   1.294   6.441
  121POPC   C4B 1945  10.101   1.170   6.139
  122POPC   NC3 1946   9.952   0.428   8.112
  122POPC   PO4 1947   9.486   0.928   8.173
  122POPC   GL1 1948   9.758   0.777   7.797
  122POPC   GL2 1949   9.574   0.496   7.772
  122POPC   C1A 1950   9.946   0.563   7.406
  122POPC   D2A 1951  10.002   0.333   7.007
  122POPC   C3A 1952   9.879   0.564   6.653
  122POPC   C4A 1953  10.006   0.691   6.255
  122POPC   C1B 1954   9.436   0.379   7.394
  122POPC   C2B 1955   9.483   0.479   6.992
  122POPC   C3B 1956   9.393   0.353   6.585
  122POPC   C4B 1957   9.589   0.400   6.223
  123POPC   NC3 1958   5.044  11.389   8.340
  123POPC   PO4 1959   5.604   0.021   7.915
  123POPC   GL1 1960   5.402  11.226   7.617
  123POPC   GL2 1961   5.056  11.099   7.726
  123POPC   C1A 1962   5.298  11.351   7.169
  123POPC   D2A 1963   5.233   0.025   6.749
  123POPC   C3A 1964   5.129  11.224   6.439
  123POPC   C4A 1965   5.412  11.026   6.155
  123POPC   C1B 1966   4.832  11.174   7.358
  123POPC   C2B 1967   4.860  11.190   6.922
  123POPC   C3B 1968   4.679  11.420   6.619
  123POPC   C4B 1969   4.667  11.358   6.187
  124POPC   NC3 1970   0.474   9.049   8.192
  124POPC   PO4 1971   0.802   8.521   7.974
  124POPC   GL1 1972   0.608   8.810   7.668
  124POPC   GL2 1973   0.238   8.919   7.703
  124POPC   C1A 1974   0.523   8.814   7.221
  124POPC   D2A 1975   0.416   9.048   6.845
  124POPC   C3A 1976   0.648   8.888   6.529
  124POPC   C4A 1977   0.588   8.503   6.324
  124POPC   C1B 1978   0.008   8.856   7.284
  124POPC   C2B 1979   0.147   8.607   6.913
  124POPC   C3B 1980   0.157   8.725   6.488
  124POPC   C4B 1981   0.313   9.098   6.196
  125POPC   NC3 1982   4.213   0.444   8.354
  125POPC   PO4 1983   3.567   0.644   8.311
  125POPC   GL1 1984   3.563   0.569   7.801
  125POPC   GL2 1985   3.387   0.258   7.646
  125POPC   C1A 1986   3.624   0.535   7.300
  125POPC   D2A 1987   3.550   0.177   6.976
  125POPC   C3A 1988   3.531   0.314   6.513
  125POPC   C4A 1989   3.639   0.201   6.071
  125POPC   C1B 1990   3.132   0.568   7.376
  125POPC   C2B 1991   3.260   0.592   6.907
  125POPC   C3B 1992   3.117   0.615   6.434
  125POPC   C4B 1993   3.307   0.634   6.004
  126POPC   NC3 1994   1.059   8.908   7.968
  126POPC   PO4 1995   1.453   8.569   8.427
  126POPC   GL1 1996   1.533   8.775   7.912
  126POPC   GL2 1997   1.342   8.573   7.646
  126POPC   C1A 1998   1.587   8.926   7.394
  126POPC   D2A 1999   1.645   8.833   6.930
  126POPC   C3A 2000   1.749   9.101   6.598
  126POPC   C4A 2001   1.540   9.026   6.202
  126POPC   C1B 2002   1.046   8.734   7.340
  126POPC   C2B 2003   0.959   8.966   6.980
  126POPC   C3B 2004   1.175   8.910   6.634
  126POPC   C4B 2005   1.066   8.835   6.249
  127POPC   NC3 2006   9.705  10.521   7.904
  127POPC   PO4 2007   9.169  10.096   7.993
  127POPC   GL1 2008   9.429  10.213   7.568
  127POPC   GL2 2009   9.821  10.285   7.484
  127POPC   C1A 2010   9.475  10.282   7.102
  127POPC   D2A 2011   9.604  10.080   6.681
  127POPC   C3A 2012   9.359  10.252   6.310
  127POPC   C4A 2013   9.416  10.248   5.854
  127POPC   C1B 2014   9.832  10.623   7.238
  127POPC   C2B 2015   9.880  10.492   6.845
  127POPC   C3B 2016   9.765  10.512   6.446
  127POPC   C4B 2017   9.864  10.262   6.104
  128POPC   NC3 2018   3.478   9.117   7.879
  128POPC   PO4 2019   3.118   8.588   7.926
  128POPC   GL1 2020   3.294   8.806   7.530
  128POPC   GL2 2021   3.676   8.770   7.548
  128POPC   C1A 2022   3.155   8.875   7.100
  128POPC   D2A 2023   3.169   8.533   6.785
  128POPC   C3A 2024   3.241   8.681   6.403
  128POPC   C4A 2025   3.079   9.055   6.471
  128POPC   C1B 2026   3.669   8.990   7.157
  128POPC   C2B 2027   3.563   8.905   6.737
  128POPC   C3B 2028   3.775   8.859   6.356
  128POPC   C4B 2029   3.867   8.809   5.930
  129POPC   NC3 2030  10.526   0.704   8.381
  129POPC   PO4 2031  10.240   0.164   8.364
  129POPC   GL1 2032  10.309   0.173   7.858
  129POPC   GL2 2033  10.474   0.515   7.880
  129POPC   C1A 2034  10.273   0.073   7.375
  129POPC   D2A 2035  10.503   0.160   6.939
  129POPC   C3A 2036  10.220   0.157   6.543
  129POPC   C4A 2037  10.171   0.247   6.076
  129POPC   C1B 2038  10.474   0.541   7.424
  129POPC   C2B 2039  10.384   0.661   6.984
  129POPC   C3B 2040  10.466   0.605   6.551
  129POPC   C4B 2041  10.670   0.614   6.166
  130POPC   NC3 2042   2.436   7.251   8.088
  130POPC   PO4 2043   2.790   7.645   7.883
  130POPC   GL1 2044   2.527   7.397   7.591
  130POPC   GL2 2045   2.374   7.037   7.616
  130POPC   C1A 2046   2.586   7.574   7.195
  130POPC   D2A 2047   2.592   8.019   7.035
  130POPC   C3A 2048   2.632   7.965   6.600
  130POPC   C4A 2049   2.720   7.552   6.410
  130POPC   C1B 2050   2.303   7.126   7.166
  130POPC   C2B 2051   2.507   7.226   6.777
  130POPC   C3B 2052   2.642   7.029   6.371
  130POPC   C4B 2053   2.702   6.897   5.890
  131POPC   NC3 2054   1.185   1.876   8.115
  131POPC   PO4 2055   1.778   2.314   8.197
  131POPC   GL1 2056   1.556   2.130   7.833
  131POPC   GL2 2057   1.205   2.223   7.739
  131POPC   C1A 2058   1.571   2.168   7.363
  131POPC   D2A 2059   1.374   2.199   6.955
  131POPC   C3A 2060   1.572   2.002   6.611
  131POPC   C4A 2061   1.513   2.005   6.203
  131POPC   C1B 2062   1.049   2.011   7.367
  131POPC   C2B 2063   0.903   1.982   6.936
  131POPC   C3B 2064   1.067   2.054   6.517
  131POPC   C4B 2065   1.068   1.828   6.093
  132POPC   NC3 2066   5.414   9.557   8.089
  132POPC   PO4 2067   5.287  10.169   8.098
  132POPC   GL1 2068   5.012  10.039   7.763
  132POPC   GL2 2069   5.104   9.694   7.704
  132POPC   C1A 2070   4.940   9.958   7.309
  132POPC   D2A 2071   5.159   9.858   6.943
  132POPC   C3A 2072   4.866   9.681   6.639
  132POPC   C4A 2073   5.081   9.638   6.283
  132POPC   C1B 2074   5.170   9.478   7.284
  132POPC   C2B 2075   5.009   9.248   6.888
  132POPC   C3B 2076   5.010   9.143   6.428
  132POPC   C4B 2077   5.173   9.232   5.980
  133POPC   NC3 2078   5.685   1.628   8.089
  133POPC   PO4 2079   5.888   0.948   8.159
  133POPC   GL1 2080   5.930   1.216   7.798
  133POPC   GL2 2081   5.583   1.263   7.691
  133POPC   C1A 2082   6.100   1.262   7.377
  133POPC   D2A 2083   6.110   1.386   6.946
  133POPC   C3A 2084   5.956   1.220   6.550
  133POPC   C4A 2085   6.097   0.930   6.267
  133POPC   C1B 2086   5.684   0.990   7.310
  133POPC   C2B 2087   5.612   1.093   6.905
  133POPC   C3B 2088   5.468   1.011   6.505
  133POPC   C4B 2089   5.620   0.995   6.098
  134POPC   NC3 2090   9.449   9.679   8.021
  134POPC   PO4 2091   9.975  10.108   7.957
  134POPC   GL1 2092   9.748   9.825   7.640
  134POPC   GL2 2093   9.699   9.518   7.546
  134POPC   C1A 2094   9.736   9.855   7.177
  134POPC   D2A 2095   9.909   9.580   6.876
  134POPC   C3A 2096   9.698   9.575   6.523
  134POPC   C4A 2097   9.616   9.835   6.183
  134POPC   C1B 2098   9.501   9.396   7.134
  134POPC   C2B 2099   9.717   9.108   6.827
  134POPC   C3B 2100   9.979   9.138   6.494
  134POPC   C4B 2101   9.597   9.102   6.286
  135POPC   NC3 2102   8.744   1.534   7.843
  135POPC   PO4 2103   8.481   1.032   8.121
  135POPC   GL1 2104   8.675   0.979   7.690
  135POPC   GL2 2105   8.958   1.164   7.582
  135POPC   C1A 2106   8.632   1.185   7.228
  135POPC   D2A 2107   8.886   1.210   6.887
  135POPC   C3A 2108   8.731   1.026   6.574
  135POPC   C4A 2109   8.654   0.905   6.188
  135POPC   C1B 2110   9.218   1.283   7.245
  135POPC   C2B 2111   9.298   1.524   6.858
  135POPC   C3B 2112   8.942   1.603   6.582
  135POPC   C4B 2113   8.845   1.402   6.239
  136POPC   NC3 2114   9.022   0.909   8.125
  136POPC   PO4 2115   8.697   0.339   8.000
  136POPC   GL1 2116   9.032   0.504   7.796
  136POPC   GL2 2117   9.169   0.174   7.779
  136POPC   C1A 2118   9.060   0.718   7.422
  136POPC   D2A 2119   8.819   0.725   7.069
  136POPC   C3A 2120   9.113   0.745   6.744
  136POPC   C4A 2121   9.095   0.666   6.293
  136POPC   C1B 2122   8.935   0.228   7.358
  136POPC   C2B 2123   8.977   0.260   6.907
  136POPC   C3B 2124   8.708   0.486   6.598
  136POPC   C4B 2125   8.675   0.386   6.158
  137POPC   NC3 2126   3.609   1.091   8.111
  137POPC   PO4 2127   2.954   1.018   7.925
  137POPC   GL1 2128   3.302   0.991   7.662
  137POPC   GL2 2129   3.511   1.282   7.642
  137POPC   C1A 2130   3.370   1.001   7.234
  137POPC   D2A 2131   3.476   1.146   6.880
  137POPC   C3A 2132   3.516   0.889   6.570
  137POPC   C4A 2133   3.432   1.113   6.247
  137POPC   C1B 2134   3.747   1.448   7.302
  137POPC   C2B 2135   3.943   1.389   6.890
  137POPC   C3B 2136   3.752   1.404   6.507
  137POPC   C4B 2137   3.701   1.663   6.150
  138POPC   NC3 2138   3.672  10.504   8.235
  138POPC   PO4 2139   4.172  10.678   7.878
  138POPC   GL1 2140   3.788  10.452   7.698
  138POPC   GL2 2141   3.395  10.467   7.747
  138POPC   C1A 2142   3.586  10.471   7.286
  138POPC   D2A 2143   3.527  10.241   6.917
  138POPC   C3A 2144   3.484  10.486   6.569
  138POPC   C4A 2145   3.797  10.681   6.291
  138POPC   C1B 2146   3.138  10.229   7.386
  138POPC   C2B 2147   3.042  10.348   6.947
  138POPC   C3B 2148   3.031  10.225   6.482
  138POPC   C4B 2149   3.291  10.407   6.112
  139POPC   NC3 2150  11.351  10.326   8.440
  139POPC   PO4 2151  10.895  10.190   8.077
  139POPC   GL1 2152  11.227  10.088   7.772
  139POPC   GL2 2153  11.333  10.423   7.706
  139POPC   C1A 2154  11.223  10.116   7.317
  139POPC   D2A 2155  10.906  10.122   6.978
  139POPC   C3A 2156  10.998  10.067   6.528
  139POPC   C4A 2157  10.986  10.105   6.062
  139POPC   C1B 2158  11.258  10.637   7.289
  139POPC   C2B 2159  11.266  10.497   6.854
  139POPC   C3B 2160  11.236  10.502   6.412
  139POPC   C4B 2161  11.441  10.177   6.241
  140POPC   NC3 2162   3.004   1.888   8.125
  140POPC   PO4 2163   3.579   1.591   8.068
  140POPC   GL1 2164   3.309   1.759   7.710
  140POPC   GL2 2165   3.341   2.116   7.743
  140POPC   C1A 2166   3.353   1.787   7.250
  140POPC   D2A 2167   3.482   1.649   6.858
  140POPC   C3A 2168   3.293   1.736   6.474
  140POPC   C4A 2169   3.192   1.555   6.061
  140POPC   C1B 2170   3.724   2.037   7.470
  140POPC   C2B 2171   3.870   1.878   7.048
  140POPC   C3B 2172   3.743   1.979   6.581
  140POPC   C4B 2173   3.481   2.103   6.191
  141POPC   NC3 2174   2.697   3.661   8.123
  141POPC   PO4 2175   3.175   3.105   8.068
  141POPC   GL1 2176   2.966   3.134   7.678
  141POPC   GL2 2177   2.719   3.411   7.680
  141POPC   C1A 2178   3.041   3.358   7.284
  141POPC   D2A 2179   3.263   3.319   6.904
  141POPC   C3A 2180   3.016   3.339   6.528
  141POPC   C4A 2181   2.902   3.206   6.129
  141POPC   C1B 2182   2.545   3.581   7.295
  141POPC   C2B 2183   2.317   3.572   6.889
  141POPC   C3B 2184   2.510   3.505   6.465
  141POPC   C4B 2185   2.866   3.776   6.286
  142POPC   NC3 2186   8.732   9.949   7.910
  142POPC   PO4 2187   9.067   9.389   8.046
  142POPC   GL1 2188   9.187   9.469   7.641
  142POPC   GL2 2189   8.853   9.562   7.596
  142POPC   C1A 2190   9.260   9.784   7.372
  142POPC   D2A 2191   9.267   9.839   6.964
  142POPC   C3A 2192   9.218   9.539   6.690
  142POPC   C4A 2193   9.254   9.460   6.270
  142POPC   C1B 2194   8.780   9.715   7.182
  142POPC   C2B 2195   8.796   9.838   6.780
  142POPC   C3B 2196   8.809   9.684   6.377
  142POPC   C4B 2197   8.576   9.892   6.019
  143POPC   NC3 2198   7.200  10.946   8.254
  143POPC   PO4 2199   7.414  11.401   7.796
  143POPC   GL1 2200   7.479  11.057   7.586
  143POPC   GL2 2201   7.204  10.843   7.628
  143POPC   C1A 2202   7.617  11.248   7.202
  143POPC   D2A 2203   7.611   0.033   6.881
  143POPC   C3A 2204   7.648  11.306   6.530
  143POPC   C4A 2205   7.470  11.326   6.151
  143POPC   C1B 2206   7.122  11.113   7.229
  143POPC   C2B 2207   7.277  11.118   6.848
  143POPC   C3B 2208   7.195  11.017   6.474
  143POPC   C4B 2209   6.980  11.164   6.130
  144POPC   NC3 2210   8.641   2.418   8.010
  144POPC   PO4 2211   9.094   2.897   8.149
  144POPC   GL1 2212   9.078   2.826   7.722
  144POPC   GL2 2213   8.736   2.850   7.720
  144POPC   C1A 2214   9.140   2.741   7.285
  144POPC   D2A 2215   8.870   2.649   6.884
  144POPC   C3A 2216   9.016   2.660   6.454
  144POPC   C4A 2217   9.034   3.027   6.178
  144POPC   C1B 2218   8.638   2.623   7.344
  144POPC   C2B 2219   8.394   2.488   6.969
  144POPC   C3B 2220   8.522   2.497   6.546
  144POPC   C4B 2221   8.571   2.777   6.205
  145POPC   NC3 2222  11.338   1.068   8.318
  145POPC   PO4 2223  10.670   1.005   8.037
  145POPC   GL1 2224  10.921   0.844   7.719
  145POPC   GL2 2225  11.268   0.968   7.808
  145POPC   C1A 2226  10.847   0.918   7.273
  145POPC   D2A 2227  10.719   1.033   6.876
  145POPC   C3A 2228  11.020   0.895   6.576
  145POPC   C4A 2229  11.018   0.985   6.156
  145POPC   C1B 2230  11.328   1.091   7.373
  145POPC   C2B 2231  11.213   1.242   6.939
  145POPC   C3B 2232  11.203   1.395   6.490
  145POPC   C4B 2233  11.377   1.329   6.048
  146POPC   NC3 2234   5.128   0.076   7.880
  146POPC   PO4 2235   4.829   0.716   8.033
  146POPC   GL1 2236   4.763   0.743   7.611
  146POPC   GL2 2237   4.944   0.442   7.627
  146POPC   C1A 2238   4.842   0.604   7.194
  146POPC   D2A 2239   4.852   0.216   7.034
  146POPC   C3A 2240   4.862   0.382   6.643
  146POPC   C4A 2241   4.989   0.221   6.288
  146POPC   C1B 2242   5.266   0.372   7.319
  146POPC   C2B 2243   5.356   0.656   7.007
  146POPC   C3B 2244   5.371   0.509   6.608
  146POPC   C4B 2245   5.292   0.615   6.212
  147POPC   NC3 2246   5.233   7.680   8.528
  147POPC   PO4 2247   5.264   7.745   8.052
  147POPC   GL1 2248   5.150   7.835   7.584
  147POPC   GL2 2249   4.911   8.115   7.503
  147POPC   C1A 2250   5.218   7.975   7.125
  147POPC   D2A 2251   5.057   8.194   6.743
  147POPC   C3A 2252   5.245   8.146   6.327
  147POPC   C4A 2253   5.014   8.011   5.961
  147POPC   C1B 2254   4.964   8.466   7.179
  147POPC   C2B 2255   4.979   8.708   6.779
  147POPC   C3B 2256   4.950   8.564   6.355
  147POPC   C4B 2257   5.135   8.569   5.941
  148POPC   NC3 2258   0.776  11.137   8.186
  148POPC   PO4 2259   0.176  11.401   8.100
  148POPC   GL1 2260   0.276   0.018   7.694
  148POPC   GL2 2261   0.560  11.315   7.729
  148POPC   C1A 2262   0.260  11.291   7.284
  148POPC   D2A 2263   0.137  11.082   6.900
  148POPC   C3A 2264   0.258  11.254   6.503
  148POPC   C4A 2265   0.276  11.431   6.071
  148POPC   C1B 2266   0.603  10.937   7.431
  148POPC   C2B 2267   0.632  11.015   6.978
  148POPC   C3B 2268   0.653  10.844   6.570
  148POPC   C4B 2269   0.557  11.006   6.181
  149POPC   NC3 2270   0.849   5.542   7.690
  149POPC   PO4 2271   0.974   4.961   7.975
  149POPC   GL1 2272   1.067   5.096   7.597
  149POPC   GL2 2273   1.380   5.128   7.658
  149POPC   C1A 2274   1.147   5.184   7.175
  149POPC   D2A 2275   0.978   5.009   6.848
  149POPC   C3A 2276   0.937   5.353   6.647
  149POPC   C4A 2277   1.037   5.247   6.261
  149POPC   C1B 2278   1.525   4.881   7.340
  149POPC   C2B 2279   1.448   4.794   6.937
  149POPC   C3B 2280   1.413   5.057   6.586
  149POPC   C4B 2281   1.366   4.882   6.196
  150POPC   NC3 2282   1.111   4.193   8.035
  150POPC   PO4 2283   1.666   4.656   7.933
  150POPC   GL1 2284   1.260   4.610   7.699
  150POPC   GL2 2285   1.143   4.287   7.543
  150POPC   C1A 2286   1.057   4.692   7.274
  150POPC   D2A 2287   1.059   4.420   6.917
  150POPC   C3A 2288   1.294   4.486   6.550
  150POPC   C4A 2289   1.172   4.412   6.118
  150POPC   C1B 2290   0.873   4.071   7.248
  150POPC   C2B 2291   0.884   3.931   6.805
  150POPC   C3B 2292   0.823   4.151   6.420
  150POPC   C4B 2293   0.886   4.016   5.983
  151POPC   NC3 2294   0.423   0.995   7.895
  151POPC   PO4 2295   0.821   1.532   8.085
  151POPC   GL1 2296   0.767   1.346   7.707
  151POPC   GL2 2297   0.410   1.437   7.629
  151POPC   C1A 2298   0.794   1.346   7.277
  151POPC   D2A 2299   0.704   1.082   6.901
  151POPC   C3A 2300   0.563   1.260   6.535
  151POPC   C4A 2301   0.767   1.434   6.172
  151POPC   C1B 2302   0.315   1.185   7.241
  151POPC   C2B 2303   0.176   1.010   6.845
  151POPC   C3B 2304   0.048   0.999   6.420
  151POPC   C4B 2305   0.337   1.103   6.095
  152POPC   NC3 2306   0.444   1.852   8.113
  152POPC   PO4 2307  11.483   2.374   8.073
  152POPC   GL1 2308   0.048   2.208   7.636
  152POPC   GL2 2309   0.285   1.953   7.651
  152POPC   C1A 2310   0.356   2.277   7.277
  152POPC   D2A 2311   0.398   2.105   6.896
  152POPC   C3A 2312   0.546   2.267   6.554
  152POPC   C4A 2313   0.368   2.353   6.194
  152POPC   C1B 2314   0.567   1.809   7.321
  152POPC   C2B 2315   0.520   1.602   6.926
  152POPC   C3B 2316   0.651   1.765   6.535
  152POPC   C4B 2317   0.586   1.919   6.106
  153POPC   NC3 2318   9.488   6.295   8.016
  153POPC   PO4 2319   9.253   6.885   8.095
  153POPC   GL1 2320   9.486   6.731   7.723
  153POPC   GL2 2321   9.820   6.619   7.732
  153POPC   C1A 2322   9.492   6.572   7.273
  153POPC   D2A 2323   9.526   6.763   6.828
  153POPC   C3A 2324   9.442   6.544   6.423
  153POPC   C4A 2325   9.094   6.370   6.202
  153POPC   C1B 2326   9.977   6.414   7.386
  153POPC   C2B 2327   9.934   6.507   7.000
  153POPC   C3B 2328   9.907   6.439   6.596
  153POPC   C4B 2329  10.001   6.699   6.283
  154POPC   NC3 2330   2.732   8.793   8.092
  154POPC   PO4 2331   3.125   9.376   8.096
  154POPC   GL1 2332   2.816   9.187   7.732
  154POPC   GL2 2333   2.782   8.826   7.593
  154POPC   C1A 2334   2.577   9.135   7.274
  154POPC   D2A 2335   2.707   8.974   6.851
  154POPC   C3A 2336   2.574   9.179   6.456
  154POPC   C4A 2337   2.408   9.335   5.983
  154POPC   C1B 2338   2.607   8.593   7.214
  154POPC   C2B 2339   2.657   8.467   6.774
  154POPC   C3B 2340   2.719   8.674   6.408
  154POPC   C4B 2341   2.613   8.892   6.055
  155POPC   NC3 2342   0.201   7.332   8.110
  155POPC   PO4 2343  11.019   7.224   8.195
  155POPC   GL1 2344  11.276   7.194   7.789
  155POPC   GL2 2345  11.101   7.413   7.575
  155POPC   C1A 2346   0.021   7.209   7.348
  155POPC   D2A 2347  11.444   7.146   6.864
  155POPC   C3A 2348  11.497   7.537   6.604
  155POPC   C4A 2349  11.444   7.710   6.197
  155POPC   C1B 2350  11.047   7.147   7.193
  155POPC   C2B 2351  10.855   7.240   6.824
  155POPC   C3B 2352  10.979   7.332   6.420
  155POPC   C4B 2353  11.354   7.204   6.247
  156POPC   NC3 2354  10.173   4.269   8.031
  156POPC   PO4 2355  10.734   4.610   8.058
  156POPC   GL1 2356  10.509   4.438   7.666
  156POPC   GL2 2357  10.497   4.052   7.701
  156POPC   C1A 2358  10.255   4.508   7.263
  156POPC   D2A 2359  10.003   4.270   6.954
  156POPC   C3A 2360  10.153   4.399   6.548
  156POPC   C4A 2361  10.056   4.472   6.145
  156POPC   C1B 2362  10.535   4.087   7.273
  156POPC   C2B 2363  10.512   4.236   6.871
  156POPC   C3B 2364  10.684   3.984   6.526
  156POPC   C4B 2365  10.461   4.168   6.178
  157POPC   NC3 2366  10.341  11.243   8.177
  157POPC   PO4 2367   9.759   0.010   7.946
  157POPC   GL1 2368   9.989  11.192   7.729
  157POPC   GL2 2369  10.357  11.170   7.687
  157POPC   C1A 2370  10.044  11.079   7.295
  157POPC   D2A 2371  10.142  11.314   6.941
  157POPC   C3A 2372  10.279  11.135   6.556
  157POPC   C4A 2373  10.150  11.251   6.144
  157POPC   C1B 2374  10.541  10.977   7.339
  157POPC   C2B 2375  10.655  11.160   6.939
  157POPC   C3B 2376  10.833  11.234   6.533
  157POPC   C4B 2377  10.612  11.045   6.160
  158POPC   NC3 2378   1.389  11.084   8.042
  158POPC   PO4 2379   0.873   0.066   8.083
  158POPC   GL1 2380   1.144  11.421   7.738
  158POPC   GL2 2381   1.014  11.095   7.691
  158POPC   C1A 2382   1.361  11.225   7.355
  158POPC   D2A 2383   1.141  11.046   6.992
  158POPC   C3A 2384   1.268  11.131   6.604
  158POPC   C4A 2385   1.560  11.226   6.284
  158POPC   C1B 2386   0.856  11.365   7.315
  158POPC   C2B 2387   0.780   0.030   6.902
  158POPC   C3B 2388   0.800  11.331   6.500
  158POPC   C4B 2389   1.048  11.079   6.161
  159POPC   NC3 2390   0.263   9.594   8.082
  159POPC   PO4 2391   0.870   9.319   8.112
  159POPC   GL1 2392   0.553   9.324   7.765
  159POPC   GL2 2393   0.519   9.669   7.655
  159POPC   C1A 2394   0.384   9.273   7.346
  159POPC   D2A 2395   0.704   9.418   7.067
  159POPC   C3A 2396   0.824   9.368   6.639
  159POPC   C4A 2397   0.792   9.279   6.207
  159POPC   C1B 2398   0.329   9.767   7.269
  159POPC   C2B 2399   0.224   9.519   6.894
  159POPC   C3B 2400   0.373   9.555   6.483
  159POPC   C4B 2401   0.389   9.982   6.303
  160POPC   NC3 2402   9.806   5.725   8.036
  160POPC   PO4 2403   9.163   5.974   8.015
  160POPC   GL1 2404   9.510   5.923   7.661
  160POPC   GL2 2405   9.722   5.631   7.559
  160POPC   C1A 2406   9.630   6.037   7.234
  160POPC   D2A 2407   9.492   6.243   6.862
  160POPC   C3A 2408   9.525   6.026   6.483
  160POPC   C4A 2409   9.305   5.737   6.223
  160POPC   C1B 2410   9.857   5.465   7.197
  160POPC   C2B 2411   9.747   5.683   6.844
  160POPC   C3B 2412   9.729   5.524   6.450
  160POPC   C4B 2413   9.817   5.779   6.124
  161POPC   NC3 2414   6.059  10.111   8.078
  161POPC   PO4 2415   5.917  10.713   8.202
  161POPC   GL1 2416   6.017  10.546   7.782
  161POPC   GL2 2417   5.825  10.813   7.572
  161POPC   C1A 2418   6.094  10.160   7.458
  161POPC   D2A 2419   6.076  10.321   7.079
  161POPC   C3A 2420   6.104  10.176   6.715
  161POPC   C4A 2421   5.951  10.331   6.381
  161POPC   C1B 2422   5.684  10.437   7.416
  161POPC   C2B 2423   5.553  10.307   7.039
  161POPC   C3B 2424   5.521  10.402   6.651
  161POPC   C4B 2425   5.483  10.286   6.249
  162POPC   NC3 2426   3.969   1.917   8.046
  162POPC   PO4 2427   4.573   1.683   8.019
  162POPC   GL1 2428   4.507   1.549   7.618
  162POPC   GL2 2429   4.150   1.645   7.584
  162POPC   C1A 2430   4.526   1.738   7.210
  162POPC   D2A 2431   4.359   1.899   6.841
  162POPC   C3A 2432   4.587   2.060   6.453
  162POPC   C4A 2433   4.418   1.909   6.063
  162POPC   C1B 2434   4.222   2.079   7.396
  162POPC   C2B 2435   4.090   2.308   7.017
  162POPC   C3B 2436   4.148   2.289   6.567
  162POPC   C4B 2437   3.998   2.195   6.172
  163POPC   NC3 2438   8.917   5.599   8.067
  163POPC   PO4 2439   9.471   5.420   8.087
  163POPC   GL1 2440   9.268   5.440   7.671
  163POPC   GL2 2441   9.045   5.717   7.581
  163POPC   C1A 2442   9.347   5.566   7.198
  163POPC   D2A 2443   9.257   5.631   6.725
  163POPC   C3A 2444   8.921   5.472   6.410
  163POPC   C4A 2445   8.955   5.462   5.934
  163POPC   C1B 2446   9.120   6.032   7.241
  163POPC   C2B 2447   9.009   6.069   6.786
  163POPC   C3B 2448   8.833   5.988   6.376
  163POPC   C4B 2449   8.621   6.285   6.050
  164POPC   NC3 2450   7.811   2.969   7.921
  164POPC   PO4 2451   8.181   2.477   8.069
  164POPC   GL1 2452   7.927   2.333   7.696
  164POPC   GL2 2453   7.836   2.622   7.572
  164POPC   C1A 2454   7.951   2.327   7.194
  164POPC   D2A 2455   7.945   2.687   6.844
  164POPC   C3A 2456   8.075   2.661   6.394
  164POPC   C4A 2457   7.999   2.350   6.090
  164POPC   C1B 2458   8.165   2.815   7.297
  164POPC   C2B 2459   8.401   2.982   6.894
  164POPC   C3B 2460   8.286   3.127   6.445
  164POPC   C4B 2461   8.285   3.122   5.951
  165POPC   NC3 2462   1.171   0.400   7.962
  165POPC   PO4 2463   1.580   0.898   7.939
  165POPC   GL1 2464   1.513   0.655   7.556
  165POPC   GL2 2465   1.149   0.638   7.515
  165POPC   C1A 2466   1.437   0.613   7.085
  165POPC   D2A 2467   1.017   0.513   6.887
  165POPC   C3A 2468   1.116   0.585   6.464
  165POPC   C4A 2469   1.549   0.604   6.456
  165POPC   C1B 2470   1.220   0.226   7.317
  165POPC   C2B 2471   1.303   0.057   6.900
  165POPC   C3B 2472   1.314   0.127   6.453
  165POPC   C4B 2473   0.962   0.171   6.168
  166POPC   NC3 2474   9.550   2.801   8.172
  166POPC   PO4 2475  10.126   2.627   7.948
  166POPC   GL1 2476   9.876   2.862   7.645
  166POPC   GL2 2477   9.569   2.673   7.666
  166POPC   C1A 2478   9.707   2.847   7.209
  166POPC   D2A 2479   9.854   2.551   6.943
  166POPC   C3A 2480  10.112   2.761   6.678
  166POPC   C4A 2481   9.981   2.681   6.269
  166POPC   C1B 2482   9.512   2.377   7.322
  166POPC   C2B 2483   9.348   2.478   6.918
  166POPC   C3B 2484   9.432   2.825   6.710
  166POPC   C4B 2485   9.477   2.811   6.268
  167POPC   NC3 2486  10.454   8.395   7.831
  167POPC   PO4 2487  10.089   8.802   8.303
  167POPC   GL1 2488  10.127   8.864   7.782
  167POPC   GL2 2489  10.075   9.164   7.650
  167POPC   C1A 2490  10.203   8.716   7.320
  167POPC   D2A 2491  10.466   8.609   6.940
  167POPC   C3A 2492  10.342   8.781   6.543
  167POPC   C4A 2493  10.468   8.671   6.156
  167POPC   C1B 2494   9.925   9.134   7.278
  167POPC   C2B 2495  10.225   9.099   6.949
  167POPC   C3B 2496  10.637   9.139   6.748
  167POPC   C4B 2497  10.619   9.164   6.278
  168POPC   NC3 2498   1.570   1.140   4.003
  168POPC   PO4 2499   0.952   0.941   3.908
  168POPC   GL1 2500   1.126   1.180   4.233
  168POPC   GL2 2501   0.975   1.431   4.438
  168POPC   C1A 2502   1.378   1.124   4.597
  168POPC   D2A 2503   1.348   1.102   5.025
  168POPC   C3A 2504   1.516   1.326   5.385
  168POPC   C4A 2505   1.642   0.931   5.620
  168POPC   C1B 2506   0.875   1.009   4.644
  168POPC   C2B 2507   0.866   0.910   5.074
  168POPC   C3B 2508   1.104   1.012   5.466
  168POPC   C4B 2509   1.077   1.433   5.702
  169POPC   NC3 2510  10.888   3.391   3.902
  169POPC   PO4 2511  10.212   3.516   3.886
  169POPC   GL1 2512  10.268   3.708   4.271
  169POPC   GL2 2513  10.647   3.698   4.247
  169POPC   C1A 2514  10.112   3.491   4.648
  169POPC   D2A 2515  10.203   3.196   4.997
  169POPC   C3A 2516   9.970   3.208   5.373
  169POPC   C4A 2517  10.121   3.331   5.751
  169POPC   C1B 2518  10.594   3.547   4.691
  169POPC   C2B 2519  10.373   3.681   5.102
  169POPC   C3B 2520  10.405   3.726   5.570
  169POPC   C4B 2521  10.699   3.820   5.912
  170POPC   NC3 2522   9.769   5.700   3.759
  170POPC   PO4 2523   9.327   5.359   3.933
  170POPC   GL1 2524   9.637   5.452   4.210
  170POPC   GL2 2525   9.650   5.803   4.261
  170POPC   C1A 2526   9.668   5.451   4.640
  170POPC   D2A 2527   9.421   5.438   4.990
  170POPC   C3A 2528   9.619   5.617   5.344
  170POPC   C4A 2529   9.497   5.680   5.752
  170POPC   C1B 2530   9.806   5.949   4.707
  170POPC   C2B 2531   9.848   6.044   5.163
  170POPC   C3B 2532   9.544   6.190   5.511
  170POPC   C4B 2533   9.491   6.150   5.971
  171POPC   NC3 2534   3.598  10.253   4.009
  171POPC   PO4 2535   3.892  10.813   4.078
  171POPC   GL1 2536   3.693  10.623   4.377
  171POPC   GL2 2537   3.317  10.590   4.316
  171POPC   C1A 2538   3.881  10.628   4.768
  171POPC   D2A 2539   3.915  10.824   5.149
  171POPC   C3A 2540   3.867  10.521   5.502
  171POPC   C4A 2541   3.786  10.327   5.922
  171POPC   C1B 2542   3.420  10.361   4.722
  171POPC   C2B 2543   3.467  10.538   5.146
  171POPC   C3B 2544   3.360  10.383   5.561
  171POPC   C4B 2545   3.359  10.019   5.787
  172POPC   NC3 2546  10.515   2.214   3.968
  172POPC   PO4 2547   9.888   2.038   4.051
  172POPC   GL1 2548  10.141   2.227   4.380
  172POPC   GL2 2549  10.431   1.979   4.410
  172POPC   C1A 2550  10.332   2.251   4.818
  172POPC   D2A 2551  10.330   2.020   5.207
  172POPC   C3A 2552  10.301   2.337   5.508
  172POPC   C4A 2553  10.389   2.333   5.936
  172POPC   C1B 2554  10.577   1.609   4.670
  172POPC   C2B 2555  10.464   1.460   5.085
  172POPC   C3B 2556  10.473   1.578   5.527
  172POPC   C4B 2557  10.207   1.889   5.737
  173POPC   NC3 2558  10.178  11.205   3.916
  173POPC   PO4 2559  10.702  10.667   3.810
  173POPC   GL1 2560  10.445  10.889   4.206
  173POPC   GL2 2561  10.420  11.269   4.352
  173POPC   C1A 2562  10.368  10.884   4.675
  173POPC   D2A 2563  10.602  10.753   5.047
  173POPC   C3A 2564  10.426  10.944   5.403
  173POPC   C4A 2565  10.345  10.785   5.788
  173POPC   C1B 2566  10.150  11.465   4.697
  173POPC   C2B 2567  10.022  11.366   5.136
  173POPC   C3B 2568  10.140   0.079   5.528
  173POPC   C4B 2569  10.443  11.325   5.753
  174POPC   NC3 2570   6.421  11.501   4.005
  174POPC   PO4 2571   7.103  11.430   4.032
  174POPC   GL1 2572   6.770  11.274   4.285
  174POPC   GL2 2573   6.770  10.927   4.356
  174POPC   C1A 2574   6.511  11.306   4.642
  174POPC   D2A 2575   6.608  11.284   5.086
  174POPC   C3A 2576   6.363   0.007   5.382
  174POPC   C4A 2577   6.226  11.402   5.801
  174POPC   C1B 2578   6.586  10.833   4.777
  174POPC   C2B 2579   6.279  10.859   5.128
  174POPC   C3B 2580   6.467  10.970   5.509
  174POPC   C4B 2581   6.839  10.852   5.726
  175POPC   NC3 2582   2.934   9.772   4.039
  175POPC   PO4 2583   3.532   9.878   3.749
  175POPC   GL1 2584   3.646   9.784   4.212
  175POPC   GL2 2585   3.651   9.429   4.208
  175POPC   C1A 2586   3.737   9.920   4.674
  175POPC   D2A 2587   3.550  10.001   5.121
  175POPC   C3A 2588   3.804   9.980   5.532
  175POPC   C4A 2589   3.785   9.825   6.005
  175POPC   C1B 2590   3.408   9.508   4.610
  175POPC   C2B 2591   3.308   9.530   5.065
  175POPC   C3B 2592   3.462   9.602   5.491
  175POPC   C4B 2593   3.380   9.528   5.954
  176POPC   NC3 2594  10.520   7.913   3.826
  176POPC   PO4 2595  10.648   8.561   3.954
  176POPC   GL1 2596  10.439   8.387   4.302
  176POPC   GL2 2597  10.457   8.030   4.347
  176POPC   C1A 2598  10.458   8.327   4.756
  176POPC   D2A 2599  10.667   8.109   5.109
  176POPC   C3A 2600  10.460   8.391   5.384
  176POPC   C4A 2601  10.214   8.510   5.731
  176POPC   C1B 2602  10.408   7.819   4.768
  176POPC   C2B 2603  10.189   7.971   5.174
  176POPC   C3B 2604  10.177   7.990   5.643
  176POPC   C4B 2605  10.177   7.727   6.028
  177POPC   NC3 2606   9.567   2.272   4.282
  177POPC   PO4 2607   9.641   2.885   3.901
  177POPC   GL1 2608   9.482   2.781   4.256
  177POPC   GL2 2609   9.853   2.697   4.329
  177POPC   C1A 2610   9.451   2.772   4.697
  177POPC   D2A 2611   9.360   2.985   5.051
  177POPC   C3A 2612   9.477   2.891   5.420
  177POPC   C4A 2613   9.290   2.914   5.786
  177POPC   C1B 2614   9.922   2.559   4.737
  177POPC   C2B 2615   9.851   2.802   5.061
  177POPC   C3B 2616   9.941   2.696   5.453
  177POPC   C4B 2617   9.728   2.656   5.834
  178POPC   NC3 2618  10.795   0.472   3.746
  178POPC   PO4 2619  11.262   0.214   4.135
  178POPC   GL1 2620  11.281   0.593   4.381
  178POPC   GL2 2621   0.136   0.617   4.341
  178POPC   C1A 2622  11.045   0.591   4.799
  178POPC   D2A 2623  10.945   0.212   5.070
  178POPC   C3A 2624  11.079   0.274   5.511
  178POPC   C4A 2625  10.994   0.655   5.751
  178POPC   C1B 2626   0.082   0.380   4.744
  178POPC   C2B 2627  11.418   0.512   5.136
  178POPC   C3B 2628   0.067   0.436   5.523
  178POPC   C4B 2629  11.462   0.302   5.893
  179POPC   NC3 2630   6.663   9.553   3.857
  179POPC   PO4 2631   6.183   9.922   3.803
  179POPC   GL1 2632   6.384   9.877   4.204
  179POPC   GL2 2633   6.650   9.663   4.360
  179POPC   C1A 2634   6.364   9.989   4.657
  179POPC   D2A 2635   6.405   9.755   5.033
  179POPC   C3A 2636   6.279   9.850   5.454
  179POPC   C4A 2637   6.372   9.621   5.863
  179POPC   C1B 2638   6.856   9.845   4.751
  179POPC   C2B 2639   6.819  10.017   5.187
  179POPC   C3B 2640   6.769   9.815   5.601
  179POPC   C4B 2641   6.759   9.934   6.029
  180POPC   NC3 2642   9.263   8.990   3.852
  180POPC   PO4 2643   9.965   9.087   3.802
  180POPC   GL1 2644   9.648   9.057   4.183
  180POPC   GL2 2645   9.478   8.693   4.208
  180POPC   C1A 2646   9.582   9.222   4.619
  180POPC   D2A 2647   9.794   9.135   5.012
  180POPC   C3A 2648   9.609   9.161   5.411
  180POPC   C4A 2649   9.696   9.038   5.810
  180POPC   C1B 2650   9.417   8.754   4.653
  180POPC   C2B 2651   9.299   8.867   5.091
  180POPC   C3B 2652   9.356   8.743   5.542
  180POPC   C4B 2653   9.728   8.546   5.665
  181POPC   NC3 2654  11.157   8.393   4.050
  181POPC   PO4 2655  10.947   7.853   3.697
  181POPC   GL1 2656  10.943   7.927   4.157
  181POPC   GL2 2657  11.268   7.883   4.222
  181POPC   C1A 2658  10.910   8.074   4.634
  181POPC   D2A 2659  11.174   8.190   5.045
  181POPC   C3A 2660  10.967   8.334   5.460
  181POPC   C4A 2661  10.691   8.303   5.825
  181POPC   C1B 2662  11.313   7.744   4.655
  181POPC   C2B 2663  11.038   7.678   5.029
  181POPC   C3B 2664  11.056   7.837   5.461
  181POPC   C4B 2665  11.464   7.837   5.695
  182POPC   NC3 2666   5.751  10.921   4.001
  182POPC   PO4 2667   6.420  11.063   3.780
  182POPC   GL1 2668   6.256  11.030   4.214
  182POPC   GL2 2669   6.030  11.333   4.304
  182POPC   C1A 2670   6.119  10.974   4.644
  182POPC   D2A 2671   6.074  11.321   4.962
  182POPC   C3A 2672   5.942  11.207   5.388
  182POPC   C4A 2673   6.022  10.926   5.733
  182POPC   C1B 2674   5.685  11.220   4.612
  182POPC   C2B 2675   5.532  11.268   5.053
  182POPC   C3B 2676   5.469  11.419   5.487
  182POPC   C4B 2677   5.698  11.332   5.873
  183POPC   NC3 2678   1.101   8.130   3.814
  183POPC   PO4 2679   1.548   8.483   4.087
  183POPC   GL1 2680   1.366   8.142   4.257
  183POPC   GL2 2681   1.046   8.174   4.323
  183POPC   C1A 2682   1.450   8.040   4.668
  183POPC   D2A 2683   1.283   8.167   5.075
  183POPC   C3A 2684   1.377   7.948   5.443
  183POPC   C4A 2685   1.529   8.162   5.812
  183POPC   C1B 2686   0.939   8.016   4.723
  183POPC   C2B 2687   0.780   8.174   5.123
  183POPC   C3B 2688   0.922   8.143   5.530
  183POPC   C4B 2689   1.076   7.920   5.881
  184POPC   NC3 2690  10.967  11.017   3.999
  184POPC   PO4 2691  10.603   0.081   3.964
  184POPC   GL1 2692  10.912  11.394   4.326
  184POPC   GL2 2693  11.277  11.246   4.342
  184POPC   C1A 2694  10.815  11.196   4.707
  184POPC   D2A 2695  10.556  11.298   5.054
  184POPC   C3A 2696  10.836  11.319   5.417
  184POPC   C4A 2697  10.940  11.372   5.857
  184POPC   C1B 2698  11.297  11.428   4.766
  184POPC   C2B 2699  11.415   0.009   5.208
  184POPC   C3B 2700  11.400  11.377   5.628
  184POPC   C4B 2701  11.330  10.974   5.702
  185POPC   NC3 2702   1.911  11.110   3.926
  185POPC   PO4 2703   2.458  10.714   3.982
  185POPC   GL1 2704   2.256  10.700   4.354
  185POPC   GL2 2705   2.052  10.994   4.404
  185POPC   C1A 2706   2.364  10.785   4.778
  185POPC   D2A 2707   2.210  11.082   5.052
  185POPC   C3A 2708   2.074  10.970   5.406
  185POPC   C4A 2709   2.238  11.036   5.760
  185POPC   C1B 2710   1.835  11.205   4.739
  185POPC   C2B 2711   1.598  11.157   5.098
  185POPC   C3B 2712   1.582  11.042   5.483
  185POPC   C4B 2713   1.784  11.244   5.790
  186POPC   NC3 2714   3.621   2.897   3.843
  186POPC   PO4 2715   3.062   3.229   4.034
  186POPC   GL1 2716   3.287   2.920   4.327
  186POPC   GL2 2717   3.440   2.573   4.226
  186POPC   C1A 2718   3.301   2.827   4.799
  186POPC   D2A 2719   3.287   2.902   5.269
  186POPC   C3A 2720   3.656   2.865   5.545
  186POPC   C4A 2721   3.762   2.967   6.001
  186POPC   C1B 2722   3.196   2.376   4.591
  186POPC   C2B 2723   3.208   2.289   5.063
  186POPC   C3B 2724   3.196   2.472   5.530
  186POPC   C4B 2725   3.112   2.442   6.020
  187POPC   NC3 2726   9.742   1.613   4.171
  187POPC   PO4 2727   9.271   2.188   3.946
  187POPC   GL1 2728   9.146   2.029   4.399
  187POPC   GL2 2729   9.479   1.852   4.551
  187POPC   C1A 2730   9.067   1.816   4.830
  187POPC   D2A 2731   9.465   1.819   5.094
  187POPC   C3A 2732   9.535   1.728   5.537
  187POPC   C4A 2733   9.494   1.883   5.933
  187POPC   C1B 2734   9.866   1.999   4.800
  187POPC   C2B 2735   9.886   2.262   5.173
  187POPC   C3B 2736   9.797   2.192   5.621
  187POPC   C4B 2737   9.893   2.202   6.072
  188POPC   NC3 2738   2.743   7.219   3.923
  188POPC   PO4 2739   3.180   6.908   4.009
  188POPC   GL1 2740   2.931   7.123   4.399
  188POPC   GL2 2741   2.673   7.404   4.399
  188POPC   C1A 2742   2.888   7.285   4.860
  188POPC   D2A 2743   2.870   7.089   5.284
  188POPC   C3A 2744   2.937   7.325   5.680
  188POPC   C4A 2745   3.024   7.258   6.118
  188POPC   C1B 2746   2.461   7.102   4.662
  188POPC   C2B 2747   2.313   7.118   5.111
  188POPC   C3B 2748   2.453   7.223   5.543
  188POPC   C4B 2749   2.458   7.349   6.005
  189POPC   NC3 2750   8.494  11.265   4.123
  189POPC   PO4 2751   8.344  10.736   3.708
  189POPC   GL1 2752   8.288  10.800   4.187
  189POPC   GL2 2753   7.992  10.861   4.298
  189POPC   C1A 2754   8.332  10.922   4.667
  189POPC   D2A 2755   8.120  11.200   4.987
  189POPC   C3A 2756   8.098  11.103   5.422
  189POPC   C4A 2757   8.371  11.052   5.757
  189POPC   C1B 2758   7.903  11.220   4.524
  189POPC   C2B 2759   7.619  11.279   4.858
  189POPC   C3B 2760   7.572  11.274   5.308
  189POPC   C4B 2761   7.754  11.360   5.709
  190POPC   NC3 2762   5.338  11.408   3.652
  190POPC   PO4 2763   5.317   0.513   3.952
  190POPC   GL1 2764   5.098   0.615   4.331
  190POPC   GL2 2765   4.736   0.548   4.287
  190POPC   C1A 2766   5.248   0.509   4.740
  190POPC   D2A 2767   5.382   0.258   5.093
  190POPC   C3A 2768   5.270   0.436   5.451
  190POPC   C4A 2769   5.040   0.448   5.819
  190POPC   C1B 2770   4.771   0.257   4.658
  190POPC   C2B 2771   4.871   0.387   5.070
  190POPC   C3B 2772   4.716   0.505   5.435
  190POPC   C4B 2773   4.686   0.834   5.725
  191POPC   NC3 2774   4.812   1.755   3.913
  191POPC   PO4 2775   4.819   2.428   3.936
  191POPC   GL1 2776   4.803   2.151   4.297
  191POPC   GL2 2777   5.083   1.906   4.324
  191POPC   C1A 2778   4.744   2.224   4.765
  191POPC   D2A 2779   4.543   2.133   5.180
  191POPC   C3A 2780   4.809   2.246   5.528
  191POPC   C4A 2781   4.836   2.147   5.943
  191POPC   C1B 2782   5.020   1.776   4.765
  191POPC   C2B 2783   5.019   1.904   5.198
  191POPC   C3B 2784   5.090   1.801   5.633
  191POPC   C4B 2785   5.285   1.927   6.021
  192POPC   NC3 2786   4.162   0.108   3.694
  192POPC   PO4 2787   4.717  11.401   3.970
  192POPC   GL1 2788   4.373   0.127   4.248
  192POPC   GL2 2789   4.207   0.468   4.274
  192POPC   C1A 2790   4.179   0.112   4.681
  192POPC   D2A 2791   4.449   0.084   5.048
  192POPC   C3A 2792   4.331   0.161   5.469
  192POPC   C4A 2793   4.610   0.176   5.811
  192POPC   C1B 2794   4.380   0.581   4.697
  192POPC   C2B 2795   4.288   0.582   5.124
  192POPC   C3B 2796   4.235   0.695   5.550
  192POPC   C4B 2797   4.264   0.874   5.996
  193POPC   NC3 2798   1.446   2.133   4.003
  193POPC   PO4 2799   1.674   1.587   3.955
  193POPC   GL1 2800   1.503   1.595   4.366
  193POPC   GL2 2801   1.276   1.892   4.417
  193POPC   C1A 2802   1.336   1.574   4.802
  193POPC   D2A 2803   1.028   1.522   5.129
  193POPC   C3A 2804   1.235   1.807   5.380
  193POPC   C4A 2805   1.465   1.749   5.745
  193POPC   C1B 2806   0.912   1.891   4.717
  193POPC   C2B 2807   0.735   2.146   5.063
  193POPC   C3B 2808   0.968   2.356   5.356
  193POPC   C4B 2809   1.153   2.168   5.732
  194POPC   NC3 2810   5.846   0.535   3.928
  194POPC   PO4 2811   5.735  11.385   3.875
  194POPC   GL1 2812   5.610   0.167   4.278
  194POPC   GL2 2813   5.609   0.549   4.372
  194POPC   C1A 2814   5.753   0.213   4.742
  194POPC   D2A 2815   5.980   0.305   5.152
  194POPC   C3A 2816   5.883   0.224   5.572
  194POPC   C4A 2817   5.565   0.349   5.851
  194POPC   C1B 2818   5.972   0.675   4.613
  194POPC   C2B 2819   6.147   0.765   4.996
  194POPC   C3B 2820   6.056   0.912   5.422
  194POPC   C4B 2821   5.925   0.721   5.803
  195POPC   NC3 2822   3.934   9.642   3.813
  195POPC   PO4 2823   4.639   9.448   4.063
  195POPC   GL1 2824   4.204   9.458   4.211
  195POPC   GL2 2825   4.159   9.797   4.320
  195POPC   C1A 2826   3.954   9.427   4.612
  195POPC   D2A 2827   3.907   9.576   5.036
  195POPC   C3A 2828   4.137   9.381   5.375
  195POPC   C4A 2829   4.039   9.544   5.696
  195POPC   C1B 2830   4.411   9.702   4.711
  195POPC   C2B 2831   4.403   9.757   5.171
  195POPC   C3B 2832   4.514   9.756   5.618
  195POPC   C4B 2833   4.690  10.157   5.760
  196POPC   NC3 2834   2.944   1.845   4.049
  196POPC   PO4 2835   2.577   1.438   3.686
  196POPC   GL1 2836   2.437   1.900   4.071
  196POPC   GL2 2837   2.569   2.208   4.186
  196POPC   C1A 2838   2.267   1.878   4.538
  196POPC   D2A 2839   2.478   1.770   4.941
  196POPC   C3A 2840   2.460   1.830   5.404
  196POPC   C4A 2841   2.748   1.708   5.762
  196POPC   C1B 2842   2.733   2.089   4.604
  196POPC   C2B 2843   2.648   2.238   5.005
  196POPC   C3B 2844   2.814   2.186   5.378
  196POPC   C4B 2845   2.716   2.238   5.777
  197POPC   NC3 2846   7.548  11.480   3.906
  197POPC   PO4 2847   7.306   0.573   3.676
  197POPC   GL1 2848   7.161   0.565   4.123
  197POPC   GL2 2849   7.460   0.419   4.227
  197POPC   C1A 2850   7.110   0.630   4.576
  197POPC   D2A 2851   7.369   0.718   4.919
  197POPC   C3A 2852   7.235   0.714   5.378
  197POPC   C4A 2853   7.055   0.490   5.707
  197POPC   C1B 2854   7.377   0.183   4.624
  197POPC   C2B 2855   7.506   0.235   5.043
  197POPC   C3B 2856   7.438   0.245   5.456
  197POPC   C4B 2857   7.471   0.262   5.879
  198POPC   NC3 2858   1.154   7.610   3.721
  198POPC   PO4 2859   1.508   7.007   3.907
  198POPC   GL1 2860   1.328   7.285   4.222
  198POPC   GL2 2861   1.073   7.138   4.445
  198POPC   C1A 2862   1.424   7.530   4.595
  198POPC   D2A 2863   1.273   7.652   5.016
  198POPC   C3A 2864   1.426   7.367   5.356
  198POPC   C4A 2865   1.486   7.053   5.719
  198POPC   C1B 2866   0.862   7.503   4.660
  198POPC   C2B 2867   0.710   7.669   5.062
  198POPC   C3B 2868   0.939   7.651   5.449
  198POPC   C4B 2869   1.192   7.452   5.778
  199POPC   NC3 2870   0.952   3.634   3.892
  199POPC   PO4 2871   0.581   3.019   3.923
  199POPC   GL1 2872   0.580   3.280   4.307
  199POPC   GL2 2873   0.661   3.634   4.438
  199POPC   C1A 2874   0.439   3.260   4.732
  199POPC   D2A 2875   0.595   3.553   5.037
  199POPC   C3A 2876   0.693   3.326   5.410
  199POPC   C4A 2877   0.395   3.175   5.672
  199POPC   C1B 2878   0.232   3.726   4.659
  199POPC   C2B 2879   0.103   3.555   5.075
  199POPC   C3B 2880   0.261   3.644   5.500
  199POPC   C4B 2881   0.092   3.660   5.935
  200POPC   NC3 2882  10.473   5.781   4.016
  200POPC   PO4 2883  10.008   5.278   3.897
  200POPC   GL1 2884  10.151   5.513   4.297
  200POPC   GL2 2885  10.541   5.543   4.443
  200POPC   C1A 2886  10.164   5.398   4.730
  200POPC   D2A 2887  10.159   5.629   5.094
  200POPC   C3A 2888  10.118   5.522   5.513
  200POPC   C4A 2889   9.944   5.918   5.659
  200POPC   C1B 2890  10.449   5.893   4.721
  200POPC   C2B 2891  10.375   6.074   5.144
  200POPC   C3B 2892  10.445   5.924   5.551
  200POPC   C4B 2893  10.684   6.158   5.837
  201POPC   NC3 2894   8.955   5.624   3.789
  201POPC   PO4 2895   8.482   5.862   4.114
  201POPC   GL1 2896   8.799   5.572   4.310
  201POPC   GL2 2897   9.150   5.602   4.327
  201POPC   C1A 2898   8.913   5.617   4.787
  201POPC   D2A 2899   8.770   5.924   5.131
  201POPC   C3A 2900   8.646   5.761   5.571
  201POPC   C4A 2901   8.533   5.774   6.023
  201POPC   C1B 2902   9.291   5.913   4.612
  201POPC   C2B 2903   9.342   5.957   5.053
  201POPC   C3B 2904   9.143   5.872   5.459
  201POPC   C4B 2905   9.011   5.977   5.877
  202POPC   NC3 2906   6.004   1.588   3.810
  202POPC   PO4 2907   5.828   0.987   4.011
  202POPC   GL1 2908   5.634   1.079   4.376
  202POPC   GL2 2909   5.638   1.420   4.252
  202POPC   C1A 2910   5.544   0.948   4.793
  202POPC   D2A 2911   5.641   0.710   5.174
  202POPC   C3A 2912   5.565   0.966   5.548
  202POPC   C4A 2913   5.403   1.371   5.631
  202POPC   C1B 2914   5.979   1.377   4.578
  202POPC   C2B 2915   5.946   1.240   5.003
  202POPC   C3B 2916   5.869   1.420   5.396
  202POPC   C4B 2917   5.919   1.276   5.810
  203POPC   NC3 2918   6.977   1.550   4.038
  203POPC   PO4 2919   6.932   2.216   3.927
  203POPC   GL1 2920   7.252   1.977   4.287
  203POPC   GL2 2921   7.613   2.078   4.446
  203POPC   C1A 2922   7.405   1.681   4.649
  203POPC   D2A 2923   7.451   1.656   5.105
  203POPC   C3A 2924   7.278   1.724   5.527
  203POPC   C4A 2925   6.924   1.864   5.751
  203POPC   C1B 2926   7.535   2.227   4.851
  203POPC   C2B 2927   7.461   2.146   5.279
  203POPC   C3B 2928   7.259   2.244   5.650
  203POPC   C4B 2929   7.446   2.362   6.020
  204POPC   NC3 2930   7.961   1.555   3.860
  204POPC   PO4 2931   7.890   0.888   4.011
  204POPC   GL1 2932   8.282   1.011   4.276
  204POPC   GL2 2933   8.409   1.334   4.194
  204POPC   C1A 2934   8.465   1.103   4.675
  204POPC   D2A 2935   8.488   0.933   5.075
  204POPC   C3A 2936   8.465   1.204   5.405
  204POPC   C4A 2937   8.547   1.242   5.834
  204POPC   C1B 2938   8.060   1.369   4.530
  204POPC   C2B 2939   8.119   1.375   4.997
  204POPC   C3B 2940   7.983   1.358   5.440
  204POPC   C4B 2941   8.121   1.559   5.830
  205POPC   NC3 2942   8.650   9.200   3.877
  205POPC   PO4 2943   8.965   8.621   3.865
  205POPC   GL1 2944   8.991   8.883   4.270
  205POPC   GL2 2945   8.685   8.990   4.429
  205POPC   C1A 2946   9.083   9.152   4.668
  205POPC   D2A 2947   8.822   9.087   5.016
  205POPC   C3A 2948   8.954   9.048   5.448
  205POPC   C4A 2949   8.674   9.018   5.788
  205POPC   C1B 2950   8.913   8.672   4.726
  205POPC   C2B 2951   8.881   8.575   5.178
  205POPC   C3B 2952   8.902   8.539   5.646
  205POPC   C4B 2953   8.896   8.666   6.080
  206POPC   NC3 2954   4.752  10.941   3.953
  206POPC   PO4 2955   4.131  11.143   3.689
  206POPC   GL1 2956   4.305  11.122   4.152
  206POPC   GL2 2957   4.073  11.051   4.459
  206POPC   C1A 2958   4.508  11.244   4.579
  206POPC   D2A 2959   4.321  11.101   4.955
  206POPC   C3A 2960   4.607  11.135   5.286
  206POPC   C4A 2961   4.620  11.169   5.704
  206POPC   C1B 2962   3.825  11.219   4.760
  206POPC   C2B 2963   3.929  11.410   5.149
  206POPC   C3B 2964   4.130  11.193   5.470
  206POPC   C4B 2965   4.031  10.922   5.801
  207POPC   NC3 2966   0.509  10.803   3.905
  207POPC   PO4 2967   0.719  11.493   3.999
  207POPC   GL1 2968   0.663  11.159   4.228
  207POPC   GL2 2969   0.302  11.150   4.208
  207POPC   C1A 2970   0.745  11.053   4.640
  207POPC   D2A 2971   0.908  11.310   4.979
  207POPC   C3A 2972   0.724  11.188   5.387
  207POPC   C4A 2973   0.767  11.345   5.809
  207POPC   C1B 2974   0.235  11.147   4.625
  207POPC   C2B 2975   0.399  10.988   5.004
  207POPC   C3B 2976   0.196  11.049   5.343
  207POPC   C4B 2977   0.334  11.067   5.728
  208POPC   NC3 2978   8.716  10.493   3.893
  208POPC   PO4 2979   9.314  10.538   3.729
  208POPC   GL1 2980   9.168  10.575   4.266
  208POPC   GL2 2981   8.903  10.368   4.364
  208POPC   C1A 2982   8.921  10.668   4.744
  208POPC   D2A 2983   8.575  10.703   5.057
  208POPC   C3A 2984   8.685  10.737   5.495
  208POPC   C4A 2985   9.095  10.555   5.591
  208POPC   C1B 2986   9.303  10.322   4.673
  208POPC   C2B 2987   9.205  10.387   5.108
  208POPC   C3B 2988   8.787  10.290   5.271
  208POPC   C4B 2989   8.563  10.249   5.646
  209POPC   NC3 2990   5.073   0.149   4.104
  209POPC   PO4 2991   5.242  10.999   3.855
  209POPC   GL1 2992   5.320  11.227   4.243
  209POPC   GL2 2993   4.971  11.181   4.377
  209POPC   C1A 2994   5.252  11.478   4.678
  209POPC   D2A 2995   4.952  11.378   5.005
  209POPC   C3A 2996   4.956   0.014   5.455
  209POPC   C4A 2997   5.129  11.430   5.894
  209POPC   C1B 2998   4.842  10.903   4.765
  209POPC   C2B 2999   5.003  10.819   5.193
  209POPC   C3B 3000   5.157  10.997   5.608
  209POPC   C4B 3001   4.931  10.961   6.041
  210POPC   NC3 3002   0.519  10.207   3.646
  210POPC   PO4 3003  11.443   9.987   3.939
  210POPC   GL1 3004   0.335  10.210   4.236
  210POPC   GL2 3005   0.419  10.535   4.305
  210POPC   C1A 3006   0.278  10.113   4.708
  210POPC   D2A 3007   0.090  10.068   5.143
  210POPC   C3A 3008   0.364  10.202   5.492
  210POPC   C4A 3009   0.278  10.385   5.916
  210POPC   C1B 3010   0.296  10.618   4.677
  210POPC   C2B 3011   0.444  10.469   5.059
  210POPC   C3B 3012   0.567  10.682   5.412
  210POPC   C4B 3013   0.664  10.696   5.814
  211POPC   NC3 3014   2.132   1.612   3.844
  211POPC   PO4 3015   2.186   2.341   3.860
  211POPC   GL1 3016   2.044   2.267   4.229
  211POPC   GL2 3017   1.903   1.965   4.193
  211POPC   C1A 3018   2.215   2.373   4.621
  211POPC   D2A 3019   2.061   2.229   5.024
  211POPC   C3A 3020   2.293   2.313   5.390
  211POPC   C4A 3021   2.208   2.165   5.777
  211POPC   C1B 3022   1.769   1.975   4.630
  211POPC   C2B 3023   1.672   1.864   5.062
  211POPC   C3B 3024   1.868   1.926   5.458
  211POPC   C4B 3025   1.693   2.179   5.756
  212POPC   NC3 3026  10.953   8.842   3.760
  212POPC   PO4 3027   0.009   8.620   3.823
  212POPC   GL1 3028  11.409   8.833   4.202
  212POPC   GL2 3029  11.176   9.091   4.203
  212POPC   C1A 3030  11.249   8.786   4.627
  212POPC   D2A 3031  11.201   8.933   5.017
  212POPC   C3A 3032  11.331   8.659   5.306
  212POPC   C4A 3033  11.261   8.814   5.686
  212POPC   C1B 3034  11.051   9.262   4.651
  212POPC   C2B 3035  10.793   9.233   5.042
  212POPC   C3B 3036  11.026   9.223   5.461
  212POPC   C4B 3037  10.933   9.149   5.875
  213POPC   NC3 3038   7.088  10.979   3.913
  213POPC   PO4 3039   7.815  11.081   3.865
  213POPC   GL1 3040   7.514  10.943   4.172
  213POPC   GL2 3041   7.430  11.227   4.345
  213POPC   C1A 3042   7.542  10.819   4.614
  213POPC   D2A 3043   7.469  10.828   5.068
  213POPC   C3A 3044   7.675  10.789   5.436
  213POPC   C4A 3045   7.500  10.940   5.809
  213POPC   C1B 3046   7.128  11.181   4.648
  213POPC   C2B 3047   7.120  11.347   5.015
  213POPC   C3B 3048   7.079  11.135   5.377
  213POPC   C4B 3049   7.224  11.353   5.714
  214POPC   NC3 3050   3.897   1.443   4.172
  214POPC   PO4 3051   3.320   1.604   3.876
  214POPC   GL1 3052   3.164   1.405   4.253
  214POPC   GL2 3053   3.133   1.055   4.156
  214POPC   C1A 3054   3.362   1.379   4.679
  214POPC   D2A 3055   3.747   1.359   4.920
  214POPC   C3A 3056   3.707   1.438   5.342
  214POPC   C4A 3057   3.520   1.578   5.681
  214POPC   C1B 3058   3.262   0.896   4.540
  214POPC   C2B 3059   3.439   0.897   4.949
  214POPC   C3B 3060   3.384   0.891   5.398
  214POPC   C4B 3061   3.479   1.058   5.767
  215POPC   NC3 3062   9.715   6.635   4.028
  215POPC   PO4 3063  10.079   6.064   3.895
  215POPC   GL1 3064   9.890   6.251   4.301
  215POPC   GL2 3065   9.502   6.316   4.368
  215POPC   C1A 3066   9.839   6.503   4.701
  215POPC   D2A 3067   9.656   6.505   5.116
  215POPC   C3A 3068   9.864   6.738   5.481
  215POPC   C4A 3069   9.848   6.478   5.842
  215POPC   C1B 3070   9.370   6.704   4.657
  215POPC   C2B 3071   9.402   6.922   5.075
  215POPC   C3B 3072   9.365   6.707   5.506
  215POPC   C4B 3073   9.384   6.659   5.925
  216POPC   NC3 3074   4.495   9.006   4.046
  216POPC   PO4 3075   3.922   9.144   3.876
  216POPC   GL1 3076   3.926   8.978   4.287
  216POPC   GL2 3077   4.243   9.020   4.478
  216POPC   C1A 3078   3.837   8.943   4.746
  216POPC   D2A 3079   4.135   9.017   5.037
  216POPC   C3A 3080   4.099   8.875   5.473
  216POPC   C4A 3081   4.177   8.472   5.704
  216POPC   C1B 3082   4.568   8.904   4.765
  216POPC   C2B 3083   4.566   8.750   5.202
  216POPC   C3B 3084   4.585   8.780   5.654
  216POPC   C4B 3085   4.753   8.919   6.039
  217POPC   NC3 3086   1.136   4.377   3.895
  217POPC   PO4 3087   1.704   4.777   4.085
  217POPC   GL1 3088   1.380   4.452   4.314
  217POPC   GL2 3089   1.140   4.067   4.280
  217POPC   C1A 3090   1.188   4.371   4.672
  217POPC   D2A 3091   1.365   4.508   4.959
  217POPC   C3A 3092   1.323   4.544   5.352
  217POPC   C4A 3093   1.441   4.629   5.759
  217POPC   C1B 3094   1.090   3.887   4.708
  217POPC   C2B 3095   1.256   4.037   5.163
  217POPC   C3B 3096   1.227   4.144   5.633
  217POPC   C4B 3097   1.440   4.000   6.017
  218POPC   NC3 3098   1.737   3.672   3.911
  218POPC   PO4 3099   2.160   3.898   4.238
  218POPC   GL1 3100   1.989   3.605   4.397
  218POPC   GL2 3101   2.195   3.298   4.277
  218POPC   C1A 3102   1.921   3.660   4.829
  218POPC   D2A 3103   1.870   3.882   5.216
  218POPC   C3A 3104   2.148   3.844   5.575
  218POPC   C4A 3105   2.128   3.597   5.940
  218POPC   C1B 3106   1.875   3.181   4.620
  218POPC   C2B 3107   1.994   3.182   5.042
  218POPC   C3B 3108   2.003   3.357   5.456
  218POPC   C4B 3109   1.953   3.115   5.816
  219POPC   NC3 3110  10.600   1.193   3.874
  219POPC   PO4 3111   9.912   1.208   3.965
  219POPC   GL1 3112  10.247   1.112   4.275
  219POPC   GL2 3113  10.635   1.096   4.362
  219POPC   C1A 3114  10.282   1.129   4.719
  219POPC   D2A 3115  10.001   1.239   5.040
  219POPC   C3A 3116   9.995   1.598   5.298
  219POPC   C4A 3117   9.953   1.416   5.691
  219POPC   C1B 3118  10.800   1.092   4.775
  219POPC   C2B 3119  10.589   0.956   5.138
  219POPC   C3B 3120  10.327   1.079   5.479
  219POPC   C4B 3121  10.557   1.088   5.881
  220POPC   NC3 3122   8.682   3.589   3.892
  220POPC   PO4 3123   9.244   3.312   3.737
  220POPC   GL1 3124   9.194   3.309   4.210
  220POPC   GL2 3125   8.878   3.416   4.332
  220POPC   C1A 3126   9.291   3.531   4.633
  220POPC   D2A 3127   9.255   3.828   5.035
  220POPC   C3A 3128   9.127   3.618   5.426
  220POPC   C4A 3129   9.006   3.395   5.795
  220POPC   C1B 3130   8.602   3.352   4.695
  220POPC   C2B 3131   8.523   3.221   5.132
  220POPC   C3B 3132   8.552   3.385   5.548
  220POPC   C4B 3133   8.383   3.649   5.879
  221POPC   NC3 3134   0.821   0.497   3.842
  221POPC   PO4 3135   1.386   0.201   3.710
  221POPC   GL1 3136   1.161   0.322   4.170
  221POPC   GL2 3137   1.142   0.663   4.328
  221POPC   C1A 3138   1.006   0.263   4.603
  221POPC   D2A 3139   0.949   0.414   5.005
  221POPC   C3A 3140   0.819   0.191   5.330
  221POPC   C4A 3141   1.005   0.314   5.687
  221POPC   C1B 3142   1.354   0.631   4.752
  221POPC   C2B 3143   1.570   0.635   5.174
  221POPC   C3B 3144   1.563   0.387   5.584
  221POPC   C4B 3145   1.358   0.495   5.997
  222POPC   NC3 3146   1.525   8.926   4.168
  222POPC   PO4 3147   0.864   8.893   3.944
  222POPC   GL1 3148   1.060   8.693   4.283
  222POPC   GL2 3149   1.076   9.033   4.416
  222POPC   C1A 3150   1.235   8.529   4.686
  222POPC   D2A 3151   1.042   8.633   5.082
  222POPC   C3A 3152   1.243   8.522   5.474
  222POPC   C4A 3153   1.375   8.657   5.879
  222POPC   C1B 3154   1.276   9.038   4.807
  222POPC   C2B 3155   1.362   9.016   5.227
  222POPC   C3B 3156   1.035   8.996   5.494
  222POPC   C4B 3157   1.153   9.136   5.860
  223POPC   NC3 3158   9.942   0.675   3.888
  223POPC   PO4 3159   9.800  11.478   3.863
  223POPC   GL1 3160   9.725   0.291   4.197
  223POPC   GL2 3161   9.385   0.323   4.212
  223POPC   C1A 3162   9.646   0.286   4.655
  223POPC   D2A 3163   9.872   0.327   5.013
  223POPC   C3A 3164   9.677   0.382   5.378
  223POPC   C4A 3165   9.820   0.446   5.772
  223POPC   C1B 3166   9.243   0.574   4.545
  223POPC   C2B 3167   9.277   0.464   4.996
  223POPC   C3B 3168   9.259   0.659   5.423
  223POPC   C4B 3169   9.372   0.665   5.828
  224POPC   NC3 3170   8.114   2.950   4.039
  224POPC   PO4 3171   7.877   2.367   3.637
  224POPC   GL1 3172   8.158   2.453   4.052
  224POPC   GL2 3173   7.929   2.481   4.354
  224POPC   C1A 3174   8.444   2.534   4.443
  224POPC   D2A 3175   8.501   2.799   4.837
  224POPC   C3A 3176   8.529   2.744   5.332
  224POPC   C4A 3177   8.379   2.580   5.755
  224POPC   C1B 3178   7.952   2.752   4.710
  224POPC   C2B 3179   8.057   2.976   5.079
  224POPC   C3B 3180   8.061   2.898   5.510
  224POPC   C4B 3181   7.893   2.796   5.909
  225POPC   NC3 3182   7.442   0.966   3.901
  225POPC   PO4 3183   7.541   1.706   3.972
  225POPC   GL1 3184   7.578   1.335   4.295
  225POPC   GL2 3185   7.321   1.050   4.378
  225POPC   C1A 3186   7.616   1.230   4.772
  225POPC   D2A 3187   7.360   1.159   5.150
  225POPC   C3A 3188   7.516   1.119   5.577
  225POPC   C4A 3189   7.619   1.465   5.793
  225POPC   C1B 3190   7.063   1.204   4.712
  225POPC   C2B 3191   6.893   1.410   5.087
  225POPC   C3B 3192   7.015   1.265   5.498
  225POPC   C4B 3193   7.082   0.971   5.838
  226POPC   NC3 3194  10.301   4.858   3.842
  226POPC   PO4 3195  10.814   5.391   3.968
  226POPC   GL1 3196  10.550   5.088   4.232
  226POPC   GL2 3197  10.149   5.009   4.305
  226POPC   C1A 3198  10.621   5.103   4.689
  226POPC   D2A 3199  10.470   5.227   5.094
  226POPC   C3A 3200  10.661   5.266   5.496
  226POPC   C4A 3201  10.425   5.175   5.872
  226POPC   C1B 3202  10.312   4.709   4.573
  226POPC   C2B 3203  10.325   4.738   5.025
  226POPC   C3B 3204  10.234   4.934   5.434
  226POPC   C4B 3205  10.041   4.801   5.777
  227POPC   NC3 3206   2.108   4.239   3.945
  227POPC   PO4 3207   1.474   4.065   3.849
  227POPC   GL1 3208   1.647   4.003   4.306
  227POPC   GL2 3209   1.855   4.272   4.394
  227POPC   C1A 3210   1.601   4.074   4.790
  227POPC   D2A 3211   1.794   4.370   5.165
  227POPC   C3A 3212   1.735   4.215   5.601
  227POPC   C4A 3213   1.940   4.082   5.999
  227POPC   C1B 3214   2.091   4.182   4.785
  227POPC   C2B 3215   2.292   4.135   5.149
  227POPC   C3B 3216   2.233   4.347   5.505
  227POPC   C4B 3217   2.378   4.342   5.930
  228POPC   NC3 3218  10.998   4.219   3.926
  228POPC   PO4 3219  11.461   4.693   3.896
  228POPC   GL1 3220   0.042   4.517   4.281
  228POPC   GL2 3221  11.175   4.547   4.334
  228POPC   C1A 3222   0.221   4.425   4.686
  228POPC   D2A 3223  11.479   4.539   5.042
  228POPC   C3A 3224  11.372   4.320   5.412
  228POPC   C4A 3225  11.240   4.511   5.806
  228POPC   C1B 3226  11.272   4.168   4.582
  228POPC   C2B 3227  11.385   3.998   4.984
  228POPC   C3B 3228  11.277   3.810   5.396
  228POPC   C4B 3229  11.169   4.007   5.784
  229POPC   NC3 3230   3.493   5.786   4.017
  229POPC   PO4 3231   3.964   5.639   4.260
  229POPC   GL1 3232   3.642   5.819   4.547
  229POPC   GL2 3233   3.375   6.045   4.441
  229POPC   C1A 3234   3.528   5.918   5.003
  229POPC   D2A 3235   3.584   5.772   5.466
  229POPC   C3A 3236   3.693   6.097   5.796
  229POPC   C4A 3237   4.040   6.103   6.086
  229POPC   C1B 3238   3.161   5.700   4.683
  229POPC   C2B 3239   3.093   5.672   5.135
  229POPC   C3B 3240   3.137   5.576   5.572
  229POPC   C4B 3241   3.248   5.872   5.861
  230POPC   NC3 3242   9.101   2.911   3.885
  230POPC   PO4 3243   8.524   3.156   4.013
  230POPC   GL1 3244   8.795   2.896   4.291
  230POPC   GL2 3245   8.907   2.527   4.168
  230POPC   C1A 3246   9.018   3.046   4.656
  230POPC   D2A 3247   9.014   3.334   5.010
  230POPC   C3A 3248   8.971   3.097   5.385
  230POPC   C4A 3249   8.741   2.959   5.755
  230POPC   C1B 3250   8.966   2.524   4.618
  230POPC   C2B 3251   8.960   2.682   5.046
  230POPC   C3B 3252   9.029   2.592   5.487
  230POPC   C4B 3253   8.918   2.512   5.926
  231POPC   NC3 3254  10.068   3.105   4.048
  231POPC   PO4 3255  10.590   2.655   3.882
  231POPC   GL1 3256  10.375   2.671   4.248
  231POPC   GL2 3257  10.613   2.472   4.407
  231POPC   C1A 3258  10.336   2.834   4.666
  231POPC   D2A 3259  10.350   2.693   5.106
  231POPC   C3A 3260  10.423   2.942   5.474
  231POPC   C4A 3261  10.221   2.813   5.843
  231POPC   C1B 3262  10.750   2.552   4.806
  231POPC   C2B 3263  10.749   2.388   5.202
  231POPC   C3B 3264  10.751   2.537   5.631
  231POPC   C4B 3265  10.693   2.810   5.993
  232POPC   NC3 3266   1.761   7.398   3.977
  232POPC   PO4 3267   2.387   7.516   3.984
  232POPC   GL1 3268   2.150   7.467   4.333
  232POPC   GL2 3269   2.072   7.131   4.278
  232POPC   C1A 3270   2.020   7.326   4.731
  232POPC   D2A 3271   1.762   7.427   4.995
  232POPC   C3A 3272   2.042   7.535   5.301
  232POPC   C4A 3273   2.244   7.679   5.678
  232POPC   C1B 3274   1.651   7.041   4.544
  232POPC   C2B 3275   1.634   6.883   4.961
  232POPC   C3B 3276   1.832   7.036   5.333
  232POPC   C4B 3277   1.989   7.231   5.712
  233POPC   NC3 3278   0.398   8.828   4.004
  233POPC   PO4 3279   0.049   8.327   4.296
  233POPC   GL1 3280   0.272   8.696   4.540
  233POPC   GL2 3281   0.563   8.926   4.455
  233POPC   C1A 3282   0.199   9.057   4.851
  233POPC   D2A 3283   0.063   9.138   5.302
  233POPC   C3A 3284   0.250   8.827   5.582
  233POPC   C4A 3285   0.191   8.634   5.986
  233POPC   C1B 3286   0.751   9.004   4.832
  233POPC   C2B 3287   0.574   9.135   5.233
  233POPC   C3B 3288   0.579   9.191   5.674
  233POPC   C4B 3289   0.680   8.852   5.931
  234POPC   NC3 3290   3.504   8.960   3.917
  234POPC   PO4 3291   3.146   8.546   4.072
  234POPC   GL1 3292   3.440   8.690   4.373
  234POPC   GL2 3293   3.439   9.018   4.443
  234POPC   C1A 3294   3.519   8.554   4.797
  234POPC   D2A 3295   3.710   8.672   5.197
  234POPC   C3A 3296   3.450   8.700   5.593
  234POPC   C4A 3297   3.487   8.470   6.003
  234POPC   C1B 3298   3.350   9.042   4.884
  234POPC   C2B 3299   3.644   9.171   5.218
  234POPC   C3B 3300   3.668   9.166   5.646
  234POPC   C4B 3301   3.400   9.019   6.031
  235POPC   NC3 3302   2.574   2.612   3.815
  235POPC   PO4 3303   3.121   2.258   3.861
  235POPC   GL1 3304   2.917   2.576   4.202
  235POPC   GL2 3305   2.733   2.926   4.259
  235POPC   C1A 3306   2.717   2.588   4.630
  235POPC   D2A 3307   2.872   2.696   5.055
  235POPC   C3A 3308   2.671   2.684   5.443
  235POPC   C4A 3309   2.753   2.785   5.876
  235POPC   C1B 3310   2.762   3.085   4.731
  235POPC   C2B 3311   2.508   3.128   5.149
  235POPC   C3B 3312   2.442   3.121   5.620
  235POPC   C4B 3313   2.411   3.178   6.063
  236POPC   NC3 3314   1.814   0.389   3.795
  236POPC   PO4 3315   1.623  11.376   4.157
  236POPC   GL1 3316   1.604   0.271   4.412
  236POPC   GL2 3317   1.664   0.617   4.314
  236POPC   C1A 3318   1.766   0.313   4.822
  236POPC   D2A 3319   2.117   0.095   4.974
  236POPC   C3A 3320   1.977  11.472   5.356
  236POPC   C4A 3321   2.144   0.140   5.710
  236POPC   C1B 3322   2.086   0.545   4.509
  236POPC   C2B 3323   2.187   0.631   4.949
  236POPC   C3B 3324   2.066   0.530   5.373
  236POPC   C4B 3325   2.395   0.600   5.682
  237POPC   NC3 3326   1.865   2.682   3.864
  237POPC   PO4 3327   2.364   3.020   3.807
  237POPC   GL1 3328   2.252   2.767   4.207
  237POPC   GL2 3329   1.907   2.740   4.368
  237POPC   C1A 3330   2.302   2.900   4.644
  237POPC   D2A 3331   2.349   2.671   5.015
  237POPC   C3A 3332   2.121   2.802   5.373
  237POPC   C4A 3333   2.273   2.675   5.777
  237POPC   C1B 3334   1.853   2.688   4.829
  237POPC   C2B 3335   1.483   2.533   5.060
  237POPC   C3B 3336   1.435   2.537   5.495
  237POPC   C4B 3337   1.784   2.654   5.750
  238POPC   NC3 3338   0.234   0.141   4.063
  238POPC   PO4 3339   0.416   0.755   3.848
  238POPC   GL1 3340   0.631   0.698   4.271
  238POPC   GL2 3341   0.623   0.371   4.302
  238POPC   C1A 3342   0.567   0.590   4.734
  238POPC   D2A 3343   0.439   0.489   5.143
  238POPC   C3A 3344   0.664   0.665   5.471
  238POPC   C4A 3345   0.364   0.814   5.688
  238POPC   C1B 3346   0.541   0.064   4.651
  238POPC   C2B 3347   0.404  11.486   5.059
  238POPC   C3B 3348   0.366   0.034   5.502
  238POPC   C4B 3349   0.501   0.310   5.815
  239POPC   NC3 3350   1.961   9.621   3.865
  239POPC   PO4 3351   2.604   9.385   4.121
  239POPC   GL1 3352   2.163   9.511   4.330
  239POPC   GL2 3353   1.803   9.690   4.334
  239POPC   C1A 3354   2.041   9.618   4.766
  239POPC   D2A 3355   2.200   9.564   5.131
  239POPC   C3A 3356   2.245   9.926   5.366
  239POPC   C4A 3357   2.042   9.682   5.689
  239POPC   C1B 3358   1.614   9.389   4.639
  239POPC   C2B 3359   1.494   9.468   5.022
  239POPC   C3B 3360   1.669   9.481   5.395
  239POPC   C4B 3361   1.525   9.522   5.772
  240POPC   NC3 3362   0.475   1.940   4.146
  240POPC   PO4 3363  11.482   2.337   3.853
  240POPC   GL1 3364   0.200   2.351   4.324
  240POPC   GL2 3365   0.559   2.238   4.528
  240POPC   C1A 3366   0.177   2.368   4.801
  240POPC   D2A 3367   0.276   2.395   5.238
  240POPC   C3A 3368   0.228   1.999   5.476
  240POPC   C4A 3369   0.113   1.927   5.904
  240POPC   C1B 3370   0.384   1.893   4.806
  240POPC   C2B 3371   0.503   1.657   5.193
  240POPC   C3B 3372   0.746   1.862   5.538
  240POPC   C4B 3373   0.626   2.260   5.728
  241POPC   NC3 3374   9.136   7.446   3.951
  241POPC   PO4 3375   8.654   7.800   4.068
  241POPC   GL1 3376   8.887   7.578   4.401
  241POPC   GL2 3377   9.027   7.233   4.418
  241POPC   C1A 3378   8.837   7.628   4.819
  241POPC   D2A 3379   8.716   7.485   5.217
  241POPC   C3A 3380   8.930   7.399   5.593
  241POPC   C4A 3381   8.829   7.296   6.025
  241POPC   C1B 3382   8.968   7.124   4.888
  241POPC   C2B 3383   8.963   6.968   5.341
  241POPC   C3B 3384   8.916   6.823   5.800
  241POPC   C4B 3385   9.058   6.887   6.258
  242POPC   NC3 3386   2.863  10.929   3.950
  242POPC   PO4 3387   2.308  11.394   3.843
  242POPC   GL1 3388   2.488  11.173   4.216
  242POPC   GL2 3389   2.838  11.245   4.345
  242POPC   C1A 3390   2.426  11.278   4.640
  242POPC   D2A 3391   2.684  11.350   5.001
  242POPC   C3A 3392   2.491  11.328   5.402
  242POPC   C4A 3393   2.734  11.094   5.664
  242POPC   C1B 3394   2.853  10.942   4.648
  242POPC   C2B 3395   2.984  10.922   5.061
  242POPC   C3B 3396   3.163  10.854   5.447
  242POPC   C4B 3397   3.066  10.763   5.833
  243POPC   NC3 3398   6.405   2.157   3.924
  243POPC   PO4 3399   6.440   1.458   3.949
  243POPC   GL1 3400   6.463   1.733   4.288
  243POPC   GL2 3401   6.738   1.967   4.339
  243POPC   C1A 3402   6.551   1.660   4.724
  243POPC   D2A 3403   6.326   1.588   5.087
  243POPC   C3A 3404   6.487   1.805   5.446
  243POPC   C4A 3405   6.215   1.733   5.797
  243POPC   C1B 3406   6.984   1.928   4.752
  243POPC   C2B 3407   6.968   1.971   5.202
  243POPC   C3B 3408   6.763   2.263   5.479
  243POPC   C4B 3409   6.506   2.182   5.833
  244POPC   NC3 3410   9.473   1.334   3.809
  244POPC   PO4 3411   9.456   0.659   3.819
  244POPC   GL1 3412   9.594   0.851   4.231
  244POPC   GL2 3413   9.367   1.123   4.350
  244POPC   C1A 3414   9.746   0.995   4.654
  244POPC   D2A 3415   9.630   0.815   5.044
  244POPC   C3A 3416   9.803   0.938   5.411
  244POPC   C4A 3417   9.803   0.943   5.824
  244POPC   C1B 3418   9.408   1.366   4.775
  244POPC   C2B 3419   9.531   1.327   5.204
  244POPC   C3B 3420   9.432   1.228   5.609
  244POPC   C4B 3421   9.512   1.378   6.023
  245POPC   NC3 3422   8.033   8.666   3.942
  245POPC   PO4 3423   8.175   9.226   3.769
  245POPC   GL1 3424   8.162   9.007   4.261
  245POPC   GL2 3425   7.919   9.176   4.423
  245POPC   C1A 3426   8.272   9.038   4.741
  245POPC   D2A 3427   7.980   9.011   5.068
  245POPC   C3A 3428   8.270   9.005   5.430
  245POPC   C4A 3429   8.177   9.147   5.840
  245POPC   C1B 3430   7.887   8.714   4.625
  245POPC   C2B 3431   7.747   8.510   5.022
  245POPC   C3B 3432   7.894   8.426   5.443
  245POPC   C4B 3433   8.169   8.625   5.752
  246POPC   NC3 3434   7.418   8.065   3.921
  246POPC   PO4 3435   7.101   7.616   4.034
  246POPC   GL1 3436   7.179   7.960   4.368
  246POPC   GL2 3437   7.265   8.329   4.329
  246POPC   C1A 3438   7.185   8.074   4.809
  246POPC   D2A 3439   7.503   8.064   5.145
  246POPC   C3A 3440   7.354   7.947   5.582
  246POPC   C4A 3441   7.278   7.901   6.044
  246POPC   C1B 3442   7.362   8.566   4.678
  246POPC   C2B 3443   7.213   8.512   5.073
  246POPC   C3B 3444   7.374   8.447   5.460
  246POPC   C4B 3445   7.131   8.353   5.840
  247POPC   NC3 3446   4.322   2.313   3.991
  247POPC   PO4 3447   4.162   1.670   3.859
  247POPC   GL1 3448   4.207   1.835   4.299
  247POPC   GL2 3449   4.317   2.123   4.486
  247POPC   C1A 3450   3.995   1.795   4.715
  247POPC   D2A 3451   4.013   2.075   5.066
  247POPC   C3A 3452   4.079   1.805   5.385
  247POPC   C4A 3453   4.052   1.603   5.764
  247POPC   C1B 3454   4.490   1.782   4.789
  247POPC   C2B 3455   4.589   1.618   5.205
  247POPC   C3B 3456   4.565   1.782   5.600
  247POPC   C4B 3457   4.306   2.172   5.657
  248POPC   NC3 3458  10.836   0.387   4.233
  248POPC   PO4 3459  10.430   0.753   3.813
  248POPC   GL1 3460  10.407   0.634   4.249
  248POPC   GL2 3461  10.252   0.305   4.285
  248POPC   C1A 3462  10.510   0.567   4.730
  248POPC   D2A 3463  10.405   0.299   5.068
  248POPC   C3A 3464  10.637   0.490   5.390
  248POPC   C4A 3465  10.617   0.299   5.769
  248POPC   C1B 3466  10.035   0.596   4.584
  248POPC   C2B 3467  10.132   0.750   5.020
  248POPC   C3B 3468  10.152   0.586   5.417
  248POPC   C4B 3469  10.273   0.684   5.826
  249POPC   NC3 3470   9.053   0.428   3.846
  249POPC   PO4 3471   8.819  11.302   3.779
  249POPC   GL1 3472   9.003  11.480   4.179
  249POPC   GL2 3473   8.834   0.256   4.307
  249POPC   C1A 3474   9.165   0.057   4.654
  249POPC   D2A 3475   8.978   0.062   5.151
  249POPC   C3A 3476   9.225   0.155   5.553
  249POPC   C4A 3477   9.156   0.239   6.009
  249POPC   C1B 3478   8.787   0.364   4.763
  249POPC   C2B 3479   8.818   0.553   5.177
  249POPC   C3B 3480   8.791   0.406   5.558
  249POPC   C4B 3481   8.866   0.673   5.806
  250POPC   NC3 3482   7.814   2.094   4.000
  250POPC   PO4 3483   8.398   1.736   3.859
  250POPC   GL1 3484   8.167   1.787   4.274
  250POPC   GL2 3485   8.194   2.065   4.392
  250POPC   C1A 3486   7.955   1.810   4.740
  250POPC   D2A 3487   8.113   1.927   5.163
  250POPC   C3A 3488   7.817   1.839   5.476
  250POPC   C4A 3489   7.744   1.962   5.881
  250POPC   C1B 3490   8.146   2.284   4.779
  250POPC   C2B 3491   8.113   2.476   5.172
  250POPC   C3B 3492   7.944   2.355   5.563
  250POPC   C4B 3493   8.234   2.049   5.722
  251POPC   NC3 3494   2.876   8.604   3.717
  251POPC   PO4 3495   2.303   8.437   4.060
  251POPC   GL1 3496   2.361   8.248   4.498
  251POPC   GL2 3497   2.428   7.870   4.506
  251POPC   C1A 3498   2.563   8.323   4.942
  251POPC   D2A 3499   2.910   8.215   5.265
  251POPC   C3A 3500   3.057   8.215   5.725
  251POPC   C4A 3501   2.853   8.241   6.155
  251POPC   C1B 3502   2.381   7.692   4.924
  251POPC   C2B 3503   2.392   7.979   5.297
  251POPC   C3B 3504   2.562   8.070   5.729
  251POPC   C4B 3505   2.443   7.884   6.135
  252POPC   NC3 3506   6.556   3.583   4.011
  252POPC   PO4 3507   6.939   3.440   4.214
  252POPC   GL1 3508   6.638   3.611   4.527
  252POPC   GL2 3509   6.351   3.403   4.486
  252POPC   C1A 3510   6.410   3.628   4.950
  252POPC   D2A 3511   6.330   3.909   5.295
  252POPC   C3A 3512   6.692   3.861   5.572
  252POPC   C4A 3513   6.885   3.457   5.747
  252POPC   C1B 3514   6.646   3.184   4.801
  252POPC   C2B 3515   6.731   3.295   5.239
  252POPC   C3B 3516   6.417   3.443   5.525
  252POPC   C4B 3517   6.076   3.491   5.816
  253POPC   NC3 3518   8.177   9.655   3.973
  253POPC   PO4 3519   7.658  10.074   4.009
  253POPC   GL1 3520   7.911   9.875   4.349
  253POPC   GL2 3521   8.282   9.847   4.432
  253POPC   C1A 3522   7.953  10.037   4.780
  253POPC   D2A 3523   7.890   9.786   5.135
  253POPC   C3A 3524   7.657   9.815   5.522
  253POPC   C4A 3525   7.639   9.923   5.972
  253POPC   C1B 3526   8.171   9.565   4.765
  253POPC   C2B 3527   8.257   9.430   5.148
  253POPC   C3B 3528   7.963   9.413   5.478
  253POPC   C4B 3529   8.076   9.681   5.814
  254POPC   NC3 3530   9.440   9.808   3.806
  254POPC   PO4 3531   9.053   9.341   4.055
  254POPC   GL1 3532   9.266   9.637   4.290
  254POPC   GL2 3533   9.634   9.616   4.313
  254POPC   C1A 3534   9.233   9.664   4.716
  254POPC   D2A 3535   9.288   9.392   5.071
  254POPC   C3A 3536   9.223   9.493   5.493
  254POPC   C4A 3537   9.484   9.512   5.818
  254POPC   C1B 3538   9.832   9.628   4.773
  254POPC   C2B 3539   9.791   9.611   5.249
  254POPC   C3B 3540   9.985   9.443   5.639
  254POPC   C4B 3541   9.923   9.432   6.085
  255POPC   NC3 3542   5.319   0.971   4.000
  255POPC   PO4 3543   5.124   1.526   3.629
  255POPC   GL1 3544   5.116   1.410   4.126
  255POPC   GL2 3545   4.904   1.096   4.271
  255POPC   C1A 3546   5.243   1.348   4.579
  255POPC   D2A 3547   5.395   1.430   5.014
  255POPC   C3A 3548   5.033   1.393   5.281
  255POPC   C4A 3549   4.882   1.336   5.701
  255POPC   C1B 3550   4.799   0.899   4.680
  255POPC   C2B 3551   4.734   0.925   5.139
  255POPC   C3B 3552   5.078   0.909   5.436
  255POPC   C4B 3553   5.165   0.971   5.888
  256POPC   NC3 3554   0.186   8.030   3.970
  256POPC   PO4 3555   0.836   7.786   4.001
  256POPC   GL1 3556   0.564   7.997   4.317
  256POPC   GL2 3557   0.573   8.372   4.232
  256POPC   C1A 3558   0.429   8.074   4.755
  256POPC   D2A 3559   0.194   7.895   5.103
  256POPC   C3A 3560   0.400   8.044   5.470
  256POPC   C4A 3561   0.576   7.837   5.801
  256POPC   C1B 3562   0.725   8.485   4.653
  256POPC   C2B 3563   0.513   8.612   5.047
  256POPC   C3B 3564   0.689   8.599   5.465
  256POPC   C4B 3565   0.609   8.358   5.843
  257POPC   NC3 3566  10.196   7.323   4.222
  257POPC   PO4 3567   9.598   7.505   3.918
  257POPC   GL1 3568   9.697   7.489   4.312
  257POPC   GL2 3569   9.407   7.604   4.375
  257POPC   C1A 3570   9.802   7.297   4.724
  257POPC   D2A 3571  10.050   7.515   5.002
  257POPC   C3A 3572   9.914   7.596   5.396
  257POPC   C4A 3573   9.887   7.423   5.762
  257POPC   C1B 3574   9.329   7.465   4.768
  257POPC   C2B 3575   9.510   7.416   5.149
  257POPC   C3B 3576   9.510   7.192   5.517
  257POPC   C4B 3577   9.299   7.174   5.898
  258POPC   NC3 3578   8.376  11.210   3.633
  258POPC   PO4 3579   8.771  10.898   4.138
  258POPC   GL1 3580   8.799  11.118   4.485
  258POPC   GL2 3581   9.122  11.079   4.468
  258POPC   C1A 3582   8.610  11.360   4.811
  258POPC   D2A 3583   8.594  11.185   5.221
  258POPC   C3A 3584   8.570  11.459   5.548
  258POPC   C4A 3585   8.778  11.408   5.949
  258POPC   C1B 3586   9.067  11.133   4.904
  258POPC   C2B 3587   9.079  10.910   5.218
  258POPC   C3B 3588   9.024  11.165   5.555
  258POPC   C4B 3589   9.269  11.242   5.932
  259POPC   NC3 3590   1.701   6.606   3.755
  259POPC   PO4 3591   2.204   6.242   3.737
  259POPC   GL1 3592   1.918   6.346   4.138
  259POPC   GL2 3593   1.867   6.676   4.235
  259POPC   C1A 3594   1.816   6.312   4.632
  259POPC   D2A 3595   1.720   6.180   5.090
  259POPC   C3A 3596   1.929   6.293   5.520
  259POPC   C4A 3597   2.271   6.402   5.864
  259POPC   C1B 3598   2.063   6.768   4.665
  259POPC   C2B 3599   2.085   6.618   5.098
  259POPC   C3B 3600   2.213   6.760   5.513
  259POPC   C4B 3601   1.875   6.745   5.802
  260POPC   NC3 3602  11.167   5.682   3.879
  260POPC   PO4 3603  10.765   6.199   3.995
  260POPC   GL1 3604  10.929   5.860   4.302
  260POPC   GL2 3605  11.285   5.702   4.360
  260POPC   C1A 3606  10.942   5.721   4.745
  260POPC   D2A 3607  10.706   5.672   5.129
  260POPC   C3A 3608  10.908   5.746   5.504
  260POPC   C4A 3609  10.782   5.584   5.879
  260POPC   C1B 3610  11.454   5.894   4.728
  260POPC   C2B 3611  11.326   5.964   5.144
  260POPC   C3B 3612  11.411   5.843   5.567
  260POPC   C4B 3613  11.186   5.866   5.964
  261POPC   NC3 3614   5.120   9.233   4.007
  261POPC   PO4 3615   5.185   9.968   3.850
  261POPC   GL1 3616   5.161   9.823   4.260
  261POPC   GL2 3617   5.237   9.510   4.418
  261POPC   C1A 3618   4.972   9.885   4.653
  261POPC   D2A 3619   4.916   9.712   5.041
  261POPC   C3A 3620   4.939   9.929   5.395
  261POPC   C4A 3621   5.023   9.714   5.778
  261POPC   C1B 3622   4.842   9.357   4.682
  261POPC   C2B 3623   4.610   9.287   5.116
  261POPC   C3B 3624   4.685   9.280   5.593
  261POPC   C4B 3625   4.685   9.423   6.046
  262POPC   NC3 3626  10.891   6.652   3.964
  262POPC   PO4 3627  11.361   7.001   3.971
  262POPC   GL1 3628  11.233   6.808   4.329
  262POPC   GL2 3629  11.229   6.444   4.287
  262POPC   C1A 3630  11.310   6.724   4.734
  262POPC   D2A 3631  11.188   6.530   5.075
  262POPC   C3A 3632  11.192   6.762   5.440
  262POPC   C4A 3633  11.321   7.017   5.768
  262POPC   C1B 3634  11.059   6.237   4.643
  262POPC   C2B 3635  10.862   6.147   5.027
  262POPC   C3B 3636  11.015   6.233   5.451
  262POPC   C4B 3637  11.184   6.347   5.821
  263POPC   NC3 3638  11.113   7.418   3.835
  263POPC   PO4 3639  10.546   6.940   3.774
  263POPC   GL1 3640  10.865   7.120   4.161
  263POPC   GL2 3641  11.114   7.388   4.321
  263POPC   C1A 3642  10.954   7.088   4.684
  263POPC   D2A 3643  10.834   7.016   5.148
  263POPC   C3A 3644  10.827   7.182   5.575
  263POPC   C4A 3645  10.887   7.033   6.016
  263POPC   C1B 3646  11.441   7.231   4.620
  263POPC   C2B 3647  11.338   7.141   5.067
  263POPC   C3B 3648  11.304   7.398   5.446
  263POPC   C4B 3649  11.097   7.497   5.878
  264POPC   NC3 3650   5.192  10.421   3.717
  264POPC   PO4 3651   5.837  10.400   3.939
  264POPC   GL1 3652   5.875  10.502   4.356
  264POPC   GL2 3653   6.024  10.191   4.361
  264POPC   C1A 3654   5.711  10.663   4.775
  264POPC   D2A 3655   5.518  10.771   5.205
  264POPC   C3A 3656   5.654  10.587   5.605
  264POPC   C4A 3657   5.735  10.666   6.049
  264POPC   C1B 3658   5.843  10.149   4.767
  264POPC   C2B 3659   5.702  10.290   5.138
  264POPC   C3B 3660   5.838  10.121   5.490
  264POPC   C4B 3661   5.842  10.195   5.905
  265POPC   NC3 3662   0.195   3.427   4.003
  265POPC   PO4 3663  11.131   3.780   3.950
  265POPC   GL1 3664  11.264   3.484   4.258
  265POPC   GL2 3665  10.980   3.334   4.397
  265POPC   C1A 3666  11.415   3.317   4.658
  265POPC   D2A 3667  11.182   3.269   5.059
  265POPC   C3A 3668  11.397   3.292   5.468
  265POPC   C4A 3669  11.441   3.171   5.906
  265POPC   C1B 3670  11.077   3.694   4.679
  265POPC   C2B 3671  10.901   3.696   5.064
  265POPC   C3B 3672  10.853   3.488   5.439
  265POPC   C4B 3673  11.092   3.519   5.808
  266POPC   NC3 3674   1.192  11.369   3.972
  266POPC   PO4 3675   1.329  10.712   3.846
  266POPC   GL1 3676   1.264  10.952   4.290
  266POPC   GL2 3677   1.134  11.290   4.446
  266POPC   C1A 3678   1.254  10.912   4.774
  266POPC   D2A 3679   1.009  10.823   5.171
  266POPC   C3A 3680   1.110  10.917   5.635
  266POPC   C4A 3681   1.477  10.865   5.943
  266POPC   C1B 3682   1.378  11.467   4.759
  266POPC   C2B 3683   1.360   0.140   5.142
  266POPC   C3B 3684   1.212  11.395   5.457
  266POPC   C4B 3685   1.301  11.410   5.876
  267POPC   NC3 3686   1.486   5.001   3.764
  267POPC   PO4 3687   0.925   5.371   3.743
  267POPC   GL1 3688   1.072   5.356   4.196
  267POPC   GL2 3689   1.301   5.086   4.235
  267POPC   C1A 3690   1.274   5.404   4.636
  267POPC   D2A 3691   1.108   5.380   5.079
  267POPC   C3A 3692   1.337   5.446   5.458
  267POPC   C4A 3693   1.543   5.150   5.760
  267POPC   C1B 3694   1.220   4.886   4.640
  267POPC   C2B 3695   1.006   4.874   5.046
  267POPC   C3B 3696   1.098   4.979   5.478
  267POPC   C4B 3697   0.980   4.856   5.888
  268POPC   NC3 3698   1.133   6.750   4.066
  268POPC   PO4 3699   1.480   6.198   3.828
  268POPC   GL1 3700   1.417   6.252   4.289
  268POPC   GL2 3701   1.419   6.583   4.447
  268POPC   C1A 3702   1.170   6.228   4.718
  268POPC   D2A 3703   1.238   6.403   5.147
  268POPC   C3A 3704   1.031   6.333   5.551
  268POPC   C4A 3705   1.412   6.516   5.722
  268POPC   C1B 3706   1.147   6.753   4.768
  268POPC   C2B 3707   1.159   6.949   5.167
  268POPC   C3B 3708   1.028   6.835   5.559
  268POPC   C4B 3709   1.022   6.965   5.948
  269POPC   NC3 3710   0.577   5.305   4.051
  269POPC   PO4 3711   0.735   4.593   3.920
  269POPC   GL1 3712   0.479   4.808   4.225
  269POPC   GL2 3713   0.800   4.923   4.342
  269POPC   C1A 3714   0.404   4.926   4.692
  269POPC   D2A 3715   0.463   4.712   5.129
  269POPC   C3A 3716   0.489   4.927   5.541
  269POPC   C4A 3717   0.433   4.877   6.001
  269POPC   C1B 3718   0.805   5.225   4.685
  269POPC   C2B 3719   0.605   5.227   5.099
  269POPC   C3B 3720   0.760   5.359   5.485
  269POPC   C4B 3721   0.714   5.270   5.893
  270POPC   NC3 3722   6.313   0.990   4.104
  270POPC   PO4 3723   6.988   1.084   3.957
  270POPC   GL1 3724   6.777   0.904   4.299
  270POPC   GL2 3725   6.672   1.249   4.384
  270POPC   C1A 3726   6.625   0.699   4.704
  270POPC   D2A 3727   6.868   0.861   5.064
  270POPC   C3A 3728   6.714   0.832   5.513
  270POPC   C4A 3729   6.418   0.929   5.854
  270POPC   C1B 3730   6.434   1.165   4.760
  270POPC   C2B 3731   6.452   1.117   5.182
  270POPC   C3B 3732   6.360   1.312   5.530
  270POPC   C4B 3733   6.651   1.437   5.782
  271POPC   NC3 3734  10.232   7.332   3.671
  271POPC   PO4 3735  10.567   7.583   4.148
  271POPC   GL1 3736  10.603   7.387   4.507
  271POPC   GL2 3737  10.498   7.008   4.476
  271POPC   C1A 3738  10.510   7.312   4.896
  271POPC   D2A 3739  10.557   7.581   5.211
  271POPC   C3A 3740  10.398   7.520   5.579
  271POPC   C4A 3741  10.646   7.812   5.788
  271POPC   C1B 3742  10.186   6.912   4.763
  271POPC   C2B 3743  10.154   7.046   5.166
  271POPC   C3B 3744  10.382   6.922   5.482
  271POPC   C4B 3745  10.251   7.093   5.814
  272POPC   NC3 3746   9.534   7.979   3.978
  272POPC   PO4 3747  10.084   7.795   3.648
  272POPC   GL1 3748  10.037   7.828   4.117
  272POPC   GL2 3749   9.951   8.183   4.226
  272POPC   C1A 3750   9.923   7.834   4.598
  272POPC   D2A 3751   9.650   7.889   4.966
  272POPC   C3A 3752   9.719   8.070   5.396
  272POPC   C4A 3753   9.685   7.874   5.808
  272POPC   C1B 3754   9.607   8.267   4.567
  272POPC   C2B 3755   9.316   8.349   4.936
  272POPC   C3B 3756   9.258   8.284   5.346
  272POPC   C4B 3757   9.344   8.243   5.765
  273POPC   NC3 3758   0.973   9.362   3.829
  273POPC   PO4 3759   1.612   9.343   4.008
  273POPC   GL1 3760   1.278   9.504   4.251
  273POPC   GL2 3761   1.311   9.870   4.294
  273POPC   C1A 3762   1.092   9.510   4.653
  273POPC   D2A 3763   0.976   9.398   5.062
  273POPC   C3A 3764   1.141   9.509   5.436
  273POPC   C4A 3765   0.895   9.566   5.792
  273POPC   C1B 3766   1.452   9.880   4.703
  273POPC   C2B 3767   1.205   9.881   5.053
  273POPC   C3B 3768   1.325  10.005   5.444
  273POPC   C4B 3769   1.192   9.951   5.857
  274POPC   NC3 3770   0.547   6.097   3.799
  274POPC   PO4 3771   0.670   6.759   3.999
  274POPC   GL1 3772   0.420   6.434   4.190
  274POPC   GL2 3773   0.673   6.202   4.305
  274POPC   C1A 3774   0.173   6.380   4.587
  274POPC   D2A 3775   0.230   6.575   5.011
  274POPC   C3A 3776   0.051   6.374   5.395
  274POPC   C4A 3777   0.105   6.604   5.758
  274POPC   C1B 3778   0.694   6.474   4.669
  274POPC   C2B 3779   0.728   6.383   5.108
  274POPC   C3B 3780   0.550   6.506   5.501
  274POPC   C4B 3781   0.526   6.897   5.734
  275POPC   NC3 3782   4.740   9.911   4.010
  275POPC   PO4 3783   4.742  10.505   3.796
  275POPC   GL1 3784   4.995  10.342   4.181
  275POPC   GL2 3785   5.392  10.294   4.179
  275POPC   C1A 3786   4.834  10.372   4.599
  275POPC   D2A 3787   4.643  10.155   4.949
  275POPC   C3A 3788   4.716  10.386   5.305
  275POPC   C4A 3789   4.791  10.657   5.652
  275POPC   C1B 3790   5.357  10.262   4.614
  275POPC   C2B 3791   5.156  10.316   5.008
  275POPC   C3B 3792   5.211  10.389   5.428
  275POPC   C4B 3793   5.377  10.133   5.709
  276POPC   NC3 3794   4.616   2.857   3.929
  276POPC   PO4 3795   4.043   3.058   3.936
  276POPC   GL1 3796   4.255   2.843   4.295
  276POPC   GL2 3797   4.090   2.569   4.369
  276POPC   C1A 3798   4.427   2.650   4.722
  276POPC   D2A 3799   4.253   2.547   5.141
  276POPC   C3A 3800   4.473   2.647   5.546
  276POPC   C4A 3801   4.822   2.677   5.841
  276POPC   C1B 3802   3.767   2.639   4.650
  276POPC   C2B 3803   3.670   2.510   5.086
  276POPC   C3B 3804   3.890   2.411   5.462
  276POPC   C4B 3805   4.056   2.586   5.832
  277POPC   NC3 3806   8.701   4.660   3.854
  277POPC   PO4 3807   8.719   4.042   3.863
  277POPC   GL1 3808   8.946   3.927   4.254
  277POPC   GL2 3809   9.086   4.216   4.436
  277POPC   C1A 3810   8.870   3.827   4.707
  277POPC   D2A 3811   8.702   3.710   5.130
  277POPC   C3A 3812   8.716   3.886   5.553
  277POPC   C4A 3813   8.508   4.155   5.843
  277POPC   C1B 3814   9.030   4.334   4.876
  277POPC   C2B 3815   8.992   4.234   5.320
  277POPC   C3B 3816   9.051   4.307   5.769
  277POPC   C4B 3817   8.811   4.437   6.134
  278POPC   NC3 3818   1.046   2.877   4.077
  278POPC   PO4 3819   1.369   3.416   3.863
  278POPC   GL1 3820   1.334   3.585   4.265
  278POPC   GL2 3821   1.085   3.348   4.322
  278POPC   C1A 3822   1.451   3.523   4.709
  278POPC   D2A 3823   1.574   3.488   5.172
  278POPC   C3A 3824   1.534   3.726   5.565
  278POPC   C4A 3825   1.629   3.509   5.958
  278POPC   C1B 3826   0.971   3.293   4.745
  278POPC   C2B 3827   1.082   3.557   5.083
  278POPC   C3B 3828   0.979   3.730   5.473
  278POPC   C4B 3829   1.210   3.342   5.529
  279POPC   NC3 3830   3.021   1.262   3.713
  279POPC   PO4 3831   2.634   1.467   4.210
  279POPC   GL1 3832   2.744   1.121   4.478
  279POPC   GL2 3833   2.489   0.840   4.418
  279POPC   C1A 3834   2.948   1.155   4.894
  279POPC   D2A 3835   3.226   1.336   5.190
  279POPC   C3A 3836   3.071   1.301   5.627
  279POPC   C4A 3837   2.991   1.047   6.018
  279POPC   C1B 3838   2.283   1.100   4.703
  279POPC   C2B 3839   2.454   1.274   5.006
  279POPC   C3B 3840   2.648   1.351   5.359
  279POPC   C4B 3841   2.579   1.207   5.767
  280POPC   NC3 3842   3.806  11.258   4.010
  280POPC   PO4 3843   3.090  11.354   3.894
  280POPC   GL1 3844   3.327  11.399   4.262
  280POPC   GL2 3845   3.469  11.089   4.357
  280POPC   C1A 3846   3.192  11.363   4.719
  280POPC   D2A 3847   3.175   0.060   5.131
  280POPC   C3A 3848   3.147  11.363   5.526
  280POPC   C4A 3849   3.382  11.246   5.886
  280POPC   C1B 3850   3.411  10.889   4.747
  280POPC   C2B 3851   3.468  11.117   5.122
  280POPC   C3B 3852   3.634  11.052   5.502
  280POPC   C4B 3853   3.561  10.771   5.841
  281POPC   NC3 3854   5.116   8.242   3.873
  281POPC   PO4 3855   4.873   8.790   3.924
  281POPC   GL1 3856   4.859   8.525   4.300
  281POPC   GL2 3857   5.165   8.318   4.377
  281POPC   C1A 3858   4.883   8.476   4.780
  281POPC   D2A 3859   4.975   8.175   5.126
  281POPC   C3A 3860   4.909   8.322   5.553
  281POPC   C4A 3861   4.652   8.374   5.953
  281POPC   C1B 3862   5.241   7.997   4.714
  281POPC   C2B 3863   5.224   7.716   5.083
  281POPC   C3B 3864   5.212   7.848   5.511
  281POPC   C4B 3865   5.423   8.202   5.724
  282POPC   NC3 3866   6.875   0.697   3.726
  282POPC   PO4 3867   6.316   0.510   3.979
  282POPC   GL1 3868   6.643   0.382   4.271
  282POPC   GL2 3869   6.342   0.250   4.443
  282POPC   C1A 3870   6.853   0.189   4.642
  282POPC   D2A 3871   7.004   0.358   5.036
  282POPC   C3A 3872   6.887   0.124   5.396
  282POPC   C4A 3873   6.727  11.352   5.729
  282POPC   C1B 3874   6.391   0.249   4.864
  282POPC   C2B 3875   6.516   0.477   5.185
  282POPC   C3B 3876   6.322   0.500   5.545
  282POPC   C4B 3877   6.590   0.325   5.770
  283POPC   NC3 3878   7.945  10.563   3.879
  283POPC   PO4 3879   8.456  10.053   3.898
  283POPC   GL1 3880   8.397  10.309   4.266
  283POPC   GL2 3881   8.056  10.349   4.333
  283POPC   C1A 3882   8.430  10.284   4.734
  283POPC   D2A 3883   8.404   9.958   5.090
  283POPC   C3A 3884   8.133  10.063   5.474
  283POPC   C4A 3885   8.096  10.207   5.936
  283POPC   C1B 3886   7.975  10.555   4.713
  283POPC   C2B 3887   8.066  10.686   5.104
  283POPC   C3B 3888   8.173  10.586   5.518
  283POPC   C4B 3889   7.971  10.747   5.858
  284POPC   NC3 3890   2.524   5.924   3.814
  284POPC   PO4 3891   3.201   5.958   3.698
  284POPC   GL1 3892   2.978   5.868   4.154
  284POPC   GL2 3893   2.645   5.775   4.329
  284POPC   C1A 3894   2.891   6.115   4.604
  284POPC   D2A 3895   2.749   6.141   5.080
  284POPC   C3A 3896   2.895   6.023   5.507
  284POPC   C4A 3897   2.745   6.081   5.945
  284POPC   C1B 3898   2.614   5.719   4.816
  284POPC   C2B 3899   2.617   5.641   5.288
  284POPC   C3B 3900   2.660   5.601   5.740
  284POPC   C4B 3901   2.458   5.705   6.120
  285POPC   NC3 3902   1.861   5.926   3.820
  285POPC   PO4 3903   2.342   5.542   3.997
  285POPC   GL1 3904   2.023   5.586   4.277
  285POPC   GL2 3905   1.943   5.894   4.346
  285POPC   C1A 3906   1.782   5.413   4.602
  285POPC   D2A 3907   1.630   5.470   5.025
  285POPC   C3A 3908   1.788   5.739   5.362
  285POPC   C4A 3909   1.651   5.676   5.799
  285POPC   C1B 3910   2.048   5.846   4.776
  285POPC   C2B 3911   2.239   6.020   5.148
  285POPC   C3B 3912   2.359   5.987   5.570
  285POPC   C4B 3913   2.071   5.932   5.890
  286POPC   NC3 3914   7.261   9.958   4.239
  286POPC   PO4 3915   7.265  10.540   3.890
  286POPC   GL1 3916   7.144  10.566   4.359
  286POPC   GL2 3917   7.142  10.258   4.605
  286POPC   C1A 3918   7.067  10.686   4.821
  286POPC   D2A 3919   7.191  10.391   5.194
  286POPC   C3A 3920   7.232  10.555   5.629
  286POPC   C4A 3921   7.163  10.691   6.092
  286POPC   C1B 3922   7.519  10.340   4.791
  286POPC   C2B 3923   7.729  10.293   5.181
  286POPC   C3B 3924   7.704  10.314   5.611
  286POPC   C4B 3925   7.592  10.445   5.987
  287POPC   NC3 3926   2.040   5.156   4.012
  287POPC   PO4 3927   2.299   4.627   3.797
  287POPC   GL1 3928   2.154   4.669   4.289
  287POPC   GL2 3929   2.143   4.981   4.470
  287POPC   C1A 3930   1.820   4.665   4.711
  287POPC   D2A 3931   1.595   4.941   5.049
  287POPC   C3A 3932   1.796   4.821   5.447
  287POPC   C4A 3933   1.957   4.618   5.829
  287POPC   C1B 3934   2.271   5.351   4.708
  287POPC   C2B 3935   2.163   5.498   5.127
  287POPC   C3B 3936   2.175   5.488   5.592
  287POPC   C4B 3937   2.133   5.088   5.786
  288POPC   NC3 3938   0.321   4.409   3.859
  288POPC   PO4 3939   0.521   3.796   3.974
  288POPC   GL1 3940   0.446   4.097   4.316
  288POPC   GL2 3941   0.691   4.338   4.340
  288POPC   C1A 3942   0.600   4.063   4.769
  288POPC   D2A 3943   0.377   4.011   5.154
  288POPC   C3A 3944   0.526   4.092   5.578
  288POPC   C4A 3945   0.286   4.469   5.690
  288POPC   C1B 3946   0.736   4.557   4.718
  288POPC   C2B 3947   0.862   4.378   5.123
  288POPC   C3B 3948   0.830   4.506   5.559
  288POPC   C4B 3949   0.681   4.459   6.008
  289POPC   NC3 3950   1.908   8.474   3.816
  289POPC   PO4 3951   2.309   8.920   3.713
  289POPC   GL1 3952   2.048   9.020   4.135
  289POPC   GL2 3953   1.961   8.706   4.337
  289POPC   C1A 3954   2.081   9.114   4.630
  289POPC   D2A 3955   1.886   9.140   5.073
  289POPC   C3A 3956   2.110   9.199   5.488
  289POPC   C4A 3957   2.208   8.877   5.763
  289POPC   C1B 3958   1.709   8.781   4.744
  289POPC   C2B 3959   1.596   8.565   5.098
  289POPC   C3B 3960   1.744   8.636   5.505
  289POPC   C4B 3961   1.659   9.032   5.685
  290POPC   NC3 3962   0.622   1.124   3.673
  290POPC   PO4 3963   0.199   1.517   4.001
  290POPC   GL1 3964   0.335   1.460   4.397
  290POPC   GL2 3965   0.547   1.190   4.256
  290POPC   C1A 3966   0.126   1.462   4.822
  290POPC   D2A 3967  11.426   1.388   5.223
  290POPC   C3A 3968   0.145   1.325   5.603
  290POPC   C4A 3969   0.453   1.536   5.790
  290POPC   C1B 3970   0.334   1.021   4.654
  290POPC   C2B 3971   0.321   1.028   5.129
  290POPC   C3B 3972   0.621   1.203   5.429
  290POPC   C4B 3973   0.755   1.081   5.826
  291POPC   NC3 3974   8.284   0.656   3.943
  291POPC   PO4 3975   8.220   0.070   3.887
  291POPC   GL1 3976   8.305   0.288   4.296
  291POPC   GL2 3977   7.976   0.452   4.351
  291POPC   C1A 3978   8.347   0.584   4.676
  291POPC   D2A 3979   8.340   0.423   5.126
  291POPC   C3A 3980   8.365   0.688   5.535
  291POPC   C4A 3981   8.241   0.662   5.995
  291POPC   C1B 3982   7.981   0.185   4.781
  291POPC   C2B 3983   7.960   0.112   5.275
  291POPC   C3B 3984   7.972   0.307   5.719
  291POPC   C4B 3985   7.838   0.194   6.194
  292POPC   NC3 3986   8.880   1.941   3.785
  292POPC   PO4 3987   9.277   1.582   4.158
  292POPC   GL1 3988   8.765   1.711   4.317
  292POPC   GL2 3989   8.655   2.058   4.211
  292POPC   C1A 3990   8.487   1.640   4.701
  292POPC   D2A 3991   8.619   1.830   5.119
  292POPC   C3A 3992   8.583   1.685   5.543
  292POPC   C4A 3993   8.579   1.740   5.985
  292POPC   C1B 3994   8.653   2.116   4.659
  292POPC   C2B 3995   8.585   2.324   5.053
  292POPC   C3B 3996   8.677   2.218   5.499
  292POPC   C4B 3997   9.103   2.069   5.630
  293POPC   NC3 3998   9.713  10.351   3.827
  293POPC   PO4 3999   9.189  10.096   4.065
  293POPC   GL1 4000   9.594  10.124   4.270
  293POPC   GL2 4001   9.693  10.452   4.318
  293POPC   C1A 4002   9.814  10.128   4.680
  293POPC   D2A 4003   9.517   9.981   4.999
  293POPC   C3A 4004   9.462   9.963   5.434
  293POPC   C4A 4005   9.796   9.928   5.697
  293POPC   C1B 4006   9.865  10.676   4.664
  293POPC   C2B 4007   9.715  10.480   5.036
  293POPC   C3B 4008   9.661  10.437   5.451
  293POPC   C4B 4009   9.852  10.633   5.785
  294POPC   NC3 4010   2.567   1.062   3.974
  294POPC   PO4 4011   1.921   0.831   3.912
  294POPC   GL1 4012   1.967   1.047   4.314
  294POPC   GL2 4013   2.026   1.422   4.312
  294POPC   C1A 4014   1.813   0.916   4.730
  294POPC   D2A 4015   1.877   1.070   5.124
  294POPC   C3A 4016   2.215   1.021   5.388
  294POPC   C4A 4017   2.118   1.011   5.800
  294POPC   C1B 4018   1.878   1.460   4.743
  294POPC   C2B 4019   2.065   1.553   5.158
  294POPC   C3B 4020   2.131   1.491   5.591
  294POPC   C4B 4021   1.789   1.381   5.832
  295POPC   NC3 4022   3.488   2.020   3.716
  295POPC   PO4 4023   3.888   2.491   3.924
  295POPC   GL1 4024   3.788   2.172   4.242
  295POPC   GL2 4025   3.432   2.035   4.229
  295POPC   C1A 4026   3.642   2.148   4.689
  295POPC   D2A 4027   3.535   1.836   5.014
  295POPC   C3A 4028   3.565   2.029   5.384
  295POPC   C4A 4029   3.771   2.020   5.766
  295POPC   C1B 4030   3.221   1.864   4.611
  295POPC   C2B 4031   2.998   1.802   4.992
  295POPC   C3B 4032   3.114   1.777   5.410
  295POPC   C4B 4033   3.221   2.006   5.763
  296POPC   NC3 4034   1.162   5.771   3.867
  296POPC   PO4 4035   1.709   5.433   3.824
  296POPC   GL1 4036   1.498   5.676   4.240
  296POPC   GL2 4037   1.144   5.833   4.366
  296POPC   C1A 4038   1.531   5.862   4.695
  296POPC   D2A 4039   1.290   5.869   5.117
  296POPC   C3A 4040   1.428   6.038   5.529
  296POPC   C4A 4041   1.324   6.059   5.992
  296POPC   C1B 4042   0.933   5.759   4.755
  296POPC   C2B 4043   0.729   5.744   5.132
  296POPC   C3B 4044   0.939   5.823   5.529
  296POPC   C4B 4045   1.115   5.605   5.899
  297POPC   NC3 4046   0.265   9.733   4.168
  297POPC   PO4 4047   0.817   9.859   3.747
  297POPC   GL1 4048   0.807   9.758   4.212
  297POPC   GL2 4049   0.714   9.408   4.295
  297POPC   C1A 4050   0.831   9.955   4.657
  297POPC   D2A 4051   0.614   9.939   5.060
  297POPC   C3A 4052   0.820   9.937   5.441
  297POPC   C4A 4053   0.685  10.056   5.859
  297POPC   C1B 4054   0.554   9.484   4.741
  297POPC   C2B 4055   0.270   9.565   5.105
  297POPC   C3B 4056   0.382   9.678   5.543
  297POPC   C4B 4057   0.432   9.581   5.979
  298POPC   NC3 4058   0.158   2.775   3.920
  298POPC   PO4 4059   0.704   2.324   4.002
  298POPC   GL1 4060   0.638   2.678   4.306
  298POPC   GL2 4061   0.325   2.849   4.379
  298POPC   C1A 4062   0.586   2.690   4.771
  298POPC   D2A 4063   0.526   2.933   5.135
  298POPC   C3A 4064   0.572   2.721   5.519
  298POPC   C4A 4065   0.547   2.768   5.978
  298POPC   C1B 4066   0.080   2.852   4.743
  298POPC   C2B 4067   0.013   2.894   5.169
  298POPC   C3B 4068   0.074   2.801   5.575
  298POPC   C4B 4069   0.142   2.423   5.758
  299POPC   NC3 4070   7.334   2.385   3.780
  299POPC   PO4 4071   7.690   2.795   4.068
  299POPC   GL1 4072   7.462   2.754   4.412
  299POPC   GL2 4073   7.334   2.472   4.296
  299POPC   C1A 4074   7.446   2.754   4.853
  299POPC   D2A 4075   7.639   2.620   5.225
  299POPC   C3A 4076   7.478   2.715   5.625
  299POPC   C4A 4077   7.250   3.096   5.757
  299POPC   C1B 4078   7.086   2.424   4.663
  299POPC   C2B 4079   7.099   2.479   5.127
  299POPC   C3B 4080   6.984   2.730   5.487
  299POPC   C4B 4081   7.026   2.663   5.928
  300POPC   NC3 4082   1.373  10.268   3.968
  300POPC   PO4 4083   0.815  10.556   3.663
  300POPC   GL1 4084   0.908  10.595   4.157
  300POPC   GL2 4085   0.944  10.262   4.264
  300POPC   C1A 4086   0.812  10.547   4.673
  300POPC   D2A 4087   0.960  10.322   5.090
  300POPC   C3A 4088   1.006  10.408   5.571
  300POPC   C4A 4089   1.089  10.575   6.036
  300POPC   C1B 4090   1.273  10.361   4.605
  300POPC   C2B 4091   1.492  10.341   4.997
  300POPC   C3B 4092   1.505  10.530   5.402
  300POPC   C4B 4093   1.473  10.369   5.808
  301POPC   NC3 4094   8.888   1.409   3.948
  301POPC   PO4 4095   8.737   0.776   3.916
  301POPC   GL1 4096   8.736   0.762   4.355
  301POPC   GL2 4097   8.851   1.083   4.329
  301POPC   C1A 4098   8.901   0.858   4.780
  301POPC   D2A 4099   9.152   1.013   5.088
  301POPC   C3A 4100   8.955   1.080   5.508
  301POPC   C4A 4101   9.102   1.078   5.968
  301POPC   C1B 4102   8.913   1.348   4.652
  301POPC   C2B 4103   8.807   1.372   5.052
  301POPC   C3B 4104   9.065   1.567   5.356
  301POPC   C4B 4105   9.070   1.572   5.804
  302POPC   NC3 4106   0.075   1.031   4.032
  302POPC   PO4 4107  10.935   0.872   4.001
  302POPC   GL1 4108  11.167   1.096   4.355
  302POPC   GL2 4109  11.304   1.448   4.387
  302POPC   C1A 4110  11.324   1.035   4.775
  302POPC   D2A 4111  11.120   0.944   5.168
  302POPC   C3A 4112  11.394   0.907   5.481
  302POPC   C4A 4113  11.429   0.841   5.916
  302POPC   C1B 4114  11.101   1.529   4.826
  302POPC   C2B 4115  10.929   1.405   5.260
  302POPC   C3B 4116  11.005   1.196   5.659
  302POPC   C4B 4117  10.891   1.448   6.034
  303POPC   NC3 4118   2.203   7.948   4.057
  303POPC   PO4 4119   1.558   7.797   3.872
  303POPC   GL1 4120   1.765   7.823   4.283
  303POPC   GL2 4121   1.870   8.184   4.336
  303POPC   C1A 4122   1.936   7.820   4.691
  303POPC   D2A 4123   1.754   7.957   5.067
  303POPC   C3A 4124   1.885   7.997   5.447
  303POPC   C4A 4125   1.718   7.661   5.690
  303POPC   C1B 4126   1.907   8.325   4.743
  303POPC   C2B 4127   2.088   8.403   5.155
  303POPC   C3B 4128   2.187   8.385   5.595
  303POPC   C4B 4129   2.043   8.094   5.915
  304POPC   NC3 4130   0.575   5.530   3.488
  304POPC   PO4 4131   0.738   5.763   4.057
  304POPC   GL1 4132   0.603   5.648   4.402
  304POPC   GL2 4133   0.292   5.821   4.327
  304POPC   C1A 4134   0.345   5.473   4.723
  304POPC   D2A 4135   0.186   5.592   5.112
  304POPC   C3A 4136   0.244   5.414   5.513
  304POPC   C4A 4137   0.447   5.669   5.830
  304POPC   C1B 4138   0.473   5.994   4.721
  304POPC   C2B 4139   0.321   6.081   5.063
  304POPC   C3B 4140   0.412   5.993   5.445
  304POPC   C4B 4141   0.266   6.129   5.811
  305POPC   NC3 4142  10.391   6.422   3.836
  305POPC   PO4 4143  10.064   6.904   4.102
  305POPC   GL1 4144  10.297   6.562   4.322
  305POPC   GL2 4145  10.669   6.525   4.389
  305POPC   C1A 4146  10.322   6.384   4.734
  305POPC   D2A 4147  10.166   6.535   5.123
  305POPC   C3A 4148  10.258   6.394   5.538
  305POPC   C4A 4149  10.327   6.604   5.908
  305POPC   C1B 4150  10.752   6.634   4.815
  305POPC   C2B 4151  10.667   6.553   5.262
  305POPC   C3B 4152  10.776   6.647   5.698
  305POPC   C4B 4153  10.750   6.565   6.169
  306POPC   NC3 4154   9.212  10.946   3.948
  306POPC   PO4 4155   9.947  10.742   3.973
  306POPC   GL1 4156   9.596  10.940   4.290
  306POPC   GL2 4157   9.503  11.303   4.233
  306POPC   C1A 4158   9.413  10.814   4.757
  306POPC   D2A 4159   9.606  10.972   5.160
  306POPC   C3A 4160   9.464  10.899   5.605
  306POPC   C4A 4161   9.325  10.706   6.036
  306POPC   C1B 4162   9.610  11.282   4.687
  306POPC   C2B 4163   9.484  11.477   5.080
  306POPC   C3B 4164   9.635  11.372   5.483
  306POPC   C4B 4165   9.970  11.111   5.640
  307POPC   NC3 4166   7.389   9.059   3.819
  307POPC   PO4 4167   7.628   8.464   3.979
  307POPC   GL1 4168   7.544   8.838   4.271
  307POPC   GL2 4169   7.206   8.937   4.308
  307POPC   C1A 4170   7.536   9.054   4.731
  307POPC   D2A 4171   7.478   8.911   5.186
  307POPC   C3A 4172   7.765   8.920   5.525
  307POPC   C4A 4173   7.758   8.890   5.961
  307POPC   C1B 4174   7.035   8.970   4.748
  307POPC   C2B 4175   7.050   9.175   5.161
  307POPC   C3B 4176   7.022   8.857   5.440
  307POPC   C4B 4177   7.302   8.844   5.739
  308POPC   NC3 4178   9.641   4.987   3.955
  308POPC   PO4 4179   9.113   4.575   4.050
  308POPC   GL1 4180   9.385   4.649   4.411
  308POPC   GL2 4181   9.576   4.974   4.447
  308POPC   C1A 4182   9.448   4.703   4.863
  308POPC   D2A 4183   9.434   4.961   5.238
  308POPC   C3A 4184   9.443   4.751   5.636
  308POPC   C4A 4185   9.143   4.833   5.972
  308POPC   C1B 4186   9.885   4.974   4.770
  308POPC   C2B 4187   9.888   5.196   5.158
  308POPC   C3B 4188   9.747   5.183   5.610
  308POPC   C4B 4189   9.935   5.280   6.027
  309POPC   NC3 4190  11.178   9.500   3.837
  309POPC   PO4 4191   0.190   9.283   4.123
  309POPC   GL1 4192  11.325   9.567   4.329
  309POPC   GL2 4193  10.937   9.553   4.270
  309POPC   C1A 4194  11.373   9.709   4.751
  309POPC   D2A 4195  11.216   9.519   5.095
  309POPC   C3A 4196  11.384   9.595   5.489
  309POPC   C4A 4197   0.019   9.269   5.797
  309POPC   C1B 4198  10.843   9.777   4.654
  309POPC   C2B 4199  10.633   9.732   5.033
  309POPC   C3B 4200  10.817   9.680   5.419
  309POPC   C4B 4201  11.011   9.656   5.828
  310POPC   NC3 4202   9.699   3.310   3.703
  310POPC   PO4 4203   9.698   3.879   3.990
  310POPC   GL1 4204   9.718   3.645   4.361
  310POPC   GL2 4205   9.687   3.266   4.337
  310POPC   C1A 4206   9.723   3.765   4.806
  310POPC   D2A 4207   9.887   4.002   5.150
  310POPC   C3A 4208   9.888   3.731   5.497
  310POPC   C4A 4209   9.760   3.683   5.920
  310POPC   C1B 4210   9.703   3.237   4.790
  310POPC   C2B 4211   9.554   3.437   5.182
  310POPC   C3B 4212   9.520   3.354   5.631
  310POPC   C4B 4213   9.728   3.151   5.995
  311POPC   NC3 4214   3.187   0.309   3.795
  311POPC   PO4 4215   3.790   0.228   3.927
  311POPC   GL1 4216   3.493   0.400   4.290
  311POPC   GL2 4217   3.716   0.672   4.427
  311POPC   C1A 4218   3.310   0.419   4.749
  311POPC   D2A 4219   3.086   0.555   5.160
  311POPC   C3A 4220   3.263   0.386   5.541
  311POPC   C4A 4221   3.632   0.076   5.571
  311POPC   C1B 4222   3.833   0.489   4.826
  311POPC   C2B 4223   3.655   0.461   5.228
  311POPC   C3B 4224   3.730   0.601   5.679
  311POPC   C4B 4225   3.786   0.713   6.138
  312POPC   NC3 4226   4.230  10.679   3.809
  312POPC   PO4 4227   4.043  10.082   3.914
  312POPC   GL1 4228   4.108  10.331   4.244
  312POPC   GL2 4229   4.462  10.341   4.207
  312POPC   C1A 4230   4.195  10.203   4.671
  312POPC   D2A 4231   4.011  10.222   5.083
  312POPC   C3A 4232   4.267  10.175   5.442
  312POPC   C4A 4233   4.213  10.049   5.896
  312POPC   C1B 4234   4.407  10.663   4.538
  312POPC   C2B 4235   4.372  10.599   4.983
  312POPC   C3B 4236   4.339  10.718   5.411
  312POPC   C4B 4237   4.325  10.523   5.799
  313POPC   NC3 4238  11.473   1.873   3.810
  313POPC   PO4 4239  10.848   1.989   3.773
  313POPC   GL1 4240  10.956   2.142   4.209
  313POPC   GL2 4241  11.269   2.063   4.231
  313POPC   C1A 4242  10.883   2.070   4.678
  313POPC   D2A 4243  10.793   1.867   5.081
  313POPC   C3A 4244  10.758   2.011   5.531
  313POPC   C4A 4245  11.114   2.139   5.797
  313POPC   C1B 4246  11.411   1.926   4.605
  313POPC   C2B 4247  11.398   2.009   5.024
  313POPC   C3B 4248  11.227   1.890   5.361
  313POPC   C4B 4249  11.227   1.647   5.689
  314POPC   NC3 4250  11.126   5.031   3.917
  314POPC   PO4 4251   0.107   5.503   3.892
  314POPC   GL1 4252  11.467   5.187   4.263
  314POPC   GL2 4253  11.087   5.224   4.390
  314POPC   C1A 4254  11.412   4.900   4.649
  314POPC   D2A 4255   0.086   5.066   5.079
  314POPC   C3A 4256  11.472   4.876   5.480
  314POPC   C4A 4257  11.450   4.987   5.921
  314POPC   C1B 4258  11.321   5.386   4.766
  314POPC   C2B 4259  11.208   5.453   5.210
  314POPC   C3B 4260  11.195   5.348   5.661
  314POPC   C4B 4261  10.924   5.098   5.971
  315POPC   NC3 4262  11.099  10.448   3.956
  315POPC   PO4 4263   0.090  10.869   3.712
  315POPC   GL1 4264  11.447  10.779   4.209
  315POPC   GL2 4265  11.403  10.450   4.367
  315POPC   C1A 4266  11.339  10.830   4.716
  315POPC   D2A 4267  11.222  10.527   5.081
  315POPC   C3A 4268  11.451  10.514   5.481
  315POPC   C4A 4269  11.247  10.509   5.890
  315POPC   C1B 4270  11.213  10.189   4.690
  315POPC   C2B 4271  11.075  10.011   5.099
  315POPC   C3B 4272  11.081  10.113   5.525
  315POPC   C4B 4273  11.443  10.040   5.745
  316POPC   NC3 4274   6.312  10.348   3.915
  316POPC   PO4 4275   6.872   9.953   3.993
  316POPC   GL1 4276   6.704  10.241   4.347
  316POPC   GL2 4277   6.447  10.520   4.369
  316POPC   C1A 4278   6.692  10.337   4.813
  316POPC   D2A 4279   6.696  10.562   5.215
  316POPC   C3A 4280   6.757  10.337   5.598
  316POPC   C4A 4281   6.731  10.453   6.027
  316POPC   C1B 4282   6.213  10.485   4.747
  316POPC   C2B 4283   6.236  10.282   5.129
  316POPC   C3B 4284   6.240  10.449   5.548
  316POPC   C4B 4285   6.338  10.153   5.857
  317POPC   NC3 4286   5.737   9.923   3.933
  317POPC   PO4 4287   5.576   9.255   4.101
  317POPC   GL1 4288   5.796   9.587   4.310
  317POPC   GL2 4289   5.629   9.873   4.412
  317POPC   C1A 4290   5.985   9.658   4.707
  317POPC   D2A 4291   5.888   9.762   5.129
  317POPC   C3A 4292   5.880   9.377   5.386
  317POPC   C4A 4293   5.659   9.228   5.783
  317POPC   C1B 4294   5.460   9.789   4.802
  317POPC   C2B 4295   5.397   9.894   5.214
  317POPC   C3B 4296   5.501   9.671   5.565
  317POPC   C4B 4297   5.889   9.700   5.770
  318POPC   NC3 4298   2.645   3.385   3.915
  318POPC   PO4 4299   2.469   3.994   3.784
  318POPC   GL1 4300   2.620   3.756   4.271
  318POPC   GL2 4301   2.782   3.457   4.384
  318POPC   C1A 4302   2.415   3.512   4.704
  318POPC   D2A 4303   2.315   3.614   5.129
  318POPC   C3A 4304   2.582   3.559   5.452
  318POPC   C4A 4305   2.623   3.604   5.881
  318POPC   C1B 4306   2.930   3.572   4.785
  318POPC   C2B 4307   2.976   3.311   5.158
  318POPC   C3B 4308   2.954   3.231   5.602
  318POPC   C4B 4309   3.131   3.577   5.869
  319POPC   NC3 4310  11.013   2.456   3.783
  319POPC   PO4 4311  11.321   3.111   3.902
  319POPC   GL1 4312  11.322   2.944   4.292
  319POPC   GL2 4313  11.233   2.623   4.207
  319POPC   C1A 4314  11.069   2.922   4.665
  319POPC   D2A 4315  10.729   3.059   4.930
  319POPC   C3A 4316  10.906   2.882   5.281
  319POPC   C4A 4317  10.994   3.044   5.663
  319POPC   C1B 4318  11.225   2.436   4.577
  319POPC   C2B 4319  11.220   2.514   5.001
  319POPC   C3B 4320  11.236   2.449   5.421
  319POPC   C4B 4321  11.191   2.635   5.854
  320POPC   NC3 4322   9.335   4.170   3.996
  320POPC   PO4 4323   9.932   4.564   3.903
  320POPC   GL1 4324   9.875   4.556   4.337
  320POPC   GL2 4325   9.734   4.230   4.361
  320POPC   C1A 4326   9.929   4.458   4.803
  320POPC   D2A 4327   9.851   4.662   5.203
  320POPC   C3A 4328   9.807   4.397   5.522
  320POPC   C4A 4329   9.644   4.345   5.889
  320POPC   C1B 4330   9.498   4.206   4.731
  320POPC   C2B 4331   9.467   4.288   5.172
  320POPC   C3B 4332   9.440   4.010   5.550
  320POPC   C4B 4333   9.348   3.959   6.016
  321POPC   NC3 4334   7.263  10.089   3.743
  321POPC   PO4 4335   7.101   9.405   3.881
  321POPC   GL1 4336   7.132   9.457   4.314
  321POPC   GL2 4337   7.482   9.410   4.307
  321POPC   C1A 4338   7.204   9.453   4.775
  321POPC   D2A 4339   7.560   9.398   5.128
  321POPC   C3A 4340   7.417   9.311   5.548
  321POPC   C4A 4341   6.975   9.320   5.666
  321POPC   C1B 4342   7.660   9.617   4.680
  321POPC   C2B 4343   7.409   9.874   4.976
  321POPC   C3B 4344   7.198   9.720   5.328
  321POPC   C4B 4345   7.214  10.054   5.623
  322POPC   NC3 4346  10.326  10.450   3.957
  322POPC   PO4 4347  10.891  10.683   4.297
  322POPC   GL1 4348  10.592  10.438   4.492
  322POPC   GL2 4349  10.228  10.441   4.438
  322POPC   C1A 4350  10.705  10.258   4.874
  322POPC   D2A 4351  10.581  10.180   5.286
  322POPC   C3A 4352  10.698  10.467   5.607
  322POPC   C4A 4353  10.838  10.882   5.715
  322POPC   C1B 4354  10.226  10.423   4.900
  322POPC   C2B 4355  10.167  10.503   5.326
  322POPC   C3B 4356  10.197  10.274   5.692
  322POPC   C4B 4357  10.373  10.301   6.113
  323POPC   NC3 4358   2.416  10.250   4.002
  323POPC   PO4 4359   1.775  10.046   3.911
  323POPC   GL1 4360   1.846  10.421   4.171
  323POPC   GL2 4361   1.715  10.198   4.401
  323POPC   C1A 4362   1.795  10.627   4.628
  323POPC   D2A 4363   1.957  10.605   5.053
  323POPC   C3A 4364   2.135  10.464   5.435
  323POPC   C4A 4365   1.912  10.624   5.759
  323POPC   C1B 4366   1.937  10.125   4.782
  323POPC   C2B 4367   1.769   9.921   5.143
  323POPC   C3B 4368   1.806  10.105   5.543
  323POPC   C4B 4369   2.146  10.171   5.861
  324POPC   NC3 4370   2.646   9.216   3.697
  324POPC   PO4 4371   2.564   9.886   3.744
  324POPC   GL1 4372   2.539   9.866   4.321
  324POPC   GL2 4373   2.842   9.631   4.510
  324POPC   C1A 4374   2.522   9.835   4.822
  324POPC   D2A 4375   2.744   9.549   5.122
  324POPC   C3A 4376   2.528   9.538   5.516
  324POPC   C4A 4377   2.522   9.827   5.835
  324POPC   C1B 4378   3.054   9.917   4.821
  324POPC   C2B 4379   3.068   9.933   5.289
  324POPC   C3B 4380   2.984   9.701   5.661
  324POPC   C4B 4381   2.982   9.842   6.092
  325POPC   NC3 4382  10.220   8.701   3.886
  325POPC   PO4 4383  10.734   9.252   3.831
  325POPC   GL1 4384  10.672   9.080   4.260
  325POPC   GL2 4385  10.365   8.910   4.313
  325POPC   C1A 4386  10.737   8.845   4.653
  325POPC   D2A 4387  10.833   8.582   4.990
  325POPC   C3A 4388  10.812   8.795   5.345
  325POPC   C4A 4389  10.605   8.820   5.688
  325POPC   C1B 4390  10.244   9.002   4.729
  325POPC   C2B 4391  10.344   8.879   5.144
  325POPC   C3B 4392  10.106   8.952   5.510
  325POPC   C4B 4393  10.239   9.079   5.924
  326POPC   NC3 4394  10.091   4.095   3.909
  326POPC   PO4 4395  10.620   4.489   3.853
  326POPC   GL1 4396  10.546   4.192   4.187
  326POPC   GL2 4397  10.258   4.228   4.362
  326POPC   C1A 4398  10.697   4.058   4.616
  326POPC   D2A 4399  10.916   4.198   4.994
  326POPC   C3A 4400  10.782   4.048   5.405
  326POPC   C4A 4401  10.737   4.303   5.742
  326POPC   C1B 4402  10.189   4.008   4.720
  326POPC   C2B 4403  10.369   4.211   5.079
  326POPC   C3B 4404  10.304   4.379   5.487
  326POPC   C4B 4405  10.111   4.096   5.804
  327POPC   NC3 4406   2.534   8.861   4.141
  327POPC   PO4 4407   3.058   9.017   3.745
  327POPC   GL1 4408   2.984   9.057   4.251
  327POPC   GL2 4409   2.918   8.751   4.457
  327POPC   C1A 4410   2.816   9.142   4.752
  327POPC   D2A 4411   2.495   9.088   5.147
  327POPC   C3A 4412   2.701   9.084   5.583
  327POPC   C4A 4413   3.149   9.177   5.610
  327POPC   C1B 4414   3.010   8.633   4.863
  327POPC   C2B 4415   2.874   8.729   5.262
  327POPC   C3B 4416   2.701   8.575   5.649
  327POPC   C4B 4417   3.034   8.683   5.935
  328POPC   NC3 4418   0.732   2.648   3.681
  328POPC   PO4 4419   1.407   2.584   3.946
  328POPC   GL1 4420   1.163   2.420   4.304
  328POPC   GL2 4421   1.507   2.377   4.460
  328POPC   C1A 4422   1.048   2.428   4.741
  328POPC   D2A 4423   1.029   2.821   4.980
  328POPC   C3A 4424   1.048   2.881   5.402
  328POPC   C4A 4425   1.003   2.659   5.778
  328POPC   C1B 4426   1.411   2.804   4.605
  328POPC   C2B 4427   1.484   3.050   4.957
  328POPC   C3B 4428   1.612   3.013   5.388
  328POPC   C4B 4429   1.401   2.972   5.786
  329POPC   NC3 4430   5.319   2.308   3.919
  329POPC   PO4 4431   5.954   2.050   3.830
  329POPC   GL1 4432   5.936   1.863   4.229
  329POPC   GL2 4433   5.584   1.924   4.203
  329POPC   C1A 4434   6.082   1.868   4.649
  329POPC   D2A 4435   6.240   2.073   5.011
  329POPC   C3A 4436   5.997   1.932   5.357
  329POPC   C4A 4437   6.001   2.194   5.706
  329POPC   C1B 4438   5.554   1.772   4.638
  329POPC   C2B 4439   5.524   1.941   5.074
  329POPC   C3B 4440   5.510   2.064   5.519
  329POPC   C4B 4441   5.696   1.768   5.767
  330POPC   NC3 4442  10.289   9.329   4.027
  330POPC   PO4 4443  10.034   9.924   3.756
  330POPC   GL1 4444  10.128   9.777   4.229
  330POPC   GL2 4445  10.484   9.796   4.243
  330POPC   C1A 4446  10.330   9.504   4.648
  330POPC   D2A 4447  10.234   9.395   5.100
  330POPC   C3A 4448  10.492   9.287   5.460
  330POPC   C4A 4449  10.525   9.482   5.854
  330POPC   C1B 4450  10.335   9.996   4.644
  330POPC   C2B 4451  10.152   9.936   5.062
  330POPC   C3B 4452  10.297   9.799   5.472
  330POPC   C4B 4453  10.605   9.982   5.764
  331POPC   NC3 4454   2.816  10.124   3.431
  331POPC   PO4 4455   3.064  10.256   4.013
  331POPC   GL1 4456   2.919  10.223   4.407
  331POPC   GL2 4457   2.746  10.527   4.350
  331POPC   C1A 4458   2.919  10.442   4.815
  331POPC   D2A 4459   2.949  10.432   5.238
  331POPC   C3A 4460   2.671  10.204   5.490
  331POPC   C4A 4461   2.885  10.257   5.846
  331POPC   C1B 4462   2.451  10.300   4.633
  331POPC   C2B 4463   2.443  10.353   5.050
  331POPC   C3B 4464   2.542  10.737   5.309
  331POPC   C4B 4465   2.551  10.634   5.752
  332POPC   NC3 4466   8.762   8.203   3.889
  332POPC   PO4 4467   9.221   7.824   3.692
  332POPC   GL1 4468   9.103   7.990   4.201
  332POPC   GL2 4469   9.059   8.347   4.322
  332POPC   C1A 4470   9.211   7.946   4.667
  332POPC   D2A 4471   9.178   7.812   5.140
  332POPC   C3A 4472   9.001   7.906   5.557
  332POPC   C4A 4473   9.181   7.698   5.904
  332POPC   C1B 4474   8.777   8.180   4.687
  332POPC   C2B 4475   8.726   8.072   5.154
  332POPC   C3B 4476   8.547   8.175   5.605
  332POPC   C4B 4477   8.461   8.329   6.056
  333POPC   NC3 4478   2.670   4.385   3.917
  333POPC   PO4 4479   3.157   4.519   4.285
  333POPC   GL1 4480   2.675   4.573   4.396
  333POPC   GL2 4481   2.463   4.270   4.372
  333POPC   C1A 4482   2.463   4.533   4.812
  333POPC   D2A 4483   2.707   4.412   5.189
  333POPC   C3A 4484   2.674   4.601   5.588
  333POPC   C4A 4485   2.728   4.749   5.982
  333POPC   C1B 4486   2.592   4.008   4.734
  333POPC   C2B 4487   2.753   3.906   5.140
  333POPC   C3B 4488   2.651   4.049   5.578
  333POPC   C4B 4489   2.871   4.208   5.952
  334POPC   NC3 4490   8.879   9.778   3.955
  334POPC   PO4 4491   8.442   9.392   4.229
  334POPC   GL1 4492   8.765   9.524   4.448
  334POPC   GL2 4493   8.796   9.874   4.433
  334POPC   C1A 4494   8.709   9.579   4.873
  334POPC   D2A 4495   8.743   9.495   5.300
  334POPC   C3A 4496   8.526   9.507   5.644
  334POPC   C4A 4497   8.873   9.468   5.913
  334POPC   C1B 4498   8.892  10.058   4.810
  334POPC   C2B 4499   9.043   9.871   5.168
  334POPC   C3B 4500   8.952   9.910   5.618
  334POPC   C4B 4501   9.121   9.889   6.032
  335POPC   NC3 4502   0.313   7.051   3.986
  335POPC   PO4 4503   0.023   7.620   3.837
  335POPC   GL1 4504   0.182   7.560   4.247
  335POPC   GL2 4505   0.522   7.454   4.265
  335POPC   C1A 4506   0.315   7.587   4.693
  335POPC   D2A 4507   0.321   7.328   5.049
  335POPC   C3A 4508   0.330   7.518   5.458
  335POPC   C4A 4509   0.171   7.368   5.857
  335POPC   C1B 4510   0.525   7.103   4.601
  335POPC   C2B 4511   0.662   6.920   5.003
  335POPC   C3B 4512   0.730   7.196   5.366
  335POPC   C4B 4513   0.697   7.356   5.808
  336POPC   NC3 4514   4.415   1.320   3.724
  336POPC   PO4 4515   4.601   1.493   4.216
  336POPC   GL1 4516   4.335   1.343   4.470
  336POPC   GL2 4517   4.354   0.993   4.401
  336POPC   C1A 4518   4.427   1.254   4.872
  336POPC   D2A 4519   4.187   1.313   5.216
  336POPC   C3A 4520   4.415   1.247   5.566
  336POPC   C4A 4521   4.444   1.401   5.983
  336POPC   C1B 4522   4.029   0.959   4.763
  336POPC   C2B 4523   3.880   0.918   5.215
  336POPC   C3B 4524   3.947   1.096   5.635
  336POPC   C4B 4525   3.899   1.212   6.059
  337POPC   NC3 4526   2.698   0.071   3.982
  337POPC   PO4 4527   2.909   0.693   3.839
  337POPC   GL1 4528   2.936   0.589   4.290
  337POPC   GL2 4529   2.947   0.250   4.410
  337POPC   C1A 4530   2.840   0.684   4.744
  337POPC   D2A 4531   2.642   0.825   5.165
  337POPC   C3A 4532   2.873   0.783   5.581
  337POPC   C4A 4533   2.802   0.562   5.998
  337POPC   C1B 4534   2.564   0.271   4.721
  337POPC   C2B 4535   2.540   0.321   5.192
  337POPC   C3B 4536   2.757   0.237   5.579
  337POPC   C4B 4537   2.601  11.497   5.927
  338W        W 4538   4.596   7.129   1.916
  339W        W 4539   5.160   6.007   0.014
  340W        W 4540   7.826   4.663  10.359
  341W        W 4541  10.042   0.276  10.627
  342W        W 4542   0.158   4.720   3.426
  343W        W 4543   7.470   3.859  10.486
  344W        W 4544  10.852   8.798  11.742
  345W        W 4545   8.556   3.214   8.919
  346W        W 4546   1.401   0.917   0.952
  347W        W 4547   1.229   6.557  10.809
  348W        W 4548   4.325   9.029   2.232
  349W        W 4549   7.675   6.483   2.730
  350W        W 4550  11.358   1.013   2.146
  351W        W 4551  10.076   2.621   3.828
  352W        W 4552   0.473  11.416   3.251
  353W        W 4553   2.234  10.434  10.446
  354W        W 4554  10.741   5.804  11.487
  355W        W 4555   3.834   7.657   0.919
  356W        W 4556  11.488   8.163  11.820
  357W        W 4557  11.105   7.965   2.196
  358W        W 4558   5.982   3.629   7.946
  359W        W 4559   5.952   4.105   3.926
  360W        W 4560   2.551   3.045   0.122
  361W        W 4561   9.166   5.267   2.897
  362W        W 4562   2.450  10.356   0.459
  363W        W 4563   2.577  10.872   3.520
  364W        W 4564   4.604   0.378   0.468
  365W        W 4565   6.083   0.297   2.685
  366W        W 4566   2.379   5.757   0.957
  367W        W 4567   9.373  11.132  10.295
  368W        W 4568   7.214   6.108  10.489
  369W        W 4569   5.867   6.835  11.483
  370W        W 4570  11.300  10.553  11.335
  371W        W 4571   2.175  10.840   3.197
  372W        W 4572   7.939   8.399   1.857
  373W        W 4573   7.109   4.755   1.409
  374W        W 4574   0.854   1.396  10.455
  375W        W 4575   5.621   0.551   0.040
  376W        W 4576  10.303   2.846   3.124
  377W        W 4577   2.437   8.296   3.589
  378W        W 4578   3.276   8.567   0.811
  379W        W 4579   5.201   2.420  10.747
  380W        W 4580   2.747   2.593   9.852
  381W        W 4581   2.641   4.603   3.397
  382W        W 4582   3.848   8.996   3.043
  383W        W 4583   6.113   0.466   9.237
  384W        W 4584   6.692   6.556   1.949
  385W        W 4585   5.839   4.112   8.183
  386W        W 4586   0.623   2.459  11.836
  387W        W 4587   1.709   5.361  10.402
  388W        W 4588   0.668   2.804   0.687
  389W        W 4589   3.213   1.527   0.015
  390W        W 4590   6.589   1.038   0.927
  391W        W 4591   6.070   7.417  10.290
  392W        W 4592   4.394   8.945   0.775
  393W        W 4593   2.644   4.132   9.789
  394W        W 4594   3.730   4.748  11.679
  395W        W 4595  10.792   6.738  11.114
  396W        W 4596   0.957  10.533   2.754
  397W        W 4597   9.644   0.372   1.979
  398W        W 4598   8.999   2.473  10.969
  399W        W 4599   9.252   8.978   2.992
  400W        W 4600   9.167  10.828   9.955
  401W        W 4601   8.972  11.319   1.709
  402W        W 4602   9.047   9.561   9.932
  403W        W 4603   5.194   9.140   1.292
  404W        W 4604   9.522  10.394  11.415
  405W        W 4605   7.686   5.174   0.746
  406W        W 4606   1.473   2.825   1.477
  407W        W 4607   3.819   4.677   2.724
  408W        W 4608   5.782  10.329  11.496
  409W        W 4609  10.482   3.301   9.044
  410W        W 4610   9.941  10.733  11.530
  411W        W 4611   4.235   1.747  10.601
  412W        W 4612   3.170   8.215   9.564
  413W        W 4613  10.528   4.597   1.426
  414W        W 4614   1.080   8.375   8.930
  415W        W 4615  11.345   4.364   0.588
  416W        W 4616  10.386   7.432   1.695
  417W        W 4617   6.652   7.547  11.439
  418W        W 4618   5.601   6.220   0.271
  419W        W 4619   4.165   2.835   0.429
  420W        W 4620   4.733   6.190   0.201
  421W        W 4621   8.072   9.990  10.896
  422W        W 4622   9.456  11.353   1.899
  423W        W 4623   4.327   0.186   9.796
  424W        W 4624   7.090   4.326   0.028
  425W        W 4625   9.148   7.299   3.457
  426W        W 4626   9.468   4.237  11.515
  427W        W 4627   5.430   3.583   9.134
  428W        W 4628  10.592   8.867   0.361
  429W        W 4629   5.625  11.246   2.210
  430W        W 4630   5.634   4.531   3.020
  431W        W 4631   5.007  11.460  10.609
  432W        W 4632   5.787   3.236  10.309
  433W        W 4633  10.957   8.064  11.095
  434W        W 4634   1.843   3.237   3.070
  435W        W 4635  11.219   0.379  10.796
  436W        W 4636   6.016   9.969  11.783
  437W        W 4637   3.591   5.159   8.085
  438W        W 4638   4.653   8.852   8.136
  439W        W 4639   2.253  10.258   9.861
  440W        W 4640   1.769   9.871   0.043
  441W        W 4641   7.018   2.657   1.637
  442W        W 4642  10.015   2.344  10.842
  443W        W 4643   0.332   0.392   9.015
  444W        W 4644   6.454   0.151  11.024
  445W        W 4645   6.479   3.799   9.887
  446W        W 4646   0.993   6.287   3.908
  447W        W 4647   9.289   9.404   8.978
  448W        W 4648   5.125   7.398   1.889
  449W        W 4649  10.220   7.650   0.847
  450W        W 4650   9.142   5.050  11.947
  451W        W 4651   4.987  10.580  10.569
  452W        W 4652   1.248   3.470  10.697
  453W        W 4653   2.686   4.020  11.940
  454W        W 4654   4.467   0.385   8.814
  455W        W 4655   4.666   3.229   2.695
  456W        W 4656   4.136   4.238  11.375
  457W        W 4657   2.662  10.279   0.925
  458W        W 4658  10.791   1.838  10.938
  459W        W 4659   6.993   9.720   3.500
  460W        W 4660  10.893   0.903   0.278
  461W        W 4661   9.809   1.281   9.779
  462W        W 4662   8.451   9.148   8.988
  463W        W 4663   2.539   5.375   1.699
  464W        W 4664   7.687   3.914   4.019
  465W        W 4665   0.873   6.644   8.386
  466W        W 4666   7.400   7.518  10.745
  467W        W 4667   2.211   6.482   3.268
  468W        W 4668   8.792   9.485   1.823
  469W        W 4669   9.523   0.588   9.810
  470W        W 4670   8.118   4.651  10.770
  471W        W 4671   2.107   2.287   0.219
  472W        W 4672  11.189   5.055  11.161
  473W        W 4673   8.375   5.620   0.282
  474W        W 4674   1.318   3.394  11.677
  475W        W 4675   2.338   3.691  10.012
  476W        W 4676   6.230   1.036   9.905
  477W        W 4677   6.619   6.943   2.286
  478W        W 4678  10.959  11.306   2.183
  479W        W 4679   3.500   6.179   1.749
  480W        W 4680   4.658   2.245  11.296
  481W        W 4681   9.513   0.316  11.436
  482W        W 4682   9.429   9.100  10.299
  483W        W 4683  10.437   8.674  11.452
  484W        W 4684   6.019   6.897   0.897
  485W        W 4685   2.467   8.172   9.113
  486W        W 4686   2.921  10.600   3.252
  487W        W 4687   5.755   3.563  11.464
  488W        W 4688   9.642   7.197   9.490
  489W        W 4689  10.566   7.028  11.902
  490W        W 4690   3.312   6.957  11.450
  491W        W 4691  11.304  11.108   0.065
  492W        W 4692   2.743   4.533   0.054
  493W        W 4693   6.590   4.074   9.401
  494W        W 4694   3.977   8.328   3.498
  495W        W 4695   1.260   9.924  10.752
  496W        W 4696   7.656  11.070   1.712
  497W        W 4697  10.044   3.711  11.605
  498W        W 4698  11.073   5.420  10.827
  499W        W 4699   7.258   4.167   2.395
  500W        W 4700   1.838   6.167  11.387
  501W        W 4701   9.744   9.003   0.912
  502W        W 4702   8.495   1.644  10.882
  503W        W 4703   9.442  11.263   2.785
  504W        W 4704   1.348   1.766   0.669
  505W        W 4705   4.281   9.155   1.244
  506W        W 4706   0.439   4.800  11.625
  507W        W 4707   0.598   4.208   0.729
  508W        W 4708  10.509  10.215   0.653
  509W        W 4709   0.775   0.295  11.850
  510W        W 4710   8.477   5.475   3.772
  511W        W 4711   0.849  10.770   9.858
  512W        W 4712   4.703   0.815   2.169
  513W        W 4713   3.603   8.548  11.729
  514W        W 4714   3.353   8.105   3.150
  515W        W 4715   4.195   3.340   2.846
  516W        W 4716   1.210   7.806   1.048
  517W        W 4717   8.842   1.409   3.119
  518W        W 4718   5.264   8.703   8.621
  519W        W 4719   8.083   1.171   9.287
  520W        W 4720   0.959  11.392   0.805
  521W        W 4721   6.797   5.657   2.398
  522W        W 4722   4.374   1.325   9.466
  523W        W 4723   2.153   6.578   1.285
  524W        W 4724   0.871   7.946   9.149
  525W        W 4725   3.564   0.466   2.362
  526W        W 4726   2.005   3.783   8.506
  527W        W 4727   7.156   1.400  11.420
  528W        W 4728   3.699   6.523   3.096
  529W        W 4729   0.840   6.629  10.004
  530W        W 4730   1.594   5.326   0.787
  531W        W 4731   1.593   2.681  11.639
  532W        W 4732   6.402   8.885  10.222
  533W        W 4733   3.111  11.036   3.465
  534W        W 4734  10.631   0.312   1.742
  535W        W 4735  10.008   8.602   9.710
  536W        W 4736   5.247   3.598  11.394
  537W        W 4737  10.584   3.101  11.566
  538W        W 4738   1.704   0.538   2.664
  539W        W 4739   5.545   3.561   4.250
  540W        W 4740   2.454   8.494  10.757
  541W        W 4741   1.741   7.947   3.005
  542W        W 4742   7.947   3.500   2.027
  543W        W 4743   9.639   9.641   0.139
  544W        W 4744   7.954  11.274   2.860
  545W        W 4745   9.995   7.425   0.457
  546W        W 4746   5.559   8.589  10.669
  547W        W 4747   2.118   0.963   9.394
  548W        W 4748   7.252   1.306   2.347
  549W        W 4749   7.184  10.362  10.846
  550W        W 4750   0.696   6.488   2.802
  551W        W 4751   2.323   1.735   2.431
  552W        W 4752   5.670   4.244  11.874
  553W        W 4753   2.045   5.233  11.752
  554W        W 4754   0.443   5.086   2.835
  555W        W 4755   4.160   8.548  10.523
  556W        W 4756   3.357   9.388   1.907
  557W        W 4757   5.242   8.280   2.983
  558W        W 4758  10.064   3.512   0.058
  559W        W 4759   0.736   3.658   2.835
  560W        W 4760   9.588   1.468  10.582
  561W        W 4761   4.354   6.535   1.722
  562W        W 4762  11.153   9.523   9.523
  563W        W 4763   9.291   9.456   3.142
  564W        W 4764   4.133  11.046   3.147
  565W        W 4765   7.000  11.037   1.555
  566W        W 4766   2.199   9.815  10.770
  567W        W 4767   4.086   2.624   2.317
  568W        W 4768   6.201   4.100   8.654
  569W        W 4769   3.256  11.496   2.221
  570W        W 4770   6.071   7.162   3.983
  571W        W 4771  10.466   6.495   2.853
  572W        W 4772   3.412   9.043   3.325
  573W        W 4773   6.658  11.065   0.513
  574W        W 4774   6.175   3.010   8.595
  575W        W 4775   5.572   5.711   9.989
  576W        W 4776   1.348   4.257   2.915
  577W        W 4777   7.625   0.490  11.568
  578W        W 4778   6.881   6.472   0.718
  579W        W 4779   2.323   4.810  10.968
  580W        W 4780   0.513   1.323   9.868
  581W        W 4781   5.956   0.579   9.874
  582W        W 4782   7.589   2.491   1.225
  583W        W 4783   3.739   2.285  11.735
  584W        W 4784   8.179   1.385   1.718
  585W        W 4785   0.763   9.112   3.009
  586W        W 4786   9.965  11.429   9.862
  587W        W 4787   4.956   1.854   3.275
  588W        W 4788   3.641   1.642   9.031
  589W        W 4789   7.335   7.152  11.532
  590W        W 4790   3.187   4.256   2.784
  591W        W 4791   5.643   7.578  10.524
  592W        W 4792  10.469   4.716   1.921
  593W        W 4793   5.139   5.549   0.308
  594W        W 4794   9.472   7.698   9.414
  595W        W 4795   4.960   1.421  11.538
  596W        W 4796   4.910   2.919   8.473
  597W        W 4797   0.322   9.053   9.235
  598W        W 4798   3.747   5.194   2.676
  599W        W 4799  10.367   4.758   2.409
  600W        W 4800   4.371   1.704  11.509
  601W        W 4801   2.271   3.616   1.794
  602W        W 4802  10.911   8.460  11.389
  603W        W 4803   3.758  11.322  10.854
  604W        W 4804   5.714   0.135   1.890
  605W        W 4805   1.614   1.865   1.774
  606W        W 4806   6.214   3.345  11.996
  607W        W 4807   5.054   8.103  11.262
  608W        W 4808   2.888   7.383   0.685
  609W        W 4809   3.526   2.885  11.271
  610W        W 4810   4.235   9.610   8.962
  611W        W 4811   5.618   6.552   1.176
  612W        W 4812  10.717   9.441  11.114
  613W        W 4813   3.731   7.494   3.093
  614W        W 4814   1.295   8.647  11.937
  615W        W 4815   0.182   3.029   9.339
  616W        W 4816   2.729   3.599   1.557
  617W        W 4817   3.182   2.905   2.301
  618W        W 4818   1.917   8.575   9.931
  619W        W 4819   4.789   2.990  11.821
  620W        W 4820   1.956   9.449   2.555
  621W        W 4821   4.066  10.286  11.823
  622W        W 4822   3.632   6.270  11.886
  623W        W 4823   1.265   9.062   0.716
  624W        W 4824   5.158   1.029   9.969
  625W        W 4825   9.038   8.092   2.916
  626W        W 4826   2.755   8.350   1.512
  627W        W 4827   0.895   3.162  11.013
  628W        W 4828   9.163   0.967   8.630
  629W        W 4829   4.317   8.075  11.962
  630W        W 4830   6.091   8.685   3.654
  631W        W 4831   7.709   2.185  11.721
  632W        W 4832   1.325   9.848   2.993
  633W        W 4833   3.282   0.392   1.912
  634W        W 4834   4.122   6.091   8.321
  635W        W 4835   3.184   6.169   0.737
  636W        W 4836   7.625   6.902   9.916
  637W        W 4837  11.225   5.691   2.768
  638W        W 4838   1.426   9.498  10.488
  639W        W 4839   7.413  11.163  11.859
  640W        W 4840   1.878   2.393  10.255
  641W        W 4841   9.337   9.894  11.358
  642W        W 4842   2.329  11.049   9.113
  643W        W 4843   8.375   6.145   3.157
  644W        W 4844   3.555   3.418   4.017
  645W        W 4845   6.471   1.813   0.459
  646W        W 4846   5.291   7.643   0.812
  647W        W 4847  10.837   6.398   3.521
  648W        W 4848   9.409   0.852   9.067
  649W        W 4849   3.624   4.994  10.832
  650W        W 4850   5.969   9.923  11.198
  651W        W 4851   1.696   4.139   9.399
  652W        W 4852   1.614   7.083   0.981
  653W        W 4853   8.136   3.375   2.666
  654W        W 4854   7.350   0.920  11.422
  655W        W 4855   7.081   1.839   1.610
  656W        W 4856   5.214   2.668  11.788
  657W        W 4857   7.922   8.981   0.829
  658W        W 4858  10.029   4.377   9.372
  659W        W 4859   9.858   3.866   3.062
  660W        W 4860   7.487   6.027   9.880
  661W        W 4861   8.513   1.394  11.480
  662W        W 4862   1.473   8.169   1.275
  663W        W 4863   7.999  10.783   0.582
  664W        W 4864   5.282   0.656   0.796
  665W        W 4865   8.227   6.117   0.392
  666W        W 4866   9.092   8.082  10.766
  667W        W 4867   5.458   6.474   9.168
  668W        W 4868   6.115   9.844   8.618
  669W        W 4869  10.022   5.456   8.993
  670W        W 4870  11.222   3.762   2.698
  671W        W 4871   7.586   4.717   1.693
  672W        W 4872   8.562   8.996  11.982
  673W        W 4873   2.604   6.200   1.945
  674W        W 4874   1.273   6.566  10.295
  675W        W 4875   4.747   9.348   1.171
  676W        W 4876   5.217   9.403  10.030
  677W        W 4877   5.191   8.487   2.087
  678W        W 4878  11.416   2.944   8.903
  679W        W 4879   0.794   9.104   0.509
  680W        W 4880   5.871   2.052   2.853
  681W        W 4881   4.051   2.879  11.111
  682W        W 4882   7.064   0.090   9.242
  683W        W 4883   1.783   7.976   0.305
  684W        W 4884  10.947   6.368   9.306
  685W        W 4885   1.302   6.480   9.770
  686W        W 4886   9.005  10.868   2.020
  687W        W 4887   8.068   7.198   0.674
  688W        W 4888   1.207  10.862   9.498
  689W        W 4889   1.457   6.966  10.990
  690W        W 4890   8.594   9.802   9.809
  691W        W 4891   8.859   4.072  11.729
  692W        W 4892   6.211   2.238   3.210
  693W        W 4893   6.042   9.442   0.820
  694W        W 4894   1.120   0.281  10.868
  695W        W 4895   4.739   5.712   0.615
  696W        W 4896   4.233   7.525  10.464
  697W        W 4897   8.912   8.684   8.491
  698W        W 4898   3.041   5.274   1.600
  699W        W 4899   6.400   3.267   1.287
  700W        W 4900   6.510   8.356  10.990
  701W        W 4901   4.044   7.224   2.766
  702W        W 4902  10.772   4.079  10.098
  703W        W 4903   2.656   1.210  10.822
  704W        W 4904   9.140   5.945  10.754
  705W        W 4905   7.000   0.590  11.218
  706W        W 4906   7.130   6.111   2.296
  707W        W 4907   3.110   3.116   9.518
  708W        W 4908   5.024   5.175  11.502
  709W        W 4909   4.144   0.301   1.521
  710W        W 4910   0.849   1.250   1.254
  711W        W 4911   4.678   2.823   3.430
  712W        W 4912  10.400   6.422   9.016
  713W        W 4913   2.622   6.121   2.863
  714W        W 4914   9.974   8.872  11.585
  715W        W 4915   8.243   0.271  10.515
  716W        W 4916   8.784   0.282   1.859
  717W        W 4917   6.516   8.210   2.002
  718W        W 4918   4.149   6.055   0.863
  719W        W 4919   6.296   1.421  11.652
  720W        W 4920   7.964   6.435   0.010
  721W        W 4921   2.653   3.296   0.572
  722W        W 4922   1.243   0.773   9.933
  723W        W 4923   4.679   5.671  11.521
  724W        W 4924   2.922   3.797   2.844
  725W        W 4925  10.953   1.628   2.776
  726W        W 4926   6.959   7.473  11.870
  727W        W 4927   3.804  10.839   8.975
  728W        W 4928   4.907  11.206   3.523
  729W        W 4929   4.387   0.712  11.654
  730W        W 4930  10.435   6.896  10.753
  731W        W 4931   6.587   1.565   0.904
  732W        W 4932   0.236   3.522   9.889
  733W        W 4933   4.972  10.382   0.002
  734W        W 4934   0.766   7.137   0.514
  735W        W 4935   6.119   2.751   1.235
  736W        W 4936   8.845   1.483   1.748
  737W        W 4937   1.221  10.085   3.456
  738W        W 4938  10.921   1.297  10.655
  739W        W 4939   1.636  11.445  10.115
  740W        W 4940   1.121   7.292   1.075
  741W        W 4941   2.115   6.188   0.861
  742W        W 4942   4.545   3.248   2.165
  743W        W 4943  10.105  10.813  10.856
  744W        W 4944  10.361   8.836  10.943
  745W        W 4945   8.105  10.161  10.424
  746W        W 4946   9.966   7.178   1.882
  747W        W 4947   5.483   8.482   9.045
  748W        W 4948   3.820  10.448   1.469
  749W        W 4949   4.807   1.001  11.776
  750W        W 4950   1.309  10.648   1.909
  751W        W 4951   1.824   2.387   2.924
  752W        W 4952   6.797   5.197   1.315
  753W        W 4953   9.998   8.470   9.225
  754W        W 4954   3.323   4.719   2.613
  755W        W 4955   4.590   3.735   1.963
  756W        W 4956   4.268   2.433  10.996
  757W        W 4957   8.586   1.947   9.370
  758W        W 4958  11.279   4.236   9.373
  759W        W 4959   9.340   5.476  10.018
  760W        W 4960   8.394   8.080  10.004
  761W        W 4961   6.975   4.168   0.579
  762W        W 4962   1.318   5.337   1.266
  763W        W 4963   3.483   3.212  10.376
  764W        W 4964   4.783   0.371   9.407
  765W        W 4965   9.738   6.710   8.224
  766W        W 4966   8.188   0.441  10.002
  767W        W 4967   6.339   5.984  11.468
  768W        W 4968   5.177   4.712  11.736
  769W        W 4969   2.263   3.846   8.965
  770W        W 4970   0.002  11.218   0.972
  771W        W 4971   9.913   6.141   9.015
  772W        W 4972   1.160   9.510   9.003
  773W        W 4973   6.227   5.320   1.777
  774W        W 4974   7.902   9.821  11.837
  775W        W 4975   4.553   2.245  10.025
  776W        W 4976   0.404   0.247   1.958
  777W        W 4977   7.519   0.931   2.976
  778W        W 4978   7.463   1.490  10.470
  779W        W 4979   0.051   7.384   0.429
  780W        W 4980  10.706   2.975   9.419
  781W        W 4981   8.531   2.366  11.192
  782W        W 4982   5.737   3.626   2.269
  783W        W 4983   7.210   8.445  11.910
  784W        W 4984   7.865   4.271   1.563
  785W        W 4985   0.181   6.136   9.928
  786W        W 4986   4.807   4.169   9.611
  787W        W 4987   7.679   9.537   9.793
  788W        W 4988   5.578   0.312  11.569
  789W        W 4989   5.465   9.876   8.505
  790W        W 4990  11.257   2.222  10.601
  791W        W 4991   7.823   7.985   0.576
  792W        W 4992  11.061   7.006  11.980
  793W        W 4993   7.973   4.288   2.842
  794W        W 4994   6.729   8.115   0.200
  795W        W 4995  11.276   0.282   9.918
  796W        W 4996   7.595  10.542   2.633
  797W        W 4997   4.562   0.825  10.325
  798W        W 4998   7.466   5.161  11.747
  799W        W 4999   7.229   0.874   9.809
  800W        W 5000   6.668  11.327   9.078
  801W        W 5001   7.964   6.165   8.737
  802W        W 5002   4.593   3.063   0.288
  803W        W 5003   3.044   8.995  11.536
  804W        W 5004   7.547   1.688  11.071
  805W        W 5005   8.842   8.071   1.978
  806W        W 5006  11.297  10.798   0.775
  807W        W 5007   0.814   7.553  11.817
  808W        W 5008   4.719   7.489  11.291
  809W        W 5009   1.043   8.000   9.622
  810W        W 5010   9.832   6.543  11.743
  811W        W 5011   0.096  11.438  11.775
  812W        W 5012  10.524   0.333   9.282
  813W        W 5013   5.396   6.549   2.031
  814W        W 5014   2.885  10.126   1.810
  815W        W 5015   5.365   6.778  11.579
  816W        W 5016  10.254   5.635   9.428
  817W        W 5017  11.078   4.469  10.428
  818W        W 5018   6.474   3.766   8.950
  819W        W 5019   4.201   6.515   2.217
  820W        W 5020   4.006   6.653  10.000
  821W        W 5021   8.898   9.927  11.130
  822W        W 5022   8.934   1.099  11.435
  823W        W 5023   9.733   8.151   1.758
  824W        W 5024   3.718   9.512   2.397
  825W        W 5025   0.233   7.586   1.849
  826W        W 5026   4.743   9.814   8.866
  827W        W 5027   7.094   9.392  11.672
  828W        W 5028   5.408  10.308  10.276
  829W        W 5029   5.489   3.778   8.670
  830W        W 5030  10.466  11.334   9.848
  831W        W 5031  11.472   8.472  10.788
  832W        W 5032   1.326  10.862   2.987
  833W        W 5033   8.895   1.409  10.692
  834W        W 5034   7.257   0.065   9.707
  835W        W 5035  10.322   5.662   0.405
  836W        W 5036   8.611   3.750   8.187
  837W        W 5037  10.400   7.269  10.354
  838W        W 5038  10.352   2.912   9.765
  839W        W 5039   0.450   2.224  10.795
  840W        W 5040  10.877   0.048   0.808
  841W        W 5041   7.869   5.727   0.318
  842W        W 5042  10.887   0.701   9.891
  843W        W 5043   4.081   5.515  11.802
  844W        W 5044   3.727   8.944  10.098
  845W        W 5045   9.542  10.562  11.887
  846W        W 5046   4.666   0.493   0.961
  847W        W 5047   0.998   2.684   2.167
  848W        W 5048   1.968   0.435  11.065
  849W        W 5049  10.895   6.188  11.828
  850W        W 5050   9.380   5.645   0.690
  851W        W 5051   5.944   3.687   8.963
  852W        W 5052   1.635   9.345   2.136
  853W        W 5053   0.023   7.180   3.513
  854W        W 5054   8.020   7.191   2.546
  855W        W 5055   0.843   3.267  11.502
  856W        W 5056   6.550   0.313   1.941
  857W        W 5057   8.053   0.523   3.295
  858W        W 5058  10.712   9.791  11.501
  859W        W 5059   7.701   2.195   2.128
  860W        W 5060   5.096   6.995  10.439
  861W        W 5061   9.660   2.054   1.818
  862W        W 5062   6.656  11.252  10.748
  863W        W 5063   4.404   9.765   0.959
  864W        W 5064   5.925   6.628  10.379
  865W        W 5065   1.257   7.555   9.178
  866W        W 5066   1.871  10.603   9.846
  867W        W 5067  10.752   8.366   0.363
  868W        W 5068   8.884   9.933   1.084
  869W        W 5069   0.672   5.977   2.828
  870W        W 5070  10.837   9.582  10.063
  871W        W 5071   9.996  10.075   1.666
  872W        W 5072   2.641   2.128   3.657
  873W        W 5073   5.690  11.474   3.266
  874W        W 5074  11.034  11.175   8.989
  875W        W 5075   7.954   1.817   1.906
  876W        W 5076   2.977   0.670   9.555
  877W        W 5077  10.872   9.154   9.747
  878W        W 5078   4.729   2.014   2.467
  879W        W 5079   5.489   7.182  11.876
  880W        W 5080   8.562   3.166  11.366
  881W        W 5081  10.009   9.999   9.265
  882W        W 5082   0.300   6.110   9.426
  883W        W 5083   4.111   1.604  11.938
  884W        W 5084   8.481   1.730   8.915
  885W        W 5085  10.475   9.851   0.309
  886W        W 5086   4.188   7.229  10.867
  887W        W 5087   5.554   9.902   2.472
  888W        W 5088   4.991   6.890  11.900
  889W        W 5089   5.013   4.441   1.282
  890W        W 5090   4.477  11.435   2.857
  891W        W 5091   7.171   7.373   2.600
  892W        W 5092  11.165  10.271   2.320
  893W        W 5093   0.518   9.994   1.862
  894W        W 5094   0.812   0.655   9.090
  895W        W 5095   5.652   0.891  11.662
  896W        W 5096   7.856  10.395   0.284
  897W        W 5097   6.835   7.444   1.714
  898W        W 5098   9.438   7.314   1.861
  899W        W 5099   6.477   3.236   9.592
  900W        W 5100   6.221   7.041   3.093
  901W        W 5101   6.191   3.541  10.267
  902W        W 5102   3.387   9.338   0.290
  903W        W 5103   3.862   1.651  10.946
  904W        W 5104   2.010   0.454   9.524
  905W        W 5105   1.922   1.589   2.684
  906W        W 5106   5.197   6.950   9.121
  907W        W 5107  10.586   5.013  10.314
  908W        W 5108   8.942   9.312   9.350
  909W        W 5109   1.432   3.124   9.782
  910W        W 5110   3.976   3.721   2.051
  911W        W 5111   5.889   7.493   9.325
  912W        W 5112   6.802   7.830   3.248
  913W        W 5113   6.454   9.981   2.952
  914W        W 5114   0.926   3.684   9.300
  915W        W 5115   5.626  10.287  11.026
  916W        W 5116   3.535   0.787  10.447
  917W        W 5117   7.129   6.914   9.999
  918W        W 5118   9.732  11.480  10.368
  919W        W 5119   4.965   8.315   0.249
  920W        W 5120   7.105   0.572   2.870
  921W        W 5121   0.344   7.339  10.307
  922W        W 5122   3.581  10.363   2.541
  923W        W 5123   6.940   7.387   9.794
  924W        W 5124   9.100   6.431   8.361
  925W        W 5125   3.912   9.828  11.548
  926W        W 5126  10.432   7.648  11.524
  927W        W 5127   9.918   6.679  10.741
  928W        W 5128   2.821   1.396   3.241
  929W        W 5129   2.979   9.817   9.495
  930W        W 5130   7.611   6.696   0.322
  931W        W 5131   9.370  10.607   0.370
  932W        W 5132   0.244   4.596   0.809
  933W        W 5133  11.073   2.672  10.769
  934W        W 5134   1.845  10.468   2.628
  935W        W 5135   2.463   0.694   1.630
  936W        W 5136   9.819   4.124  11.888
  937W        W 5137  10.021   3.668  11.103
  938W        W 5138   1.369   7.544   3.280
  939W        W 5139   5.049   3.647  10.072
  940W        W 5140   8.635  10.540   0.880
  941W        W 5141   1.891   8.366   1.510
  942W        W 5142   9.347   2.880   1.543
  943W        W 5143   9.299   5.701   8.475
  944W        W 5144   6.742   7.506   0.756
  945W        W 5145   3.136   7.484   0.218
  946W        W 5146   4.781   9.568   3.213
  947W        W 5147   4.481   1.204  11.459
  948W        W 5148   7.654   3.354   2.448
  949W        W 5149   3.129  10.369  11.824
  950W        W 5150   6.709   8.985   9.796
  951W        W 5151   0.328   2.618   9.996
  952W        W 5152   2.323   7.175   9.038
  953W        W 5153   6.240   3.762  11.449
  954W        W 5154   0.703   7.265   2.686
  955W        W 5155   3.620   9.408   0.734
  956W        W 5156   0.522   1.760   9.004
  957W        W 5157  11.429   0.024   8.878
  958W        W 5158   6.745   9.784   0.347
  959W        W 5159   5.899   7.322  11.621
  960W        W 5160   4.969   7.976  10.676
  961W        W 5161   3.318   2.173   9.180
  962W        W 5162   3.701   1.962  11.318
  963W        W 5163   7.287   3.096  10.104
  964W        W 5164   7.715   9.550   0.248
  965W        W 5165   9.992   4.963   9.228
  966W        W 5166   4.504  10.997   0.851
  967W        W 5167   9.789   2.386  11.307
  968W        W 5168  10.797   9.404   9.126
  969W        W 5169   5.278   5.009   0.438
  970W        W 5170   9.119   5.959  10.237
  971W        W 5171   6.112   9.465   2.983
  972W        W 5172  11.313   6.512  11.805
  973W        W 5173   1.002   0.282   9.583
  974W        W 5174   1.012   0.504  10.416
  975W        W 5175   7.324   7.927  10.424
  976W        W 5176   0.242   0.765   2.827
  977W        W 5177   6.160   7.582  11.268
  978W        W 5178   4.523   4.532   1.399
  979W        W 5179  10.369  10.807   2.008
  980W        W 5180   3.047   0.767   1.192
  981W        W 5181   8.633   4.727   1.724
  982W        W 5182   4.728   7.561  10.290
  983W        W 5183   8.625   4.971  11.934
  984W        W 5184   3.212   7.399  11.712
  985W        W 5185   7.330   2.281   1.777
  986W        W 5186   8.437   2.762   3.606
  987W        W 5187   5.618  10.843   9.493
  988W        W 5188  11.362   8.644  11.637
  989W        W 5189   8.957   4.513   8.207
  990W        W 5190   9.470   0.323   1.013
  991W        W 5191   6.922   5.502   0.126
  992W        W 5192   3.897   2.269   2.799
  993W        W 5193   8.087   6.567   1.344
  994W        W 5194   3.906   6.674   8.976
  995W        W 5195   5.252  11.445   9.682
  996W        W 5196   6.925   8.572   1.315
  997W        W 5197  10.862  10.107  11.918
  998W        W 5198   1.917   5.026  10.733
  999W        W 5199   4.305   8.159   1.394
 1000W        W 5200   0.903   5.059   2.642
 1001W        W 5201  10.390   8.982  11.875
 1002W        W 5202   2.674   1.199  10.314
 1003W        W 5203   8.911   2.774   1.802
 1004W        W 5204   7.785   9.095   2.693
 1005W        W 5205   7.103   3.112  10.596
 1006W        W 5206  11.026   5.693  11.881
 1007W        W 5207   2.748   3.120   9.878
 1008W        W 5208   3.990   0.819   1.663
 1009W        W 5209   7.271   8.990  11.234
 1010W        W 5210   7.604   3.606  10.925
 1011W        W 5211   2.716   4.104   1.581
 1012W        W 5212   1.384   3.978   3.355
 1013W        W 5213  10.891  10.611   1.735
 1014W        W 5214   0.817   6.041   2.330
 1015W        W 5215  10.126   8.125   8.853
 1016W        W 5216   3.715  10.440   1.980
 1017W        W 5217  10.783   2.348   9.282
 1018W        W 5218   0.540   0.483   9.491
 1019W        W 5219   6.192   0.198   3.169
 1020W        W 5220   5.264   7.239   2.788
 1021W        W 5221   9.445  10.597   3.232
 1022W        W 5222   0.066   5.911   3.607
 1023W        W 5223   6.020   9.921   3.247
 1024W        W 5224   5.202   6.514   9.617
 1025W        W 5225   6.706  10.947  10.308
 1026W        W 5226   7.937   2.247  10.274
 1027W        W 5227   0.181  10.911   1.777
 1028W        W 5228   9.077   5.094   8.107
 1029W        W 5229   5.693   3.949   0.312
 1030W        W 5230   0.837   2.762   3.177
 1031W        W 5231   1.353   2.481  10.391
 1032W        W 5232   9.100   2.041   9.475
 1033W        W 5233   6.866   8.129  10.691
 1034W        W 5234   2.969   8.047  11.999
 1035W        W 5235   4.098   0.128   2.267
 1036W        W 5236   9.411   3.723   8.973
 1037W        W 5237  10.787   6.587   0.119
 1038W        W 5238   8.279   4.604   0.739
 1039W        W 5239   0.915  11.143   8.992
 1040W        W 5240  10.994   9.583   8.692
 1041W        W 5241   8.870   7.671   3.205
 1042W        W 5242   0.900   1.995   8.632
 1043W        W 5243   5.924   1.309   1.228
 1044W        W 5244   5.741   5.779   2.525
 1045W        W 5245   7.444   8.576   9.629
 1046W        W 5246  11.235   0.740   2.562
 1047W        W 5247   9.024   9.000  10.746
 1048W        W 5248   5.556   4.518  11.229
 1049W        W 5249   2.897   0.403   0.784
 1050W        W 5250   4.171  10.085   8.734
 1051W        W 5251   3.207   6.737  10.779
 1052W        W 5252   0.442  11.470   8.727
 1053W        W 5253   7.049   0.759   1.863
 1054W        W 5254   6.094   0.152   3.650
 1055W        W 5255   1.635   7.241  10.172
 1056W        W 5256   4.743   8.612   8.602
 1057W        W 5257   3.523   0.272   3.241
 1058W        W 5258   3.224   5.753   1.541
 1059W        W 5259   7.282   6.103   1.445
 1060W        W 5260   6.201   2.221   1.252
 1061W        W 5261   3.641   8.538   3.141
 1062W        W 5262   7.609   9.723   2.304
 1063W        W 5263   4.826   9.625  10.259
 1064W        W 5264   5.500   7.595   1.248
 1065W        W 5265   7.485   5.011   9.429
 1066W        W 5266  11.376   0.784  10.010
 1067W        W 5267   3.402   9.570   3.233
 1068W        W 5268   5.605   7.494   1.720
 1069W        W 5269   2.823   4.556  11.166
 1070W        W 5270   9.838   1.866  11.334
 1071W        W 5271   0.205   1.330   8.910
 1072W        W 5272   9.544   3.098  11.072
 1073W        W 5273   1.435   3.893  10.450
 1074W        W 5274   4.285   4.167   0.627
 1075W        W 5275   5.651  10.364   2.263
 1076W        W 5276   9.116   3.216   2.596
 1077W        W 5277   5.832  11.123   1.744
 1078W        W 5278   1.218   2.774   3.507
 1079W        W 5279  10.925  11.337  10.819
 1080W        W 5280   7.634  11.317   2.166
 1081W        W 5281   7.058   1.078   2.774
 1082W        W 5282   2.559   4.360  11.569
 1083W        W 5283   0.980   4.572  10.838
 1084W        W 5284   2.113   1.497   8.407
 1085W        W 5285   7.262   2.223  11.930
 1086W        W 5286   0.780   3.730   1.260
 1087W        W 5287   9.782   9.473   1.967
 1088W        W 5288   7.743   3.890  11.352
 1089W        W 5289   6.450   7.462   3.221
 1090W        W 5290   8.565   5.166   0.463
 1091W        W 5291   4.708   9.142   3.581
 1092W        W 5292   4.304   6.430   9.537
 1093W        W 5293   4.207   4.136   1.177
 1094W        W 5294   8.081   5.172   3.922
 1095W        W 5295   7.138   3.936   9.477
 1096W        W 5296   2.861   1.270   9.271
 1097W        W 5297   5.533   3.265   3.058
 1098W        W 5298   6.973   0.976   9.360
 1099W        W 5299   7.999   9.449   2.996
 1100W        W 5300   4.509   6.508   9.991
 1101W        W 5301   5.184   2.376   1.498
 1102W        W 5302   4.538   6.548  11.489
 1103W        W 5303   7.733   7.549   0.791
 1104W        W 5304   5.403  10.387   0.321
 1105W        W 5305  10.954   2.276  11.985
 1106W        W 5306   5.075   2.060  10.409
 1107W        W 5307   4.647   5.621  11.003
 1108W        W 5308   2.887   0.872   2.617
 1109W        W 5309   1.184   0.439   0.211
 1110W        W 5310  10.491   0.799   1.884
 1111W        W 5311   6.071   7.886  10.526
 1112W        W 5312   5.164   4.433   3.587
 1113W        W 5313   0.444   6.225   8.871
 1114W        W 5314   3.805   4.062   0.825
 1115W        W 5315   4.925   2.702   8.929
 1116W        W 5316   3.316   9.139  10.564
 1117W        W 5317   6.647   9.071  11.718
 1118W        W 5318   5.697   3.136  11.765
 1119W        W 5319   5.073   4.636   2.205
 1120W        W 5320   5.300   6.150   9.976
 1121W        W 5321   4.561   5.114  10.730
 1122W        W 5322   5.238   0.302   1.675
 1123W        W 5323   2.611  10.918   1.576
 1124W        W 5324   1.808   7.811  10.916
 1125W        W 5325   3.635   0.740   0.207
 1126W        W 5326   9.333   0.371  11.948
 1127W        W 5327   4.952   0.250   8.872
 1128W        W 5328   8.161   8.933  11.233
 1129W        W 5329   7.464   0.156  11.960
 1130W        W 5330  10.335  10.395   3.079
 1131W        W 5331   0.610   8.789   1.287
 1132W        W 5332   7.552   9.363   3.287
 1133W        W 5333   0.521   8.157   2.179
 1134W        W 5334  10.448   6.941   1.862
 1135W        W 5335   6.458   0.091  11.912
 1136W        W 5336   5.789   7.503   2.193
 1137W        W 5337   6.965   6.519  11.781
 1138W        W 5338   9.880   8.069   1.280
 1139W        W 5339   6.042   9.699   9.105
 1140W        W 5340   7.254  10.966   3.240
 1141W        W 5341   5.241  11.273   0.436
 1142W        W 5342   4.510  11.483  10.627
 1143W        W 5343  10.466   0.997   8.809
 1144W        W 5344   6.221   2.984   1.705
 1145W        W 5345  11.333   2.674   1.396
 1146W        W 5346   0.925   7.030   0.026
 1147W        W 5347   9.557  10.766   2.744
 1148W        W 5348  10.866   1.117  10.176
 1149W        W 5349   3.471   0.826   1.693
 1150W        W 5350   8.841   2.432   0.909
 1151W        W 5351   8.476  10.250   1.300
 1152W        W 5352   0.977   7.112   9.248
 1153W        W 5353   7.438   1.046   0.789
 1154W        W 5354   6.624   7.610   0.279
 1155W        W 5355   5.097   9.931  11.753
 1156W        W 5356  11.051   3.207   1.319
 1157W        W 5357   1.400   1.471  10.644
 1158W        W 5358   5.120   1.679   2.271
 1159W        W 5359   0.181   6.508   0.536
 1160W        W 5360   0.352   6.679  11.532
 1161W        W 5361   4.801   3.351  11.441
 1162W        W 5362   4.796  11.318  11.532
 1163W        W 5363   7.956   4.509   2.039
 1164W        W 5364   5.178   0.892   2.468
 1165W        W 5365   9.777   0.911   1.103
 1166W        W 5366   8.771   3.594   8.641
 1167W        W 5367   4.111   2.358   9.807
 1168W        W 5368   2.465   1.878   0.964
 1169W        W 5369   0.494  10.878   3.387
 1170W        W 5370   0.110   8.236  10.361
 1171W        W 5371   2.312   9.651   8.928
 1172W        W 5372   5.036   5.686   1.342
 1173W        W 5373   9.314   4.249   9.038
 1174W        W 5374  11.283   5.229   0.528
 1175W        W 5375   1.748   1.054   8.839
 1176W        W 5376   3.582   7.239   1.023
 1177W        W 5377   3.637   4.948   9.424
 1178W        W 5378   7.383  10.884   1.270
 1179W        W 5379   3.116   1.159  11.081
 1180W        W 5380   9.894   9.010  11.090
 1181W        W 5381   3.453   7.471   9.810
 1182W        W 5382  11.237   1.847  11.903
 1183W        W 5383  11.477   1.276   9.810
 1184W        W 5384   7.979   4.663   1.244
 1185W        W 5385   7.890  10.677  10.492
 1186W        W 5386  10.015   5.223   2.937
 1187W        W 5387   7.479   4.098  10.942
 1188W        W 5388   0.071   0.847  11.748
 1189W        W 5389   5.835   1.322  11.856
 1190W        W 5390   2.781   4.054  10.988
 1191W        W 5391   6.788   8.248  11.634
 1192W        W 5392   9.222   1.121  10.450
 1193W        W 5393   4.828   0.149   9.876
 1194W        W 5394   8.056   5.201   1.408
 1195W        W 5395   5.024  10.933   1.809
 1196W        W 5396   8.304  10.979   0.946
 1197W        W 5397  10.261   8.948   0.996
 1198W        W 5398  11.256   5.041   3.398
 1199W        W 5399   1.784   5.252   8.992
 1200W        W 5400   2.561   7.997   0.944
 1201W        W 5401   6.146   6.678   3.780
 1202W        W 5402   7.033   5.651   1.443
 1203W        W 5403   8.712   4.067   2.292
 1204W        W 5404   0.025   1.866   9.105
 1205W        W 5405   9.111   2.321   2.960
 1206W        W 5406   1.418   1.758   0.171
 1207W        W 5407   1.738   2.362   1.772
 1208W        W 5408   0.829   9.798   9.890
 1209W        W 5409   6.941   9.894  10.910
 1210W        W 5410   4.529   4.763   8.319
 1211W        W 5411   7.906   8.901  10.396
 1212W        W 5412   4.539   3.824   0.894
 1213W        W 5413   8.974   9.869  10.612
 1214W        W 5414   1.981   7.548  11.334
 1215W        W 5415   6.047   3.631   4.120
 1216W        W 5416   0.002   0.406  10.381
 1217W        W 5417   8.015  10.774  11.543
 1218W        W 5418   5.889   3.192   1.378
 1219W        W 5419   2.265   4.067  10.577
 1220W        W 5420   0.675   8.725   9.024
 1221W        W 5421   6.261   4.533   9.407
 1222W        W 5422  11.373   9.797   1.602
 1223W        W 5423   1.820  10.100  11.576
 1224W        W 5424   0.903   1.918   9.335
 1225W        W 5425   8.470   9.498   2.795
 1226W        W 5426   5.466   0.879   9.592
 1227W        W 5427   5.439   3.176   1.146
 1228W        W 5428   9.281   2.081   0.421
 1229W        W 5429   5.744   9.003   2.023
 1230W        W 5430  10.019   9.923   2.690
 1231W        W 5431   6.594   4.221   3.146
 1232W        W 5432   9.948   9.820   1.202
 1233W        W 5433   9.131   0.616  10.399
 1234W        W 5434   3.772   8.023   9.996
 1235W        W 5435   8.783   2.195   0.314
 1236W        W 5436   9.086   9.482   1.379
 1237W        W 5437   1.811   2.888  10.098
 1238W        W 5438   8.952   7.214   9.977
 1239W        W 5439   5.624   9.534   8.853
 1240W        W 5440   3.122   2.374  10.126
 1241W        W 5441   1.275   4.685   0.126
 1242W        W 5442   0.000   1.890   1.956
 1243W        W 5443   9.474   5.175   9.063
 1244W        W 5444  11.193  11.263   0.547
 1245W        W 5445   2.584  10.763   9.565
 1246W        W 5446   8.530   9.540   0.784
 1247W        W 5447   3.870   0.411   9.681
 1248W        W 5448   5.807   4.697  11.652
 1249W        W 5449   0.817   0.071   0.330
 1250W        W 5450   7.203   2.308   9.348
 1251W        W 5451   2.579   2.309   0.408
 1252W        W 5452   3.194   1.740   2.542
 1253W        W 5453  10.871   7.988  11.591
 1254W        W 5454   8.477   1.818   1.933
 1255W        W 5455   9.353   7.622   3.091
 1256W        W 5456   8.602   5.781  11.834
 1257W        W 5457   5.606   2.169  10.939
 1258W        W 5458   2.154   6.579   8.519
 1259W        W 5459  10.836   4.174   9.128
 1260W        W 5460   4.813  10.322   9.156
 1261W        W 5461   3.376   6.078  10.214
 1262W        W 5462  11.334   2.414   2.711
 1263W        W 5463   1.088   1.805  10.314
 1264W        W 5464   8.920   9.944   2.069
 1265W        W 5465   3.245   1.615   9.628
 1266W        W 5466   0.780  10.684   8.778
 1267W        W 5467  10.522   1.417  11.005
 1268W        W 5468  11.358   8.809  11.146
 1269W        W 5469   8.771   3.198   3.558
 1270W        W 5470   2.133  11.343   1.332
 1271W        W 5471   3.472  11.168   2.571
 1272W        W 5472   5.989   4.230  11.470
 1273W        W 5473   2.289   9.016   0.986
 1274W        W 5474   0.883   0.453   2.662
 1275W        W 5475   7.535  11.046   2.605
 1276W        W 5476   3.777   8.201   8.724
 1277W        W 5477   6.108   6.545   0.252
 1278W        W 5478  11.368   7.419  11.958
 1279W        W 5479   1.563   4.407   8.964
 1280W        W 5480   5.507  11.384   2.708
 1281W        W 5481  11.458   7.591   1.134
 1282W        W 5482   6.211   4.811   0.774
 1283W        W 5483   4.652   3.571  10.957
 1284W        W 5484   8.515   2.451   1.321
 1285W        W 5485   1.948  10.874  10.929
 1286W        W 5486   7.717   4.403   3.266
 1287W        W 5487   6.657   8.388   8.971
 1288W        W 5488   7.640   2.195   2.671
 1289W        W 5489   1.642   7.137  11.479
 1290W        W 5490   7.090   1.887  11.275
 1291W        W 5491   5.557   6.628   2.678
 1292W        W 5492   9.002   3.333   1.093
 1293W        W 5493   9.425   7.465   0.433
 1294W        W 5494   8.132   2.954   0.028
 1295W        W 5495   0.519   7.133  11.745
 1296W        W 5496  11.028  10.982   2.647
 1297W        W 5497   5.226   2.247   3.433
 1298W        W 5498   1.110   2.444  11.663
 1299W        W 5499   9.902   9.476   2.459
 1300W        W 5500   0.910   8.273   8.438
 1301W        W 5501   9.172   4.189   2.115
 1302W        W 5502   6.069  10.359   1.948
 1303W        W 5503   5.648   4.177   3.526
 1304W        W 5504   3.741   9.783   8.852
 1305W        W 5505  11.004  10.992  10.429
 1306W        W 5506   3.764   9.828  10.613
 1307W        W 5507   2.543   7.515   1.139
 1308W        W 5508  10.899  10.027   0.894
 1309W        W 5509   1.028   3.601   1.916
 1310W        W 5510   2.135   0.844   9.887
 1311W        W 5511   7.027   1.332   0.835
 1312W        W 5512   6.658   4.317  11.692
 1313W        W 5513  10.908   8.540   1.870
 1314W        W 5514   1.041   0.823  10.856
 1315W        W 5515   3.578  11.239  10.373
 1316W        W 5516   9.356   1.052   2.577
 1317W        W 5517   9.524   2.440   0.107
 1318W        W 5518   1.740  10.810   0.113
 1319W        W 5519  10.040   6.107  11.951
 1320W        W 5520   6.530   4.644   1.136
 1321W        W 5521   2.792   7.399   9.001
 1322W        W 5522   8.973  11.483   3.295
 1323W        W 5523  10.977  10.054   3.647
 1324W        W 5524   1.070   5.655   3.350
 1325W        W 5525   2.401   7.928   1.453
 1326W        W 5526   0.411   3.165   2.805
 1327W        W 5527   6.397   6.620   0.656
 1328W        W 5528   3.335  10.087   3.279
 1329W        W 5529   3.699   0.489   1.395
 1330W        W 5530   2.556   1.108   9.694
 1331W        W 5531   3.343   7.160   0.548
 1332W        W 5532  11.033   1.647   9.322
 1333W        W 5533   2.612   3.498  11.816
 1334W        W 5534   5.744   5.061   1.342
 1335W        W 5535   6.139   2.866  11.802
 1336W        W 5536   6.040   1.314  10.298
 1337W        W 5537   4.602   7.961  11.538
 1338W        W 5538  11.322   9.320   9.094
 1339W        W 5539  11.337   9.791   0.699
 1340W        W 5540   7.491   6.894   9.404
 1341W        W 5541   3.342  10.619   9.125
 1342W        W 5542   2.233   6.915   2.280
 1343W        W 5543   8.744   4.676  10.593
 1344W        W 5544   8.965   3.239   3.082
 1345W        W 5545   7.518   6.965   2.639
 1346W        W 5546   9.088   6.479   0.937
 1347W        W 5547   5.333   0.059   9.175
 1348W        W 5548   0.887   9.832  11.811
 1349W        W 5549  10.705  11.098   1.765
 1350W        W 5550   5.764  10.439   2.794
 1351W        W 5551   3.921   1.663   2.111
 1352W        W 5552   3.229   4.648  11.839
 1353W        W 5553   7.072   9.490   3.040
 1354W        W 5554   4.020   1.289  10.644
 1355W        W 5555   3.585  10.724  10.341
 1356W        W 5556   5.542   4.015  11.362
 1357W        W 5557   6.954   9.010   1.089
 1358W        W 5558   8.926   1.408  10.145
 1359W        W 5559   1.908   3.778  10.280
 1360W        W 5560   0.312   4.969   9.507
 1361W        W 5561   3.349   7.653  11.290
 1362W        W 5562   6.529   2.592   1.853
 1363W        W 5563   4.190  11.321   9.438
 1364W        W 5564   1.302   4.472   3.406
 1365W        W 5565   4.124   8.202   2.270
 1366W        W 5566   5.639   1.209  10.886
 1367W        W 5567   1.888   7.051   9.767
 1368W        W 5568   1.791   3.586  11.741
 1369W        W 5569   3.122   8.684   1.318
 1370W        W 5570   8.216   7.690   0.830
 1371W        W 5571   4.615   1.807   9.398
 1372W        W 5572   7.722   1.432   2.181
 1373W        W 5573   7.642   1.402   9.245
 1374W        W 5574   9.321   0.434   8.220
 1375W        W 5575   3.458   2.531   3.540
 1376W        W 5576   2.974   9.639   1.690
 1377W        W 5577   1.286   0.291  10.044
 1378W        W 5578   3.973   4.047  10.563
 1379W        W 5579   2.258   5.298   1.176
 1380W        W 5580   5.110   3.644   3.969
 1381W        W 5581   3.732   8.795  11.103
 1382W        W 5582   7.105   8.926   9.459
 1383W        W 5583   9.046  10.348   9.310
 1384W        W 5584   6.596   1.388   3.428
 1385W        W 5585   2.194   9.940   3.106
 1386W        W 5586   4.133   6.229  10.814
 1387W        W 5587   4.131   9.383   0.758
 1388W        W 5588   4.727  11.430   2.208
 1389W        W 5589   1.423   1.130  11.036
 1390W        W 5590   2.637  11.165  11.751
 1391W        W 5591   8.474   1.020   1.103
 1392W        W 5592   5.092   3.274  11.025
 1393W        W 5593   9.431   0.773   3.002
 1394W        W 5594   3.217   2.671   2.781
 1395W        W 5595  11.234   2.121   3.458
 1396W        W 5596   8.536   9.616   3.620
 1397W        W 5597   6.001   7.295   8.633
 1398W        W 5598   3.070   2.344   0.468
 1399W        W 5599   3.609  10.600  11.753
 1400W        W 5600   2.330   4.119   0.863
 1401W        W 5601   8.402   0.737  10.698
 1402W        W 5602  10.295  10.494   9.754
 1403W        W 5603   2.790   7.836   0.453
 1404W        W 5604   8.402   8.835   8.559
 1405W        W 5605   8.193   6.007   8.289
 1406W        W 5606   5.596  10.271   1.726
 1407W        W 5607   6.627   8.069   0.705
 1408W        W 5608   5.714   2.328   8.744
 1409W        W 5609   3.456   1.918   2.155
 1410W        W 5610   3.321   5.713  10.574
 1411W        W 5611  11.341   2.748   3.499
 1412W        W 5612   6.048   2.786   3.716
 1413W        W 5613   6.235  10.510   1.498
 1414W        W 5614   9.694   1.399  11.117
 1415W        W 5615  10.415   0.694   0.474
 1416W        W 5616   2.592   5.653   2.611
 1417W        W 5617   6.072   8.842   2.815
 1418W        W 5618   5.575   8.638   9.920
 1419W        W 5619  10.961   9.861   0.389
 1420W        W 5620   6.556   4.355   8.964
 1421W        W 5621   8.672   8.103   0.045
 1422W        W 5622   7.436   4.321  10.290
 1423W        W 5623   4.635   5.633  10.485
 1424W        W 5624   8.780   4.795   0.811
 1425W        W 5625   4.947   9.564   3.680
 1426W        W 5626   2.400   7.048   1.426
 1427W        W 5627   9.973   2.803  11.078
 1428W        W 5628   1.359   1.661   9.334
 1429W        W 5629   9.698   9.235   0.459
 1430W        W 5630  10.422   1.655   0.219
 1431W        W 5631   4.076   4.644   9.364
 1432W        W 5632   2.259   6.362   9.334
 1433W        W 5633   9.532   6.497   9.098
 1434W        W 5634   7.760   9.382  10.295
 1435W        W 5635   2.417   8.178   1.902
 1436W        W 5636   8.078   8.601   8.917
 1437W        W 5637   9.732   2.061   0.711
 1438W        W 5638   9.004   7.502  11.503
 1439W        W 5639   8.470   4.721   2.672
 1440W        W 5640   8.591   6.517   9.673
 1441W        W 5641   1.683  10.991   1.820
 1442W        W 5642   8.156   6.462   9.394
 1443W        W 5643  11.327   6.041   3.160
 1444W        W 5644   8.047   0.265  11.329
 1445W        W 5645   7.543   7.171   0.512
 1446W        W 5646   0.332   5.839   2.262
 1447W        W 5647   5.287  10.819  10.230
 1448W        W 5648   7.406   7.778   2.308
 1449W        W 5649   6.074   1.991   8.905
 1450W        W 5650   6.293   5.960  10.117
 1451W        W 5651   8.716   4.070   3.348
 1452W        W 5652   5.584   9.307  11.332
 1453W        W 5653   7.263   9.760   0.034
 1454W        W 5654   8.656   3.759   0.392
 1455W        W 5655   8.868  11.188  11.897
 1456W        W 5656   4.997  11.165   0.890
 1457W        W 5657   4.842   3.180   9.112
 1458W        W 5658   1.950   4.769   8.924
 1459W        W 5659   5.427   6.604  10.367
 1460W        W 5660   1.221   1.226   0.043
 1461W        W 5661   6.236   7.945   0.214
 1462W        W 5662   9.784   8.606   0.592
 1463W        W 5663  10.786   2.780   1.191
 1464W        W 5664   0.293  10.352  11.366
 1465W        W 5665   6.011   0.876   0.059
 1466W        W 5666   1.305   9.052  11.642
 1467W        W 5667   2.280   1.461  10.598
 1468W        W 5668   2.129   9.358   9.360
 1469W        W 5669   5.232   9.298   3.248
 1470W        W 5670   6.504   9.480   2.322
 1471W        W 5671   5.957   5.493  10.364
 1472W        W 5672   8.449   3.139   3.156
 1473W        W 5673   3.923   0.327  10.928
 1474W        W 5674   7.249   5.136   9.964
 1475W        W 5675   7.589   5.814  11.333
 1476W        W 5676   2.953   1.307   0.429
 1477W        W 5677   8.407   9.765   1.247
 1478W        W 5678  10.718   5.273  11.762
 1479W        W 5679   3.144   4.604   3.534
 1480W        W 5680   0.563   0.782  11.748
 1481W        W 5681   8.622   6.978  10.267
 1482W        W 5682   0.686   8.145  10.050
 1483W        W 5683   0.325   0.761  11.286
 1484W        W 5684   5.996   9.010   1.088
 1485W        W 5685   4.810   0.363   1.944
 1486W        W 5686   2.853   0.466   8.951
 1487W        W 5687   7.750   3.075   2.895
 1488W        W 5688   9.124   3.355   9.422
 1489W        W 5689   2.887   4.155   3.526
 1490W        W 5690   1.736   2.741  10.607
 1491W        W 5691  10.917   9.884   9.205
 1492W        W 5692   0.304   7.646  10.861
 1493W        W 5693   9.151   6.176   2.261
 1494W        W 5694   7.255   5.625  11.737
 1495W        W 5695   5.944   5.157  11.424
 1496W        W 5696   1.440   6.185   1.613
 1497W        W 5697   1.849   6.118   1.296
 1498W        W 5698  10.923   4.084   0.633
 1499W        W 5699   9.487   5.931   9.859
 1500W        W 5700   2.586   5.260  11.818
 1501W        W 5701   7.957   1.233   3.151
 1502W        W 5702   2.388   0.959  11.931
 1503W        W 5703   6.143   1.273  10.796
 1504W        W 5704   5.208   1.564  10.571
 1505W        W 5705   0.053   0.336   9.483
 1506W        W 5706   0.435   8.429   0.884
 1507W        W 5707   2.105   4.044  11.409
 1508W        W 5708   2.879   0.326   9.927
 1509W        W 5709   0.275   5.576   2.707
 1510W        W 5710   6.464   2.007  11.780
 1511W        W 5711   4.184   2.477  11.911
 1512W        W 5712   3.552   2.075   9.993
 1513W        W 5713   1.019   2.074   0.055
 1514W        W 5714   6.554   8.163   9.457
 1515W        W 5715   0.134  10.436   2.428
 1516W        W 5716   1.351   4.004   1.930
 1517W        W 5717   4.322  11.018   8.988
 1518W        W 5718  10.953   6.721   9.723
 1519W        W 5719   1.649  10.381   3.550
 1520W        W 5720   2.518   5.778  10.026
 1521W        W 5721   4.643   2.307   3.480
 1522W        W 5722   3.310   4.992  10.053
 1523W        W 5723   2.135   4.574  11.408
 1524W        W 5724  11.337   3.335  10.587
 1525W        W 5725   1.671   7.464   1.715
 1526W        W 5726   6.583   0.751   8.879
 1527W        W 5727   7.854   9.896  11.336
 1528W        W 5728  10.660   4.308  11.818
 1529W        W 5729   6.819   0.983  11.512
 1530W        W 5730   3.190   9.764   0.484
 1531W        W 5731   3.734   2.780   1.174
 1532W        W 5732   7.349   5.596  10.837
 1533W        W 5733   7.175   4.819  11.126
 1534W        W 5734   8.522   8.621   4.127
 1535W        W 5735   7.957   5.736  10.061
 1536W        W 5736  10.539   5.989   2.751
 1537W        W 5737   6.448   4.705  10.198
 1538W        W 5738   2.439   0.448   8.629
 1539W        W 5739   3.323   2.728  10.446
 1540W        W 5740   5.679   1.820   8.589
 1541W        W 5741   5.812   6.049   1.251
 1542W        W 5742   1.821   7.433   9.034
 1543W        W 5743   9.928   9.777  11.764
 1544W        W 5744   1.518   3.339   2.677
 1545W        W 5745   7.721   0.065   0.390
 1546W        W 5746   8.546  11.372   2.100
 1547W        W 5747   5.183   3.942   3.577
 1548W        W 5748   3.824   8.506   0.723
 1549W        W 5749   7.954   1.436   2.676
 1550W        W 5750   3.853   0.722   0.917
 1551W        W 5751   8.091   8.479   2.342
 1552W        W 5752  10.504   2.375   2.966
 1553W        W 5753   2.181   8.099   9.968
 1554W        W 5754  10.949   7.197  10.991
 1555W        W 5755   4.578   3.335   8.698
 1556W        W 5756   5.177   3.345   8.745
 1557W        W 5757   3.925   1.325   1.708
 1558W        W 5758  11.095   0.366   2.903
 1559W        W 5759  10.553   5.226   2.244
 1560W        W 5760   7.191   5.269  10.484
 1561W        W 5761   4.847   3.619   2.409
 1562W        W 5762   8.920   1.997   8.975
 1563W        W 5763   8.551   3.371   0.807
 1564W        W 5764   5.716   2.618  11.963
 1565W        W 5765   4.595  10.783   9.386
 1566W        W 5766   0.917   4.777  10.345
 1567W        W 5767   2.826   1.429   2.744
 1568W        W 5768   5.253   5.069   2.015
 1569W        W 5769   3.308   7.483   8.964
 1570W        W 5770   5.596   2.718   1.384
 1571W        W 5771   4.232   0.794   9.038
 1572W        W 5772   5.566   5.042  10.708
 1573W        W 5773  10.336   4.709  10.813
 1574W        W 5774  10.895   9.835   2.199
 1575W        W 5775   7.954   6.558   2.288
 1576W        W 5776   0.376   5.635   1.047
 1577W        W 5777   8.609   0.746   9.862
 1578W        W 5778  10.492   2.365  11.045
 1579W        W 5779   8.023   7.896   1.792
 1580W        W 5780   5.468   3.765   0.758
 1581W        W 5781   9.100   8.401   0.038
 1582W        W 5782   9.715   5.170   9.934
 1583W        W 5783   9.928   9.085   9.558
 1584W        W 5784  11.281   7.218   0.832
 1585W        W 5785   4.711  10.738  10.963
 1586W        W 5786   9.491  10.104   0.366
 1587W        W 5787   0.720   0.634   0.226
 1588W        W 5788   2.781   6.659   1.783
 1589W        W 5789   3.145   0.447  10.497
 1590W        W 5790   4.804   5.195   0.512
 1591W        W 5791   0.559   4.455   9.801
 1592W        W 5792   1.512   1.886   1.124
 1593W        W 5793   4.053   2.624   9.040
 1594W        W 5794   4.416   6.622   9.082
 1595W        W 5795   9.488   0.087   9.932
 1596W        W 5796  10.561   8.539   0.829
 1597W        W 5797  10.814   2.707   0.688
 1598W        W 5798   0.927  11.077   3.221
 1599W        W 5799   9.043  11.362   2.251
 1600W        W 5800  10.422   3.794  10.826
 1601W        W 5801   1.734   7.280  10.677
 1602W        W 5802   0.813  11.475   2.456
 1603W        W 5803   4.001   1.102   1.224
 1604W        W 5804   0.143   4.580   9.208
 1605W        W 5805  11.346  10.812   1.335
 1606W        W 5806   1.206   8.585  11.443
 1607W        W 5807   1.798   3.303   8.969
 1608W        W 5808   4.338   2.248  10.518
 1609W        W 5809   0.709   3.261   3.191
 1610W        W 5810   2.997   9.495   2.923
 1611W        W 5811   7.582   7.220  11.984
 1612W        W 5812   1.642   0.160  10.760
 1613W        W 5813   7.407   9.865  11.559
 1614W        W 5814  11.266   4.614  11.417
 1615W        W 5815  11.057   2.040   8.972
 1616W        W 5816   8.586   6.481  10.239
 1617W        W 5817   0.296  10.949  11.996
 1618W        W 5818   2.700   6.726   4.111
 1619W        W 5819   4.655   7.049  11.553
 1620W        W 5820   9.868   1.228   1.697
 1621W        W 5821   5.325   1.323   2.662
 1622W        W 5822   1.749   4.916   1.857
 1623W        W 5823   3.909   9.978   2.680
 1624W        W 5824   8.867   2.828   2.315
 1625W        W 5825   4.462   8.246   9.044
 1626W        W 5826   6.752   3.601   9.374
 1627W        W 5827   9.824   6.985   9.069
 1628W        W 5828   4.516   2.661   9.232
 1629W        W 5829   8.595   8.875   2.474
 1630W        W 5830   2.206   0.975  10.363
 1631W        W 5831   2.503   4.517   0.584
 1632W        W 5832   6.043   7.970   9.525
 1633W        W 5833   1.540   1.318   2.255
 1634W        W 5834   4.374   1.530   1.860
 1635W        W 5835   1.462   8.643   1.487
 1636W        W 5836   2.865   2.352  11.622
 1637W        W 5837   8.427   1.320   3.391
 1638W        W 5838   5.039   7.175   9.573
 1639W        W 5839   2.574   3.584   2.493
 1640W        W 5840  10.301   7.918   0.413
 1641W        W 5841   3.833   5.986   0.476
 1642W        W 5842   3.836   0.841  10.861
 1643W        W 5843   5.437   3.350   1.627
 1644W        W 5844   7.242   3.763  11.280
 1645W        W 5845   3.532   0.821   3.282
 1646W        W 5846   2.206   1.765  11.025
 1647W        W 5847   2.258   5.222   0.213
 1648W        W 5848   0.028   4.244  10.241
 1649W        W 5849   2.799   5.125   2.608
 1650W        W 5850   7.994   5.075   9.526
 1651W        W 5851   2.864   9.810   0.901
 1652W        W 5852   4.047   9.847   0.044
 1653W        W 5853   9.099   3.951  11.257
 1654W        W 5854  10.746  10.809   9.146
 1655W        W 5855  11.476   0.054   3.551
 1656W        W 5856   0.541   7.537   0.266
 1657W        W 5857   4.717   2.090  10.795
 1658W        W 5858   8.038   3.179   1.175
 1659W        W 5859   9.149   6.196   2.777
 1660W        W 5860   1.595   8.233   8.803
 1661W        W 5861  10.929   5.772   9.958
 1662W        W 5862   5.482   0.288   0.475
 1663W        W 5863   2.192   8.138   2.797
 1664W        W 5864   0.381  11.274   3.714
 1665W        W 5865   1.080   2.255   2.413
 1666W        W 5866   8.032   7.553   2.159
 1667W        W 5867   9.203   1.934   2.651
 1668W        W 5868   2.336   5.566  11.442
 1669W        W 5869   6.319   8.312  10.329
 1670W        W 5870   8.078   8.002  11.564
 1671W        W 5871   0.197   4.199   3.373
 1672W        W 5872  11.443   5.215   2.823
 1673W        W 5873   2.944  10.202   0.458
 1674W        W 5874   6.118   3.073   2.403
 1675W        W 5875   2.118   4.800   2.822
 1676W        W 5876   9.013  11.154  11.358
 1677W        W 5877   4.778  10.041   2.982
 1678W        W 5878   8.369   7.630  10.748
 1679W        W 5879   4.769   9.443   9.771
 1680W        W 5880   8.093   0.648  11.662
 1681W        W 5881   1.676   9.549   9.629
 1682W        W 5882   7.545   1.985   3.517
 1683W        W 5883   8.926   1.441   8.799
 1684W        W 5884   1.992   7.589   9.915
 1685W        W 5885  11.466  10.943  10.668
 1686W        W 5886   0.206   0.302  11.025
 1687W        W 5887   4.264  10.493   9.051
 1688W        W 5888   6.592   4.371   8.442
 1689W        W 5889   8.592  11.402  11.471
 1690W        W 5890   4.742   2.398   8.509
 1691W        W 5891   9.423   4.119   3.150
 1692W        W 5892   9.004   8.777   9.402
 1693W        W 5893   2.077   7.202   1.882
 1694W        W 5894   9.559   2.596  10.871
 1695W        W 5895   3.258   2.916   1.340
 1696W        W 5896   7.090   1.820   9.466
 1697W        W 5897   3.553   3.843  11.810
 1698W        W 5898  11.074   4.975  10.562
 1699W        W 5899   8.954   9.103   3.423
 1700W        W 5900  11.201   9.330   2.472
 1701W        W 5901   4.267   2.460   3.152
 1702W        W 5902   0.335   7.560   0.795
 1703W        W 5903   3.071   6.207   9.377
 1704W        W 5904   1.292   0.318  11.725
 1705W        W 5905  10.436   9.382   1.229
 1706W        W 5906   9.078   3.762  10.786
 1707W        W 5907   5.970   2.316  10.124
 1708W        W 5908  11.303   3.320  10.080
 1709W        W 5909   8.813   7.099   2.589
 1710W        W 5910   8.398   9.894  11.315
 1711W        W 5911   2.793  11.372   0.711
 1712W        W 5912   7.488   2.669   2.690
 1713W        W 5913  10.480   9.562   8.750
 1714W        W 5914   4.576   8.685   3.365
 1715W        W 5915   0.241   1.881   3.266
 1716W        W 5916   2.347   2.829   1.329
 1717W        W 5917   6.126   9.321  11.032
 1718W        W 5918   7.346   7.788   1.425
 1719W        W 5919   6.126   0.547   8.673
 1720W        W 5920   6.467  10.899   8.829
 1721W        W 5921   7.962   0.456   8.826
 1722W        W 5922   7.208   7.348   9.363
 1723W        W 5923   6.010   7.485   0.281
 1724W        W 5924   1.723   7.387   2.976
 1725W        W 5925  10.455   3.126   2.338
 1726W        W 5926   1.367   9.752   3.806
 1727W        W 5927  10.679   6.969   1.390
 1728W        W 5928   8.398   6.904   9.299
 1729W        W 5929   7.054  10.018   9.078
 1730W        W 5930   4.466   8.190   3.264
 1731W        W 5931   4.573   7.097  10.473
 1732W        W 5932   2.854   9.507  10.905
 1733W        W 5933   3.095   9.952  11.093
 1734W        W 5934   8.125   6.716  10.379
 1735W        W 5935  11.303   1.410   1.815
 1736W        W 5936   4.248   7.562   3.136
 1737W        W 5937   2.134   7.134   0.992
 1738W        W 5938   0.355   1.286   9.398
 1739W        W 5939  11.059  11.244   1.244
 1740W        W 5940   4.488   5.334   0.915
 1741W        W 5941   5.234   7.818   1.635
 1742W        W 5942   9.793   5.381   9.439
 1743W        W 5943   9.049   4.826   8.593
 1744W        W 5944  11.328   5.412  10.386
 1745W        W 5945  10.734   0.635   2.569
 1746W        W 5946   8.217   1.476   2.204
 1747W        W 5947   9.602   7.184  11.775
 1748W        W 5948   1.733   0.571  11.507
 1749W        W 5949   8.484   0.333   2.305
 1750W        W 5950  10.956   7.213   3.147
 1751W        W 5951  10.857   9.105   2.768
 1752W        W 5952   1.719   2.665  11.132
 1753W        W 5953   2.597   7.238   2.786
 1754W        W 5954   6.506   0.158   0.956
 1755W        W 5955   8.554   1.063   1.625
 1756W        W 5956   7.064   8.922  10.770
 1757W        W 5957   8.986   7.433   9.065
 1758W        W 5958   4.911   3.250   3.657
 1759W        W 5959   0.323   8.631  11.880
 1760W        W 5960   5.697   2.789   2.365
 1761W        W 5961  11.408   6.038   0.551
 1762W        W 5962   1.433   2.711   2.492
 1763W        W 5963   1.449   7.184   8.539
 1764W        W 5964   7.251   3.246  11.068
 1765W        W 5965  10.831   7.471  11.825
 1766W        W 5966   6.661   0.573   0.692
 1767W        W 5967   4.391   2.027  11.931
 1768W        W 5968  10.121   6.844  10.309
 1769W        W 5969   1.733  11.301  11.949
 1770W        W 5970   2.159   5.617   0.520
 1771W        W 5971   3.097  11.425  10.124
 1772W        W 5972   3.181   6.502   1.158
 1773W        W 5973  10.879   3.794   3.146
 1774W        W 5974   3.690   9.786   0.389
 1775W        W 5975   3.457   3.710   2.096
 1776W        W 5976   3.376  11.186  11.530
 1777W        W 5977   3.102   4.431   1.847
 1778W        W 5978   3.606   4.799   0.183
 1779W        W 5979   2.939   4.257   0.453
 1780W        W 5980   2.475  11.416   1.702
 1781W        W 5981   8.291   3.147   2.231
 1782W        W 5982   6.271  10.910   1.833
 1783W        W 5983   3.259  11.019   2.048
 1784W        W 5984   0.944   3.265   9.974
 1785W        W 5985   8.005  10.480  10.039
 1786W        W 5986   7.395   9.000  10.376
 1787W        W 5987   8.160   5.162   2.721
 1788W        W 5988   5.699  10.355   9.342
 1789W        W 5989   6.718   7.349   9.211
 1790W        W 5990   2.087   5.641   2.458
 1791W        W 5991   5.459   5.038  11.233
 1792W        W 5992   6.210   0.881   1.416
 1793W        W 5993   7.794   4.630   0.764
 1794W        W 5994   4.144   5.128  10.061
 1795W        W 5995   6.142   3.236  11.415
 1796W        W 5996  10.469   0.361   2.227
 1797W        W 5997   4.302  10.563   0.481
 1798W        W 5998   2.842   5.064   9.894
 1799W        W 5999   7.664   7.553   2.721
 1800W        W 6000   0.486   1.490  10.814
 1801W        W 6001   2.450   9.876   9.355
 1802W        W 6002   9.070   0.380   9.948
 1803W        W 6003   8.958  10.525  10.317
 1804W        W 6004   9.349   1.511   9.585
 1805W        W 6005  11.305   0.981   8.855
 1806W        W 6006   8.551   3.334   9.430
 1807W        W 6007   0.195   5.841  11.306
 1808W        W 6008   4.295   8.390  10.054
 1809W        W 6009   1.550   7.761  11.484
 1810W        W 6010   6.885   3.282   0.450
 1811W        W 6011   8.070   0.705   0.971
 1812W        W 6012   9.938  10.987   9.446
 1813W        W 6013   2.669   3.904   2.056
 1814W        W 6014   5.467   5.211   0.857
 1815W        W 6015   9.490   7.037   4.282
 1816W        W 6016   8.121  10.578   9.187
 1817W        W 6017   5.606   5.783  11.947
 1818W        W 6018   9.987  10.019   0.206
 1819W        W 6019   3.730  11.296   2.150
 1820W        W 6020   3.760   1.218  11.945
 1821W        W 6021   6.401   4.379   1.832
 1822W        W 6022   1.919   2.604   2.244
 1823W        W 6023   3.744   0.178   0.771
 1824W        W 6024  11.479   2.143   0.329
 1825W        W 6025   0.818   9.593   0.299
 1826W        W 6026   9.312   5.551  10.508
 1827W        W 6027   4.211   9.629   1.437
 1828W        W 6028   7.900   5.047  11.973
 1829W        W 6029   7.757   8.634   1.278
 1830W        W 6030   0.403   5.203   2.326
 1831W        W 6031   4.974   0.937   9.486
 1832W        W 6032   2.112   7.461   1.409
 1833W        W 6033   5.028   8.493   3.443
 1834W        W 6034   0.573   8.358  10.518
 1835W        W 6035   6.080   4.033  10.156
 1836W        W 6036   9.928   4.575  11.094
 1837W        W 6037   5.955   3.315   0.880
 1838W        W 6038   7.635  10.453   0.742
 1839W        W 6039   5.292   6.986   0.296
 1840W        W 6040   6.065   2.338  11.722
 1841W        W 6041   4.660   4.826  11.593
 1842W        W 6042   1.546   0.830  11.919
 1843W        W 6043   3.660   5.101  11.321
 1844W        W 6044   5.429   5.708   9.100
 1845W        W 6045  10.268   0.487  11.036
 1846W        W 6046   6.217   6.574   3.260
 1847W        W 6047   6.504   5.544  11.077
 1848W        W 6048   8.022   0.572   2.394
 1849W        W 6049   8.697   2.441   9.401
 1850W        W 6050  11.292   7.002  10.264
 1851W        W 6051   9.534   3.244   1.248
 1852W        W 6052   9.093   6.038   4.061
 1853W        W 6053  11.409  10.333   1.537
 1854W        W 6054   7.127   6.839   0.475
 1855W        W 6055   1.927   5.537  10.828
 1856W        W 6056   8.719   3.304  10.863
 1857W        W 6057   9.085   3.724   2.456
 1858W        W 6058   4.105   0.340  11.464
 1859W        W 6059   3.341   2.390   1.331
 1860W        W 6060   0.410   4.168   1.989
 1861W        W 6061   5.228   6.565   1.564
 1862W        W 6062   6.504   7.084   1.809
 1863W        W 6063  10.091   8.156   0.804
 1864W        W 6064   3.142   1.278   8.827
 1865W        W 6065   4.526   9.508   8.506
 1866W        W 6066   6.213   2.207   0.209
 1867W        W 6067  10.766   0.459  10.987
 1868W        W 6068   8.588   9.978   8.871
 1869W        W 6069   1.236   5.274   9.040
 1870W        W 6070   3.650   9.288   8.862
 1871W        W 6071   4.995  11.265   0.000
 1872W        W 6072  10.337   3.081   0.017
 1873W        W 6073   6.887   2.209  11.609
 1874W        W 6074   2.274   1.264  11.197
 1875W        W 6075   7.026   2.679  11.776
 1876W        W 6076   4.164   3.322   0.283
 1877W        W 6077   4.638   3.487   1.252
 1878W        W 6078   5.185   2.169   2.902
 1879W        W 6079   3.547   2.867   9.486
 1880W        W 6080   9.628   6.231   1.876
 1881W        W 6081   3.062   8.700   8.630
 1882W        W 6082   2.601   9.609  11.419
 1883W        W 6083  10.310   9.979  10.449
 1884W        W 6084   0.255   6.796  11.034
 1885W        W 6085   2.339   9.876   0.827
 1886W        W 6086  10.098   9.539   0.378
 1887W        W 6087   0.385   2.302   0.665
 1888W        W 6088   1.936   0.170   0.398
 1889W        W 6089   9.477   9.362   2.687
 1890W        W 6090  11.409   6.598   9.947
 1891W        W 6091   3.074   8.375   2.322
 1892W        W 6092   3.091   8.523  11.796
 1893W        W 6093   5.604   1.637   0.204
 1894W        W 6094   3.203   4.990   4.066
 1895W        W 6095   4.754   6.098  10.225
 1896W        W 6096   1.664   6.790  10.552
 1897W        W 6097   2.175   6.225   1.672
 1898W        W 6098   1.241   3.720   2.939
 1899W        W 6099   4.318   3.152  11.457
 1900W        W 6100   7.463   6.092   8.642
 1901W        W 6101   9.905  10.957  10.398
 1902W        W 6102   5.877   6.958   3.448
 1903W        W 6103   2.279   8.632   1.708
 1904W        W 6104   1.842   6.101   2.458
 1905W        W 6105   1.255   0.972   1.477
 1906W        W 6106   6.985   4.245  11.276
 1907W        W 6107   6.150   1.221   2.734
 1908W        W 6108   8.559   5.308   1.476
 1909W        W 6109   5.800   3.759  10.526
 1910W        W 6110   3.184   0.723  11.424
 1911W        W 6111   4.721   3.697   3.452
 1912W        W 6112   5.925   4.605   3.472
 1913W        W 6113   0.373   1.443   1.261
 1914W        W 6114   9.505  10.053  11.824
 1915W        W 6115   2.802   8.118  10.803
 1916W        W 6116   2.246   3.498  11.454
 1917W        W 6117   3.635   5.240  11.840
 1918W        W 6118   2.518   4.750  10.125
 1919W        W 6119   8.032   9.603   3.476
 1920W        W 6120   1.115   2.219  10.014
 1921W        W 6121   1.655   9.412   9.138
 1922W        W 6122   7.223   4.244   3.258
 1923W        W 6123   2.255   1.462   9.468
 1924W        W 6124   7.283  11.471   3.063
 1925W        W 6125   3.268   5.275   9.633
 1926W        W 6126   2.512   7.715   9.927
 1927W        W 6127   1.409   8.327   2.790
 1928W        W 6128   2.030   5.636   9.998
 1929W        W 6129   2.352   2.320   1.221
 1930W        W 6130   2.206   6.627   9.891
 1931W        W 6131   0.750   9.975  10.511
 1932W        W 6132   4.633   8.018   2.397
 1933W        W 6133   2.108   6.162  10.076
 1934W        W 6134  10.740   5.911   9.401
 1935W        W 6135   0.248   8.450   3.431
 1936W        W 6136   1.416   2.346   1.358
 1937W        W 6137   3.031   5.096   3.394
 1938W        W 6138   0.697   8.536   2.695
 1939W        W 6139   1.435   4.871   1.446
 1940W        W 6140   9.058   8.475   8.970
 1941W        W 6141   3.247   3.987   3.215
 1942W        W 6142   5.598   8.077   3.950
 1943W        W 6143  10.041   4.555   8.890
 1944W        W 6144   8.148   9.757   9.563
 1945W        W 6145  10.747  11.380   9.407
 1946W        W 6146   0.317   6.561   1.626
 1947W        W 6147   7.377   2.187   9.841
 1948W        W 6148   9.639   9.051   8.483
 1949W        W 6149   8.114   5.244   9.978
 1950W        W 6150   3.922   9.510   2.885
 1951W        W 6151   0.331   6.494   1.021
 1952W        W 6152  10.863   9.078   3.297
 1953W        W 6153   0.399   2.705   8.931
 1954W        W 6154   3.262  11.428   0.410
 1955W        W 6155   0.632   5.568  11.279
 1956W        W 6156   6.410   8.431   0.421
 1957W        W 6157   6.519   1.665   2.507
 1958W        W 6158   6.575   2.793  11.079
 1959W        W 6159   2.836   8.403  10.384
 1960W        W 6160   6.028   5.556   2.177
 1961W        W 6161   0.922   2.241  10.558
 1962W        W 6162   4.756  10.562   2.818
 1963W        W 6163   4.647   9.392   0.684
 1964W        W 6164   8.895  10.421   9.795
 1965W        W 6165   2.018   2.155   2.479
 1966W        W 6166   8.679  10.756  10.776
 1967W        W 6167   1.265   0.467   1.354
 1968W        W 6168   5.683   0.953   3.230
 1969W        W 6169   8.423  10.284   2.114
 1970W        W 6170   4.361   1.344   0.348
 1971W        W 6171   0.373   1.254   2.987
 1972W        W 6172   1.208   5.816   8.516
 1973W        W 6173   4.117   3.676   0.646
 1974W        W 6174   7.466   5.072   8.883
 1975W        W 6175   4.763   4.412  11.851
 1976W        W 6176   2.709   3.511  10.885
 1977W        W 6177   3.094   9.493  11.349
 1978W        W 6178   5.673   8.502   1.247
 1979W        W 6179  10.571   0.025  11.772
 1980W        W 6180   9.005   4.418   3.110
 1981W        W 6181  11.127   4.622   9.079
 1982W        W 6182  11.102   0.511   0.904
 1983W        W 6183   1.508   0.622  10.947
 1984W        W 6184   2.765   5.386  10.308
 1985W        W 6185   3.148   5.129   1.110
 1986W        W 6186   8.233   5.255   1.886
 1987W        W 6187   9.834   0.858   3.412
 1988W        W 6188   1.912   8.007   9.158
 1989W        W 6189   2.225   4.329  11.958
 1990W        W 6190   2.817   2.247   0.899
 1991W        W 6191   4.349   9.486  10.088
 1992W        W 6192   8.546   9.878   2.419
 1993W        W 6193   0.118  10.460   1.022
 1994W        W 6194   5.167   7.650  11.083
 1995W        W 6195   1.869   1.368  10.882
 1996W        W 6196   4.147   3.161   1.337
 1997W        W 6197   7.276   9.276   0.152
 1998W        W 6198   6.764   1.387   9.594
 1999W        W 6199  10.209   1.788  11.740
 2000W        W 6200  10.465  10.933   9.543
 2001W        W 6201   1.860   1.347  10.351
 2002W        W 6202   4.807   6.761   0.406
 2003W        W 6203   0.250   6.982   0.739
 2004W        W 6204  11.297   4.537   2.303
 2005W        W 6205  10.080   8.139   2.161
 2006W        W 6206   3.293   5.184   2.410
 2007W        W 6207  10.113   8.783   1.467
 2008W        W 6208   5.603  10.957   2.983
 2009W        W 6209  10.840  11.450   2.747
 2010W        W 6210  10.920  10.315   1.324
 2011W        W 6211   5.063  10.965  11.283
 2012W        W 6212   8.153   8.968   1.320
 2013W        W 6213   8.693   8.150   9.140
 2014W        W 6214   6.061   8.173   1.154
 2015W        W 6215   8.828   3.805   0.906
 2016W        W 6216   2.297   3.785  11.010
 2017W        W 6217   9.786   2.549   1.800
 2018W        W 6218   1.170   4.808   3.046
 2019W        W 6219   4.196   4.588   0.908
 2020W        W 6220   7.078  10.950   0.181
 2021W        W 6221   9.008  11.351   9.997
 2022W        W 6222  11.337   2.362   9.938
 2023W        W 6223   7.243   4.164   1.519
 2024W        W 6224   1.242   6.966   9.999
 2025W        W 6225   3.181   8.923   2.837
 2026W        W 6226   2.476   0.126   1.033
 2027W        W 6227   3.750   5.730   1.966
 2028W        W 6228   9.964   3.605   9.078
 2029W        W 6229   6.042   0.860   1.949
 2030W        W 6230  10.004   3.661   9.974
 2031W        W 6231   8.487  10.050   0.787
 2032W        W 6232   4.847   2.117   0.150
 2033W        W 6233   6.662   8.662   9.399
 2034W        W 6234   1.655   8.869   0.341
 2035W        W 6235   4.377   5.916   2.479
 2036W        W 6236  10.866   1.193   9.091
 2037W        W 6237  11.036   7.400   0.338
 2038W        W 6238  11.199   5.559   9.544
 2039W        W 6239   9.079   7.947  11.250
 2040W        W 6240   5.872   4.841   9.548
 2041W        W 6241   5.757   3.857   9.398
 2042W        W 6242   0.301   5.489   0.528
 2043W        W 6243   9.590   8.861   9.887
 2044W        W 6244   1.884   6.232   0.412
 2045W        W 6245   3.866   7.528  10.110
 2046W        W 6246   7.195   1.714   9.965
 2047W        W 6247   0.161   5.196   0.096
 2048W        W 6248   3.482   0.779   9.535
 2049W        W 6249   3.648   3.273   1.313
 2050W        W 6250  10.462  10.553   8.736
 2051W        W 6251   6.876   4.876  10.704
 2052W        W 6252   9.117   8.593   1.381
 2053W        W 6253   9.598   3.243   8.989
 2054W        W 6254   1.475   5.245  10.921
 2055W        W 6255   4.656   3.670   2.925
 2056W        W 6256   0.659   5.940  11.615
 2057W        W 6257   2.345   4.305  11.027
 2058W        W 6258   1.913   4.673   2.376
 2059W        W 6259   6.442   8.870   8.900
 2060W        W 6260   8.223   3.306  10.994
 2061W        W 6261   9.233   5.608  11.807
 2062W        W 6262   8.376   4.372   1.447
 2063W        W 6263   3.321   4.681  11.315
 2064W        W 6264   9.554   5.074  10.462
 2065W        W 6265   8.530   0.583   0.713
 2066W        W 6266   8.321   8.033   0.429
 2067W        W 6267   5.452   3.209   2.114
 2068W        W 6268   8.146  10.448   0.949
 2069W        W 6269   6.872   0.729  10.747
 2070W        W 6270   8.288   3.781   3.480
 2071W        W 6271   7.578  10.235   2.197
 2072W        W 6272   9.120   5.180   0.996
 2073W        W 6273   8.844  10.030   3.520
 2074W        W 6274   0.078   8.024   8.658
 2075W        W 6275   3.760   7.683   8.835
 2076W        W 6276   9.841   5.035   8.725
 2077W        W 6277   3.519  11.386   3.596
 2078W        W 6278   8.016   3.120  11.441
 2079W        W 6279  10.133   0.414   1.815
 2080W        W 6280   1.044   4.131   1.005
 2081W        W 6281   7.772  11.159  10.537
 2082W        W 6282   9.985   3.672  10.563
 2083W        W 6283   6.635   3.224   8.680
 2084W        W 6284   7.584   8.073   2.733
 2085W        W 6285   4.444   1.335  10.340
 2086W        W 6286   8.358   2.467   0.790
 2087W        W 6287   3.316  10.516   2.956
 2088W        W 6288   4.043   8.684  11.502
 2089W        W 6289  11.208   6.956   1.323
 2090W        W 6290  10.895   2.127   2.733
 2091W        W 6291   5.703   6.520   3.170
 2092W        W 6292   6.230   9.402   4.102
 2093W        W 6293   6.260  10.441   2.923
 2094W        W 6294   2.373   9.507   2.891
 2095W        W 6295   8.890   4.085   8.509
 2096W        W 6296   3.332   8.923  11.996
 2097W        W 6297   4.808   4.789  10.344
 2098W        W 6298   0.284   6.269   3.324
 2099W        W 6299   1.654   3.038   3.533
 2100W        W 6300   9.580   8.043  11.776
 2101W        W 6301   2.330   9.473   2.176
 2102W        W 6302   8.614   8.049  10.981
 2103W        W 6303   2.700   8.198   9.937
 2104W        W 6304   2.875   9.408   1.213
 2105W        W 6305   6.120   1.757   1.482
 2106W        W 6306   6.431   1.861   3.506
 2107W        W 6307  10.338   2.713   2.609
 2108W        W 6308   3.152   3.420   1.282
 2109W        W 6309   7.858   2.594  11.440
 2110W        W 6310   5.983   6.207  11.089
 2111W        W 6311   2.699   3.367   2.965
 2112W        W 6312   0.464  10.459   9.622
 2113W        W 6313  11.325   9.536   1.150
 2114W        W 6314   6.343   7.123  11.489
 2115W        W 6315   0.333   2.591   0.250
 2116W        W 6316   9.456   6.038   1.018
 2117W        W 6317   2.640   8.453   0.029
 2118W        W 6318   4.680   8.100   0.985
 2119W        W 6319   6.870   3.493  11.997
 2120W        W 6320   2.024   5.681   8.788
 2121W        W 6321  10.902   0.302  11.446
 2122W        W 6322   9.093   7.608  10.659
 2123W        W 6323   5.278   0.840   0.322
 2124W        W 6324   7.356  10.523   0.298
 2125W        W 6325  10.715   1.829  11.831
 2126W        W 6326   5.656   6.720   0.062
 2127W        W 6327   9.842   4.073   8.838
 2128W        W 6328   7.701   6.465   9.661
 2129W        W 6329   9.446   2.923   0.332
 2130W        W 6330   8.017   7.183  10.054
 2131W        W 6331   1.786   8.091   2.512
 2132W        W 6332   5.535   3.535  10.919
 2133W        W 6333   9.887   1.762   1.082
 2134W        W 6334   1.388   6.152   0.331
 2135W        W 6335   5.278   8.670   9.481
 2136W        W 6336   3.412   0.519   8.802
 2137W        W 6337   3.357   9.491   1.382
 2138W        W 6338   7.978   2.610   2.862
 2139W        W 6339   2.314   1.580   1.948
 2140W        W 6340   9.879   9.360  11.500
 2141W        W 6341   5.042   3.691   8.376
 2142W        W 6342   0.296   1.335   0.405
 2143W        W 6343   2.572   4.259   9.287
 2144W        W 6344   3.712   5.227   9.854
 2145W        W 6345   5.935   5.810  10.780
 2146W        W 6346   5.645   6.236   2.344
 2147W        W 6347   2.208   0.740   2.269
 2148W        W 6348   8.949   6.681   2.238
 2149W        W 6349   3.661   5.600  11.360
 2150W        W 6350   5.708   1.714  10.682
 2151W        W 6351   0.891   7.929   0.251
 2152W        W 6352  11.313   1.915   2.457
 2153W        W 6353   6.870   4.955   0.876
 2154W        W 6354  11.183   2.442  11.533
 2155W        W 6355   7.097   8.185   2.966
 2156W        W 6356   9.465   6.412   1.361
 2157W        W 6357   1.373   3.618   9.983
 2158W        W 6358   7.714   5.635   2.079
 2159W        W 6359   3.392   9.058   1.067
 2160W        W 6360   2.936   3.879   1.174
 2161W        W 6361   9.418   9.960   0.944
 2162W        W 6362   5.256   8.780   3.107
 2163W        W 6363   8.813   8.204   0.530
 2164W        W 6364   6.954   9.380   2.003
 2165W        W 6365   5.636   1.526   0.723
 2166W        W 6366   7.420   8.064   9.537
 2167W        W 6367   2.061  10.655   3.674
 2168W        W 6368   8.434   1.221   2.839
 2169W        W 6369   9.324   5.542   9.471
 2170W        W 6370  10.478   9.320   0.671
 2171W        W 6371   8.616   5.962   3.600
 2172W        W 6372   2.290   6.324  10.894
 2173W        W 6373   7.976   4.779   3.035
 2174W        W 6374   5.349   2.415   0.293
 2175W        W 6375   9.511   6.489   3.083
 2176W        W 6376  11.276   3.987   0.248
 2177W        W 6377  10.797   3.596   1.533
 2178W        W 6378   6.533   7.391  10.542
 2179W        W 6379   9.613  10.772  11.057
 2180W        W 6380   5.673   0.452   8.953
 2181W        W 6381   1.855   5.862  10.418
 2182W        W 6382   6.945   9.708   9.979
 2183W        W 6383   3.732   1.912   1.176
 2184W        W 6384   6.434   4.217  11.225
 2185W        W 6385   2.447  10.752   2.228
 2186W        W 6386   1.913   8.966   9.030
 2187W        W 6387   5.342   4.058   1.383
 2188W        W 6388   6.163   5.411   3.121
 2189W        W 6389  10.840  10.018  10.441
 2190W        W 6390   4.491   0.804   9.475
 2191W        W 6391   5.685   2.370   3.207
 2192W        W 6392   1.713   6.660  10.052
 2193W        W 6393   4.664   5.675   9.958
 2194W        W 6394   3.014   8.027   2.730
 2195W        W 6395   1.402  10.215   1.669
 2196W        W 6396   0.833   3.122   1.941
 2197W        W 6397   7.846   8.599   2.776
 2198W        W 6398   9.018   3.164  11.603
 2199W        W 6399  10.469   4.176   0.443
 2200W        W 6400   9.079   7.959  11.762
 2201W        W 6401  10.031   1.612   2.947
 2202W        W 6402   0.687   8.859   9.548
 2203W        W 6403   9.270   9.943   1.428
 2204W        W 6404   6.226   2.393   9.182
 2205W        W 6405   8.885   5.551   0.631
 2206W        W 6406  10.536   1.520   8.823
 2207W        W 6407   3.765  10.298   3.530
 2208W        W 6408   3.725   8.463   1.709
 2209W        W 6409   8.698   0.984  10.299
 2210W        W 6410   5.325   7.711   2.241
 2211W        W 6411   7.202  10.012  10.465
 2212W        W 6412  10.260   6.156   9.446
 2213W        W 6413   2.841   1.507   9.939
 2214W        W 6414  10.358   6.049   1.667
 2215W        W 6415  10.114   2.427   3.352
 2216W        W 6416   5.571   2.203  10.428
 2217W        W 6417   0.866   2.663  10.259
 2218W        W 6418   5.646   8.966   1.479
 2219W        W 6419   9.086   6.312   0.396
 2220W        W 6420  11.007   8.345  11.918
 2221W        W 6421  10.895   1.613  10.041
 2222W        W 6422  10.963   8.157   8.729
 2223W        W 6423   3.640   1.667  11.736
 2224W        W 6424   9.971  10.407  11.124
 2225W        W 6425  10.905   4.810   1.163
 2226W        W 6426   9.966   0.847   2.027
 2227W        W 6427   7.444   4.832   3.210
 2228W        W 6428   1.639   7.557   1.192
 2229W        W 6429   7.183   2.860   9.342
 2230W        W 6430  10.563  11.293   1.316
 2231W        W 6431   1.236   9.105   0.190
 2232W        W 6432   1.302   2.963  10.758
 2233W        W 6433   5.668   9.631  11.938
 2234W        W 6434   2.366   9.966   1.890
 2235W        W 6435   5.624  11.107  11.968
 2236W        W 6436   8.919   1.970  10.867
 2237W        W 6437   3.860   6.164  10.035
 2238W        W 6438   7.552   1.479   3.372
 2239W        W 6439   7.163   1.380   1.844
 2240W        W 6440  10.061   3.220   8.732
 2241W        W 6441   3.229   8.150  11.103
 2242W        W 6442   6.525   0.810   1.799
 2243W        W 6443   7.603   1.372   0.323
 2244W        W 6444   6.389   3.213   0.476
 2245W        W 6445   6.017   5.515   1.330
 2246W        W 6446   3.340   0.695  10.936
 2247W        W 6447   4.121   2.386   1.869
 2248W        W 6448   9.844   3.046   0.879
 2249W        W 6449   4.300  10.039   3.311
 2250W        W 6450   3.430   6.078  11.447
 2251W        W 6451   4.940   4.145   4.028
 2252W        W 6452   0.665   6.634   0.374
 2253W        W 6453   9.979   7.644   8.626
 2254W        W 6454   4.764   8.969   2.536
 2255W        W 6455   8.138   9.151  10.773
 2256W        W 6456   3.746   2.399   9.444
 2257W        W 6457   3.941   3.747   9.266
 2258W        W 6458   5.234   2.165   2.373
 2259W        W 6459   9.799   4.720   9.679
 2260W        W 6460   9.380   0.011   9.021
 2261W        W 6461   4.792  10.798   8.915
 2262W        W 6462   3.716   1.240  10.259
 2263W        W 6463   5.954   3.664   9.820
 2264W        W 6464   9.686   4.218   3.592
 2265W        W 6465   0.414   8.166  10.959
 2266W        W 6466   0.035   4.160  10.741
 2267W        W 6467   0.112   8.833   1.352
 2268W        W 6468   3.808   8.110   1.296
 2269W        W 6469   8.155  11.241   0.347
 2270W        W 6470   5.719  11.366   9.479
 2271W        W 6471   2.679   9.958   2.960
 2272W        W 6472  10.310   5.515  11.495
 2273W        W 6473   6.337   0.971   3.612
 2274W        W 6474   1.515   0.538  10.437
 2275W        W 6475   8.250  10.338   8.688
 2276W        W 6476   1.880   5.969   3.309
 2277W        W 6477   5.578   7.949   0.440
 2278W        W 6478   0.655   7.018  11.274
 2279W        W 6479   5.841   5.287   2.680
 2280W        W 6480   6.720   4.065  10.840
 2281W        W 6481   2.181   2.769  10.913
 2282W        W 6482   9.288  10.888   0.800
 2283W        W 6483   9.016   7.006   1.843
 2284W        W 6484   6.486   0.637  11.233
 2285W        W 6485   5.211   0.910  10.893
 2286W        W 6486   3.215   0.848   2.126
 2287W        W 6487   8.127   5.984  11.075
 2288W        W 6488   3.655   2.594   9.914
 2289W        W 6489   5.602   0.304   2.411
 2290W        W 6490   6.069   1.861  11.486
 2291W        W 6491   0.999   1.749   1.054
 2292W        W 6492  10.825   6.260  11.279
 2293W        W 6493   0.813   7.546   9.487
 2294W        W 6494   0.198   8.498   2.928
 2295W        W 6495   3.824   9.409   1.188
 2296W        W 6496   2.321   2.347   9.994
 2297W        W 6497   4.890   4.262   1.767
 2298W        W 6498   6.215   4.677   0.269
 2299W        W 6499  10.239   7.002   0.279
 2300W        W 6500   3.148   4.261   9.628
 2301W        W 6501   0.858   7.616   0.714
 2302W        W 6502   1.102   7.464   0.264
 2303W        W 6503   0.150   4.799   2.547
 2304W        W 6504   6.969   6.582  10.395
 2305W        W 6505   8.450   1.977   0.986
 2306W        W 6506   2.257   0.232   2.959
 2307W        W 6507   9.776   5.771   0.243
 2308W        W 6508   9.955  11.430   0.608
 2309W        W 6509   5.058   0.206  11.726
 2310W        W 6510   1.291   2.956  10.238
 2311W        W 6511   7.646  11.253   3.394
 2312W        W 6512   3.140   9.986   1.361
 2313W        W 6513  10.399  10.923   3.061
 2314W        W 6514   4.037   5.069   0.993
 2315W        W 6515   9.464  11.045   2.301
 2316W        W 6516   2.809   6.795  11.363
 2317W        W 6517   4.340   0.717   1.302
 2318W        W 6518   9.931   5.713  10.745
 2319W        W 6519   0.783   6.546   2.302
 2320W        W 6520   5.653   8.526   2.303
 2321W        W 6521   4.122   9.394  11.835
 2322W        W 6522   2.826   1.877  10.805
 2323W        W 6523   1.896   2.586   1.333
 2324W        W 6524   2.838   2.601   1.308
 2325W        W 6525   2.818   2.810  10.305
 2326W        W 6526  11.427   5.622   9.071
 2327W        W 6527  10.327  10.944   0.960
 2328W        W 6528   1.829   4.629   9.432
 2329W        W 6529  10.845   1.370   0.541
 2330W        W 6530   4.437   7.070   3.100
 2331W        W 6531   4.243   0.347   9.303
 2332W        W 6532   9.031   4.920   3.261
 2333W        W 6533  10.477   8.959   2.431
 2334W        W 6534   8.516   0.731   2.642
 2335W        W 6535   8.201   5.641   2.222
 2336W        W 6536  10.790   0.757   3.047
 2337W        W 6537  10.397   6.145   1.146
 2338W        W 6538   0.962   7.948  10.449
 2339W        W 6539   8.590   6.489  11.131
 2340W        W 6540   0.509   1.003  10.856
 2341W        W 6541   6.020   2.371   9.631
 2342W        W 6542   6.470   8.614  11.481
 2343W        W 6543   3.213  10.719   2.473
 2344W        W 6544  10.853   6.555  10.201
 2345W        W 6545   6.090   7.837   2.775
 2346W        W 6546   0.905   4.174  10.049
 2347W        W 6547   9.392   5.198   8.551
 2348W        W 6548   7.721  11.294   1.257
 2349W        W 6549   6.287  10.715   0.311
 2350W        W 6550   7.828   5.046   3.484
 2351W        W 6551   2.951   7.298  11.271
 2352W        W 6552   9.152   1.828   9.943
 2353W        W 6553   3.691  10.375  10.841
 2354W        W 6554   0.469  10.296   2.817
 2355W        W 6555   0.073   3.731  10.346
 2356W        W 6556   4.735  11.021  10.494
 2357W        W 6557   1.827   1.783  10.596
 2358W        W 6558   1.971   1.827   0.923
 2359W        W 6559   9.249   7.017   0.086
 2360W        W 6560   3.222   9.106  10.053
 2361W        W 6561   5.174   8.837   1.705
 2362W        W 6562   3.171  10.317   9.519
 2363W        W 6563   1.214   6.297   1.182
 2364W        W 6564  11.178   3.457   3.497
 2365W        W 6565   3.356   3.867   0.394
 2366W        W 6566  11.470   2.423   9.009
 2367W        W 6567   0.239   9.785  10.400
 2368W        W 6568   2.125   1.389   8.960
 2369W        W 6569   7.768  10.486   8.815
 2370W        W 6570   7.887   4.099   0.591
 2371W        W 6571  11.199   6.163  10.124
 2372W        W 6572   5.311   1.228   2.115
 2373W        W 6573   9.726   7.606   0.047
 2374W        W 6574   2.681   5.514   0.275
 2375W        W 6575   7.313   3.332   2.841
 2376W        W 6576   5.264   8.981   2.223
 2377W        W 6577   2.812   5.336   4.097
 2378W        W 6578   7.136   8.588   3.905
 2379W        W 6579   3.878   4.133   1.573
 2380W        W 6580  10.436   8.529   2.174
 2381W        W 6581   0.354   9.289   0.306
 2382W        W 6582  11.360   2.150   1.402
 2383W        W 6583   7.535   4.308   0.280
 2384W        W 6584   2.273   1.334   1.486
 2385W        W 6585   3.656   6.743   1.172
 2386W        W 6586   1.158  10.991   8.528
 2387W        W 6587   9.519   3.012   9.466
 2388W        W 6588   1.540  10.354  11.959
 2389W        W 6589   4.341   3.615   2.431
 2390W        W 6590   0.486   4.905  10.596
 2391W        W 6591   3.241   7.371  10.409
 2392W        W 6592   4.117   5.568   9.738
 2393W        W 6593  10.430   5.894   9.847
 2394W        W 6594   2.679   5.044   1.306
 2395W        W 6595   0.841   6.667   8.977
 2396W        W 6596   4.367   3.641  11.403
 2397W        W 6597   2.372   6.601   2.734
 2398W        W 6598   1.642   7.472   0.283
 2399W        W 6599   2.351   9.379   0.218
 2400W        W 6600   0.780   3.473   2.343
 2401W        W 6601   8.177   6.065   2.498
 2402W        W 6602   7.655  10.037   2.700
 2403W        W 6603   6.416   5.225   2.261
 2404W        W 6604   7.123   4.868   1.948
 2405W        W 6605   1.558   6.990   2.713
 2406W        W 6606   4.220   1.885   2.630
 2407W        W 6607   3.643  10.768  11.235
 2408W        W 6608   1.563   2.237   2.236
 2409W        W 6609   6.470   0.686  10.196
 2410W        W 6610   4.703   9.805   1.365
 2411W        W 6611   5.417   9.216   8.498
 2412W        W 6612   0.900   6.666   9.497
 2413W        W 6613   9.562  10.109   3.392
 2414W        W 6614   1.354   4.353  11.729
 2415W        W 6615   1.048   5.925  11.986
 2416W        W 6616   0.549   1.415   2.512
 2417W        W 6617   8.515   9.609   9.236
 2418W        W 6618   7.059   4.650   2.449
 2419W        W 6619   0.968   1.187  10.001
 2420W        W 6620   5.126   2.740   1.152
 2421W        W 6621   0.381   7.909   1.167
 2422W        W 6622   9.475   9.642  10.356
 2423W        W 6623   8.919  11.359   2.779
 2424W        W 6624  10.633   8.087   1.985
 2425W        W 6625   9.405   7.600   2.289
 2426W        W 6626   9.546   8.357   9.004
 2427W        W 6627  10.822  10.139   2.647
 2428W        W 6628   3.407   0.485   0.991
 2429W        W 6629   7.216   8.095  11.427
 2430W        W 6630   7.571   2.776   3.522
 2431W        W 6631   8.396  10.674  10.352
 2432W        W 6632   9.515   2.440   1.330
 2433W        W 6633   5.576  10.537   3.287
 2434W        W 6634  11.388   2.879   9.844
 2435W        W 6635   5.247   2.845   1.756
 2436W        W 6636   7.040   9.030   3.228
 2437W        W 6637  11.431   3.297  11.086
 2438W        W 6638   4.533   2.826   2.441
 2439W        W 6639   6.462   0.848   9.370
 2440W        W 6640   0.775  10.227   1.380
 2441W        W 6641   8.448   5.112   8.563
 2442W        W 6642   2.320   1.236   3.293
 2443W        W 6643  10.258   3.372   0.976
 2444W        W 6644   2.616   8.828   0.461
 2445W        W 6645   5.517   8.975  10.320
 2446W        W 6646   6.384   4.178   1.351
 2447W        W 6647  10.896   6.268   3.012
 2448W        W 6648   8.426   3.840  11.871
 2449W        W 6649   8.894   0.372   0.348
 2450W        W 6650   4.597   2.975   1.166
 2451W        W 6651   9.293   2.203   0.928
 2452W        W 6652   1.979   9.550   1.805
 2453W        W 6653   1.063   9.012   9.212
 2454W        W 6654   4.810   8.052  10.166
 2455W        W 6655   2.371   5.043  11.403
 2456W        W 6656   0.970   2.720   1.632
 2457W        W 6657   4.326   6.034   9.858
 2458W        W 6658   0.526   2.678   2.000
 2459W        W 6659   9.483   3.979   2.664
 2460W        W 6660   3.862   3.796  11.394
 2461W        W 6661   2.229   7.963   2.315
 2462W        W 6662   0.399   4.912  11.112
 2463W        W 6663   8.428   6.911  11.527
 2464W        W 6664   3.448   3.936   9.282
 2465W        W 6665   0.941   3.719  11.737
 2466W        W 6666   8.113   8.158  11.055
 2467W        W 6667   6.412   9.952  11.433
 2468W        W 6668   1.123   1.881   2.825
 2469W        W 6669  10.113  10.954   9.934
 2470W        W 6670   2.695   4.133   8.824
 2471W        W 6671   0.620   7.933   8.684
 2472W        W 6672   5.010   3.162   1.425
 2473W        W 6673   9.766   3.615   8.593
 2474W        W 6674   6.014   8.485  11.302
 2475W        W 6675   5.202   9.325  10.550
 2476W        W 6676  11.094   5.874  10.538
 2477W        W 6677  10.864  10.271  11.384
 2478W        W 6678   4.351   4.217   1.777
 2479W        W 6679   1.321   1.448   1.305
 2480W        W 6680   6.483   3.481   2.682
 2481W        W 6681   7.426  10.096   1.706
 2482W        W 6682   9.974   7.472   9.144
 2483W        W 6683   4.106   3.288   1.843
 2484W        W 6684   6.845   2.032   0.145
 2485W        W 6685   6.267   2.716   0.267
 2486W        W 6686  11.253   6.047  10.993
 2487W        W 6687   2.618   3.862  11.440
 2488W        W 6688   1.731   1.297   9.296
 2489W        W 6689   8.899   2.817   1.278
 2490W        W 6690   6.617   1.818   1.402
 2491W        W 6691   2.929   6.626   2.662
 2492W        W 6692   8.491   4.578  11.560
 2493W        W 6693   0.273   4.507   0.316
 2494W        W 6694   1.835  11.189   9.080
 2495W        W 6695   0.496   4.349  11.900
 2496W        W 6696  10.714   2.252  11.516
 2497W        W 6697   8.351   7.257  11.952
 2498W        W 6698   2.728   1.739   9.486
 2499W        W 6699   6.267   3.034  10.318
 2500W        W 6700   9.914   8.120   3.251
 2501W        W 6701   2.882   2.285  11.120
 2502W        W 6702   9.205  11.440   9.523
 2503W        W 6703   2.654   3.750   3.314
 2504W        W 6704   6.631   8.679   2.130
 2505W        W 6705   1.857   1.609   1.381
 2506W        W 6706   7.136  11.138  10.936
 2507W        W 6707   4.256   2.973  11.922
 2508W        W 6708   1.643  10.710   1.389
 2509W        W 6709   4.818   8.855  11.012
 2510W        W 6710   3.217   5.119  11.564
 2511W        W 6711   5.709  10.423   0.712
 2512W        W 6712   6.503   3.841  11.871
 2513W        W 6713   3.493   4.969   3.642
 2514W        W 6714   2.270  10.780   2.697
 2515W        W 6715   4.720   2.457  11.789
 2516W        W 6716   3.106   8.437   0.315
 2517W        W 6717   0.776   6.517   1.361
 2518W        W 6718  10.032  11.284   1.230
 2519W        W 6719   7.601   2.876  10.537
 2520W        W 6720   7.965  10.301   1.879
 2521W        W 6721   5.423   1.393   1.217
 2522W        W 6722   1.037   6.848   2.634
 2523W        W 6723   3.155   2.727  10.963
 2524W        W 6724   3.042   4.266  10.582
 2525W        W 6725   5.506   1.864   3.679
 2526W        W 6726  10.011   6.640   2.698
 2527W        W 6727   6.644   9.922   1.304
 2528W        W 6728   8.232   7.654  10.242
 2529W        W 6729   4.286  10.118  11.300
 2530W        W 6730   3.513   0.956   1.210
 2531W        W 6731  10.795   1.416   1.929
 2532W        W 6732   3.270   5.757   9.485
 2533W        W 6733   0.968   3.680   0.254
 2534W        W 6734   2.946   1.744   1.017
 2535W        W 6735   9.963   2.801  10.575
 2536W        W 6736   7.167   9.049   2.732
 2537W        W 6737   8.507   6.274  11.955
 2538W        W 6738   2.422   0.300   0.555
 2539W        W 6739  11.250   3.616   1.796
 2540W        W 6740  10.267   9.394   9.766
 2541W        W 6741   7.489   6.638  11.814
 2542W        W 6742   5.434   7.186   8.632
 2543W        W 6743   3.640   4.497  10.742
 2544W        W 6744   0.967   3.298   1.489
 2545W        W 6745   6.329   3.215   3.705
 2546W        W 6746   1.413   1.411  10.136
 2547W        W 6747  10.196   7.138  11.310
 2548W        W 6748   6.688   9.156   9.263
 2549W        W 6749   3.177  10.464  10.873
 2550W        W 6750   2.704   1.950   3.176
 2551W        W 6751   3.706   2.613  10.773
 2552W        W 6752   9.396   4.788  10.023
 2553W        W 6753   8.080   0.896   1.457
 2554W        W 6754   2.409   6.552  10.369
 2555W        W 6755   5.837   6.070   9.167
 2556W        W 6756   0.926   6.017   1.501
 2557W        W 6757   6.993   5.176  11.545
 2558W        W 6758  10.011   2.211   9.923
 2559W        W 6759   3.344   6.962   2.384
 2560W        W 6760   4.656   0.297   1.435
 2561W        W 6761  11.048   0.536   1.932
 2562W        W 6762  10.458   9.948   1.893
 2563W        W 6763   6.474   5.147  11.442
 2564W        W 6764   5.939  11.471  11.819
 2565W        W 6765   9.472   0.177  10.835
 2566W        W 6766   1.252   8.419   1.908
 2567W        W 6767   6.486   4.885   9.706
 2568W        W 6768   5.055   9.039   0.244
 2569W        W 6769  11.250   3.991   1.435
 2570W        W 6770  10.027   6.287   3.093
 2571W        W 6771   1.142   7.090  11.388
 2572W        W 6772   8.664  10.036   0.249
 2573W        W 6773   7.518   2.996   1.223
 2574W        W 6774   2.643   4.627   9.650
 2575W        W 6775   8.297  11.023   9.655
 2576W        W 6776   0.364   6.776   8.612
 2577W        W 6777   7.494   1.206  10.917
 2578W        W 6778   5.285  10.469  11.588
 2579W        W 6779  10.958   0.984   1.720
 2580W        W 6780  10.484   3.513  11.269
 2581W        W 6781   6.890   3.680   0.750
 2582W        W 6782   8.134   2.971   8.727
 2583W        W 6783   1.901   8.813   1.283
 2584W        W 6784   1.728   0.654   1.231
 2585W        W 6785   2.710   9.423   2.514
 2586W        W 6786  10.853   2.771   8.967
 2587W        W 6787   1.155   5.751  11.436
 2588W        W 6788   4.972   5.265   1.034
 2589W        W 6789  10.804   6.242   9.786
 2590W        W 6790  10.637   5.143  10.796
 2591W        W 6791   0.638   9.478  11.450
 2592W        W 6792   7.669   6.074   2.402
 2593W        W 6793   1.409   7.110   1.448
 2594W        W 6794   5.637   2.200  11.461
 2595W        W 6795   5.603  11.139   9.941
 2596W        W 6796   0.319   0.994   2.355
 2597W        W 6797   6.024   5.651  11.249
 2598W        W 6798   0.684   1.505   3.319
 2599W        W 6799   6.728   1.847   3.057
 2600W        W 6800   8.644   6.100   2.738
 2601W        W 6801   4.126   5.099   9.558
 2602W        W 6802   0.003   2.402  11.035
 2603W        W 6803  11.392   4.623  10.926
 2604W        W 6804   1.401   3.249   1.207
 2605W        W 6805   9.424  10.630   9.553
 2606W        W 6806   1.935   4.430   0.915
 2607W        W 6807   8.535   0.225   3.471
 2608W        W 6808   4.927   7.636   9.364
 2609W        W 6809   5.278   2.798   9.803
 2610W        W 6810   8.566   2.339  11.770
 2611W        W 6811   5.796   8.852   8.607
 2612W        W 6812   6.951   2.637   2.157
 2613W        W 6813   4.680   9.410   2.750
 2614W        W 6814   8.933   6.387   3.701
 2615W        W 6815   2.825   8.930   0.002
 2616W        W 6816  10.522   7.456   0.366
 2617W        W 6817   3.078   6.506   9.923
 2618W        W 6818  10.773   4.747   3.122
 2619W        W 6819   0.263  10.060  11.839
 2620W        W 6820   7.556   4.198   8.759
 2621W        W 6821   1.408   3.594   1.574
 2622W        W 6822  10.931   4.428   0.244
 2623W        W 6823   1.191  10.518   1.306
 2624W        W 6824   6.523   6.167   9.701
 2625W        W 6825   3.585   1.070   8.645
 2626W        W 6826   3.326   0.981  11.838
 2627W        W 6827  10.414   6.669   0.977
 2628W        W 6828   2.125   3.202   0.437
 2629W        W 6829   9.003   4.776   2.752
 2630W        W 6830   2.577   9.460   9.608
 2631W        W 6831   1.764   8.443   0.042
 2632W        W 6832   1.243   7.375   9.682
 2633W        W 6833   0.281   5.766   3.165
 2634W        W 6834  10.905   4.826   2.150
 2635W        W 6835   3.550  10.692   0.696
 2636W        W 6836   6.646   6.250   8.804
 2637W        W 6837   1.512   2.230  11.926
 2638W        W 6838   3.852   2.343   1.429
 2639W        W 6839   8.523   5.591  11.309
 2640W        W 6840   7.892   3.646  11.812
 2641W        W 6841   7.986  11.476  10.194
 2642W        W 6842   0.277   0.873   3.355
 2643W        W 6843   6.726   3.109   0.922
 2644W        W 6844   9.838  10.340   3.006
 2645W        W 6845  11.016   0.350   9.473
 2646W        W 6846   2.095   6.897   3.612
 2647W        W 6847   6.461   9.076   0.895
 2648W        W 6848   5.576   5.544  11.471
 2649W        W 6849   8.134   1.831   1.437
 2650W        W 6850   4.619   4.615   9.388
 2651W        W 6851   7.602   9.413  11.771
 2652W        W 6852   8.718   6.864   3.606
 2653W        W 6853   5.710   0.415   0.907
 2654W        W 6854  10.499   5.058   2.787
 2655W        W 6855   0.527   2.103   0.193
 2656W        W 6856   1.456   6.180  10.567
 2657W        W 6857   0.412   0.757   1.909
 2658W        W 6858   5.434   2.953   0.206
 2659W        W 6859   6.179   1.354   0.241
 2660W        W 6860   7.083   3.537  10.322
 2661W        W 6861   6.037   6.097   3.280
 2662W        W 6862   4.964   2.725   0.230
 2663W        W 6863  10.873   0.443  11.937
 2664W        W 6864  10.400   5.199   0.166
 2665W        W 6865   6.418   6.154   0.351
 2666W        W 6866  11.131   3.956  10.435
 2667W        W 6867   5.599   8.090   2.623
 2668W        W 6868   5.963   8.026   2.267
 2669W        W 6869   4.036   5.983  11.998
 2670W        W 6870   1.834   6.958  11.954
 2671W        W 6871  11.228   6.440   0.308
 2672W        W 6872   6.840   2.186   1.891
 2673W        W 6873   1.050   0.778  11.845
 2674W        W 6874   8.241   7.196  10.507
 2675W        W 6875   1.768   2.258  10.757
 2676W        W 6876   6.220   9.937   2.253
 2677W        W 6877   9.102   0.904   9.983
 2678W        W 6878   6.884   9.091  10.286
 2679W        W 6879   6.712   0.702   2.250
 2680W        W 6880   9.985   4.178  11.401
 2681W        W 6881   9.940   6.683   1.736
 2682W        W 6882   8.580  10.868  11.267
 2683W        W 6883   7.194   4.657   4.104
 2684W        W 6884  10.914   2.139  10.155
 2685W        W 6885   9.370   4.288  10.115
 2686W        W 6886   3.830   6.633   1.659
 2687W        W 6887   5.621   1.781  11.732
 2688W        W 6888   4.331   6.913   9.730
 2689W        W 6889   3.022  11.417   1.733
 2690W        W 6890   8.462   8.898  10.429
 2691W        W 6891   3.849  11.072  11.677
 2692W        W 6892   6.578   7.851  11.819
 2693W        W 6893   4.174   2.179  11.486
 2694W        W 6894   8.078   3.811  10.902
 2695W        W 6895   5.745   2.911   1.839
 2696W        W 6896   6.504   7.781   1.121
 2697W        W 6897   8.727   5.153  11.099
 2698W        W 6898   0.731   5.564   2.506
 2699W        W 6899   3.655   0.524  11.317
 2700W        W 6900   5.160  11.005  10.784
 2701W        W 6901   2.865   8.954   0.921
 2702W        W 6902   8.055   2.756  10.284
 2703W        W 6903   7.058   0.778   0.968
 2704W        W 6904   4.757   7.178   2.681
 2705W        W 6905   6.724   3.702   2.233
 2706W        W 6906  10.067   1.477  10.756
 2707W        W 6907   4.785  10.020   3.515
 2708W        W 6908   8.864   5.621   2.651
 2709W        W 6909   8.256   4.252   3.248
 2710W        W 6910   1.773   6.538  11.002
 2711W        W 6911   0.821   1.828   2.419
 2712W        W 6912   1.318   7.552  10.440
 2713W        W 6913   8.826   7.101  11.783
 2714W        W 6914   0.007   3.774   2.228
 2715W        W 6915   4.728   6.693   1.428
 2716W        W 6916   7.490   4.089   2.848
 2717W        W 6917   7.787  10.686  11.096
 2718W        W 6918   7.899   7.681   1.265
 2719W        W 6919   0.813   6.433  10.487
 2720W        W 6920   7.501   4.692   9.949
 2721W        W 6921   6.636   0.907   3.206
 2722W        W 6922   6.038   5.628   0.307
 2723W        W 6923   9.063   6.730   3.241
 2724W        W 6924   5.518   8.939   0.945
 2725W        W 6925   5.553  10.810  11.276
 2726W        W 6926   6.542  10.920   1.416
 2727W        W 6927   9.045   9.971   9.639
 2728W        W 6928   2.861   6.077   3.320
 2729W        W 6929   3.208   5.531  10.089
 2730W        W 6930   8.269   6.017   9.646
 2731W        W 6931   2.145   5.577   3.522
 2732W        W 6932   5.148   3.607   1.196
 2733W        W 6933   5.581   9.349   9.338
 2734W        W 6934   7.578  10.005   0.421
 2735W        W 6935  10.611   4.539   8.834
 2736W        W 6936   2.585   9.010   1.826
 2737W        W 6937   2.796   7.696  11.683
 2738W        W 6938  11.277  11.441  10.341
 2739W        W 6939   7.581  10.579   1.714
 2740W        W 6940   0.433   9.112   2.237
 2741W        W 6941   4.731  10.226  10.951
 2742W        W 6942   1.865   0.066  11.521
 2743W        W 6943   9.029   6.744  10.981
 2744W        W 6944   3.773   2.679   0.126
 2745W        W 6945   7.842   9.816   1.818
 2746W        W 6946  10.235   5.054  11.686
 2747W        W 6947  10.857   2.892   3.146
 2748W        W 6948   7.119   8.714  10.015
 2749W        W 6949  10.334   7.696   2.127
 2750W        W 6950   6.979   1.267  10.049
 2751W        W 6951   9.167   0.371   2.167
 2752W        W 6952   4.469  11.381   3.363
 2753W        W 6953   8.857   3.573  10.373
 2754W        W 6954  11.496   7.998   1.458
 2755W        W 6955   7.471   7.236   3.079
 2756W        W 6956   5.221  10.777   0.622
 2757W        W 6957  10.680   7.147  11.426
 2758W        W 6958   1.787   9.796   0.538
 2759W        W 6959   2.198   1.963  10.307
 2760W        W 6960   8.491   7.682   1.848
 2761W        W 6961   8.402   4.224  10.794
 2762W        W 6962   2.134   9.843   1.420
 2763W        W 6963   5.077   7.766   0.386
 2764W        W 6964   3.148  11.423  10.621
 2765W        W 6965   5.286   6.912   9.946
 2766W        W 6966   8.644   5.823   1.365
 2767W        W 6967   1.732   8.610  11.408
 2768W        W 6968   1.881   9.385   1.222
 2769W        W 6969   7.550   9.172   9.454
 2770W        W 6970   2.367   6.947   3.141
 2771W        W 6971   1.912   9.048   3.254
 2772W        W 6972   0.861   9.027   2.512
 2773W        W 6973   2.633  11.369  10.891
 2774W        W 6974   6.222  10.419  11.255
 2775W        W 6975   1.236  11.471   1.246
 2776W        W 6976   8.047   7.591   8.815
 2777W        W 6977   6.490   6.735  11.766
 2778W        W 6978   4.272   3.880   8.825
 2779W        W 6979   2.659  10.137   0.020
 2780W        W 6980   6.863   6.527   2.458
 2781W        W 6981   1.088   7.143   1.842
 2782W        W 6982   0.743   8.368   9.384
 2783W        W 6983   7.522   2.550   0.687
 2784W        W 6984   3.529   9.988   9.651
 2785W        W 6985   9.742   1.444   3.373
 2786W        W 6986   9.020   6.163   1.335
 2787W        W 6987   7.741   4.258   2.406
 2788W        W 6988   5.572   5.762   0.482
 2789W        W 6989   2.662   5.086   8.914
 2790W        W 6990   9.905  11.191   2.532
 2791W        W 6991   4.784   0.644   9.892
 2792W        W 6992   1.337   4.431  10.228
 2793W        W 6993   1.358   1.802   9.821
 2794W        W 6994   3.880   8.078   3.055
 2795W        W 6995   3.976   6.435   2.675
 2796W        W 6996  11.271   8.575   9.488
 2797W        W 6997   2.222   7.690   1.879
 2798W        W 6998   5.633   4.263  10.299
 2799W        W 6999   5.244  10.783   8.668
 2800W        W 7000  11.273   2.842  11.225
 2801W        W 7001  10.905   8.499   9.104
 2802W        W 7002   2.514   5.546   8.715
 2803W        W 7003   0.180   9.138  10.846
 2804W        W 7004   9.088   5.527   8.969
 2805W        W 7005   2.640   9.584   3.319
 2806W        W 7006   5.820   8.877  10.998
 2807W        W 7007   0.378   8.948   0.838
 2808W        W 7008   8.563   9.778  10.311
 2809W        W 7009   4.495   4.003  11.729
 2810W        W 7010   6.877   2.346  11.115
 2811W        W 7011   0.427   3.980  10.042
 2812W        W 7012   4.180   0.407   0.018
 2813W        W 7013   4.867   2.760  11.385
 2814W        W 7014   1.769   0.933  10.650
 2815W        W 7015   6.097   5.078   9.973
 2816W        W 7016   9.540   9.896   2.433
 2817W        W 7017  11.483   0.311   1.661
 2818W        W 7018   8.910   1.790   2.224
 2819W        W 7019  11.049   0.017   1.705
 2820W        W 7020   2.837   8.568  11.106
 2821W        W 7021   6.425   3.630  10.945
 2822W        W 7022  10.337   9.161  11.343
 2823W        W 7023   4.129   1.487   3.329
 2824W        W 7024   5.182   4.177   0.011
 2825W        W 7025   1.876   1.874   3.117
 2826W        W 7026   3.296   8.606  11.333
 2827W        W 7027   6.632   6.650   3.583
 2828W        W 7028   2.756   0.003   2.377
 2829W        W 7029   1.104   5.397   0.764
 2830W        W 7030   9.984   1.210  10.307
 2831W        W 7031   2.891   5.893  10.369
 2832W        W 7032   4.855   9.520   0.205
 2833W        W 7033   6.220   5.812   9.435
 2834W        W 7034   5.623   1.907   9.604
 2835W        W 7035   0.456   0.937   1.388
 2836W        W 7036   9.088   5.065   4.271
 2837W        W 7037   6.633   2.530   4.213
 2838W        W 7038   3.255   0.520   2.864
 2839W        W 7039   0.275   2.164   2.801
 2840W        W 7040   6.449  11.163   0.981
 2841W        W 7041   4.545   8.583   0.184
 2842W        W 7042   8.118  10.040   9.119
 2843W        W 7043   0.876  11.066   3.729
 2844W        W 7044   9.976  10.291  11.758
 2845W        W 7045   2.634   8.170   3.045
 2846W        W 7046   9.937   6.245   1.455
 2847W        W 7047   3.253   9.244   2.398
 2848W        W 7048   8.337   0.773   8.976
 2849W        W 7049   0.021   0.656   1.216
 2850W        W 7050   5.207  10.158  10.729
 2851W        W 7051   8.897   9.525   0.413
 2852W        W 7052   9.340   2.281  10.095
 2853W        W 7053   5.724   7.083   9.051
 2854W        W 7054   6.610   9.519   2.827
 2855W        W 7055   8.428   9.116   1.743
 2856W        W 7056   4.527   9.751  10.959
 2857W        W 7057   4.360   9.574  11.427
 2858W        W 7058   4.152  10.030   0.515
 2859W        W 7059   7.960  10.017   0.782
 2860W        W 7060   4.321   1.428  11.039
 2861W        W 7061   8.974   0.656   9.503
 2862W        W 7062   7.578  10.375   1.252
 2863W        W 7063   0.433   9.930   9.459
 2864W        W 7064  10.842   0.236   1.284
 2865W        W 7065   2.792   7.358  10.164
 2866W        W 7066   9.918   6.529   0.254
 2867W        W 7067  10.350   1.311   9.251
 2868W        W 7068   8.405   5.076  11.469
 2869W        W 7069   7.442   0.928   9.141
 2870W        W 7070   8.764   7.569  11.057
 2871W        W 7071   0.759   2.299   9.639
 2872W        W 7072   2.151   9.057   2.802
 2873W        W 7073   8.427   3.254   8.407
 2874W        W 7074   0.322   1.753  10.039
 2875W        W 7075   8.379   4.191   0.457
 2876W        W 7076   6.187   5.700   0.863
 2877W        W 7077   6.101   0.963   8.994
 2878W        W 7078   6.057   7.413   9.792
 2879W        W 7079   2.325   0.225  11.356
 2880W        W 7080   4.338   6.798   2.667
 2881W        W 7081   2.076   7.878   1.061
 2882W        W 7082   8.040   9.253   9.569
 2883W        W 7083   7.641   6.790  11.337
 2884W        W 7084  10.843  11.445   0.216
 2885W        W 7085   2.217   7.452   3.075
 2886W        W 7086   2.390   5.326   2.195
 2887W        W 7087   3.290   4.728   8.947
 2888W        W 7088   2.180   2.830   9.281
 2889W        W 7089  10.494  10.019   3.447
 2890W        W 7090   8.865   0.624   8.972
 2891W        W 7091   3.415  10.926   3.875
 2892W        W 7092   0.117   1.465   2.238
 2893W        W 7093   6.805   7.980  11.181
 2894W        W 7094   2.680  10.703  10.392
 2895W        W 7095   4.599   4.050   2.612
 2896W        W 7096   8.167   3.703   0.294
 2897W        W 7097   2.407   7.559   0.668
 2898W        W 7098   6.450   9.397  10.343
 2899W        W 7099   4.092   6.446  11.265
 2900W        W 7100  10.758   5.345  11.252
 2901W        W 7101   0.869   6.709  11.618
 2902W        W 7102   0.273   0.414   9.942
 2903W        W 7103   7.142  11.368   3.539
 2904W        W 7104   5.966   8.023  11.014
 2905W        W 7105   7.403   9.582   1.856
 2906W        W 7106   5.660  11.283   1.295
 2907W        W 7107   7.938   3.710  10.405
 2908W        W 7108   2.245   1.182   2.777
 2909W        W 7109   0.054   4.165   2.581
 2910W        W 7110   4.052   3.421   8.773
 2911W        W 7111   9.410   6.556   3.590
 2912W        W 7112   5.364  11.295   1.716
 2913W        W 7113   9.023   2.277   1.366
 2914W        W 7114   8.922   9.037   1.564
 2915W        W 7115   9.982   0.447   2.383
 2916W        W 7116   0.341   9.293   1.207
 2917W        W 7117   0.680   9.518   1.985
 2918W        W 7118   5.036   9.601   8.463
 2919W        W 7119   0.333   8.041   3.161
 2920W        W 7120   8.047   9.494   2.479
 2921W        W 7121  11.328  11.377   2.527
 2922W        W 7122   7.039   2.814   4.061
 2923W        W 7123   4.785  10.781  10.045
 2924W        W 7124   6.438   2.371  10.847
 2925W        W 7125   5.205   6.909   3.590
 2926W        W 7126   4.054  11.068  11.197
 2927W        W 7127   2.743  11.117   2.031
 2928W        W 7128  10.579   0.452   0.903
 2929W        W 7129   5.247   2.773   0.660
 2930W        W 7130   0.241   6.935   1.275
 2931W        W 7131   0.609   1.784   2.892
 2932W        W 7132   0.927   7.674  10.005
 2933W        W 7133   1.529   2.028  10.269
 2934W        W 7134   0.176   9.544   2.117
 2935W        W 7135   2.882   2.095   0.059
 2936W        W 7136   8.382   6.756   0.021
 2937W        W 7137  10.626   8.573  10.419
 2938W        W 7138   2.006   9.360  11.775
 2939W        W 7139   6.200  10.480  11.790
 2940W        W 7140   0.294   3.380   2.359
 2941W        W 7141   7.323   2.415  11.413
 2942W        W 7142   3.300   5.687   2.865
 2943W        W 7143   3.632   4.306   3.045
 2944W        W 7144  11.056   0.899  10.953
 2945W        W 7145   3.216   5.172   2.913
 2946W        W 7146   0.873   9.509  10.329
 2947W        W 7147  10.360   0.427   0.024
 2948W        W 7148   5.123  10.164   2.567
 2949W        W 7149   9.561   5.013   2.675
 2950W        W 7150   9.575   7.013   8.619
 2951W        W 7151   2.658   1.948   1.858
 2952W        W 7152   3.877   1.443   9.455
 2953W        W 7153  10.886   5.682   0.747
 2954W        W 7154   3.978  11.293   9.956
 2955W        W 7155   2.706  10.305  10.716
 2956W        W 7156   0.235   5.221   3.276
 2957W        W 7157   7.545   3.365  10.475
 2958W        W 7158   9.852   9.612   9.548
 2959W        W 7159   5.131   9.346   8.912
 2960W        W 7160   5.512   6.335  11.791
 2961W        W 7161   1.234   3.242   0.183
 2962W        W 7162   6.012   1.729   2.459
 2963W        W 7163   0.893  10.353   1.869
 2964W        W 7164   3.609   1.363   2.381
 2965W        W 7165   9.304   2.743   0.975
 2966W        W 7166   7.416   5.031   3.800
 2967W        W 7167   5.131   6.079   0.510
 2968W        W 7168   4.941  10.083   1.703
 2969W        W 7169   9.375   8.142   1.363
 2970W        W 7170   7.945   9.065   9.101
 2971W        W 7171   3.829   5.542   0.240
 2972W        W 7172   1.740   3.136  10.950
 2973W        W 7173   8.971   8.826   0.293
 2974W        W 7174   2.909  10.341   9.079
 2975W        W 7175   9.032   1.457   2.639
 2976W        W 7176   5.017   7.385   8.894
 2977W        W 7177  10.773   3.265   0.893
 2978W        W 7178   2.732   1.936   2.664
 2979W        W 7179   5.856   3.322   9.358
 2980W        W 7180  10.012   9.428   0.861
 2981W        W 7181   8.860   2.942   0.753
 2982W        W 7182   0.156   4.045  11.680
 2983W        W 7183   5.213   1.439  11.068
 2984W        W 7184   2.169   4.272   9.587
 2985W        W 7185   6.733   2.138   2.393
 2986W        W 7186   0.506   0.440  10.385
 2987W        W 7187  10.155   7.095   9.483
 2988W        W 7188   3.537   6.726   9.819
 2989W        W 7189   6.161   6.437   9.962
 2990W        W 7190   2.693   6.774   8.258
 2991W        W 7191   0.342   0.045   1.204
 2992W        W 7192   2.083   4.304   9.079
 2993W        W 7193  11.371   3.892   0.794
 2994W        W 7194   3.704   0.843   9.084
 2995W        W 7195   6.480   4.526  10.771
 2996W        W 7196   8.628  10.475   9.032
 2997W        W 7197   0.098   0.410   3.183
 2998W        W 7198   8.889   4.886  11.498
 2999W        W 7199   9.857  11.425  11.626
 3000W        W 7200   0.467   3.215   8.960
 3001W        W 7201   2.199   0.017  11.988
 3002W        W 7202  10.921   0.416   0.444
 3003W        W 7203   4.898   1.434   9.619
 3004W        W 7204   0.935   1.391   2.858
 3005W        W 7205   4.376   2.374   2.645
 3006W        W 7206   7.259   2.864   3.094
 3007W        W 7207   3.491   9.298   2.826
 3008W        W 7208   4.323   3.687  10.553
 3009W        W 7209  10.729   0.760  10.555
 3010W        W 7210   9.892   7.702   2.967
 3011W        W 7211   1.237   5.783   1.863
 3012W        W 7212   0.744   8.508  11.229
 3013W        W 7213   3.014   5.989   9.872
 3014W        W 7214   1.335   3.161   1.815
 3015W        W 7215   7.484   2.095   0.925
 3016W        W 7216   1.412   8.621   0.948
 3017W        W 7217   4.136   9.109  10.462
 3018W        W 7218   0.687   8.442   3.717
 3019W        W 7219   3.739   4.949  10.327
 3020W        W 7220   9.614   5.147  11.775
 3021W        W 7221   9.939   8.140   2.683
 3022W        W 7222   2.294   1.930   9.242
 3023W        W 7223   5.688   9.029   2.531
 3024W        W 7224   5.107   3.806  10.928
 3025W        W 7225   6.698   2.710   8.553
 3026W        W 7226   4.252   1.121  11.902
 3027W        W 7227   6.530   1.675   8.764
 3028W        W 7228   3.248   5.295  11.050
 3029W        W 7229   2.572   0.617   1.118
 3030W        W 7230   3.821   5.847   1.485
 3031W        W 7231   3.636   4.372   1.176
 3032W        W 7232   5.101   5.695  10.225
 3033W        W 7233   0.709   8.001  11.371
 3034W        W 7234   8.690   7.472  10.373
 3035W        W 7235   4.614   7.946  11.037
 3036W        W 7236  11.193  11.026   1.803
 3037W        W 7237  10.067   5.179   2.440
 3038W        W 7238   6.272   3.278   9.060
 3039W        W 7239   1.377   5.723  10.228
 3040W        W 7240   2.634   1.715  10.354
 3041W        W 7241  10.167   9.584   1.628
 3042W        W 7242   2.629   0.208  11.819
 3043W        W 7243   0.194   2.742   0.832
 3044W        W 7244   3.156   7.550   1.683
 3045W        W 7245   3.820   9.862   3.249
 3046W        W 7246   0.867  10.873  11.966
 3047W        W 7247   6.276   7.690   0.667
 3048W        W 7248   6.007   1.385   8.451
 3049W        W 7249   9.843   5.170  11.311
 3050W        W 7250   9.175   7.938   9.040
 3051W        W 7251   7.971   4.711   2.523
 3052W        W 7252   6.750   8.996  11.191
 3053W        W 7253   7.708   3.643   2.842
 3054W        W 7254   3.173  10.917  11.921
 3055W        W 7255   7.744   7.576  10.356
 3056W        W 7256  11.070  11.465   3.246
 3057W        W 7257   7.065   0.570   9.069
 3058W        W 7258   0.470  10.849  11.534
 3059W        W 7259   9.938   7.591   9.633
 3060W        W 7260   0.903   0.458   0.676
 3061W        W 7261   2.362   7.216   9.897
 3062W        W 7262   1.223   1.183   9.168
 3063W        W 7263   4.371   2.652  11.456
 3064W        W 7264   3.697  11.336   9.076
 3065W        W 7265  10.415   8.169  11.494
 3066W        W 7266  10.941   2.755   0.188
 3067W        W 7267   9.926   4.837   3.461
 3068W        W 7268   8.856   7.243   0.274
 3069W        W 7269   2.784   1.823  11.629
 3070W        W 7270   7.479  10.398   9.801
 3071W        W 7271   9.508   8.894   8.973
 3072W        W 7272   7.431   6.723   3.125
 3073W        W 7273   5.495  10.770   1.912
 3074W        W 7274   1.392   5.255  11.438
 3075W        W 7275   0.023  10.071   2.005
 3076W        W 7276   5.532   0.626  10.153
 3077W        W 7277   5.806   7.556   0.798
 3078W        W 7278   5.261   3.706   2.133
 3079W        W 7279  10.478   1.384   2.875
 3080W        W 7280   8.153   5.056  10.455
 3081W        W 7281   6.698  10.473   1.248
 3082W        W 7282   6.736   3.789  11.312
 3083W        W 7283   6.063  10.991   1.291
 3084W        W 7284   9.881   4.714  11.572
 3085W        W 7285  11.321   9.264   3.406
 3086W        W 7286   0.484   5.902  10.847
 3087W        W 7287   7.448   8.551  11.456
 3088W        W 7288   5.127   5.733   9.710
 3089W        W 7289   8.075   0.014   3.333
 3090W        W 7290   2.652  10.218  10.228
 3091W        W 7291   8.325   0.781  11.216
 3092W        W 7292   9.397   7.370   1.069
 3093W        W 7293   8.925   1.580   9.297
 3094W        W 7294   5.577   4.239   0.943
 3095W        W 7295   2.894   4.673   8.624
 3096W        W 7296   5.166  10.945   9.735
 3097W        W 7297   1.849   6.560   2.774
 3098W        W 7298   4.152   0.000   8.919
 3099W        W 7299   6.543   9.899   8.927
 3100W        W 7300   5.824   6.020  11.544
 3101W        W 7301   0.859   2.705  10.778
 3102W        W 7302   4.600   5.429   1.424
 3103W        W 7303   4.269   7.871  10.072
 3104W        W 7304   2.849   7.493   2.084
 3105W        W 7305   1.401   8.239  10.548
 3106W        W 7306   7.539   2.749   1.668
 3107W        W 7307  11.381   1.291   0.012
 3108W        W 7308   8.004   0.920   1.967
 3109W        W 7309   6.098   0.455  11.786
 3110W        W 7310   5.304  10.505   1.041
 3111W        W 7311   8.082   2.478  11.900
 3112W        W 7312   7.086   4.010   1.064
 3113W        W 7313   3.209   8.711   9.391
 3114W        W 7314   3.585   5.765  11.845
 3115W        W 7315   5.722  10.802   0.374
 3116W        W 7316   4.058   0.858  10.381
 3117W        W 7317  11.425   5.180   9.791
 3118W        W 7318   6.332   4.740  11.748
 3119W        W 7319   1.252   8.546   9.384
 3120W        W 7320   3.293   7.949   0.389
 3121W        W 7321   3.293   8.199   1.297
 3122W        W 7322   1.788  11.215  10.559
 3123W        W 7323   4.589   0.000   0.914
 3124W        W 7324   8.427  11.293   2.595
 3125W        W 7325   6.134   1.331   0.745
 3126W        W 7326   0.880   7.244   3.983
 3127W        W 7327   0.357   3.792   0.959
 3128W        W 7328   3.765   3.167  11.924
 3129W        W 7329   1.637  10.291   9.019
 3130W        W 7330   3.570  11.253   3.091
 3131W        W 7331  11.029   8.739   0.582
 3132W        W 7332   5.716   2.273   9.250
 3133W        W 7333   2.778   4.889   3.805
 3134W        W 7334   6.715  10.523   9.099
 3135W        W 7335   5.733   2.823  10.003
 3136W        W 7336   4.030   4.645   9.859
 3137W        W 7337   4.553   9.080   0.299
 3138W        W 7338   7.763   8.323   9.249
 3139W        W 7339   0.228   0.867  10.367
 3140W        W 7340  11.457   1.173   1.349
 3141W        W 7341  11.134  10.758   3.537
 3142W        W 7342   1.278  11.362  10.501
 3143W        W 7343   6.975   7.881   2.548
 3144W        W 7344   6.560   4.551   2.650
 3145W        W 7345   1.039   4.443   1.401
 3146W        W 7346   4.267  10.339   1.913
 3147W        W 7347   0.647  10.080   0.184
 3148W        W 7348   1.407   9.500  11.018
 3149W        W 7349   8.960   1.080   9.174
 3150W        W 7350   2.880   0.264   0.273
 3151W        W 7351  11.283   8.746   3.357
 3152W        W 7352  11.168   4.545   3.469
 3153W        W 7353  11.157   4.349   9.908
 3154W        W 7354   1.894   1.867   0.029
 3155W        W 7355   6.974   9.790   0.916
 3156W        W 7356   5.315   8.949  10.982
 3157W        W 7357   1.874   3.881   0.868
 3158W        W 7358  10.482   8.457  11.930
 3159W        W 7359   4.402  10.009   9.221
 3160W        W 7360   2.556   1.199   2.370
 3161W        W 7361   8.571   5.560   8.882
 3162W        W 7362   1.554  10.362   0.966
 3163W        W 7363   3.743   1.751  10.425
 3164W        W 7364   5.644   1.661   1.590
 3165W        W 7365   8.171   1.046   2.437
 3166W        W 7366  10.588   9.358   0.175
 3167W        W 7367   6.270   5.094  10.464
 3168W        W 7368   3.589  10.951   9.447
 3169W        W 7369   8.490   2.644   9.987
 3170W        W 7370   2.302   8.654   9.123
 3171W        W 7371  10.860   9.585   3.447
 3172W        W 7372   9.390   4.349   9.596
 3173W        W 7373   5.725   8.026   9.096
 3174W        W 7374   3.156   6.979   1.015
 3175W        W 7375   9.840   4.524  10.137
 3176W        W 7376   2.822   2.796   0.494
 3177W        W 7377   5.512   2.833   3.347
 3178W        W 7378   6.972   0.779  10.248
 3179W        W 7379  11.452  10.960   2.259
 3180W        W 7380   2.060   6.142  11.869
 3181W        W 7381  11.263   7.581   1.614
 3182W        W 7382   1.692   0.682   9.172
 3183W        W 7383  10.608   8.857   1.394
 3184W        W 7384   3.251   8.888   1.990
 3185W        W 7385   6.032   8.285   1.800
 3186W        W 7386   0.336  11.019   1.301
 3187W        W 7387   6.035  10.910  11.390
 3188W        W 7388   9.867   2.196  11.786
 3189W        W 7389   8.883   0.882  10.744
 3190W        W 7390   8.613   3.712   2.656
 3191W        W 7391   1.249   6.528   3.497
 3192W        W 7392   8.868   1.230   9.672
 3193W        W 7393   3.820   7.805  11.424
 3194W        W 7394   8.308   9.559   2.031
 3195W        W 7395   9.298   7.836   1.859
 3196W        W 7396   0.952   9.862   9.387
 3197W        W 7397   8.863   4.559   1.298
 3198W        W 7398   1.094  11.356  11.941
 3199W        W 7399   1.212   1.044   2.562
 3200W        W 7400   5.774   3.230   8.328
 3201W        W 7401   9.951   6.150   9.856
 3202W        W 7402   5.621   0.795   2.232
 3203W        W 7403   2.718   7.186  11.722
 3204W        W 7404   5.746  11.316   0.436
 3205W        W 7405   2.646   2.895   9.448
 3206W        W 7406   3.797   2.655   3.141
 3207W        W 7407  10.962   8.960   9.276
 3208W        W 7408   2.245  11.284   2.676
 3209W        W 7409   9.041   4.721   9.648
 3210W        W 7410   8.086   9.452   1.555
 3211W        W 7411   7.512   8.881   3.079
 3212W        W 7412   2.009   7.634   2.635
 3213W        W 7413   8.700  11.342   0.372
 3214W        W 7414   0.757   1.578  11.333
 3215W        W 7415   8.425   0.574   1.659
 3216W        W 7416   7.524   7.995   0.992
 3217W        W 7417   4.077   2.797   9.520
 3218W        W 7418   0.809   8.837   0.063
 3219W        W 7419  10.784   4.857  11.442
 3220W        W 7420  11.264   8.178   0.380
 3221W        W 7421   2.725   1.541  11.198
 3222W        W 7422   6.586   0.851   2.707
 3223W        W 7423   4.256   0.979   3.365
 3224W        W 7424  10.822  10.787  10.887
 3225W        W 7425   7.271   1.349   9.598
 3226W        W 7426  10.924   2.554   9.726
 3227W        W 7427   9.447   6.629   0.324
 3228W        W 7428   1.870   2.868   2.698
 3229W        W 7429   3.457   4.372   0.455
 3230W        W 7430   9.564   6.539   0.818
 3231W        W 7431  10.226   1.191   3.294
 3232W        W 7432   7.503   9.442  11.286
 3233W        W 7433   9.935   9.542  10.537
 3234W        W 7434   3.900   9.989   9.294
 3235W        W 7435   3.454   7.980   1.762
 3236W        W 7436  10.591   1.854   9.198
 3237W        W 7437  10.816   0.922   3.506
 3238W        W 7438   3.608   8.944   0.548
 3239W        W 7439   6.978   4.246   2.800
 3240W        W 7440   3.127   3.214   0.445
 3241W        W 7441   6.679   9.202   8.545
 3242W        W 7442   5.988   5.072  11.970
 3243W        W 7443   4.301   8.642   2.567
 3244W        W 7444   6.239  11.308   0.311
 3245W        W 7445   3.656   6.496   2.137
 3246W        W 7446   2.799   4.321   0.957
 3247W        W 7447   1.230  10.016   1.229
 3248W        W 7448  11.327  10.292   9.941
 3249W        W 7449   8.115  10.333  11.285
 3250W        W 7450   0.943   5.600   9.981
 3251W        W 7451   8.448   7.062   9.798
 3252W        W 7452   0.792   7.763  10.909
 3253W        W 7453   3.964   3.202   0.845
 3254W        W 7454   6.385   5.727  10.569
 3255W        W 7455  10.380   9.785   0.878
 3256W        W 7456   0.799   9.969   0.667
 3257W        W 7457   0.407  11.029   9.941
 3258W        W 7458   4.659   4.392  10.041
 3259W        W 7459   0.845   1.242  11.704
 3260W        W 7460  11.474   0.159   0.696
 3261W        W 7461  10.851   1.332   3.207
 3262W        W 7462   1.927  10.387   3.126
 3263W        W 7463   6.299   5.989   1.266
 3264W        W 7464   0.324  11.462  10.231
 3265W        W 7465  10.343   0.383   2.767
 3266W        W 7466   5.352  10.077   0.751
 3267W        W 7467   6.001  11.308   2.903
 3268W        W 7468   2.819   9.374   9.160
 3269W        W 7469   8.417   9.252   3.280
 3270W        W 7470   9.951   2.820   0.414
 3271W        W 7471   9.388   0.049   1.426
 3272W        W 7472   4.992  11.478   2.639
 3273W        W 7473   9.674  11.479   0.100
 3274W        W 7474   8.384   8.689   2.001
 3275W        W 7475   3.345   8.428   2.751
 3276W        W 7476   0.369   6.058   0.730
 3277W        W 7477   4.222   6.549   8.583
 3278W        W 7478   5.041   2.382   9.971
 3279W        W 7479   1.149   8.775   2.888
 3280W        W 7480   2.623   8.658   3.273
 3281W        W 7481   0.356  11.038   8.439
 3282W        W 7482   7.475   1.416   1.162
 3283W        W 7483   1.423   2.104   3.252
 3284W        W 7484   9.957   7.167   9.939
 3285W        W 7485   1.283   0.585   2.368
 3286W        W 7486   2.676   3.472   1.055
 3287W        W 7487  11.353   6.924   0.387
 3288W        W 7488   7.453   8.191   0.284
 3289W        W 7489   6.977  10.174   0.041
 3290W        W 7490   0.459   0.442   1.487
 3291W        W 7491   5.633   3.446   0.175
 3292W        W 7492   8.643   6.035  10.005
 3293W        W 7493   2.238   4.121   1.783
 3294W        W 7494   0.398   2.949  11.855
 3295W        W 7495   7.678   0.094   1.690
 3296W        W 7496   1.922   5.170   2.294
 3297W        W 7497   7.460   2.635   2.176
 3298W        W 7498   1.435   6.927   9.530
 3299W        W 7499   8.442   0.256   2.838
 3300W        W 7500   1.549   9.458   0.848
 3301W        W 7501  11.341   1.619   0.407
 3302W        W 7502   6.507   7.142   9.636
 3303W        W 7503   9.059   8.904  11.256
 3304W        W 7504   3.705   4.704   0.758
 3305W        W 7505   1.800   0.454  10.017
 3306W        W 7506   8.384   8.888   9.424
 3307W        W 7507   1.043   8.008  11.759
 3308W        W 7508   0.321   5.603  10.425
 3309W        W 7509   2.946   9.543   9.950
 3310W        W 7510  10.831   0.653   8.925
 3311W        W 7511   3.235   8.195  10.082
 3312W        W 7512   7.450   0.553   0.270
 3313W        W 7513  11.367   6.521  10.453
 3314W        W 7514   3.140   1.196   1.502
 3315W        W 7515   3.182   7.692  10.804
 3316W        W 7516   6.737   9.052   2.447
 3317W        W 7517   7.982   0.496   0.280
 3318W        W 7518   1.884   3.082   1.277
 3319W        W 7519   4.917  10.342   0.521
 3320W        W 7520  10.286   3.707   8.693
 3321W        W 7521   3.891   2.328   0.908
 3322W        W 7522   7.534   5.651   1.589
 3323W        W 7523   1.356   8.916   1.926
 3324W        W 7524   6.202  10.108   1.187
 3325W        W 7525  10.570   6.088   0.670
 3326W        W 7526   4.041   2.123   3.598
 3327W        W 7527   9.787   3.057   1.849
 3328W        W 7528   0.215   4.529   2.965
 3329W        W 7529   0.491   3.990  10.553
 3330W        W 7530   6.057  10.577   1.025
 3331W        W 7531  10.483  11.197   0.479
 3332W        W 7532  10.355  10.496   9.233
 3333W        W 7533   4.367   6.021  11.205
 3334W        W 7534   9.344   1.013   9.550
 3335W        W 7535   3.048   1.455  10.562
 3336W        W 7536   4.753   6.732   9.537
 3337W        W 7537   4.867   1.245   2.886
 3338W        W 7538  10.732   3.624   2.676
 3339W        W 7539   0.624   9.052  10.519
 3340W        W 7540   8.512   1.458   8.459
 3341W        W 7541   0.756   0.481   3.219
 3342W        W 7542   0.411   2.217   8.744
 3343W        W 7543   6.180   0.034   9.833
 3344W        W 7544   4.121   1.588   1.298
 3345W        W 7545   9.947   6.687  11.249
 3346W        W 7546   4.071   5.013   0.033
 3347W        W 7547   8.059  10.540   1.446
 3348W        W 7548   7.238   5.335   1.045
 3349W        W 7549  11.370   6.012   2.387
 3350W        W 7550   9.420   8.384   2.655
 3351W        W 7551   0.574   7.509  11.308
 3352W        W 7552   7.467   6.055   1.922
 3353W        W 7553   3.060   9.702   3.566
 3354W        W 7554   6.778   4.241   2.285
 3355W        W 7555   3.454   6.529   2.629
 3356W        W 7556   4.985   7.566   1.252
 3357W        W 7557   0.795   8.450  11.734
 3358W        W 7558   7.419   9.915  10.010
 3359W        W 7559   0.909   5.736  10.498
 3360W        W 7560   7.974   9.002   3.292
 3361W        W 7561   5.687   3.125  11.182
 3362W        W 7562  11.380   2.855   2.980
 3363W        W 7563   5.169  10.540  11.059
 3364W        W 7564   2.285   8.556   0.771
 3365W        W 7565   0.373   1.775  11.601
 3366W        W 7566   2.910   7.181  10.769
 3367W        W 7567   8.352   5.653   2.784
 3368W        W 7568   0.989   8.031   1.482
 3369W        W 7569   6.732   9.142   4.165
 3370W        W 7570   1.170  11.129   0.404
 3371W        W 7571   6.640   3.027   0.046
 3372W        W 7572   9.163   6.429   1.803
 3373W        W 7573   2.828   2.935   1.936
 3374W        W 7574   6.547   4.365   9.826
 3375W        W 7575   3.222   3.479   3.161
 3376W        W 7576   4.756   0.746  11.310
 3377W        W 7577   9.381   4.123  10.601
 3378W        W 7578   7.809   3.372   8.682
 3379W        W 7579   3.809   6.492   9.456
 3380W        W 7580  10.333   9.491  11.752
 3381W        W 7581   3.758   4.137   2.583
 3382W        W 7582   4.503   7.326   9.488
 3383W        W 7583   6.946   0.487   9.592
 3384W        W 7584   0.991   6.212   8.780
 3385W        W 7585   1.310   2.465  10.890
 3386W        W 7586   4.897   6.550  10.624
 3387W        W 7587   9.381   2.306  11.638
 3388W        W 7588  10.918   6.726   2.659
 3389W        W 7589   4.230   5.270   1.892
 3390W        W 7590   4.995   2.353   1.957
 3391W        W 7591   5.413   4.953   2.616
 3392W        W 7592   9.832   9.965  11.315
 3393W        W 7593   4.417   7.052   0.594
 3394W        W 7594   8.248   6.979   3.356
 3395W        W 7595  10.799  11.054  11.850
 3396W        W 7596  10.488   6.117   3.253
 3397W        W 7597   5.294   2.124   8.998
 3398W        W 7598   7.034   1.019   8.816
 3399W        W 7599   7.020   2.825  11.287
 3400W        W 7600   6.696   7.035  10.218
 3401W        W 7601   5.204   5.660   0.821
 3402W        W 7602  10.004   7.167  10.837
 3403W        W 7603   9.077   6.235   9.799
 3404W        W 7604   4.125   1.932   1.663
 3405W        W 7605   2.946   8.651   9.916
 3406W        W 7606   0.487   9.466   8.516
 3407W        W 7607   9.898   8.635   8.742
 3408W        W 7608   6.475   9.627   9.365
 3409W        W 7609   3.111   1.670   1.852
 3410W        W 7610   8.407   2.532   8.538
 3411W        W 7611   5.276   1.311   9.289
 3412W        W 7612   4.207   3.076   9.945
 3413W        W 7613   9.518  10.284  10.922
 3414W        W 7614   3.042   3.141  10.649
 3415W        W 7615   3.607   8.550   0.239
 3416W        W 7616   1.402   2.605   9.887
 3417W        W 7617   1.817   7.697  10.393
 3418W        W 7618   4.109   6.741  10.845
 3419W        W 7619   7.820   6.958   1.541
 3420W        W 7620   1.904   2.843   1.780
 3421W        W 7621   8.423   6.310   0.839
 3422W        W 7622   6.647  11.260   2.416
 3423W        W 7623   2.651   2.571   9.065
 3424W        W 7624   2.329   6.892   9.480
 3425W        W 7625   4.297   0.453  10.591
 3426W        W 7626   3.102  10.826   9.549
 3427W        W 7627   7.111   5.001   0.057
 3428W        W 7628  10.783   9.013   0.942
 3429W        W 7629   9.587   1.497   2.625
 3430W        W 7630   4.357   9.814   2.828
 3431W        W 7631   0.713   0.940   2.707
 3432W        W 7632   6.682  10.575   3.205
 3433W        W 7633  10.915  10.901   0.324
 3434W        W 7634  10.953   8.044   2.733
 3435W        W 7635   5.824   6.661  10.905
 3436W        W 7636   8.978   4.415  11.373
 3437W        W 7637   2.192   8.363   9.522
 3438W        W 7638   4.167   3.008   3.254
 3439W        W 7639   2.478   2.219   2.279
 3440W        W 7640   4.189   3.566  10.086
 3441W        W 7641   6.569  10.480  10.160
 3442W        W 7642   3.488   8.784   2.427
 3443W        W 7643   6.506   5.219  11.954
 3444W        W 7644   9.895   2.681   9.596
 3445W        W 7645  10.828   8.942  11.233
 3446W        W 7646   1.309   5.144   0.355
 3447W        W 7647   7.225   6.972   0.964
 3448W        W 7648   2.339   1.082   1.920
 3449W        W 7649   8.728   7.782   0.880
 3450W        W 7650   7.013   3.913  11.729
 3451W        W 7651   7.145   8.552   3.381
 3452W        W 7652   9.782   4.572   1.043
 3453W        W 7653   8.634  11.228   1.294
 3454W        W 7654   1.676   0.827   9.650
 3455W        W 7655   8.145   0.954   3.563
 3456W        W 7656   8.218  10.482  10.811
 3457W        W 7657  10.858   5.758   3.114
 3458W        W 7658   2.362   5.101   3.602
 3459W        W 7659   5.288   7.869  10.291
 3460W        W 7660   1.774   2.692   9.575
 3461W        W 7661   0.084   1.758  10.554
 3462W        W 7662   9.379   2.736   3.037
 3463W        W 7663   3.413   1.251   9.285
 3464W        W 7664   7.124   3.933   1.967
 3465W        W 7665   8.787   5.087   8.923
 3466W        W 7666   0.252   8.305   0.277
 3467W        W 7667   7.680   7.949  11.255
 3468W        W 7668   5.209   6.888   2.393
 3469W        W 7669   2.454   9.490  10.146
 3470W        W 7670   6.709   6.904  10.711
 3471W        W 7671   5.087   4.146   2.325
 3472W        W 7672   0.047   9.637  10.915
 3473W        W 7673   5.907   7.530   3.152
 3474W        W 7674  11.409   8.807   9.050
 3475W        W 7675   7.728   8.570  11.918
 3476W        W 7676   5.129   9.359   1.861
 3477W        W 7677   1.727   9.491   3.013
 3478W        W 7678   3.034   5.262   0.627
 3479W        W 7679   6.036   6.044   0.029
 3480W        W 7680  10.854   4.550   9.541
 3481W        W 7681   9.000   6.694   1.408
 3482W        W 7682   0.768  10.764   1.234
 3483W        W 7683   5.992   0.806  10.349
 3484W        W 7684  11.455   1.296  10.813
 3485W        W 7685   9.566   5.414  10.931
 3486W        W 7686   4.341   9.487   9.465
 3487W        W 7687  10.312   2.805   8.926
 3488W        W 7688   4.039   5.550   2.368
 3489W        W 7689  10.833   8.180  10.118
 3490W        W 7690   4.731   0.842   3.198
 3491W        W 7691   1.394   6.130  11.113
 3492W        W 7692   6.013   6.462  11.770
 3493W        W 7693   9.772   4.022  10.275
 3494W        W 7694   8.325   1.493   0.836
 3495W        W 7695   5.682   5.659   0.974
 3496W        W 7696   3.573   8.306   2.200
 3497W        W 7697   8.540   4.706   3.187
 3498W        W 7698   1.196   8.653   0.435
 3499W        W 7699   8.876  10.463   0.449
 3500W        W 7700   0.785   4.759   2.199
 3501W        W 7701   0.523  10.564  10.936
 3502W        W 7702  10.070   1.715   9.556
 3503W        W 7703   4.296   3.744   9.628
 3504W        W 7704   2.363   3.114   3.280
 3505W        W 7705   3.236   9.586   8.793
 3506W        W 7706   2.373   5.322  10.966
 3507W        W 7707   9.462   7.024   0.672
 3508W        W 7708   7.508   4.582   2.756
 3509W        W 7709  11.068  11.363   8.499
 3510W        W 7710   1.596   8.623   3.191
 3511W        W 7711  10.845   8.368   1.315
 3512W        W 7712   6.759   5.258   1.841
 3513W        W 7713  11.307   5.739   1.916
 3514W        W 7714   8.305  11.179  10.513
 3515W        W 7715   2.799   5.051  10.883
 3516W        W 7716   2.285   6.651  11.282
 3517W        W 7717   1.602   8.518   2.303
 3518W        W 7718   3.076  10.547   0.799
 3519W        W 7719   3.252   5.601   8.988
 3520W        W 7720   1.009  10.715  11.007
 3521W        W 7721   1.817   6.664  11.515
 3522W        W 7722   8.146   8.483   3.176
 3523W        W 7723   4.608   9.040   9.399
 3524W        W 7724  11.348   3.343   9.566
 3525W        W 7725   3.168   4.157   0.009
 3526W        W 7726   9.028   2.319   2.315
 3527W        W 7727   1.250   0.714  11.370
 3528W        W 7728   3.150   4.778   9.557
 3529W        W 7729   5.231   1.393   0.429
 3530W        W 7730   9.330   4.678   2.311
 3531W        W 7731   0.463   0.244   2.855
 3532W        W 7732   0.647   6.338  11.234
 3533W        W 7733   3.683   2.694   2.620
 3534W        W 7734   1.112  10.386   0.721
 3535W        W 7735   6.148   7.694   8.942
 3536W        W 7736   0.733   3.316  11.998
 3537W        W 7737   1.717   9.819   8.827
 3538W        W 7738   4.281   1.851   0.388
 3539W        W 7739   3.361   4.576  10.341
 3540W        W 7740  10.366  10.884   0.071
 3541W        W 7741   6.515   9.436  11.353
 3542W        W 7742   8.158   2.179  11.487
 3543W        W 7743   0.965   3.692  11.234
 3544W        W 7744   4.622   1.511  11.922
 3545W        W 7745   5.237  10.634   9.200
 3546W        W 7746   8.875  10.430   2.285
 3547W        W 7747  11.164   5.218   0.014
 3548W        W 7748   8.011  10.364   2.885
 3549W        W 7749   9.353   5.550   2.484
 3550W        W 7750   1.617   1.851  11.595
 3551W        W 7751   6.395   9.400   8.904
 3552W        W 7752   5.918  10.442  10.389
 3553W        W 7753   7.888   8.906   1.755
 3554W        W 7754  10.980   7.398   1.251
 3555W        W 7755   1.871   8.949   2.383
 3556W        W 7756   4.945   8.289  11.736
 3557W        W 7757  10.184  11.407   0.106
 3558W        W 7758   6.719  11.295   1.897
 3559W        W 7759   4.797   9.925   9.519
 3560W        W 7760   8.612  10.344  11.095
 3561W        W 7761   5.373   7.320   3.295
 3562W        W 7762   6.160   3.701   1.346
 3563W        W 7763   2.736   3.045  11.072
 3564W        W 7764  11.400   5.610   0.838
 3565W        W 7765   8.016   3.252   9.593
 3566W        W 7766   5.131  10.803   3.302
 3567W        W 7767   1.273   0.083   2.243
 3568W        W 7768   1.376   9.105   3.233
 3569W        W 7769   7.169   7.395   2.075
 3570W        W 7770   4.095   6.482  11.790
 3571W        W 7771  11.018   1.861   1.749
 3572W        W 7772   9.301  11.470   3.758
 3573W        W 7773   6.199   2.481   8.667
 3574W        W 7774   6.710   9.920   2.509
 3575W        W 7775   3.592   3.559   8.950
 3576W        W 7776   3.124  10.047  10.001
 3577W        W 7777   8.028   0.241   0.772
 3578W        W 7778   9.991  10.328   8.879
 3579W        W 7779   8.676   2.343   2.704
 3580W        W 7780   0.274   2.393   1.220
 3581W        W 7781   3.694   0.341   9.217
 3582W        W 7782  11.428  11.019   8.709
 3583W        W 7783  11.027   2.316   2.297
 3584W        W 7784   1.856   6.036  10.894
 3585W        W 7785   3.437   8.593   9.837
 3586W        W 7786   2.573   7.098   1.926
 3587W        W 7787   9.919   4.800   0.606
 3588W        W 7788   7.658   8.771   2.296
 3589W        W 7789  11.350  10.565   1.969
 3590W        W 7790   0.961   5.392   1.635
 3591W        W 7791   6.932   1.855   0.631
 3592W        W 7792   1.983   2.269  11.722
 3593W        W 7793   6.522   5.601   1.491
 3594W        W 7794   9.172   3.456  11.203
 3595W        W 7795   3.528   7.433   2.626
 3596W        W 7796   3.586   7.083  10.176
 3597W        W 7797   7.248   6.134  11.001
 3598W        W 7798   4.024   9.394   8.542
 3599W        W 7799   6.207   2.831   0.751
 3600W        W 7800   9.537   9.064  11.766
 3601W        W 7801   2.395   9.145   8.960
 3602W        W 7802   9.245   5.757   3.023
 3603W        W 7803   4.977   6.676  11.244
 3604W        W 7804   4.329   4.744  11.200
 3605W        W 7805   5.375   8.857  11.899
 3606W        W 7806   3.235   7.899   2.243
 3607W        W 7807   8.449   1.797   0.420
 3608W        W 7808  11.411   7.845   2.994
 3609W        W 7809   0.963   8.248  10.852
 3610W        W 7810   1.174   4.279  11.241
 3611W        W 7811   6.121   5.278   9.467
 3612W        W 7812   6.685  10.194   0.848
 3613W        W 7813   6.795   0.303  10.059
 3614W        W 7814   5.654   4.076   9.841
 3615W        W 7815   4.555   1.689   2.988
 3616W        W 7816   8.051   8.136   0.997
 3617W        W 7817   1.986  10.353   0.209
 3618W        W 7818   1.252   2.705   9.365
 3619W        W 7819   6.512   2.605   2.410
 3620W        W 7820   4.083   7.613   9.637
 3621W        W 7821   2.284   5.544  10.455
 3622W        W 7822   9.555   8.266  10.738
 3623W        W 7823   1.883   6.974   9.252
 3624W        W 7824   9.951   0.877   0.599
 3625W        W 7825   6.161   8.497   2.254
 3626W        W 7826  11.328   1.106   0.498
 3627W        W 7827   7.461   7.666   0.244
 3628W        W 7828  11.041   6.149   0.898
 3629W        W 7829   2.138   8.977   0.481
 3630W        W 7830   8.393   6.886   2.315
 3631W        W 7831   3.300   4.938   1.959
 3632W        W 7832  10.963   1.405   1.435
 3633W        W 7833   4.689   1.873   0.924
 3634W        W 7834   5.627   0.628   1.756
 3635W        W 7835   3.226   7.608   3.013
 3636W        W 7836   1.072   7.610  11.361
 3637W        W 7837  10.033   9.940   3.223
 3638W        W 7838   5.751   2.183   2.343
 3639W        W 7839   9.041  10.837   1.524
 3640W        W 7840   6.576   8.200   2.929
 3641W        W 7841   1.811  10.403  10.726
 3642W        W 7842   9.967   8.748   0.084
 3643W        W 7843   1.740   4.349   9.897
 3644W        W 7844   4.295   8.489   0.970
 3645W        W 7845   9.895   5.687  11.247
 3646W        W 7846   0.199   1.718   0.066
 3647W        W 7847   3.702  10.446   9.463
 3648W        W 7848   8.502  10.869   0.459
 3649W        W 7849   5.023   3.892   9.233
 3650W        W 7850   8.029   0.065   2.389
 3651W        W 7851   5.485   7.436   0.391
 3652W        W 7852  10.531   0.918  10.987
 3653W        W 7853   8.060   1.945  11.988
 3654W        W 7854   0.677   0.058  11.052
 3655W        W 7855   8.015  10.443   3.386
 3656W        W 7856   8.554   6.628   3.143
 3657W        W 7857  10.970   8.576  10.877
 3658W        W 7858   1.322   0.212   2.739
 3659W        W 7859   5.022   5.251  10.489
 3660W        W 7860   8.545   4.658  11.068
 3661W        W 7861   2.305   5.243   2.702
 3662W        W 7862   9.353   2.300   9.114
 3663W        W 7863   4.008   1.256   9.005
 3664W        W 7864   2.611   6.583   2.268
 3665W        W 7865   7.287   7.991  10.933
 3666W        W 7866   5.081   3.909   2.770
 3667W        W 7867   4.472   9.869   1.816
 3668W        W 7868   8.362  11.448   9.257
 3669W        W 7869   8.461   0.295   8.905
 3670W        W 7870   0.728   2.215   1.510
 3671W        W 7871   2.890  10.531   9.918
 3672W        W 7872   5.049   3.214   0.410
 3673W        W 7873   9.644   3.522   9.473
 3674W        W 7874  10.056   7.168   2.808
 3675W        W 7875  10.616   2.655  11.822
 3676W        W 7876   5.076   3.099   3.196
 3677W        W 7877   6.323   6.579  10.853
 3678W        W 7878   0.410  10.851   0.832
 3679W        W 7879  11.392   3.089   0.081
 3680W        W 7880   1.249   0.333   9.105
 3681W        W 7881  11.237   2.333   1.851
 3682W        W 7882   3.726   5.220   2.131
 3683W        W 7883   2.352   3.074   1.783
 3684W        W 7884   4.305   9.240  10.951
 3685W        W 7885   6.020   5.313  10.868
 3686W        W 7886   5.640   1.388   3.502
 3687W        W 7887   3.286   8.656  10.831
 3688W        W 7888   8.719   5.155   1.950
 3689W        W 7889   6.234   4.000  10.653
 3690W        W 7890   2.339  10.330   1.314
 3691W        W 7891   4.927   4.206   3.173
 3692W        W 7892   8.139  10.769   0.093
 3693W        W 7893   7.298   2.151  10.902
 3694W        W 7894   2.824  11.029   9.940
 3695W        W 7895   6.497   5.698   1.989
 3696W        W 7896   7.140   7.597  11.279
 3697W        W 7897   4.341   6.002   1.531
 3698W        W 7898   9.699   0.348   3.322
 3699W        W 7899   4.188   9.036   1.741
 3700W        W 7900   9.514   4.499   2.780
 3701W        W 7901   3.402   2.250  10.998
 3702W        W 7902   6.053   5.581   9.873
 3703W        W 7903   2.375   7.961  11.513
 3704W        W 7904   2.263   5.678  11.984
 3705W        W 7905   0.385   6.612   9.198
 3706W        W 7906  10.030   1.023  11.033
 3707W        W 7907   0.466  11.330   1.697
 3708W        W 7908  11.399   2.668  10.340
 3709W        W 7909   7.967   6.663   3.734
 3710W        W 7910   2.692   6.654  10.813
 3711W        W 7911   3.096   5.968   1.983
 3712W        W 7912   5.736   6.748   1.654
 3713W        W 7913  11.375   9.050   2.915
 3714W        W 7914   1.120   2.939  11.770
 3715W        W 7915  11.029   7.912   9.322
 3716W        W 7916   5.664   9.419   1.741
 3717W        W 7917   3.814   2.447  11.241
 3718W        W 7918   9.557   5.171   0.734
 3719W        W 7919   8.535   7.448   1.382
 3720W        W 7920   9.532   3.279  11.561
 3721W        W 7921   2.316   3.560  10.527
 3722W        W 7922   9.712   9.576   3.424
 3723W        W 7923   8.573  11.299  10.956
 3724W        W 7924   7.127   2.662  10.314
 3725W        W 7925   3.132   6.188   2.857
 3726W        W 7926   1.137   0.897   0.449
 3727W        W 7927   8.548   5.653   1.845
 3728W        W 7928  10.075   6.136   2.589
 3729W        W 7929   4.159   7.732  10.933
 3730W        W 7930  10.371  11.474   0.899
 3731W        W 7931   0.119   2.636   8.500
 3732W        W 7932   6.108   2.743  11.304
 3733W        W 7933   4.226   0.057   0.473
 3734W        W 7934   6.248   6.910   1.380
 3735W        W 7935   6.158   4.834   1.782
 3736W        W 7936   7.742   5.525   1.134
 3737W        W 7937   7.280   9.379   0.988
 3738W        W 7938   5.121   9.181   0.738
 3739W        W 7939   1.867  10.045   1.813
 3740W        W 7940   5.293   4.660  10.285
 3741W        W 7941   4.285   3.811   0.177
 3742W        W 7942   3.088   2.598   9.429
 3743W        W 7943   6.961   4.717   9.845
 3744W        W 7944   5.069   9.670   0.674
 3745W        W 7945   5.210   0.862   2.977
 3746W        W 7946   9.390   3.570   2.974
 3747W        W 7947   0.353   6.399  10.725
 3748W        W 7948   0.781  11.269   1.302
 3749W        W 7949   3.266   4.244  11.039
 3750W        W 7950   4.002   0.358  10.179
 3751W        W 7951   0.533   5.677   1.542
 3752W        W 7952  10.861   3.255   0.026
 3753W        W 7953   8.139   8.179   2.739
 3754W        W 7954   6.261   8.279  11.828
 3755W        W 7955   9.079   6.509   9.378
 3756W        W 7956   2.395   3.847   2.885
 3757W        W 7957   3.510  10.792   1.221
 3758W        W 7958   9.636   1.883   9.783
 3759W        W 7959   8.265   4.288   2.424
 3760W        W 7960   9.485  10.775   1.848
 3761W        W 7961   9.531   8.557  11.802
 3762W        W 7962   3.323   1.937   0.279
 3763W        W 7963   3.911   9.049   2.547
 3764W        W 7964   9.342   1.346   3.046
 3765W        W 7965   6.148   0.312  10.268
 3766W        W 7966   7.611   4.592  10.913
 3767W        W 7967  10.820  11.042   0.830
 3768W        W 7968   6.024   8.143   0.636
 3769W        W 7969   6.689   4.682  11.250
 3770W        W 7970   2.183   4.191  10.083
 3771W        W 7971   8.486   3.626   9.976
 3772W        W 7972   0.728   9.752   1.167
 3773W        W 7973   3.053   0.436   2.388
 3774W        W 7974   8.394   3.572  10.562
 3775W        W 7975   2.882   5.244   2.112
 3776W        W 7976   6.127   4.116   9.149
 3777W        W 7977   9.386   5.474   3.448
 3778W        W 7978   2.594   5.550   3.117
 3779W        W 7979   6.903  10.673   8.621
 3780W        W 7980   4.183   5.649  10.227
 3781W        W 7981   6.673   3.125   2.335
 3782W        W 7982   0.808  11.208   9.499
 3783W        W 7983   0.294   7.520   8.776
 3784W        W 7984   7.963   1.876   2.425
 3785W        W 7985   9.782   7.894   0.474
 3786W        W 7986   9.782   5.900   9.441
 3787W        W 7987   3.378   3.324  11.577
 3788W        W 7988   5.681   0.885   2.732
 3789W        W 7989  10.939   9.965   3.111
 3790W        W 7990   2.109   8.280   8.750
 3791W        W 7991   8.581  10.094   9.389
 3792W        W 7992   1.857   6.049   9.128
 3793W        W 7993  11.283   7.483   2.102
 3794W        W 7994  10.056   5.353   1.481
 3795W        W 7995   7.954   8.170   9.709
 3796W        W 7996   8.001   1.939   8.937
 3797W        W 7997   9.850   0.919   2.518
 3798W        W 7998   5.678   9.886   0.407
 3799W        W 7999  10.785   2.720  11.269
 3800W        W 8000   9.767   1.553  11.762
 3801W        W 8001   9.022   2.983  11.109
 3802W        W 8002   3.394   5.682   0.568
 3803W        W 8003   0.706   1.170   9.049
 3804W        W 8004   2.611   2.260  10.407
 3805W        W 8005   1.847   3.606   1.300
 3806W        W 8006   3.623   7.893   9.540
 3807W        W 8007   7.901   7.395  10.814
 3808W        W 8008   5.149   3.440  10.556
 3809W        W 8009   4.609  10.007  10.509
 3810W        W 8010   7.960   3.838   9.042
 3811W        W 8011   3.620   8.588   1.199
 3812W        W 8012   6.735   7.453   2.324
 3813W        W 8013   7.622   7.451  11.235
 3814W        W 8014   3.118  10.457  10.363
 3815W        W 8015   0.603   2.866   1.184
 3816W        W 8016   9.784   2.361  10.376
 3817W        W 8017   8.471   9.380  11.137
 3818W        W 8018   8.499  10.575   9.533
 3819W        W 8019   4.487  11.315  10.135
 3820W        W 8020  11.223   9.133  11.529
 3821W        W 8021   1.643   9.426   3.512
 3822W        W 8022   8.086   5.353   8.249
 3823W        W 8023   2.035   8.872   9.533
 3824W        W 8024   8.749   5.338   3.365
 3825W        W 8025   8.415   8.225   1.785
 3826W        W 8026  10.962   1.224   9.654
 3827W        W 8027   9.095   8.062   2.408
 3828W        W 8028   3.963   9.974   1.767
 3829W        W 8029   8.215   5.550   9.410
 3830W        W 8030  10.686   2.252   1.914
 3831W        W 8031   7.508   4.490   1.234
 3832W        W 8032   9.478   6.952  10.826
 3833W        W 8033   0.444   6.848   2.551
 3834W        W 8034  10.383   6.552   0.474
 3835W        W 8035   1.782   4.093  11.817
 3836W        W 8036   4.661   4.087  10.901
 3837W        W 8037   0.509   4.989   3.674
 3838W        W 8038   1.837  10.252   1.362
 3839W        W 8039   7.204  11.417   0.352
 3840W        W 8040   6.228   6.949  10.022
 3841W        W 8041  10.003   9.769   8.801
 3842W        W 8042   2.449  10.471   1.794
 3843W        W 8043   8.950   2.995   0.228
 3844W        W 8044   9.435   0.409   9.341
 3845W        W 8045  10.278   1.300   2.006
 3846W        W 8046   0.763   3.605  10.770
 3847W        W 8047   7.004   1.616   2.685
 3848W        W 8048   8.507  10.455  11.577
 3849W        W 8049  10.982  10.300  10.867
 3850W        W 8050   9.478   1.921  11.979
 3851W        W 8051   3.534   3.255   2.362
 3852W        W 8052   9.989   0.366   0.357
 3853W        W 8053   3.831   8.966  11.951
 3854W        W 8054   8.983  10.368   1.352
 3855W        W 8055   3.746   0.232   0.263
 3856W        W 8056   2.296   1.438  10.045
 3857W        W 8057   9.382   3.637  10.356
 3858W        W 8058   6.944   9.490   9.528
 3859W        W 8059   8.588   5.118   4.126
 3860W        W 8060  10.134   0.832   1.499
 3861W        W 8061   1.428   1.482   2.716
 3862W        W 8062   0.772   9.360   1.512
 3863W        W 8063   7.353  10.939   0.736
 3864W        W 8064   6.357   2.101   2.724
 3865W        W 8065   9.603   1.858   2.998
 3866W        W 8066   4.989   3.321   1.913
 3867W        W 8067   2.500   1.397  11.643
 3868W        W 8068   7.191   3.477   2.227
 3869W        W 8069   8.503  10.957   9.185
 3870W        W 8070  10.472  10.994  10.546
 3871W        W 8071   9.830   3.567   1.820
 3872W        W 8072  11.435   6.644   8.927
 3873W        W 8073   0.192   9.563   3.682
 3874W        W 8074   3.569   5.395   1.365
 3875W        W 8075   6.066   1.816   9.381
 3876W        W 8076   4.644   4.320   0.954
 3877W        W 8077   5.986   1.800   0.484
 3878W        W 8078   3.146   3.482   9.159
 3879W        W 8079   6.086   7.444  10.788
 3880W        W 8080   4.546   8.875  10.597
 3881W        W 8081  10.996   9.301   0.552
 3882W        W 8082   5.071   4.592   0.769
 3883W        W 8083   4.465   8.750   9.003
 3884W        W 8084   5.487   1.873   3.159
 3885W        W 8085  10.346  10.156  11.356
 3886W        W 8086   5.769   4.369   9.421
 3887W        W 8087   9.495   7.387   9.001
 3888W        W 8088   4.775   0.678  10.772
 3889W        W 8089   4.309   4.256   9.601
 3890W        W 8090   7.286   1.845   3.085
 3891W        W 8091   1.353  10.399  11.493
 3892W        W 8092   4.455   1.209   1.464
 3893W        W 8093   4.793   3.654   9.614
 3894W        W 8094   3.375   7.146   3.268
 3895W        W 8095   8.976  10.741  11.698
 3896W        W 8096  11.201   5.611  11.295
 3897W        W 8097   4.828  10.626   0.940
 3898W        W 8098  11.335   0.131   0.195
 3899W        W 8099   4.116   9.855   9.741
 3900W        W 8100   3.530   7.960   2.672
 3901W        W 8101   3.126   9.888   0.006
 3902W        W 8102   2.700   9.096   9.940
 3903W        W 8103   9.452   9.295  10.760
 3904W        W 8104   5.794   4.953   0.480
 3905W        W 8105   8.434   0.468  11.988
 3906W        W 8106  10.827  11.304  11.358
 3907W        W 8107   8.927   5.885  11.460
 3908W        W 8108   9.566   3.584  10.858
 3909W        W 8109   6.299   5.042   2.757
 3910W        W 8110   5.236  10.161   9.430
 3911W        W 8111   0.425   3.270   0.850
 3912W        W 8112  11.350   1.424   3.100
 3913W        W 8113   8.368   1.279  10.560
 3914W        W 8114   4.924  10.835  11.739
 3915W        W 8115   1.753   0.178   9.147
 3916W        W 8116   4.641   8.398  10.729
 3917W        W 8117   5.635  11.158  10.876
 3918W        W 8118   8.467   1.777   2.499
 3919W        W 8119   6.314   7.304   1.019
 3920W        W 8120   0.278   9.001   8.716
 3921W        W 8121  10.520   2.277   2.412
 3922W        W 8122   4.151   9.496   1.995
 3923W        W 8123  10.504   8.518   2.698
 3924W        W 8124  11.302   3.840   9.922
 3925W        W 8125   7.151   0.340  11.620
 3926W        W 8126   2.202   5.808   1.982
 3927W        W 8127   0.504   3.652   1.931
 3928W        W 8128   8.052   2.254   1.174
 3929W        W 8129   7.164   7.835   9.936
 3930W        W 8130   2.733   7.928   2.301
 3931W        W 8131   7.422   5.214   2.211
 3932W        W 8132   8.411   6.433   3.595
 3933W        W 8133   7.638   5.084   2.698
 3934W        W 8134   9.677  10.275   2.038
 3935W        W 8135   6.017   7.763   1.814
 3936W        W 8136  10.488   0.082  10.772
 3937W        W 8137   5.667   1.732  11.188
 3938W        W 8138   7.248   5.213   1.593
 3939W        W 8139   8.533   1.837  11.847
 3940W        W 8140   3.259   2.689   1.807
 3941W        W 8141   0.501   4.457  10.313
 3942W        W 8142   1.184  11.007   1.538
 3943W        W 8143   3.889   4.120   0.329
 3944W        W 8144   9.429   4.764   8.247
 3945W        W 8145   9.041   4.757  11.016
 3946W        W 8146   7.663   1.027   2.491
 3947W        W 8147   4.490  10.896   8.486
 3948W        W 8148   7.200   8.410   0.904
 3949W        W 8149   7.593   8.363   3.164
 3950W        W 8150   5.361   7.786   3.068
 3951W        W 8151   6.289  11.368  11.465
 3952W        W 8152   3.862   2.821   1.666
 3953W        W 8153   7.678   3.137  11.844
 3954W        W 8154   3.258   1.855   1.378
 3955W        W 8155   8.011   3.122   1.684
 3956W        W 8156   2.012   9.457  10.398
 3957W        W 8157   1.031   5.557  10.967
 3958W        W 8158   9.362   2.838   2.053
 3959W        W 8159   2.721   7.593   3.168
 3960W        W 8160   8.419   4.335  11.976
 3961W        W 8161   7.290   7.315   1.591
 3962W        W 8162   7.145   4.632   3.587
 3963W        W 8163   6.697   3.068   1.827
 3964W        W 8164   4.151   3.854   2.835
 3965W        W 8165   4.255   8.947   9.996
 3966W        W 8166   7.993   4.589  11.769
 3967W        W 8167   2.186   7.454  10.854
 3968W        W 8168   9.561   4.579  11.932
 3969W        W 8169   2.115   6.146   2.882
 3970W        W 8170   1.351   8.777  10.599
 3971W        W 8171   8.319   5.142   9.112
 3972W        W 8172   4.684  10.329   1.336
 3973W        W 8173   6.058   3.191   9.862
 3974W        W 8174   9.020   5.530   1.618
 3975W        W 8175   8.507   7.152   1.875
 3976W        W 8176   9.056   4.645   0.364
 3977W        W 8177   5.829   2.670  10.467
 3978W        W 8178   2.103   5.645   2.971
 3979W        W 8179   1.756   8.921  11.845
 3980W        W 8180  11.427   9.022   0.452
 3981W        W 8181   0.729   7.698   2.960
 3982W        W 8182   5.142   9.954   9.918
 3983W        W 8183   8.631   9.295  10.134
 3984W        W 8184   4.781   0.749   9.032
 3985W        W 8185   7.704   2.187   9.277
 3986W        W 8186   4.832   0.824   0.615
 3987W        W 8187   7.646  11.193  11.072
 3988W        W 8188   2.167   3.819   2.251
 3989W        W 8189   8.098   7.208   1.181
 3990W        W 8190   6.728   5.093   0.410
 3991W        W 8191   6.552  10.877   2.805
 3992W        W 8192   1.198   3.710   2.435
 3993W        W 8193   0.733   5.717   0.675
 3994W        W 8194   4.650   1.769   8.873
 3995W        W 8195   8.991   9.541   2.734
 3996W        W 8196   2.031   0.485  10.542
 3997W        W 8197   6.601   1.248   9.078
 3998W        W 8198   6.089   6.989  11.973
 3999W        W 8199   8.928   7.724   0.405
 4000W        W 8200   5.291   8.002  11.991
 4001W        W 8201   2.173   0.895   1.237
 4002W        W 8202   9.467   4.610   3.303
 4003W        W 8203  10.416   0.534   9.747
 4004W        W 8204   7.437   9.247   2.345
 4005W        W 8205  11.366   1.666   1.286
 4006W        W 8206   7.628   8.398  11.005
 4007W        W 8207   1.910  10.815   2.261
 4008W        W 8208   4.293   9.494   3.205
 4009W        W 8209   4.140   2.827   2.782
 4010W        W 8210   9.634   5.990   2.342
 4011W        W 8211   7.962   3.741   9.906
 4012W        W 8212   3.308   5.487   1.982
 4013W        W 8213   4.630   4.357   2.198
 4014W        W 8214   5.901   4.099   3.034
 4015W        W 8215   7.021  11.100   2.795
 4016W        W 8216   9.352   4.613   1.369
 4017W        W 8217   2.654   7.618  10.722
 4018W        W 8218  10.737   2.234  10.618
 4019W        W 8219   1.338   2.253   0.413
 4020W        W 8220   6.083   6.377   0.973
 4021W        W 8221   3.358   1.371   3.350
 4022W        W 8222   6.563   6.921   4.021
 4023W        W 8223   5.720   8.202  10.358
 4024W        W 8224   1.264   5.204   3.355
 4025W        W 8225   2.756   9.414   8.643
 4026W        W 8226   8.270   5.667   3.334
 4027W        W 8227   0.355   2.864   3.399
 4028W        W 8228   2.962   0.725   1.688
 4029W        W 8229   5.703  11.013   8.571
 4030W        W 8230   5.951   1.317  11.291
 4031W        W 8231   6.451   6.155   1.732
 4032W        W 8232   1.278   0.789   8.854
 4033W        W 8233   9.555   4.125   0.863
 4034W        W 8234   3.870   6.868   2.415
 4035W        W 8235   4.323   8.561   9.463
 4036W        W 8236   4.611   8.014   0.482
 4037W        W 8237   3.026   5.098   0.037
 4038W        W 8238   9.362   1.379   9.078
 4039W        W 8239   6.907  10.614   0.526
 4040W        W 8240   5.632   1.150   1.704
 4041W        W 8241  11.309   6.645   1.796
 4042W        W 8242   4.146  10.564   3.311
 4043W        W 8243   3.715   0.253  11.762
 4044W        W 8244   4.061   8.511  11.994
 4045W        W 8245   2.490   0.556   9.659
 4046W        W 8246   2.707  11.419   9.021
 4047W        W 8247   1.798   3.633  11.233
 4048W        W 8248   3.669   6.421   8.586
 4049W        W 8249   1.187   1.922   1.498
 4050W        W 8250  11.302   7.476  10.059
 4051W        W 8251   6.741   7.797   8.309
 4052W        W 8252   0.395  11.267  10.724
 4053W        W 8253   8.750   7.598  11.930
 4054W        W 8254   5.504   3.052  10.688
 4055W        W 8255   6.665   1.905  10.870
 4056W        W 8256  11.387   5.095   9.229
 4057W        W 8257   8.091   9.324  11.935
 4058W        W 8258   7.453   0.522   9.490
 4059W        W 8259   3.233   4.622   0.959
 4060W        W 8260   7.671   9.978   9.531
 4061W        W 8261   4.005   8.516   9.067
 4062W        W 8262   1.821  11.174   0.459
 4063W        W 8263   9.414  11.082   8.727
 4064W        W 8264   0.556   6.146   1.867
 4065W        W 8265   5.038   3.764   1.671
 4066W        W 8266   5.495   5.118  11.753
 4067W        W 8267   2.194   8.403  11.750
 4068W        W 8268   2.346   3.423   8.636
 4069W        W 8269  10.737   5.537  10.442
 4070W        W 8270   3.987   0.928   9.509
 4071W        W 8271   7.608   3.825   1.687
 4072W        W 8272   4.731   9.114  10.183
 4073W        W 8273  10.805   3.919   0.104
 4074W        W 8274   7.937  11.182  11.874
 4075W        W 8275   5.677   0.239  10.474
 4076W        W 8276   3.093   5.140   9.189
 4077W        W 8277   6.708  10.612   0.013
 4078W        W 8278   2.231   9.822  11.794
 4079W        W 8279   4.058   3.146   2.361
 4080W        W 8280   3.122   6.359   4.057
 4081W        W 8281   7.518   0.053   2.610
 4082W        W 8282   3.121  10.001  10.589
 4083W        W 8283   2.919  10.632   1.945
 4084W        W 8284   6.794   2.005   8.427
 4085W        W 8285   8.479   7.446  11.492
 4086W        W 8286   9.517   4.613   8.724
 4087W        W 8287   6.339   8.059  11.378
 4088W        W 8288   1.036   6.284   1.917
 4089W        W 8289  11.018   1.839  11.418
 4090W        W 8290   2.659   7.436   9.505
 4091W        W 8291   8.295   7.767  11.955
 4092W        W 8292   9.508   4.898   0.310
 4093W        W 8293   0.029   2.888  10.781
 4094W        W 8294   6.777  10.268  10.561
 4095W        W 8295   3.802   3.886   8.616
 4096W        W 8296   5.745   8.860   9.427
 4097W        W 8297   3.522   5.345   3.289
 4098W        W 8298   6.656   6.793  11.201
 4099W        W 8299   0.551   9.511   0.745
 4100W        W 8300   3.696   1.671   3.100
 4101W        W 8301   0.533   3.857   0.010
 4102W        W 8302   9.752   1.906  10.820
 4103W        W 8303   5.720   2.126   0.110
 4104W        W 8304   6.521   6.676   2.830
 4105W        W 8305   2.338   4.808  11.850
 4106W        W 8306   0.769   8.471   1.705
 4107W        W 8307  11.039  10.591  11.859
 4108W        W 8308   5.020   4.688   9.836
 4109W        W 8309   3.058   0.815   8.572
 4110W        W 8310   4.510   4.832   9.838
 4111W        W 8311   0.498   7.472   3.745
 4112W        W 8312  10.842   9.542   0.952
 4113W        W 8313   9.821   9.521  11.029
 4114W        W 8314   3.996   0.036   3.196
 4115W        W 8315   9.591   5.998  10.476
 4116W        W 8316   1.950   0.810   1.726
 4117W        W 8317  11.207   2.772   2.355
 4118W        W 8318   3.210   6.671   3.094
 4119W        W 8319   9.954   7.652  10.124
 4120W        W 8320   6.850  11.186   8.598
 4121W        W 8321   2.155   1.342   0.975
 4122W        W 8322   5.189   1.000   1.468
 4123W        W 8323   0.372  10.536   1.459
 4124W        W 8324   8.475   6.185   8.682
 4125W        W 8325  10.832  10.341   9.033
 4126W        W 8326   1.766   8.501   9.246
 4127W        W 8327  10.819   7.877   0.456
 4128W        W 8328   0.065   6.213   1.953
 4129W        W 8329  11.462   7.606   9.585
 4130W        W 8330  10.010   8.495  11.226
 4131W        W 8331  11.323   4.128  11.275
 4132W        W 8332  11.435  10.049   2.857
 4133W        W 8333   5.950   3.811  11.044
 4134W        W 8334   9.751   4.063  10.951
 4135W        W 8335  10.938   6.809  10.625
 4136W        W 8336   2.425  10.520   9.150
 4137W        W 8337   4.366   4.306   0.140
 4138W        W 8338   2.784   0.755  10.990
 4139W        W 8339   6.621   1.335   2.901
 4140W        W 8340   9.412   4.038   8.547
 4141W        W 8341   6.728   2.832   3.196
 4142W        W 8342   6.543  11.064   9.837
 4143W        W 8343   8.797  11.028   0.842
 4144W        W 8344   0.162   2.665  11.507
 4145W        W 8345   6.796   0.827   0.265
 4146W        W 8346   0.247   4.432  11.329
 4147W        W 8347   1.170   4.920   1.882
 4148W        W 8348   6.723  10.360  11.569
 4149W        W 8349   4.050   4.611   0.387
 4150W        W 8350   0.941   3.361   8.907
 4151W        W 8351   0.917  10.860   0.759
 4152W        W 8352   8.190   6.637   1.833
 4153W        W 8353   1.793   9.870   1.034
 4154W        W 8354   7.705   9.585   0.785
 4155W        W 8355  10.108   1.744   0.621
 4156W        W 8356   7.610   3.996   1.174
 4157W        W 8357   9.531   6.194   0.032
 4158W        W 8358   2.806  10.862   9.111
 4159W        W 8359   1.678   4.330  11.321
 4160W        W 8360   7.015   3.280   3.281
 4161W        W 8361   3.643   6.067   2.822
 4162W        W 8362   9.489  11.372   3.288
 4163W        W 8363  10.690   7.094   9.465
 4164W        W 8364   8.171  10.968  10.948
 4165W        W 8365   5.631   7.725   3.540
 4166W        W 8366   3.020   6.505   3.569
 4167W        W 8367  10.503   6.153   0.166
 4168W        W 8368   2.661   3.398   2.023
 4169W        W 8369   6.599   1.720  11.358
 4170W        W 8370  11.284   8.936  10.599
 4171W        W 8371   8.807   6.947   9.010
 4172W        W 8372  10.683  10.336   2.159
 4173W        W 8373   9.985   9.029   3.229
 4174W        W 8374   2.796   6.124  10.843
 4175W        W 8375   9.831   1.074  11.589
 4176W        W 8376   9.543  10.601   8.567
 4177W        W 8377   9.127  10.395   0.875
 4178W        W 8378  10.455   2.169   1.452
 4179W        W 8379   3.488   1.498  11.236
 4180W        W 8380   5.763   1.266   2.399
 4181W        W 8381   4.068   0.623   2.386
 4182W        W 8382  10.846   4.164   8.582
 4183W        W 8383   7.658  10.708  11.908
 4184W        W 8384   7.721   9.037   0.100
 4185W        W 8385  10.912  10.090   8.598
 4186W        W 8386   5.990   4.325  10.960
 4187W        W 8387   8.902   2.740   3.336
 4188W        W 8388  10.019   8.589   2.459
 4189W        W 8389   3.162   3.742  10.846
 4190W        W 8390   2.403   4.681   8.328
 4191W        W 8391   1.953   7.059  11.100
 4192W        W 8392   2.047   1.256   2.307
 4193W        W 8393   2.750   0.480  11.401
 4194W        W 8394   9.924  11.083   1.837
 4195W        W 8395   1.787  10.249  10.209
 4196W        W 8396   9.621   8.584   1.502
 4197W        W 8397  10.715  10.310   9.985
 4198W        W 8398   9.505   6.977   3.283
 4199W        W 8399   5.482   5.293  10.279
 4200W        W 8400   5.710   7.649   8.346
 4201W        W 8401  11.352   6.774  11.370
 4202W        W 8402   9.737   8.304   0.190
 4203W        W 8403   3.763  11.479  11.337
 4204W        W 8404  10.312   8.188  10.582
 4205W        W 8405  10.787   0.908   0.778
 4206W        W 8406   0.818   7.446  10.471
 4207W        W 8407   8.181   6.517   8.389
 4208W        W 8408  10.858   5.177   0.814
 4209W        W 8409   7.621   2.604  10.992
 4210W        W 8410   4.649   7.498  10.790
 4211W        W 8411  10.380   6.434  10.513
 4212W        W 8412   6.080   0.407  10.771
 4213W        W 8413   3.986  11.268   2.691
 4214W        W 8414   2.926   4.724   2.276
 4215W        W 8415   5.046  11.246   8.816
 4216W        W 8416   1.644  11.207   1.366
 4217W        W 8417   2.868   6.143   2.408
 4218W        W 8418   9.911   1.668   2.061
 4219W        W 8419   4.773   1.313   9.135
 4220W        W 8420   4.202   2.747   0.934
 4221W        W 8421   6.537   0.269   2.459
 4222W        W 8422   7.484   0.708   8.679
 4223W        W 8423   7.929   8.283   3.591
 4224W        W 8424   9.521   0.057   2.378
 4225W        W 8425   6.713   5.674   1.030
 4226W        W 8426   9.648   3.416   0.383
 4227W        W 8427  10.846   2.653   2.690
 4228W        W 8428   2.758   9.784   2.157
 4229W        W 8429   8.018   9.418  11.417
 4230W        W 8430   8.350  10.021   3.350
 4231W        W 8431  10.014   3.083   9.262
 4232W        W 8432   5.227   0.078   2.125
 4233W        W 8433   0.050   8.080   0.824
 4234W        W 8434   8.773   6.862   0.970
 4235W        W 8435   3.650   4.457   3.545
 4236W        W 8436  10.307   2.244   9.012
 4237W        W 8437   2.853   7.800  11.186
 4238W        W 8438   3.730   8.444  10.256
 4239W        W 8439   9.132   4.149   1.200
 4240W        W 8440   1.721   5.715   1.607
 4241W        W 8441   8.262   8.396   9.346
 4242W        W 8442  10.890   1.829   0.310
 4243W        W 8443   9.535   7.874   9.900
 4244W        W 8444   7.796   6.096   1.521
 4245W        W 8445   9.707   7.189   1.430
 4246W        W 8446   1.215   4.938   0.976
 4247W        W 8447  10.822   5.016   8.992
 4248W        W 8448   5.058   6.907   1.901
 4249W        W 8449   3.972  11.003   1.304
 4250W        W 8450   4.229   9.597  10.578
 4251W        W 8451  11.034   4.224  10.868
 4252W        W 8452   9.127   0.864   0.348
 4253W        W 8453   0.898   3.161  10.480
 4254W        W 8454   6.824   6.204  11.373
 4255W        W 8455   4.003   1.088   2.559
 4256W        W 8456   8.096   1.140  11.616
 4257W        W 8457   8.428   6.114  11.471
 4258W        W 8458   0.748  10.549   0.375
 4259W        W 8459   0.370   4.675   8.465
 4260W        W 8460   3.845   8.832   8.681
 4261W        W 8461   5.350   9.802   1.643
 4262W        W 8462   0.803   8.100   0.990
 4263W        W 8463   3.447   1.298   1.905
 4264W        W 8464   9.146   1.395   0.518
 4265W        W 8465   8.434   4.338   1.955
 4266W        W 8466  10.271   9.543   9.226
 4267W        W 8467   0.978   8.499   9.815
 4268W        W 8468   7.095   2.168   2.757
 4269W        W 8469   9.493   4.409   0.436
 4270W        W 8470  10.402   6.699  11.476
 4271W        W 8471   2.918   9.110   3.263
 4272W        W 8472   5.896   4.755   2.637
 4273W        W 8473   5.347   3.108   9.293
 4274W        W 8474   0.769   0.122   9.140
 4275W        W 8475   7.236   1.956  10.414
 4276W        W 8476   1.431   7.057   9.031
 4277W        W 8477   4.211   7.445  11.389
 4278W        W 8478  10.958   5.717   2.301
 4279W        W 8479   9.146   9.815   0.101
 4280W        W 8480   7.972   4.104   0.052
 4281W        W 8481  11.044   8.051   1.688
 4282W        W 8482  10.961   5.216   3.006
 4283W        W 8483   1.360   6.810  11.769
 4284W        W 8484   7.975   4.349   9.048
 4285W        W 8485   0.263   8.513   2.427
 4286W        W 8486   0.307   1.840  11.102
 4287W        W 8487   8.911   0.910   0.834
 4288W        W 8488   6.251   2.160   2.234
 4289W        W 8489  10.329   0.907   2.857
 4290W        W 8490   0.078   3.810   9.476
 4291W        W 8491   7.900   7.820   3.800
 4292W        W 8492   9.516   9.117   2.219
 4293W        W 8493  11.251   6.994   2.193
 4294W        W 8494   7.094  10.363   1.999
 4295W        W 8495   7.094  10.131   0.541
 4296W        W 8496   0.948   7.997   1.984
 4297W        W 8497   4.236   8.481   8.612
 4298W        W 8498  10.048   9.044   2.710
 4299W        W 8499   2.410   9.119   3.244
 4300W        W 8500   0.425   0.298   3.594
 4301W        W 8501   8.247   3.270   3.608
 4302W        W 8502   4.090   7.175   1.024
 4303W        W 8503   4.629   6.146   3.530
 4304W        W 8504  10.842   8.599   3.083
 4305W        W 8505   8.183   9.524  10.016
 4306W        W 8506   3.130   6.529   2.155
 4307W        W 8507   0.261   6.577   0.040
 4308W        W 8508   1.645   1.417   0.925
 4309W        W 8509   2.772   8.465   1.001
 4310W        W 8510   7.672   5.147  10.249
 4311W        W 8511   8.147   7.696   2.634
 4312W        W 8512   4.610   0.283  11.489
 4313W        W 8513   6.505   6.250  11.861
 4314W        W 8514   7.057   1.189  10.549
 4315W        W 8515  10.925   1.121   2.721
 4316W        W 8516   0.737   4.686   9.395
 4317W        W 8517   9.455  10.921  11.521
 4318W        W 8518   9.422   9.850   1.913
 4319W        W 8519   9.005   3.573   9.879
 4320W        W 8520   9.990   4.739   2.784
 4321W        W 8521   3.909   5.995   9.531
 4322W        W 8522   8.966   8.993   8.928
 4323W        W 8523   6.674   2.370   2.994
 4324W        W 8524   7.697   6.194   0.441
 4325W        W 8525   4.523   3.427  11.865
 4326W        W 8526   6.457   3.272   3.195
 4327W        W 8527   4.496   1.812   3.498
 4328W        W 8528   7.557   1.874   1.397
 4329W        W 8529   9.794   3.573   2.639
 4330W        W 8530  11.186   9.476   1.970
 4331W        W 8531   9.134   8.572   9.888
 4332W        W 8532   4.490  10.212   0.164
 4333W        W 8533   2.900   4.119   7.855
 4334W        W 8534   2.763  10.675  11.651
 4335W        W 8535  10.412   5.935  10.690
 4336W        W 8536   6.109   3.658   3.605
 4337W        W 8537   6.245   3.668   9.404
 4338W        W 8538   1.222   7.046  10.522
 4339W        W 8539   6.161   0.911  11.557
 4340W        W 8540   7.192  10.547  11.772
 4341W        W 8541   4.776   2.354   1.155
 4342W        W 8542   3.139  11.282  11.097
 4343W        W 8543  10.270   4.210   8.542
 4344W        W 8544   8.402   9.978  11.821
 4345W        W 8545   9.097   3.151  10.228
 4346W        W 8546   6.511   9.837   3.431
 4347W        W 8547   6.269  10.322   3.414
 4348W        W 8548   1.282   5.318   2.855
 4349W        W 8549   9.381   4.742  11.463
 4350W        W 8550   1.760   2.548   0.473
 4351W        W 8551   8.914   4.261  10.878
 4352W        W 8552   2.751   0.298   1.963
 4353W        W 8553   0.690   8.651   2.189
 4354W        W 8554   4.423   0.832   0.283
 4355W        W 8555  10.375   7.928  10.157
 4356W        W 8556   6.964  11.291  10.009
 4357W        W 8557   6.712   0.176  11.454
 4358W        W 8558  10.006   8.389  11.725
 4359W        W 8559   4.089   8.833   0.386
 4360W        W 8560  10.899   6.554   1.171
 4361W        W 8561   8.857   0.529   8.456
 4362W        W 8562   5.047   3.237   9.716
 4363W        W 8563   1.164  10.503   9.110
 4364W        W 8564   3.910  10.342   0.899
 4365W        W 8565   2.987   3.169  11.881
 4366W        W 8566   5.842   6.620   8.864
 4367W        W 8567   8.746   6.815   8.148
 4368W        W 8568   9.825   1.341   9.278
 4369W        W 8569  11.272  10.315   3.290
 4370W        W 8570   2.391   1.990  11.924
 4371W        W 8571   6.130  10.019   9.509
 4372W        W 8572  10.304   2.613   1.256
 4373W        W 8573   5.055   2.602   3.131
 4374W        W 8574   7.595   3.419  11.424
 4375W        W 8575   4.073   7.030  10.366
 4376W        W 8576   4.557   6.599  11.984
 4377W        W 8577   3.883   2.168   2.294
 4378W        W 8578   3.096   0.990   3.066
 4379W        W 8579   6.158   9.025  11.492
 4380W        W 8580   0.795   1.010   3.201
 4381W        W 8581   8.343   5.987   9.128
 4382W        W 8582   2.789  10.524   2.743
 4383W        W 8583   8.098   3.342   9.104
 4384W        W 8584  11.258   9.555   2.946
 4385W        W 8585  11.360   8.424   1.151
 4386W        W 8586   4.410   0.054   1.857
 4387W        W 8587   8.057   7.399   3.044
 4388W        W 8588  11.414   3.250   2.655
 4389W        W 8589   4.752   2.589  10.923
 4390W        W 8590  10.338   7.630   3.227
 4391W        W 8591   9.386   2.688  10.414
 4392W        W 8592  10.975   7.118   1.772
 4393W        W 8593   9.288   8.826   1.836
 4394W        W 8594   0.909   4.154   3.171
 4395W        W 8595   6.049   2.252  11.156
 4396W        W 8596   7.831  10.821   1.074
 4397W        W 8597   7.191  11.370  11.398
 4398W        W 8598   3.055   4.063  10.103
 4399W        W 8599   7.525   7.055  10.921
 4400W        W 8600   9.844   0.040   1.625
 4401W        W 8601  11.458   5.046  11.627
 4402W        W 8602   9.560   6.156   3.876
 4403W        W 8603   3.683   6.781  11.914
 4404W        W 8604  10.922  10.790   2.199
 4405W        W 8605   9.944   6.668   9.840
 4406W        W 8606   4.598   9.387   1.675
 4407W        W 8607   0.553   6.039  10.292
 4408W        W 8608   4.526   2.494   0.287
 4409W        W 8609   5.053   0.437   3.316
 4410W        W 8610   7.739   4.578   9.515
 4411W        W 8611   3.132   1.264   0.998
 4412W        W 8612   8.446   2.229   8.960
 4413W        W 8613   0.811   2.836   0.168
 4414W        W 8614   4.329   9.061   2.873
 4415W        W 8615   8.025   2.879   3.307
 4416W        W 8616   0.334   3.152   1.926
 4417W        W 8617   3.493   6.707   3.536
 4418W        W 8618   0.128   2.568   9.514
 4419W        W 8619   8.891   2.516   8.921
 4420W        W 8620   9.265   8.331   1.833
 4421W        W 8621   9.949   9.978  10.817
 4422W        W 8622  10.357   8.997  10.440
 4423W        W 8623   6.388   8.017   3.760
 4424W        W 8624   5.488   3.267   0.644
 4425W        W 8625   9.928   4.386   3.167
 4426W        W 8626  11.015   3.590   2.254
 4427W        W 8627  10.891   1.994   9.673
 4428W        W 8628   3.484   7.695   1.305
 4429W        W 8629   3.260   1.988  11.718
 4430W        W 8630   9.013   6.153  11.896
 4431W        W 8631   0.820   1.219   1.781
 4432W        W 8632   3.774   9.512   1.676
 4433W        W 8633   5.735   1.454   2.953
 4434W        W 8634  10.714   2.717   2.189
 4435W        W 8635   8.770   9.107   2.913
 4436W        W 8636   1.167   1.519   8.470
 4437W        W 8637  10.281  10.990   9.049
 4438W        W 8638   6.630   0.007   3.525
 4439W        W 8639   1.500   4.866   9.148
 4440W        W 8640   4.583  11.398   8.613
 4441W        W 8641   9.787   3.590   0.860
 4442W        W 8642   2.753   2.446   1.885
 4443W        W 8643   6.846   6.214   9.299
 4444W        W 8644   2.355   8.413  11.259
 4445W        W 8645   3.233   0.027   0.922
 4446W        W 8646   3.062   3.725  11.742
 4447W        W 8647   7.580   0.348   2.159
 4448W        W 8648   0.187   2.828   2.464
 4449W        W 8649   5.119   8.150   2.479
 4450W        W 8650  11.314   0.509   9.068
 4451W        W 8651   1.331   1.788   2.312
 4452W        W 8652   1.353   3.201   9.283
 4453W        W 8653   9.983   4.315   0.354
 4454W        W 8654   9.490   1.573   1.774
 4455W        W 8655   2.655   8.311   0.523
 4456W        W 8656   9.814  10.549   9.951
 4457W        W 8657   1.309   3.297   0.707
 4458W        W 8658   1.614   1.284   3.529
 4459W        W 8659   1.952   9.842   9.294
 4460W        W 8660   2.351   5.824  10.946
 4461W        W 8661   1.128   5.001   9.492
 4462W        W 8662   7.572   3.168   9.121
 4463W        W 8663   0.071   6.045  10.476
 4464W        W 8664   9.277   4.630  10.556
 4465W        W 8665   3.104   0.559   3.359
 4466W        W 8666   9.241   1.169  11.000
 4467W        W 8667  10.406   6.758   2.395
 4468W        W 8668   8.958   1.174   1.322
 4469W        W 8669   4.768   1.735  11.190
 4470W        W 8670   9.410   6.381  10.147
 4471W        W 8671   1.635   3.546   3.422
 4472W        W 8672   9.431   5.024   9.544
 4473W        W 8673  10.851   4.325  11.351
 4474W        W 8674   6.101   9.200   1.557
 4475W        W 8675   4.450   7.842   9.356
 4476W        W 8676   6.995   8.931   8.922
 4477W        W 8677   8.181   0.891  10.255
 4478W        W 8678   8.626   6.664   8.621
 4479W        W 8679   2.888   9.303   2.063
 4480W        W 8680   6.046   6.807   2.681
 4481W        W 8681   3.457   6.216   9.712
 4482W        W 8682   6.778   9.301   0.160
 4483W        W 8683   7.085   3.266  11.564
 4484W        W 8684   1.498   6.043  11.751
 4485W        W 8685   1.127   8.462   3.364
 4486W        W 8686   8.890   6.648   0.033
 4487W        W 8687   3.184   6.132   8.749
 4488W        W 8688   8.083   2.797  10.811
 4489W        W 8689  11.363  10.812   9.183
 4490W        W 8690   1.273   2.215   9.515
 4491W        W 8691   2.588   6.783   3.602
 4492W        W 8692   2.283   3.339   9.143
 4493W        W 8693   0.999   1.801   1.941
 4494W        W 8694   4.129   5.073  11.536
 4495W        W 8695   3.763   0.802   9.978
 4496W        W 8696  10.915   3.994   9.626
 4497W        W 8697   5.670   0.152   9.948
 4498W        W 8698   8.657   1.759   9.855
 4499W        W 8699   7.440   1.798   1.956
 4500W        W 8700  10.770   4.268   3.308
 4501W        W 8701   0.904   2.862   8.996
 4502W        W 8702   4.787   8.025   1.501
 4503W        W 8703   9.137   1.292   2.146
 4504W        W 8704   9.983   5.108  10.807
 4505W        W 8705   5.866   4.112   1.349
 4506W        W 8706   2.197   8.441   0.288
 4507W        W 8707   8.828   3.068   9.782
 4508W        W 8708  10.835   1.848   2.250
 4509W        W 8709   4.316   4.693  10.292
 4510W        W 8710   5.510   5.470  10.940
 4511W        W 8711   1.787   4.343   3.164
 4512W        W 8712   0.426   2.685  11.040
 4513W        W 8713   4.348   0.886   0.810
 4514W        W 8714   4.506  10.564  11.808
 4515W        W 8715  10.361   0.036  11.299
 4516W        W 8716   4.834   6.188   1.491
 4517W        W 8717   8.821   0.685   1.350
 4518W        W 8718  10.820   0.809  11.393
 4519W        W 8719   8.049   2.402   2.408
 4520W        W 8720   7.710  10.837   3.038
 4521W        W 8721   5.677   7.596  11.030
 4522W        W 8722   8.400   2.746   2.545
 4523W        W 8723   4.268   0.739   2.910
 4524W        W 8724   8.532   9.322   9.650
 4525W        W 8725   3.087   1.925  10.348
 4526W        W 8726   8.849   2.942   9.251
 4527W        W 8727   3.383   6.085   0.273
 4528W        W 8728   1.954   9.359   8.702
 4529W        W 8729   3.554   9.028  11.533
 4530W        W 8730   6.092   4.530   8.385
 4531W        W 8731   9.396   5.731   1.981
 4532W        W 8732   4.717  11.332   0.441
 4533W        W 8733   6.326   1.667  10.522
 4534W        W 8734   3.591   1.027  11.367
 4535W        W 8735  11.495   3.170  11.586
 4536W        W 8736   3.973   4.381   8.589
 4537W        W 8737   6.531   2.356   9.834
 4538W        W 8738   5.227   9.138   2.756
 4539W        W 8739   1.866   0.934  11.170
 4540W        W 8740   3.962   0.538   3.327
 4541W        W 8741   6.969   3.648   9.847
 4542W        W 8742   2.119   2.055   1.935
 4543W        W 8743   3.524   4.558   9.850
 4544W        W 8744   6.540   7.285  11.030
 4545W        W 8745   7.166   6.484   9.660
 4546W        W 8746   2.229   3.280  10.996
 4547W        W 8747   7.282   4.850   8.283
 4548W        W 8748   8.554   4.139  11.307
 4549W        W 8749  10.728   9.528  10.589
 4550W        W 8750   4.125   7.060  11.783
 4551W        W 8751   6.880   2.282  10.593
 4552W        W 8752  10.529   1.781  11.362
 4553W        W 8753   3.899   9.321   0.303
 4554W        W 8754   6.505   7.468  10.035
 4555W        W 8755   7.123   0.353   0.626
 4556W        W 8756   4.568   4.160   9.136
 4557W        W 8757   6.936   3.508   1.777
 4558W        W 8758   9.675   4.015   9.315
 4559W        W 8759   9.159  11.022   3.473
 4560W        W 8760   3.687   3.751   3.034
 4561W        W 8761   7.876   3.573   0.711
 4562W        W 8762   4.258   9.923   2.286
 4563W        W 8763   7.237   0.441  10.558
 4564W        W 8764   9.453   6.826   1.651
 4565W        W 8765   2.917   6.537   9.030
 4566W        W 8766   0.028   0.666   0.664
 4567W        W 8767   2.662  10.285   2.259
 4568W        W 8768   3.130   8.608   3.232
 4569W        W 8769   8.586   8.649   9.025
 4570W        W 8770  11.363   7.507  11.094
 4571W        W 8771   4.181   3.354  10.964
 4572W        W 8772   7.156   2.257   1.299
 4573W        W 8773   5.283   3.167   4.014
 4574W        W 8774   6.587   8.783   3.356
 4575W        W 8775   8.905   1.888   0.724
 4576W        W 8776  10.079   7.950  11.949
 4577W        W 8777  11.316   6.829   3.155
 4578W        W 8778   3.338   9.499   9.286
 4579W        W 8779   0.082   7.026   9.314
 4580W        W 8780   4.732  11.237  11.018
 4581W        W 8781   9.984   9.889   2.162
 4582W        W 8782  10.900   3.117  10.424
 4583W        W 8783  10.352  10.352   2.580
 4584W        W 8784   2.385   9.493   1.162
 4585W        W 8785   2.431   7.295   3.513
 4586W        W 8786  10.798   6.750   3.152
 4587W        W 8787  11.234   7.591   3.379
 4588W        W 8788   6.542   4.217  10.314
 4589W        W 8789   9.518   9.447   1.024
 4590W        W 8790   2.131   7.377   9.457
 4591W        W 8791   8.968   1.686   8.361
 4592W        W 8792   0.346   3.096   0.361
 4593W        W 8793   9.034  10.014   2.560
 4594W        W 8794   0.516   3.424   3.621
 4595W        W 8795   8.785   2.909   8.582
 4596W        W 8796  11.419   7.490  10.559
 4597W        W 8797  10.327   2.866   0.807
 4598W        W 8798   5.015   4.733  11.241
 4599W        W 8799   2.843   5.538   9.708
 4600W        W 8800   1.460   2.710   1.989
 4601W        W 8801   6.418   3.501   1.749
 4602W        W 8802   5.164   1.623   8.907
 4603W        W 8803   3.370   3.773   2.619
 4604W        W 8804   9.617  10.412   0.780
 4605W        W 8805   5.630   6.246  10.706
 4606W        W 8806   8.701   8.467  10.164
 4607W        W 8807   1.709   2.276   9.258
 4608W        W 8808  10.494   3.775   9.812
 4609W        W 8809   3.793   4.695   8.951
 4610W        W 8810   5.381   7.406   9.252
 4611W        W 8811   5.545   2.436   1.927
 4612W        W 8812   5.580   0.698  11.206
 4613W        W 8813   6.628   8.587  11.982
 4614W        W 8814   1.897   6.679   0.842
 4615W        W 8815   2.862   9.323  10.408
 4616W        W 8816  10.457   1.151   0.274
 4617W        W 8817   6.960   7.805   9.461
 4618W        W 8818   1.378  10.382  10.986
 4619W        W 8819   3.428   0.917   2.586
 4620W        W 8820  10.816   5.469   0.296
 4621W        W 8821   8.155   3.104   0.663
 4622W        W 8822   3.093   1.397  11.543
 4623W        W 8823   8.324   3.131   9.969
 4624W        W 8824   1.951  10.553  11.732
 4625W        W 8825  10.789   7.495   0.793
 4626W        W 8826   0.022  10.473  10.872
 4627W        W 8827  11.011   2.267  11.083
 4628W        W 8828  11.174   4.237  11.795
 4629W        W 8829   1.465   2.269  11.339
 4630W        W 8830   8.859   0.188  11.846
 4631W        W 8831  10.805   5.757   1.795
 4632W        W 8832   9.215   0.111  10.396
 4633W        W 8833   5.031   7.667   2.644
 4634W        W 8834   9.064   6.776  10.446
 4635W        W 8835   3.549   9.056   9.634
 4636W        W 8836   4.271   6.126  10.353
 4637W        W 8837   2.330   2.580   2.660
 4638W        W 8838   6.629   9.336   3.346
 4639W        W 8839   6.057   8.829   9.838
 4640W        W 8840   8.126   4.141  11.573
 4641W        W 8841   1.373  10.893   0.985
 4642W        W 8842   3.240   2.987   9.050
 4643W        W 8843   6.976   0.137  10.968
 4644W        W 8844   3.815   1.979   0.136
 4645W        W 8845   5.737   2.652  10.963
 4646W        W 8846   3.566   4.922   8.548
 4647W        W 8847  10.328   3.375   9.533
 4648W        W 8848  10.485   7.396   1.190
 4649W        W 8849   2.691   9.639  11.920
 4650W        W 8850  10.469   3.330  10.026
 4651W        W 8851   9.905   2.522   0.959
 4652W        W 8852   6.450   6.594  10.360
 4653W        W 8853  10.770  10.540  10.435
 4654W        W 8854   3.594  10.108  11.960
 4655W        W 8855   4.795   4.071   0.467
 4656W        W 8856  11.267   7.651   2.571
 4657W        W 8857   7.252   9.623   0.527
 4658W        W 8858  10.654   3.360   3.349
 4659W        W 8859  10.291   9.337  10.839
 4660W        W 8860   1.786   6.082   1.954
 4661W        W 8861   8.958   3.736   1.947
 4662W        W 8862  10.284  10.888   1.482
 4663W        W 8863   0.325   6.350   2.385
 4664W        W 8864   5.198   0.680  11.811
 4665W        W 8865   5.717   5.345   1.803
 4666W        W 8866   3.454   1.218   0.347
 4667W        W 8867   9.534   7.771  10.947
 4668W        W 8868   9.996   6.581   9.327
 4669W        W 8869   9.943   0.609  11.415
 4670W        W 8870   2.290   8.862   0.011
 4671W        W 8871  10.003   5.216   0.980
 4672W        W 8872  10.090   6.111   0.474
 4673W        W 8873   9.532   9.877   9.035
 4674W        W 8874   7.729   0.255   9.838
 4675W        W 8875   8.008   0.807   2.858
 4676W        W 8876   4.302   5.380   2.764
 4677W        W 8877   1.373   4.836  10.574
 4678W        W 8878   2.740   4.233   3.042
 4679W        W 8879   1.025   4.646   9.853
 4680W        W 8880   4.793   1.229   1.874
 4681W        W 8881  11.022   9.066   0.117
 4682W        W 8882   9.690   7.168  11.264
 4683W        W 8883   2.664   6.405   8.608
 4684W        W 8884   6.225   7.686   8.355
 4685W        W 8885  10.499   6.610   9.493
 4686W        W 8886   4.858   8.809  11.817
 4687W        W 8887   5.143   2.714   4.203
 4688W        W 8888   5.679   2.755   9.489
 4689W        W 8889   5.994   9.965   2.728
 4690W        W 8890   9.603   6.899   2.796
 4691W        W 8891   5.185   3.326  11.931
 4692W        W 8892   8.932   0.328  10.799
 4693W        W 8893  11.321   8.359   9.946
 4694W        W 8894   1.057   9.240  10.730
 4695W        W 8895   2.630   7.434   0.194
 4696W        W 8896   4.041   3.306   9.508
 4697W        W 8897   5.649   7.592   8.855
 4698W        W 8898   2.523   3.045  11.584
 4699W        W 8899   6.597  11.106   0.005
 4700W        W 8900   8.145   9.617  10.529
 4701W        W 8901  10.210   7.965   1.681
 4702W        W 8902   0.769   0.954   9.527
 4703W        W 8903   7.579   4.837   0.349
 4704W        W 8904   6.471   1.040  11.946
 4705W        W 8905   4.613   3.064  11.041
 4706W        W 8906  10.470   4.216   9.556
 4707W        W 8907   1.421  10.851  11.258
 4708W        W 8908   5.233   0.954   3.481
 4709W        W 8909   9.084  10.317   0.001
 4710W        W 8910  10.009   3.841   2.250
 4711W        W 8911   0.241   6.604   2.959
 4712W        W 8912   3.540   3.403   9.460
 4713W        W 8913   3.758   3.312   3.321
 4714W        W 8914   8.359   4.674   8.888
 4715W        W 8915   3.758   4.119  11.029
 4716W        W 8916   6.849   3.162   2.816
 4717W        W 8917   1.002   1.593   8.957
 4718W        W 8918   8.453   6.392   2.210
 4719W        W 8919   5.293   4.253   9.533
 4720W        W 8920   3.370  10.086   8.649
 4721W        W 8921   5.752   6.561   0.620
 4722W        W 8922   0.292   8.543   1.899
 4723W        W 8923   8.128   8.389   8.439
 4724W        W 8924   1.431   4.330  10.769
 4725W        W 8925   3.566   1.218   9.778
 4726W        W 8926   5.239   8.939   3.603
 4727W        W 8927  10.905   4.407   1.829
 4728W        W 8928  10.610   4.982   9.801
 4729W        W 8929  11.296   7.728  11.564
 4730W        W 8930   0.813   0.879   2.214
 4731W        W 8931   5.580   4.541  10.711
 4732W        W 8932   8.193  11.448   1.145
 4733W        W 8933  11.220   0.874  10.477
 4734W        W 8934   7.009   1.101  11.051
 4735W        W 8935   0.790   0.183  10.047
 4736W        W 8936   2.029  11.317   3.148
 4737W        W 8937   9.031   1.697   1.286
 4738W        W 8938   4.730   2.288   9.550
 4739W        W 8939   9.819   2.849   3.368
 4740W        W 8940   3.790   3.646   0.230
 4741W        W 8941   7.574   0.284   1.201
 4742W        W 8942   8.201   9.013   9.989
 4743W        W 8943  10.090   9.238   8.641
 4744W        W 8944   7.401  10.880   9.556
 4745W        W 8945  11.452   1.187   2.656
 4746W        W 8946  10.956   5.979   0.320
 4747W        W 8947   5.640   2.175   1.480
 4748W        W 8948   4.602   3.259   3.193
 4749W        W 8949   8.604   5.275   0.964
 4750W        W 8950   8.351   7.140   8.843
 4751W        W 8951   3.326  10.478   0.266
 4752W        W 8952  10.359   6.551   1.467
 4753W        W 8953   7.902   2.891   2.443
 4754W        W 8954   3.175   3.875   8.821
 4755W        W 8955   5.527   5.766  10.501
 4756W        W 8956   3.206   8.180   8.642
 4757W        W 8957   9.017   0.181  11.316
 4758W        W 8958   4.202   6.755   1.282
 4759W        W 8959   0.790   0.047  10.548
 4760W        W 8960  10.862   4.676   2.627
 4761W        W 8961  11.092   6.852   9.247
 4762W        W 8962  11.481   3.976   8.983
 4763W        W 8963  10.902   5.357   1.479
 4764W        W 8964  11.436   6.529   9.446
 4765W        W 8965   9.989   1.357   0.279
 4766W        W 8966   4.124   7.024   9.284
 4767W        W 8967   1.848   3.334   1.741
 4768W        W 8968  10.102  10.493   0.740
 4769W        W 8969   8.375   2.203   9.742
 4770W        W 8970   6.769   4.549   9.402
 4771W        W 8971  10.549   2.738   1.686
 4772W        W 8972   4.962   7.008   3.138
 4773W        W 8973   0.262   2.158   9.761
 4774W        W 8974   7.839   8.032   2.275
 4775W        W 8975   3.942   6.019  11.508
 4776W        W 8976  11.332   4.677   1.808
 4777W        W 8977   4.611   7.512   0.333
 4778W        W 8978   5.602   4.590   2.250
 4779W        W 8979  10.435   7.535   9.363
 4780W        W 8980   7.478   4.335  11.402
 4781W        W 8981   8.261   8.939   2.864
 4782W        W 8982   3.601   3.224   1.853
 4783W        W 8983   2.069   6.980  10.263
 4784W        W 8984  10.383   1.709   1.250
 4785W        W 8985  11.298   8.551   8.622
 4786W        W 8986  10.159   2.177   1.922
 4787W        W 8987   7.160   9.901   2.755
 4788W        W 8988   0.126   6.336  11.207
 4789W        W 8989   1.259   0.964   1.998
 4790W        W 8990  10.459   9.907   2.931
 4791W        W 8991   8.706   0.004  10.486
 4792W        W 8992   9.387   2.164  11.119
 4793W        W 8993   8.506   3.385   1.306
 4794W        W 8994   9.134   5.177  10.780
 4795W        W 8995   4.778   7.892   0.015
 4796W        W 8996  11.431  11.418  10.838
 4797W        W 8997   0.657   9.462   3.420
 4798W        W 8998   0.468   0.011   9.703
 4799W        W 8999   1.947   7.948  11.822
 4800W        W 9000  10.400   8.560   8.917
 4801W        W 9001   3.833   2.841  10.325
 4802W        W 9002   4.828   4.967   1.429
 4803W        W 9003   1.175   2.807   0.578
 4804W        W 9004   7.405   3.779   0.733
 4805W        W 9005   8.529   6.767  10.714
 4806W        W 9006   2.147   4.740   0.312
 4807W        W 9007   4.712   1.572  10.723
 4808W        W 9008   1.556   2.847   0.927
 4809W        W 9009   9.008  10.956   0.371
 4810W        W 9010   0.770   7.069   2.225
 4811W        W 9011   1.224   2.815  11.267
 4812W        W 9012  11.014  10.120   1.803
 4813W        W 9013   4.833   1.274   2.386
 4814W        W 9014   9.600   9.818   2.950
 4815W        W 9015  10.780   4.602   0.708
 4816W        W 9016   5.895   6.062   9.738
 4817W        W 9017   9.948   5.295   0.430
 4818W        W 9018   9.160   4.756   9.108
 4819W        W 9019   9.112   7.670  10.144
 4820W        W 9020   0.244   2.319   1.758
 4821W        W 9021   9.963  11.130  11.227
 4822W        W 9022   9.520  10.123   9.486
 4823W        W 9023   9.447   6.598  11.252
 4824W        W 9024   1.161   9.558   3.380
 4825W        W 9025   9.992   8.581   1.912
 4826W        W 9026   8.016   4.535   0.293
 4827W        W 9027   9.954   1.861   0.158
 4828W        W 9028   6.553   7.483   8.714
 4829W        W 9029   7.140   4.593   8.701
 4830W        W 9030   0.509   7.956   9.600
 4831W        W 9031   3.441   6.090   1.238
 4832W        W 9032   1.585   6.160  10.070
 4833W        W 9033   1.713   0.841   2.213
 4834W        W 9034   6.254   1.265   2.230
 4835W        W 9035   1.115   8.511   2.410
 4836W        W 9036   1.865   4.050  10.920
 4837W        W 9037   6.676   2.323   3.496
 4838W        W 9038   6.561   8.530   1.640
 4839W        W 9039   0.918   3.680   0.766
 4840W        W 9040   6.763  11.088   3.254
 4841W        W 9041   1.173   5.525   9.476
 4842W        W 9042   6.659   1.308   1.801
 4843W        W 9043  10.380   9.995  11.835
 4844W        W 9044   6.713   4.687   0.084
 4845W        W 9045   1.633   7.953   0.802
 4846W        W 9046   0.257   3.579  10.798
 4847W        W 9047  10.015   7.584  11.120
 4848W        W 9048   7.175  10.269  11.333
 4849W        W 9049   8.078   5.004   0.441
 4850W        W 9050   5.618   1.349   8.822
 4851W        W 9051   8.870   6.004   8.970
 4852W        W 9052   2.276   4.218   8.525
 4853W        W 9053   5.113   5.628  11.248
 4854W        W 9054   4.742   8.552  10.252
 4855W        W 9055   7.793   1.832   3.009
 4856W        W 9056   0.180   9.463   9.490
 4857W        W 9057   7.679   1.320  11.399
 4858W        W 9058   6.332   4.041   2.236
 4859W        W 9059   0.631   2.218  10.125
 4860W        W 9060   7.592   6.085  11.919
 4861W        W 9061   0.723   5.284  10.354
 4862W        W 9062   7.984   2.476   8.866
 4863W        W 9063   7.423   4.291   0.774
 4864W        W 9064   8.322   3.355  11.792
 4865W        W 9065   8.558   4.619   9.787
 4866W        W 9066   0.345   0.305  11.521
 4867W        W 9067   3.059   3.467   2.327
 4868W        W 9068   8.988   0.402   0.873
 4869W        W 9069   0.338   8.331  11.476
 4870W        W 9070   3.084   5.618   3.309
 4871W        W 9071   1.963   1.023  11.671
 4872W        W 9072  10.521   8.368  11.023
 4873W        W 9073   5.722  10.064   8.907
 4874W        W 9074   2.625   5.998   9.538
 4875W        W 9075   4.081   0.531   0.516
 4876W        W 9076   4.300   8.154   2.765
 4877W        W 9077   8.743   7.124   3.164
 4878W        W 9078   8.074   1.860  11.030
 4879W        W 9079   3.939   8.672   2.182
 4880W        W 9080   2.633  10.962   3.019
 4881W        W 9081   9.657   4.257   2.277
 4882W        W 9082   5.633   1.770   9.107
 4883W        W 9083   3.835   4.629  11.187
 4884W        W 9084   0.417   5.297  11.658
 4885W        W 9085   5.720   4.735   0.937
 4886W        W 9086   7.905   8.752   9.524
 4887W        W 9087   0.747   3.039   8.529
 4888W        W 9088   2.894   7.049   1.466
 4889W        W 9089   5.772  10.915  10.404
 4890W        W 9090   1.276  11.365   9.313
 4891W        W 9091   2.470   2.578   3.196
 4892W        W 9092   0.602   2.715   9.392
 4893W        W 9093   9.751   9.020   1.753
 4894W        W 9094   1.379   6.113   2.239
 4895W        W 9095   9.355   2.836  11.816
 4896W        W 9096   6.058  11.050   9.678
 4897W        W 9097   1.816   3.587  10.733
 4898W        W 9098   1.740   9.898  10.575
 4899W        W 9099   4.367  10.440  10.059
 4900W        W 9100   7.692   0.860  11.928
 4901W        W 9101   5.196   8.532   1.093
 4902W        W 9102   3.160   2.169   1.767
 4903W        W 9103   0.659   9.133  11.058
 4904W        W 9104   9.512   2.344   9.610
 4905W        W 9105   9.953   2.205   1.398
 4906W        W 9106   9.307  11.418  11.702
 4907W        W 9107   7.890   5.512  10.538
 4908W        W 9108  10.609   3.096   0.444
 4909W        W 9109   5.642   8.490   0.722
 4910W        W 9110   5.129   6.354   2.414
 4911W        W 9111   7.485   1.308   8.761
 4912W        W 9112   6.559   1.166  10.352
 4913W        W 9113   7.590   6.491   1.267
 4914W        W 9114   0.622  10.389   0.902
 4915W        W 9115   4.006   7.626   1.393
 4916W        W 9116   5.782   9.960  10.303
 4917W        W 9117   8.486   2.611  10.517
 4918W        W 9118   9.335   7.964   0.232
 4919W        W 9119   3.043   9.115   1.585
 4920W        W 9120   1.758   4.501   3.657
 4921W        W 9121   1.712   0.162   1.176
 4922W        W 9122   7.483   0.907  10.450
 4923W        W 9123   7.394   7.357  10.061
 4924W        W 9124   1.854   1.341   3.103
 4925W        W 9125   9.497   7.641  11.459
 4926W        W 9126   6.545   3.989   2.693
 4927W        W 9127   1.108   5.087  11.864
 4928W        W 9128  11.403   7.170   8.856
 4929W        W 9129   2.108   5.975   9.616
 4930W        W 9130   9.419   9.794  10.856
 4931W        W 9131   1.730   4.890   0.991
 4932W        W 9132   2.783  11.018   2.537
 4933W        W 9133   0.454   1.760   9.520
 4934W        W 9134  10.382   2.214  11.964
 4935W        W 9135   7.006   9.442  11.173
 4936W        W 9136  11.308   6.691   0.852
 4937W        W 9137   6.979   6.145  10.022
 4938W        W 9138   4.528   4.557   3.196
 4939W        W 9139   3.330   3.237   3.599
 4940W        W 9140   5.137   8.898   9.956
 4941W        W 9141   3.880  10.836  10.742
 4942W        W 9142   4.363   0.963  10.805
 4943W        W 9143   4.701   2.777   0.704
 4944W        W 9144   9.828   7.675   1.911
 4945W        W 9145   2.784  11.481  11.384
 4946W        W 9146   7.248  11.371   1.842
 4947W        W 9147  10.887   2.625  10.272
 4948W        W 9148   9.907   6.375  10.315
 4949W        W 9149   2.711   3.083   2.432
 4950W        W 9150   6.420   8.824   8.324
 4951W        W 9151  10.983   9.603  11.935
 4952W        W 9152   0.855   2.412   0.437
 4953W        W 9153   5.464   4.121   9.068
 4954W        W 9154   2.900  10.915  10.803
 4955W        W 9155   8.583   6.428   1.304
 4956W        W 9156   5.065   9.426   2.388
 4957W        W 9157   5.834   6.694   2.226
 4958W        W 9158   9.971   1.935   3.370
 4959W        W 9159   0.780   6.164   0.980
 4960W        W 9160   0.707  10.847   1.746
 4961W        W 9161   5.786   9.151  11.827
 4962W        W 9162   2.648   2.255   9.494
 4963W        W 9163   0.196   1.393   3.489
 4964W        W 9164   9.956   4.214   2.689
 4965W        W 9165   3.823   8.103  11.830
 4966W        W 9166   2.981   5.670   8.557
 4967W        W 9167   9.992   6.197  10.833
 4968W        W 9168   5.589   0.931   9.112
 4969W        W 9169  11.347   2.645   0.482
 4970W        W 9170   9.806  10.878   0.947
 4971W        W 9171  10.060  10.741   2.740
 4972W        W 9172   2.725   7.957   9.487
 4973W        W 9173  10.771   7.630   2.408
 4974W        W 9174   4.678   7.583   1.702
 4975W        W 9175  10.760   4.907   3.598
 4976W        W 9176  10.261   1.903  10.958
 4977W        W 9177   1.595   6.266   0.851
 4978W        W 9178  10.365   6.933   9.056
 4979W        W 9179   8.114   9.931   0.296
 4980W        W 9180   6.931   4.414   1.832
 4981W        W 9181   4.726   4.706   3.650
 4982W        W 9182   6.536   5.633   0.499
 4983W        W 9183   7.925   9.968   9.992
 4984W        W 9184   5.078   4.654   4.043
 4985W        W 9185   2.218   3.258   2.251
 4986W        W 9186   5.675   9.073   3.057
 4987W        W 9187   5.587   4.192   2.605
 4988W        W 9188   2.535   2.661   0.880
 4989W        W 9189  10.251   7.244   2.325
 4990W        W 9190   5.730   3.246   8.854
 4991W        W 9191   8.440  10.972  11.742
 4992W        W 9192   1.048   4.110   0.500
 4993W        W 9193   3.413   6.588  10.314
 4994W        W 9194  10.312   6.578  11.956
 4995W        W 9195   4.118   9.120   9.008
 4996W        W 9196   9.964   5.630   9.853
 4997W        W 9197   3.454   8.543   8.936
 4998W        W 9198   4.328  11.038  10.780
 4999W        W 9199  10.009   1.665  10.059
 5000W        W 9200  10.042   1.285   8.808
 5001W        W 9201  10.057   0.859   0.067
 5002W        W 9202   6.051   5.828   1.715
 5003W        W 9203   1.277   9.459   9.993
 5004W        W 9204   2.516   7.748   2.725
 5005W        W 9205   9.915   0.777   8.895
 5006W        W 9206   3.972   1.380  11.460
 5007W        W 9207   2.290   1.800   3.414
 5008W        W 9208   8.576   3.113  10.402
 5009W        W 9209  10.298  10.843   3.571
 5010W        W 9210   2.195   9.331  11.290
 5011W        W 9211   8.452   2.695   2.027
 5012W        W 9212   7.319  11.331   8.827
 5013W        W 9213   8.174   0.786   8.465
 5014W        W 9214   0.184   6.084   2.788
 5015W        W 9215   8.651  10.011   2.924
 5016W        W 9216   4.622   5.284   9.641
 5017W        W 9217   5.972   6.297   2.777
 5018W        W 9218   3.736  10.816   2.847
 5019W        W 9219   1.653   5.513   3.210
 5020W        W 9220   4.672   4.544   2.684
 5021W        W 9221   8.117   4.638   3.534
 5022W        W 9222   6.830   9.364   0.672
 5023W        W 9223   0.028   5.649  10.838
 5024W        W 9224   0.622   1.458   0.799
 5025W        W 9225   2.329   0.826   0.734
 5026W        W 9226   8.423   2.217   3.686
 5027W        W 9227   4.934   6.052   0.978
 5028W        W 9228  10.224  11.413   9.390
 5029W        W 9229   7.113   2.639   9.795
 5030W        W 9230  10.868   7.530   9.654
 5031W        W 9231   5.542   6.418  11.269
 5032W        W 9232   0.864   2.357   9.087
 5033W        W 9233   5.461   0.069   0.019
 5034W        W 9234   1.588   3.342  10.351
 5035W        W 9235   4.816   2.835   2.021
 5036W        W 9236   4.966   8.022   2.003
 5037W        W 9237   8.500   5.569   9.839
 5038W        W 9238   0.768   4.097  10.990
 5039W        W 9239  11.277   2.212   9.433
 5040W        W 9240   9.603   8.364   9.916
 5041W        W 9241   5.765   9.875   2.004
 5042W        W 9242   6.984   4.481   0.984
 5043W        W 9243   4.779   1.671   0.408
 5044W        W 9244   2.250  11.232  11.398
 5045W        W 9245   1.288   0.466   1.869
 5046W        W 9246   4.062   2.327   0.412
 5047W        W 9247   7.254   4.447   9.532
 5048W        W 9248   9.887  10.479   9.414
 5049W        W 9249   1.939   6.371  10.503
 5050W        W 9250   6.988   8.312   9.701
 5051W        W 9251   0.748   8.410   0.405
 5052W        W 9252   9.366   3.913   1.687
 5053W        W 9253   9.875   2.675   2.871
 5054W        W 9254   6.738  10.733   1.888
 5055W        W 9255   5.528   8.099   1.986
 5056W        W 9256   9.398   0.935  11.880
 5057W        W 9257   5.491  11.074   9.048
 5058W        W 9258   6.223   2.732   9.911
 5059W        W 9259   2.325   7.064   0.042
 5060W        W 9260  11.274  11.410   9.369
 5061W        W 9261   5.649   0.696  10.706
 5062W        W 9262  10.867   8.306   9.609
 5063W        W 9263  10.338   5.966  11.194
 5064W        W 9264   7.031   3.154   1.414
 5065W        W 9265   2.709   8.488   9.472
 5066W        W 9266  10.822   7.610   1.893
 5067W        W 9267   9.398   4.406  11.039
 5068W        W 9268   7.501  11.346   9.317
 5069W        W 9269  10.806   3.917   1.925
 5070W        W 9270   2.607   6.283   9.988
 5071W        W 9271  10.584   7.907  11.991
 5072W        W 9272   0.442  11.383   0.731
 5073W        W 9273  11.416   5.032   2.153
 5074W        W 9274   4.630  11.432   9.147
 5075W        W 9275   8.907   5.357   8.514
 5076W        W 9276   8.901   2.791   2.825
 5077W        W 9277   0.461   3.618  11.523
 5078W        W 9278   8.476   2.921   1.561
 5079W        W 9279   8.026   4.004   1.984
 5080W        W 9280   0.500   5.366  10.836
 5081W        W 9281   2.436   2.523  11.875
 5082W        W 9282   2.769   3.103   1.449
 5083W        W 9283   6.127  10.577   9.486
 5084W        W 9284   4.735  10.932   1.359
 5085W        W 9285   1.045   9.521   0.759
 5086W        W 9286   4.703   6.822   2.297
 5087W        W 9287   5.238   9.818   9.053
 5088W        W 9288   0.301   9.969   0.871
 5089W        W 9289   5.824   7.033   0.426
 5090W        W 9290   7.891   6.916   2.970
 5091W        W 9291   3.853  10.781   9.884
 5092W        W 9292   2.574   6.211  11.909
 5093W        W 9293   1.323   2.025   8.975
 5094W        W 9294   0.824   1.871  10.910
 5095W        W 9295   4.093   0.906  11.289
 5096W        W 9296   1.996  11.101  10.067
 5097W        W 9297   1.194   7.888   8.752
 5098W        W 9298   2.257   4.961   1.583
 5099W        W 9299   2.650   9.793  10.522
 5100W        W 9300  10.441  11.324   2.248
 5101W        W 9301   6.001   0.619   3.452
 5102W        W 9302   3.870   7.340   2.245
 5103W        W 9303   3.844   8.427   2.655
 5104W        W 9304  10.023   3.299   1.425
 5105W        W 9305   3.486   2.206  10.489
 5106W        W 9306   0.325   9.574   1.627
 5107W        W 9307   8.968   4.102   9.855
 5108W        W 9308   0.220   3.650   2.783
 5109W        W 9309   0.468   3.122  10.731
 5110W        W 9310   4.066  10.807   1.896
 5111W        W 9311   4.162  10.916  10.304
 5112W        W 9312   5.357   9.454   0.308
 5113W        W 9313   0.163  10.590   3.103
 5114W        W 9314  10.573   0.872  11.868
 5115W        W 9315   2.864   8.539   2.798
 5116W        W 9316   9.373   2.682   3.532
 5117W        W 9317   5.700   7.700  10.031
 5118W        W 9318   8.521   1.492   1.324
 5119W        W 9319   8.103   9.412   1.046
 5120W        W 9320   9.354   2.683  11.321
 5121W        W 9321   6.671   7.924   9.880
 5122W        W 9322   5.780   4.832  10.285
 5123W        W 9323   7.690  10.297  10.788
 5124W        W 9324   5.082   5.727  10.748
 5125W        W 9325   9.148   3.746   0.221
 5126W        W 9326   2.200   0.820   8.913
 5127W        W 9327   0.308   7.544   3.274
 5128W        W 9328   6.877   8.640   2.939
 5129W        W 9329   0.666  10.344   2.343
 5130W        W 9330   2.942   0.273  10.961
 5131W        W 9331   2.990   4.563  10.007
 5132W        W 9332   6.555   4.075   0.860
 5133W        W 9333   3.798   4.661   8.173
 5134W        W 9334   4.786   2.701   1.547
 5135W        W 9335   8.165   1.801   9.983
 5136W        W 9336   3.334   2.381   0.018
 5137W        W 9337   8.526   1.875  11.328
 5138W        W 9338   3.747  10.325   8.936
 5139W        W 9339   9.606   0.659   0.253
 5140W        W 9340   8.560   5.020  10.120
 5141W        W 9341   6.684  10.320  11.058
 5142W        W 9342   9.538   2.353   2.218
 5143W        W 9343  10.690   1.318  11.531
 5144W        W 9344   1.408   3.879  11.491
 5145W        W 9345   8.011   2.677   0.440
 5146W        W 9346   0.443   5.659   9.934
 5147W        W 9347   4.181   7.491   9.086
 5148W        W 9348  10.364   4.560  11.437
 5149W        W 9349   4.703   3.574   0.307
 5150W        W 9350   6.790   3.135   9.177
 5151W        W 9351   7.751   5.747   8.352
 5152W        W 9352   4.613   6.368   2.499
 5153W        W 9353   5.564   8.964   0.406
 5154W        W 9354   2.774   3.397  10.296
 5155W        W 9355   2.844   2.359   2.916
 5156W        W 9356   5.541   2.454   2.713
 5157W        W 9357   6.714   2.802   0.503
 5158W        W 9358   3.156   0.846   9.111
 5159W        W 9359   8.963  10.037  10.134
 5160W        W 9360  11.389   5.623   0.251
 5161W        W 9361   4.548   3.181   9.539
 5162W        W 9362   8.067   1.871   3.468
 5163W        W 9363   8.482   6.977   0.477
 5164W        W 9364  10.371   8.078   2.969
 5165W        W 9365   7.667   0.857   3.451
 5166W        W 9366   4.051  11.419  10.451
 5167W        W 9367   1.914   5.245  11.245
 5168W        W 9368   4.536   5.448   2.285
 5169W        W 9369   5.625   3.711   3.770
 5170W        W 9370   7.353   4.792  10.497
 5171W        W 9371  11.310   6.419   2.789
 5172W        W 9372   1.711   2.317   0.928
 5173W        W 9373   5.164   9.855   2.128
 5174W        W 9374  11.469  11.428   2.017
 5175W        W 9375   9.192   9.537   2.266
 5176W        W 9376   0.779   7.178   9.961
 5177W        W 9377   6.933   1.227  11.938
 5178W        W 9378   0.766   7.559   1.766
 5179W        W 9379   0.842   9.165   1.042
 5180W        W 9380   5.160   5.559  11.786
 5181W        W 9381  10.052   5.007  10.269
 5182W        W 9382  10.115   1.957  10.462
 5183W        W 9383   4.956   1.471  10.135
 5184W        W 9384   8.864   6.938   9.518
 5185W        W 9385   0.824   2.022  11.585
 5186W        W 9386   0.731   5.499   3.002
 5187W        W 9387   6.237   5.186   0.416
 5188W        W 9388   1.207   5.311  10.482
 5189W        W 9389   5.326   6.712  10.862
 5190W        W 9390   1.604   5.057  11.939
 5191W        W 9391   0.326  11.438   0.220
 5192W        W 9392   0.439   4.459  10.842
 5193W        W 9393  11.406   8.902   1.903
 5194W        W 9394   8.722  11.272   9.579
 5195W        W 9395  10.478   7.374  10.957
 5196W        W 9396   9.092   9.065   2.501
 5197W        W 9397  11.263   4.812   0.806
 5198W        W 9398   3.246   2.629   0.866
 5199W        W 9399   8.533   0.945   9.409
 5200W        W 9400   7.006   8.381   1.918
 5201W        W 9401   5.172  11.416   3.131
 5202W        W 9402   3.129   3.746   4.130
 5203W        W 9403   1.193   8.213   0.699
 5204W        W 9404   1.362   9.563   0.367
 5205W        W 9405   0.733   0.917  10.411
 5206W        W 9406  10.342   2.589   9.384
 5207W        W 9407  10.567   1.588   9.638
 5208W        W 9408  10.242   8.450   0.401
 5209W        W 9409   2.318  10.286   2.742
 5210W        W 9410   9.979   8.072  10.946
 5211W        W 9411   2.333  11.293   0.455
 5212W        W 9412   7.631   2.374   3.164
 5213W        W 9413   9.995   0.375  10.119
 5214W        W 9414   8.495  11.320   3.111
 5215W        W 9415   9.457   6.690   2.131
 5216W        W 9416   4.107   8.133   9.634
 5217W        W 9417   9.791   0.825   9.408
 5218W        W 9418   7.151  10.488   3.405
 5219W        W 9419   0.731   6.936  10.407
 5220W        W 9420  11.303   1.824  10.975
 5221W        W 9421   2.154   2.963   8.790
 5222W        W 9422   7.670   7.778   9.885
 5223W        W 9423   8.650   5.996  11.005
 5224W        W 9424   7.483   6.959   1.938
 5225W        W 9425   1.805  10.982   2.805
 5226W        W 9426   1.805  10.500  11.247
 5227W        W 9427   2.963   7.847  10.369
 5228W        W 9428   1.696   3.803   2.473
 5229W        W 9429   9.481   8.809   0.237
 5230W        W 9430   0.339   6.108   0.226
 5231W        W 9431   0.479   3.883   2.421
 5232W        W 9432   4.618   2.774   2.940
 5233W        W 9433   0.729   0.681   9.958
 5234W        W 9434  10.395   7.455   9.872
 5235W        W 9435   3.224   0.151   9.127
 5236W        W 9436   3.768   0.643   2.847
 5237W        W 9437   1.209   5.649   2.375
 5238W        W 9438   7.492   1.008   1.981
 5239W        W 9439   7.391   8.305   2.287
 5240W        W 9440   8.607   6.483   0.415
 5241W        W 9441  10.228   2.125   0.952
 5242W        W 9442   6.657   9.849   2.014
 5243W        W 9443   3.673  11.436   9.569
 5244W        W 9444   4.662   4.602  10.832
 5245W        W 9445   4.811   9.041   3.076
 5246W        W 9446   2.667   1.115   1.234
 5247W        W 9447   4.773   7.021   9.997
 5248W        W 9448   1.491   9.450  11.885
 5249W        W 9449   2.393   3.798   9.486
 5250W        W 9450   4.664   4.735   1.853
 5251W        W 9451   2.868  10.025  11.548
 5252W        W 9452   9.241   7.344  11.073
 5253W        W 9453   8.770   8.665   0.752
 5254W        W 9454   8.060   1.454   8.734
 5255W        W 9455   9.613   9.579   1.506
 5256W        W 9456   0.752   4.571  11.292
 5257W        W 9457   8.141   8.841  11.755
 5258W        W 9458   1.826   7.453  11.819
 5259W        W 9459   4.701   8.500   0.665
 5260W        W 9460   6.371   7.464   1.508
 5261W        W 9461   3.723   8.842  10.592
 5262W        W 9462  10.336   5.034  11.200
 5263W        W 9463   1.411   5.151   2.350
 5264W        W 9464   1.957   0.479   0.810
 5265W        W 9465   2.823   7.050   2.371
 5266W        W 9466   7.915   5.216  11.473
 5267W        W 9467   1.779   5.193   2.785
 5268W        W 9468   6.123   1.315   1.733
 5269W        W 9469   1.646   3.036   0.437
 5270W        W 9470  11.051   0.890   1.235
 5271W        W 9471   1.454   0.034   0.310
 5272W        W 9472   4.044   3.550  11.791
 5273W        W 9473   5.164   0.756   1.950
 5274W        W 9474  10.082   8.965   9.086
 5275W        W 9475   2.005  10.381   9.394
 5276W        W 9476   2.755   4.566   1.399
 5277W        W 9477   4.562   5.200  11.264
 5278W        W 9478   8.981   5.736   9.778
 5279W        W 9479   4.689   4.006   1.364
 5280W        W 9480   7.841   9.536  10.929
 5281W        W 9481   4.351   1.237   2.917
 5282W        W 9482   9.574   8.596   2.191
 5283W        W 9483   1.404   5.537  11.868
 5284W        W 9484   3.831   1.156   3.037
 5285W        W 9485   9.998   2.723  10.082
 5286W        W 9486   1.175   7.329   2.851
 5287W        W 9487   5.955   5.577   9.051
 5288W        W 9488   6.574   2.758   3.734
 5289W        W 9489   9.816   1.141   2.964
 5290W        W 9490   4.111  11.323   0.902
 5291W        W 9491   0.885  11.045  10.647
 5292W        W 9492   8.273   6.796   0.927
 5293W        W 9493   7.125   6.972  11.988
 5294W        W 9494   9.860  10.994  11.980
 5295W        W 9495   3.749   6.936  11.171
 5296W        W 9496   2.210   8.021   0.574
 5297W        W 9497   9.636   4.196   1.359
 5298W        W 9498  10.612   0.697   1.384
 5299W        W 9499   7.606   7.304   2.285
 5300W        W 9500   2.023   5.360   1.827
 5301W        W 9501  10.528  10.509  11.724
 5302W        W 9502   1.580   7.013   1.921
 5303W        W 9503   8.359   4.023  10.320
 5304W        W 9504   5.639   3.239   2.576
 5305W        W 9505   6.079   0.361   2.180
 5306W        W 9506   9.556   7.678   1.456
 5307W        W 9507   9.919   3.172   9.779
 5308W        W 9508   9.608   4.889   1.742
 5309W        W 9509   8.216   3.712   9.479
 5310W        W 9510   6.655   3.954   1.760
 5311W        W 9511   9.978   8.558  10.721
 5312W        W 9512   8.471  10.254  10.036
 5313W        W 9513   0.289  11.434   9.236
 5314W        W 9514   3.705   3.631  10.893
 5315W        W 9515  11.459  10.741   9.693
 5316W        W 9516   0.171   7.197  11.361
 5317W        W 9517   8.946   9.380  11.421
 5318W        W 9518   2.609   0.832   9.243
 5319W        W 9519   0.518   3.484  10.323
 5320W        W 9520  10.204   2.727   2.077
 5321W        W 9521   5.618   8.564   1.781
 5322W        W 9522   3.970   7.988   1.784
 5323W        W 9523   8.218   3.812   3.986
 5324W        W 9524   1.251   4.056   9.168
 5325W        W 9525   2.281   1.889   9.767
 5326W        W 9526   9.884  10.758   2.229
 5327W        W 9527   5.216   9.796   3.325
 5328W        W 9528   1.971   2.217  11.224
 5329W        W 9529   8.034  10.497   2.368
 5330W        W 9530   1.810   3.292   8.460
 5331W        W 9531   0.383  10.032  10.933
 5332W        W 9532   8.617   3.606   3.147
 5333W        W 9533   9.901   7.693   2.420
 5334W        W 9534   6.486  10.936   9.349
 5335W        W 9535   2.797   5.317  11.331
 5336W        W 9536   5.233   2.439   8.623
 5337W        W 9537   6.721   8.617   0.825
 5338W        W 9538   1.875   6.981   8.737
 5339W        W 9539   3.644   0.144   2.752
 5340W        W 9540   5.011   8.315   8.928
 5341W        W 9541   7.165   9.342   8.539
 5342W        W 9542   1.258   7.588   2.046
 5343W        W 9543   7.990   5.904   0.796
 5344W        W 9544   5.624  10.913   0.927
 5345W        W 9545   0.659   8.790  10.081
 5346W        W 9546   3.997   6.193   1.856
 5347W        W 9547  10.708   7.435   3.531
 5348W        W 9548   1.655   6.657   8.359
 5349W        W 9549   0.323  10.977   9.450
 5350W        W 9550   5.166   4.697   1.688
 5351W        W 9551   2.800   4.826  11.607
 5352W        W 9552   3.119   3.340   1.796
 5353W        W 9553   0.140   7.903   9.983
 5354W        W 9554   6.317   6.519   2.355
 5355W        W 9555   2.194  10.986   1.849
 5356W        W 9556   0.453   0.512   2.406
 5357W        W 9557   9.740   7.041   0.241
 5358W        W 9558   0.823   7.039   1.424
 5359W        W 9559   5.181   1.490   1.692
 5360W        W 9560   1.774   4.764  10.270
 5361W        W 9561   5.605   5.336   0.199
 5362W        W 9562   1.744   8.127   9.650
 5363W        W 9563   1.199   1.836  11.254
 5364W        W 9564  10.988   9.964   9.728
 5365W        W 9565   3.832   9.358   3.399
 5366W        W 9566   6.949   2.669   2.694
 5367W        W 9567   6.340   2.529  10.370
 5368W        W 9568   2.180   1.463   0.017
 5369W        W 9569   1.103   1.291   3.548
 5370W        W 9570   7.807   0.407   3.730
 5371W        W 9571   2.322   5.823   9.173
 5372W        W 9572   8.900   7.615   2.199
 5373W        W 9573  11.249   5.227   1.148
 5374W        W 9574   1.428  10.353   2.927
 5375W        W 9575   2.839   3.206   3.451
 5376W        W 9576  10.442   8.933   3.003
 5377W        W 9577   8.619   7.380   9.442
 5378W        W 9578   1.900   4.542  10.887
 5379W        W 9579  10.095   1.295   1.224
 5380W        W 9580   7.588   1.780   9.602
 5381W        W 9581   3.155   5.612   0.094
 5382W        W 9582   4.084   5.172  11.034
 5383W        W 9583   2.715   3.104   8.978
 5384W        W 9584   0.284   1.878   1.518
 5385W        W 9585   9.786   1.348   0.799
 5386W        W 9586   8.933   0.813   1.856
 5387W        W 9587   7.604   5.024   1.265
 5388W        W 9588   6.716  10.384   2.719
 5389W        W 9589   0.864  10.288  10.085
 5390W        W 9590   0.085   9.371   0.754
 5391W        W 9591   7.660   1.016   9.585
 5392W        W 9592   7.697   6.513   1.796
 5393W        W 9593   8.139   6.656   9.884
 5394W        W 9594   3.766   9.126   2.047
 5395W        W 9595   1.740   8.921  10.886
 5396W        W 9596   6.959   6.008  11.895
 5397W        W 9597   6.128   0.789   2.457
 5398W        W 9598   8.157  10.817   2.765
 5399W        W 9599   0.231   5.463   1.905
 5400W        W 9600   8.066   3.626   1.520
 5401W        W 9601  10.858   1.369   0.021
 5402W        W 9602   8.972   8.624   2.746
 5403W        W 9603   8.441   1.465   9.488
 5404W        W 9604   0.291   7.597  11.745
 5405W        W 9605   7.139   6.697  11.338
 5406W        W 9606   2.329   7.952  10.989
 5407W        W 9607   0.352   1.280  11.822
 5408W        W 9608   3.957   6.297   1.294
 5409W        W 9609   6.647   7.563   3.708
 5410W        W 9610  11.326   8.476   2.176
 5411W        W 9611   9.120  11.409   0.712
 5412W        W 9612   0.181   5.145   0.918
 5413W        W 9613   9.853   0.400  11.863
 5414W        W 9614   5.032   0.225   0.243
 5415W        W 9615   6.240   3.534   2.223
 5416W        W 9616  10.769  10.448   3.343
 5417W        W 9617  11.233   5.253   8.762
 5418W        W 9618   5.721   8.613   3.301
 5419W        W 9619   9.036   3.662   3.428
 5420W        W 9620  11.207   1.514   8.842
 5421W        W 9621   2.793  11.209   0.228
 5422W        W 9622   5.775   2.384   1.033
 5423W        W 9623   5.041   7.728  11.619
 5424W        W 9624   1.315   8.217   0.199
 5425W        W 9625  10.639   7.838   1.434
 5426W        W 9626   7.656   3.110   0.753
 5427W        W 9627  11.418   3.758   3.161
 5428W        W 9628   4.311   5.015   1.442
 5429W        W 9629   0.188   9.253  10.338
 5430W        W 9630   8.754   7.991  10.392
 5431W        W 9631   1.706  10.824   9.408
 5432W        W 9632   9.335   6.607  11.791
 5433W        W 9633   9.152   7.345   9.541
 5434W        W 9634   0.006  11.338   9.813
 5435W        W 9635  10.776   0.208   9.904
 5436W        W 9636   1.966  10.695   8.968
 5437W        W 9637   7.748   6.264   8.242
 5438W        W 9638   0.226   5.494   9.487
 5439W        W 9639  10.832   7.138   8.921
 5440W        W 9640   6.447   2.805   8.990
 5441W        W 9641  10.135   0.766  10.584
 5442W        W 9642   6.782   6.097   1.332
 5443W        W 9643   9.501   3.280   2.273
 5444W        W 9644   5.248   5.844   2.356
 5445W        W 9645   7.300   0.434  10.053
 5446W        W 9646   8.954   0.816   2.369
 5447W        W 9647   3.625   3.587   0.748
 5448W        W 9648   0.216   3.072  10.260
 5449W        W 9649   0.412   8.692  10.882
 5450W        W 9650   7.580   6.404   3.508
 5451W        W 9651   1.293   7.841  10.856
 5452W        W 9652   3.956   1.026   0.484
 5453W        W 9653   9.498   2.785   9.931
 5454W        W 9654   7.250   1.029   0.315
 5455W        W 9655   6.792   0.791   8.384
 5456W        W 9656   5.595   3.820   1.756
 5457W        W 9657   9.586   1.404   1.303
 5458W        W 9658   0.500   7.081   9.002
 5459W        W 9659   0.228   8.735  10.387
 5460W        W 9660   0.297   3.949  11.150
 5461W        W 9661   1.356  10.829  11.787
 5462W        W 9662  10.754   9.342   2.244
 5463W        W 9663   2.082   8.437   3.235
 5464W        W 9664   1.639  10.330   2.169
 5465W        W 9665   4.620   8.187   9.702
 5466W        W 9666   9.453   6.869   9.852
 5467W        W 9667   3.694   5.471  10.308
 5468W        W 9668  11.374   6.053   0.009
 5469W        W 9669   3.363   7.213  10.966
 5470W        W 9670  10.790   8.657   8.605
 5471W        W 9671  10.740   6.993   0.414
 5472W        W 9672   3.301   9.105  11.083
 5473W        W 9673   1.685   9.631  11.438
 5474W        W 9674   5.923   1.518   9.825
 5475W        W 9675   4.879  10.294  10.182
 5476W        W 9676   1.310   5.650   0.358
 5477W        W 9677   2.121   1.752  11.549
 5478W        W 9678   9.920   0.625   2.947
 5479W        W 9679   7.680   9.034   9.924
 5480W        W 9680   7.154   7.094  10.522
 5481W        W 9681  11.407   9.875   8.675
 5482W        W 9682   1.355  10.454   9.971
 5483W        W 9683   5.511  10.818   2.484
 5484W        W 9684   4.971   7.984   3.374
 5485W        W 9685   3.256   0.206  11.466
 5486W        W 9686   2.292   7.489  10.343
 5487W        W 9687   1.361   4.191   2.400
 5488W        W 9688  10.484   2.453   9.954
 5489W        W 9689   4.985   6.404  11.719
 5490W        W 9690   7.096   1.803   1.093
 5491W        W 9691   0.409   0.358   0.509
 5492W        W 9692   8.397   7.189  10.994
 5493W        W 9693   2.318   3.089   2.763
 5494W        W 9694  10.570   6.022   2.181
 5495W        W 9695   4.279  11.363  11.564
 5496W        W 9696   2.387  10.240  11.538
 5497W        W 9697   0.940  11.461   8.586
 5498W        W 9698   9.410   0.819   2.100
 5499W        W 9699   7.728   6.621   8.630
 5500W        W 9700   6.585   8.586   3.840
 5501W        W 9701   2.377   0.386   9.157
 5502W        W 9702   8.509   5.116   9.598
 5503W        W 9703   3.737   0.915   2.126
 5504W        W 9704   1.722   0.358   1.643
 5505W        W 9705   4.258   2.238   9.324
 5506W        W 9706   0.358   8.056   9.118
 5507W        W 9707   9.881   9.927   0.698
 5508W        W 9708   0.447   3.357   1.457
 5509W        W 9709   4.289   0.011  11.081
 5510W        W 9710  11.121   1.428   2.331
 5511W        W 9711   5.088   7.012   1.061
 5512W        W 9712   0.017   5.633   1.431
 5513W        W 9713   1.401   7.040   0.212
 5514W        W 9714   1.393   3.729   1.022
 5515W        W 9715   3.321   7.632   0.796
 5516W        W 9716   5.941   1.805   3.352
 5517W        W 9717   8.417   8.487   3.633
 5518W        W 9718  10.089  10.370   3.505
 5519W        W 9719   9.542   7.721  10.425
 5520W        W 9720   8.056  10.984  10.100
 5521W        W 9721  10.881   8.677   9.962
 5522W        W 9722   2.273   4.314   2.361
 5523W        W 9723   8.673   8.537  11.747
 5524W        W 9724   2.405   6.046  10.474
 5525W        W 9725   2.873   8.975  10.788
 5526W        W 9726   7.078   5.732  11.271
 5527W        W 9727   2.876   9.338   0.292
 5528W        W 9728   5.102   9.081  11.444
 5529W        W 9729   3.434   0.190  10.985
 5530W        W 9730   4.607   4.557   0.518
 5531W        W 9731   0.642   0.519  10.858
 5532W        W 9732   8.421   7.907   3.085
 5533W        W 9733  10.391   5.571   0.902
 5534W        W 9734   1.873   5.701  11.642
 5535W        W 9735   2.097   4.714   9.862
 5536W        W 9736  11.001   5.308   1.985
 5537W        W 9737   4.796  10.445  11.407
 5538W        W 9738   4.450   4.054   3.180
 5539W        W 9739   7.279   2.267   8.811
 5540W        W 9740   3.639   1.806   1.698
 5541W        W 9741   8.428   4.173   9.274
 5542W        W 9742   7.867   3.301   0.281
 5543W        W 9743   4.401   3.267   3.651
 5544W        W 9744   8.992   5.023   1.466
 5545W        W 9745   4.274   7.035   8.788
 5546W        W 9746   7.789   0.922   0.450
 5547W        W 9747   6.053   4.619   1.329
 5548W        W 9748  10.369   6.410   9.996
 5549W        W 9749   5.866   9.392   0.339
 5550W        W 9750   4.166   1.376   0.817
 5551W        W 9751  11.256   9.849  10.183
 5552W        W 9752   7.272   9.517  10.310
 5553W        W 9753   6.106   4.286   2.619
 5554W        W 9754   4.901   2.495   2.613
 5555W        W 9755  10.362   9.467  10.260
 5556W        W 9756   2.599   9.950  11.057
 5557W        W 9757   1.400   1.619   3.197
 5558W        W 9758   5.534   5.390   2.281
 5559W        W 9759   4.878   7.157   1.499
 5560W        W 9760   0.336   1.294  11.283
 5561W        W 9761   5.598   4.647   9.031
 5562W        W 9762   5.899   6.497   9.449
 5563W        W 9763   0.237   6.772   2.086
 5564W        W 9764   9.931  10.445   1.233
 5565W        W 9765   2.298   3.350   1.368
 5566W        W 9766   4.898   9.095   8.530
 5567W        W 9767   8.494   3.876   1.754
 5568W        W 9768   1.596   4.703   2.783
 5569W        W 9769   6.185  11.470   1.399
 5570W        W 9770   1.854   6.903   3.146
 5571W        W 9771   3.126   3.575   0.795
 5572W        W 9772   7.680   9.206   1.292
 5573W        W 9773   7.896   8.069  10.219
 5574W        W 9774   9.576  11.331   0.955
 5575W        W 9775   6.722   6.596   9.931
 5576W        W 9776   3.061   5.650   2.416
 5577W        W 9777   7.340   8.564   2.715
 5578W        W 9778   3.398  10.945  10.798
 5579W        W 9779   8.010   1.356   1.245
 5580W        W 9780   5.904   3.066   0.390
 5581W        W 9781  11.313   1.043   3.575
 5582W        W 9782  10.314   3.715   1.725
 5583W        W 9783   4.640   3.355  10.021
 5584W        W 9784   8.517   7.668   9.036
 5585W        W 9785   7.596   5.236   8.392
 5586W        W 9786   1.722   3.090   2.233
 5587W        W 9787   3.133   7.050   9.877
 5588W        W 9788   2.267   2.488   1.712
 5589W        W 9789   9.495   7.378   9.954
 5590W        W 9790   7.474   0.241  11.144
 5591W        W 9791   6.678   2.334   1.404
 5592W        W 9792   8.642   7.638   9.889
 5593W        W 9793  10.979   3.601   0.491
 5594W        W 9794   3.567   2.337   0.478
 5595W        W 9795   8.115   6.596  11.284
 5596W        W 9796   6.969   0.293   1.109
 5597W        W 9797   0.949   5.704   9.012
 5598W        W 9798  10.291   5.663   2.426
 5599W        W 9799   4.233   6.933  11.303
 5600W        W 9800   0.055   0.773  10.850
 5601W        W 9801   1.496  11.368   0.806
 5602W        W 9802   9.982   0.294   9.110
 5603W        W 9803   2.238   1.905   8.709
 5604W        W 9804   1.323   1.434   1.806
 5605W        W 9805   9.134   9.973   3.100
 5606W        W 9806   8.607   1.163  11.037
 5607W        W 9807   9.324   2.715   2.539
 5608W        W 9808   9.175  11.451   0.209
 5609W        W 9809   7.514   8.764   9.142
 5610W        W 9810   2.762   1.567   1.484
 5611W        W 9811  10.743  10.594   2.848
 5612W        W 9812  10.392   8.245   3.457
 5613W        W 9813   8.349   7.924   1.369
 5614W        W 9814   2.168   0.690   2.776
 5615W        W 9815   6.447   1.169  11.210
 5616W        W 9816   7.180   6.476   1.790
 5617W        W 9817   5.234   5.307   9.453
 5618W        W 9818   0.142   1.651   2.746
 5619W        W 9819   3.207   2.834   9.930
 5620W        W 9820   3.013   4.698   3.038
 5621W        W 9821   2.065   5.119   0.682
 5622W        W 9822   6.029   9.437   9.569
 5623W        W 9823   9.047   5.124   2.393
 5624W        W 9824   8.454   0.391   1.169
 5625W        W 9825  10.384   6.447  11.029
 5626W        W 9826   7.066   8.470  11.064
 5627W        W 9827   4.070   4.786  10.713
 5628W        W 9828   2.318   7.688   9.032
 5629W        W 9829   6.569   3.064   4.163
 5630W        W 9830  11.205  11.042  11.121
 5631W        W 9831   0.028   3.458   9.088
 5632W        W 9832   2.992   8.366   9.072
 5633W        W 9833   6.212   9.444  11.960
 5634W        W 9834   2.247   2.809   9.796
 5635W        W 9835   9.915   6.178  11.402
 5636W        W 9836   8.684   6.613   1.797
 5637W        W 9837  10.410  10.399  10.787
 5638W        W 9838  10.072   4.150   0.851
 5639W        W 9839   7.135   0.880   3.303
 5640W        W 9840  10.424   4.478   2.838
 5641W        W 9841   8.785   2.287   1.846
 5642W        W 9842   9.212   3.868   9.436
 5643W        W 9843   5.614   5.200   9.797
 5644W        W 9844   6.926  10.764   2.400
 5645W        W 9845   3.513   7.733  11.959
 5646W        W 9846   0.306   2.790   1.563
 5647W        W 9847   1.865   8.182   1.983
 5648W        W 9848   9.127   9.085   9.805
 5649W        W 9849   1.218   4.769  11.468
 5650W        W 9850  11.424   9.830   9.212
 5651W        W 9851   8.593   9.337  10.640
 5652W        W 9852   7.989   2.305  10.789
 5653W        W 9853   0.514   8.039  11.892
 5654W        W 9854   4.335   2.834  10.676
 5655W        W 9855   8.912   1.560  11.197
 5656W        W 9856   3.476   3.831   1.203
 5657W        W 9857   6.401   3.569   0.860
 5658W        W 9858   6.614   2.831   1.382
 5659W        W 9859  10.445   3.294  10.608
 5660W        W 9860   3.703   8.293  11.280
 5661W        W 9861   4.150   6.585   0.775
 5662W        W 9862   4.726   0.327  10.337
 5663W        W 9863   9.895   0.128  11.130
 5664W        W 9864  11.007  11.243   9.947
 5665W        W 9865   0.758   5.053   3.234
 5666W        W 9866  10.087   1.382   2.487
 5667W        W 9867   8.851   4.200   0.223
 5668W        W 9868   0.765  10.014   3.220
 5669W        W 9869  10.836   9.633   2.681
 5670W        W 9870   3.416   3.127   0.878
 5671W        W 9871  11.025   6.969   3.581
 5672W        W 9872   1.301   2.381   2.858
 5673W        W 9873   2.153  10.812   1.366
 5674W        W 9874   7.163  10.313   2.486
 5675W        W 9875   3.417  11.058   9.920
 5676W        W 9876   2.297   3.304   9.653
 5677W        W 9877   3.481   4.034  10.586
 5678W        W 9878   1.889   5.594   9.356
 5679W        W 9879   8.662   5.168   2.884
 5680W        W 9880   5.547   7.326   9.722
 5681W        W 9881   4.303   7.529   0.746
 5682W        W 9882   0.956   2.714   2.683
 5683W        W 9883   0.238   6.879  10.512
 5684W        W 9884   5.438   4.102   4.021
 5685W        W 9885   8.184   8.070   8.974
 5686W        W 9886   8.861   5.504  10.237
 5687W        W 9887   7.507   2.385  10.509
 5688W        W 9888   7.720  11.233   9.781
 5689W        W 9889   0.303   5.241   9.005
 5690W        W 9890   1.894   6.990   1.456
 5691W        W 9891   0.943   5.254   2.169
 5692W        W 9892   7.669   0.618   1.696
 5693W        W 9893  11.437   5.690   9.981
 5694W        W 9894   2.619  11.256   9.508
 5695W        W 9895  10.851   7.153  10.005
 5696W        W 9896   3.713   4.704   2.216
 5697W        W 9897   4.652   9.900   0.524
 5698W        W 9898   7.879   1.471  11.918
 5699W        W 9899   0.696   0.418   8.630
 5700W        W 9900  11.321   0.037  11.320
 5701W        W 9901   0.500   7.984   0.581
 5702W        W 9902  10.231  11.389  10.296
 5703W        W 9903   1.469   4.229   0.226
 5704W        W 9904   4.736   1.356   3.349
 5705W        W 9905   7.656   8.922  10.873
 5706W        W 9906   7.050   8.843   8.398
 5707W        W 9907   3.712   5.499  10.840
 5708W        W 9908   4.954   4.313  10.495
 5709W        W 9909   0.383   8.787   0.360
 5710W        W 9910   6.938   4.544  10.316
 5711W        W 9911   8.224   9.596   8.815
 5712W        W 9912   5.005   2.929  10.624
 5713W        W 9913   9.815   4.642  10.615
 5714W        W 9914  11.141   8.491  10.394
 5715W        W 9915   4.464   8.006   1.903
 5716W        W 9916   6.430   1.335   1.325
 5717W        W 9917   1.441   9.077   1.205
 5718W        W 9918   9.922   6.451   3.582
 5719W        W 9919   1.282   7.177   2.331
 5720W        W 9920   8.074   4.207   1.050
 5721W        W 9921   4.783   5.242   1.878
 5722W        W 9922   0.453   3.467   9.427
 5723W        W 9923   6.941   1.719   2.162
 5724W        W 9924   4.444  10.275   0.870
 5725W        W 9925  10.027   8.081   9.824
 5726W        W 9926  10.294   3.974   0.000
 5727W        W 9927   8.430   6.152   1.724
 5728W        W 9928  11.292   3.396   0.872
 5729W        W 9929   4.467   6.332   1.163
 5730W        W 9930   0.000   8.568   0.667
 5731W        W 9931   8.847   0.956   3.421
 5732W        W 9932   3.885   7.123   1.501
 5733W        W 9933   9.063   4.226   0.691
 5734W        W 9934   7.661   1.411   1.656
 5735W        W 9935  11.291  10.080  11.643
 5736W        W 9936   4.154   5.063   2.361
 5737W        W 9937   8.948   7.498   1.707
 5738W        W 9938   3.162   7.721   9.391
 5739W        W 9939   2.296   4.794   1.029
 5740W        W 9940   1.411  11.415   8.812
 5741W        W 9941   1.413  11.294  11.545
 5742W        W 9942   7.158   2.957   8.828
 5743W        W 9943  11.189   9.266  11.000
 5744W        W 9944   0.440   3.745   3.250
 5745W        W 9945   1.007   8.509  10.341
 5746W        W 9946   8.872   5.960   8.456
 5747W        W 9947   6.384   0.824  10.698
 5748W        W 9948   5.519   3.676   8.164
 5749W        W 9949   9.583   8.595   3.116
 5750W        W 9950   5.913   3.411   1.838
 5751W        W 9951   2.276   8.475  10.293
 5752W        W 9952   5.729   9.102   3.584
 5753W        W 9953   3.643   1.903   9.489
 5754W        W 9954   1.454   4.641   2.185
 5755W        W 9955   6.062   8.331   2.717
 5756W        W 9956  10.375   6.603   3.370
 5757W        W 9957   0.299  10.543   9.130
 5758W        W 9958   9.594   5.535   1.142
 5759W        W 9959   8.490   0.813   2.112
 5760W        W 9960   2.897   7.885   1.325
 5761W        W 9961   0.041  10.530  11.793
 5762W        W 9962   5.188   0.978  11.399
 5763W        W 9963   9.045   7.593   2.687
 5764W        W 9964   2.264   0.860  10.855
 5765W        W 9965   6.357  10.519  10.657
 5766W        W 9966   3.550   3.727   3.553
 5767W        W 9967  10.556   9.920  10.926
 5768W        W 9968   6.166   1.752  11.000
 5769W        W 9969   8.116   7.652  11.196
 5770W        W 9970   2.255   8.890  11.022
 5771W        W 9971   8.969   6.019   0.789
 5772W        W 9972  10.118   4.193  10.624
 5773W        W 9973   3.228   9.068   9.017
 5774W        W 9974  10.544   9.052   8.860
 5775W        W 9975  10.022   9.032   2.191
 5776W        W 9976  10.256   5.411  10.506
 5777W        W 9977   1.758   3.834   2.997
 5778W        W 9978  11.288  10.289   0.660
 5779W        W 9979   1.934  11.431   1.798
 5780W        W 9980   4.525  10.916  11.398
 5781W        W 9981   2.780   2.065   9.043
 5782W        W 9982   6.202   9.019   2.338
 5783W        W 9983   8.915   0.355   2.608
 5784W        W 9984   9.551   6.395   9.612
 5785W        W 9985   1.385   3.865  10.979
 5786W        W 9986   7.448   7.640  11.694
 5787W        W 9987   0.971   3.704  10.299
 5788W        W 9988   4.977   7.234   0.598
 5789W        W 9989  10.499  10.888   2.513
 5790W        W 9990   3.300   3.784   9.741
 5791W        W 9991   1.767  11.417   3.558
 5792W        W 9992   7.244   7.504   0.846
 5793W        W 9993   3.134  10.801  11.282
 5794W        W 9994   0.300  10.025   1.382
 5795W        W 9995   8.634   1.966   1.475
 5796W        W 9996   5.172   1.929  10.922
 5797W        W 9997   4.673   6.073  10.742
 5798W        W 9998  10.040   7.580   1.342
 5799W        W 9999   2.374   9.857   2.500
 5800W        W10000  10.337   4.974   8.832
 5801W        W10001   4.714  10.546   1.794
 5802W        W10002   6.976   0.369   0.131
 5803W        W10003   0.599  11.307  11.758
 5804W        W10004   9.238   5.203  11.299
 5805W        W10005   8.094   5.665   8.735
 5806W        W10006   8.564  11.000   1.768
 5807W        W10007   2.627   4.635   2.715
 5808W        W10008   3.779   3.090   9.096
 5809W        W10009   3.435   9.397   3.719
 5810W        W10010   2.586   9.348   0.712
 5811W        W10011   2.632   4.289  10.278
 5812W        W10012   3.722   4.188   2.065
 5813W        W10013   8.460   9.567   0.166
 5814W        W10014   7.718   6.481   9.126
 5815W        W10015   1.855   0.994   0.721
 5816W        W10016   9.026  10.893   2.514
 5817W        W10017   2.827   5.575  10.801
 5818W        W10018  10.875  10.534   0.856
 5819W        W10019   5.643  10.146   9.818
 5820W        W10020   5.680   9.553   3.267
 5821W        W10021   6.749   1.224   2.364
 5822W        W10022   6.101   1.480   8.986
 5823W        W10023   0.875   4.849   8.485
 5824W        W10024   8.685   4.748   9.283
 5825W        W10025   6.234   1.676   2.962
 5826W        W10026   6.657   0.577  11.768
 5827W        W10027   4.678   1.319   0.770
 5828W        W10028   9.479   8.778  10.835
 5829W        W10029   2.667   9.126  11.225
 5830W        W10030   3.623   2.332   1.880
 5831W        W10031  11.488   8.931   2.408
 5832W        W10032   1.799   8.693   1.876
 5833W        W10033   8.935   8.469  11.044
 5834W        W10034   8.136   4.798   1.691
 5835W        W10035   7.067   6.505   1.192
 5836W        W10036   5.942   8.560   0.298
 5837W        W10037   9.870   1.895   2.518
 5838W        W10038   8.618   6.457   9.132
 5839W        W10039   6.261   3.749   3.109
 5840W        W10040   2.617   8.826   1.349
 5841W        W10041   3.685   9.925   1.348
 5842W        W10042   0.892   4.619  11.800
 5843W        W10043  11.430   3.661  11.439
 5844W        W10044  10.495   5.708  11.930
 5845W        W10045   7.532   4.085   9.805
 5846W        W10046   7.916   7.944   3.160
 5847W        W10047   1.452   9.874   9.287
 5848W        W10048  10.335  11.362   2.778
 5849W        W10049   2.260  10.634   0.881
 5850W        W10050   2.887   3.408  11.387
 5851W        W10051  11.376   1.061  11.320
 5852W        W10052   8.311   3.821   0.784
 5853W        W10053   5.215   9.649   1.162
 5854W        W10054   0.357   7.507   9.281
 5855W        W10055  10.409   4.221   1.796
 5856W        W10056   8.927   0.118   8.773
 5857W        W10057   0.335   8.376   1.395
 5858W        W10058  10.871   1.885   1.260
 5859W        W10059   1.168  10.326   2.327
 5860W        W10060  10.046   3.232  11.391
 5861W        W10061   6.432   7.818  10.885
 5862W        W10062   6.108   4.337   0.914
 5863W        W10063   6.668   1.303   0.452
 5864W        W10064   7.970   4.271  11.101
 5865W        W10065   8.675   5.901  10.506
 5866W        W10066   7.404   8.267  10.049
 5867W        W10067   8.945   8.081   9.905
 5868W        W10068   6.704  11.410   1.359
 5869W        W10069   1.623   6.113   9.565
 5870W        W10070   1.682   0.934  10.143
 5871W        W10071   1.636   2.491   3.465
 5872W        W10072   6.933   1.417   1.351
 5873W        W10073   5.263   2.158  11.838
 5874W        W10074  11.346   0.391  11.730
 5875W        W10075   2.103   9.077   1.967
 5876W        W10076   9.066   8.575   2.246
 5877W        W10077   3.911   7.006   3.237
 5878W        W10078  10.770   5.870   3.604
 5879W        W10079   2.525   7.045  10.478
 5880W        W10080  10.488   5.637   1.400
 5881W        W10081   3.175   5.628  11.545
 5882W        W10082   7.978   6.979   9.551
 5883W        W10083   6.617   0.404   2.968
 5884W        W10084   9.378   3.287   8.440
 5885W        W10085   4.692   7.049   9.117
 5886W        W10086   5.092   7.153  10.980
 5887W        W10087   8.347   4.834   2.175
 5888W        W10088  11.350   4.791   0.286
 5889W        W10089   2.369   8.613   2.837
 5890W        W10090   6.458   8.020   8.660
 5891W        W10091  11.040   2.805   1.797
 5892W        W10092   6.515   8.484   9.880
 5893W        W10093   5.560   3.257   9.757
 5894W        W10094  10.337   5.507  10.990
 5895W        W10095  10.315   0.257   1.332
 5896W        W10096   3.475  10.174   0.637
 5897W        W10097   4.904   1.140  10.535
 5898W        W10098   2.677  10.999  11.252
 5899W        W10099   7.533  10.188  11.941
 5900W        W10100   2.099   6.673   0.316
 5901W        W10101  10.449   1.064   9.695
 5902W        W10102   7.328   8.311   1.416
 5903W        W10103   2.607   8.861  10.369
 5904W        W10104   2.713   5.841   1.599
 5905W        W10105   7.524   9.531   2.784
 5906W        W10106   8.614   3.196   2.671
 5907W        W10107   6.522  11.393   2.900
 5908W        W10108   5.334   4.788   9.440
 5909W        W10109   1.699   9.736  10.100
 5910W        W10110   0.284   7.564   2.736
 5911W        W10111   2.852  10.424   1.414
 5912W        W10112  10.415   3.792   1.232
 5913W        W10113   6.204   8.183   9.073
 5914W        W10114   9.495   0.223   0.516
 5915W        W10115   6.002   7.190   1.763
 5916W        W10116   4.478  10.536  10.554
 5917W        W10117   0.406  11.011   8.953
 5918W        W10118  11.098   1.810   0.809
 5919W        W10119   3.376   9.786   0.960
 5920W        W10120   5.415   1.058  10.432
 5921W        W10121   6.565   9.518   1.639
 5922W        W10122   6.217   1.912   8.425
 5923W        W10123   0.281   8.477   8.812
 5924W        W10124   1.650   3.113  11.928
 5925W        W10125   9.079   8.573   3.261
 5926W        W10126   4.672   8.733   9.794
 5927W        W10127   9.302   2.815   9.045
 5928W        W10128   7.229  11.405   1.306
 5929W        W10129   6.239   8.936   0.045
 5930W        W10130   9.358   6.103   8.790
 5931W        W10131  10.004   4.564   1.795
 5932W        W10132   1.791   1.984   3.640
 5933W        W10133   1.107   2.288   3.639
 5934W        W10134  11.245   9.457  10.514
 5935W        W10135   2.650   1.087   8.804
 5936W        W10136  10.725   4.573  10.063
 5937W        W10137   2.157   6.790  10.738
 5938W        W10138   7.126   7.948  11.940
 5939W        W10139   1.428  10.882  10.746
 5940W        W10140   9.241   7.509  11.955
 5941W        W10141   4.246   8.471   1.827
 5942W        W10142  10.030   5.796   1.213
 5943W        W10143   4.496  10.680   2.244
 5944W        W10144  10.079   2.641  11.934
 5945W        W10145   2.742   8.562   1.987
 5946W        W10146  10.305   4.574  10.338
 5947W        W10147   7.444   9.889  11.005
 5948W        W10148   4.239  11.137   2.254
 5949W        W10149   8.231   8.575   0.792
 5950W        W10150   9.004   6.816   0.520
 5951W        W10151   6.720   1.872   9.804
 5952W        W10152   1.616   0.642   0.416
 5953W        W10153   9.144   6.707   2.728
 5954W        W10154   9.011   7.325   0.755
 5955W        W10155   7.155   5.634   9.859
 5956W        W10156   2.639   9.910   1.372
 5957W        W10157  11.315   0.645   0.178
 5958W        W10158   7.133   2.558   0.289
 5959W        W10159   5.272   5.236   1.514
 5960W        W10160   5.222   0.215  10.210
 5961W        W10161  10.986   8.875   2.301
 5962W        W10162   0.711   9.228   8.906
 5963W        W10163   7.448   1.771   2.472
 5964W        W10164  10.919   6.008   8.909
 5965W        W10165   2.680  11.458   2.882
 5966W        W10166   0.686   4.098  11.500
 5967W        W10167   8.970   5.583  11.044
 5968W        W10168  11.173   7.227  11.509
 5969W        W10169   5.740   7.056  10.121
 5970W        W10170   9.140   2.247   3.461
 5971W        W10171   1.777  11.319   2.279
 5972W        W10172   6.946   2.233  10.092
 5973W        W10173  10.403   7.432   8.859
 5974W        W10174   0.901   0.177   1.642
 5975W        W10175   8.603   8.988  11.477
 5976W        W10176   1.423   9.811   1.984
 5977W        W10177   4.196   4.348   2.844
 5978W        W10178  10.049   5.084   1.936
 5979W        W10179  10.359  11.073  11.571
 5980W        W10180  10.571   3.171   2.845
 5981W        W10181  10.995   7.679  10.784
 5982W        W10182   7.038   7.137  11.060
 5983W        W10183   9.360   9.538  11.715
 5984W        W10184  10.604   7.982   0.915
 5985W        W10185   5.013   5.211  10.991
 5986W        W10186   1.596   1.984   2.701
 5987W        W10187   1.467   4.474   1.136
 5988W        W10188   9.242   7.018  11.483
 5989W        W10189   0.178   9.406   2.631
 5990W        W10190   1.135   6.565   0.164
 5991W        W10191  11.426   1.529  11.529
 5992W        W10192   6.243   8.993   9.395
 5993W        W10193   3.778  10.821   2.332
 5994W        W10194   6.049   5.564  11.766
 5995W        W10195   5.504   1.799   2.619
 5996W        W10196   2.530   8.985   9.461
 5997W        W10197  10.040  10.944   0.480
 5998W        W10198   9.949   8.581   3.482
 5999W        W10199   6.905   7.116   3.681
 6000W        W10200   4.159   9.985  10.260
 6001W        W10201   3.307  10.337  11.352
 6002W        W10202   3.008   6.259   1.579
 6003W        W10203   2.732   0.475   3.021
 6004W        W10204   6.112  10.981  11.903
 6005W        W10205   8.001   6.104   2.004
 6006W        W10206   4.639   4.364  11.338
 6007W        W10207   5.041   0.190   0.759
 6008W        W10208   4.028   9.680  11.056
 6009W        W10209  10.081   8.554   2.982
 6010W        W10210   5.171   3.617   3.205
 6011W        W10211  10.458   1.926  10.055
 6012W        W10212   2.704   5.480   3.615
 6013W        W10213   7.680   9.842  10.519
 6014W        W10214   8.245   5.583   1.157
 6015W        W10215   3.870   0.755  11.740
 6016W        W10216   1.025   6.962   3.605
 6017W        W10217   2.253   7.926   3.264
 6018W        W10218   0.592   7.944   3.578
 6019W        W10219   7.944   1.416   9.726
 6020W        W10220   1.300   2.542   8.864
 6021W        W10221   8.266   8.074  10.568
 6022W        W10222  10.856   0.977   2.219
 6023W        W10223   0.518   1.916   1.056
 6024W        W10224   9.355   9.622   9.459
 6025W        W10225   7.927   5.166   2.271
 6026W        W10226   8.804   4.598   2.262
 6027W        W10227   5.210   3.731   0.288
 6028W        W10228   9.282   7.103   2.390
 6029W        W10229   8.356   0.456   9.418
 6030W        W10230   7.877  11.239   0.773
 6031W        W10231   1.011   7.288  10.934
 6032W        W10232   8.962   5.196   9.841
 6033W        W10233   6.554  10.274   0.376
 6034W        W10234   7.049   3.750   2.649
 6035W        W10235   6.210  11.430   1.911
 6036W        W10236   6.128   9.482   3.538
 6037W        W10237   1.735   8.939   3.706
 6038W        W10238   5.540   9.474   0.767
 6039W        W10239  11.033   3.247   9.135
 6040W        W10240   0.722   6.519   3.505
 6041W        W10241   0.136   5.335  11.233
 6042W        W10242   2.740   4.156   2.514
 6043W        W10243   9.791   3.092  11.988
 6044W        W10244   7.107   4.419  10.792
 6045W        W10245   3.825   6.977   0.621
 6046W        W10246   7.432   6.533   2.252
 6047W        W10247  11.023  10.967   9.533
 6048W        W10248   6.967   8.704  11.542
 6049W        W10249   4.631   7.230   1.025
 6050W        W10250   1.714   0.327   2.154
 6051W        W10251   5.545   4.581   9.859
 6052W        W10252  10.417   3.052  11.076
 6053W        W10253  10.185   7.046   1.408
 6054W        W10254   2.430   8.665   9.860
 6055W        W10255   8.451   0.308  10.996
 6056W        W10256  10.890   5.388   3.474
 6057W        W10257  10.607   1.396   2.398
 6058W        W10258   9.584   8.211   0.873
 6059W        W10259   3.609   9.480  11.310
 6060W        W10260   6.589   0.337  10.563
 6061W        W10261   3.621   5.737   9.870
 6062W        W10262   7.016   1.732  11.775
 6063W        W10263   9.854   8.135  10.328
 6064W        W10264  10.395   3.994   2.561
 6065W        W10265   8.218   2.126   2.802
 6066W        W10266  10.227   2.185  11.431
 6067W        W10267   2.442  10.408   3.227
 6068W        W10268   3.727   9.796  10.081
 6069W        W10269   8.654   0.974   8.604
 6070W        W10270   2.741   4.878   1.800
 6071W        W10271   6.034   3.332   2.884
 6072W        W10272   2.717   3.404   9.410
 6073W        W10273  10.035   7.678  10.621
 6074W        W10274   6.873   5.813  10.806
 6075W        W10275   5.923  10.817   2.185
 6076W        W10276   4.478   7.686   1.222
 6077W        W10277   9.595  11.080   1.433
 6078W        W10278   5.917   5.047   2.201
 6079W        W10279   9.943   2.201   9.382
 6080W        W10280   4.554   4.490   4.081
 6081W        W10281   9.066   8.242   0.973
 6082W        W10282   6.051   8.456  10.757
 6083W        W10283  10.181  10.342   2.106
 6084W        W10284   6.227   8.472   8.632
 6085W        W10285   7.650   3.496   1.161
 6086W        W10286   1.840   1.736   2.211
 6087W        W10287   3.121  11.342   9.606
 6088W        W10288   8.993   0.657  11.690
 6089W        W10289   0.791   9.268   9.872
 6090W        W10290   9.312   4.710   0.832
 6091W        W10291   2.222   5.732   1.467
 6092W        W10292   0.812   4.320   9.032
 6093W        W10293   8.917   3.931   9.010
 6094W        W10294   0.272   9.801   0.385
 6095W        W10295   1.898   7.795   8.682
 6096W        W10296   4.832   8.872   1.006
 6097W        W10297  10.972   5.070   9.484
 6098W        W10298   7.362   9.634   9.291
 6099W        W10299   4.234   9.449   2.499
 6100W        W10300  11.083   4.328   1.059
 6101W        W10301   0.887   4.033   2.168
 6102W        W10302   5.762   6.146  10.223
 6103W        W10303   3.419   9.515   9.794
 6104W        W10304   9.978   1.714   1.570
 6105W        W10305   9.453   5.386   0.226
 6106W        W10306   2.855   5.729   0.716
 6107W        W10307   7.054   4.662  11.622
 6108W        W10308   8.812   8.567   1.780
 6109W        W10309   3.888   9.828   0.892
 6110W        W10310   9.583   3.759  11.363
 6111W        W10311   3.624   0.248  10.518
 6112W        W10312   4.622   6.987  10.982
 6113W        W10313   7.827   0.855  11.239
 6114W        W10314   8.488  11.308  10.059
 6115W        W10315   2.837  10.627   0.183
 6116W        W10316   8.941   2.829  10.613
 6117W        W10317   4.529  10.888   3.490
 6118W        W10318  10.398  10.656  11.247
 6119W        W10319   3.775   8.088   0.352
 6120W        W10320   2.826   8.213  11.491
 6121W        W10321   4.624   3.265  10.533
 6122W        W10322   1.174   8.960   9.732
 6123W        W10323  10.142   1.444  11.350
 6124W        W10324   6.268   1.332   9.477
 6125W        W10325   0.455   7.841  10.411
 6126W        W10326   3.113   8.924   0.465
 6127W        W10327   3.335   0.422   0.498
 6128W        W10328   5.194   8.167   9.414
 6129W        W10329  11.198   2.791   9.356
 6130W        W10330   9.364  10.541   2.322
 6131W        W10331   8.959  10.491   3.342
 6132W        W10332   0.330   8.831  11.374
 6133W        W10333   2.149   2.350   9.517
 6134W        W10334   8.019   0.369   1.412
 6135W        W10335   9.703  11.459   9.429
 6136W        W10336   1.725   4.839  11.503
 6137W        W10337   1.932  10.546   1.791
 6138W        W10338   8.155   8.915   0.324
 6139W        W10339   6.201   6.707   1.880
 6140W        W10340   4.227   4.591  11.738
 6141W        W10341   7.078   8.933   0.605
 6142W        W10342   4.241   2.667   3.621
 6143W        W10343   3.034   3.656   3.638
 6144W        W10344   3.695   8.898   9.192
 6145W        W10345   6.406   0.499   0.209
 6146W        W10346   6.118  11.306   2.400
 6147W        W10347   5.258   6.662   0.672
 6148W        W10348   5.133  11.017   2.787
 6149W        W10349   2.710   0.198  10.445
 6150W        W10350   7.662  10.775   2.175
 6151W        W10351   8.141  11.050   1.457
 6152W        W10352   5.475   8.019  10.777
 6153W        W10353  10.287   1.286   0.718
 6154W        W10354   5.557   8.570   3.776
 6155W        W10355   9.569   2.518   0.601
 6156W        W10356   5.173   4.450   2.768
 6157W        W10357   0.966   3.184   3.635
 6158W        W10358   2.391  11.128   0.952
 6159W        W10359   3.664   6.923  10.657
 6160W        W10360   6.472   5.446  10.139
 6161W        W10361   6.466   2.394  11.411
 6162W        W10362   1.954   8.460  10.945
 6163W        W10363   1.202   9.423   9.498
 6164W        W10364   6.336   7.148   0.512
 6165W        W10365   8.907   1.694   0.201
 6166W        W10366   9.796   2.850   2.366
 6167W        W10367   4.020   4.606   1.403
 6168W        W10368   5.525  10.015   2.978
 6169W        W10369   6.184  10.269   9.056
 6170W        W10370   7.033  10.947   9.049
 6171W        W10371   5.811   2.861   2.910
 6172W        W10372   1.162   1.651  11.739
 6173W        W10373  11.498   9.080  11.954
 6174W        W10374   7.753   5.579  11.837
 6175W        W10375   5.569   7.100  11.169
 6176W        W10376   4.338   2.243   8.819
 6177W        W10377   6.087   6.415   1.479
 6178W        W10378   3.428   9.825   2.773
 6179W        W10379   0.721   1.141   0.181
 6180W        W10380   0.294  10.055   8.953
 6181W        W10381   7.139   9.988   9.583
 6182W        W10382  10.918   6.232   2.496
 6183W        W10383   6.606  10.335   2.208
 6184W        W10384  10.849   3.451   9.623
 6185W        W10385   7.963   1.380  10.246
 6186W        W10386   9.834   4.167   9.784
 6187W        W10387   7.209   0.771   2.365
 6188W        W10388   0.910   8.042   2.530
 6189W        W10389  10.414   9.880   9.950
 6190W        W10390   3.732   6.487   0.351
 6191W        W10391   5.365   5.514   2.760
 6192W        W10392   1.851   4.132   1.338
 6193W        W10393   9.103  10.736   8.971
 6194W        W10394  10.095   1.750   9.051
 6195W        W10395  10.331   0.668   3.312
 6196W        W10396   1.337   6.599  11.314
 6197W        W10397   6.559   1.732   9.281
 6198W        W10398   9.317   0.464   8.749
 6199W        W10399   6.612  10.543   9.663
 6200W        W10400   1.792   8.568  10.458
 6201W        W10401   6.628   4.199   0.214
 6202W        W10402   0.645   4.549   3.404
 6203W        W10403   9.315   4.142  11.987
 6204W        W10404   6.709   9.439   1.165
 6205W        W10405   9.953  10.591   1.728
 6206W        W10406   2.130   7.582   0.248
 6207W        W10407   8.931   0.957   2.880
 6208W        W10408   8.468  10.491   3.130
 6209W        W10409   6.967  11.439  11.880
 6210W        W10410   3.417   9.911   1.792
 6211W        W10411   6.195   8.581   0.863
 6212W        W10412  11.214   7.918  10.346
 6213W        W10413  11.297   0.893   3.069
 6214W        W10414   7.723   0.747  10.016
 6215W        W10415   8.127   5.444   0.679
 6216W        W10416   9.087   5.670   1.133
 6217W        W10417   6.123   7.570   3.621
 6218W        W10418   8.824   1.417   0.908
 6219W        W10419   5.970  11.342  10.259
 6220W        W10420   5.941   8.037   8.620
 6221W        W10421   8.469   7.402   2.348
 6222W        W10422   4.570   0.065  11.985
 6223W        W10423  10.005   3.326   2.242
 6224W        W10424   8.705   8.396   9.594
 6225W        W10425  11.346   3.218   2.146
 6226W        W10426   0.702   1.654  11.982
 6227W        W10427   4.935   2.321   0.617
 6228W        W10428   9.444   8.540   3.637
 6229W        W10429  10.287   2.689  11.446
 6230W        W10430  10.572   8.119   9.171
 6231W        W10431   8.594   8.761   3.245
 6232W        W10432   1.028  10.362  11.899
 6233W        W10433   8.160   5.951  10.545
 6234W        W10434   2.139  10.145   3.567
 6235W        W10435   3.607   7.244   0.081
 6236W        W10436   4.742   9.911  11.390
 6237W        W10437   0.348  10.306  10.497
 6238W        W10438   9.300   0.662  10.892
 6239W        W10439   5.018   1.717   2.777
 6240W        W10440   1.995  10.237   0.714
 6241W        W10441   0.963   6.101  10.853
 6242W        W10442   4.867   7.520   3.101
 6243W        W10443   5.538   0.404   3.505
 6244W        W10444   7.921   0.482  10.878
 6245W        W10445   4.565   3.183   1.654
 6246W        W10446   2.263   6.719   1.781
 6247W        W10447   9.336   1.431   0.027
 6248W        W10448   3.813   0.397   1.916
 6249W        W10449   7.473   3.571   9.965
 6250W        W10450   4.541   7.505  11.790
 6251W        W10451   4.592   3.890  10.032
 6252W        W10452   5.708   5.618   9.505
 6253W        W10453   9.005  10.284  11.480
 6254W        W10454   5.482   1.366  11.491
 6255W        W10455   5.231   0.458   9.747
 6256W        W10456  11.452   6.907   2.654
 6257W        W10457   1.910   8.115  11.331
 6258W        W10458   5.968   5.231   0.896
 6259W        W10459  10.920   7.294  10.484
 6260W        W10460   5.674   8.043   1.490
 6261W        W10461   0.931  11.039   2.695
 6262W        W10462   0.711   6.339  11.938
 6263W        W10463   1.390  11.232   2.623
 6264W        W10464   7.317   6.849   1.458
 6265W        W10465   4.749   9.345  11.186
 6266W        W10466   8.851   9.008   2.053
 6267W        W10467   8.553   4.667   0.333
 6268W        W10468   8.886   4.211   1.682
 6269W        W10469   7.840   3.582   3.649
 6270W        W10470   5.623   8.024   0.956
 6271W        W10471   0.899   9.654  11.023
 6272W        W10472   9.970   0.003   2.128
 6273W        W10473   1.763   0.309   3.179
 6274W        W10474   9.067   6.264  11.150
 6275W        W10475   9.890  10.445  10.607
 6276W        W10476   7.850   5.597   2.598
 6277W        W10477  11.332   6.512   2.299
 6278W        W10478   0.173   2.209  10.313
 6279W        W10479   3.579   4.256  11.480
 6280W        W10480  10.468   0.366  10.323
 6281W        W10481   9.649   0.762   1.639
 6282W        W10482   3.972   3.655   1.145
 6283W        W10483   2.633   6.184   0.762
 6284W        W10484  11.068   4.745  11.860
 6285W        W10485   1.669   4.792   0.473
 6286W        W10486   4.218  10.566  11.021
 6287W        W10487   1.696   1.830   8.524
 6288W        W10488   3.643   8.388   9.401
 6289W        W10489   1.419  10.729   2.496
 6290W        W10490   4.231  10.354   9.564
 6291W        W10491   7.297   3.730   3.169
 6292W        W10492   1.221   4.577   0.622
 6293W        W10493   7.642  10.381  11.483
 6294W        W10494   8.997   9.827   9.153
 6295W        W10495   3.313   2.100   0.885
 6296W        W10496   4.333   1.961   2.134
 6297W        W10497   3.375   1.781  10.787
 6298W        W10498   1.358   8.052   2.274
 6299W        W10499   3.091   4.281   9.116
 6300W        W10500   7.183   3.049   1.924
 6301W        W10501   2.675   9.027   2.821
 6302W        W10502   7.684   3.642   9.472
 6303W        W10503  10.906  10.987   3.145
 6304W        W10504   7.726   0.380  10.390
 6305W        W10505   2.254   4.327   2.880
 6306W        W10506   8.414   2.859   9.523
 6307W        W10507   3.341   4.459   8.457
 6308W        W10508   9.101   6.820   3.981
 6309W        W10509   6.703   2.815  10.059
 6310W        W10510   7.883   0.986   8.856
 6311W        W10511   3.883   6.479  10.458
 6312W        W10512   5.628   1.858   1.098
 6313W        W10513   9.590   1.838   9.268
 6314W        W10514   8.950  11.221   9.109
 6315W        W10515   1.257   0.684   2.918
 6316W        W10516   2.630   8.702  11.577
 6317W        W10517   6.911  10.105   3.154
 6318W        W10518   6.946   1.914   8.987
 6319W        W10519   3.731   9.377  10.361
 6320W        W10520   9.225   0.505   3.385
 6321W        W10521   5.032   4.590   8.231
 6322W        W10522   9.998   2.322   0.346
 6323W        W10523   2.129   4.592   1.916
 6324W        W10524   6.735   8.420   8.462
 6325W        W10525  10.673   6.071  10.277
 6326W        W10526   7.517   1.250  10.030
 6327W        W10527   4.142   1.858   9.624
 6328W        W10528   5.954   9.168   9.022
 6329W        W10529   1.377   3.600   8.962
 6330W        W10530   9.549   6.069  11.034
 6331W        W10531   1.119   4.599   2.572
 6332W        W10532   1.750   3.934   8.924
 6333W        W10533   1.901   2.099   1.374
 6334W        W10534   3.711   3.123  10.824
 6335W        W10535   5.639   1.039   0.846
 6336W        W10536   9.411   0.818  11.367
 6337W        W10537   5.378   7.084   1.493
 6338W        W10538   3.627   9.556  11.889
 6339W        W10539  10.412   7.105   3.239
 6340W        W10540   0.057   2.405   3.192
 6341W        W10541  10.360   4.047   3.092
 6342W        W10542   9.417   3.166   3.292
 6343W        W10543   0.919   4.116   2.663
 6344W        W10544   8.212   3.843   2.941
 6345W        W10545   7.888   8.000   0.089
 6346W        W10546   0.816   4.620   0.943
 6347W        W10547   8.156   2.407   9.351
 6348W        W10548   5.644   4.841   1.797
 6349W        W10549   3.903   8.953   0.964
 6350W        W10550   8.932   5.986   1.824
 6351W        W10551   6.715   0.906   9.808
 6352W        W10552   8.797   3.463  11.967
 6353W        W10553   6.590   2.572   0.949
 6354W        W10554   6.933   6.012   1.824
 6355W        W10555   9.531   8.637   9.440
 6356W        W10556   1.259  10.642   0.286
 6357W        W10557   3.723   8.375  10.775
 6358W        W10558   0.825   1.796   9.870
 6359W        W10559   1.829   9.351   0.271
 6360W        W10560   2.355   5.227  10.008
 6361W        W10561   9.381   1.695   0.896
 6362W        W10562   9.815   0.154   2.791
 6363W        W10563   9.435  11.044   9.257
 6364W        W10564   1.990   2.771   3.220
 6365W        W10565   9.307   1.120   1.680
 6366W        W10566  10.389   5.912   9.011
 6367W        W10567   3.083   1.129   9.692
 6368W        W10568   8.448   7.512   0.406
 6369W        W10569   5.585  10.083   3.494
 6370W        W10570   9.140   1.833   3.171
 6371W        W10571   9.456   3.315   9.916
 6372W        W10572   9.386   5.687  11.328
 6373W        W10573   0.520   7.008   3.514
 6374W        W10574  10.205   3.134   3.543
 6375W        W10575   3.698   3.149   9.900
 6376W        W10576   1.395   8.058   9.246
 6377W        W10577   0.422   9.799   2.859
 6378W        W10578   1.247   0.294   3.237
 6379W        W10579   6.589   7.179   2.741
 6380W        W10580   7.376   3.546  11.890
 6381W        W10581   7.641  11.046   0.312
 6382W        W10582   4.785   8.975   2.015
 6383W        W10583   4.226   4.454   3.640
 6384W        W10584   5.450   8.454   0.234
 6385W        W10585   1.725   2.201   9.797
 6386W        W10586   8.636   5.926   2.267
 6387W        W10587   1.218   9.926  10.252
 6388W        W10588   3.053   7.435   1.182
 6389W        W10589   9.842   2.830   1.368
 6390W        W10590   6.128   0.421   1.176
 6391W        W10591   4.385  11.343   1.366
 6392W        W10592   6.017   6.256   1.993
 6393W        W10593   0.829  10.489  11.429
 6394W        W10594   7.072   2.737   1.117
 6395W        W10595   5.328   4.138   8.324
 6396W        W10596   1.395  10.939   9.006
 6397W        W10597   4.606   9.233   8.918
 6398W        W10598   1.151  10.009   0.249
 6399W        W10599   4.989   3.165   0.911
 6400W        W10600  11.142   1.603   3.534
 6401W        W10601   4.947   2.798   9.438
 6402W        W10602  10.120   7.952   9.329
 6403W        W10603   5.195  10.077  11.242
 6404W        W10604   2.750   3.854  10.504
 6405W        W10605   7.217   3.020   2.438
 6406W        W10606   2.869   6.037   0.304
 6407W        W10607   9.568   5.691   9.019
 6408W        W10608   8.427   4.138   8.767
 6409W        W10609  10.992   2.272   0.510
 6410W        W10610   5.228   2.361   9.455
 6411W        W10611   2.159   9.073  10.028
 6412W        W10612   4.072  10.398   2.390
 6413W        W10613   0.358   7.036   0.226
 6414W        W10614   9.588   5.035   1.236
 6415W        W10615   3.321  10.416   1.639
 6416W        W10616   3.395   6.670   0.688
 6417W        W10617   3.296   1.611   0.662
 6418W        W10618   4.630   8.422  11.230
 6419W        W10619   7.958   2.860   9.248
 6420W        W10620  10.413   1.681   3.293
 6421W        W10621   3.664   1.299   0.839
 6422W        W10622   1.664   9.084   9.855
 6423W        W10623   4.608   5.224  10.188
 6424W        W10624   5.159   0.434  11.273
 6425W        W10625   8.119  10.784   1.915
 6426W        W10626   2.415   9.320  10.724
 6427W        W10627  10.458   3.992  11.473
 6428W        W10628   6.167   2.873   9.418
 6429W        W10629   1.387   7.478   0.702
 6430W        W10630   3.953   2.923   8.634
 6431W        W10631  10.096   3.800   0.478
 6432W        W10632  11.316   1.366  10.298
 6433W        W10633   7.988   7.024   0.218
 6434W        W10634   1.159   9.507  11.468
 6435W        W10635  11.357   9.803   2.427
 6436W        W10636   9.583  11.175  10.756
 6437W        W10637   4.167   8.182  11.441
 6438W        W10638   9.384   6.878   1.148
 6439W        W10639   4.754   5.761   1.782
 6440W        W10640   3.135  10.963  10.346
 6441W        W10641   7.185   2.925   0.648
 6442W        W10642   6.675   0.028   9.628
 6443W        W10643   7.161  10.480   0.947
 6444W        W10644   9.654   1.255   2.174
 6445W        W10645   3.800  11.262   0.460
 6446W        W10646   6.710   7.927   4.152
 6447W        W10647   1.242   9.384   1.749
 6448W        W10648   4.218   6.586   3.159
 6449W        W10649   9.539   8.724  11.333
 6450W        W10650   1.194   5.934   0.773
 6451W        W10651   0.003   0.505   2.158
 6452W        W10652   2.914   7.982   1.833
 6453W        W10653   4.743   4.438   8.672
 6454W        W10654  10.435   3.747  10.327
 6455W        W10655   6.087   4.567   8.908
 6456W        W10656   3.450   0.021   8.657
 6457W        W10657   0.927   5.070  10.846
 6458W        W10658   0.241  10.561  10.075
 6459W        W10659   9.196  10.831  10.710
 6460W        W10660   7.578   6.030   1.045
 6461W        W10661   9.514   9.058   3.422
 6462W        W10662   7.707   2.144  11.216
 6463W        W10663   0.456   9.119  11.784
 6464W        W10664  10.413   5.420  10.036
 6465W        W10665   8.795   3.326   2.198
 6466W        W10666   0.377   8.939   2.734
 6467W        W10667   9.193   3.268  10.713
 6468W        W10668   4.810   8.513   9.352
 6469W        W10669  11.259   4.756   2.950
 6470W        W10670   7.148  11.254   2.324
 6471W        W10671   6.189   4.092   0.456
 6472W        W10672   1.882   3.865   9.783
 6473W        W10673  11.211   8.606   2.699
 6474W        W10674   1.506   8.229  11.677
 6475W        W10675   7.923  11.441   8.896
 6476W        W10676   0.778   5.241   8.808
 6477W        W10677   3.786   9.268  10.867
 6478W        W10678   2.781   6.971   9.269
 6479W        W10679   8.116   5.942  11.926
 6480W        W10680   3.909   2.344  10.285
 6481W        W10681   8.418   1.298   9.988
 6482W        W10682   0.471  11.073   2.177
 6483W        W10683   0.904   2.334  11.163
 6484W        W10684   9.627   6.076   3.374
 6485W        W10685   2.588   5.023   3.097
 6486W        W10686   1.774   8.989   0.827
 6487W        W10687   6.955  10.726  11.240
 6488W        W10688  11.046   7.216   2.635
 6489W        W10689   9.782   5.510  10.311
 6490W        W10690   1.260   3.259   3.213
 6491W        W10691   7.572   2.879   0.297
 6492W        W10692   4.369   0.530  11.082
 6493W        W10693   0.898  10.018   2.684
 6494W        W10694  10.297   0.864   1.003
 6495W        W10695   5.529   6.877   9.492
 6496W        W10696   0.234   6.616   3.717
 6497W        W10697   6.454   8.071   2.466
 6498W        W10698   5.574   3.710   2.782
 6499W        W10699   5.296   3.153  10.178
 6500W        W10700   1.398   5.832   1.228
 6501W        W10701   8.392   7.917   9.490
 6502W        W10702   5.713   0.870   8.624
 6503W        W10703   7.436  11.495  10.700
 6504W        W10704   9.003   2.057  11.869
 6505W        W10705   8.793   9.945   1.583
 6506W        W10706   4.188   8.232  10.931
 6507W        W10707  10.072   8.618  10.220
 6508W        W10708   6.428   0.473   9.714
 6509W        W10709   5.130  11.114   2.277
 6510W        W10710   2.847   6.978   0.367
 6511W        W10711   1.830   1.774   9.520
 6512W        W10712   7.892   0.189   9.343
 6513W        W10713   9.319   1.686  10.948
 6514W        W10714   4.009  11.297   1.723
 6515W        W10715   0.455   0.570   0.971
 6516W        W10716  11.370   9.505   0.268
 6517W        W10717   2.171  11.013  11.900
 6518W        W10718  10.420   0.853  10.160
 6519W        W10719   8.795   9.485   8.815
 6520W        W10720   0.016   8.114   9.522
 6521W        W10721   9.583   1.654   0.427
 6522W        W10722   5.305   4.222   0.500
 6523W        W10723   0.644   4.995   0.057
 6524W        W10724   3.487   7.811  10.358
 6525W        W10725  10.068   6.993  11.782
 6526W        W10726   4.066  11.384   0.023
 6527W        W10727   4.182   0.324   1.001
 6528W        W10728   1.723   8.151  10.163
 6529W        W10729   7.636   8.711   3.542
 6530W        W10730  10.440   9.883   2.403
 6531W        W10731   6.141   7.107   2.246
 6532W        W10732  10.299   4.666   0.946
 6533W        W10733  10.481   5.121   1.191
 6534W        W10734   7.872   9.959   3.167
 6535W        W10735  11.491   7.127   1.736
 6536W        W10736   6.125  10.314   9.932
 6537W        W10737   7.525   0.429   3.183
 6538W        W10738   2.893   6.625   0.748
 6539W        W10739   2.758  10.433  11.205
 6540W        W10740   4.208   3.598   3.287
 6541W        W10741  10.445   8.453   1.681
 6542W        W10742   0.200   0.837   9.224
 6543W        W10743   5.577   8.805  11.430
 6544W        W10744   5.988   8.322   9.922
 6545W        W10745   7.329   2.076   0.425
 6546W        W10746   3.162   1.764   3.054
 6547W        W10747   1.456   5.321   1.785
 6548W        W10748   5.977   8.646   9.037
 6549W        W10749   0.334   1.816   0.553
 6550W        W10750   0.292   4.684   2.061
 6551W        W10751   1.718   9.910   3.347
 6552W        W10752   1.250   6.685   2.162
 6553W        W10753   0.511   4.402   2.460
 6554W        W10754   5.712   0.799   1.287
 6555W        W10755   1.568   6.134   2.895
 6556W        W10756   0.423   8.068   2.673
 6557W        W10757   8.977   7.193   1.301
 6558W        W10758   1.695  10.861   3.342
 6559W        W10759   9.789   5.538   8.528
 6560W        W10760   0.667   7.621   2.283
 6561W        W10761   6.269   7.941   3.257
 6562W        W10762   4.346   5.393   0.272
 6563W        W10763   4.996   5.117   0.018
 6564W        W10764   6.608   0.346   9.222
 6565W        W10765   0.754   6.729  10.885
 6566W        W10766   6.510   9.130   1.941
 6567W        W10767   2.742   2.031   9.958
 6568W        W10768   5.060   8.395   9.858
 6569W        W10769   9.292   3.300   0.026
 6570W        W10770   8.370   7.966   3.593
 6571W        W10771   1.177   6.789   1.134
 6572W        W10772   8.952   2.143  11.377
 6573W        W10773   8.451   3.900   1.258
 6574W        W10774  10.133   5.899  10.275
 6575W        W10775   1.730   1.056   2.694
 6576W        W10776   4.214   4.352  10.891
 6577W        W10777   6.002  11.461   0.905
 6578W        W10778   1.068   6.243  11.555
 6579W        W10779   8.904   6.625  11.509
 6580W        W10780   5.515   6.153   0.835
 6581W        W10781   0.794   0.487  11.353
 6582W        W10782   2.721   0.280   1.456
 6583W        W10783   6.893   2.561   9.029
 6584W        W10784   7.835   9.343   2.020
 6585W        W10785   9.488   7.893   2.703
 6586W        W10786   5.538   5.704   1.505
 6587W        W10787   4.215   8.322   0.458
 6588W        W10788   7.746   6.872   0.925
 6589W        W10789   1.282   1.780   3.663
 6590W        W10790   6.156   6.204  10.552
 6591W        W10791   9.484   1.928   1.357
 6592W        W10792   2.317   3.131   0.913
 6593W        W10793   2.225   9.130   1.488
 6594W        W10794   7.139   3.832   0.254
 6595W        W10795   4.005   4.225   9.103
 6596W        W10796   2.849   0.671  11.856
 6597W        W10797   4.298  10.320   2.868
 6598W        W10798   9.534   4.900  10.973
 6599W        W10799   8.994   9.471  10.933
 6600W        W10800  11.419   2.123   8.572
 6601W        W10801   8.043  11.470  10.885
 6602W        W10802   8.659   1.764  10.398
 6603W        W10803   4.759   8.473   1.804
 6604W        W10804   8.623   0.228   9.790
 6605W        W10805   4.085   5.097   9.049
 6606W        W10806   3.208   7.228   9.409
 6607W        W10807   3.704   7.295  11.578
 6608W        W10808   5.518   7.130   0.827
 6609W        W10809   4.904   1.430   1.244
 6610W        W10810   9.509   7.038   3.772
 6611W        W10811   0.905   0.039   3.520
 6612W        W10812   3.845   9.456   9.323
 6613W        W10813  11.339   0.170   1.188
 6614W        W10814   0.908   8.747  10.811
 6615W        W10815   1.481  10.378   9.491
 6616W        W10816   6.142  10.402   2.443
 6617W        W10817   9.345  11.009   0.006
 6618W        W10818   0.397   2.214   9.260
 6619W        W10819   7.377   3.374   0.416
 6620W        W10820   2.438   4.603   8.827
 6621W        W10821   9.894   7.230   0.955
 6622W        W10822   0.473   3.776   9.016
 6623W        W10823   9.466   3.832   9.876
 6624W        W10824   8.648   1.311   0.441
 6625W        W10825   0.298   9.062   9.837
 6626W        W10826   8.039  10.333  11.812
 6627W        W10827   6.185   7.868  10.021
 6628W        W10828   2.833   0.921   0.749
 6629W        W10829   2.612   4.419   1.992
 6630W        W10830   6.040  10.129  10.761
 6631W        W10831  10.466   1.764   1.771
 6632W        W10832   0.467  11.231   2.786
 6633W        W10833   2.125   6.416   2.156
 6634W        W10834   5.404   4.079   3.106
 6635W        W10835   3.112   0.828   0.278
 6636W        W10836   7.606  10.738   3.533
 6637W        W10837   4.554   7.088   0.081
 6638W        W10838  10.822   6.575   1.676
 6639W        W10839   2.437  10.763   8.691
 6640W        W10840   6.987   6.960   1.836
 6641W        W10841   0.335   1.925   2.359
 6642W        W10842   2.654   7.043   0.979
 6643W        W10843   1.518   6.206   8.760
 6644W        W10844   6.043   9.272  10.070
 6645W        W10845   6.097   0.849   0.920
 6646W        W10846   6.162  10.183   0.688
 6647W        W10847   3.650   7.887  10.904
 6648W        W10848   7.494   4.640  11.882
 6649W        W10849   9.782   0.580  10.943
 6650W        W10850   7.082   7.891   0.523
 6651W        W10851   1.354   3.071   8.801
 6652W        W10852  10.910   9.055   1.828
 6653W        W10853   8.579   8.894  10.950
 6654W        W10854   9.056   8.896  11.784
 6655W        W10855   1.744   6.721   2.303
 6656W        W10856   7.435  10.875  11.431
 6657W        W10857   1.809   3.849   1.770
 6658W        W10858   1.521   5.693   8.939
 6659W        W10859   5.437   8.189   3.454
 6660W        W10860   9.385   9.622   0.562
 6661W        W10861   0.825   1.951   0.623
 6662W        W10862   4.818   3.877  11.344
 6663W        W10863  10.161   4.327   2.226
 6664W        W10864   8.539   0.901  11.706
 6665W        W10865   2.204   4.573  10.479
 6666W        W10866   1.099   9.038  10.243
 6667W        W10867   7.942   2.723   0.946
 6668W        W10868   2.216  11.494  10.401
 6669W        W10869   7.096   1.429   9.125
 6670W        W10870   1.031   8.478   1.257
 6671W        W10871   7.425   0.710  10.942
 6672W        W10872   6.484   8.615   2.622
 6673W        W10873  10.252   4.150  10.071
 6674W        W10874   1.498   1.493   8.858
 6675W        W10875   2.273  10.712  11.373
 6676W        W10876   0.970   0.018  11.455
 6677W        W10877   1.229   8.140  10.066
 6678W        W10878   1.887   3.994   3.534
 6679W        W10879   1.626   6.591   1.276
 6680W        W10880   1.288   6.674   8.713
 6681W        W10881   9.281   2.410   1.786
 6682W        W10882   8.429   4.120   9.814
 6683W        W10883   5.073   5.234   9.951
 6684W        W10884   0.235   4.014   0.439
 6685W        W10885   4.169   1.877   0.875
 6686W        W10886   7.064   4.256   9.084
 6687W        W10887   2.391   6.632   0.823
 6688W        W10888   7.016   4.048  10.428
 6689W        W10889   8.862   2.662  11.479
 6690W        W10890   8.987   2.680  10.099
 6691W        W10891  10.509   3.558   0.281
 6692W        W10892   4.009   4.064  11.828
 6693W        W10893   9.867   5.561   2.131
 6694W        W10894   8.015   7.146  11.307
 6695W        W10895   8.234   8.188   4.032
 6696W        W10896   8.726   5.587   9.361
 6697W        W10897   7.536   9.173   0.562
 6698W        W10898   8.020   6.514   3.239
 6699W        W10899   5.440   8.150   8.650
 6700W        W10900   0.087   4.234   1.129
 6701W        W10901   1.199   2.226   0.897
 6702W        W10902   9.938   9.237   1.324
 6703W        W10903   1.355   8.972   2.419
 6704W        W10904   3.722   1.895   0.652
 6705W        W10905   5.109   8.596  11.364
 6706W        W10906  10.890  10.388   0.343
 6707W        W10907   6.244   7.194   9.085
 6708W        W10908   0.842   6.142   0.413
 6709W        W10909   6.209   8.469   3.191
 6710W        W10910  11.277   0.800   9.516
 6711W        W10911   0.919   0.771   1.105
 6712W        W10912   7.491   8.062   1.853
 6713W        W10913   7.590  10.022   9.019
 6714W        W10914   5.320   8.782   4.175
 6715W        W10915  11.140   0.513   3.385
 6716W        W10916   6.047   3.590   0.438
 6717W        W10917   5.168  10.515   1.533
 6718W        W10918   8.500  11.294   8.779
 6719W        W10919   6.745   3.272  11.145
 6720W        W10920  10.936   3.838  11.610
 6721W        W10921   9.824  10.097  10.254
 6722W        W10922   0.440   5.739   9.074
 6723W        W10923   8.597   9.307   1.290
 6724W        W10924   7.577   2.585   9.558
 6725W        W10925   0.817   4.043   1.662
 6726W        W10926   8.722   3.637  11.468
 6727W        W10927   3.984   7.726   2.692
 6728W        W10928   5.765  11.364  11.344
 6729W        W10929   7.061   7.345   0.370
 6730W        W10930   7.443   1.821   9.053
 6731W        W10931   8.823   0.205   9.288
 6732W        W10932   7.435   9.245   8.964
 6733W        W10933   4.241  10.807   2.690
 6734W        W10934  11.208   2.399   0.966
 6735W        W10935   3.133   2.204   3.327
 6736W        W10936  10.933   9.278   1.370
 6737W        W10937   1.392   3.789  11.994
 6738W        W10938   1.547   1.186   8.394
 6739W        W10939   2.803   0.220   9.423
 6740W        W10940   8.434   2.725   9.036
 6741W        W10941   7.021  10.773   9.911
 6742W        W10942   2.405   2.740   2.168
 6743W        W10943   9.126   1.921   1.758
 6744W        W10944   1.578   5.649   9.772
 6745W        W10945   2.034   8.122  10.577
 6746W        W10946   1.060   6.120  10.181
 6747W        W10947  11.179   4.028   3.499
 6748W        W10948   7.462   5.665  10.285
 6749W        W10949   7.916   6.060   2.940
 6750W        W10950   7.698   4.700   8.622
 6751W        W10951   9.418   9.053   1.354
 6752W        W10952   4.003   4.646   3.213
 6753W        W10953   3.182   6.706   9.455
 6754W        W10954   7.814   1.824   0.424
 6755W        W10955   9.300   3.715   0.712
 6756W        W10956  10.544   1.680  10.517
 6757W        W10957   4.148   4.724   1.901
 6758W        W10958   8.042  11.057   2.348
 6759W        W10959   4.687   2.187   2.987
 6760W        W10960   1.718  10.686   0.604
 6761W        W10961   1.975   2.738   0.009
 6762W        W10962  10.685   9.517   1.755
 6763W        W10963  10.926   5.498   9.130
 6764W        W10964   9.835   5.606   2.633
 6765W        W10965   2.801   4.624   8.011
 6766W        W10966  10.149   5.128   9.700
 6767W        W10967   4.337   7.330  10.010
 6768W        W10968   4.251   3.730   1.569
 6769W        W10969   7.947   2.643   1.963
 6770W        W10970   6.132   4.570   2.214
 6771W        W10971   2.922   4.895  10.391
 6772W        W10972   0.689   6.174   9.805
 6773W        W10973   5.171   8.175   0.692
 6774W        W10974   5.219   9.632   9.546
 6775W        W10975   3.807   4.161   9.616
 6776W        W10976  11.047   9.774  10.889
 6777W        W10977   7.032   6.900   2.817
 6778W        W10978   3.357   7.422   2.153
 6779W        W10979   3.726   5.768   0.970
 6780W        W10980   8.725   5.970   0.320
 6781W        W10981   0.276  10.336   0.476
 6782W        W10982   0.240   6.200  11.694
 6783W        W10983   1.676   7.638   9.489
 6784W        W10984   5.126   8.437  10.877
 6785W        W10985   7.525   5.661   0.691
 6786W        W10986  10.823   8.139  10.621
 6787W        W10987   5.713   2.857   0.873
 6788W        W10988  10.663   4.348   2.277
 6789W        W10989  11.032   1.402  11.144
 6790W        W10990   3.738   7.430  10.598
 6791W        W10991   1.322   1.972  10.750
 6792W        W10992   6.729  11.206  11.255
 6793W        W10993   4.112   1.217   9.926
 6794W        W10994   5.822   2.550   0.469
 6795W        W10995   0.020   0.336   2.647
 6796W        W10996   4.306  10.642   1.467
 6797W        W10997   6.968   7.533  10.304
 6798W        W10998   5.778   5.737   3.019
 6799W        W10999   6.819   1.652  10.360
 6800W        W11000   8.853  11.033  10.378
 6801W        W11001   8.433   9.031   0.906
 6802W        W11002  10.933   3.159   2.498
 6803W        W11003   1.836   3.149  11.450
 6804W        W11004   6.235  11.430   9.339
 6805W        W11005   0.853   5.416   0.274
 6806W        W11006   9.956   7.964  11.443
 6807W        W11007   9.736   5.644   3.118
 6808W        W11008   5.653   7.659  11.974
 6809W        W11009   5.133   9.679   2.832
 6810W        W11010   5.257   0.615   8.682
 6811W        W11011   4.088   9.020   9.508
 6812W        W11012   5.158   9.945   0.259
 6813W        W11013  10.804   6.126   1.437
 6814W        W11014   9.620   3.928   0.361
 6815W        W11015   9.880   5.795   1.691
 6816W        W11016   9.110   4.668   1.839
 6817W        W11017   5.414   3.307   3.547
 6818W        W11018   4.113   5.512   1.239
 6819W        W11019   1.714   2.781   9.063
 6820W        W11020   7.848   1.322   0.772
 6821W        W11021  11.056   0.282   2.377
 6822W        W11022   0.367  10.478   1.963
 6823W        W11023   2.133   8.936  10.532
 6824W        W11024   9.969   9.134  10.097
 6825W        W11025   0.821   8.186   3.037
 6826W        W11026   2.402   4.833   2.305
 6827W        W11027   6.959   5.283  11.037
 6828W        W11028   5.790   8.105   3.099
 6829W        W11029   1.811   4.254   2.655
 6830W        W11030   9.863   9.032  10.582
 6831W        W11031  10.911   2.376   1.460
 6832W        W11032   8.845   0.661  11.191
 6833W        W11033   2.257   6.184   8.828
 6834W        W11034   0.664   0.942   0.657
 6835W        W11035  10.052   3.230  10.280
 6836W        W11036   8.038   2.679   1.447
 6837W        W11037   0.154   9.312  11.332
 6838W        W11038   4.982   9.265   8.053
 6839W        W11039   6.184   2.844  10.782
 6840W        W11040   8.441   2.186  10.231
 6841W        W11041   8.408  11.446  11.948
 6842W        W11042   6.691  10.252   1.699
 6843W        W11043   6.431   7.641   9.522
 6844W        W11044   8.442   2.899   1.049
 6845W        W11045   7.466   1.416   2.842
 6846W        W11046   9.706   5.791  11.723
 6847W        W11047   3.184   3.847   1.655
 6848W        W11048   4.551   9.794  11.870
 6849W        W11049   2.311   4.360   1.318
 6850W        W11050   8.862   7.159  10.735
 6851W        W11051   5.396   1.456   9.757
 6852W        W11052   4.265   0.708   9.916
 6853W        W11053   6.162   0.763   2.990
 6854W        W11054   1.878   8.554   2.740
 6855W        W11055   7.054   1.398   3.185
 6856W        W11056   8.491   2.227   2.251
 6857W        W11057   7.238   6.652  10.836
 6858W        W11058  11.336  10.319   8.964
 6859W        W11059   4.432   2.313   0.763
 6860W        W11060   8.746   6.081   9.457
 6861W        W11061   1.443   3.670   9.478
 6862W        W11062  11.221   5.714   8.516
 6863W        W11063   7.444  10.002   0.913
 6864W        W11064  11.447   1.750   9.608
 6865W        W11065   1.674   5.620   2.149
 6866W        W11066   0.944   8.983   3.458
 6867W        W11067  11.357   1.258   9.294
 6868W        W11068  10.873   7.596  11.280
 6869W        W11069   0.716   5.756   9.506
 6870W        W11070   4.483   6.103  11.748
 6871W        W11071   9.321   1.185   0.941
 6872W        W11072   1.433   8.478  11.000
 6873W        W11073   1.317   1.141   3.096
 6874W        W11074   9.882  11.034   8.488
 6875W        W11075   0.788   7.500   8.942
 6876W        W11076   8.999   3.902   2.945
 6877W        W11077  10.524   3.566  11.776
 6878W        W11078   7.107   4.647   0.452
 6879W        W11079  10.852   6.648   2.164
 6880W        W11080   1.330  11.143   3.541
 6881W        W11081   8.467   4.853   1.264
 6882W        W11082   8.718   3.810   9.506
 6883W        W11083   1.832   1.835   9.020
 6884W        W11084   8.085  10.946   8.838
 6885W        W11085   7.855   9.571   9.192
 6886W        W11086   5.976   6.074   0.581
 6887W        W11087   9.361  10.148  10.449
 6888W        W11088   0.853   7.393   3.356
 6889W        W11089   2.792   8.832   9.064
 6890W        W11090   9.538   8.201  11.262
 6891W        W11091   1.214   7.570   1.517
 6892W        W11092   1.349   3.347  11.183
 6893W        W11093   6.150   8.625   1.374
 6894W        W11094   1.486  11.350   3.112
 6895W        W11095   8.654   0.468  10.285
 6896W        W11096  10.473   2.130   0.471
 6897W        W11097   9.414   5.893   1.504
 6898W        W11098  10.884   6.689  11.615
 6899W        W11099   1.839   3.179   9.461
 6900W        W11100   5.941  10.720  10.903
 6901W        W11101   2.150  10.313   2.225
 6902W        W11102   2.278   2.702  10.383
 6903W        W11103   8.523   9.800  10.827
 6904W        W11104   6.427   1.508  10.000
 6905W        W11105  11.449   0.814   1.698
 6906W        W11106   0.435   2.267  11.361
 6907W        W11107   8.132   1.297  11.134
 6908W        W11108   9.638   6.048   2.849
 6909W        W11109   7.059   2.753   3.559
 6910W        W11110   9.626   1.889  10.295
 6911W        W11111   1.846   7.069   0.506
 6912W        W11112   5.114   2.761   3.667
 6913W        W11113   4.822   6.180   9.719
 6914W        W11114   8.004   3.835   2.478
 6915W        W11115   4.622   1.114   9.896
 6916W        W11116   8.339   2.721  11.501
 6917W        W11117   2.764   5.821  11.264
 6918W        W11118   8.407   0.057   1.604
 6919W        W11119   3.816   0.006   1.271
 6920W        W11120  11.370  10.629   0.274
 6921W        W11121   5.805   0.698   0.496
 6922W        W11122   1.799   4.264  10.425
 6923W        W11123   5.129   4.782  10.747
 6924W        W11124  10.594   1.749   0.786
 6925W        W11125   3.618  11.180   0.918
 6926W        W11126   0.035   4.717  10.449
 6927W        W11127   6.222   9.601   1.264
 6928W        W11128  11.443   7.747   9.081
 6929W        W11129   4.542   6.486  10.993
 6930W        W11130   5.191  10.370   2.034
 6931W        W11131   1.494   7.611   2.552
 6932W        W11132   5.997   7.691   1.270
 6933W        W11133   7.324   5.815   0.245
 6934W        W11134   0.242   7.264   2.284
 6935W        W11135   6.105   7.027  11.068
 6936W        W11136   9.589   0.937  10.159
 6937W        W11137   9.936   9.654  10.049
 6938W        W11138   0.945   3.877   8.793
 6939W        W11139   0.751  10.743   9.297
 6940W        W11140   8.643   7.912   2.620
 6941W        W11141  11.187   9.632  11.363
 6942W        W11142   3.353   3.792  11.315
 6943W        W11143  10.438   2.626   0.318
 6944W        W11144   5.710   7.070   2.986
 6945W        W11145   7.216   2.181   2.263
 6946W        W11146   2.504   5.037   7.924
 6947W        W11147  10.010   2.373   2.414
 6948W        W11148   9.591   5.160   2.203
 6949W        W11149   5.249  10.974   1.307
 6950W        W11150   4.450   2.774   8.722
 6951W        W11151   0.048   4.575  11.852
 6952W        W11152   8.964   3.389   0.525
 6953W        W11153   7.552  10.826  10.098
 6954W        W11154   8.915   4.299   9.380
 6955W        W11155  10.302   3.201   1.846
 6956W        W11156   7.402   6.481   0.771
 6957W        W11157  11.067   5.747   1.218
 6958W        W11158   3.285   5.212  10.525
 6959W        W11159  10.704   5.513   2.685
 6960W        W11160  11.460   9.379   8.581
 6961W        W11161   5.078   4.067   0.939
 6962W        W11162   9.070   6.920   8.571
 6963W        W11163   7.349   4.814   0.883
 6964W        W11164   3.138   1.862  11.241
 6965W        W11165  11.039   5.176   2.496
 6966W        W11166   3.600   4.563   1.705
 6967W        W11167   0.740   2.387   1.008
 6968W        W11168   2.688   6.612   1.266
 6969W        W11169   2.150   3.610   3.277
 6970W        W11170   5.718   1.068   9.977
 6971W        W11171   9.579   8.084   2.238
 6972W        W11172   8.064   1.676  11.504
 6973W        W11173  10.429   8.395   9.923
 6974W        W11174   0.409   7.495   9.814
 6975W        W11175   7.213   8.493  10.518
 6976W        W11176  11.418   9.261   1.558
 6977W        W11177  10.445  11.472   8.910
 6978W        W11178   5.130   1.667  11.970
 6979W        W11179  11.029   2.425   3.128
 6980W        W11180   7.880  10.745   9.636
 6981W        W11181   7.437   5.303  11.252
 6982W        W11182   1.717  10.000  11.069
 6983W        W11183  10.484   3.613   2.202
 6984W        W11184  11.266   6.064   9.610
 6985W        W11185   4.194   4.088   2.303
 6986W        W11186   7.973   5.163   8.714
 6987W        W11187   3.235   5.817  11.058
 6988W        W11188   5.998  10.977   9.151
 6989W        W11189   7.350   6.249  11.493
 6990W        W11190   3.239   5.628   1.044
 6991W        W11191   0.751   1.678   1.508
 6992W        W11192   7.475   4.582   9.084
 6993W        W11193   1.167   0.764   3.444
 6994W        W11194   6.906   8.379   2.462
 6995W        W11195   5.603   9.140   9.822
 6996W        W11196   3.011   2.858  11.460
 6997W        W11197   8.591   8.306   8.643
 6998W        W11198   6.014   3.339  10.772
 6999W        W11199  11.496   9.853   9.739
 7000W        W11200   8.473   3.699   9.052
 7001W        W11201   2.313   0.756  11.356
 7002W        W11202   0.287  11.337  11.307
 7003W        W11203   5.325   2.653  10.305
 7004W        W11204   7.977   8.435   0.356
 7005W        W11205   8.801   8.160   3.376
 7006W        W11206   0.037   5.126  10.766
 7007W        W11207   0.545   7.060   9.521
 7008W        W11208   0.786   6.215   9.274
 7009W        W11209   9.361   2.195  10.620
 7010W        W11210   8.611  10.570   0.045
 7011W        W11211   4.192   5.719  10.779
 7012W        W11212   4.831   1.166   0.246
 7013W        W11213  10.930   8.372   3.558
 7014W        W11214   1.544   8.973   9.375
 7015W        W11215   6.081   4.450  10.451
 7016W        W11216  10.437  10.026   8.975
 7017W        W11217  10.432   9.965   1.365
 7018W        W11218   0.400   3.152  11.258
 7019W        W11219   7.632   0.817   1.205
 7020W        W11220   3.362   2.173   2.795
 7021W        W11221   0.586   1.843  10.459
 7022W        W11222   4.666   4.193   3.615
 7023W        W11223   3.068  11.450  11.870
 7024W        W11224   1.135   6.301   2.626
 7025W        W11225   4.741   6.753   8.693
 7026W        W11226   2.561   8.371   2.437
 7027W        W11227   2.356   5.531   9.590
 7028W        W11228   1.350   4.058   1.420
 7029W        W11229   0.008   4.824   8.784
 7030W        W11230   2.392   3.582   0.255
 7031W        W11231   6.992   3.626  10.824
 7032W        W11232   2.642   7.503   1.624
 7033W        W11233   4.576   2.249   1.667
 7034W        W11234   3.681   9.013   1.519
 7035W        W11235   3.928   8.604   9.773
 7036W        W11236  11.415   6.498   1.310
 7037W        W11237   6.960   0.231   1.659
 7038W        W11238   7.216   3.650   1.380
 7039W        W11239  11.055   1.768  10.509
 7040W        W11240   9.617   0.499  10.447
 7041W        W11241   5.455   4.819   3.412
 7042W        W11242   5.746   0.451   3.032
 7043W        W11243   4.167   7.776   0.337
 7044W        W11244   7.936   0.280   2.860
 7045W        W11245   9.378   8.668   0.961
 7046W        W11246   6.008   9.501   2.463
 7047W        W11247   9.275   7.226  10.390
 7048W        W11248   4.646  10.446   3.290
 7049W        W11249   3.109   1.272   2.355
 7050W        W11250  10.917   9.803   1.383
 7051W        W11251   8.432   7.478   3.394
 7052W        W11252  10.709   2.278   0.968
 7053W        W11253   8.120   1.412   0.356
 7054W        W11254   8.518  10.824   2.295
 7055W        W11255   0.215   9.460   3.160
 7056W        W11256   8.903   3.243   1.607
 7057W        W11257   5.999   2.490   1.649
 7058W        W11258   4.297   1.935  11.060
 7059W        W11259   6.711   6.591   0.231
 7060W        W11260   1.397   0.680   3.883
 7061W        W11261   2.540   5.303   0.745
 7062W        W11262   3.974   4.078   3.346
 7063W        W11263   3.751   3.647  10.338
 7064W        W11264   5.233  10.466   9.831
 7065W        W11265   0.695   9.994  11.374
 7066W        W11266   9.098  10.683  11.187
 7067W        W11267   7.945   7.491  11.690
 7068W        W11268   8.222   8.348  11.905
 7069W        W11269  10.843   1.923   3.202
 7070W        W11270  11.378   7.046  10.809
 7071W        W11271   4.330   8.937  11.875
 7072W        W11272   5.014  11.247  10.121
 7073W        W11273   5.221   0.402  10.740
 7074W        W11274   3.709   5.474   9.397
 7075W        W11275   6.870   8.059   1.535
 7076W        W11276   2.939   8.173   3.452
 7077W        W11277   1.885   9.855   2.271
 7078W        W11278   2.927   6.013   1.150
 7079W        W11279   1.853   1.342   1.832
 7080W        W11280   6.052   9.092  10.568
 7081W        W11281   6.071   1.769  11.984
 7082W        W11282   7.575   3.812   2.203
 7083W        W11283   7.584   2.648  10.064
 7084W        W11284   1.808   4.221   2.125
 7085W        W11285  11.009   3.358  11.421
 7086W        W11286  10.737  11.419  10.339
 7087W        W11287   2.587   6.516   0.345
 7088W        W11288  10.542   7.706  10.576
 7089W        W11289   2.275   3.611   0.755
 7090W        W11290   5.942   3.701   8.463
 7091W        W11291   5.274   2.245   0.998
 7092W        W11292   6.929   9.505   8.988
 7093W        W11293  10.583   3.753   9.298
 7094W        W11294   3.380   6.101   2.373
 7095W        W11295   7.227   6.370   0.212
 7096W        W11296   2.917   6.406  10.406
 7097W        W11297   2.712   6.552   3.140
 7098W        W11298   6.774   3.698   3.079
 7099W        W11299   5.159   4.184  10.025
 7100W        W11300   9.660   0.983  10.675
 7101W        W11301   9.032  10.344  10.805
 7102W        W11302   0.976   4.151  12.000
 7103W        W11303   8.010   6.089   3.512
 7104W        W11304   9.289   6.953   9.174
 7105W        W11305   9.487   0.541   2.545
 7106W        W11306   4.974   8.865   9.025
 7107W        W11307   3.362   0.896   0.718
 7108W        W11308   6.673   6.141  10.448
 7109W        W11309   5.707   9.417   1.234
 7110W        W11310   3.810  10.297  11.367
 7111W        W11311   2.569   0.457   2.536
 7112W        W11312   9.476  11.338  11.225
 7113W        W11313   9.572   5.094   3.176
 7114W        W11314   7.581   7.277   1.192
 7115W        W11315   6.550   8.999   1.416
 7116W        W11316   1.377   9.867   2.485
 7117W        W11317  11.378   9.060   9.552
 7118W        W11318   6.592   1.584   0.028
 7119W        W11319   0.365   9.946   2.379
 7120W        W11320   3.338   8.088  11.608
 7121W        W11321   2.764   5.551   9.192
 7122W        W11322  10.132   3.279   0.501
 7123W        W11323   3.504   4.806   3.145
 7124W        W11324   7.920   2.234   0.689
 7125W        W11325   2.197   0.001   8.852
 7126W        W11326   1.288   4.497   9.427
 7127W        W11327   1.864   1.284   9.795
 7128W        W11328   8.166   6.212  10.111
 7129W        W11329   4.092   8.679   1.386
 7130W        W11330   1.515   4.791   9.804
 7131W        W11331   6.139   4.105   9.655
 7132W        W11332   7.211   5.149   0.542
 7133W        W11333   9.902   7.304   3.283
 7134W        W11334   3.054   8.079   0.831
 7135W        W11335   8.460   8.489  11.265
 7136W        W11336   3.694   6.302   0.850
 7137W        W11337   8.375   6.989   2.834
 7138W        W11338  10.873   8.381   2.371
 7139W        W11339   0.501   7.997   1.685
 7140W        W11340  10.253   1.296  11.835
 7141W        W11341   5.264   2.800  11.070
 7142W        W11342  11.413   3.136   1.652
 7143W        W11343   7.633   7.428   9.088
 7144W        W11344   7.574  10.904   9.057
 7145W        W11345   4.797   1.850   1.918
 7146W        W11346   2.352  10.739  10.016
 7147W        W11347   2.830   6.285  11.474
 7148W        W11348  11.289   3.753  10.909
 7149W        W11349   8.455   2.663   3.047
 7150W        W11350   8.621   8.719   1.287
 7151W        W11351   5.627   8.584   2.809
 7152W        W11352   1.737   0.342  11.973
 7153W        W11353   2.372   7.423   2.317
 7154W        W11354   2.153   8.874  11.518
 7155W        W11355   5.653   7.068  10.634
 7156W        W11356   0.973   1.346  10.940
 7157W        W11357   0.260   8.953   3.256
 7158W        W11358   1.301   9.952   9.761
 7159W        W11359   2.217   9.907   0.303
 7160W        W11360  10.534   7.933   9.676
 7161W        W11361   2.666   2.641  10.771
 7162W        W11362   6.124   6.198   8.737
 7163W        W11363   0.070   2.343   2.264
 7164W        W11364  11.415   4.744   1.293
 7165W        W11365   9.874  11.305   8.968
 7166W        W11366   6.198   9.842   0.299
 7167W        W11367   6.013   7.003   9.510
 7168W        W11368   4.655   4.931   2.332
 7169W        W11369   7.961  11.135   9.309
 7170W        W11370   8.949   1.571  11.700
 7171W        W11371   5.280  10.548   2.852
 7172W        W11372   3.882   5.106   0.493
 7173W        W11373   3.054   0.027   3.269
 7174W        W11374   6.933   8.888   1.759
 7175W        W11375  10.448   2.892  10.262
 7176W        W11376   4.467   7.964  10.543
 7177W        W11377  10.987  10.720   8.693
 7178W        W11378   9.503   3.778   2.164
 7179W        W11379   0.114   3.290   3.213
 7180W        W11380   0.417   6.126   1.359
 7181W        W11381   4.340  10.911   9.825
 7182W        W11382   2.855   1.163  11.946
 7183W        W11383   7.382   9.874   3.216
 7184W        W11384   5.242   7.850   9.022
 7185W        W11385   6.700   8.605  10.547
 7186W        W11386   9.119  10.917   2.999
 7187W        W11387   2.129   9.523   3.386
 7188W        W11388  10.066   4.851   1.383
 7189W        W11389  10.478   8.058   2.473
 7190W        W11390   6.172   4.696  11.268
 7191W        W11391   6.551  10.021   9.880
 7192W        W11392   4.657   6.732   0.906
 7193W        W11393   2.989   1.764   3.546
 7194W        W11394   1.683   1.817  11.083
 7195W        W11395   3.790  10.333   3.022
 7196W        W11396   1.302   7.345  11.798
 7197W        W11397   3.895   6.055   2.337
 7198W        W11398   8.621   2.937  11.860
 7199W        W11399   9.039   9.404  10.419
 7200W        W11400   8.518   8.554   0.285
 7201W        W11401   0.265   8.545   9.332
 7202W        W11402   0.843   3.232   0.498
 7203W        W11403   9.121   2.664   9.586
 7204W        W11404   9.305   0.241   2.945
 7205W        W11405   6.503   9.453   9.840
 7206W        W11406   9.350   1.020   3.440
 7207W        W11407   7.011   8.449   0.428
 7208W        W11408   5.605   9.495   2.771
 7209W        W11409  11.381   8.099   3.572
 7210W        W11410   1.448   5.714  10.729
 7211W        W11411   6.972   0.104   2.676
 7212W        W11412   0.498  10.762   2.593
 7213W        W11413   8.677   2.261   3.238
 7214W        W11414  11.415   7.971  10.834
 7215W        W11415   9.131  11.198   1.186
 7216W        W11416   5.254   3.231   8.235
 7217W        W11417  10.266   4.606   9.815
 7218W        W11418   4.673   6.692   3.440
 7219W        W11419   8.523   7.290   0.893
 7220W        W11420   5.552   4.522   1.394
 7221W        W11421   2.794   2.090   1.388
 7222W        W11422   9.549   9.364   9.877
 7223W        W11423   3.286   0.425  11.969
 7224W        W11424   9.371   3.201   0.759
 7225W        W11425   7.810   3.173  10.070
 7226W        W11426   7.001   7.951   1.047
 7227W        W11427   9.443   0.737   0.731
 7228W        W11428   5.687  10.598   8.895
 7229W        W11429  10.756   4.115   1.434
 7230W        W11430   9.941   6.236   0.940
 7231W        W11431   5.264   4.864   1.165
 7232W        W11432   1.339   1.186  11.546
 7233W        W11433   9.826  10.343   2.504
 7234W        W11434   3.650   6.541  11.463
 7235W        W11435  10.149   4.266   1.347
 7236W        W11436   3.151   0.029   2.738
 7237W        W11437   0.686   9.415   9.383
 7238W        W11438   2.119  11.447  10.921
 7239W        W11439  10.430   1.387  10.094
 7240W        W11440   5.220   8.370  10.349
 7241W        W11441   6.183  10.807  10.105
 7242W        W11442   7.627  10.445   9.315
 7243W        W11443   0.407   9.048   1.720
 7244W        W11444  10.448   1.883   2.775
 7245W        W11445   8.535   2.009   8.480
 7246W        W11446   4.731   0.545  11.986
 7247W        W11447  10.289   9.478   2.111
 7248W        W11448   4.774   0.948   1.140
 7249W        W11449   8.477   3.252   0.297
 7250W        W11450   8.335   7.975   2.228
 7251W        W11451   0.662   8.639   3.197
 7252W        W11452   3.796   8.553   3.993
 7253W        W11453   5.871   4.982   3.103
 7254W        W11454   2.303   2.134   2.908
 7255W        W11455   5.244  10.823   0.121
 7256W        W11456  10.420   6.919   9.897
 7257W        W11457   3.214   6.537  11.728
 7258W        W11458   3.608   7.005   1.943
 7259W        W11459   6.476   5.259   0.868
 7260W        W11460   4.649   7.681   9.804
 7261W        W11461   2.033   2.729   0.872
 7262W        W11462   1.702   9.151   1.640
 7263W        W11463   5.127   4.314  10.981
 7264W        W11464   6.374   7.110   3.581
 7265W        W11465   0.511   7.194  10.813
 7266W        W11466   5.628   2.106   0.639
 7267W        W11467   5.477   8.987   8.998
 7268W        W11468   8.629   0.832   0.269
 7269W        W11469   0.747   6.736   0.871
 7270W        W11470   1.216   6.972   0.669
 7271W        W11471   9.676   8.149   9.458
 7272W        W11472   0.107   3.072   1.191
 7273W        W11473   2.776   1.635   2.239
 7274W        W11474   8.494   5.620   8.386
 7275W        W11475   8.591   8.457  10.668
 7276W        W11476   0.623   7.209   0.998
 7277W        W11477   2.143   9.697   9.782
 7278W        W11478   7.704   6.371  11.063
 7279W        W11479   5.154   0.005   1.258
 7280W        W11480   2.368   6.069   2.414
 7281W        W11481  10.015   9.487   2.985
 7282W        W11482   5.538   7.068   1.999
 7283W        W11483   3.622   6.939   9.336
 7284W        W11484   6.993   0.346   3.330
 7285W        W11485   4.798   2.223   9.055
 7286W        W11486   2.333   3.848   1.300
 7287W        W11487  10.946   3.760   1.062
 7288W        W11488   0.382   4.973   0.495
 7289W        W11489   4.102  10.673  11.510
 7290W        W11490   0.799   0.993  11.279
 7291W        W11491   6.332   2.613   8.192
 7292W        W11492   3.676   7.513   1.772
 7293W        W11493   0.832   5.100  11.393
 7294W        W11494   3.164  10.933   0.453
 7295W        W11495   4.349   4.980   0.577
 7296W        W11496   1.521  10.962   9.900
 7297W        W11497   3.891   2.787  11.611
 7298W        W11498   5.295   3.919  10.453
 7299W        W11499   6.630   4.750   2.141
 7300W        W11500   6.582   7.684   2.789
 7301W        W11501   8.975   6.702   9.957
 7302W        W11502   8.119  11.248  11.374
 7303W        W11503   7.542   3.277   3.319
 7304W        W11504   9.362   1.815   8.793
 7305W        W11505   3.055   0.947  10.604
 7306W        W11506   1.807   5.208   1.396
 7307W        W11507   8.832   5.362  11.624
 7308W        W11508   6.215   1.949   9.839
 7309W        W11509   2.899   7.888   8.977
 7310W        W11510   9.568   2.294   2.715
 7311W        W11511   8.619   6.316   8.186
 7312W        W11512   7.894   4.850   9.090
 7313W        W11513   4.732   8.508   2.318
 7314W        W11514   9.552   3.720   3.455
 7315W        W11515   0.390  10.080   9.991
 7316W        W11516   4.815   0.993   3.767
 7317W        W11517   6.397   2.925   2.796
 7318W        W11518   2.053   3.512   2.683
 7319W        W11519   1.439   7.968   1.761
 7320W        W11520   3.109   6.521   0.258
 7321W        W11521   4.326   0.550   1.941
 7322W        W11522   7.045   2.346   0.783
 7323W        W11523   1.665   8.411   0.546
 7324W        W11524   0.041   2.021   0.928
 7325W        W11525   5.572   2.768   3.883
 7326W        W11526   6.575   3.392  11.613
 7327W        W11527   5.580   4.586   8.271
 7328W        W11528   7.439   8.867   0.949
 7329W        W11529   0.457   9.605  11.926
 7330W        W11530   5.767   1.355   9.368
 7331W        W11531   5.548   2.365   9.851
 7332W        W11532   0.863   5.500  11.763
 7333W        W11533   3.624  10.872   0.198
 7334W        W11534   5.286   9.806  10.379
 7335W        W11535   8.878   9.386  11.920
 7336W        W11536  10.805   3.696   8.843
 7337W        W11537   4.251   7.710   2.270
 7338W        W11538   9.550   6.447   2.557
 7339W        W11539   4.480   8.484  11.696
 7340W        W11540   4.083   5.544   0.694
 7341W        W11541  11.303   9.001   0.970
 7342W        W11542   3.032   9.806   8.368
 7343W        W11543   4.145   1.962   3.130
 7344W        W11544  11.314   1.963   2.983
 7345W        W11545   0.496   3.589   0.448
 7346W        W11546   8.915   3.733   1.431
 7347W        W11547   0.855  10.524  10.539
 7348W        W11548   7.688   1.928  10.644
 7349W        W11549   3.129  11.028   0.957
 7350W        W11550   0.757   4.110   3.658
 7351W        W11551   1.712  11.330   9.586
 7352W        W11552   1.113   1.302   0.820
 7353W        W11553   4.327   4.608   8.921
 7354W        W11554   3.658   3.185   0.416
 7355W        W11555   8.137   7.560   9.743
 7356W        W11556   2.218  10.286  11.026
 7357W        W11557   1.899   3.791   0.259
 7358W        W11558  10.864   3.586  10.660
 7359W        W11559   3.646  10.797   3.364
 7360W        W11560   9.433   1.805   2.222
 7361W        W11561   3.289   0.626  10.012
 7362W        W11562  11.489  11.314   1.511
 7363W        W11563   2.287   2.722   0.427
 7364W        W11564  11.356   8.871  10.055
 7365W        W11565   4.693   6.029   4.044
 7366W        W11566   6.439  10.845  11.045
 7367W        W11567   6.701   5.606  11.589
 7368W        W11568   7.873   2.213   9.771
 7369W        W11569  11.118   3.731   9.259
 7370W        W11570  10.848   4.953   0.339
 7371W        W11571   2.509   9.208  11.712
 7372W        W11572   1.780   5.355   8.484
 7373W        W11573   0.873   9.594   2.961
 7374W        W11574   1.880   7.882   1.535
 7375W        W11575   1.872   5.635   1.097
 7376W        W11576   1.903   7.523   0.732
 7377W        W11577   3.841   3.604   2.538
 7378W        W11578   6.136   9.510   1.958
 7379W        W11579   7.640   4.568   3.748
 7380W        W11580   1.244   6.665   1.634
 7381W        W11581   9.867  10.510   0.275
 7382W        W11582   1.905   4.654   1.401
 7383W        W11583   1.613   5.677  11.212
 7384W        W11584   9.355  10.333   9.964
 7385W        W11585   2.762   5.522   1.201
 7386W        W11586   5.639   7.582   2.688
 7387W        W11587   0.992   4.163  10.541
 7388W        W11588   9.523   4.393   1.812
 7389W        W11589   2.670  10.276   9.539
 7390W        W11590   5.393   4.274   1.894
 7391W        W11591   0.515   1.656   1.969
 7392W        W11592   3.704   1.808   2.611
 7393W        W11593   0.867   0.703   1.674
 7394W        W11594   2.334   7.061   8.544
 7395W        W11595   8.279   5.380  11.849
 7396W        W11596  10.402   2.117   9.580
 7397W        W11597   1.157   5.820   2.871
 7398W        W11598   6.094   2.632   2.117
 7399W        W11599   3.566   5.187   8.975
 7400W        W11600   8.038   5.711   3.857
 7401W        W11601   2.376   5.984   3.307
 7402W        W11602  11.017   8.269   0.806
 7403W        W11603   4.438   0.382   3.262
 7404W        W11604   9.231   0.463   1.655
 7405W        W11605   5.556   4.064  10.857
 7406W        W11606   9.599   7.386   2.700
 7407W        W11607  11.496  10.282   9.454
 7408W        W11608   5.945  10.307   0.226
 7409W        W11609   2.989  10.043   2.572
 7410W        W11610   1.811   7.246   2.328
 7411W        W11611   1.429   8.644  10.081
 7412W        W11612   8.997   5.168   9.353
 7413W        W11613   4.074  10.817   9.406
 7414W        W11614   6.362   8.010   1.544
 7415W        W11615  10.372   4.676   0.375
 7416W        W11616   7.340   5.664   2.446
 7417W        W11617   3.275   8.202  10.596
 7418W        W11618   2.706   0.900   3.409
 7419W        W11619  10.539   9.430   3.094
 7420W        W11620   6.622   3.731  10.437
 7421W        W11621   3.252   6.954   8.976
 7422W        W11622   8.365   0.285   8.398
 7423W        W11623   3.732   2.761   0.674
 7424W        W11624   2.524  11.354   3.357
 7425W        W11625  11.138   7.911   9.825
 7426W        W11626   5.027   3.116   2.374
 7427W        W11627   6.733   9.797  10.424
 7428W        W11628   3.527   4.465   9.332
 7429W        W11629  11.111   8.807   1.420
 7430W        W11630   3.107  10.886   1.529
 7431W        W11631   6.960  11.129   9.513
 7432W        W11632   6.373   9.376   0.445
 7433W        W11633   8.314   9.968   1.719
 7434W        W11634   4.931   3.756  11.833
 7435W        W11635   7.674   1.820  10.124
 7436W        W11636   3.616  10.950   1.697
 7437W        W11637   0.343   4.297   8.811
 7438W        W11638   4.710   5.697   0.052
 7439W        W11639  10.769   0.796   9.405
 7440W        W11640   1.190  11.343   9.822
 7441W        W11641   2.415   8.959   2.361
 7442W        W11642  10.564   4.222   0.979
 7443W        W11643   0.174   2.201  11.842
 7444W        W11644   2.917   2.673   0.011
 7445W        W11645  10.794   5.252   8.504
 7446W        W11646   7.596   8.132  11.727
 7447W        W11647   0.583   5.103   1.844
 7448W        W11648   2.225   3.829  11.850
 7449W        W11649  10.317   0.969  11.444
 7450W        W11650  11.369  10.077  11.143
 7451W        W11651  10.523  11.310   3.381
 7452W        W11652   6.991   1.874   3.523
 7453W        W11653   2.977   2.105   2.240
 7454W        W11654   8.169   9.906   2.765
 7455W        W11655   3.293   9.617  10.309
 7456W        W11656  10.671   0.285   3.202
 7457W        W11657   3.260   4.107   0.843
 7458W        W11658   4.118   6.958   1.950
 7459W        W11659  11.050  10.708   9.989
 7460W        W11660   5.138   7.235  11.493
 7461W        W11661   8.146  10.948   3.266
 7462W        W11662   2.216   5.105   8.653
 7463W        W11663  10.730   0.259   8.538
 7464W        W11664   5.592   7.231   3.760
 7465W        W11665  10.507   5.451   8.860
 7466W        W11666   2.953   2.690   3.368
 7467W        W11667  10.758   9.282  11.616
 7468W        W11668  10.361   5.584   3.078
 7469W        W11669   8.099  10.263   9.592
 7470W        W11670   1.793  10.067   9.730
 7471W        W11671   5.585   4.570   3.868
 7472W        W11672   4.693   9.306  11.745
 7473W        W11673   7.535   4.718   2.241
 7474W        W11674   7.114   8.445   9.225
 7475W        W11675   1.025   4.851   3.616
 7476W        W11676   1.559   8.167   3.490
 7477W        W11677   4.024   7.600  11.868
 7478W        W11678   9.178   3.674  11.684
 7479W        W11679   5.662   0.390   9.474
 7480W        W11680   8.605   7.984  11.523
 7481W        W11681  11.340  10.045   1.137
 7482W        W11682  11.368   8.275   9.064
 7483W        W11683   3.429  10.313   1.117
 7484W        W11684   1.868   8.370   1.003
 7485W        W11685   1.259   8.987  11.126
 7486W        W11686   2.676   9.777   0.425
 7487W        W11687   5.029   5.333   2.387
 7488W        W11688   7.712   2.323   0.220
 7489W        W11689  10.386   9.058   1.821
 7490W        W11690   8.929  10.459   2.824
 7491W        W11691   1.126   4.391   8.621
 7492W        W11692   2.914   8.861   2.386
 7493W        W11693   1.674   1.412  11.886
 7494W        W11694   3.556   2.595   8.998
 7495W        W11695   7.143   8.797   2.240
 7496W        W11696   6.917   7.467   1.230
 7497W        W11697   2.684   0.324   3.527
 7498W        W11698   1.191   9.511   1.249
 7499W        W11699   7.806   8.560  10.008
 7500W        W11700   6.087   7.326   2.713
 7501W        W11701   2.623   0.723   0.322
 7502W        W11702   3.127   1.692   9.139
 7503W        W11703   8.074   4.733  11.279
 7504W        W11704   4.717   8.477   1.296
 7505W        W11705   5.183   6.082   1.866
 7506W        W11706   4.654   4.841   0.970
 7507W        W11707   1.225   0.738   9.417
 7508W        W11708   7.528   2.632   9.060
 7509W        W11709   6.563   9.077  10.708
 7510W        W11710   1.825   6.569   9.546
 7511W        W11711  10.459   0.194   0.461
 7512W        W11712   8.200   8.489  10.315
 7513W        W11713   4.539   5.269  11.802
 7514W        W11714   0.913   3.214   1.000
 7515W        W11715   9.976   6.802   0.687
 7516W        W11716   2.431   7.977   0.067
 7517W        W11717   0.738   5.674   1.997
 7518W        W11718   8.737   1.876   2.895
 7519W        W11719   5.122   4.262  11.500
 7520W        W11720   9.286   8.419   0.514
 7521W        W11721   8.900   2.288  10.436
 7522W        W11722   3.896   2.408   8.581
 7523W        W11723  10.957   5.279  10.043
 7524W        W11724   6.807   5.055  10.210
 7525W        W11725   9.086   2.568   0.484
 7526W        W11726   8.834   4.440   8.882
 7527W        W11727   3.202   8.423   1.782
 7528W        W11728   3.610   4.890   1.221
 7529W        W11729  10.539   3.747   0.744
 7530W        W11730   6.641   3.328  10.093
 7531W        W11731   1.037   4.785   8.985
 7532W        W11732   5.448   8.387  11.704
 7533W        W11733   1.928   3.665   9.320
 7534W        W11734   3.893   2.133  10.793
 7535W        W11735  10.434   1.179  10.558
 7536W        W11736   3.631   5.286   4.046
 7537W        W11737   6.213   2.769   3.240
 7538W        W11738   4.025   9.177  11.367
 7539W        W11739   6.010   4.809  10.800
 7540W        W11740   8.213   8.442   1.379
 7541W        W11741   9.347   1.812  11.484
 7542W        W11742   1.708   6.438   3.283
 7543W        W11743   8.137   7.374   9.268
 7544W        W11744   8.278   1.665   3.023
 7545W        W11745   8.639  10.889   2.837
 7546W        W11746   2.322   4.190   3.354
 7547W        W11747  11.475   9.576  11.775
 7548W        W11748   0.411   2.658   2.905
 7549W        W11749   6.287   5.077   1.316
 7550W        W11750   6.542   9.034   2.922
 7551W        W11751   7.673  11.459  11.523
 7552W        W11752   6.319   0.918   0.473
 7553W        W11753   0.834   8.940  11.503
 7554W        W11754   2.150   9.835  11.285
 7555W        W11755   5.030   7.394   0.028
 7556W        W11756  10.768  10.818   1.290
 7557W        W11757   3.977   7.997   9.168
 7558W        W11758   5.051   4.040   8.754
 7559W        W11759   9.081   3.278   8.900
 7560W        W11760   4.350   9.550   0.301
 7561W        W11761   2.405   6.683   8.971
 7562W        W11762   6.167   6.009   2.395
 7563W        W11763   6.194   4.561   3.038
 7564W        W11764   0.896   5.644   1.162
 7565W        W11765   0.372   9.561   9.957
 7566W        W11766   8.576   5.207   8.078
 7567W        W11767   3.366   2.415   2.323
 7568W        W11768  10.351   0.484   8.812
 7569W        W11769   8.603   3.776  10.978
 7570W        W11770  11.381   8.276  11.270
 7571W        W11771  10.165   0.169   3.199
 7572W        W11772   6.269   6.521  11.352
 7573W        W11773  10.813   3.242   1.936
 7574W        W11774   5.178   7.393  10.082
 7575W        W11775   0.442  10.839  10.451
 7576W        W11776   5.165   8.644   2.600
 7577W        W11777  10.070  11.299  10.764
 7578W        W11778   7.112   9.323   1.490
 7579W        W11779   9.176   8.259   9.451
 7580W        W11780   5.231   1.922   0.405
 7581W        W11781   4.214   4.576   2.393
 7582W        W11782   8.953   8.915  10.252
 7583W        W11783   0.547   2.332   3.319
 7584W        W11784   7.570   6.372   4.022
 7585W        W11785   9.024   6.463   7.851
 7586W        W11786   7.999   6.877  10.859
 7587W        W11787   2.814  11.295   1.263
 7588W        W11788   9.622   4.623   9.219
 7589W        W11789   6.905   7.616  10.816
 7590W        W11790   5.602   9.823  10.795
 7591W        W11791   0.394   6.584   9.701
 7592W        W11792   2.162   0.370   1.368
 7593W        W11793   3.041   2.339  10.644
 7594W        W11794  10.854  10.796  11.412
 7595W        W11795   1.224   7.864   2.906
 7596W        W11796   0.363   7.091   3.025
 7597W        W11797   5.062   8.834  10.533
 7598W        W11798   7.418   1.640   0.707
 7599W        W11799   5.631   0.224  10.996
 7600W        W11800   7.871   7.810   9.357
 7601W        W11801   6.435   9.776  10.926
 7602W        W11802   5.289   2.890   2.763
 7603W        W11803   5.191   6.155  10.465
 7604W        W11804   5.063   1.968   8.548
 7605W        W11805   1.443   0.212  11.249
 7606W        W11806   2.676   1.609   0.109
 7607W        W11807   0.851   6.895   3.112
 7608W        W11808   8.233   3.684   8.604
 7609W        W11809   0.879   9.061   1.970
 7610W        W11810   6.127  11.262  10.985
 7611W        W11811   5.655   9.461  10.327
 7612W        W11812   3.559   0.134  10.026
 7613W        W11813  11.243  10.517   2.782
 7614W        W11814   6.591   8.905   0.424
 7615W        W11815   0.417   4.177   9.335
 7616W        W11816   1.493   7.446  11.101
 7617W        W11817   8.558   2.826  10.984
 7618W        W11818   2.825   9.848   8.973
 7619W        W11819   4.785   2.491  10.421
 7620W        W11820   3.503   1.252  10.738
 7621W        W11821   4.788   7.657   0.796
 7622W        W11822   1.587   5.213   9.498
 7623W        W11823   3.464   5.456   8.492
 7624W        W11824  10.326   5.599   1.916
 7625W        W11825   2.727   5.741  11.775
 7626W        W11826   9.207   5.164   1.906
 7627W        W11827   2.715   3.631   8.948
 7628W        W11828   6.013  10.345   8.555
 7629W        W11829   6.653  10.108   9.391
 7630W        W11830   2.165   2.383   9.002
 7631W        W11831   6.350   8.186   8.195
 7632W        W11832   6.978   0.021  10.457
 7633W        W11833   8.661  10.840   9.946
 7634W        W11834   6.050   4.528   9.926
 7635W        W11835   5.614   2.705  11.465
 7636W        W11836   4.052  10.625   8.573
 7637W        W11837   5.814   3.239   3.877
 7638W        W11838   5.068   0.694  10.344
 7639W        W11839   2.665   4.577  10.689
 7640W        W11840  11.087  11.460  11.771
 7641W        W11841   7.416   1.280  11.846
 7642W        W11842   5.553   5.930  11.104
 7643W        W11843   1.678   6.465  11.992
 7644W        W11844   5.442  11.292  10.410
 7645W        W11845   2.839   8.329   8.304
 7646W        W11846   4.191   5.570  11.313
 7647W        W11847   4.750   7.539   2.224
 7648W        W11848   6.046   2.138  10.629
 7649W        W11849   9.297   8.151  10.280
 7650W        W11850   2.838   1.222   1.912
 7651W        W11851   8.917   1.141  11.969
 7652W        W11852   4.706   9.350  10.666
 7653W        W11853   0.901  11.290   1.969
 7654W        W11854   1.102   2.733   1.114
 7655W        W11855   8.207   6.078   1.237
 7656W        W11856   9.950   0.374   9.605
 7657W        W11857   0.202   7.023   9.921
 7658W        W11858   2.594   8.492   8.723
 7659W        W11859   2.676   5.091   8.412
 7660W        W11860   2.796   4.243   8.347
 7661W        W11861  11.174   4.830  10.072
 7662W        W11862   4.315   2.658  10.205
 7663W        W11863   5.030   4.420   9.132
 7664W        W11864   5.651   9.850   9.381
 7665W        W11865   5.656   3.645   1.247
 7666W        W11866   9.497  10.408   9.064
 7667W        W11867   6.272   5.574   2.640
 7668W        W11868  10.457   5.184   9.298
 7669W        W11869   9.226   7.404   8.569
 7670W        W11870  11.256   8.300   3.116
 7671W        W11871   0.003   6.043   1.081
 7672W        W11872  11.332   4.713   9.580
 7673W        W11873  11.339   1.868  10.095
 7674W        W11874   3.015   6.910  10.347
 7675W        W11875   6.839   7.075  11.575
 7676W        W11876   6.386   6.653   9.553
 7677W        W11877   5.170   2.341  11.289
 7678W        W11878   7.713   5.081  10.783
 7679W        W11879   6.694   3.718   1.280
 7680W        W11880   2.631   1.412   0.804
 7681W        W11881   2.825   2.566   2.435
 7682W        W11882   7.141  10.604   2.902
 7683W        W11883   9.786   9.387   9.091
 7684W        W11884  10.581   4.791  11.926
 7685W        W11885   7.550  10.358   3.125
 7686W        W11886   0.889   1.440   9.492
 7687W        W11887   3.572   4.079  10.080
 7688W        W11888  10.491   5.175   1.705
 7689W        W11889   0.671   9.526   2.492
 7690W        W11890   1.829   5.171   9.953
 7691W        W11891   3.833   3.290  11.349
 7692W        W11892   9.967  10.085   9.762
 7693W        W11893  10.312  11.412   1.746
 7694W        W11894   7.157   2.660  10.824
 7695W        W11895   4.815   9.505   9.267
 7696W        W11896   5.147   9.585  11.375
 7697W        W11897  10.032   2.172   2.911
 7698W        W11898   8.079   5.704  11.486
 7699W        W11899   9.968   4.903   0.091
 7700W        W11900   1.197  10.846  10.280
 7701W        W11901   7.602   0.531   0.756
 7702W        W11902   6.800   6.972   1.351
 7703W        W11903  10.277   0.781   9.271
 7704W        W11904   0.038   6.974  11.814
 7705W        W11905   6.617   4.556   0.604
 7706W        W11906   8.165   0.005   9.719
 7707W        W11907   0.655   2.990   2.395
 7708W        W11908   5.170   8.025   1.170
 7709W        W11909  10.351   0.919   2.358
 7710W        W11910   0.221   9.813  11.391
 7711W        W11911   8.474   9.487  11.640
 7712W        W11912   2.228   0.695   3.286
 7713W        W11913   2.387  10.559  11.971
 7714W        W11914   0.079   1.515   0.850
 7715W        W11915   2.322   8.389   1.245
 7716W        W11916   3.715   3.159   2.833
 7717W        W11917   4.427   9.663   3.659
 7718W        W11918   2.298  11.358   2.177
 7719W        W11919   3.690   7.579   0.440
 7720W        W11920   2.657   4.959   0.357
 7721W        W11921   1.365   9.930  11.746
 7722W        W11922   7.895   1.476  10.740
 7723W        W11923  10.493   1.210   1.548
 7724W        W11924   0.862   3.165   9.419
 7725W        W11925   7.108   1.634  10.819
 7726W        W11926   6.255   7.612   2.347
 7727W        W11927   6.544   6.533   1.159
 7728W        W11928   1.775   2.014   0.500
 7729W        W11929   9.377   1.313  11.514
 7730W        W11930   3.700   3.665   1.629
 7731W        W11931   7.502   4.278   1.949
 7732W        W11932   1.936   1.511   0.492
 7733W        W11933   1.133   9.431   2.262
 7734W        W11934   9.935   6.599   8.756
 7735W        W11935   6.023  10.767   3.215
 7736W        W11936   0.273   9.515   8.984
 7737W        W11937   7.888   5.509  11.045
 7738W        W11938   8.126   9.018   2.294
 7739W        W11939   0.995   3.223   2.765
 7740W        W11940   3.047   4.205  11.507
 7741W        W11941  10.182   4.476  11.910
 7742W        W11942   7.594  10.307  10.289
 7743W        W11943   1.643   9.000   2.827
 7744W        W11944  10.855   6.545   0.646
 7745W        W11945   6.662   0.094   0.436
 7746W        W11946  11.290   6.082   1.549
 7747W        W11947   9.616   3.668  11.912
 7748W        W11948   2.030  11.468   0.841
 7749W        W11949   3.742   7.822   2.215
 7750W        W11950   1.698   5.813   0.650
 7751W        W11951   8.837   8.151   1.457
 7752W        W11952   4.939   6.506   9.116
 7753W        W11953   0.018   2.748   1.967
 7754W        W11954  10.472  11.120  11.044
 7755W        W11955   6.694   2.216   9.368
 7756W        W11956   4.342   1.455   2.383
 7757W        W11957   3.544   4.246   8.873
 7758W        W11958   4.779   0.233  10.999
 7759W        W11959   2.854   7.067   3.261
 7760W        W11960   5.711  10.637   9.955
 7761W        W11961  11.018   4.786   8.586
 7762W        W11962   9.260   9.076   0.653
 7763W        W11963  10.583   2.748  10.718
 7764W        W11964   6.129   1.790   0.975
 7765W        W11965   6.492  10.671   0.807
 7766W        W11966   3.238   4.173   2.282
 7767W        W11967   5.291   6.668   8.711
 7768W        W11968   0.435   5.648   0.034
 7769W        W11969  11.398   6.146   9.094
 7770W        W11970  10.797   5.810  10.984
 7771W        W11971   4.177  10.106  10.783
 7772W        W11972   8.979   9.010   1.067
 7773W        W11973   5.032  11.112   9.289
 7774W        W11974   8.535   5.296   2.397
 7775W        W11975   3.214   3.338   9.960
 7776W        W11976   8.167   0.948   0.095
 7777W        W11977   1.352  10.380  10.479
 7778W        W11978   1.935   4.287   0.422
 7779W        W11979   6.554   3.704   0.367
 7780W        W11980   6.420  10.815   2.312
 7781W        W11981   0.712   9.755   8.947
 7782W        W11982   6.188   4.269  11.947
 7783W        W11983   9.575  11.087   9.797
 7784W        W11984   2.417   5.051  10.520
 7785W        W11985   8.225   5.117  10.973
 7786W        W11986   9.406   3.727   1.211
 7787W        W11987   7.129   6.947   2.317
 7788W        W11988   1.774   7.718   2.142
 7789W        W11989  11.346   9.384   9.974
 7790W        W11990   2.518   3.097  10.617
 7791W        W11991   8.876   9.832  11.658
 7792W        W11992   5.313   1.975   1.848
 7793W        W11993   4.868  11.405   1.686
 7794W        W11994   2.906   3.647   0.241
 7795W        W11995   5.411   2.648   9.060
 7796W        W11996   7.974   0.199  11.866
 7797W        W11997   6.400   9.088   3.740
 7798W        W11998   8.445   3.372   1.806
 7799W        W11999   5.957   0.242   0.245
 7800W        W12000   6.504  10.832  11.561
 7801W        W12001  10.624   2.342   3.460
 7802W        W12002   0.768   6.715   1.833
 7803W        W12003   8.446   1.357  11.974
 7804W        W12004   1.847   1.734  10.024
 7805W        W12005   3.278   8.673  10.325
 7806W        W12006   6.538   6.112   0.835
 7807W        W12007   9.389   8.124   3.288
 7808W        W12008   1.525   3.540   2.084
 7809W        W12009   6.305   8.817  11.038
 7810W        W12010   8.888   6.247   3.214
 7811W        W12011   8.791   9.590   3.192
 7812W        W12012   5.664   5.170   9.213
 7813W        W12013   9.361   3.381   1.770
 7814W        W12014   7.656   5.405   9.778
 7815W        W12015   3.147   2.127   9.660
 7816W        W12016   0.924   1.957   3.288
 7817W        W12017   8.824   0.480   3.095
 7818W        W12018  10.389   6.452   1.977
 7819W        W12019   7.950   4.242  10.073
 7820W        W12020   6.579   2.485  11.941
 7821W        W12021   4.522   5.808   1.095
 7822W        W12022  10.839   6.993   0.914
 7823W        W12023   4.500   3.304   0.745
 7824W        W12024  10.660   9.607   9.568
 7825W        W12025  11.328   5.537   3.258
 7826W        W12026   6.673   2.738   9.500
 7827W        W12027   5.540  10.126  11.919
 7828W        W12028   2.790   4.847   0.849
 7829W        W12029   2.491   9.510   1.686
 7830W        W12030   5.071   6.506   1.100
 7831W        W12031   1.810   3.349   0.840
 7832W        W12032  10.474   9.095   9.402
 7833W        W12033   4.240   8.681   3.764
 7834W        W12034   0.821   0.263   1.146
 7835W        W12035   5.940   8.193   3.581
 7836W        W12036   7.672   6.565  10.582
 7837W        W12037   4.443   4.201  10.451
 7838W        W12038   8.956  10.836   9.469
 7839W        W12039   7.886   6.977   9.047
 7840W        W12040   8.488   6.927   1.407
 7841W        W12041   2.711  10.776   1.101
 7842W        W12042   9.924  11.228   3.052
 7843W        W12043   3.094   7.047   1.931
 7844W        W12044   3.738   5.983  11.026
 7845W        W12045   4.831   6.132  11.320
 7846W        W12046   9.576   8.613  10.357
 7847W        W12047   3.355  10.006   9.154
 7848W        W12048   2.227   7.859   9.522
 7849W        W12049   3.358   3.451   0.072
 7850W        W12050   1.443   7.795  11.970
 7851W        W12051   4.536   2.709   9.751
 7852W        W12052   8.601   9.131   0.458
 7853W        W12053   9.082  11.322  10.840
 7854W        W12054   7.135   2.328   3.264
 7855W        W12055   2.554   2.625  11.284
 7856W        W12056   0.428   4.782   1.223
 7857W        W12057   4.769   0.370   2.881
 7858W        W12058   5.887   4.402   1.766
 7859W        W12059   6.626   6.128   2.227
 7860W        W12060   5.904   2.771   8.981
 7861W        W12061   8.262   5.170   3.218
 7862W        W12062   6.925   5.154   2.336
 7863W        W12063   9.127   8.420  11.514
 7864W        W12064   2.271   5.322   9.117
 7865W        W12065   1.328   4.088   9.768
 7866W        W12066   0.863   0.375   2.127
 7867W        W12067   7.458  11.452  10.182
 7868W        W12068   0.675   2.179   2.034
 7869W        W12069   7.168   0.777  11.875
 7870W        W12070   8.344   4.548  10.290
 7871W        W12071  11.091   4.083   2.323
 7872W        W12072   9.916   3.783   1.336
 7873W        W12073   3.112   9.360   0.758
 7874W        W12074   3.802   1.635   9.924
 7875W        W12075  10.845   4.689  10.952
 7876W        W12076   8.171   6.400  10.791
 7877W        W12077  10.112   3.850   9.494
 7878W        W12078  10.627   4.216  10.554
 7879W        W12079   5.141   7.486  10.597
 7880W        W12080   0.034  10.952   2.761
 7881W        W12081   0.335   5.234   1.408
 7882W        W12082  10.208   3.665   3.404
 7883W        W12083   6.342   3.939   8.191
 7884W        W12084   3.210   5.421   3.765
 7885W        W12085   8.440   0.819   3.149
 7886W        W12086   1.881   6.535   8.988
 7887W        W12087   2.319   1.844   0.432
 7888W        W12088  10.836   3.842  11.122
 7889W        W12089   5.232   1.840  11.419
 7890W        W12090   5.495   8.145   9.909
 7891W        W12091   5.893   2.014   1.887
 7892W        W12092   2.322   7.533  11.785
 7893W        W12093   3.220   0.290   1.414
 7894W        W12094   7.736   3.119  10.986
 7895W        W12095   2.441  10.718  10.880
 7896W        W12096   4.084   3.246  10.468
 7897W        W12097   8.586   4.221   2.835
 7898W        W12098   1.397   0.397   0.836
 7899W        W12099   0.276   0.406   0.014
 7900W        W12100   7.034   0.265   2.178
 7901W        W12101   9.056   6.504   8.870
 7902W        W12102   4.185   7.468   1.846
 7903W        W12103   8.618   1.787   3.390
 7904W        W12104   1.514   0.321   9.582
 7905W        W12105   1.502   2.863   8.372
 7906W        W12106   7.399   6.480  10.130
 7907W        W12107  10.565   7.117   2.748
 7908W        W12108  11.343   9.794   3.395
 7909W        W12109   6.454   9.745   0.807
 7910W        W12110   1.838   7.710   3.450
 7911W        W12111   2.844   1.860   0.530
 7912W        W12112   7.061   4.867   9.147
 7913W        W12113   3.305   6.214  10.712
 7914W        W12114   9.579   3.120   2.780
 7915W        W12115   6.445   6.053  10.963
 7916W        W12116  10.365  10.370   0.187
 7917W        W12117   3.114   6.061  11.847
 7918W        W12118   5.387   1.914  10.044
 7919W        W12119   7.703   5.942  10.796
 7920W        W12120   7.543   5.342   0.231
 7921W        W12121   9.399  10.278   2.782
 7922W        W12122   0.988   9.833   1.660
 7923W        W12123   4.589   1.781   1.440
 7924W        W12124   6.168   2.255   0.727
 7925W        W12125   1.737   2.296   8.734
 7926W        W12126   2.183   7.094  11.551
 7927W        W12127   9.441   9.134   9.413
 7928W        W12128   4.637   1.844  10.311
 7929W        W12129   1.351   7.027   3.223
 7930W        W12130   9.977   3.242  10.827
 7931W        W12131   8.957   5.086   3.755
 7932W        W12132   6.486  10.080  11.928
 7933W        W12133   5.209   8.329   1.583
 7934W        W12134   6.622   2.312   0.493
 7935W        W12135  11.299  10.523  10.407
 7936W        W12136   4.735   0.773   1.635
 7937W        W12137   7.733   8.993  11.471
 7938W        W12138   5.508   7.614  11.495
 7939W        W12139   7.667   3.074   2.044
 7940W        W12140   7.949   6.886  11.737
 7941W        W12141   4.624   9.467   2.170
 7942W        W12142   2.352   6.051   0.345
 7943W        W12143   3.927   0.458   8.778
 7944W        W12144   5.962   0.898   9.485
 7945W        W12145   7.568   4.115   9.273
 7946W        W12146   9.507   1.877   3.552
 7947W        W12147   4.514  11.043   1.822
 7948W        W12148   5.697   1.166   0.343
 7949W        W12149   5.488  10.620  10.677
 7950W        W12150   7.023   4.185   9.929
 7951W        W12151   7.681   7.064  10.428
 7952W        W12152   3.671   6.483  10.940
 7953W        W12153  10.012   8.281   8.383
 7954W        W12154  10.992   0.393  10.332
 7955W        W12155  10.834   4.159   2.772
 7956W        W12156   1.351   6.602   2.966
 7957W        W12157   2.309   4.724   9.293
 7958W        W12158   2.383   1.631   2.941
 7959W        W12159   2.992   7.537   2.562
 7960W        W12160   5.477  11.436   0.858
 7961W        W12161   9.566   5.392   1.635
 7962W        W12162   0.955   7.083   8.686
 7963W        W12163   7.172   3.073   0.054
 7964W        W12164   1.773   5.353   0.308
 7965W        W12165   6.850   3.202   3.754
 7966W        W12166   6.695   5.346  10.615
 7967W        W12167   3.577   1.442   1.336
 7968W        W12168   4.178   8.012   0.872
 7969W        W12169   4.294   4.865   2.826
 7970W        W12170   2.214   0.344   1.922
 7971W        W12171   8.332  10.391   0.450
 7972W        W12172   5.218   9.374  11.837
 7973W        W12173   7.537   2.649  11.848
 7974W        W12174   2.765   2.868   2.898
 7975W        W12175   4.855   2.893  10.110
 7976W        W12176   0.783   7.626   1.246
 7977W        W12177   8.681  10.914   3.353
 7978W        W12178   0.889   4.175   9.525
 7979W        W12179   6.111   0.421   1.677
 7980W        W12180  10.511  10.705   0.545
 7981W        W12181   4.999  10.650   2.397
 7982W        W12182   5.633   9.646   9.854
 7983W        W12183   8.091   7.394   1.660
 7984W        W12184   3.043   9.172   9.567
 7985W        W12185  10.264   3.585   2.887
 7986W        W12186   5.167   1.693   0.862
 7987W        W12187   5.156   1.085   8.850
 7988W        W12188   9.919  10.773   3.246
 7989W        W12189   8.535   0.405  11.500
 7990W        W12190   8.549   7.468   2.854
 7991W        W12191   4.521   0.375   2.416
 7992W        W12192   7.538   3.078   9.651
 7993W        W12193   7.221  10.870   1.974
 7994W        W12194   0.002   5.591  11.731
 7995W        W12195   5.136  10.280   3.241
 7996W        W12196   8.687   9.387   2.343
 7997W        W12197   9.555   1.135   0.394
 7998W        W12198   6.657   9.628  11.808
 7999W        W12199   1.766   5.823   0.136
 8000W        W12200   5.717   3.686   3.274
 8001W        W12201   8.654   1.250   2.363
 8002W        W12202   9.023   4.552  11.862
 8003W        W12203  11.065   9.059   8.746
 8004W        W12204   2.484   7.064  11.038
 8005W        W12205   0.926   9.909   2.181
 8006W        W12206   9.645  10.995   3.644
 8007W        W12207   8.808   7.096  11.257
 8008W        W12208   6.561   2.196   8.850
 8009W        W12209   3.211   6.471  11.199
 8010W        W12210   0.794   3.722   9.795
 8011W        W12211   8.106   6.228   3.996
 8012W        W12212  10.466   8.580   9.437
 8013W        W12213  10.784   9.044  10.740
 8014W        W12214   6.641   4.801   1.620
 8015W        W12215   7.974   4.155   3.667
 8016W        W12216   7.488   2.927  11.411
 8017W        W12217   3.325   2.775   0.344
 8018W        W12218   2.701   6.532   9.541
 8019W        W12219   7.138   6.627   3.757
 8020W        W12220   1.489   2.822   3.052
 8021W        W12221   1.387   6.031   3.367
 8022W        W12222   0.701   5.175   1.008
 8023W        W12223   8.378   5.582  10.827
 8024W        W12224   8.703  10.493   1.760
 8025W        W12225   2.526   7.985   8.607
 8026W        W12226   6.908   9.861  11.442
 8027W        W12227   9.167   1.757  10.449
 8028W        W12228   2.744   6.040   8.997
 8029W        W12229   2.240   6.617  11.808
 8030W        W12230   5.283   6.000  11.521
 8031W        W12231   5.830   2.689   8.381
 8032W        W12232   0.354   7.417   1.393
 8033W        W12233  10.810   7.659  10.142
 8034W        W12234   3.426   5.239   0.322
 8035W        W12235   9.292   9.329   1.813
 8036W        W12236   7.000   9.800   1.658
 8037W        W12237   5.932   8.670  10.305
 8038W        W12238   5.842  11.466   8.992
 8039W        W12239  10.823   8.000   3.228
 8040W        W12240   3.240  10.266   2.159
 8041W        W12241   6.495  11.412  10.250
 8042W        W12242   5.452   9.545   3.712
 8043W        W12243   4.486   1.604   9.890
 8044W        W12244   2.432   2.150  11.427
 8045W        W12245   6.161   8.784   1.848
 8046W        W12246   0.245  10.077   3.250
 8047W        W12247   3.408  10.514   9.914
 8048W        W12248   9.071  10.222   8.813
 8049W        W12249   6.970  10.984  11.671
 8050W        W12250   8.741   5.773   3.127
 8051W        W12251  10.300   2.427  10.421
 8052W        W12252   4.993   6.540  10.110
 8053W        W12253   6.893   8.984   3.702
 8054W        W12254   9.909   4.063   1.794
 8055W        W12255   9.273   6.033   9.326
 8056W        W12256   0.340   1.352  10.353
 8057W        W12257  11.274   4.235   3.028
 8058W        W12258   7.201  11.070  10.412
 8059W        W12259  10.332   1.817   2.276
 8060W        W12260   8.638   5.187  10.604
 8061W        W12261   7.597   4.821  11.402
 8062W        W12262   3.138   4.774   0.441
 8063W        W12263   3.428   8.029   9.083
 8064W        W12264   7.808   3.908   3.253
 8065W        W12265   2.476   7.491  11.301
 8066W        W12266   4.195   3.865  11.000
 8067W        W12267   0.393   0.847   8.750
 8068W        W12268   7.911   0.692   9.287
 8069W        W12269   9.789   2.822  11.555
 8070W        W12270  11.363   8.624   0.153
 8071W        W12271   3.376   9.874  11.555
 8072W        W12272   1.776   4.582  11.974
 8073W        W12273   0.909   0.013   2.967
 8074W        W12274   5.212   5.566   1.904
 8075W        W12275   6.488   0.489   3.474
 8076W        W12276   2.374   7.065   0.542
 8077W        W12277   9.550  11.139   0.457
 8078W        W12278   2.790   6.942   8.742
 8079W        W12279  10.389   5.079   3.290
 8080W        W12280   1.434   3.735   0.498
 8081W        W12281  10.383   5.099   0.662
 8082W        W12282  11.366   8.446   1.657
 8083W        W12283   4.106   4.077  10.046
 8084W        W12284   4.707   0.823   2.669
 8085W        W12285   9.613   2.320   3.223
 8086W        W12286   7.630   7.571   1.846
 8087W        W12287   6.606   2.067   0.956
 8088W        W12288  10.126   8.992   0.503
 8089W        W12289   6.577   0.461   1.410
 8090W        W12290   3.311   6.665   1.654
 8091W        W12291   3.564   8.089   0.840
 8092W        W12292   3.166   3.187   2.746
 8093W        W12293   0.790   2.269   2.874
 8094W        W12294   5.971   3.793  11.903
 8095W        W12295   0.469   3.066   9.777
 8096W        W12296  10.516  10.092   9.492
 8097W        W12297   9.049   5.030  10.311
 8098W        W12298   5.546   9.442   2.235
 8099W        W12299   3.111   5.155   8.679
 8100W        W12300   3.597   9.944  11.090
 8101W        W12301   4.286   2.653   1.437
 8102W        W12302   8.464  10.389   2.619
 8103W        W12303   2.188   2.264   0.732
 8104W        W12304   4.741   0.319   8.352
 8105W        W12305   9.802   7.009   2.347
 8106W        W12306   0.157   4.705   9.962
 8107W        W12307   3.794   5.947  10.509
 8108W        W12308  11.059   2.911  11.697
 8109W        W12309   2.804   0.810  10.030
 8110W        W12310   0.520   9.516  10.722
 8111W        W12311   6.931  11.372   0.827
 8112W        W12312   6.895   6.039   0.422
 8113W        W12313   0.828  11.194  10.166
 8114W        W12314   7.345   8.947  11.766
 8115W        W12315  10.515   8.745   3.475
 8116W        W12316   3.837   2.131   9.024
 8117W        W12317   4.156   1.930  10.132
 8118W        W12318   6.318   6.278   9.214
 8119W        W12319   5.149   1.152   0.865
 8120W        W12320   0.718   5.266   9.323
 8121W        W12321   8.067   5.684   1.653
 8122W        W12322   9.095   8.534  10.545
 8123W        W12323  10.923   9.109  10.257
 8124W        W12324   6.311  10.067  10.346
 8125W        W12325   8.193   6.603   8.896
 8126W        W12326   2.086   7.088   2.729
 8127W        W12327   7.109  10.546   1.533
 8128W        W12328   6.113   9.772   9.968
 8129W        W12329  10.906   4.889   1.654
 8130W        W12330   0.409   2.645  10.507
 8131W        W12331  10.005   0.825   9.873
 8132W        W12332   1.824  10.990  11.521
 8133W        W12333   0.113   4.247   9.737
 8134W        W12334   2.454   6.157   1.261
 8135W        W12335   7.493   9.712   1.350
 8136W        W12336  11.108   7.848   0.034
 8137W        W12337   4.358   8.994   8.539
 8138W        W12338   8.038   3.212  10.523
 8139W        W12339   1.233   9.963  11.260
 8140W        W12340   4.014  10.838   0.810
 8141W        W12341   6.251  11.010  10.563
 8142W        W12342   5.040   9.700  10.879
 8143W        W12343   5.232   2.670   2.270
 8144W        W12344   3.629   4.348  11.972
 8145W        W12345   2.686  11.202  10.414
 8146W        W12346   7.511   4.043  11.826
 8147W        W12347   9.022   9.483   0.889
 8148W        W12348   7.953   8.486  11.428
 8149W        W12349   2.231  10.963  10.491
 8150W        W12350   2.817   3.651   9.848
 8151W        W12351   7.451  10.782  10.737
 8152W        W12352   1.255   1.005  10.429
 8153W        W12353   5.962   3.853   0.879
 8154W        W12354   5.721   4.264   8.662
 8155W        W12355   2.911   3.029   0.951
 8156W        W12356  10.461   7.872  11.056
 8157W        W12357   1.553  10.242   0.446
 8158W        W12358   6.067   8.976   0.564
 8159W        W12359   2.705   0.769   2.136
 8160W        W12360   1.005   1.378   2.244
 8161W        W12361   5.565   1.485  10.230
 8162W        W12362   2.550  11.453   9.990
 8163W        W12363   7.255  10.484   8.963
 8164W        W12364  10.408   8.913   9.906
 8165W        W12365   1.672   9.071  10.355
 8166W        W12366   9.565   6.126   0.534
 8167W        W12367   3.599   6.969   2.841
 8168W        W12368   7.810   5.368   9.152
 8169W        W12369   8.495   1.248   9.000
 8170W        W12370  11.246   6.552  10.939
 8171W        W12371   3.658   2.801   2.127
 8172W        W12372  11.392   2.597  11.970
 8173W        W12373   3.543  10.196  10.333
 8174W        W12374  10.774   7.603   2.917
 8175W        W12375  10.255   9.661  11.266
 8176W        W12376   3.705   7.445   9.319
 8177W        W12377  11.450  10.979  10.165
 8178W        W12378   3.184   6.976  11.988
 8179W        W12379   5.543   4.699   0.106
 8180W        W12380   4.709  11.022   3.058
 8181W        W12381   4.591   6.270   0.674
 8182W        W12382   5.831   7.200   1.268
 8183W        W12383   5.618   6.593   3.695
 8184W        W12384   2.080   0.065   9.864
 8185W        W12385   3.816   5.041   1.661
 8186W        W12386   6.676   8.291   3.420
 8187W        W12387   8.914   7.804   9.467
 8188W        W12388   3.370   1.356   2.833
 8189W        W12389  10.698   5.469   9.629
 8190W        W12390   1.135   6.456   0.692
 8191W        W12391   8.107   6.609   0.477
 8192W        W12392   6.744  10.267   3.624
 8193W        W12393   3.415   8.506   3.632
 8194W        W12394   6.208   7.000  10.562
 8195W        W12395   0.176  10.876  11.128
 8196W        W12396   7.506   0.297   9.023
 8197W        W12397  11.211   2.900   0.936
 8198W        W12398   8.071   0.338   1.939
 8199W        W12399   0.321   8.462   9.846
 8200W        W12400   1.485   1.281   0.461
 8201W        W12401   7.704   8.455   0.787
 8202W        W12402   8.286   2.274   1.757
 8203W        W12403  11.141   1.298   0.949
 8204W        W12404   6.906  10.913   1.044
 8205W        W12405  11.453   0.554   3.793
 8206W        W12406   1.891   9.418  10.892
 8207W        W12407   9.935   6.506   2.218
 8208W        W12408   8.000   2.745   9.776
 8209W        W12409   2.197   9.931  10.259
 8210W        W12410   6.653   1.391  10.806
 8211W        W12411   8.667   6.596   2.647
 8212W        W12412   2.090   5.183   3.185
 8213W        W12413   8.112   8.623  10.817
 8214W        W12414   7.467   8.582   1.847
 8215W        W12415   5.159   6.230  10.961
 8216W        W12416   6.040  10.856   2.684
 8217W        W12417   5.313   6.116   1.311
 8218W        W12418  10.022   5.448  11.934
 8219W        W12419   7.153  10.563  10.365
 8220W        W12420   3.137  11.011   2.935
 8221W        W12421   4.512   3.586   9.179
 8222W        W12422   2.139  10.155   8.935
 8223W        W12423   7.208   3.333   0.949
 8224W        W12424   7.403   9.083   1.875
 8225W        W12425   2.140  11.008   9.592
 8226W        W12426   7.571   0.551   2.647
 8227W        W12427   8.929   4.560  10.131
 8228W        W12428   3.359   9.572  10.835
 8229W        W12429   7.159   5.580   1.965
 8230W        W12430   0.464   4.104   2.898
 8231W        W12431  10.323   7.610   2.691
 8232W        W12432   0.657  11.054  11.103
 8233W        W12433   2.374   2.245  10.893
 8234W        W12434   7.106   1.543   0.286
 8235W        W12435   2.185  10.802   0.391
 8236W        W12436   3.259   9.741   2.262
 8237W        W12437  11.072   7.914   1.166
 8238W        W12438   6.570   7.865  10.377
 8239W        W12439   0.095   3.766   3.645
 8240W        W12440  10.923   3.146  10.948
 8241W        W12441  10.933   0.162   9.001
 8242W        W12442   5.454   3.777  11.829
 8243W        W12443   6.177   4.151   3.455
 8244W        W12444   2.398   4.071   0.357
 8245W        W12445   2.102   2.709  11.488
 8246W        W12446  10.323   4.116   9.048
 8247W        W12447   1.392   2.694   0.125
 8248W        W12448   8.272   1.011   0.618
 8249W        W12449   7.991   4.151   9.554
 8250W        W12450   5.799   7.613   4.034
 8251W        W12451   8.056   4.729   9.901
 8252W        W12452   4.103   5.264  10.543
 8253W        W12453   1.065   4.430   1.907
 8254W        W12454  11.379  10.056  10.626
 8255W        W12455  11.267   6.077  11.504
 8256W        W12456   7.066   6.178   4.023
 8257W        W12457   5.030   4.615   0.238
 8258W        W12458   9.953   9.246  11.997
 8259W        W12459   0.952   3.673   3.377
 8260W        W12460   5.260   4.511   8.681
 8261W        W12461  11.484   3.516   0.406
 8262W        W12462   1.391  11.454   1.755
 8263W        W12463   1.324  11.091   2.147
 8264W        W12464   9.594   6.799  10.349
 8265W        W12465   5.654   6.547   9.900
 8266W        W12466   3.387   7.146   1.483
 8267W        W12467   1.270   6.040   9.209
 8268W        W12468   1.336   9.921   0.753
 8269W        W12469   0.307   0.009   2.395
 8270W        W12470   6.491   2.059  10.266
 8271W        W12471  10.269  10.542  10.275
 8272W        W12472   7.940   0.974  10.726
 8273W        W12473   6.622   7.839   9.086
 8274W        W12474   1.720   7.230   3.500
 8275W        W12475   4.085  10.761   0.027
 8276W        W12476   8.550  10.739   1.334
 8277W        W12477   6.471   5.757   0.011
 8278W        W12478   6.724   6.983   0.829
 8279W        W12479   6.601   3.266  10.634
 8280W        W12480   7.916   6.392   0.888
 8281W        W12481  10.097   5.865   3.420
 8282W        W12482   4.571   9.955   9.963
 8283W        W12483   9.418  10.653   1.218
 8284W        W12484   9.067   4.285   2.605
 8285W        W12485   8.955   5.559   2.146
 8286W        W12486   9.959   6.799   3.177
 8287W        W12487  11.079   0.933  11.799
 8288W        W12488   3.859   4.455  10.292
 8289W        W12489   9.214   5.837   0.260
 8290W        W12490   5.630   6.244   1.680
 8291W        W12491  11.416   7.321   2.981
 8292W        W12492  10.382   9.423   2.618
 8293W        W12493   6.546   8.292   1.166
 8294W        W12494   9.784   7.264  10.403
 8295W        W12495   4.352   7.213   2.356
 8296W        W12496  11.086   6.304   8.382
 8297W        W12497   4.082   4.903   8.558
 8298W        W12498  11.113   3.117   0.493
 8299W        W12499   1.564   6.632   0.464
 8300W        W12500   8.116   9.386   0.518
 8301W        W12501   8.049   9.975   2.270
 8302W        W12502   4.748  10.799   0.300
 8303W        W12503   8.680   8.861   9.832
 8304W        W12504   3.837  10.396   0.321
 8305W        W12505   9.594   8.852   2.644
 8306W        W12506   6.058   3.788   2.632
 8307W        W12507   0.723  10.250   9.143
 8308W        W12508   1.769   6.563   1.773
 8309W        W12509  11.373   5.170   1.648
 8310W        W12510   3.916   9.368   9.847
 8311W        W12511   1.674  11.271  11.098
 8312W        W12512   3.560   5.630   2.435
 8313W        W12513   2.179   0.218   3.469
 8314W        W12514   9.435   9.249  11.271
 8315W        W12515   6.397   1.709   2.001
 8316W        W12516  10.410   5.479   3.616
 8317W        W12517   2.016   3.146  10.530
 8318W        W12518   1.796   0.028   2.747
 8319W        W12519   6.889   8.255  10.197
 8320W        W12520   9.282   9.271   0.172
 8321W        W12521   2.483   7.995  10.387
 8322W        W12522   2.326   1.850   1.476
 8323W        W12523   4.794   8.038   2.892
 8324W        W12524  11.362  10.102   0.170
 8325W        W12525   7.724   5.200   1.791
 8326W        W12526   2.620   0.700  10.504
 8327W        W12527   3.435   6.472   9.069
 8328W        W12528   5.639  11.009   3.498
 8329W        W12529   4.751   9.829   2.505
 8330W        W12530   2.146   3.256  11.903
 8331W        W12531   3.872   7.145   9.746
 8332W        W12532   3.787   7.432  11.098
 8333W        W12533   7.716   8.437  10.510
 8334W        W12534   0.112   7.826   0.197
 8335W        W12535   1.629   5.671   2.685
 8336W        W12536  10.428   4.678   9.291
 8337W        W12537   6.113   1.263   3.256
 8338W        W12538   1.721   9.132  11.353
 8339W        W12539   8.541   2.719   0.356
 8340W        W12540   3.873  10.274   9.935
 8341W        W12541   9.025   9.984   0.596
 8342W        W12542   2.323   3.178  10.145
 8343W        W12543   8.619   0.024   0.851
 8344W        W12544   7.776   7.927  10.733
 8345W        W12545   1.592   9.731   1.497
 8346W        W12546  10.362   4.565   3.397
 8347W        W12547   6.148   9.035   3.279
 8348W        W12548   7.956  10.023   1.329
 8349W        W12549   8.857   5.448   0.133
 8350W        W12550  11.034   6.191   1.987
 8351W        W12551  11.244   7.721   0.679
 8352W        W12552   5.545   3.639  10.106
 8353W        W12553   8.470   2.146  10.742
 8354W        W12554   3.190   4.791   1.484
 8355W        W12555   1.478   4.753  11.055
 8356W        W12556   3.107   7.109   2.817
 8357W        W12557  10.829   6.295  10.745
 8358W        W12558   3.284  10.494   3.609
 8359W        W12559   6.271   9.953   1.694
 8360W        W12560   1.779   1.404  11.378
 8361W        W12561  10.883   6.591   8.843
 8362W        W12562   6.930   4.654   3.099
 8363W        W12563  10.339   8.285   1.230
 8364W        W12564   2.391   1.205   0.400
 8365W        W12565   0.561   2.446   2.453
 8366W        W12566   6.588   2.880  11.567
 8367W        W12567  10.901   2.967   3.635
 8368W        W12568   2.608   9.895   9.861
 8369W        W12569   2.189   0.500  11.780
 8370W        W12570   7.791   8.143   1.429
 8371W        W12571   0.283   1.241   1.769
 8372W        W12572  10.981  10.446   9.523
 8373W        W12573   5.449   6.075   9.496
 8374W        W12574   3.652   2.161   3.239
 8375W        W12575   0.488   7.133   1.806
 8376W        W12576   3.870   1.511   0.377
 8377W        W12577   5.548   7.811   9.525
 8378W        W12578   9.070   7.726   1.260
 8379W        W12579   7.472   8.691   0.376
 8380W        W12580  10.434  10.406   1.648
 8381W        W12581   4.162   8.581   3.070
 8382W        W12582   4.233   9.045   3.405
 8383W        W12583   8.584   8.362   2.917
 8384W        W12584   5.673   0.274   1.391
 8385W        W12585  11.063   3.341   3.000
 8386W        W12586   5.690  10.617  11.896
 8387W        W12587   4.553   4.841   0.102
 8388W        W12588   1.659   4.879   3.271
 8389W        W12589   8.085   1.853   9.452
 8390W        W12590   9.876   3.345   3.161
 8391W        W12591   7.896   1.791   0.971
 8392W        W12592  11.432  10.997  11.579
 8393W        W12593   5.183   6.495   0.181
 8394W        W12594   2.174  11.474   9.371
 8395W        W12595   0.646  11.069   0.379
 8396W        W12596   5.156   1.878   1.352
 8397W        W12597   6.453   5.032  10.948
 8398W        W12598   3.179   4.279   1.359
 8399W        W12599   1.803   9.969   2.780
 8400W        W12600   4.629   8.343   3.749
 8401W        W12601   7.011   8.857   0.118
 8402W        W12602   5.147   1.831   9.393
 8403W        W12603   2.013  11.073   8.589
 8404W        W12604   7.516   3.316   1.630
 8405W        W12605   0.242   1.050   0.923
 8406W        W12606   0.979  11.001  11.484
 8407W        W12607   4.498  11.067  11.922
 8408W        W12608   1.157  10.030   8.906
 8409W        W12609   5.572   9.840  11.489
 8410W        W12610   5.288   0.356   2.846
 8411W        W12611   3.285   3.295  11.073
 8412W        W12612  10.073   6.034   2.090
 8413W        W12613   0.537  10.487  11.887
 8414W        W12614   2.141   4.682   3.317
 8415W        W12615   3.336   2.444  11.464
 8416W        W12616   4.297   2.178   1.245
 8417W        W12617   5.895   8.637  11.791
 8418W        W12618   6.038   0.344  11.291
 8419W        W12619   4.134   0.281   2.766
 8420W        W12620   0.789   4.529   0.316
 8421W        W12621   9.911   8.549   1.077
 8422W        W12622   6.032   0.846  11.060
 8423W        W12623   5.233   0.569   9.220
 8424W        W12624   8.979   2.551  11.982
 8425W        W12625   7.715   6.121  10.327
 8426W        W12626   2.084   5.104   9.528
 8427W        W12627   2.441   0.365  10.866
 8428W        W12628   9.963   5.342   3.419
 8429W        W12629   5.119   9.141   9.469
 8430W        W12630   4.377   7.212   1.458
 8431W        W12631   8.378   0.209   0.411
 8432W        W12632   0.887  10.208  10.955
 8433W        W12633   2.073   9.428   0.737
 8434W        W12634   4.801   3.808  10.495
 8435W        W12635   3.567   5.270   0.848
 8436W        W12636   1.200   3.155   2.304
 8437W        W12637   7.234   0.570   1.425
 8438W        W12638   0.291   3.912   1.514
 8439W        W12639   8.856   2.246   9.885
 8440W        W12640   0.131  11.039   0.467
 8441W        W12641   9.486   9.860   9.908
 8442W        W12642  10.425   6.198  11.632
 8443W        W12643   1.392   6.532   9.212
 8444W        W12644   8.898   4.099  10.382
 8445W        W12645   7.950   7.531   0.289
 8446W        W12646   0.729   2.765  11.441
 8447W        W12647   6.304   7.613   4.102
 8448W        W12648   0.530   4.782   8.935
 8449W        W12649   5.020   0.433   2.409
 8450W        W12650   7.004  10.242  10.004
 8451W        W12651   3.808   8.810   3.525
 8452W        W12652   4.515   8.937  11.408
 8453W        W12653   4.546   2.412   2.163
 8454W        W12654   0.583   4.261   1.248
 8455W        W12655   3.761   7.162   8.888
 8456W        W12656   0.373   6.513  10.207
 8457W        W12657   0.292   0.876   9.727
 8458W        W12658   5.801   8.150   0.010
 8459W        W12659   5.649   9.316  10.813
 8460W        W12660   1.898   1.076   0.206
 8461W        W12661   2.820   4.693   9.170
 8462W        W12662  10.745   7.150   2.231
 8463W        W12663  10.367   7.146   0.757
 8464W        W12664  10.640   1.300   1.066
 8465W        W12665   6.180   0.400   0.663
 8466W        W12666  11.425   8.155   2.574
 8467W        W12667   2.598   1.590   8.976
 8468W        W12668   4.409   6.601  10.475
 8469W        W12669   8.599  10.238  10.557
 8470W        W12670   3.322   0.305   9.607
 8471W        W12671   3.223   3.657  10.349
 8472W        W12672   7.084   6.035   0.917
 8473W        W12673   7.060   7.617   8.923
 8474W        W12674   8.162   1.822  10.494
 8475W        W12675  11.388   4.165   1.903
 8476W        W12676   4.809   1.935  11.669
 8477W        W12677   6.917   5.696  10.309
 8478W        W12678   6.061   9.626  10.595
 8479W        W12679   5.123   7.827   9.805
 8480W        W12680   3.796   3.682   9.800
 8481W        W12681   1.048   8.938   1.502
 8482W        W12682   5.170   8.688   0.604
 8483W        W12683   7.984   7.051   2.040
 8484W        W12684   9.089   5.124   0.486
 8485W        W12685   4.743  10.397   9.689
 8486W        W12686   8.359   5.524  10.323
 8487W        W12687   2.661  10.859   0.601
 8488W        W12688   9.305   0.768   1.242
 8489W        W12689   9.803   2.631   9.096
 8490W        W12690  10.875   3.028   9.919
 8491W        W12691  11.313   0.564  11.262
 8492W        W12692   2.755   1.013  11.439
 8493W        W12693   2.099   2.279   3.361
 8494W        W12694   9.446   1.437  10.094
 8495W        W12695   5.929   1.829  10.236
 8496W        W12696   4.509   7.625   2.706
 8497W        W12697   5.460   6.114   2.807
 8498W        W12698   4.718   8.552   2.879
 8499W        W12699   4.323   2.838   1.929
 8500W        W12700   6.076  10.984   0.697
 8501W        W12701   7.883   4.201  10.594
 8502W        W12702   4.272  11.063   0.396
 8503W        W12703   5.212  11.437  11.100
 8504W        W12704   7.206   9.228   9.885
 8505W        W12705   9.394   6.159  11.535
 8506W        W12706  10.695   3.827   3.648
 8507W        W12707   3.958   7.997  10.490
 8508W        W12708   6.848  10.748  10.745
 8509W        W12709   4.897  10.056   0.965
 8510W        W12710   1.712   0.828   3.189
 8511W        W12711   7.087  10.483   9.459
 8512W        W12712   9.805  10.800   8.978
 8513W        W12713   2.121   0.257   2.444
 8514W        W12714   2.347   6.104  11.417
 8515W        W12715   4.173   1.745   9.124
 8516W        W12716  10.452   4.259  11.033
 8517W        W12717   9.845   0.438   1.321
 8518W        W12718   0.884   4.971   0.557
 8519W        W12719   1.306   5.235   9.964
 8520W        W12720   8.488   5.813   0.775
 8521W        W12721   1.206   8.103  11.280
 8522W        W12722   0.241   3.445  11.960
 8523W        W12723   2.726   3.850   0.685
 8524W        W12724   2.627   5.110   9.438
 8525W        W12725   9.890   5.708   0.739
 8526W        W12726   8.558   8.255   1.017
 8527W        W12727   5.997   9.338   8.535
 8528W        W12728   9.589   3.157  10.434
 8529W        W12729   6.357   2.133   1.734
 8530W        W12730   5.829   9.848   1.484
 8531W        W12731   7.139   9.884   2.187
 8532W        W12732   4.699  11.222   9.654
 8533W        W12733   5.686   8.348   9.491
 8534W        W12734   5.636   5.843   2.010
 8535ION    NA+12735   2.749   6.701  11.890
 8536ION    NA+12736   4.245   1.057   2.056
 8537ION    NA+12737   1.211  10.590   3.418
 8538ION    NA+12738   6.840   0.926   1.410
 8539ION    NA+12739   7.215   3.403   9.435
 8540ION    NA+12740  10.238   9.564   3.501
 8541ION    NA+12741  11.469   2.046  11.413
 8542ION    NA+12742   5.795   4.434   0.496
 8543ION    NA+12743  11.234   7.146   9.662
 8544ION    NA+12744   8.223   4.625   9.409
 8545ION    NA+12745   6.808   6.397  10.876
 8546ION    NA+12746   7.806   2.250   1.628
 8547ION    NA+12747   8.143   5.022   0.942
 8548ION    NA+12748   8.139   2.330   3.254
 8549ION    NA+12749   1.884  10.997   0.967
 8550ION    NA+12750   0.912   9.320  11.873
 8551ION    NA+12751   7.897   6.198  11.521
 8552ION    NA+12752   5.245   1.435   3.177
 8553ION    NA+12753   3.994  10.437  10.424
 8554ION    NA+12754   1.880   3.378   9.939
 8555ION    NA+12755   9.850   4.730   2.280
 8556ION    NA+12756   0.874   8.696   0.826
 8557ION    NA+12757   6.342   7.426  11.894
 8558ION    NA+12758   8.017   3.423   3.163
 8559ION    NA+12759   8.877   6.362  10.667
 8560ION    NA+12760   9.713   7.724   0.939
 8561ION    NA+12761   6.267  11.182   3.360
 8562ION    NA+12762   8.289   2.271   0.318
 8563ION    NA+12763   0.935   2.785   9.773
 8564ION    NA+12764   2.120   0.631   0.283
 8565ION    NA+12765   3.392   2.843  11.805
 8566ION    NA+12766   6.515   7.725   1.944
 8567ION    NA+12767   3.169   4.897   8.231
 8568ION    NA+12768   4.669  11.077   2.558
 8569ION    NA+12769   5.707  10.258   1.208
 8570ION    NA+12770   3.180   4.722  10.812
 8571ION    NA+12771  10.437   0.484  11.530
 8572ION    NA+12772   7.239   7.700   2.982
 8573ION    NA+12773   7.650   3.778   0.267
 8574ION    NA+12774  10.232   7.450  11.966
 8575ION    NA+12775   3.717   9.987   2.212
 8576ION    NA+12776   3.220   1.128  10.173
 8577ION    NA+12777   1.490   7.716   9.974
 8578ION    NA+12778   1.465   8.739   8.865
 8579ION    NA+12779   3.136   9.388  11.845
 8580ION    NA+12780   8.893   0.171   1.334
 8581ION    NA+12781   0.595   4.985   9.952
 8582ION    NA+12782   5.669   7.106   2.486
 8583ION    NA+12783   2.911   3.879   9.381
 8584ION    NA+12784   7.022   5.596   0.635
 8585ION    NA+12785   3.534  11.492   1.715
 8586ION    NA+12786   0.913  10.787   2.238
 8587ION    NA+12787   4.843   6.461   1.953
 8588ION    NA+12788   1.008   6.261   3.122
 8589ION    NA+12789   9.793   2.142   8.887
 8590ION    NA+12790   6.715   6.994   3.210
 8591ION    NA+12791   9.190  10.336   1.838
 8592ION    NA+12792   1.504   4.178   0.734
 8593ION    NA+12793   1.553   4.450   1.700
 8594ION    NA+12794   3.355   6.183   3.320
 8595ION    NA+12795   9.624   7.685   3.485
 8596ION    NA+12796   5.791   8.060  11.494
 8597ION    NA+12797   1.158   5.980   9.708
 8598ION    NA+12798   8.396   3.669   2.209
 8599ION    NA+12799   9.672   2.311   3.727
 8600ION    NA+12800   7.474   1.773   0.021
 8601ION    NA+12801   8.616   8.371   2.378
 8602ION    NA+12802   0.024  11.073   3.267
 8603ION    NA+12803   6.745   7.380   4.202
 8604ION    NA+12804   5.323  11.282  11.591
 8605ION    NA+12805   6.058   2.509   2.633
 8606ION    NA+12806   8.282   8.547   9.824
 8607ION    NA+12807   7.328   8.852   1.435
 8608ION    NA+12808   4.720  10.166   2.149
 8609ION    NA+12809   4.265   5.776   1.982
 8610ION    NA+12810   0.052   8.065   1.963
 8611ION    NA+12811   4.191  10.122   1.301
 8612ION    NA+12812   8.137   0.909   9.736
 8613ION    NA+12813   4.334   5.907   0.392
 8614ION    NA+12814  10.061   0.411   0.857
 8615ION    NA+12815   9.680   7.862   8.972
 8616ION    NA+12816   6.085   3.925   1.821
 8617ION    NA+12817   7.367   9.364  10.790
 8618ION    NA+12818   5.905   3.190   3.361
 8619ION    NA+12819   1.733   1.132   1.361
 8620ION    NA+12820   7.652   2.854   8.625
 8621ION    NA+12821   6.174   8.493   9.477
 8622ION    NA+12822   0.630   4.645   1.648
 8623ION    NA+12823   3.183   6.620   8.573
 8624ION    NA+12824   4.138   6.800   0.241
 8625ION    CL-12825   5.612   1.659   2.118
 8626ION    CL-12826   0.201   7.865  11.310
 8627ION    CL-12827  11.347   4.343   8.637
 8628ION    CL-12828   2.129   8.527   2.245
 8629ION    CL-12829   6.933   7.866   2.023
 8630ION    CL-12830   4.675   8.922   1.509
 8631ION    CL-12831   8.214   3.657  11.383
 8632ION    CL-12832   0.171   7.798   2.299
 8633ION    CL-12833   9.165   5.921   3.516
 8634ION    CL-12834   0.266   0.866   0.235
 8635ION    CL-12835   7.432  11.478   0.822
 8636ION    CL-12836   3.362  11.286   1.358
 8637ION    CL-12837   6.966   3.146   9.703
 8638ION    CL-12838   5.090   0.535   1.252
 8639ION    CL-12839   0.021  11.432   2.989
 8640ION    CL-12840   4.783   1.177  11.046
 8641ION    CL-12841   5.793   9.888   0.955
 8642ION    CL-12842  11.151   7.355   9.275
 8643ION    CL-12843   0.226   4.452   1.599
 8644ION    CL-12844   6.080   7.783  11.736
 8645ION    CL-12845  10.600  10.893  10.065
 8646ION    CL-12846   3.545  11.333  11.997
 8647ION    CL-12847   7.265   1.059   1.472
 8648ION    CL-12848   9.126   1.576   3.598
 8649ION    CL-12849   3.223  11.144   9.137
 8650ION    CL-12850   0.979  10.347   9.584
 8651ION    CL-12851   3.389   2.947   3.187
 8652ION    CL-12852   6.955   7.357   3.079
 8653ION    CL-12853   6.708   2.773  10.594
 8654ION    CL-12854  11.461   3.531   1.320
 8655ION    CL-12855   2.356   0.436  10.137
 8656ION    CL-12856   9.491  10.636  10.350
 8657ION    CL-12857   1.070   7.932   3.402
 8658ION    CL-12858   6.387   7.200   4.417
 8659ION    CL-12859   8.470   4.984   3.636
 8660ION    CL-12860   5.440   2.917   8.607
 8661ION    CL-12861   8.188   6.504   2.759
 8662ION    CL-12862   7.014   9.488   2.503
 8663ION    CL-12863   5.166   3.396   2.762
 8664ION    CL-12864  11.245   3.579  11.927
 8665ION    CL-12865  10.526   3.181   1.377
 8666ION    CL-12866   7.663   7.362   9.605
 8667ION    CL-12867   0.995   1.535   0.383
 8668ION    CL-12868   3.338   1.555  10.127
 8669ION    CL-12869  10.888   3.587  10.136
 8670ION    CL-12870   1.353   1.233   9.658
 8671ION    CL-12871  11.433   5.492   2.344
 8672ION    CL-12872   2.668   6.819   9.989
 8673ION    CL-12873   6.938   9.418  10.679
 8674ION    CL-12874   8.589   4.309   0.960
 8675ION    CL-12875   4.251   8.733  11.010
 8676ION    CL-12876   4.970   3.625   0.723
 8677ION    CL-12877   0.252   5.151  10.190
 8678ION    CL-12878   5.840   4.102   2.156
 8679ION    CL-12879   9.115   9.568   3.588
 8680ION    CL-12880  10.965   5.525   8.080
 8681ION    CL-12881   3.024   7.759   9.875
 8682ION    CL-12882   5.304   1.185  11.938
 8683ION    CL-12883   9.879   6.701   1.200
 8684ION    CL-12884   9.198   7.171   2.936
 8685ION    CL-12885   4.092   7.257   0.261
 8686ION    CL-12886   9.324   6.419  10.695
 8687ION    CL-12887   0.717   4.605   2.894
 8688ION    CL-12888  10.444  10.444   1.127
 8689ION    CL-12889   7.116  10.111   1.285
 8690ION    CL-12890   5.318   3.719   9.635
 8691ION    CL-12891   4.524   6.147   2.017
 8692ION    CL-12892   4.230   6.344   0.307
 8693ION    CL-12893  10.928   0.900   8.492
 8694ION    CL-12894   5.542   8.313  11.202
 8695ION    CL-12895   5.256   3.091  11.489
 8696ION    CL-12896   4.298   3.104   9.093
 8697ION    CL-12897   9.964   7.484  11.613
 8698ION    CL-12898   0.706   5.989   3.362
 8699ION    CL-12899  10.078   3.135   2.719
 8700ION    CL-12900   9.296   7.802   0.791
 8701ION    CL-12901   7.502   1.758  11.577
 8702ION    CL-12902   2.678   5.723   2.103
 8703ION    CL-12903   5.672  10.670   1.405
 8704ION    CL-12904   1.188   2.286   1.866
 8705ION    CL-12905   1.154  11.265  11.037
 8706ION    CL-12906   4.909   1.901   9.852
 8707ION    CL-12907   8.074  11.313   1.902
 8708ION    CL-12908   1.268   9.347   2.767
 8709ION    CL-12909   6.625   7.119   0.076
 8710ION    CL-12910   1.734  10.745  10.340
 8711ION    CL-12911   0.937   4.916   1.442
 8712ION    CL-12912   6.014   9.527  11.506
 8713ION    CL-12913   5.253  10.270   8.804
 8714ION    CL-12914   9.544  10.326   1.565
  11.50000  11.50000  12.00000
