Protein in INSANE! Membrane UpperLeaflet>POPC=1.0 LowerLeaflet>POPC=1.0
11530
    1AU     AUC    1   1.382   2.154   5.601  0.0112 -0.0894 -0.0029
    1AU     AUC    2   1.247   2.214   5.628  0.0574 -0.0818 -0.0800
    1AU     AUC    3   1.245   2.071   5.656 -0.0650 -0.0168 -0.0478
    1AU     AUC    4   1.512   2.248   5.550  0.0134  0.0263  0.0103
    1AU     AUC    5   1.522   2.081   5.565 -0.0028 -0.0706 -0.0349
    1AU     AUC    6   1.438   2.138   5.437  0.0036 -0.0231 -0.0353
    1AU     AUC    7   1.239   2.138   5.509  0.0388  0.1193 -0.0975
    1AU     AUC    8   1.511   2.169   5.704 -0.0381  0.0360 -0.0622
    1AU     AUC    9   1.343   2.146   5.777  0.0017  0.0095 -0.0086
    1AU     AUC   10   1.417   2.002   5.686  0.0091  0.0204 -0.0229
    1AU     AUC   11   1.370   2.006   5.500  0.0519  0.0887 -0.0094
    1AU     AUC   12   1.375   2.324   5.671  0.0613 -0.0561 -0.0106
    1AU     AUC   13   1.341   2.269   5.456 -0.0147 -0.0518  0.0074
    1AU     AUC   14   1.099   2.328   5.650  0.0312  0.0944 -0.0638
    1AU     AUC   15   1.066   2.174   5.756 -0.0459 -0.0521  0.0635
    1AU     AUC   16   1.146   1.973   5.733  0.0813 -0.0242 -0.0259
    1AU     AUC   17   1.624   2.343   5.513 -0.0391 -0.1625 -0.0616
    1AU     AUC   18   1.731   2.177   5.528  0.0611  0.0904  0.0828
    1AU     AUC   19   1.669   2.004   5.530  0.1021  0.0152 -0.0265
    1AU     AUC   20   1.541   2.143   5.297  0.0276 -0.0484 -0.0576
    1AU     AUC   21   1.373   2.080   5.230  0.0143  0.0333 -0.0020
    1AU     AUC   22   1.144   2.075   5.369  0.0951 -0.0263  0.0574
    1AU     AUC   23   1.642   2.176   5.802  0.0954 -0.0127  0.0119
    1AU     AUC   24   1.488   2.167   5.899  0.0870 -0.0021  0.0707
    1AU     AUC   25   1.314   2.134   5.920 -0.0498  0.1046  0.0413
    1AU     AUC   26   1.458   1.893   5.756  0.1355 -0.0022  0.0403
    1AU     AUC   27   1.390   1.835   5.586  0.0507 -0.0578  0.0526
    1AU     AUC   28   1.351   1.848   5.460 -0.1045  0.0044 -0.1154
    1AU     AUC   29   1.396   2.457   5.676 -0.0158  0.0158  0.0248
    1AU     AUC   30   1.306   2.468   5.514 -0.0375  0.0510  0.0221
    1AU     AUC   31   1.321   2.377   5.391  0.0017 -0.0530  0.0176
    1AU     AUC   32   1.322   1.862   5.762 -0.0251 -0.0542 -0.0070
    1AU     AUC   33   1.182   1.886   5.578 -0.0017 -0.0665  0.0479
    1AU     AUC   34   1.243   2.385   5.695  0.0897 -0.0541  0.0946
    1AU     AUC   35   1.185   2.419   5.494 -0.0207 -0.0369  0.0360
    1AU     AUC   36   1.599   1.894   5.687 -0.0591 -0.0523 -0.0694
    1AU     AUC   37   1.548   1.901   5.470 -0.0365  0.0673 -0.0021
    1AU     AUC   38   1.505   2.421   5.610  0.0249  0.0050 -0.0083
    1AU     AUC   39   1.477   2.413   5.407  0.1438 -0.0143  0.0668
    1AU     AUC   40   1.073   2.238   5.499 -0.0705 -0.0143  0.0580
    1AU     AUC   41   1.096   1.984   5.587 -0.0211  0.0380  0.0419
    1AU     AUC   42   1.632   2.264   5.383 -0.0220 -0.0948 -0.0073
    1AU     AUC   43   1.619   2.084   5.361 -0.0141 -0.0063  0.0034
    1AU     AUC   44   1.218   2.213   5.892  0.1018  0.0082  0.0378
    1AU     AUC   45   1.221   2.044   5.878 -0.0285 -0.0791  0.0302
    1AU     AUC   46   1.657   2.306   5.675 -0.0108 -0.0969 -0.0284
    1AU     AUC   47   1.688   2.064   5.683 -0.1241  0.0993 -0.0768
    1AU     AUC   48   1.404   1.964   5.338 -0.0178  0.0292  0.0104
    1AU     AUC   49   1.215   1.977   5.398 -0.0056  0.0775  0.0431
    1AU     AUC   50   1.568   1.991   5.830 -0.0529  0.0047 -0.0212
    1AU     AUC   51   1.405   1.980   5.876 -0.0366  0.0471  0.0913
    1AU     AUC   52   1.367   2.242   5.304  0.0139 -0.0398  0.0025
    1AU     AUC   53   1.197   2.254   5.358 -0.0002  0.0217 -0.0376
    1AU     AUC   54   1.510   2.361   5.815 -0.0395 -0.0136 -0.0368
    1AU     AUC   55   1.347   2.325   5.863 -0.0230  0.0657  0.0055
    1AU    AUSL   56   1.034   1.659   5.805 -0.0541 -0.0336  0.0092
    1AU    AUSL   57   1.479   1.721   5.984  0.0362 -0.0575 -0.0384
    1AU     AUL   58   1.093   1.980   6.140  0.0584 -0.0229  0.0450
    1AU       S   59   1.656   1.385   6.345  0.0308  0.0389 -0.1439
    1AU     LIG   60   1.606   0.979   6.209 -0.2689 -0.2641 -0.4150
    1AU     LIG   61   1.759   0.595   6.096  0.1265  0.3398  0.1997
    1AU       S   62   0.728   1.327   5.934  0.2057  0.3286 -0.2874
    1AU     LIG   63   0.452   0.997   6.008 -0.0796  0.3330 -0.0736
    1AU     LIG   64   0.514   0.582   5.944  0.0993 -0.0835 -0.1064
    1AU    AUSL   65   1.303   1.732   5.774 -0.0375  0.0046 -0.0151
    1AU    AUSL   66   1.429   1.736   5.522  0.0293  0.0100 -0.0206
    1AU     AUL   67   1.432   1.483   5.439  0.0572  0.0866  0.0278
    1AU       S   68   0.949   1.323   6.185  0.2316 -0.1215 -0.2801
    1AU     LIG   69   0.651   1.270   6.489  0.2482 -0.0010  0.0319
    1AU     LIG   70   0.558   1.321   6.917  0.4744  0.1150 -0.1889
    1AU       S   71   1.901   1.012   5.744 -0.1376 -0.3495 -0.3956
    1AU     LIG   72   2.134   0.977   6.139  0.1501  0.0256  0.1293
    1AU     LIG   73   2.476   0.937   6.406  0.0270 -0.1072 -0.1840
    1AU    AUSL   74   1.195   1.568   5.573 -0.0188 -0.0985  0.0924
    1AU    AUSL   75   1.106   1.824   5.598  0.0335 -0.1298 -0.1239
    1AU     AUL   76   1.305   1.505   5.923  0.0208 -0.0053  0.0015
    1AU       S   77   1.044   1.154   5.615 -0.3096  0.1336  0.2403
    1AU     LIG   78   0.973   0.852   5.850  0.1040  0.0928  0.0883
    1AU     LIG   79   0.981   0.441   5.917  0.3263 -0.1265 -0.3040
    1AU       S   80   0.636   1.398   5.465 -0.0647 -0.2840 -0.0576
    1AU     LIG   81   0.612   0.965   5.550  0.2120 -0.0486 -0.4187
    1AU     LIG   82   0.543   0.631   5.392 -0.4496  0.1147 -0.0182
    1AU    AUSL   83   0.971   2.625   5.586  0.0734  0.0075 -0.0158
    1AU    AUSL   84   0.974   2.518   5.306  0.0735 -0.0555  0.0237
    1AU     AUL   85   1.154   2.833   5.385  0.0267 -0.0001 -0.0415
    1AU       S   86   0.816   3.100   5.686 -0.1801  0.2034 -0.2358
    1AU     LIG   87   0.608   3.448   5.533  0.1370  0.0295 -0.0946
    1AU     LIG   88   0.208   3.707   5.779  0.1875  0.0616  0.2236
    1AU       S   89   0.578   2.845   5.288 -0.0030  0.1974  0.1990
    1AU     LIG   90   0.651   3.262   5.041 -0.0071  0.1049  0.2796
    1AU     LIG   91   0.761   3.444   4.763 -0.0424 -0.1196 -0.0940
    1AU    AUSL   92   1.219   2.707   5.672 -0.0346 -0.0725 -0.0763
    1AU    AUSL   93   1.134   2.462   5.754 -0.0283 -0.0013  0.0847
    1AU     AUL   94   1.051   2.485   5.921  0.0916 -0.0693 -0.1320
    1AU       S   95   1.031   3.016   6.439  0.1380 -0.4162 -0.0854
    1AU     LIG   96   0.907   3.427   6.398 -0.0571  0.1600 -0.2991
    1AU     LIG   97   0.778   3.649   6.000 -0.1771 -0.1585  0.1343
    1AU       S   98   1.014   3.075   5.810  0.2598 -0.1307 -0.1738
    1AU     LIG   99   1.233   3.552   5.824  0.2092 -0.3079  0.2556
    1AU     LIG  100   1.509   3.876   5.912  0.1275  0.6020  0.3776
    1AU    AUSL  101   1.207   2.534   5.463 -0.0048  0.0823 -0.0280
    1AU    AUSL  102   1.406   2.740   5.465 -0.0157  0.1048  0.0168
    1AU     AUL  103   1.231   2.590   5.256  0.0619 -0.0049 -0.0665
    1AU       S  104   1.500   3.195   5.561 -0.1668  0.0273  0.1375
    1AU     LIG  105   1.060   3.329   5.317  0.1112 -0.2196 -0.3588
    1AU     LIG  106   0.946   3.753   5.174 -0.2202 -0.1023 -0.1106
    1AU       S  107   0.811   3.185   5.970 -0.1788  0.0084  0.0810
    1AU     LIG  108   0.433   3.305   5.962 -0.1745 -0.2133 -0.2612
    1AU     LIG  109   0.122   3.066   5.880 -0.1342 -0.0297 -0.0940
    1AU    AUSL  110   1.675   1.623   5.513  0.0577  0.0231 -0.0172
    1AU    AUSL  111   1.526   1.696   5.262  0.0721  0.0161 -0.0278
    1AU     AUL  112   1.433   1.691   5.111  0.0504 -0.0095 -0.0496
    1AU       S  113   1.826   1.179   5.511 -0.2139 -0.1030  0.2608
    1AU     LIG  114   1.980   0.852   5.218  0.5263  0.2025  0.2005
    1AU     LIG  115   1.942   0.624   4.877 -0.3256 -0.5446 -0.1243
    1AU       S  116   1.911   1.494   4.928  0.6383 -0.1430  0.2559
    1AU     LIG  117   1.625   1.097   4.955 -0.1121  0.0120 -0.0307
    1AU     LIG  118   1.429   0.777   5.157 -0.0418 -0.2955  0.0820
    1AU    AUSL  119   1.508   1.544   5.716  0.0690  0.0299 -0.0071
    1AU    AUSL  120   1.860   1.803   5.573 -0.0018 -0.0498 -0.0412
    1AU     AUL  121   1.758   1.691   5.945 -0.0934 -0.0280 -0.0702
    1AU       S  122   2.255   1.545   5.540  0.2831  0.0381 -0.1516
    1AU     LIG  123   2.354   1.059   5.577 -0.2483 -0.0912  0.1835
    1AU     LIG  124   2.542   0.784   5.821 -0.1706  0.1027 -0.2144
    1AU       S  125   1.692   1.150   5.770  0.1960  0.3217  0.2103
    1AU     LIG  126   1.461   0.755   5.675  0.0279 -0.0787 -0.0101
    1AU     LIG  127   1.167   0.538   5.472  0.1153 -0.0805  0.2207
    1AU    AUSL  128   1.673   2.655   5.467 -0.0283 -0.0009  0.0624
    1AU    AUSL  129   1.479   2.595   5.676 -0.0659  0.0639 -0.0584
    1AU     AUL  130   1.611   2.679   5.775 -0.0459 -0.0014  0.0324
    1AU       S  131   1.830   3.076   5.503  0.3574  0.2195 -0.1374
    1AU     LIG  132   1.916   3.390   5.224  0.3320 -0.1281 -0.1243
    1AU     LIG  133   1.845   3.862   5.239  0.2030 -0.2798  0.0171
    1AU       S  134   2.464   2.948   5.801 -0.7245  0.0395  0.0169
    1AU     LIG  135   2.360   3.035   6.274  0.0788 -0.6331  0.3229
    1AU     LIG  136   2.671   3.148   6.541  0.0049  0.0922  0.0235
    1AU    AUSL  137   1.481   2.500   5.340  0.0183  0.0792 -0.0651
    1AU    AUSL  138   1.689   2.600   5.200 -0.0409  0.1787 -0.0832
    1AU     AUL  139   1.408   2.786   5.192 -0.0505 -0.0710 -0.0152
    1AU       S  140   1.898   2.900   5.010  0.0628 -0.4134  0.2454
    1AU     LIG  141   2.144   3.332   4.826  0.0188  0.0811 -0.2249
    1AU     LIG  142   2.573   3.547   4.704 -0.2527  0.4109 -0.2265
    1AU       S  143   1.737   3.370   5.679  0.0350 -0.0285  0.0967
    1AU     LIG  144   2.244   3.351   5.625 -0.0863 -0.0672  0.1593
    1AU     LIG  145   2.338   3.525   5.253 -0.3932  0.0049  0.2015
    1AU    AUSL  146   0.973   2.073   5.522 -0.0869  0.0419  0.0716
    1AU    AUSL  147   0.994   2.355   5.544  0.0232  0.0321 -0.0416
    1AU     AUL  148   0.815   2.363   5.474 -0.0062  0.0627  0.0733
    1AU       S  149   0.435   2.704   5.474 -0.3121  0.5030  0.2206
    1AU     LIG  150   0.077   2.417   5.267 -0.2299  0.0005 -0.0449
    1AU     LIG  151  -0.186   2.365   4.886 -0.0223  0.2471 -0.1904
    1AU       S  152   0.191   1.904   5.652  0.2492 -0.0246  0.1697
    1AU     LIG  153  -0.216   1.730   5.597  0.1499  0.0585 -0.0953
    1AU     LIG  154  -0.602   1.617   5.753  0.3124 -0.2515 -0.1378
    1AU    AUSL  155   0.763   2.151   5.689  0.0679 -0.0647 -0.0040
    1AU    AUSL  156   0.867   2.045   5.943 -0.0744  0.0225  0.1007
    1AU     AUL  157   0.878   1.829   6.007  0.0030 -0.0021 -0.0393
    1AU       S  158   0.361   2.083   5.766 -0.0175 -0.0810  0.1167
    1AU     LIG  159   0.193   2.550   5.844 -0.0917 -0.2905 -0.2310
    1AU     LIG  160  -0.195   2.731   5.714  0.1282  0.2501 -0.2212
    1AU       S  161   0.526   2.178   6.263  0.1635  0.3357 -0.0525
    1AU     LIG  162   0.277   2.183   6.643 -0.3471  0.3040 -0.2254
    1AU     LIG  163  -0.002   2.107   7.005 -0.1569  0.2890  0.1517
    1AU    AUSL  164   0.866   1.883   5.711  0.0040 -0.0433  0.0027
    1AU    AUSL  165   1.128   1.967   5.319 -0.0816 -0.0563  0.0308
    1AU     AUL  166   0.853   2.084   5.430  0.0577 -0.0634  0.0283
    1AU       S  167   0.494   1.417   5.253 -0.0399  0.5285  0.0506
    1AU     LIG  168   0.040   1.478   5.075 -0.1127  0.2558 -0.1568
    1AU     LIG  169  -0.407   1.531   5.132  0.0667 -0.0156  0.1156
    1AU       S  170   0.411   1.723   5.768 -0.2170 -0.0356 -0.3368
    1AU     LIG  171   0.203   1.405   5.711  0.3197  0.1161 -0.2168
    1AU     LIG  172  -0.168   1.227   5.497  0.0003  0.1059 -0.7726
    1AU    AUSL  173   1.659   2.118   5.268  0.0184  0.0316  0.0622
    1AU    AUSL  174   1.654   1.876   5.414  0.0980 -0.0756  0.0209
    1AU     AUL  175   1.822   2.138   5.139  0.0029 -0.0372 -0.0726
    1AU       S  176   2.033   1.493   5.153  0.2295  0.0546 -0.1078
    1AU     LIG  177   2.432   1.588   5.090  0.1783  0.2682 -0.3039
    1AU     LIG  178   2.936   1.400   5.089 -0.1155  0.0706  0.0444
    1AU       S  179   2.053   2.033   4.753  0.1206 -0.0896  0.0736
    1AU     LIG  180   2.398   1.998   4.642 -0.2382  0.2489  0.0638
    1AU     LIG  181   2.821   1.938   4.794  0.0210 -0.2325 -0.2546
    1AU    AUSL  182   1.743   2.355   5.354  0.0341 -0.0731  0.0280
    1AU    AUSL  183   1.653   2.350   5.088  0.0363 -0.0233 -0.0272
    1AU     AUL  184   1.855   2.459   5.390 -0.0453  0.0761 -0.0127
    1AU       S  185   2.210   2.561   5.035 -0.2182  0.0989  0.0879
    1AU     LIG  186   2.626   2.430   4.907 -0.1683  0.0180 -0.0499
    1AU     LIG  187   2.970   2.319   5.163 -0.2249 -0.1321 -0.2653
    1AU       S  188   1.808   2.474   4.646  0.3432 -0.3574 -0.0203
    1AU     LIG  189   1.867   2.574   4.224  0.0398 -0.1548  0.0476
    1AU     LIG  190   2.061   2.345   3.781  0.0332  0.0630  0.3058
    1AU    AUSL  191   1.962   2.202   5.370 -0.0209  0.0535 -0.1083
    1AU    AUSL  192   1.950   2.334   5.630  0.0690  0.0978  0.1267
    1AU     AUL  193   1.905   1.968   5.355 -0.1141 -0.0350  0.0011
    1AU       S  194   2.479   2.393   5.703  0.3393  0.0804  0.2882
    1AU     LIG  195   2.581   2.649   5.350  0.5959 -0.0059 -0.1877
    1AU     LIG  196   2.861   3.108   5.049  0.0344 -0.1434 -0.0586
    1AU       S  197   2.365   2.129   5.200 -0.1309  0.2194  0.1122
    1AU     LIG  198   2.756   1.996   5.508  0.0356 -0.1341 -0.3086
    1AU     LIG  199   3.106   2.280   5.667 -0.0372  0.1706  0.2187
    1AU    AUSL  200   1.037   2.235   6.058  0.0436  0.0364 -0.0290
    1AU    AUSL  201   1.117   1.929   5.873  0.0069  0.0002 -0.0688
    1AU     AUL  202   1.177   1.744   6.033 -0.0871 -0.0813  0.0230
    1AU       S  203   0.784   2.239   6.422  0.2474 -0.0583  0.0373
    1AU     LIG  204   0.768   2.218   6.884  0.0160 -0.0318  0.1651
    1AU     LIG  205   0.691   2.480   7.284  0.0852 -0.2608 -0.2673
    1AU       S  206   1.776   1.560   6.536  0.0038 -0.0908  0.1415
    1AU     LIG  207   2.049   1.347   6.755  0.1517  0.2074  0.2248
    1AU     LIG  208   2.431   1.433   6.628 -0.2427  0.3048  0.0297
    1AU    AUSL  209   1.012   2.220   5.783  0.0065  0.1172  0.0068
    1AU    AUSL  210   1.267   2.340   5.967  0.0430 -0.0518  0.0442
    1AU     AUL  211   0.821   2.417   5.769 -0.0413 -0.0808  0.0231
    1AU       S  212   0.636   2.445   6.261 -0.1268  0.2283 -0.3081
    1AU     LIG  213   0.219   2.609   6.341  0.4878  0.0904  0.1135
    1AU     LIG  214  -0.068   2.309   6.313 -0.2398 -0.0731  0.1315
    1AU       S  215   1.077   2.731   6.415 -0.2656  0.0592  0.0430
    1AU     LIG  216   0.675   2.665   6.724  0.0263 -0.3597  0.0544
    1AU     LIG  217   0.382   2.969   6.826  0.0808  0.2977  0.0545
    1AU    AUSL  218   1.760   2.219   5.832 -0.0202  0.1010  0.0588
    1AU    AUSL  219   1.692   2.433   5.629  0.0367 -0.0641  0.0559
    1AU     AUL  220   1.929   2.222   5.844 -0.0009  0.1198 -0.0254
    1AU       S  221   2.205   2.797   5.604 -0.1442  0.2254 -0.1534
    1AU     LIG  222   2.365   3.050   5.155 -0.0711  0.0331  0.0659
    1AU     LIG  223   2.592   2.886   4.725 -0.1169 -0.1618  0.3252
    1AU       S  224   2.693   2.393   5.845  0.2193  0.0909 -0.3099
    1AU     LIG  225   2.927   2.759   5.802  0.0194 -0.0332  0.2863
    1AU     LIG  226   2.944   3.113   5.988  0.3240  0.3226  0.0747
    1AU    AUSL  227   1.800   2.095   5.581 -0.0007  0.0234 -0.0160
    1AU    AUSL  228   1.854   1.948   5.819 -0.1541  0.0133  0.0295
    1AU     AUL  229   2.009   2.062   5.609 -0.0028 -0.0525  0.0083
    1AU       S  230   2.233   1.554   5.891 -0.3331 -0.3022  0.2569
    1AU     LIG  231   2.572   1.269   6.006 -0.2186 -0.0481 -0.0599
    1AU     LIG  232   2.929   1.065   5.941 -0.1330 -0.0463 -0.1242
    1AU       S  233   2.438   2.181   5.790  0.1114 -0.5258  0.1232
    1AU     LIG  234   2.927   1.955   6.006  0.0584 -0.0042  0.7107
    1AU     LIG  235   3.184   1.936   6.355  0.2676  0.0630 -0.1714
    1AU    AUSL  236   1.238   1.712   5.330 -0.0110  0.0258  0.0205
    1AU    AUSL  237   1.684   1.885   5.135 -0.0567  0.0229  0.0586
    1AU     AUL  238   1.372   1.917   4.930 -0.0163 -0.0049 -0.0179
    1AU       S  239   1.835   1.615   4.718  0.2570 -0.2083  0.2764
    1AU     LIG  240   1.651   1.464   4.417  0.5169 -0.1473 -0.2195
    1AU     LIG  241   1.291   1.655   4.345 -0.1223 -0.2366  0.0863
    1AU       S  242   1.023   1.329   5.109  0.0191 -0.0365  0.2233
    1AU     LIG  243   0.902   0.942   5.181 -0.0418  0.2018  0.2128
    1AU     LIG  244   1.005   0.523   5.021  0.1073  0.4424 -0.1557
    1AU    AUSL  245   1.417   1.960   5.211 -0.0125 -0.0272  0.0440
    1AU    AUSL  246   1.197   2.101   5.066  0.0360  0.0007  0.0484
    1AU     AUL  247   1.569   2.102   5.000  0.0441 -0.0138 -0.0458
    1AU       S  248   1.062   1.251   4.811  0.2058  0.2188 -0.1072
    1AU     LIG  249   1.127   0.935   4.705  0.1910 -0.3140  0.0082
    1AU     LIG  250   1.427   0.549   4.696  0.3957 -0.0966 -0.1805
    1AU       S  251   0.831   2.287   4.690  0.0134 -0.0523  0.2952
    1AU     LIG  252   0.439   2.401   4.791  0.3892  0.2990  0.2216
    1AU     LIG  253   0.102   2.627   4.548  0.1593  0.1315 -0.1959
    1AU    AUSL  254   1.169   1.810   5.084  0.0578 -0.0131  0.0830
    1AU    AUSL  255   0.927   1.787   5.404 -0.0458  0.0869  0.0189
    1AU     AUL  256   0.938   2.009   5.155  0.0347  0.0069 -0.0525
    1AU       S  257   0.570   1.599   5.280 -0.0252  0.1027  0.1483
    1AU     LIG  258   0.174   1.893   5.170 -0.2147  0.3102  0.2323
    1AU     LIG  259  -0.194   2.019   5.226 -0.2126 -0.2399 -0.0849
    1AU       S  260   0.863   1.591   4.881  0.0552 -0.1098 -0.1652
    1AU     LIG  261   0.566   1.321   4.790  0.2555  0.1668  0.1013
    1AU     LIG  262   0.248   1.350   4.555 -0.1101 -0.3150 -0.0362
    1AU    AUSL  263   1.625   1.950   5.963  0.0010  0.0914  0.0189
    1AU    AUSL  264   1.346   1.964   6.019  0.0594 -0.0348 -0.0319
    1AU     AUL  265   1.344   1.927   6.256 -0.0788 -0.0639 -0.0115
    1AU       S  266   2.526   1.753   6.282  0.0966 -0.0275 -0.0001
    1AU     LIG  267   2.915   1.514   6.309  0.3572  0.0911 -0.0470
    1AU     LIG  268   3.235   1.275   6.553  0.1683 -0.3436 -0.0991
    1AU       S  269   1.468   1.555   6.547  0.0236 -0.1166 -0.0709
    1AU     LIG  270   1.631   1.076   6.687  0.2860  0.1462  0.1286
    1AU     LIG  271   2.019   0.790   6.622 -0.1946 -0.0461 -0.1377
    1AU    AUSL  272   1.826   2.103   6.077 -0.0879  0.0468 -0.0413
    1AU    AUSL  273   1.621   1.792   5.726 -0.0796  0.0782  0.0007
    1AU     AUL  274   1.593   1.918   6.138  0.0711  0.0222  0.0222
    1AU       S  275   2.152   1.958   6.267 -0.2638 -0.1913 -0.7880
    1AU     LIG  276   2.146   1.883   6.728 -0.0090  0.2595 -0.2870
    1AU     LIG  277   2.370   1.670   7.081  0.0837  0.0216  0.2975
    1AU       S  278   2.423   1.703   5.742  0.3626  0.3565  0.2347
    1AU     LIG  279   2.797   1.412   5.594 -0.2217  0.1198 -0.2204
    1AU     LIG  280   3.005   0.974   5.485  0.0881 -0.0489 -0.3494
    1AU    AUSL  281   1.523   2.196   6.047  0.0935  0.0142  0.1125
    1AU    AUSL  282   1.735   2.363   6.074 -0.0625 -0.0583  0.0141
    1AU     AUL  283   1.533   2.139   6.332  0.0551  0.1017 -0.0314
    1AU       S  284   1.996   2.507   6.435 -0.0584 -0.3836 -0.0118
    1AU     LIG  285   2.433   2.568   6.251  0.1762 -0.2924 -0.2240
    1AU     LIG  286   2.766   2.772   6.317  0.1515  0.3884 -0.1540
    1AU       S  287   2.510   2.039   6.268  0.2109 -0.4614 -0.0205
    1AU     LIG  288   2.817   2.290   6.386 -0.0102  0.0020 -0.0548
    1AU     LIG  289   3.140   2.431   6.632 -0.2883 -0.1004 -0.0221
    1AU    AUSL  290   1.172   2.382   5.096 -0.0465  0.0543  0.0932
    1AU    AUSL  291   1.075   2.234   5.298  0.0314  0.0461  0.0271
    1AU     AUL  292   0.793   2.250   5.209  0.0344 -0.0076  0.0570
    1AU       S  293   0.947   2.604   4.768  0.1757  0.0260 -0.2703
    1AU     LIG  294   1.033   3.032   4.731 -0.0256  0.1745 -0.2965
    1AU     LIG  295   1.199   3.325   4.626 -0.2477  0.1369 -0.2532
    1AU       S  296   0.356   2.970   5.444 -0.1232  0.2379 -0.2999
    1AU     LIG  297   0.122   3.248   5.410 -0.0782 -0.0247 -0.5336
    1AU     LIG  298  -0.270   3.292   5.646  0.2796  0.0485  0.0543
    1AU    AUSL  299   1.418   2.252   5.173  0.0050  0.0537  0.0522
    1AU    AUSL  300   1.423   2.512   5.067 -0.0240  0.0212  0.0205
    1AU     AUL  301   1.384   2.219   4.835 -0.1065 -0.0671 -0.0107
    1AU       S  302   0.791   2.600   4.527 -0.2810 -0.0984 -0.1165
    1AU     LIG  303   0.561   2.987   4.601 -0.2725  0.2844 -0.1269
    1AU     LIG  304   0.344   3.223   4.571  0.3280 -0.0384 -0.2208
    1AU       S  305   1.669   2.760   4.718  0.3611 -0.5836  0.3821
    1AU     LIG  306   2.055   2.886   4.538  0.2291 -0.0353  0.1514
    1AU     LIG  307   2.421   3.197   4.382  0.3769  0.0318 -0.1159
    1AU    AUSL  308   1.530   2.433   5.890 -0.0266 -0.0178  0.0556
    1AU    AUSL  309   1.828   2.499   5.855  0.0667  0.1279  0.1079
    1AU     AUL  310   1.558   2.680   6.068  0.0222 -0.0197 -0.1518
    1AU       S  311   2.145   2.796   5.871 -0.1216  0.1645  0.4729
    1AU     LIG  312   1.882   3.091   6.176  0.0999  0.1193 -0.3056
    1AU     LIG  313   2.029   3.276   6.606 -0.1259  0.2740  0.0924
    1AU       S  314   1.861   2.584   6.726  0.0719  0.0757 -0.1473
    1AU     LIG  315   1.785   2.197   6.976 -0.4065  0.0952  0.0805
    1AU     LIG  316   1.583   2.113   7.485 -0.0186  0.0054  0.1486
    1AU    AUSL  317   1.277   2.183   6.177 -0.0314 -0.1035  0.0430
    1AU    AUSL  318   1.326   2.623   5.913  0.0883 -0.0460 -0.1452
    1AU     AUL  319   1.479   2.416   6.206  0.0455 -0.0369 -0.0036
    1AU       S  320   2.034   2.764   6.553  0.0426 -0.2922  0.1919
    1AU     LIG  321   2.298   2.905   6.823  0.2318 -0.4529  0.1028
    1AU     LIG  322   2.331   3.042   7.251 -0.0271 -0.1490 -0.1870
    1AU       S  323   1.179   2.953   6.231 -0.0724 -0.1210 -0.0309
    1AU     LIG  324   1.431   3.415   6.293 -0.1924  0.0152  0.2436
    1AU     LIG  325   1.664   3.574   6.606 -0.1191  0.2704  0.0891
    2POPC   NC3  326   3.015   8.442   7.995  0.0003  0.1788 -0.2302
    2POPC   PO4  327   3.083   8.462   7.597  0.1242 -0.1152  0.2244
    2POPC   GL1  328   3.345   8.739   7.340  0.0410  0.1733 -0.3817
    2POPC   GL2  329   3.268   9.122   7.531  0.1090  0.0576 -0.0397
    2POPC   C1A  330   3.424   8.752   6.905  0.1313  0.2535 -0.1001
    2POPC   D2A  331   3.130   8.746   6.489 -0.1132  0.0289 -0.0892
    2POPC   C3A  332   3.053   8.614   6.087 -0.1795  0.1598  0.2471
    2POPC   C4A  333   2.837   8.888   5.774  0.4828  0.2551 -0.1031
    2POPC   C1B  334   3.051   9.021   7.121  0.0927 -0.3010  0.1893
    2POPC   C2B  335   3.257   9.207   6.667  0.0339  0.0075 -0.2154
    2POPC   C3B  336   3.491   9.026   6.322  0.1038 -0.1095  0.0079
    2POPC   C4B  337   3.930   8.770   6.527  0.0159 -0.1947 -0.1813
    3POPC   NC3  338   7.984   5.396   8.162  0.0263  0.1428 -0.0894
    3POPC   PO4  339   8.427   5.373   8.104 -0.2775  0.2010 -0.3496
    3POPC   GL1  340   8.199   5.381   7.690 -0.0180 -0.0366 -0.0301
    3POPC   GL2  341   8.161   5.096   7.691  0.1970  0.0170  0.0243
    3POPC   C1A  342   8.196   5.375   7.218 -0.1675  0.2195  0.2520
    3POPC   D2A  343   7.977   5.444   6.960  0.0815 -0.1203  0.5850
    3POPC   C3A  344   7.972   5.414   6.587 -0.1424  0.1451 -0.1148
    3POPC   C4A  345   8.133   5.271   6.252 -0.4100 -0.0718 -0.2417
    3POPC   C1B  346   8.060   4.832   7.409 -0.2727 -0.0377 -0.1916
    3POPC   C2B  347   7.993   4.947   7.040  0.2028  0.3159  0.0441
    3POPC   C3B  348   7.979   4.915   6.667  0.1243  0.1937 -0.1419
    3POPC   C4B  349   8.164   4.791   6.239  0.1546 -0.0761  0.3768
    4POPC   NC3  350   8.806   0.614   7.731  0.1179  0.0246  0.0548
    4POPC   PO4  351   8.583   1.054   7.801  0.1502 -0.0486  0.0685
    4POPC   GL1  352   8.932   1.042   7.466  0.1971  0.2185  0.3842
    4POPC   GL2  353   9.223   0.777   7.496  0.0403 -0.2677  0.2980
    4POPC   C1A  354   8.954   1.061   6.984 -0.1225  0.3493 -0.1152
    4POPC   D2A  355   8.815   1.357   6.633  0.4456 -0.0050  0.1326
    4POPC   C3A  356   9.030   1.396   6.252 -0.1598  0.1832 -0.0264
    4POPC   C4A  357   9.468   1.464   6.218  0.1321  0.1090 -0.2243
    4POPC   C1B  358   9.030   0.637   7.148  0.0158  0.1428  0.0099
    4POPC   C2B  359   8.881   0.734   6.636 -0.2419 -0.3589  0.5583
    4POPC   C3B  360   8.916   0.736   6.194 -0.0560 -0.4771  0.1867
    4POPC   C4B  361   9.109   0.682   5.727  0.2298  0.0204  0.0553
    5POPC   NC3  362   9.713   7.802   7.726  0.0548  0.2107  0.1704
    5POPC   PO4  363   9.282   7.678   7.736  0.0524  0.0886  0.1552
    5POPC   GL1  364   9.097   7.412   7.374 -0.2201  0.2284 -0.1725
    5POPC   GL2  365   9.044   6.972   7.441 -0.3577 -0.0832  0.1771
    5POPC   C1A  366   9.188   7.356   6.872 -0.0449 -0.0523  0.0060
    5POPC   D2A  367   9.258   7.433   6.421  0.0302 -0.0743 -0.4387
    5POPC   C3A  368   9.640   7.324   6.235  0.0150 -0.0625 -0.3499
    5POPC   C4A  369   9.815   6.995   6.010  0.6060  0.0240 -0.1377
    5POPC   C1B  370   9.051   6.918   6.979 -0.3374 -0.4380  0.0992
    5POPC   C2B  371   9.205   6.954   6.542  0.0594 -0.0117  0.3652
    5POPC   C3B  372   9.357   6.843   6.122 -0.1506  0.1105 -0.0359
    5POPC   C4B  373   9.625   6.494   6.026  0.0597 -0.2339 -0.1798
    6POPC   NC3  374   3.996   5.825   7.921  0.0076 -0.1122  0.4138
    6POPC   PO4  375   3.676   6.015   7.819  0.1182 -0.1755  0.2898
    6POPC   GL1  376   3.804   6.250   7.435  0.0664  0.0009 -0.2450
    6POPC   GL2  377   4.047   5.987   7.282  0.1318  0.0828  0.0634
    6POPC   C1A  378   3.695   6.299   7.011 -0.1187 -0.1800  0.2230
    6POPC   D2A  379   3.597   6.137   6.623  0.0012  0.0233 -0.0384
    6POPC   C3A  380   3.275   5.861   6.474  0.0883 -0.0456  0.0194
    6POPC   C4A  381   2.862   5.712   6.372  0.0011  0.0322 -0.0263
    6POPC   C1B  382   4.227   6.245   6.911  0.2900  0.1035 -0.0161
    6POPC   C2B  383   4.195   6.296   6.423  0.2037 -0.1712 -0.0548
    6POPC   C3B  384   3.810   6.363   6.216 -0.2436  0.2283 -0.3327
    6POPC   C4B  385   3.288   6.299   6.173 -0.2962 -0.0834 -0.0390
    7POPC   NC3  386   8.700   5.730   8.313 -0.1452  0.2608  0.1472
    7POPC   PO4  387   8.818   6.184   8.233 -0.2385  0.0335  0.2679
    7POPC   GL1  388   8.938   5.880   7.824 -0.0819 -0.0907 -0.2882
    7POPC   GL2  389   8.720   5.533   7.737  0.0939 -0.1228 -0.1366
    7POPC   C1A  390   9.284   6.015   7.568  0.1136  0.1599  0.0560
    7POPC   D2A  391   9.465   5.898   7.130  0.0837 -0.2852 -0.1899
    7POPC   C3A  392   9.362   6.132   6.777 -0.4180 -0.2054  0.2659
    7POPC   C4A  393   9.293   6.480   6.465 -0.0141  0.0772 -0.1165
    7POPC   C1B  394   8.780   5.774   7.377  0.0209 -0.0142 -0.2274
    7POPC   C2B  395   8.889   5.950   7.073 -0.3899  0.2222 -0.0127
    7POPC   C3B  396   8.972   5.831   6.602 -0.0993  0.0672  0.4217
    7POPC   C4B  397   9.026   6.085   6.336  0.3554  0.4205  0.0803
    8POPC   NC3  398   2.586  10.513   8.876  0.1313  0.1775 -0.0726
    8POPC   PO4  399   2.698  10.514   8.436  0.2527  0.0953 -0.0489
    8POPC   GL1  400   2.791  10.748   8.028 -0.1197  0.0622  0.3166
    8POPC   GL2  401   2.822  10.387   7.718  0.1788 -0.0124 -0.1381
    8POPC   C1A  402   2.776  10.903   7.615  0.1521 -0.1199  0.3474
    8POPC   D2A  403   2.716  11.057   7.138 -0.1151  0.0536  0.2180
    8POPC   C3A  404   2.811  11.378   7.354 -0.1010  0.1483 -0.4904
    8POPC   C4A  405   3.018  11.450   7.736 -0.2512  0.1657 -0.2066
    8POPC   C1B  406   2.939  10.525   7.253 -0.1031 -0.1242  0.1996
    8POPC   C2B  407   2.990  10.722   6.845  0.1916 -0.1636 -0.0496
    8POPC   C3B  408   3.200  10.648   6.423  0.2365 -0.0810  0.1990
    8POPC   C4B  409   3.209  10.595   5.965  0.1238  0.0937 -0.1770
    9POPC   NC3  410   4.184   0.134   8.102  0.2244  0.2164 -0.0051
    9POPC   PO4  411   4.598  -0.173   7.978 -0.1761 -0.2358 -0.1258
    9POPC   GL1  412   4.452   0.033   7.585 -0.2068  0.2196 -0.1000
    9POPC   GL2  413   4.203   0.227   7.511  0.0404 -0.1699  0.3896
    9POPC   C1A  414   4.762   0.214   7.269 -0.1075 -0.3551 -0.0139
    9POPC   D2A  415   4.863   0.518   6.859 -0.1063  0.0189 -0.0821
    9POPC   C3A  416   4.974   0.333   6.532  0.1213 -0.2213  0.1881
    9POPC   C4A  417   4.963   0.478   6.140  0.0841  0.0059 -0.0492
    9POPC   C1B  418   4.323   0.250   6.993 -0.2114  0.2047  0.0359
    9POPC   C2B  419   4.461   0.209   6.581 -0.1111 -0.1633 -0.0940
    9POPC   C3B  420   4.542   0.228   6.111 -0.4045 -0.3174  0.1056
    9POPC   C4B  421   4.806   0.081   5.862  0.0067 -0.2113 -0.1845
   10POPC   NC3  422   4.865   8.497   8.055 -0.0866  0.1399  0.0787
   10POPC   PO4  423   5.087   8.494   7.617 -0.2169 -0.1461  0.2307
   10POPC   GL1  424   5.059   8.459   7.215  0.0550  0.1776  0.0722
   10POPC   GL2  425   4.765   8.717   7.078 -0.1401  0.1184  0.0120
   10POPC   C1A  426   5.166   8.180   6.882 -0.2755  0.3616  0.0937
   10POPC   D2A  427   5.088   7.829   6.533 -0.1619  0.0310  0.0867
   10POPC   C3A  428   5.181   7.402   6.557 -0.3210  0.0773  0.2309
   10POPC   C4A  429   5.548   7.106   6.707 -0.1947 -0.0750  0.0078
   10POPC   C1B  430   4.943   8.604   6.703  0.2811 -0.0826 -0.0778
   10POPC   C2B  431   4.941   8.274   6.385  0.1615  0.0219 -0.2988
   10POPC   C3B  432   4.594   8.014   6.219 -0.1118  0.3592 -0.0962
   10POPC   C4B  433   4.233   7.828   5.951  0.1571 -0.2889  0.1856
   11POPC   NC3  434   3.164   9.998   7.790 -0.0159 -0.1715 -0.0247
   11POPC   PO4  435   2.721   9.936   7.790 -0.1017  0.2491 -0.2473
   11POPC   GL1  436   2.795   9.952   7.360 -0.2473 -0.0489 -0.1852
   11POPC   GL2  437   2.674   9.795   7.159  0.1963  0.1267  0.0672
   11POPC   C1A  438   3.157  10.064   7.128 -0.2129  0.2062  0.0154
   11POPC   D2A  439   3.199  10.259   6.777 -0.1320 -0.0877  0.1058
   11POPC   C3A  440   3.179  10.153   6.373 -0.0454 -0.1092 -0.0519
   11POPC   C4A  441   2.832  10.389   6.216  0.0310 -0.2284  0.0173
   11POPC   C1B  442   2.712  10.099   6.824 -0.1931  0.2401 -0.0314
   11POPC   C2B  443   2.602  10.006   6.419  0.0134  0.2092 -0.1650
   11POPC   C3B  444   2.306   9.847   6.076 -0.2982  0.0252 -0.3946
   11POPC   C4B  445   2.135  10.055   5.787  0.0183  0.1510 -0.1357
   12POPC   NC3  446   5.969  10.269   7.788 -0.0507 -0.0979  0.1628
   12POPC   PO4  447   6.261   9.945   7.741 -0.2504 -0.0444 -0.2227
   12POPC   GL1  448   6.117   9.986   7.372 -0.1087 -0.0357  0.0837
   12POPC   GL2  449   5.872  10.208   7.298 -0.1466  0.1111  0.0210
   12POPC   C1A  450   6.233   9.826   7.013  0.1005  0.1506  0.3102
   12POPC   D2A  451   6.286   9.813   6.627  0.0527 -0.5124  0.0161
   12POPC   C3A  452   6.223  10.208   6.512 -0.0872  0.1721  0.0594
   12POPC   C4A  453   5.987  10.498   6.545 -0.2422  0.4035  0.0857
   12POPC   C1B  454   6.228  10.383   7.002 -0.0505 -0.0406  0.3864
   12POPC   C2B  455   6.626  10.388   6.744 -0.2406  0.1218  0.0164
   12POPC   C3B  456   6.742  10.487   6.295 -0.0421  0.2197 -0.4864
   12POPC   C4B  457   7.152  10.446   6.120 -0.2033 -0.1174  0.1002
   13POPC   NC3  458   2.555   4.812   8.443 -0.2361 -0.3334 -0.0796
   13POPC   PO4  459   2.295   4.595   8.150  0.1182  0.0326  0.4816
   13POPC   GL1  460   2.273   4.418   7.743  0.1332  0.1708 -0.0657
   13POPC   GL2  461   2.503   4.230   7.685  0.3328  0.1843 -0.0888
   13POPC   C1A  462   2.298   4.567   7.318 -0.0879 -0.1197 -0.0719
   13POPC   D2A  463   2.110   4.449   6.979 -0.0622 -0.0211  0.2401
   13POPC   C3A  464   2.171   4.488   6.470 -0.1829 -0.0296 -0.0036
   13POPC   C4A  465   2.600   4.356   6.346 -0.2632 -0.0746 -0.0679
   13POPC   C1B  466   2.538   4.114   7.225  0.0305  0.0533  0.0173
   13POPC   C2B  467   2.679   4.062   6.797 -0.0243  0.0476 -0.0035
   13POPC   C3B  468   3.089   3.896   6.561  0.3121 -0.1272  0.1477
   13POPC   C4B  469   2.956   3.506   6.250  0.1107  0.0772  0.0659
   14POPC   NC3  470   9.094   3.223   7.595  0.1285  0.2134 -0.0126
   14POPC   PO4  471   8.758   3.314   7.852 -0.0880 -0.3685  0.0076
   14POPC   GL1  472   8.633   3.450   7.501 -0.3724  0.2296  0.3542
   14POPC   GL2  473   8.718   3.180   7.194  0.0573 -0.2087 -0.1504
   14POPC   C1A  474   8.653   3.748   7.078  0.1473  0.3903  0.0292
   14POPC   D2A  475   8.508   3.629   6.657  0.2016  0.2575 -0.2456
   14POPC   C3A  476   8.052   3.470   6.683 -0.1149  0.0189 -0.0843
   14POPC   C4A  477   7.777   3.142   6.501  0.0321  0.2227 -0.3390
   14POPC   C1B  478   8.904   3.336   6.812 -0.1930  0.1217  0.1458
   14POPC   C2B  479   8.790   3.350   6.334  0.0803 -0.0999  0.0462
   14POPC   C3B  480   8.624   3.497   6.012  0.1283  0.1706  0.2764
   14POPC   C4B  481   8.736   3.263   5.632 -0.5122 -0.2225  0.0881
   15POPC   NC3  482   3.458   1.148   8.658  0.1856 -0.1283 -0.2842
   15POPC   PO4  483   3.069   1.329   8.485  0.0396  0.0210 -0.2449
   15POPC   GL1  484   3.140   1.294   7.965 -0.1929 -0.2993  0.4093
   15POPC   GL2  485   3.458   1.266   7.758 -0.3086  0.1850 -0.1279
   15POPC   C1A  486   2.939   1.346   7.647  0.2634  0.2898  0.1108
   15POPC   D2A  487   2.790   1.427   7.356  0.1388 -0.0257  0.1082
   15POPC   C3A  488   2.440   1.164   7.198 -0.2453  0.1345  0.1687
   15POPC   C4A  489   2.052   1.174   7.268 -0.1775  0.1322  0.0675
   15POPC   C1B  490   3.811   1.282   7.381  0.4064 -0.1302 -0.2249
   15POPC   C2B  491   3.621   1.145   6.971  0.2014  0.0100  0.2366
   15POPC   C3B  492   3.408   0.851   6.752  0.3337 -0.0811 -0.1093
   15POPC   C4B  493   3.063   0.665   6.811 -0.1890 -0.2126 -0.0511
   16POPC   NC3  494   7.879   8.640   7.708 -0.2528 -0.1766  0.2505
   16POPC   PO4  495   8.145   9.032   7.805 -0.0161  0.0375 -0.0030
   16POPC   GL1  496   8.296   9.106   7.498  0.0598 -0.1668  0.2120
   16POPC   GL2  497   8.412   8.796   7.278 -0.0666  0.1302  0.0675
   16POPC   C1A  498   8.259   9.442   7.129 -0.3383  0.3544 -0.1190
   16POPC   D2A  499   8.146   9.364   6.729  0.1096  0.0483 -0.3923
   16POPC   C3A  500   8.264   9.023   6.617 -0.0586  0.0892 -0.2336
   16POPC   C4A  501   8.278   8.752   6.426  0.3203  0.3152  0.0083
   16POPC   C1B  502   7.985   9.000   7.053 -0.1674  0.3276 -0.3731
   16POPC   C2B  503   7.648   9.096   6.671  0.0006  0.2509  0.0422
   16POPC   C3B  504   7.687   9.356   6.306 -0.0957  0.1729 -0.1217
   16POPC   C4B  505   7.438   9.453   5.997  0.3462 -0.0694  0.0609
   17POPC   NC3  506   4.038   9.189   8.137  0.1218 -0.1792  0.0794
   17POPC   PO4  507   4.376   9.258   7.753  0.3037  0.1916 -0.2244
   17POPC   GL1  508   4.244   9.344   7.279  0.0532 -0.3133  0.1327
   17POPC   GL2  509   4.400   9.681   7.214  0.2328 -0.1893  0.1733
   17POPC   C1A  510   4.183   9.318   6.901 -0.4958 -0.1487  0.0760
   17POPC   D2A  511   3.796   9.462   6.614 -0.0644 -0.0218 -0.1906
   17POPC   C3A  512   3.568   9.801   6.754 -0.0362 -0.0204  0.0620
   17POPC   C4A  513   3.656  10.009   7.089  0.1101 -0.2078 -0.0937
   17POPC   C1B  514   4.094   9.836   6.885 -0.3866 -0.0422 -0.2195
   17POPC   C2B  515   3.933   9.974   6.471  0.1651  0.2969 -0.1372
   17POPC   C3B  516   4.145  10.361   6.272  0.3618  0.1612 -0.0987
   17POPC   C4B  517   4.117  10.708   5.898 -0.1049  0.1460  0.0711
   18POPC   NC3  518   7.305   3.686   8.480  0.1238 -0.0862 -0.3992
   18POPC   PO4  519   6.870   3.558   8.225 -0.1210 -0.1365  0.0264
   18POPC   GL1  520   7.050   3.456   7.851  0.1498 -0.0192  0.0837
   18POPC   GL2  521   7.317   3.701   7.677 -0.3100  0.0011 -0.1601
   18POPC   C1A  522   7.009   3.434   7.354 -0.1072 -0.3421  0.1023
   18POPC   D2A  523   6.983   3.121   7.050 -0.4516 -0.0741  0.1232
   18POPC   C3A  524   7.058   3.221   6.582  0.2241 -0.4101 -0.4397
   18POPC   C4A  525   7.000   3.287   6.118 -0.0376 -0.1151  0.2544
   18POPC   C1B  526   7.234   3.911   7.268 -0.0800  0.2985  0.1224
   18POPC   C2B  527   7.073   3.690   6.873  0.1121  0.4162 -0.4668
   18POPC   C3B  528   6.816   3.770   6.593  0.0686 -0.3288  0.1334
   18POPC   C4B  529   6.770   3.665   6.161  0.0878 -0.2294 -0.0838
   19POPC   NC3  530   0.764   2.525   8.745  0.2430 -0.2050 -0.0702
   19POPC   PO4  531   0.813   3.010   8.745 -0.2764 -0.2258  0.0172
   19POPC   GL1  532   1.157   2.870   8.510  0.1399 -0.0752 -0.0240
   19POPC   GL2  533   1.300   2.579   8.399  0.0207 -0.0166 -0.0956
   19POPC   C1A  534   1.504   2.925   8.118  0.3546  0.1418  0.1815
   19POPC   D2A  535   1.785   3.002   7.834  0.1712 -0.0323  0.2799
   19POPC   C3A  536   1.628   3.283   7.643 -0.2264  0.1334  0.0241
   19POPC   C4A  537   1.383   3.249   7.342 -0.2015  0.1226 -0.1915
   19POPC   C1B  538   1.431   2.423   7.987 -0.0514 -0.0114 -0.2738
   19POPC   C2B  539   1.457   2.576   7.634 -0.1283 -0.1031 -0.0982
   19POPC   C3B  540   1.460   2.558   7.180 -0.0925 -0.0971  0.1194
   19POPC   C4B  541   1.190   2.364   6.743 -0.1213  0.1624  0.1211
   20POPC   NC3  542   4.540   1.128   7.905  0.2991 -0.2549 -0.1026
   20POPC   PO4  543   4.960   1.256   7.791  0.2543 -0.1045  0.0762
   20POPC   GL1  544   4.743   1.478   7.537 -0.1875 -0.1404 -0.1766
   20POPC   GL2  545   4.913   1.307   7.316 -0.2190 -0.0413  0.2334
   20POPC   C1A  546   4.502   1.534   7.170  0.0343  0.1720  0.1584
   20POPC   D2A  547   4.211   1.659   6.904  0.0380 -0.0424 -0.0705
   20POPC   C3A  548   4.109   1.742   6.498  0.0596 -0.0066 -0.2315
   20POPC   C4A  549   3.769   2.055   6.204 -0.2632  0.2081 -0.0332
   20POPC   C1B  550   5.208   1.479   7.071 -0.3249  0.0972  0.0355
   20POPC   C2B  551   5.397   1.746   6.695 -0.2306 -0.1533  0.0802
   20POPC   C3B  552   5.654   2.119   6.614 -0.1873 -0.3277  0.3547
   20POPC   C4B  553   5.993   2.154   6.336 -0.0300 -0.0027 -0.2619
   21POPC   NC3  554   0.136   6.530   8.239  0.0710 -0.1888 -0.0242
   21POPC   PO4  555   0.532   6.684   7.848 -0.1114 -0.0858 -0.2669
   21POPC   GL1  556   0.863   6.535   7.542  0.1666 -0.0525 -0.0973
   21POPC   GL2  557   1.290   6.642   7.661 -0.0596 -0.0540  0.0586
   21POPC   C1A  558   1.010   6.500   7.127 -0.1501  0.2117  0.3221
   21POPC   D2A  559   1.063   6.388   6.797  0.1155 -0.0055 -0.0307
   21POPC   C3A  560   1.297   6.056   6.630  0.0482 -0.1366  0.0980
   21POPC   C4A  561   1.190   5.944   6.221 -0.0816  0.2825  0.2808
   21POPC   C1B  562   1.526   6.517   7.226 -0.2990 -0.0004  0.1202
   21POPC   C2B  563   1.518   6.522   6.808  0.5794 -0.2581 -0.0541
   21POPC   C3B  564   1.701   6.800   6.507 -0.3289  0.3209 -0.3079
   21POPC   C4B  565   1.978   6.705   6.112  0.2551 -0.0095 -0.1787
   22POPC   NC3  566  10.252   5.744   8.339  0.3455  0.0879 -0.0901
   22POPC   PO4  567  10.405   5.293   8.151  0.0025 -0.0296  0.2369
   22POPC   GL1  568  10.767   5.493   7.920 -0.0978  0.1692  0.1172
   22POPC   GL2  569  10.905   5.163   7.799  0.2464  0.0024  0.1950
   22POPC   C1A  570  10.928   5.608   7.539 -0.4323 -0.0632  0.0582
   22POPC   D2A  571  11.068   5.585   7.062 -0.2491  0.1048  0.2169
   22POPC   C3A  572  11.274   5.219   6.952 -0.1543  0.2128  0.2239
   22POPC   C4A  573  11.315   4.854   6.579  0.1473  0.2705  0.0585
   22POPC   C1B  574  10.977   5.132   7.338  0.2182  0.1655  0.0973
   22POPC   C2B  575  10.705   5.151   7.013 -0.0604  0.1543  0.1658
   22POPC   C3B  576  10.474   5.188   6.639 -0.1607 -0.2462 -0.2288
   22POPC   C4B  577  10.385   5.485   6.270  0.0069 -0.5238  0.0622
   23POPC   NC3  578   2.851   4.547   8.045 -0.1831 -0.2579  0.1775
   23POPC   PO4  579   3.348   4.677   8.001 -0.1315  0.2600  0.1260
   23POPC   GL1  580   3.519   4.572   7.576  0.1607  0.2596  0.0836
   23POPC   GL2  581   3.687   4.313   7.700 -0.1900 -0.1078 -0.0036
   23POPC   C1A  582   3.666   4.695   7.202  0.1798 -0.0198  0.0011
   23POPC   D2A  583   3.481   4.499   6.765 -0.3140  0.2179 -0.0187
   23POPC   C3A  584   3.370   4.314   6.365  0.0861  0.0264  0.2407
   23POPC   C4A  585   3.331   4.000   6.140  0.2666 -0.2634 -0.0358
   23POPC   C1B  586   3.738   4.219   7.306 -0.1659 -0.1414 -0.1017
   23POPC   C2B  587   3.926   4.266   6.946 -0.0361  0.0924  0.0558
   23POPC   C3B  588   4.204   4.177   6.726 -0.3046 -0.1490 -0.0645
   23POPC   C4B  589   4.257   3.977   6.461  0.3593  0.0282  0.0481
   24POPC   NC3  590   6.285   1.035   8.215 -0.1146 -0.2538 -0.1411
   24POPC   PO4  591   6.358   0.715   8.080  0.0597  0.1620 -0.1250
   24POPC   GL1  592   6.119   0.895   7.694 -0.0810  0.1167  0.0271
   24POPC   GL2  593   5.959   0.575   7.496 -0.1414 -0.1659  0.0834
   24POPC   C1A  594   6.011   1.037   7.278  0.0263  0.0011 -0.5153
   24POPC   D2A  595   6.089   0.897   6.871  0.1735 -0.0206 -0.3215
   24POPC   C3A  596   6.230   1.305   6.568 -0.2902 -0.1694  0.0082
   24POPC   C4A  597   6.277   1.409   6.164  0.3717  0.1140  0.0672
   24POPC   C1B  598   5.689   0.666   7.138  0.2162 -0.3304  0.1309
   24POPC   C2B  599   5.353   0.543   6.838 -0.0146 -0.2341 -0.1161
   24POPC   C3B  600   5.466   0.440   6.357  0.4855  0.0243 -0.1955
   24POPC   C4B  601   5.694   0.127   6.192 -0.3914  0.0255  0.1678
   25POPC   NC3  602   4.400   5.204   8.442  0.2306  0.0293 -0.1001
   25POPC   PO4  603   4.102   5.246   7.978 -0.1826 -0.0051 -0.2845
   25POPC   GL1  604   4.174   5.422   7.631 -0.3713 -0.2548 -0.0174
   25POPC   GL2  605   3.886   5.591   7.504  0.0330 -0.1027 -0.2980
   25POPC   C1A  606   4.273   5.539   7.119  0.2296  0.0185  0.0283
   25POPC   D2A  607   4.319   5.798   6.789  0.0840 -0.1307 -0.0853
   25POPC   C3A  608   4.030   5.839   6.645  0.1052  0.2341  0.1290
   25POPC   C4A  609   3.857   5.841   6.182  0.3978  0.0436 -0.1236
   25POPC   C1B  610   3.780   5.648   7.058 -0.1627 -0.2293 -0.1116
   25POPC   C2B  611   3.685   5.482   6.589  0.0813 -0.0712 -0.0665
   25POPC   C3B  612   3.750   5.342   6.147 -0.1167 -0.5440  0.2573
   25POPC   C4B  613   4.240   5.416   5.826 -0.2882 -0.0264  0.1006
   26POPC   NC3  614   9.458   4.940   7.930  0.1681  0.0220  0.1443
   26POPC   PO4  615   9.299   4.532   8.040  0.3618  0.0607  0.0006
   26POPC   GL1  616   9.165   4.683   7.597 -0.2032 -0.0806 -0.0933
   26POPC   GL2  617   9.186   5.045   7.527  0.3906 -0.1255 -0.0700
   26POPC   C1A  618   8.955   4.678   7.297 -0.1988  0.1092 -0.0434
   26POPC   D2A  619   8.786   4.575   6.966  0.2496  0.0028  0.0396
   26POPC   C3A  620   8.933   4.470   6.525 -0.2713  0.0588 -0.0515
   26POPC   C4A  621   8.993   4.372   6.093 -0.1947  0.5199  0.2615
   26POPC   C1B  622   9.223   5.061   7.131 -0.0154  0.0459  0.2639
   26POPC   C2B  623   8.970   5.079   6.821  0.3231  0.1409  0.1660
   26POPC   C3B  624   9.014   5.359   6.437  0.2680 -0.2453  0.2086
   26POPC   C4B  625   8.719   5.372   6.259  0.0105  0.1768  0.2199
   27POPC   NC3  626   0.524   7.162   7.972  0.1797 -0.1003  0.0743
   27POPC   PO4  627   0.108   7.019   8.068  0.0786 -0.0292  0.1092
   27POPC   GL1  628   0.254   7.176   7.559  0.0731  0.5504 -0.3568
   27POPC   GL2  629   0.566   7.119   7.464 -0.1565  0.5006  0.2239
   27POPC   C1A  630   0.194   7.070   7.105 -0.1854 -0.1209 -0.1377
   27POPC   D2A  631   0.432   7.101   6.741 -0.1773 -0.1691 -0.1482
   27POPC   C3A  632   0.320   6.982   6.320  0.1419 -0.0574 -0.0112
   27POPC   C4A  633   0.410   6.688   5.983 -0.1806  0.1310 -0.0371
   27POPC   C1B  634   0.833   6.962   7.151  0.1564  0.0332  0.1029
   27POPC   C2B  635   0.882   6.847   6.746  0.1016 -0.2178  0.3015
   27POPC   C3B  636   0.755   6.787   6.354 -0.1738  0.1710  0.0473
   27POPC   C4B  637   0.803   6.987   5.894  0.2286 -0.1086  0.1344
   28POPC   NC3  638   7.708   7.517   7.757 -0.0288  0.0439 -0.3157
   28POPC   PO4  639   7.332   7.487   7.594  0.2684  0.0258  0.0680
   28POPC   GL1  640   7.282   7.393   7.146  0.0636 -0.1168 -0.1594
   28POPC   GL2  641   7.030   7.452   7.032  0.1007  0.4455 -0.2381
   28POPC   C1A  642   7.269   7.483   6.592 -0.3001  0.2100  0.0159
   28POPC   D2A  643   7.508   7.472   6.320  0.1731  0.1657  0.0132
   28POPC   C3A  644   7.922   7.312   6.352 -0.0194 -0.0001 -0.0484
   28POPC   C4A  645   8.316   7.194   6.303  0.0191 -0.2272 -0.2427
   28POPC   C1B  646   7.133   7.037   6.889  0.0256  0.2074 -0.0437
   28POPC   C2B  647   7.020   6.590   6.717 -0.0826  0.1782 -0.1019
   28POPC   C3B  648   6.742   6.341   6.515  0.1120  0.2105  0.1685
   28POPC   C4B  649   6.590   5.998   6.236  0.0324 -0.0684 -0.1340
   29POPC   NC3  650   9.999   0.728   7.967 -0.1275 -0.2215 -0.0643
   29POPC   PO4  651  10.410   0.489   7.815  0.1628 -0.2436  0.2719
   29POPC   GL1  652  10.777   0.767   7.629  0.2363  0.2242 -0.0307
   29POPC   GL2  653  10.913   0.481   7.541  0.2627  0.2068 -0.0326
   29POPC   C1A  654  11.056   0.848   7.273  0.2002  0.0236 -0.0209
   29POPC   D2A  655  11.524   1.018   7.218 -0.1610 -0.1818  0.1117
   29POPC   C3A  656  11.623   1.369   6.978  0.1714 -0.0548  0.2905
   29POPC   C4A  657  11.492   1.742   6.751  0.1718 -0.1102 -0.0919
   29POPC   C1B  658  10.996   0.329   7.167  0.2238  0.0563  0.0670
   29POPC   C2B  659  11.127   0.355   6.822 -0.3004 -0.0499 -0.0072
   29POPC   C3B  660  11.422   0.560   6.409  0.2216 -0.0826  0.0777
   29POPC   C4B  661  11.771   0.810   6.270  0.1733  0.0076  0.2948
   30POPC   NC3  662   7.880   5.833   7.902 -0.0167  0.0964 -0.1412
   30POPC   PO4  663   7.819   6.138   8.220  0.4010  0.0393 -0.0400
   30POPC   GL1  664   7.696   6.324   7.854  0.1343  0.1656 -0.0303
   30POPC   GL2  665   7.485   6.126   7.647  0.1867 -0.0756  0.2047
   30POPC   C1A  666   7.543   6.651   7.534 -0.0946 -0.0138  0.0814
   30POPC   D2A  667   7.273   6.605   7.162 -0.2542 -0.0150 -0.2785
   30POPC   C3A  668   6.864   6.483   7.285  0.0201  0.2268 -0.3027
   30POPC   C4A  669   6.421   6.493   7.346  0.2034  0.2967  0.0819
   30POPC   C1B  670   7.625   6.046   7.184  0.0263  0.0317 -0.2217
   30POPC   C2B  671   7.563   6.296   6.884 -0.0208  0.0833 -0.0296
   30POPC   C3B  672   7.556   6.554   6.488  0.0295 -0.1156  0.2831
   30POPC   C4B  673   7.768   6.753   6.172  0.0174  0.0194 -0.0701
   31POPC   NC3  674   8.606   2.314   7.680  0.0626  0.0785  0.2262
   31POPC   PO4  675   9.026   2.443   7.371  0.0227 -0.2320 -0.0059
   31POPC   GL1  676   8.937   2.208   6.976 -0.1445 -0.1674  0.1226
   31POPC   GL2  677   8.927   1.827   6.979  0.0021 -0.4730  0.2594
   31POPC   C1A  678   8.994   2.292   6.491 -0.0107 -0.0025  0.0932
   31POPC   D2A  679   8.897   2.201   5.969  0.0198  0.5091 -0.3425
   31POPC   C3A  680   8.682   2.438   5.785 -0.3241 -0.1838 -0.1892
   31POPC   C4A  681   8.222   2.590   5.853  0.0092  0.2648 -0.0004
   31POPC   C1B  682   9.197   1.759   6.602 -0.1578  0.1980  0.4639
   31POPC   C2B  683   9.256   1.964   6.186  0.0409  0.1041  0.0094
   31POPC   C3B  684   9.517   1.847   5.842 -0.1438 -0.0440  0.1173
   31POPC   C4B  685   9.844   2.132   5.608 -0.2670  0.0914  0.1136
   32POPC   NC3  686   3.961   4.783   7.788 -0.1593  0.0352  0.2381
   32POPC   PO4  687   4.190   4.309   7.867 -0.1911 -0.1450  0.1379
   32POPC   GL1  688   4.377   4.290   7.478 -0.1376 -0.1032 -0.0371
   32POPC   GL2  689   4.288   4.036   7.255 -0.2241  0.1366  0.1362
   32POPC   C1A  690   4.224   4.552   7.210 -0.1246 -0.2119 -0.0202
   32POPC   D2A  691   4.045   4.724   6.804  0.1861 -0.0744 -0.1957
   32POPC   C3A  692   3.888   4.482   6.473 -0.1214  0.2999 -0.2913
   32POPC   C4A  693   3.980   4.247   6.122  0.3252  0.0585  0.2273
   32POPC   C1B  694   4.602   4.171   6.958 -0.1983 -0.3064 -0.1302
   32POPC   C2B  695   4.493   4.505   6.565  0.1428  0.3124  0.2630
   32POPC   C3B  696   4.292   4.810   6.364 -0.1351  0.0697  0.3329
   32POPC   C4B  697   4.236   5.188   6.233  0.0120 -0.1055 -0.1073
   33POPC   NC3  698   7.802   0.664   8.367  0.2220  0.0645  0.0035
   33POPC   PO4  699   7.680   1.011   8.112  0.0424 -0.4630 -0.3574
   33POPC   GL1  700   7.717   1.006   7.632 -0.0283  0.0564 -0.0099
   33POPC   GL2  701   7.393   1.047   7.482 -0.0867 -0.0447 -0.2043
   33POPC   C1A  702   8.033   1.072   7.186  0.3384  0.1340 -0.1124
   33POPC   D2A  703   8.028   0.856   6.752  0.2957 -0.0963  0.3053
   33POPC   C3A  704   7.924   0.952   6.295 -0.1893  0.2024  0.2938
   33POPC   C4A  705   7.957   1.103   5.850  0.1756 -0.3071  0.0160
   33POPC   C1B  706   7.136   0.731   7.223  0.2343  0.0035  0.1806
   33POPC   C2B  707   6.990   0.388   7.051 -0.5247 -0.0280 -0.1184
   33POPC   C3B  708   7.038   0.104   6.639  0.2742 -0.0167  0.1019
   33POPC   C4B  709   7.021   0.327   6.300  0.1310 -0.1191 -0.1530
   34POPC   NC3  710   8.695   2.872   7.592 -0.0206 -0.0804  0.0700
   34POPC   PO4  711   8.308   2.682   7.570 -0.0099  0.0644 -0.1099
   34POPC   GL1  712   8.339   2.772   7.233 -0.0792 -0.1576 -0.2253
   34POPC   GL2  713   8.675   2.670   7.121 -0.0449 -0.2428  0.1118
   34POPC   C1A  714   8.161   2.702   6.814 -0.0696 -0.0071 -0.3785
   34POPC   D2A  715   8.106   2.362   6.646 -0.1324 -0.1291  0.2980
   34POPC   C3A  716   8.408   2.192   6.249  0.1254  0.1214  0.0185
   34POPC   C4A  717   8.434   2.031   5.841  0.1629  0.1293  0.0348
   34POPC   C1B  718   8.583   2.556   6.719  0.0519  0.0006  0.1635
   34POPC   C2B  719   8.737   2.743   6.297 -0.1819  0.0582  0.0024
   34POPC   C3B  720   8.945   2.888   5.977 -0.2986 -0.1416  0.1937
   34POPC   C4B  721   9.448   2.964   5.769 -0.4133 -0.1675  0.1307
   35POPC   NC3  722   9.853   4.451   8.195 -0.0160  0.2926  0.0075
   35POPC   PO4  723   9.741   4.491   7.770 -0.2086  0.1673  0.3225
   35POPC   GL1  724   9.612   4.357   7.469 -0.1930  0.0847  0.0351
   35POPC   GL2  725   9.517   4.018   7.410  0.3391 -0.0438  0.1074
   35POPC   C1A  726   9.399   4.545   7.105 -0.1334  0.2534  0.0950
   35POPC   D2A  727   9.292   4.673   6.796 -0.2167  0.0481 -0.2463
   35POPC   C3A  728   9.451   5.119   6.554 -0.0036  0.1749  0.0485
   35POPC   C4A  729   9.406   5.355   6.100 -0.1685  0.1052  0.0328
   35POPC   C1B  730   9.662   3.998   6.916  0.0106 -0.1900  0.0364
   35POPC   C2B  731   9.782   3.971   6.486  0.3276  0.1552  0.0103
   35POPC   C3B  732   9.903   4.064   6.159 -0.1370 -0.0647  0.4427
   35POPC   C4B  733   9.971   4.165   5.839 -0.2097 -0.2381  0.4235
   36POPC   NC3  734   4.571   8.715   7.680 -0.1829 -0.1061 -0.2522
   36POPC   PO4  735   5.140   9.014   7.863  0.0166  0.2208  0.4432
   36POPC   GL1  736   4.825   9.085   7.504  0.0798  0.2287 -0.0717
   36POPC   GL2  737   4.960   9.457   7.478 -0.1896  0.0944 -0.1301
   36POPC   C1A  738   4.749   9.249   7.108  0.1792  0.0589 -0.1398
   36POPC   D2A  739   4.728   9.215   6.659  0.1815  0.2193 -0.1024
   36POPC   C3A  740   4.663   9.269   6.190 -0.1498  0.2754  0.0405
   36POPC   C4A  741   4.488   9.400   5.834 -0.1705  0.1207  0.0582
   36POPC   C1B  742   5.237   9.394   7.084  0.0166  0.2190  0.1095
   36POPC   C2B  743   5.359   9.651   6.750 -0.0291 -0.0771  0.1971
   36POPC   C3B  744   5.406   9.611   6.335 -0.0089  0.1078 -0.1824
   36POPC   C4B  745   5.612   9.907   6.024 -0.1349 -0.1753 -0.3291
   37POPC   NC3  746  10.031   3.406   8.248  0.1001 -0.0247 -0.1235
   37POPC   PO4  747   9.700   3.547   7.964 -0.4492  0.1287 -0.2704
   37POPC   GL1  748   9.576   3.505   7.511 -0.0378 -0.1543  0.1036
   37POPC   GL2  749   9.428   3.202   7.285 -0.0735 -0.3234  0.0226
   37POPC   C1A  750   9.836   3.384   7.123 -0.1289 -0.3215  0.0266
   37POPC   D2A  751  10.027   3.699   6.800 -0.0869  0.0508 -0.0062
   37POPC   C3A  752  10.161   3.631   6.359  0.1809  0.1607  0.3972
   37POPC   C4A  753  10.129   3.686   5.894  0.0820  0.2411  0.1553
   37POPC   C1B  754   9.372   3.590   6.928 -0.0398 -0.3010 -0.0273
   37POPC   C2B  755   9.184   3.737   6.488  0.2565  0.3100  0.1366
   37POPC   C3B  756   8.854   3.965   6.475 -0.1464  0.3170 -0.2323
   37POPC   C4B  757   8.589   4.127   6.776 -0.0575 -0.0479 -0.1821
   38POPC   NC3  758   9.706   9.302   7.760 -0.2249 -0.1317  0.0603
   38POPC   PO4  759   9.380   9.661   7.840  0.1802 -0.1266 -0.0408
   38POPC   GL1  760   9.378   9.542   7.349 -0.0027 -0.0699 -0.0558
   38POPC   GL2  761   9.533   9.233   7.289  0.0383  0.0616  0.1566
   38POPC   C1A  762   9.395   9.520   6.923  0.0720  0.0454 -0.2847
   38POPC   D2A  763   9.605   9.372   6.592 -0.0876  0.1052 -0.1413
   38POPC   C3A  764   9.399   9.474   6.145  0.0560  0.1804 -0.1814
   38POPC   C4A  765   9.438   9.232   5.772 -0.1155  0.3432 -0.0082
   38POPC   C1B  766   9.580   8.917   6.963  0.1135  0.0231  0.0308
   38POPC   C2B  767   9.440   8.906   6.619 -0.0666 -0.1591 -0.0636
   38POPC   C3B  768   9.369   9.002   6.228 -0.3085 -0.0867 -0.1802
   38POPC   C4B  769   9.038   8.809   5.844  0.0302  0.1769  0.1376
   39POPC   NC3  770   8.211   0.790   8.063 -0.0618 -0.1022 -0.3034
   39POPC   PO4  771   8.301   0.640   7.634 -0.0076 -0.1190 -0.0852
   39POPC   GL1  772   8.487   0.851   7.299 -0.2472 -0.2194  0.3010
   39POPC   GL2  773   8.305   0.640   7.113 -0.1028 -0.1324 -0.0259
   39POPC   C1A  774   8.457   1.089   6.877  0.1334 -0.0456 -0.0470
   39POPC   D2A  775   8.469   0.977   6.412 -0.3267 -0.1162 -0.3727
   39POPC   C3A  776   8.330   0.552   6.312  0.2692  0.0683  0.3855
   39POPC   C4A  777   8.091   0.365   5.958 -0.1753  0.3752 -0.0107
   39POPC   C1B  778   8.050   0.385   6.838 -0.2611 -0.2594  0.0925
   39POPC   C2B  779   7.815   0.538   6.510 -0.0012 -0.1332  0.0980
   39POPC   C3B  780   7.524   0.398   6.126 -0.1429  0.0218 -0.0179
   39POPC   C4B  781   7.099   0.415   5.834 -0.0547 -0.2550 -0.3055
   40POPC   NC3  782   3.456   2.983   8.423  0.1073  0.1736 -0.1526
   40POPC   PO4  783   3.634   3.413   8.130  0.1379 -0.1735  0.1395
   40POPC   GL1  784   3.614   3.382   7.675  0.0070 -0.2324  0.1570
   40POPC   GL2  785   3.621   3.756   7.523 -0.1132 -0.1945 -0.1740
   40POPC   C1A  786   3.451   3.368   7.179 -0.0547 -0.2789 -0.1097
   40POPC   D2A  787   3.517   3.569   6.770  0.2635 -0.2751 -0.0991
   40POPC   C3A  788   3.544   3.209   6.457  0.2331 -0.0520  0.1752
   40POPC   C4A  789   3.394   3.000   6.137  0.0094  0.0607  0.1896
   40POPC   C1B  790   3.904   3.786   7.076  0.1370 -0.0600  0.0650
   40POPC   C2B  791   4.059   3.526   6.740  0.1872  0.0863 -0.2538
   40POPC   C3B  792   4.026   3.165   6.443 -0.1293 -0.1781  0.1871
   40POPC   C4B  793   4.150   2.964   6.063  0.0415 -0.0715  0.0514
   41POPC   NC3  794   9.817   3.036   7.728  0.1873  0.4096 -0.1691
   41POPC   PO4  795  10.102   2.730   7.884  0.1220  0.2800 -0.1579
   41POPC   GL1  796   9.921   2.590   7.533  0.0527  0.1361 -0.2250
   41POPC   GL2  797   9.915   2.908   7.270  0.1015  0.1961  0.0957
   41POPC   C1A  798   9.748   2.436   7.075  0.0226  0.0495  0.1339
   41POPC   D2A  799   9.426   2.307   6.822  0.2692 -0.0817  0.2315
   41POPC   C3A  800   9.446   2.459   6.495  0.0703 -0.1258  0.0162
   41POPC   C4A  801   9.334   2.473   6.010  0.1772 -0.2160  0.0068
   41POPC   C1B  802  10.251   3.129   7.118  0.1625 -0.1489 -0.2599
   41POPC   C2B  803  10.429   3.180   6.773 -0.2425  0.0884 -0.1748
   41POPC   C3B  804  10.362   3.064   6.350 -0.0906 -0.0445 -0.1326
   41POPC   C4B  805  10.249   2.752   6.204  0.4290 -0.2505  0.0392
   42POPC   NC3  806   6.003   4.778   7.949 -0.1008  0.3359 -0.2428
   42POPC   PO4  807   5.605   4.763   7.934  0.0202  0.2114  0.1971
   42POPC   GL1  808   5.619   4.706   7.493 -0.0403  0.0464  0.1698
   42POPC   GL2  809   5.351   4.450   7.378  0.0870  0.0749  0.0104
   42POPC   C1A  810   5.433   4.869   7.107  0.1722  0.0755  0.1656
   42POPC   D2A  811   5.610   5.088   6.778 -0.0279 -0.2082 -0.0690
   42POPC   C3A  812   5.758   4.814   6.419  0.2103  0.2375  0.1458
   42POPC   C4A  813   6.069   4.896   6.210 -0.2867 -0.0830 -0.0852
   42POPC   C1B  814   5.448   4.341   6.970 -0.4003  0.1101 -0.0518
   42POPC   C2B  815   5.559   4.180   6.528  0.0712 -0.2452 -0.0158
   42POPC   C3B  816   5.721   4.373   6.183 -0.3538 -0.0452  0.1057
   42POPC   C4B  817   5.895   4.549   5.786 -0.2146 -0.0348 -0.0009
   43POPC   NC3  818   1.007   7.029   7.823  0.1756 -0.0204 -0.1477
   43POPC   PO4  819   1.061   7.414   7.784  0.2350 -0.1975  0.0172
   43POPC   GL1  820   1.270   7.536   7.411  0.0690 -0.0469  0.3225
   43POPC   GL2  821   1.009   7.435   7.243 -0.3205  0.0431 -0.1623
   43POPC   C1A  822   1.461   7.504   6.932 -0.2608 -0.1929  0.0094
   43POPC   D2A  823   1.379   7.684   6.504 -0.4811  0.0730  0.0447
   43POPC   C3A  824   1.751   7.634   6.273  0.0889 -0.1726  0.0349
   43POPC   C4A  825   2.024   7.821   6.065 -0.0760 -0.0609 -0.1336
   43POPC   C1B  826   0.963   7.378   6.799 -0.2008 -0.1834  0.1632
   43POPC   C2B  827   0.753   7.273   6.444 -0.1052  0.1175  0.1127
   43POPC   C3B  828   0.882   7.399   6.059  0.2613 -0.1172 -0.2494
   43POPC   C4B  829   1.137   7.566   5.806  0.0396  0.0114 -0.1419
   44POPC   NC3  830   1.458   6.639   8.125 -0.0987  0.1249 -0.1116
   44POPC   PO4  831   1.409   6.249   8.071 -0.1824  0.2252  0.1496
   44POPC   GL1  832   1.584   6.217   7.733  0.0871  0.3839  0.2800
   44POPC   GL2  833   1.978   6.301   7.773  0.1082 -0.3480 -0.0082
   44POPC   C1A  834   1.793   6.043   7.387  0.1212 -0.1938 -0.0359
   44POPC   D2A  835   1.705   6.072   6.974 -0.0221 -0.1985 -0.1391
   44POPC   C3A  836   1.938   6.096   6.622 -0.1996 -0.1465  0.1583
   44POPC   C4A  837   2.200   6.253   6.330  0.0433  0.0320  0.0896
   44POPC   C1B  838   1.941   6.642   7.626 -0.2036 -0.1000  0.0492
   44POPC   C2B  839   2.198   6.863   7.426 -0.0632  0.3200  0.0211
   44POPC   C3B  840   2.316   7.129   7.051 -0.0762  0.3361  0.3669
   44POPC   C4B  841   2.284   7.460   6.801  0.3031 -0.0563  0.0658
   45POPC   NC3  842   7.457   4.636   8.342 -0.3408  0.2659 -0.3007
   45POPC   PO4  843   7.485   5.170   8.370  0.2873  0.2069  0.0256
   45POPC   GL1  844   7.533   5.141   7.875  0.1492  0.1429  0.0695
   45POPC   GL2  845   7.490   4.888   7.837 -0.0042 -0.0493  0.0857
   45POPC   C1A  846   7.723   5.218   7.483  0.0661 -0.1127  0.3006
   45POPC   D2A  847   7.527   5.107   7.083  0.4182  0.0775 -0.0010
   45POPC   C3A  848   7.551   5.199   6.609  0.3202 -0.3038  0.1810
   45POPC   C4A  849   7.689   5.003   6.255  0.1329  0.2617  0.2990
   45POPC   C1B  850   7.534   4.738   7.462  0.0313  0.2907  0.1405
   45POPC   C2B  851   7.222   4.600   7.150  0.1173  0.3117  0.0655
   45POPC   C3B  852   6.894   4.272   7.283 -0.1915 -0.1656 -0.0278
   45POPC   C4B  853   6.783   3.992   7.064 -0.0654  0.0211 -0.1303
   46POPC   NC3  854   6.615   4.888   8.658  0.0176 -0.2263 -0.1536
   46POPC   PO4  855   6.604   4.897   8.122 -0.0685  0.0887 -0.1308
   46POPC   GL1  856   6.426   4.790   7.629 -0.1161  0.0090  0.1713
   46POPC   GL2  857   6.099   4.912   7.419  0.1601  0.1419 -0.3376
   46POPC   C1A  858   6.254   4.437   7.481 -0.1217  0.1451  0.0367
   46POPC   D2A  859   6.425   4.076   7.465  0.1864  0.3522  0.1744
   46POPC   C3A  860   6.341   3.725   7.139  0.2777  0.0342  0.3372
   46POPC   C4A  861   6.558   3.363   6.941  0.1113 -0.4025 -0.0897
   46POPC   C1B  862   5.947   4.674   7.075 -0.2361 -0.1569 -0.1305
   46POPC   C2B  863   5.948   4.438   6.741  0.1227  0.4764 -0.0006
   46POPC   C3B  864   6.171   4.261   6.489 -0.1363  0.0139  0.1539
   46POPC   C4B  865   6.393   3.887   6.368  0.2652  0.3898 -0.1770
   47POPC   NC3  866   1.213   0.210   8.159 -0.1337 -0.1002  0.1549
   47POPC   PO4  867   1.472  -0.033   8.000  0.2106  0.1201 -0.0438
   47POPC   GL1  868   1.779   0.120   7.701 -0.5819 -0.1228  0.2161
   47POPC   GL2  869   2.123   0.010   7.747  0.2494 -0.0725 -0.2413
   47POPC   C1A  870   1.871   0.159   7.247 -0.4086  0.0210  0.2864
   47POPC   D2A  871   1.867   0.221   6.827 -0.2496  0.1650  0.0443
   47POPC   C3A  872   2.129   0.358   6.518  0.3516  0.0755  0.0587
   47POPC   C4A  873   2.246   0.442   6.076  0.4140  0.2904  0.1952
   47POPC   C1B  874   2.339   0.149   7.334 -0.4817  0.1116  0.3870
   47POPC   C2B  875   2.373   0.179   6.947 -0.0785 -0.0768  0.0588
   47POPC   C3B  876   2.474   0.003   6.613 -0.0799 -0.1769  0.1286
   47POPC   C4B  877   2.375  -0.086   6.102  0.1309  0.1749 -0.0160
   48POPC   NC3  878  10.280   8.716   7.402 -0.0863  0.1987 -0.2712
   48POPC   PO4  879  10.044   9.016   7.532 -0.0358  0.1008 -0.0527
   48POPC   GL1  880  10.010   9.227   7.105  0.1295 -0.0547 -0.0794
   48POPC   GL2  881   9.908   9.527   7.114 -0.1473 -0.1141 -0.1705
   48POPC   C1A  882  10.153   9.082   6.774  0.3153  0.2405  0.2797
   48POPC   D2A  883   9.861   8.943   6.389  0.2125  0.1985 -0.4068
   48POPC   C3A  884   9.894   9.286   6.045 -0.0040 -0.1259 -0.2730
   48POPC   C4A  885   9.685   9.717   5.802 -0.3879  0.0768 -0.1753
   48POPC   C1B  886   9.858   9.742   6.770 -0.0604  0.0048 -0.2326
   48POPC   C2B  887   9.451   9.837   6.484 -0.0234 -0.0173 -0.0361
   48POPC   C3B  888   9.199   9.951   6.142  0.1929  0.1811 -0.0155
   48POPC   C4B  889   9.095   9.604   5.778  0.0064 -0.2628  0.2758
   49POPC   NC3  890  10.245   1.787   8.065 -0.0345 -0.3415  0.1413
   49POPC   PO4  891  10.315   1.364   8.055  0.0395 -0.0896  0.2470
   49POPC   GL1  892  10.372   1.111   7.699 -0.1812  0.1699  0.2593
   49POPC   GL2  893  10.237   0.882   7.533 -0.0055 -0.1405 -0.1585
   49POPC   C1A  894  10.583   1.123   7.259 -0.1526 -0.1070  0.2324
   49POPC   D2A  895  10.805   0.952   6.778  0.1550 -0.3242 -0.0882
   49POPC   C3A  896  11.261   0.850   6.758 -0.1603 -0.1328 -0.0600
   49POPC   C4A  897  11.720   0.833   6.755  0.1018 -0.1994  0.1056
   49POPC   C1B  898  10.115   1.265   7.277  0.0002 -0.2499 -0.1744
   49POPC   C2B  899  10.075   1.511   6.969  0.1684  0.0014 -0.1960
   49POPC   C3B  900  10.173   1.669   6.651 -0.0906  0.0109 -0.3485
   49POPC   C4B  901  10.494   1.841   6.548 -0.0678 -0.0141 -0.3495
   50POPC   NC3  902   9.509  10.065   8.101  0.2181  0.1562  0.0753
   50POPC   PO4  903   9.749  10.418   7.815 -0.3378  0.0563 -0.0283
   50POPC   GL1  904   9.514  10.146   7.539  0.2378 -0.1997 -0.0965
   50POPC   GL2  905   9.216  10.167   7.528 -0.1147  0.2118 -0.4449
   50POPC   C1A  906   9.530   9.955   7.115 -0.0384  0.2745  0.0326
   50POPC   D2A  907   9.670  10.188   6.754 -0.0085  0.0908  0.1509
   50POPC   C3A  908   9.265  10.266   6.588  0.0136  0.1482 -0.1581
   50POPC   C4A  909   8.965  10.442   6.261 -0.0803  0.1931  0.1150
   50POPC   C1B  910   9.168  10.387   7.102  0.3450  0.3164 -0.0832
   50POPC   C2B  911   9.022  10.830   6.852  0.0651 -0.0618 -0.1408
   50POPC   C3B  912   8.864  10.855   6.482  0.1664 -0.2142 -0.0379
   50POPC   C4B  913   8.704  10.834   6.030  0.4827 -0.1545 -0.2924
   51POPC   NC3  914   6.970   8.732   7.886  0.1870  0.2197 -0.1607
   51POPC   PO4  915   6.647   9.075   7.900  0.0455 -0.0443 -0.0611
   51POPC   GL1  916   6.467   8.985   7.545  0.1089  0.1969 -0.0254
   51POPC   GL2  917   6.134   9.020   7.601 -0.2266 -0.3922  0.3393
   51POPC   C1A  918   6.518   8.562   7.331 -0.0816 -0.0365 -0.0535
   51POPC   D2A  919   6.418   8.179   7.164 -0.0837 -0.1978  0.2309
   51POPC   C3A  920   6.456   8.184   6.717 -0.2143  0.2178 -0.3132
   51POPC   C4A  921   6.544   8.429   6.441  0.0197  0.2178 -0.0374
   51POPC   C1B  922   6.113   9.005   7.083  0.0057  0.0539 -0.0206
   51POPC   C2B  923   6.409   8.780   6.860 -0.0086  0.4248  0.3451
   51POPC   C3B  924   6.665   8.989   6.495 -0.2199 -0.0554 -0.2423
   51POPC   C4B  925   6.605   9.058   6.014  0.2696  0.0783 -0.1229
   52POPC   NC3  926   5.149  10.408   8.021  0.1138 -0.1691 -0.0555
   52POPC   PO4  927   5.571  10.696   8.016  0.1481 -0.0950  0.0612
   52POPC   GL1  928   5.590  10.579   7.658  0.0478 -0.0441  0.0176
   52POPC   GL2  929   5.625  10.849   7.494  0.1711 -0.1248  0.0837
   52POPC   C1A  930   5.391  10.259   7.344 -0.2976 -0.0345 -0.1327
   52POPC   D2A  931   5.466  10.153   6.874 -0.1894 -0.0736  0.2692
   52POPC   C3A  932   5.180  10.198   6.599 -0.0263 -0.0140 -0.1111
   52POPC   C4A  933   5.155  10.082   6.108  0.1848 -0.0997 -0.0964
   52POPC   C1B  934   5.753  10.586   7.032  0.0322 -0.2969  0.1389
   52POPC   C2B  935   5.913  10.975   6.762 -0.1662 -0.0026  0.0429
   52POPC   C3B  936   5.952  11.226   6.372 -0.2866  0.2812 -0.1962
   52POPC   C4B  937   5.923  11.660   6.246  0.1160 -0.4403 -0.0603
   53POPC   NC3  938   1.384   5.709   8.200  0.1088 -0.0378  0.2348
   53POPC   PO4  939   1.024   5.444   8.186  0.1370  0.0838  0.1821
   53POPC   GL1  940   0.752   5.421   7.852 -0.3307  0.0187 -0.1753
   53POPC   GL2  941   0.826   5.200   7.675 -0.0349  0.0585 -0.0271
   53POPC   C1A  942   0.791   5.640   7.461  0.1172  0.0736  0.0994
   53POPC   D2A  943   0.680   6.083   7.210 -0.1170 -0.2018 -0.3308
   53POPC   C3A  944   0.394   6.046   6.872  0.0308  0.0409  0.0789
   53POPC   C4A  945   0.247   6.021   6.470  0.5791  0.2576  0.0104
   53POPC   C1B  946   1.044   5.003   7.300  0.1668  0.0057  0.0146
   53POPC   C2B  947   1.406   5.046   7.064  0.0461 -0.2817  0.1714
   53POPC   C3B  948   1.690   5.096   6.767  0.0665  0.2342  0.0824
   53POPC   C4B  949   1.551   5.186   6.396  0.0269  0.0280 -0.1470
   54POPC   NC3  950   3.912   6.792   8.027  0.0577 -0.0429  0.0390
   54POPC   PO4  951   3.874   6.902   7.595 -0.3220 -0.0666 -0.3140
   54POPC   GL1  952   3.600   6.754   7.307 -0.3472 -0.1414 -0.2429
   54POPC   GL2  953   3.344   6.867   7.479 -0.0348 -0.0706 -0.1749
   54POPC   C1A  954   3.496   6.753   6.869  0.0623  0.0729  0.0406
   54POPC   D2A  955   3.424   6.660   6.529  0.1421  0.0072  0.2621
   54POPC   C3A  956   3.021   6.729   6.260  0.0931 -0.1808 -0.2196
   54POPC   C4A  957   2.743   7.118   6.016 -0.3098  0.2543  0.2640
   54POPC   C1B  958   3.158   6.645   7.189  0.0639  0.1958  0.0686
   54POPC   C2B  959   3.091   6.360   6.752  0.1087 -0.2553 -0.1040
   54POPC   C3B  960   2.876   6.267   6.419 -0.1002  0.3395 -0.2499
   54POPC   C4B  961   2.739   6.129   6.004 -0.0052  0.2740 -0.1459
   55POPC   NC3  962   2.167   8.136   7.886  0.2766 -0.1395  0.2602
   55POPC   PO4  963   2.049   8.550   7.664  0.2089  0.0857  0.2483
   55POPC   GL1  964   2.157   8.557   7.186  0.1481 -0.0059  0.0653
   55POPC   GL2  965   2.021   8.869   7.065  0.5416  0.1195  0.4015
   55POPC   C1A  966   1.943   8.330   6.825 -0.2742 -0.3020 -0.3472
   55POPC   D2A  967   1.801   8.150   6.395 -0.1832  0.2257 -0.0364
   55POPC   C3A  968   1.626   8.421   6.095  0.0059  0.0951 -0.0084
   55POPC   C4A  969   1.613   8.913   6.194  0.1450  0.0623  0.1025
   55POPC   C1B  970   1.996   9.123   6.758 -0.2544 -0.0456 -0.5466
   55POPC   C2B  971   2.082   9.293   6.381 -0.1408  0.0960  0.1128
   55POPC   C3B  972   1.844   9.501   6.136  0.2669 -0.3024  0.1591
   55POPC   C4B  973   1.693   9.618   5.707  0.0051 -0.1165 -0.3965
   56POPC   NC3  974   9.959   7.652   8.134 -0.0790 -0.1191 -0.1499
   56POPC   PO4  975  10.018   7.383   7.851  0.2202 -0.0725 -0.1775
   56POPC   GL1  976  10.173   7.321   7.433  0.0066  0.1085 -0.0422
   56POPC   GL2  977  10.388   7.338   7.268 -0.0612 -0.0458 -0.0621
   56POPC   C1A  978   9.844   7.492   7.127  0.0265  0.0911  0.1252
   56POPC   D2A  979   9.446   7.703   7.187 -0.1287  0.0510 -0.0104
   56POPC   C3A  980   9.331   7.834   6.763  0.0895 -0.2504 -0.3103
   56POPC   C4A  981   9.505   7.914   6.358 -0.0894  0.0988  0.0261
   56POPC   C1B  982  10.329   7.714   7.106 -0.2170 -0.0681  0.2675
   56POPC   C2B  983  10.302   8.083   6.779 -0.1622 -0.0272  0.2956
   56POPC   C3B  984  10.636   8.360   6.574  0.0236  0.1120 -0.0533
   56POPC   C4B  985  10.763   8.521   6.136 -0.0875 -0.1402  0.1762
   57POPC   NC3  986   2.167   0.648   8.374 -0.1519  0.0447 -0.0368
   57POPC   PO4  987   2.327   0.232   8.167 -0.0369 -0.2018 -0.0534
   57POPC   GL1  988   2.182   0.610   7.828 -0.2434  0.2396  0.0908
   57POPC   GL2  989   2.486   0.719   7.945  0.0308 -0.0571 -0.0599
   57POPC   C1A  990   2.351   0.627   7.406  0.1428 -0.1324 -0.0335
   57POPC   D2A  991   2.315   0.736   6.990 -0.1051  0.0316  0.0880
   57POPC   C3A  992   2.571   0.557   6.672 -0.0474  0.0014  0.0454
   57POPC   C4A  993   2.767   0.343   6.314  0.0435  0.2510  0.0905
   57POPC   C1B  994   2.507   1.045   7.675  0.0767  0.0597  0.1818
   57POPC   C2B  995   2.391   1.514   7.654  0.1332  0.0016 -0.1771
   57POPC   C3B  996   2.136   1.844   7.509 -0.1990  0.3911 -0.0150
   57POPC   C4B  997   2.169   2.169   7.342  0.2605 -0.2399  0.2202
   58POPC   NC3  998   8.292   6.282   8.130  0.0198 -0.4728  0.0435
   58POPC   PO4  999   8.328   5.885   8.098  0.0540  0.0161 -0.0778
   58POPC   GL1 1000   8.330   5.933   7.757  0.1606 -0.1703  0.3284
   58POPC   GL2 1001   8.569   6.167   7.683 -0.1721 -0.2446  0.1937
   58POPC   C1A 1002   8.309   5.888   7.237  0.0304  0.3398 -0.0393
   58POPC   D2A 1003   8.050   5.925   6.832  0.1382 -0.0664  0.0241
   58POPC   C3A 1004   7.964   6.283   6.540 -0.2035  0.2819  0.0535
   58POPC   C4A 1005   7.923   6.248   5.992  0.2793 -0.0860  0.0087
   58POPC   C1B 1006   8.536   6.379   7.395 -0.2402  0.1860 -0.1324
   58POPC   C2B 1007   8.820   6.480   6.959 -0.3444  0.0872  0.2068
   58POPC   C3B 1008   8.665   6.714   6.570 -0.1528  0.2237  0.1208
   58POPC   C4B 1009   8.817   6.511   6.230  0.1443  0.0155 -0.0471
   59POPC   NC3 1010   3.178   7.309   8.244  0.3791  0.2879 -0.0318
   59POPC   PO4 1011   2.831   7.450   8.020 -0.0873 -0.1933 -0.1057
   59POPC   GL1 1012   2.739   7.308   7.595 -0.3008  0.1662  0.0025
   59POPC   GL2 1013   2.398   7.343   7.532  0.2868  0.2966  0.0641
   59POPC   C1A 1014   3.067   7.170   7.201 -0.0278 -0.1574  0.2533
   59POPC   D2A 1015   2.989   6.880   6.837  0.0035  0.2245  0.3568
   59POPC   C3A 1016   2.662   6.871   6.530  0.2495 -0.0972 -0.0204
   59POPC   C4A 1017   2.455   6.666   6.267 -0.2501  0.2002 -0.0299
   59POPC   C1B 1018   2.207   7.687   7.247 -0.0132  0.0516  0.0313
   59POPC   C2B 1019   2.360   8.093   7.017 -0.2772 -0.2772 -0.1771
   59POPC   C3B 1020   2.460   8.445   6.806  0.3109  0.4372 -0.1771
   59POPC   C4B 1021   2.455   8.853   6.783  0.3245 -0.2309  0.0874
   60POPC   NC3 1022   3.210   7.562   7.709 -0.2871  0.2686  0.1146
   60POPC   PO4 1023   3.418   7.995   7.963  0.2586 -0.1165  0.2285
   60POPC   GL1 1024   3.303   7.938   7.454 -0.1426 -0.1043  0.2352
   60POPC   GL2 1025   3.231   7.689   7.214 -0.1379  0.2977 -0.1100
   60POPC   C1A 1026   3.366   8.110   7.103 -0.0974 -0.0435  0.2516
   60POPC   D2A 1027   3.414   8.204   6.705  0.1871  0.1645  0.1858
   60POPC   C3A 1028   3.532   8.493   6.317 -0.0291 -0.1186 -0.0509
   60POPC   C4A 1029   3.502   8.665   5.908  0.3810 -0.1805 -0.0643
   60POPC   C1B 1030   3.266   7.348   6.766 -0.1887  0.3994  0.0390
   60POPC   C2B 1031   3.270   7.146   6.506  0.0107  0.1159 -0.0228
   60POPC   C3B 1032   3.212   7.266   6.090  0.1175 -0.0929 -0.1025
   60POPC   C4B 1033   3.440   7.391   5.646  0.2134  0.0863  0.0122
   61POPC   NC3 1034   5.364   9.567   8.027 -0.0693  0.1366  0.0466
   61POPC   PO4 1035   5.006   9.855   7.743  0.0293  0.0772 -0.4651
   61POPC   GL1 1036   4.879   9.934   7.356  0.1027  0.0743 -0.0338
   61POPC   GL2 1037   5.119   9.859   7.205  0.1634 -0.0850  0.1936
   61POPC   C1A 1038   4.816   9.657   6.862 -0.2797 -0.1364 -0.0951
   61POPC   D2A 1039   4.902   9.697   6.438 -0.2624  0.1006 -0.0580
   61POPC   C3A 1040   4.633   9.787   6.152  0.3968  0.0209 -0.1707
   61POPC   C4A 1041   4.141   9.848   6.045  0.4681 -0.0674  0.3658
   61POPC   C1B 1042   4.990  10.306   7.056  0.0040  0.2924 -0.0986
   61POPC   C2B 1043   4.824  10.505   6.743  0.4856  0.1868 -0.0984
   61POPC   C3B 1044   4.704  10.395   6.326  0.2713  0.2758  0.1843
   61POPC   C4B 1045   4.436  10.232   5.920 -0.2075  0.0651 -0.0604
   62POPC   NC3 1046   4.396   1.586   8.463 -0.0303  0.0941  0.2656
   62POPC   PO4 1047   4.432   2.016   8.166  0.2828  0.0883  0.2304
   62POPC   GL1 1048   4.154   2.048   7.911 -0.1479 -0.3002  0.3415
   62POPC   GL2 1049   4.394   1.961   7.626 -0.1054  0.0241 -0.0961
   62POPC   C1A 1050   3.994   2.268   7.471  0.0018 -0.1508  0.0145
   62POPC   D2A 1051   4.010   2.187   7.006  0.0455  0.1253 -0.0349
   62POPC   C3A 1052   4.214   2.311   6.626 -0.3063  0.1522  0.1042
   62POPC   C4A 1053   4.516   1.952   6.350  0.3267 -0.0598  0.1462
   62POPC   C1B 1054   4.109   1.733   7.365  0.0278 -0.1636  0.0104
   62POPC   C2B 1055   3.733   1.698   7.076  0.1002 -0.0129  0.3069
   62POPC   C3B 1056   3.635   1.625   6.667  0.4433  0.0320  0.0555
   62POPC   C4B 1057   3.572   1.589   6.274  0.1192 -0.0070  0.3882
   63POPC   NC3 1058   6.168   2.602   8.256 -0.1399  0.3848 -0.1146
   63POPC   PO4 1059   5.799   2.366   8.408  0.3480  0.5282  0.3719
   63POPC   GL1 1060   5.850   2.244   7.954 -0.1865 -0.3184  0.1785
   63POPC   GL2 1061   5.804   2.436   7.735 -0.3975 -0.0784  0.1943
   63POPC   C1A 1062   6.276   2.114   7.736  0.0257 -0.2037  0.1295
   63POPC   D2A 1063   6.490   2.223   7.311  0.1671  0.2463 -0.3046
   63POPC   C3A 1064   6.435   2.094   6.893  0.1044 -0.1392  0.1008
   63POPC   C4A 1065   6.473   1.793   6.503  0.1802  0.0310 -0.0348
   63POPC   C1B 1066   5.997   2.286   7.353 -0.0284 -0.0459  0.0503
   63POPC   C2B 1067   5.997   2.331   6.890 -0.2156  0.1236 -0.0663
   63POPC   C3B 1068   6.373   2.452   6.510 -0.0592 -0.4542  0.0715
   63POPC   C4B 1069   6.232   2.478   6.118  0.0041 -0.3103  0.4464
   64POPC   NC3 1070  10.478   9.674   7.829  0.3412  0.0956  0.1657
   64POPC   PO4 1071  10.318   9.500   7.454 -0.2337 -0.2774  0.0699
   64POPC   GL1 1072  10.499   9.430   7.076  0.3620 -0.1145  0.2955
   64POPC   GL2 1073  10.532   9.732   6.940 -0.0850  0.1398  0.2743
   64POPC   C1A 1074  10.645   9.178   6.716 -0.1198 -0.0778  0.2897
   64POPC   D2A 1075  10.328   9.083   6.331  0.2193 -0.0985 -0.0896
   64POPC   C3A 1076  10.410   9.408   5.898 -0.0621  0.1839 -0.0636
   64POPC   C4A 1077  10.093   9.517   5.669 -0.0468 -0.1675 -0.0843
   64POPC   C1B 1078  10.306   9.557   6.564  0.0002 -0.2055 -0.0206
   64POPC   C2B 1079  10.007   9.780   6.295  0.0006 -0.0103  0.3734
   64POPC   C3B 1080   9.849  10.059   6.178 -0.2168 -0.0815 -0.2062
   64POPC   C4B 1081  10.129  10.480   6.117 -0.3599  0.0712 -0.0435
   65POPC   NC3 1082   5.514   8.218   7.569 -0.3843  0.0056 -0.0647
   65POPC   PO4 1083   6.013   8.015   7.574 -0.0860 -0.0203 -0.0277
   65POPC   GL1 1084   5.906   8.171   7.261  0.1162  0.0670  0.0654
   65POPC   GL2 1085   6.006   8.459   7.110  0.2681  0.1162  0.2765
   65POPC   C1A 1086   5.779   8.112   6.852 -0.3127 -0.1900 -0.3489
   65POPC   D2A 1087   5.490   8.185   6.479 -0.2625 -0.3660  0.2655
   65POPC   C3A 1088   5.282   8.402   6.075  0.0527  0.1365  0.0423
   65POPC   C4A 1089   5.449   8.296   5.738 -0.2324 -0.3545 -0.0814
   65POPC   C1B 1090   6.054   8.464   6.631 -0.1374  0.3030 -0.1168
   65POPC   C2B 1091   5.882   8.450   6.240 -0.0764 -0.1321  0.1163
   65POPC   C3B 1092   5.881   8.679   5.747  0.2631  0.1023 -0.1313
   65POPC   C4B 1093   6.027   8.598   5.356  0.0341 -0.1154 -0.3671
   66POPC   NC3 1094   5.762   6.164   8.080  0.1576 -0.0689  0.1204
   66POPC   PO4 1095   5.456   5.842   7.987 -0.0713  0.0108  0.1595
   66POPC   GL1 1096   5.752   5.923   7.625 -0.0953 -0.0388 -0.0488
   66POPC   GL2 1097   6.125   6.232   7.621  0.1645 -0.0699 -0.2509
   66POPC   C1A 1098   5.708   5.776   7.280 -0.1954 -0.0939 -0.2766
   66POPC   D2A 1099   5.719   6.026   6.819 -0.3002 -0.0329  0.0705
   66POPC   C3A 1100   5.721   5.922   6.347 -0.0284 -0.1560 -0.1473
   66POPC   C4A 1101   5.920   6.313   6.035  0.1147 -0.0457 -0.1359
   66POPC   C1B 1102   6.121   6.080   7.199  0.4444  0.1249 -0.0841
   66POPC   C2B 1103   6.175   5.687   6.910 -0.0574 -0.0233  0.0080
   66POPC   C3B 1104   5.822   5.523   6.691  0.0870  0.0385  0.1730
   66POPC   C4B 1105   5.838   5.315   6.373 -0.2401 -0.0093  0.0872
   67POPC   NC3 1106  10.564   8.208   7.737 -0.1405  0.3132  0.0289
   67POPC   PO4 1107  10.100   8.343   7.612 -0.0118 -0.0562 -0.1524
   67POPC   GL1 1108  10.033   8.341   7.191 -0.2070 -0.1373  0.3545
   67POPC   GL2 1109   9.920   7.987   7.249  0.0613 -0.1855 -0.3620
   67POPC   C1A 1110  10.061   8.510   6.740  0.0674  0.0655 -0.2306
   67POPC   D2A 1111  10.055   8.190   6.374  0.0811 -0.0049 -0.1386
   67POPC   C3A 1112  10.413   8.176   6.123  0.0139 -0.1132  0.0787
   67POPC   C4A 1113  10.808   7.966   5.934 -0.2433  0.1632 -0.1879
   67POPC   C1B 1114   9.814   7.963   6.783  0.1378 -0.2045 -0.2703
   67POPC   C2B 1115   9.764   7.581   6.651  0.0914  0.3849 -0.3137
   67POPC   C3B 1116   9.649   7.176   6.760 -0.1805 -0.0884 -0.0947
   67POPC   C4B 1117   9.487   7.066   7.179 -0.0865  0.0289 -0.0748
   68POPC   NC3 1118   6.184   7.711   7.951 -0.0066 -0.3664  0.1339
   68POPC   PO4 1119   6.542   7.452   7.872  0.1499 -0.1535  0.1573
   68POPC   GL1 1120   6.354   7.571   7.480 -0.4029  0.2869  0.1380
   68POPC   GL2 1121   6.138   7.463   7.354 -0.3706 -0.0848  0.2390
   68POPC   C1A 1122   6.603   7.687   7.169  0.1801  0.1051  0.2653
   68POPC   D2A 1123   6.528   7.527   6.746 -0.1256 -0.1384  0.0275
   68POPC   C3A 1124   6.693   7.850   6.472 -0.1572 -0.0420  0.2649
   68POPC   C4A 1125   6.817   8.177   6.080  0.0179  0.3319 -0.1636
   68POPC   C1B 1126   6.118   7.625   6.987  0.0894 -0.4832 -0.1497
   68POPC   C2B 1127   6.163   7.780   6.493  0.0884  0.0618  0.5458
   68POPC   C3B 1128   6.407   7.471   6.193  0.2036 -0.1869 -0.1612
   68POPC   C4B 1129   6.563   7.041   5.992 -0.1301 -0.1595 -0.0680
   69POPC   NC3 1130   8.484   4.095   8.152  0.0962 -0.4277 -0.0410
   69POPC   PO4 1131   8.048   4.239   8.211  0.0043 -0.3543 -0.3257
   69POPC   GL1 1132   8.204   4.470   7.882 -0.0701  0.1048  0.0541
   69POPC   GL2 1133   7.888   4.511   7.767  0.2127  0.0380 -0.0893
   69POPC   C1A 1134   8.502   4.501   7.531 -0.0934 -0.0882  0.0176
   69POPC   D2A 1135   8.680   4.176   7.270 -0.1768 -0.0473  0.1812
   69POPC   C3A 1136   9.080   4.202   6.905 -0.0570  0.1224 -0.0804
   69POPC   C4A 1137   9.383   4.213   6.563 -0.0932 -0.1031 -0.1170
   69POPC   C1B 1138   8.041   4.397   7.280  0.0511  0.2919 -0.0804
   69POPC   C2B 1139   8.264   4.511   7.010 -0.1816 -0.3918  0.1308
   69POPC   C3B 1140   8.400   4.570   6.598  0.0864  0.0452  0.2493
   69POPC   C4B 1141   8.481   4.366   6.321  0.0554  0.0063  0.4785
   70POPC   NC3 1142   6.581   9.586   7.926  0.3783 -0.2047 -0.0465
   70POPC   PO4 1143   6.945   9.714   7.629 -0.0144  0.0530  0.0890
   70POPC   GL1 1144   7.147   9.836   7.336 -0.0437 -0.0090  0.1390
   70POPC   GL2 1145   7.510   9.940   7.217 -0.1479 -0.1336  0.6113
   70POPC   C1A 1146   6.800   9.965   6.915 -0.0593 -0.1997  0.0009
   70POPC   D2A 1147   6.756   9.610   6.637 -0.1552  0.0163 -0.2078
   70POPC   C3A 1148   6.825   9.490   6.137 -0.2455  0.1674  0.0330
   70POPC   C4A 1149   7.015   9.246   5.956  0.0675 -0.0175 -0.3431
   70POPC   C1B 1150   7.366   9.795   6.800 -0.0794 -0.1948  0.0047
   70POPC   C2B 1151   7.223   9.538   6.466  0.0193 -0.2089 -0.0175
   70POPC   C3B 1152   7.241   9.136   6.372  0.0566  0.0631 -0.0103
   70POPC   C4B 1153   7.031   8.796   6.252  0.1064 -0.1190 -0.0055
   71POPC   NC3 1154   1.576   7.434   7.799 -0.3627 -0.0416  0.0703
   71POPC   PO4 1155   1.431   7.096   8.069  0.1106 -0.5497 -0.0419
   71POPC   GL1 1156   1.553   7.028   7.580  0.0513  0.1067  0.0909
   71POPC   GL2 1157   1.237   6.997   7.358 -0.1733 -0.2230  0.1495
   71POPC   C1A 1158   1.683   6.983   7.246  0.1865 -0.1471  0.3258
   71POPC   D2A 1159   1.885   7.181   6.948  0.0779 -0.0584 -0.0828
   71POPC   C3A 1160   1.840   7.268   6.639 -0.1030  0.0465  0.2384
   71POPC   C4A 1161   1.914   7.161   6.193  0.3867  0.1862  0.1567
   71POPC   C1B 1162   1.339   7.014   6.928 -0.2499 -0.2989  0.0966
   71POPC   C2B 1163   1.318   7.192   6.549 -0.0894 -0.3152  0.0883
   71POPC   C3B 1164   1.339   7.284   6.142 -0.2142  0.2539 -0.3615
   71POPC   C4B 1165   1.309   7.103   5.697  0.0573  0.1580 -0.2771
   72POPC   NC3 1166   7.475   8.420   8.125  0.0438 -0.0612  0.1249
   72POPC   PO4 1167   7.456   8.383   7.656 -0.3971  0.0254 -0.0839
   72POPC   GL1 1168   7.586   8.415   7.258  0.3729 -0.1260 -0.1196
   72POPC   GL2 1169   7.922   8.558   7.254  0.0644 -0.2025  0.0813
   72POPC   C1A 1170   7.393   8.287   6.886  0.2092 -0.0949  0.1998
   72POPC   D2A 1171   7.357   7.970   6.623  0.1330  0.3026 -0.2485
   72POPC   C3A 1172   7.136   7.865   6.189 -0.2726 -0.2440  0.2803
   72POPC   C4A 1173   7.277   7.938   5.750  0.0661 -0.1476  0.0203
   72POPC   C1B 1174   7.931   8.538   6.778  0.0313 -0.3407  0.0241
   72POPC   C2B 1175   7.997   8.289   6.447  0.2672 -0.0291 -0.0252
   72POPC   C3B 1176   8.056   8.229   6.026  0.1006 -0.0828  0.2899
   72POPC   C4B 1177   7.810   8.137   5.672  0.1655  0.0447 -0.0873
   73POPC   NC3 1178   8.502   4.885   8.078  0.0268 -0.1483  0.5742
   73POPC   PO4 1179   8.885   5.019   7.968 -0.0544 -0.2823  0.0211
   73POPC   GL1 1180   8.671   5.002   7.646  0.1439 -0.0477 -0.1705
   73POPC   GL2 1181   8.767   5.257   7.375 -0.2370 -0.0556  0.2403
   73POPC   C1A 1182   8.492   4.957   7.169 -0.1158  0.0443 -0.0985
   73POPC   D2A 1183   8.448   5.067   6.678 -0.0298  0.0273 -0.1479
   73POPC   C3A 1184   8.768   4.858   6.328  0.2175  0.3372 -0.2857
   73POPC   C4A 1185   8.623   4.668   5.977  0.1628 -0.1531 -0.0061
   73POPC   C1B 1186   8.633   5.451   6.975  0.2349  0.2644  0.3763
   73POPC   C2B 1187   8.405   5.677   6.587  0.3619  0.0294  0.0023
   73POPC   C3B 1188   8.103   5.878   6.289  0.3505  0.2253  0.0501
   73POPC   C4B 1189   8.135   5.716   5.871 -0.0759  0.0094  0.3694
   74POPC   NC3 1190   1.330   1.142   8.548 -0.0422 -0.0132  0.0298
   74POPC   PO4 1191   0.992   0.948   8.443 -0.0439 -0.0819  0.1718
   74POPC   GL1 1192   1.121   0.883   8.087  0.0901 -0.0554 -0.2068
   74POPC   GL2 1193   1.293   0.568   7.845 -0.0396 -0.0956  0.0510
   74POPC   C1A 1194   1.193   1.051   7.732  0.1474  0.1805  0.0096
   74POPC   D2A 1195   1.139   1.413   7.556  0.4848 -0.0711 -0.0053
   74POPC   C3A 1196   1.577   1.562   7.490 -0.3022 -0.1677  0.0161
   74POPC   C4A 1197   1.937   1.459   7.763  0.1902 -0.0278  0.1386
   74POPC   C1B 1198   1.360   0.728   7.409 -0.1953  0.1473  0.0028
   74POPC   C2B 1199   1.462   1.038   7.193 -0.3294 -0.0648  0.1780
   74POPC   C3B 1200   1.596   1.438   7.014  0.2843 -0.0312 -0.0532
   74POPC   C4B 1201   1.889   1.655   7.093  0.1283  0.0150 -0.1877
   75POPC   NC3 1202   3.649   2.044   8.799 -0.3508 -0.0489  0.2067
   75POPC   PO4 1203   3.343   2.102   8.488 -0.1697 -0.1636 -0.0913
   75POPC   GL1 1204   3.038   2.342   8.158 -0.5013  0.1281 -0.1062
   75POPC   GL2 1205   3.279   2.567   8.067  0.0891 -0.0782 -0.0051
   75POPC   C1A 1206   2.742   2.251   7.940 -0.0241 -0.2004 -0.3033
   75POPC   D2A 1207   2.602   1.965   7.566 -0.0161  0.2384 -0.2142
   75POPC   C3A 1208   2.641   2.125   7.107  0.0570 -0.1631 -0.2281
   75POPC   C4A 1209   2.701   1.906   6.770  0.0598 -0.1708 -0.0534
   75POPC   C1B 1210   3.179   2.395   7.623 -0.2016  0.0392 -0.0077
   75POPC   C2B 1211   3.495   2.173   7.371 -0.1214  0.2568  0.4098
   75POPC   C3B 1212   3.383   2.060   6.981 -0.2574  0.1345 -0.2385
   75POPC   C4B 1213   3.639   2.129   6.663  0.2589 -0.0989  0.5315
   76POPC   NC3 1214   4.884   7.828   7.828  0.1768  0.0057  0.1725
   76POPC   PO4 1215   5.351   7.713   7.748 -0.2364 -0.2350 -0.3112
   76POPC   GL1 1216   5.660   7.679   7.458  0.1090  0.1757  0.0850
   76POPC   GL2 1217   5.613   7.357   7.345  0.2419 -0.1020  0.1235
   76POPC   C1A 1218   5.603   7.639   6.954 -0.2339 -0.1502 -0.0437
   76POPC   D2A 1219   5.584   7.687   6.503 -0.1855 -0.1408 -0.1115
   76POPC   C3A 1220   5.504   7.590   6.068 -0.0064 -0.0311  0.0972
   76POPC   C4A 1221   5.398   7.847   5.609  0.1372  0.1333  0.0080
   76POPC   C1B 1222   5.880   7.201   7.074  0.0005  0.0632  0.1180
   76POPC   C2B 1223   6.178   7.067   6.732  0.1673  0.2180 -0.4321
   76POPC   C3B 1224   6.279   6.665   6.472 -0.1862 -0.2725 -0.0760
   76POPC   C4B 1225   6.351   6.524   6.111 -0.0287 -0.0949  0.2563
   77POPC   NC3 1226   9.575   2.589   8.003  0.0965 -0.2189 -0.1135
   77POPC   PO4 1227   9.374   2.792   7.628  0.0725 -0.2518  0.0612
   77POPC   GL1 1228   9.394   2.733   7.179  0.2140  0.1961  0.1067
   77POPC   GL2 1229   9.166   2.866   7.041  0.0787  0.3163  0.1670
   77POPC   C1A 1230   9.617   2.913   6.826  0.0343 -0.0901  0.3156
   77POPC   D2A 1231   9.943   3.202   6.657  0.3174  0.2339  0.0037
   77POPC   C3A 1232   9.646   3.501   6.506  0.1872  0.0348 -0.2037
   77POPC   C4A 1233   9.605   3.613   6.159 -0.0711 -0.0789  0.1401
   77POPC   C1B 1234   9.042   2.846   6.686  0.0909 -0.2000 -0.0277
   77POPC   C2B 1235   9.324   2.900   6.310  0.2628  0.0360 -0.0435
   77POPC   C3B 1236   9.743   2.945   6.196 -0.3275  0.0176  0.3182
   77POPC   C4B 1237  10.007   3.211   6.024 -0.0738  0.3317 -0.0682
   78POPC   NC3 1238   3.073   9.186   8.071 -0.1524  0.3945  0.3382
   78POPC   PO4 1239   2.951   9.454   7.679 -0.0945 -0.1538  0.2617
   78POPC   GL1 1240   3.131   9.586   7.400  0.2250  0.0154 -0.4306
   78POPC   GL2 1241   3.401   9.727   7.455 -0.0437  0.0581  0.1916
   78POPC   C1A 1242   3.116   9.605   7.001 -0.2963  0.0036 -0.0286
   78POPC   D2A 1243   3.070   9.693   6.552  0.0534  0.1600  0.1154
   78POPC   C3A 1244   3.421   9.537   6.332 -0.0299 -0.0083  0.0571
   78POPC   C4A 1245   3.769   9.464   6.050  0.0570  0.1806 -0.1271
   78POPC   C1B 1246   3.621   9.485   7.099  0.0481 -0.1360 -0.0183
   78POPC   C2B 1247   3.823   9.031   7.059  0.0449 -0.0137  0.0433
   78POPC   C3B 1248   3.947   8.619   7.011 -0.2673  0.0186 -0.1725
   78POPC   C4B 1249   4.363   8.837   6.902  0.2744  0.1654 -0.0477
   79POPC   NC3 1250   3.946   3.799   7.924  0.3780 -0.1524  0.4123
   79POPC   PO4 1251   4.166   3.404   7.820 -0.2486  0.0221 -0.1149
   79POPC   GL1 1252   4.149   3.092   7.592  0.1213  0.1404 -0.1711
   79POPC   GL2 1253   4.238   2.766   7.610 -0.0718  0.3951  0.0150
   79POPC   C1A 1254   4.496   2.921   7.235 -0.1214 -0.3988 -0.3601
   79POPC   D2A 1255   4.539   2.668   6.845  0.2445  0.0475  0.3117
   79POPC   C3A 1256   4.863   2.418   6.656  0.1299  0.0693 -0.2562
   79POPC   C4A 1257   5.045   2.053   6.476 -0.3033 -0.1863  0.0611
   79POPC   C1B 1258   4.056   2.754   7.120 -0.2100  0.4643 -0.2008
   79POPC   C2B 1259   4.049   2.759   6.627 -0.0168  0.2563  0.2103
   79POPC   C3B 1260   3.954   2.541   6.160 -0.1989 -0.1832  0.1190
   79POPC   C4B 1261   4.235   2.229   6.027 -0.0513  0.1036 -0.1657
   80POPC   NC3 1262   7.026   4.645   8.497  0.1833 -0.0451 -0.3117
   80POPC   PO4 1263   7.094   4.554   8.036 -0.3994 -0.2939  0.0365
   80POPC   GL1 1264   7.046   4.839   7.662  0.1981 -0.0005 -0.1296
   80POPC   GL2 1265   7.096   5.109   7.520 -0.1481 -0.2250  0.1313
   80POPC   C1A 1266   6.766   4.798   7.289 -0.1741 -0.1109 -0.1032
   80POPC   D2A 1267   6.433   4.780   7.089  0.2846  0.3089  0.0912
   80POPC   C3A 1268   6.396   4.387   6.943 -0.1097  0.1517 -0.0129
   80POPC   C4A 1269   6.628   4.236   6.643 -0.1997  0.0041  0.2182
   80POPC   C1B 1270   7.042   5.215   7.092 -0.0095 -0.0312 -0.1238
   80POPC   C2B 1271   7.066   5.318   6.732  0.1472 -0.0537  0.2030
   80POPC   C3B 1272   6.775   5.294   6.476  0.0016  0.0139  0.1268
   80POPC   C4B 1273   6.399   5.610   6.460 -0.2424 -0.1934 -0.3712
   81POPC   NC3 1274   2.277   5.830   8.581 -0.2827  0.0053 -0.0083
   81POPC   PO4 1275   2.171   5.584   8.228 -0.1201  0.3917  0.1258
   81POPC   GL1 1276   2.226   5.514   7.836  0.4063  0.1541 -0.1284
   81POPC   GL2 1277   2.070   5.717   7.562  0.0402 -0.0544  0.2496
   81POPC   C1A 1278   2.338   5.213   7.510 -0.2457  0.0830  0.1224
   81POPC   D2A 1279   2.667   5.021   7.169  0.1202  0.1421  0.1116
   81POPC   C3A 1280   2.552   4.627   6.815 -0.2753  0.0493 -0.1488
   81POPC   C4A 1281   2.506   4.895   6.387 -0.0274 -0.1050  0.0727
   81POPC   C1B 1282   1.802   5.377   7.444 -0.0989 -0.3486 -0.0602
   81POPC   C2B 1283   1.857   5.164   7.231  0.1260  0.0883  0.0928
   81POPC   C3B 1284   1.781   4.742   7.148  0.0029  0.2132 -0.0912
   81POPC   C4B 1285   1.648   4.628   6.684 -0.0809  0.0237  0.0301
   82POPC   NC3 1286   1.072   4.235   8.035  0.0821  0.2184  0.0206
   82POPC   PO4 1287   1.310   4.555   8.172 -0.1262 -0.1867 -0.0092
   82POPC   GL1 1288   1.472   4.349   7.710 -0.1376 -0.0904  0.0168
   82POPC   GL2 1289   1.783   4.442   7.606  0.1519  0.0443  0.1731
   82POPC   C1A 1290   1.339   4.534   7.243  0.1182  0.2068 -0.0302
   82POPC   D2A 1291   1.148   4.664   6.760 -0.0869  0.3622 -0.1791
   82POPC   C3A 1292   1.120   4.819   6.279 -0.1577  0.0722 -0.0255
   82POPC   C4A 1293   1.413   4.986   6.000  0.0844  0.2208  0.0702
   82POPC   C1B 1294   1.758   4.181   7.232  0.3560  0.3848 -0.0942
   82POPC   C2B 1295   1.667   4.050   6.837 -0.4213  0.0060 -0.1321
   82POPC   C3B 1296   1.718   4.098   6.416  0.0171  0.1249 -0.4112
   82POPC   C4B 1297   1.978   4.211   6.033  0.0354 -0.2364 -0.0775
   83POPC   NC3 1298   3.646   0.752   7.840 -0.0589 -0.0464  0.4834
   83POPC   PO4 1299   3.892   0.437   7.870 -0.0176 -0.0711 -0.2843
   83POPC   GL1 1300   3.782   0.537   7.403  0.1074 -0.4543 -0.2078
   83POPC   GL2 1301   3.954   0.737   7.316  0.2090 -0.0882  0.2144
   83POPC   C1A 1302   3.788   0.301   7.173  0.1313 -0.3093  0.0588
   83POPC   D2A 1303   3.923   0.278   6.728  0.1563 -0.0226  0.1677
   83POPC   C3A 1304   3.980   0.321   6.315  0.0197 -0.3543  0.1544
   83POPC   C4A 1305   4.179   0.589   6.017 -0.1489  0.1938 -0.0221
   83POPC   C1B 1306   3.902   0.737   6.911  0.0082  0.3949  0.1188
   83POPC   C2B 1307   4.021   0.782   6.472 -0.1597  0.1346  0.0253
   83POPC   C3B 1308   4.203   1.074   6.192  0.2446 -0.0590 -0.1488
   83POPC   C4B 1309   4.046   1.566   6.048  0.0188  0.2141 -0.0872
   84POPC   NC3 1310   2.563   3.080   9.071  0.1604 -0.0345 -0.0443
   84POPC   PO4 1311   2.619   3.145   8.586 -0.4008 -0.3218  0.0892
   84POPC   GL1 1312   2.743   3.219   8.155  0.1337 -0.2830  0.1140
   84POPC   GL2 1313   2.465   3.326   8.046  0.1982  0.2063 -0.3904
   84POPC   C1A 1314   2.693   3.149   7.631  0.0437  0.1200  0.0118
   84POPC   D2A 1315   2.832   3.164   7.224  0.2412 -0.2832 -0.3204
   84POPC   C3A 1316   2.745   2.819   6.981  0.4128  0.0833 -0.0371
   84POPC   C4A 1317   2.520   2.434   6.743  0.2458  0.0760 -0.0428
   84POPC   C1B 1318   2.167   3.420   7.695  0.0919  0.4871  0.1108
   84POPC   C2B 1319   1.992   3.434   7.330 -0.2414  0.2467  0.0638
   84POPC   C3B 1320   1.824   3.353   7.073 -0.1432  0.0588 -0.1333
   84POPC   C4B 1321   1.679   2.974   7.083 -0.1817 -0.1096 -0.1693
   85POPC   NC3 1322   1.005   6.045   8.465 -0.2345  0.1599  0.1396
   85POPC   PO4 1323   0.969   5.951   8.059 -0.0019 -0.0239 -0.1475
   85POPC   GL1 1324   1.117   6.027   7.681 -0.1824 -0.1000 -0.1644
   85POPC   GL2 1325   1.264   5.795   7.662 -0.0559  0.1911 -0.2728
   85POPC   C1A 1326   1.269   6.045   7.255 -0.2250 -0.1301 -0.1563
   85POPC   D2A 1327   1.490   5.637   7.034 -0.1799 -0.4303 -0.0197
   85POPC   C3A 1328   1.293   5.454   6.713 -0.1522  0.2264 -0.2555
   85POPC   C4A 1329   1.081   5.183   6.614  0.1067  0.0480  0.0038
   85POPC   C1B 1330   1.265   5.462   7.438 -0.2692  0.0538  0.0586
   85POPC   C2B 1331   0.990   5.657   7.041  0.0259 -0.2318 -0.1229
   85POPC   C3B 1332   0.851   5.828   6.653  0.0136  0.4381  0.2152
   85POPC   C4B 1333   0.750   6.169   6.424  0.0402 -0.0354  0.4431
   86POPC   NC3 1334   4.386   0.670   8.510 -0.2141 -0.1445  0.2464
   86POPC   PO4 1335   4.231   0.796   8.056  0.1582  0.2732 -0.1267
   86POPC   GL1 1336   4.341   0.741   7.630  0.0144  0.1756 -0.1874
   86POPC   GL2 1337   4.307   1.071   7.340  0.0090 -0.1251  0.0485
   86POPC   C1A 1338   4.527   0.649   7.224 -0.0379 -0.0992  0.0340
   86POPC   D2A 1339   4.401   0.718   6.795 -0.1572  0.1454  0.0196
   86POPC   C3A 1340   4.625   0.786   6.425 -0.2193 -0.2156 -0.1796
   86POPC   C4A 1341   4.790   0.997   6.134 -0.1597  0.4085  0.1652
   86POPC   C1B 1342   4.131   1.155   7.037 -0.0662  0.1927 -0.0103
   86POPC   C2B 1343   3.985   1.256   6.587 -0.2152  0.1004 -0.1338
   86POPC   C3B 1344   3.632   1.056   6.267 -0.1097  0.0515 -0.3493
   86POPC   C4B 1345   3.703   0.719   5.931 -0.0191  0.0573 -0.1284
   87POPC   NC3 1346   3.519   4.883   8.431 -0.2993 -0.0918  0.0814
   87POPC   PO4 1347   3.022   4.924   8.275 -0.3655  0.1047 -0.0420
   87POPC   GL1 1348   3.027   5.064   7.810  0.1370 -0.0322  0.2880
   87POPC   GL2 1349   2.891   5.401   7.579 -0.1137 -0.0942  0.0549
   87POPC   C1A 1350   3.115   4.956   7.380 -0.3704  0.0796  0.0613
   87POPC   D2A 1351   3.083   4.918   6.914 -0.0948 -0.1893  0.0758
   87POPC   C3A 1352   2.806   5.155   6.695  0.1212 -0.1634  0.0486
   87POPC   C4A 1353   2.431   5.356   6.327  0.1819 -0.1873 -0.0884
   87POPC   C1B 1354   2.946   5.563   7.258  0.1807  0.0729 -0.0400
   87POPC   C2B 1355   3.119   5.443   6.878 -0.1601  0.0019  0.0849
   87POPC   C3B 1356   3.272   5.274   6.428 -0.0204  0.1975  0.4098
   87POPC   C4B 1357   3.311   5.564   6.077  0.1223 -0.0670 -0.0754
   88POPC   NC3 1358   5.699   3.988   7.966 -0.2295  0.2227  0.1886
   88POPC   PO4 1359   6.087   3.915   7.916  0.3123 -0.1068 -0.1881
   88POPC   GL1 1360   5.955   3.900   7.528 -0.3334 -0.2860  0.0180
   88POPC   GL2 1361   5.927   4.124   7.252  0.0361  0.0415  0.0016
   88POPC   C1A 1362   5.516   3.906   7.255  0.3260  0.0683 -0.1209
   88POPC   D2A 1363   5.059   3.988   6.956  0.0805  0.3305  0.1081
   88POPC   C3A 1364   4.905   4.015   6.565  0.1124  0.0909  0.3246
   88POPC   C4A 1365   5.142   4.247   6.197  0.1129 -0.0642  0.0160
   88POPC   C1B 1366   5.823   3.827   6.866 -0.0844 -0.0434 -0.0727
   88POPC   C2B 1367   5.834   3.744   6.396  0.0559 -0.2354  0.1236
   88POPC   C3B 1368   5.804   3.871   6.114 -0.1686 -0.1469  0.2282
   88POPC   C4B 1369   5.521   4.113   5.845  0.2724  0.2058 -0.1147
   89POPC   NC3 1370  10.493   7.415   7.858  0.0778  0.0761  0.0451
   89POPC   PO4 1371  10.771   7.696   7.727 -0.0887  0.1392 -0.0114
   89POPC   GL1 1372  10.821   7.599   7.207  0.2651  0.1088 -0.2755
   89POPC   GL2 1373  11.094   7.499   7.126 -0.5156 -0.3615  0.2880
   89POPC   C1A 1374  10.666   7.482   6.829 -0.2262  0.1303 -0.1871
   89POPC   D2A 1375  10.698   7.372   6.380 -0.0303  0.2564 -0.0909
   89POPC   C3A 1376  10.493   7.582   6.062  0.0261  0.2309 -0.0560
   89POPC   C4A 1377  10.322   7.828   5.758 -0.2461 -0.1120  0.2091
   89POPC   C1B 1378  11.126   7.644   6.662  0.2011 -0.2954 -0.0769
   89POPC   C2B 1379  11.174   7.755   6.253 -0.1397 -0.0107  0.0268
   89POPC   C3B 1380  11.290   7.789   5.831  0.5406  0.1188  0.3565
   89POPC   C4B 1381  11.192   7.886   5.394 -0.0106  0.0783  0.0687
   90POPC   NC3 1382   1.777   3.344   8.558 -0.0376  0.2543 -0.3892
   90POPC   PO4 1383   2.079   3.407   8.398  0.0113 -0.1809  0.3371
   90POPC   GL1 1384   2.139   3.050   8.206  0.4320 -0.1626  0.0988
   90POPC   GL2 1385   2.260   2.746   8.239 -0.1820  0.3148  0.0619
   90POPC   C1A 1386   2.340   2.917   7.800 -0.0252  0.2259  0.0724
   90POPC   D2A 1387   2.412   2.536   7.552 -0.2588 -0.1029  0.2753
   90POPC   C3A 1388   2.224   2.172   7.843 -0.2520 -0.3712  0.0753
   90POPC   C4A 1389   1.832   1.989   7.916 -0.4936  0.1411  0.1226
   90POPC   C1B 1390   2.646   2.721   8.107  0.0776  0.0795  0.2213
   90POPC   C2B 1391   2.857   2.740   7.816  0.0051 -0.1885  0.0412
   90POPC   C3B 1392   2.849   2.569   7.362  0.0432  0.3600  0.1889
   90POPC   C4B 1393   3.048   2.434   7.091  0.1250  0.1206 -0.2913
   91POPC   NC3 1394   0.899   9.074   7.543  0.1092 -0.0848 -0.0615
   91POPC   PO4 1395   0.634   8.815   7.242  0.2682 -0.1043  0.5440
   91POPC   GL1 1396   0.471   8.667   6.966  0.2459 -0.0629  0.2441
   91POPC   GL2 1397   0.529   8.408   6.800  0.0545 -0.0697 -0.1613
   91POPC   C1A 1398   0.344   8.780   6.593  0.0638 -0.4855  0.2147
   91POPC   D2A 1399   0.183   9.036   6.222 -0.0824  0.1641 -0.2318
   91POPC   C3A 1400   0.322   9.345   5.792  0.3088 -0.2756 -0.1711
   91POPC   C4A 1401   0.651   9.502   5.682  0.2072 -0.4762  0.0877
   91POPC   C1B 1402   0.562   8.278   6.427 -0.3229 -0.0685 -0.1660
   91POPC   C2B 1403   0.635   8.279   5.994  0.0515 -0.2594  0.4061
   91POPC   C3B 1404   0.667   8.515   5.663  0.0274  0.1201  0.1542
   91POPC   C4B 1405   0.618   8.717   5.286 -0.0001  0.1037 -0.1689
   92POPC   NC3 1406  10.294  10.499   7.774 -0.3159 -0.1771 -0.2108
   92POPC   PO4 1407  10.174  10.064   7.842 -0.2283  0.1429 -0.2701
   92POPC   GL1 1408  10.259  10.014   7.444  0.1392  0.0010  0.0310
   92POPC   GL2 1409  10.571   9.915   7.355  0.1013 -0.2618  0.1739
   92POPC   C1A 1410  10.132  10.044   7.088 -0.2628  0.1016 -0.2128
   92POPC   D2A 1411  10.138  10.218   6.557  0.0412  0.3552 -0.0435
   92POPC   C3A 1412  10.459  10.437   6.469 -0.1630 -0.0430 -0.1327
   92POPC   C4A 1413  10.571  10.761   6.174  0.0500 -0.0841 -0.0684
   92POPC   C1B 1414  10.604  10.211   6.955 -0.1195 -0.1454  0.1080
   92POPC   C2B 1415  10.690  10.617   6.858  0.4585 -0.3673  0.1249
   92POPC   C3B 1416  10.654  10.975   6.640 -0.2223 -0.1621  0.1736
   92POPC   C4B 1417  10.897  11.217   6.387  0.2017  0.1180  0.0139
   93POPC   NC3 1418   4.077   9.692   7.600 -0.0440 -0.0899  0.1192
   93POPC   PO4 1419   3.742   9.993   7.821  0.0592  0.1447  0.1786
   93POPC   GL1 1420   4.041  10.211   7.476 -0.0175 -0.0694  0.2755
   93POPC   GL2 1421   4.381  10.178   7.575  0.1389  0.0741 -0.0828
   93POPC   C1A 1422   4.086  10.387   7.026  0.2146  0.1467  0.0129
   93POPC   D2A 1423   3.795  10.400   6.665  0.1800  0.1540  0.2925
   93POPC   C3A 1424   3.666  10.539   6.192  0.0768 -0.2120  0.1229
   93POPC   C4A 1425   3.629  10.839   5.889  0.2936  0.0578 -0.0185
   93POPC   C1B 1426   4.512  10.200   7.057 -0.0740 -0.0867  0.2535
   93POPC   C2B 1427   4.527   9.987   6.607 -0.1866 -0.1943 -0.0177
   93POPC   C3B 1428   4.305   9.546   6.452 -0.3678 -0.0978 -0.1680
   93POPC   C4B 1429   4.220   9.130   6.376  0.2649  0.0275  0.1688
   94POPC   NC3 1430   6.483   7.027   8.154 -0.3658  0.1096  0.0489
   94POPC   PO4 1431   6.705   6.633   8.029  0.0041  0.2720 -0.2847
   94POPC   GL1 1432   6.733   6.300   7.729 -0.0723  0.1528 -0.2339
   94POPC   GL2 1433   7.005   6.064   7.758  0.0801 -0.2189  0.2727
   94POPC   C1A 1434   6.586   6.071   7.438  0.0558 -0.1405  0.1762
   94POPC   D2A 1435   6.674   6.133   6.948 -0.0225 -0.0121 -0.0685
   94POPC   C3A 1436   6.323   6.122   6.705  0.2164 -0.4831 -0.2101
   94POPC   C4A 1437   6.040   6.261   6.508 -0.1353  0.0819  0.1126
   94POPC   C1B 1438   7.168   6.089   7.304  0.1243  0.1651  0.1660
   94POPC   C2B 1439   7.127   6.028   6.922  0.0921 -0.0461 -0.0164
   94POPC   C3B 1440   7.205   6.193   6.513  0.1565  0.2766  0.1551
   94POPC   C4B 1441   7.011   6.208   6.086 -0.2574  0.0645  0.0140
   95POPC   NC3 1442   5.459   1.182   7.941  0.0891 -0.1241  0.5913
   95POPC   PO4 1443   5.859   1.165   8.003  0.3520 -0.2971  0.0683
   95POPC   GL1 1444   5.842   1.388   7.589 -0.0770 -0.0552 -0.0515
   95POPC   GL2 1445   5.804   1.781   7.521  0.2246 -0.3054  0.0186
   95POPC   C1A 1446   5.692   1.364   7.165 -0.0374 -0.0238  0.3336
   95POPC   D2A 1447   5.804   1.280   6.759  0.1481 -0.1096 -0.2055
   95POPC   C3A 1448   5.580   0.940   6.612  0.2837 -0.1952  0.1887
   95POPC   C4A 1449   5.126   0.833   6.513 -0.3160  0.1183 -0.0378
   95POPC   C1B 1450   6.185   1.777   7.335  0.1991  0.0730  0.0817
   95POPC   C2B 1451   6.319   1.457   7.026 -0.1027  0.6286 -0.1508
   95POPC   C3B 1452   6.632   1.360   6.933  0.0679  0.1207 -0.0784
   95POPC   C4B 1453   7.064   1.274   7.124  0.0795  0.2599 -0.3195
   96POPC   NC3 1454   2.827   6.067   8.233  0.0481 -0.0894  0.0570
   96POPC   PO4 1455   2.438   6.354   8.420 -0.0615 -0.2806  0.2613
   96POPC   GL1 1456   2.480   6.510   7.886 -0.0406 -0.4006 -0.1622
   96POPC   GL2 1457   2.511   6.859   7.808 -0.0703 -0.0747 -0.0177
   96POPC   C1A 1458   2.420   6.345   7.416 -0.0384  0.1664 -0.1630
   96POPC   D2A 1459   2.067   6.354   7.081  0.2152 -0.4983  0.1126
   96POPC   C3A 1460   2.002   6.719   6.931 -0.0367  0.2049  0.1225
   96POPC   C4A 1461   2.205   6.972   6.570  0.0558 -0.1809 -0.1039
   96POPC   C1B 1462   2.693   6.824   7.357  0.2227 -0.2635  0.3388
   96POPC   C2B 1463   2.675   6.484   6.972  0.3007  0.0635 -0.1861
   96POPC   C3B 1464   2.439   6.138   6.812  0.0499  0.0434  0.2847
   96POPC   C4B 1465   2.412   5.842   6.474 -0.1110  0.0248 -0.1603
   97POPC   NC3 1466   3.487   5.518   7.724 -0.0283  0.0755  0.1338
   97POPC   PO4 1467   3.611   5.145   7.918 -0.2201  0.1101 -0.0425
   97POPC   GL1 1468   3.684   5.091   7.495 -0.4783 -0.1901 -0.1525
   97POPC   GL2 1469   3.473   5.368   7.245  0.0940 -0.1043 -0.1724
   97POPC   C1A 1470   3.957   5.157   7.148 -0.1075  0.1924 -0.1639
   97POPC   D2A 1471   4.093   5.278   6.697  0.1357  0.0188 -0.1208
   97POPC   C3A 1472   4.495   5.357   6.646 -0.2647  0.1526 -0.1058
   97POPC   C4A 1473   5.007   5.304   6.766 -0.0450 -0.1066  0.1382
   97POPC   C1B 1474   3.550   5.068   6.859 -0.0253  0.1286  0.0941
   97POPC   C2B 1475   3.751   4.979   6.517  0.0898  0.0259 -0.2724
   97POPC   C3B 1476   3.783   4.765   6.097  0.2533  0.2982  0.1207
   97POPC   C4B 1477   3.861   4.650   5.688 -0.3657  0.0194  0.0174
   98POPC   NC3 1478   9.284   8.729   7.691 -0.0581 -0.1972 -0.0915
   98POPC   PO4 1479   9.230   9.137   7.667 -0.4449 -0.0086 -0.1612
   98POPC   GL1 1480   8.996   9.136   7.328  0.0860 -0.0390  0.1093
   98POPC   GL2 1481   8.732   9.270   7.239 -0.1773  0.0942  0.0390
   98POPC   C1A 1482   9.113   9.096   6.942  0.0328  0.1740  0.0510
   98POPC   D2A 1483   9.118   9.414   6.540  0.0109  0.4872 -0.0252
   98POPC   C3A 1484   8.967   9.268   6.133  0.1326 -0.1545  0.0051
   98POPC   C4A 1485   8.600   9.462   5.867  0.1377  0.0120  0.0021
   98POPC   C1B 1486   8.647   9.369   6.788  0.1618  0.1100  0.0472
   98POPC   C2B 1487   8.505   9.378   6.340 -0.3937  0.2390 -0.0990
   98POPC   C3B 1488   8.138   9.141   6.072 -0.0860  0.1767 -0.3276
   98POPC   C4B 1489   7.998   9.042   5.589  0.1007 -0.1114 -0.2754
   99POPC   NC3 1490   9.099   5.483   8.082 -0.0787 -0.2293 -0.2192
   99POPC   PO4 1491   9.568   5.393   8.187  0.1701 -0.1235  0.0737
   99POPC   GL1 1492   9.528   5.426   7.735 -0.2165  0.3153 -0.1932
   99POPC   GL2 1493   9.790   5.310   7.591  0.2759 -0.2328  0.1226
   99POPC   C1A 1494   9.226   5.526   7.363 -0.0580  0.1311  0.0449
   99POPC   D2A 1495   9.189   5.472   6.950 -0.1536 -0.0177 -0.0032
   99POPC   C3A 1496   9.406   5.656   6.555  0.2192 -0.2965  0.3199
   99POPC   C4A 1497   9.454   5.876   6.110 -0.2754 -0.3376 -0.1729
   99POPC   C1B 1498   9.676   5.308   7.156 -0.1915  0.2802  0.1616
   99POPC   C2B 1499   9.769   5.549   6.791 -0.1620  0.0204  0.1693
   99POPC   C3B 1500  10.147   5.786   6.731  0.3164  0.1773  0.2668
   99POPC   C4B 1501  10.384   6.106   6.819  0.2770  0.0783  0.0949
  100POPC   NC3 1502   2.441   9.453   7.684 -0.0264 -0.0740  0.1529
  100POPC   PO4 1503   2.344   8.993   7.535  0.0483  0.2291  0.3590
  100POPC   GL1 1504   2.319   9.276   7.190 -0.2096 -0.0595 -0.0706
  100POPC   GL2 1505   2.665   9.278   7.180  0.0551 -0.0463  0.1447
  100POPC   C1A 1506   2.320   9.468   6.809  0.0378  0.2077  0.2800
  100POPC   D2A 1507   2.574   9.540   6.445  0.0671  0.0957  0.0948
  100POPC   C3A 1508   2.508   9.146   6.068  0.2183 -0.1800  0.1997
  100POPC   C4A 1509   2.571   8.710   6.148  0.2300  0.1998 -0.0449
  100POPC   C1B 1510   2.774   9.223   6.752 -0.1182  0.1542  0.0371
  100POPC   C2B 1511   3.010   9.218   6.263  0.1380 -0.0413 -0.1895
  100POPC   C3B 1512   3.327   9.289   5.849  0.0896 -0.1671 -0.0787
  100POPC   C4B 1513   3.380   9.686   5.654 -0.1849  0.0424 -0.3186
  101POPC   NC3 1514   5.031   7.564   8.518  0.2354  0.0900  0.2765
  101POPC   PO4 1515   5.080   7.383   8.052  0.0743  0.0969 -0.2742
  101POPC   GL1 1516   5.141   7.261   7.596  0.0901  0.0004  0.0246
  101POPC   GL2 1517   4.852   6.951   7.531  0.1327  0.1257 -0.1332
  101POPC   C1A 1518   5.318   6.885   7.359 -0.1081  0.1317 -0.3358
  101POPC   D2A 1519   5.566   6.747   7.054  0.0172  0.2617 -0.1691
  101POPC   C3A 1520   5.368   6.392   6.996  0.0755 -0.0011 -0.0466
  101POPC   C4A 1521   5.294   6.053   7.292 -0.1882 -0.0413 -0.0211
  101POPC   C1B 1522   4.648   7.063   7.164 -0.2609  0.0629 -0.0124
  101POPC   C2B 1523   4.654   7.164   6.684 -0.1897  0.1736 -0.0199
  101POPC   C3B 1524   4.787   6.988   6.260  0.0011  0.2989 -0.1217
  101POPC   C4B 1525   4.790   6.914   5.764  0.1847 -0.1843  0.2172
  102POPC   NC3 1526   7.762   2.472   7.751 -0.2437  0.1441  0.2207
  102POPC   PO4 1527   7.866   2.810   8.011  0.2633 -0.2844  0.0470
  102POPC   GL1 1528   7.951   3.034   7.554  0.1339 -0.0648 -0.0555
  102POPC   GL2 1529   8.017   3.395   7.583 -0.1156 -0.0829  0.0079
  102POPC   C1A 1530   7.874   3.070   7.149 -0.0953  0.0018 -0.1033
  102POPC   D2A 1531   7.670   2.747   6.833  0.0231 -0.1424 -0.1011
  102POPC   C3A 1532   7.267   2.795   6.747  0.2821  0.1680  0.3558
  102POPC   C4A 1533   7.354   2.662   6.256  0.1774  0.1950 -0.0262
  102POPC   C1B 1534   8.274   3.420   7.181  0.0521 -0.0223  0.2106
  102POPC   C2B 1535   8.394   3.133   6.819 -0.1678  0.1339 -0.1850
  102POPC   C3B 1536   8.295   3.238   6.340  0.0365 -0.1910  0.1249
  102POPC   C4B 1537   8.073   3.086   5.955  0.1524 -0.2368 -0.2034
  103POPC   NC3 1538   6.048   6.701   8.689 -0.3760 -0.0175  0.3937
  103POPC   PO4 1539   6.058   6.732   8.246  0.1133  0.3734 -0.2042
  103POPC   GL1 1540   5.721   6.603   7.841 -0.0241  0.0383 -0.0768
  103POPC   GL2 1541   5.778   6.890   7.561 -0.0337  0.0605  0.0837
  103POPC   C1A 1542   5.751   6.394   7.368 -0.0724 -0.1550  0.0002
  103POPC   D2A 1543   6.005   6.534   6.985  0.2551  0.0901  0.1468
  103POPC   C3A 1544   5.739   6.661   6.648 -0.0397  0.1993  0.1534
  103POPC   C4A 1545   5.776   6.800   6.339 -0.1586  0.0212  0.1724
  103POPC   C1B 1546   6.256   6.966   7.383 -0.0722 -0.1209  0.2299
  103POPC   C2B 1547   6.660   6.999   7.011 -0.0072 -0.1527 -0.3891
  103POPC   C3B 1548   6.662   7.006   6.621 -0.3160  0.0501  0.3673
  103POPC   C4B 1549   6.823   7.272   6.342  0.2940 -0.1469  0.2800
  104POPC   NC3 1550   1.509   4.280   8.598 -0.0899  0.2445  0.0788
  104POPC   PO4 1551   1.505   3.971   8.218  0.0566 -0.0484 -0.0154
  104POPC   GL1 1552   1.465   3.820   7.770 -0.0595 -0.2068 -0.1035
  104POPC   GL2 1553   1.816   3.963   7.671  0.2983  0.1740 -0.3368
  104POPC   C1A 1554   1.195   3.722   7.553 -0.5091  0.2587  0.0079
  104POPC   D2A 1555   1.399   3.718   7.133 -0.1441 -0.2786 -0.0504
  104POPC   C3A 1556   1.181   3.724   6.675 -0.2365  0.1360  0.0955
  104POPC   C4A 1557   1.164   3.848   6.294  0.0251 -0.1212 -0.0145
  104POPC   C1B 1558   2.104   3.921   7.460  0.0371  0.2167  0.0053
  104POPC   C2B 1559   2.210   3.781   7.045 -0.0356  0.1914  0.0097
  104POPC   C3B 1560   2.152   3.948   6.550  0.1174  0.2030 -0.2135
  104POPC   C4B 1561   1.985   3.644   6.165  0.0925 -0.0370  0.0380
  105POPC   NC3 1562   8.952   9.547   7.621  0.1494  0.1034  0.0838
  105POPC   PO4 1563   8.800  10.007   7.750 -0.0833 -0.0471 -0.2981
  105POPC   GL1 1564   8.794  10.119   7.318 -0.2287 -0.1800  0.1772
  105POPC   GL2 1565   8.845   9.743   7.175 -0.1401  0.1769  0.1678
  105POPC   C1A 1566   8.668  10.337   6.934 -0.0905 -0.0553  0.0567
  105POPC   D2A 1567   8.575  10.243   6.466  0.2232  0.0168  0.1783
  105POPC   C3A 1568   8.493  10.395   6.016  0.2592  0.0450  0.1219
  105POPC   C4A 1569   8.753  10.601   5.611  0.1786  0.3970  0.0586
  105POPC   C1B 1570   9.035   9.907   6.864 -0.3006 -0.1158  0.0709
  105POPC   C2B 1571   8.874   9.795   6.485  0.0616 -0.0977  0.2195
  105POPC   C3B 1572   8.686   9.877   6.089 -0.0653 -0.1402 -0.1999
  105POPC   C4B 1573   8.361   9.994   5.866  0.0697  0.0945 -0.0984
  106POPC   NC3 1574   8.692   7.950   7.857 -0.1379 -0.1907 -0.2638
  106POPC   PO4 1575   8.704   7.643   7.648  0.1388 -0.4660 -0.0191
  106POPC   GL1 1576   8.599   7.341   7.317  0.1247 -0.1350 -0.0973
  106POPC   GL2 1577   8.256   7.278   7.267  0.0331  0.3368  0.1019
  106POPC   C1A 1578   8.705   7.220   6.872 -0.1156  0.1828 -0.1565
  106POPC   D2A 1579   8.760   7.213   6.436  0.1804 -0.1404  0.1677
  106POPC   C3A 1580   8.637   7.553   6.146 -0.4290 -0.0025  0.2962
  106POPC   C4A 1581   8.191   7.749   5.976 -0.1343 -0.0160 -0.0916
  106POPC   C1B 1582   8.008   7.239   6.989  0.1973  0.1153 -0.1476
  106POPC   C2B 1583   7.724   7.548   6.824 -0.2029 -0.0546 -0.0958
  106POPC   C3B 1584   7.815   7.915   6.844  0.0426  0.1476  0.3254
  106POPC   C4B 1585   8.101   8.138   7.102  0.0403  0.0290 -0.2412
  107POPC   NC3 1586   1.439  10.112   7.849  0.0926 -0.1825  0.1092
  107POPC   PO4 1587   1.587   9.724   7.521 -0.1830 -0.3452 -0.1244
  107POPC   GL1 1588   1.602   9.838   7.100 -0.0579  0.1335  0.0777
  107POPC   GL2 1589   1.862   9.612   6.966 -0.0720  0.1378 -0.1153
  107POPC   C1A 1590   1.607  10.168   6.778 -0.1852  0.0223 -0.1077
  107POPC   D2A 1591   1.984  10.378   6.537 -0.1271 -0.1205 -0.0599
  107POPC   C3A 1592   1.850  10.620   6.220  0.2311 -0.0456  0.1458
  107POPC   C4A 1593   1.964  10.665   5.778 -0.0148 -0.0314  0.3476
  107POPC   C1B 1594   1.658   9.574   6.636  0.0672 -0.0418 -0.0834
  107POPC   C2B 1595   1.430   9.699   6.302  0.1519  0.3180  0.0342
  107POPC   C3B 1596   1.376   9.986   5.864  0.1780 -0.3042  0.0404
  107POPC   C4B 1597   1.579  10.257   5.592 -0.0778 -0.0282 -0.0281
  108POPC   NC3 1598   6.926   0.443   7.956 -0.2258  0.3141 -0.3180
  108POPC   PO4 1599   6.687   0.010   7.798 -0.1855 -0.0008 -0.0240
  108POPC   GL1 1600   6.806   0.041   7.415 -0.0548  0.2102 -0.0188
  108POPC   GL2 1601   6.637   0.039   7.125  0.0515 -0.0564 -0.0056
  108POPC   C1A 1602   7.057  -0.181   7.049 -0.1003 -0.0079  0.1030
  108POPC   D2A 1603   7.414  -0.223   6.959  0.0153 -0.1210  0.1338
  108POPC   C3A 1604   7.162  -0.351   6.557  0.2229  0.2224 -0.2026
  108POPC   C4A 1605   6.784  -0.608   6.353  0.0693 -0.4789  0.0268
  108POPC   C1B 1606   6.571   0.406   6.792 -0.3163 -0.2397 -0.4529
  108POPC   C2B 1607   6.455   0.719   6.461  0.1819  0.1409  0.0017
  108POPC   C3B 1608   6.349   0.884   6.153 -0.1301 -0.0396 -0.1046
  108POPC   C4B 1609   6.126   1.084   5.797 -0.2053 -0.0505  0.1299
  109POPC   NC3 1610   0.920   4.931   8.114  0.0302 -0.1960  0.1876
  109POPC   PO4 1611   0.602   4.795   7.949 -0.0773  0.2821  0.0240
  109POPC   GL1 1612   0.449   4.731   7.573 -0.0074  0.0103  0.0379
  109POPC   GL2 1613   0.691   4.574   7.314 -0.0590  0.0991  0.1406
  109POPC   C1A 1614   0.249   4.706   7.105  0.0651  0.1550 -0.1050
  109POPC   D2A 1615   0.155   4.792   6.638 -0.1102  0.0004  0.0385
  109POPC   C3A 1616   0.268   4.621   6.300 -0.3812 -0.2401  0.1193
  109POPC   C4A 1617   0.154   4.459   5.906 -0.0236 -0.1045  0.0923
  109POPC   C1B 1618   0.681   4.382   6.816 -0.1071  0.2415 -0.1704
  109POPC   C2B 1619   0.768   4.367   6.364 -0.0767 -0.0433 -0.2776
  109POPC   C3B 1620   1.051   4.274   6.023  0.3396 -0.1075 -0.2816
  109POPC   C4B 1621   1.230   4.566   5.742 -0.0429 -0.2030  0.0149
  110POPC   NC3 1622   0.446   1.091   8.740  0.1675 -0.0377  0.2152
  110POPC   PO4 1623   0.574   1.380   8.496  0.2982  0.1711 -0.0051
  110POPC   GL1 1624   0.648   1.077   8.156  0.3434 -0.0694 -0.1321
  110POPC   GL2 1625   0.446   0.804   8.026  0.0335  0.0849  0.2666
  110POPC   C1A 1626   0.633   1.150   7.672  0.1514  0.0031 -0.0660
  110POPC   D2A 1627   0.563   1.500   7.393  0.0102 -0.0675  0.1642
  110POPC   C3A 1628   0.903   1.789   7.282 -0.0201 -0.0237  0.3526
  110POPC   C4A 1629   1.345   1.866   7.015 -0.2121  0.1716  0.0347
  110POPC   C1B 1630   0.766   0.697   7.814  0.2968 -0.0862  0.0887
  110POPC   C2B 1631   0.838   0.552   7.467  0.1881  0.2106  0.1716
  110POPC   C3B 1632   0.939   0.572   7.107 -0.1528 -0.1781  0.0614
  110POPC   C4B 1633   1.059   0.301   6.735  0.0389  0.3897  0.0346
  111POPC   NC3 1634   6.075   9.595   8.494 -0.1835  0.3010  0.0825
  111POPC   PO4 1635   5.828   9.816   8.121  0.1464  0.0299  0.1774
  111POPC   GL1 1636   5.791   9.593   7.704 -0.2065  0.0500  0.1612
  111POPC   GL2 1637   5.452   9.630   7.523  0.0078 -0.1967 -0.1157
  111POPC   C1A 1638   5.685   9.210   7.354 -0.1547 -0.2793  0.0286
  111POPC   D2A 1639   5.667   9.077   6.960 -0.1414  0.0032  0.0897
  111POPC   C3A 1640   5.914   8.943   6.630 -0.2413  0.2508 -0.2176
  111POPC   C4A 1641   6.166   8.875   6.254 -0.0475 -0.1890  0.0494
  111POPC   C1B 1642   5.756   9.645   7.088  0.0703 -0.0630 -0.1415
  111POPC   C2B 1643   5.817   9.895   6.635  0.4284 -0.0694 -0.2901
  111POPC   C3B 1644   6.061   9.747   6.223  0.2570 -0.1443 -0.0251
  111POPC   C4B 1645   6.403   9.779   5.931 -0.0178 -0.1297  0.0308
  112POPC   NC3 1646   9.371   8.494   8.156 -0.3876  0.1989  0.3255
  112POPC   PO4 1647   9.095   8.215   7.904 -0.3760 -0.1158 -0.1914
  112POPC   GL1 1648   8.963   8.155   7.502 -0.0161  0.0866 -0.1841
  112POPC   GL2 1649   9.173   8.091   7.409  0.0318  0.2320  0.1937
  112POPC   C1A 1650   8.873   7.856   7.083  0.2615  0.0682  0.0611
  112POPC   D2A 1651   8.800   7.698   6.742  0.0997  0.3410 -0.0590
  112POPC   C3A 1652   8.996   7.866   6.373  0.0631  0.2345 -0.0435
  112POPC   C4A 1653   9.148   7.985   5.948 -0.0795 -0.0688 -0.1290
  112POPC   C1B 1654   9.495   8.206   7.075  0.1447 -0.2301 -0.0225
  112POPC   C2B 1655   9.547   8.412   6.688  0.3561 -0.2427 -0.1162
  112POPC   C3B 1656   9.585   8.423   6.335  0.1430  0.1602 -0.1119
  112POPC   C4B 1657   9.682   8.717   5.912  0.0312  0.1604  0.2491
  113POPC   NC3 1658   7.963   1.780   8.049  0.1038  0.0192 -0.3293
  113POPC   PO4 1659   7.623   1.991   8.106  0.1406 -0.0592 -0.1126
  113POPC   GL1 1660   7.493   1.931   7.668  0.0106 -0.1728  0.1358
  113POPC   GL2 1661   7.760   2.126   7.419  0.0081  0.1181  0.1709
  113POPC   C1A 1662   7.403   1.820   7.197 -0.0385  0.0172  0.0142
  113POPC   D2A 1663   7.533   1.720   6.799  0.1938  0.1940  0.1812
  113POPC   C3A 1664   7.547   1.882   6.361 -0.1718  0.0206  0.2538
  113POPC   C4A 1665   7.696   1.952   6.033 -0.2348  0.3131 -0.4411
  113POPC   C1B 1666   7.838   2.122   7.049  0.0210 -0.0823  0.0485
  113POPC   C2B 1667   8.012   1.909   6.647 -0.2886  0.1048 -0.0891
  113POPC   C3B 1668   8.059   1.778   6.283 -0.0538 -0.0438  0.1408
  113POPC   C4B 1669   8.009   1.612   5.873  0.2718  0.1727  0.1563
  114POPC   NC3 1670   2.543   8.300   7.633 -0.1436  0.0430  0.2062
  114POPC   PO4 1671   2.925   7.984   7.804 -0.1413 -0.2058 -0.0078
  114POPC   GL1 1672   2.762   7.916   7.376  0.0194 -0.2652  0.2939
  114POPC   GL2 1673   2.889   8.152   7.197  0.0579 -0.1350 -0.1828
  114POPC   C1A 1674   2.699   7.624   7.120  0.5120 -0.1270 -0.0924
  114POPC   D2A 1675   2.729   7.335   6.802 -0.0607 -0.2510 -0.1805
  114POPC   C3A 1676   2.874   7.444   6.469 -0.1369  0.0946 -0.1310
  114POPC   C4A 1677   2.836   7.648   6.131 -0.3332  0.1867 -0.1207
  114POPC   C1B 1678   3.034   8.416   6.896 -0.2213 -0.0652  0.3632
  114POPC   C2B 1679   2.927   8.258   6.509  0.0456 -0.1895  0.3839
  114POPC   C3B 1680   3.039   8.130   6.039  0.0897  0.0225 -0.0123
  114POPC   C4B 1681   3.249   7.764   5.946  0.2128 -0.1295  0.0217
  115POPC   NC3 1682   5.805   0.616   8.006  0.0672 -0.1706 -0.0452
  115POPC   PO4 1683   5.451   0.662   7.946  0.0309 -0.2174 -0.1150
  115POPC   GL1 1684   5.426   0.701   7.574 -0.3093  0.3458  0.2795
  115POPC   GL2 1685   5.347   1.031   7.485  0.0572  0.2335 -0.4812
  115POPC   C1A 1686   5.212   0.528   7.274  0.0960 -0.1580  0.1822
  115POPC   D2A 1687   5.270   0.128   7.132  0.2450 -0.1203 -0.1125
  115POPC   C3A 1688   5.427   0.016   6.656 -0.1682  0.1063 -0.0304
  115POPC   C4A 1689   5.549  -0.324   6.333 -0.2282  0.0906  0.0702
  115POPC   C1B 1690   5.228   1.023   6.999 -0.2171  0.0803  0.0677
  115POPC   C2B 1691   4.790   1.009   6.916  0.0787 -0.1674 -0.1431
  115POPC   C3B 1692   4.557   1.239   6.575 -0.0391  0.0061  0.3815
  115POPC   C4B 1693   4.557   1.491   6.248  0.1257 -0.0411  0.2732
  116POPC   NC3 1694   3.241  10.529   8.361 -0.0863  0.4857  0.0710
  116POPC   PO4 1695   3.326  10.458   7.944  0.3774  0.1882  0.2146
  116POPC   GL1 1696   3.335  10.608   7.548 -0.1914 -0.0094 -0.1499
  116POPC   GL2 1697   3.448  10.370   7.411 -0.1276  0.2249  0.0255
  116POPC   C1A 1698   3.248  11.005   7.353 -0.1261 -0.1688 -0.3576
  116POPC   D2A 1699   3.421  11.477   7.306  0.1330 -0.0749 -0.0223
  116POPC   C3A 1700   3.071  11.689   7.143 -0.1827 -0.0943 -0.1788
  116POPC   C4A 1701   2.741  11.726   6.788  0.2695 -0.0948  0.0290
  116POPC   C1B 1702   3.450  10.580   7.040  0.1848  0.0170  0.2110
  116POPC   C2B 1703   3.454  10.860   6.727  0.0126  0.2643 -0.1370
  116POPC   C3B 1704   3.424  11.102   6.375  0.1902 -0.0273 -0.0121
  116POPC   C4B 1705   3.142  11.407   6.306 -0.1525 -0.2470 -0.0730
  117POPC   NC3 1706   9.963   5.033   7.988 -0.1355  0.0840 -0.4047
  117POPC   PO4 1707  10.174   5.062   7.749  0.0840 -0.2005  0.3801
  117POPC   GL1 1708  10.094   4.985   7.336 -0.4347  0.1620  0.0918
  117POPC   GL2 1709   9.875   4.800   7.402 -0.2527 -0.1750  0.0983
  117POPC   C1A 1710  10.296   4.803   6.969  0.0333  0.0204 -0.0171
  117POPC   D2A 1711  10.311   4.633   6.557  0.1086 -0.2979 -0.2849
  117POPC   C3A 1712  10.460   4.910   6.220  0.0285  0.0747 -0.3436
  117POPC   C4A 1713  10.278   5.198   5.880  0.3805  0.3039 -0.0533
  117POPC   C1B 1714   9.785   4.881   6.929  0.0731  0.0113 -0.1425
  117POPC   C2B 1715   9.957   5.042   6.652 -0.3046 -0.3570  0.1894
  117POPC   C3B 1716   9.946   5.253   6.320 -0.0887 -0.2231 -0.0199
  117POPC   C4B 1717   9.877   5.630   6.203  0.0050  0.3430 -0.1967
  118POPC   NC3 1718  10.358   6.950   7.722 -0.0286  0.2707  0.0929
  118POPC   PO4 1719  10.191   6.563   7.964  0.0533  0.2282 -0.1140
  118POPC   GL1 1720  10.171   6.478   7.568 -0.0693  0.0844 -0.0934
  118POPC   GL2 1721  10.204   6.185   7.315 -0.0564 -0.1708 -0.0603
  118POPC   C1A 1722  10.451   6.590   7.125  0.1268  0.0583 -0.0103
  118POPC   D2A 1723  10.594   6.716   6.739  0.0131 -0.2657 -0.0733
  118POPC   C3A 1724  10.461   6.845   6.399 -0.0024 -0.1108  0.2251
  118POPC   C4A 1725  10.111   7.154   6.347 -0.0252  0.0330 -0.1224
  118POPC   C1B 1726   9.827   6.166   6.914  0.0572  0.1466 -0.0032
  118POPC   C2B 1727   9.832   6.118   6.498  0.2685 -0.3986  0.1816
  118POPC   C3B 1728   9.919   6.104   5.964  0.0455  0.0731  0.3706
  118POPC   C4B 1729   9.550   6.130   5.675 -0.0824 -0.0040 -0.2452
  119POPC   NC3 1730   2.063   9.934   8.402 -0.0161 -0.0141 -0.4188
  119POPC   PO4 1731   1.971  10.032   7.901  0.0021 -0.1247 -0.1485
  119POPC   GL1 1732   1.814  10.171   7.469  0.0945 -0.1552  0.1571
  119POPC   GL2 1733   1.558  10.380   7.396  0.0392 -0.0970  0.1421
  119POPC   C1A 1734   1.996  10.119   7.095 -0.0126 -0.0882 -0.2100
  119POPC   D2A 1735   2.244   9.972   6.860  0.0770  0.1202  0.2563
  119POPC   C3A 1736   2.086   9.846   6.498 -0.0586 -0.0233  0.3118
  119POPC   C4A 1737   1.780  10.067   6.177 -0.0294 -0.1687  0.0753
  119POPC   C1B 1738   1.195  10.223   7.061  0.1884  0.3220  0.0145
  119POPC   C2B 1739   0.937  10.412   6.743  0.0082  0.2456 -0.2614
  119POPC   C3B 1740   0.961  10.523   6.305  0.3185  0.3022  0.4131
  119POPC   C4B 1741   0.840  10.571   5.902 -0.4529  0.3628  0.0282
  120POPC   NC3 1742   7.318   3.029   8.177 -0.1687 -0.0579 -0.0965
  120POPC   PO4 1743   7.434   3.433   8.117 -0.2950  0.1763  0.0997
  120POPC   GL1 1744   7.454   3.176   7.665 -0.1693 -0.2815  0.0192
  120POPC   GL2 1745   7.406   2.874   7.690 -0.0412  0.1474  0.0802
  120POPC   C1A 1746   7.526   3.450   7.319 -0.3095 -0.0946  0.0407
  120POPC   D2A 1747   7.721   3.756   6.975 -0.2235 -0.1834  0.0110
  120POPC   C3A 1748   7.437   4.074   6.684  0.1540 -0.0139 -0.0039
  120POPC   C4A 1749   7.106   4.215   6.790 -0.1793  0.0064 -0.0740
  120POPC   C1B 1750   6.994   2.957   7.638  0.3401 -0.0969  0.1500
  120POPC   C2B 1751   6.687   3.076   7.452 -0.1066  0.2094 -0.1808
  120POPC   C3B 1752   6.257   3.204   7.332  0.0434 -0.0933  0.2598
  120POPC   C4B 1753   5.885   3.389   7.266  0.0979  0.5216  0.1739
  121POPC   NC3 1754   4.403   2.795   8.737  0.2180  0.0959  0.2441
  121POPC   PO4 1755   4.513   2.684   8.337 -0.2774 -0.0761 -0.0465
  121POPC   GL1 1756   4.594   2.463   7.872 -0.2383  0.5472  0.3524
  121POPC   GL2 1757   4.825   2.628   7.664 -0.1203  0.2091 -0.1467
  121POPC   C1A 1758   4.550   2.377   7.283  0.2792  0.2241 -0.1072
  121POPC   D2A 1759   4.519   2.078   7.042  0.2880 -0.1458  0.2117
  121POPC   C3A 1760   4.787   1.872   6.854  0.2491  0.1513  0.1400
  121POPC   C4A 1761   4.970   1.452   6.601 -0.1464 -0.0161 -0.0044
  121POPC   C1B 1762   4.984   2.647   7.222 -0.0822  0.2269 -0.0690
  121POPC   C2B 1763   5.173   2.856   6.898 -0.1475 -0.1335 -0.1244
  121POPC   C3B 1764   5.370   3.040   6.625 -0.2447  0.1201  0.3167
  121POPC   C4B 1765   5.565   3.306   6.368  0.4365 -0.0123  0.2960
  122POPC   NC3 1766   9.294   6.623   8.304 -0.1074  0.1154 -0.0010
  122POPC   PO4 1767   8.997   6.896   8.480  0.0086 -0.5997  0.1524
  122POPC   GL1 1768   8.876   6.653   8.053  0.0699  0.0958  0.1224
  122POPC   GL2 1769   8.628   6.616   7.913  0.1747  0.0602 -0.1060
  122POPC   C1A 1770   8.996   6.484   7.543  0.0288 -0.0245  0.2375
  122POPC   D2A 1771   9.358   6.493   7.212 -0.2905  0.1589  0.0698
  122POPC   C3A 1772   9.550   6.707   6.869  0.0412  0.0713  0.1373
  122POPC   C4A 1773   9.683   6.772   6.471 -0.1135  0.0570  0.0378
  122POPC   C1B 1774   8.564   6.871   7.466 -0.0832  0.1898  0.0467
  122POPC   C2B 1775   8.422   6.761   7.064 -0.3026 -0.2338  0.0904
  122POPC   C3B 1776   8.121   6.718   6.681 -0.2244  0.0643  0.0614
  122POPC   C4B 1777   8.222   6.647   6.235 -0.1759 -0.2890  0.1858
  123POPC   NC3 1778   8.678   9.077   7.821 -0.1937 -0.2748 -0.0718
  123POPC   PO4 1779   8.721   8.594   7.728 -0.0848  0.0597 -0.0546
  123POPC   GL1 1780   8.939   8.668   7.239  0.3103 -0.1917 -0.3155
  123POPC   GL2 1781   9.231   8.674   7.191  0.0162 -0.0730 -0.2178
  123POPC   C1A 1782   8.706   8.808   6.891 -0.1583  0.1999 -0.0458
  123POPC   D2A 1783   8.904   8.897   6.468  0.1958  0.2199 -0.3878
  123POPC   C3A 1784   8.622   8.926   6.094 -0.1946 -0.0352 -0.1628
  123POPC   C4A 1785   8.552   8.940   5.677  0.1578  0.0571  0.0124
  123POPC   C1B 1786   9.065   8.364   6.749 -0.2183  0.0910  0.0689
  123POPC   C2B 1787   8.738   8.471   6.336 -0.0639 -0.0687 -0.0093
  123POPC   C3B 1788   8.354   8.585   5.979  0.0867  0.1175 -0.0721
  123POPC   C4B 1789   8.195   8.587   5.580 -0.0681  0.2395  0.0832
  124POPC   NC3 1790   6.806   6.106   8.345 -0.2086  0.2199 -0.2089
  124POPC   PO4 1791   6.774   5.705   8.092  0.1153 -0.2957 -0.0819
  124POPC   GL1 1792   6.401   5.711   7.769 -0.1724 -0.4276  0.2213
  124POPC   GL2 1793   6.083   5.718   7.944 -0.0658 -0.1939 -0.0252
  124POPC   C1A 1794   6.323   5.572   7.353  0.0150 -0.0534  0.0478
  124POPC   D2A 1795   6.480   5.219   7.322  0.1927  0.0905 -0.2903
  124POPC   C3A 1796   6.619   5.166   6.952 -0.2185 -0.1958 -0.1110
  124POPC   C4A 1797   6.922   4.783   6.803 -0.3137  0.0242  0.0008
  124POPC   C1B 1798   5.939   5.349   7.631 -0.0235  0.1222 -0.0422
  124POPC   C2B 1799   5.877   5.302   7.168  0.2652 -0.3294 -0.2318
  124POPC   C3B 1800   6.179   5.112   6.772 -0.5142 -0.3679 -0.1316
  124POPC   C4B 1801   6.513   4.821   6.605  0.0591  0.0849 -0.1923
  125POPC   NC3 1802   9.302   1.959   7.296  0.1410 -0.3212  0.0472
  125POPC   PO4 1803   9.674   1.672   7.518 -0.1542  0.1403 -0.2030
  125POPC   GL1 1804   9.849   1.925   7.229 -0.0890  0.1470  0.3712
  125POPC   GL2 1805   9.688   1.850   6.977  0.0128  0.3121  0.0084
  125POPC   C1A 1806  10.095   2.118   6.911 -0.1194  0.2086 -0.1548
  125POPC   D2A 1807  10.037   2.227   6.473 -0.0382 -0.4519 -0.2426
  125POPC   C3A 1808   9.860   2.377   6.171 -0.1012  0.1236  0.1108
  125POPC   C4A 1809   9.882   2.617   5.729 -0.0628  0.0355 -0.1195
  125POPC   C1B 1810   9.702   1.873   6.593 -0.3131  0.3362  0.0708
  125POPC   C2B 1811   9.902   1.820   6.230 -0.1519 -0.0275  0.0819
  125POPC   C3B 1812  10.224   2.000   6.015 -0.1459  0.0789  0.1368
  125POPC   C4B 1813  10.332   2.252   5.654 -0.0544  0.2001 -0.1291
  126POPC   NC3 1814   1.631   8.903   7.659 -0.1699  0.0446 -0.2476
  126POPC   PO4 1815   1.422   9.252   7.696  0.0139  0.0808  0.0270
  126POPC   GL1 1816   1.460   9.372   7.257  0.0440 -0.2968  0.2859
  126POPC   GL2 1817   1.560   9.080   7.197  0.2981 -0.2499 -0.1370
  126POPC   C1A 1818   1.198   9.595   6.925 -0.6443 -0.0919  0.0520
  126POPC   D2A 1819   1.113   9.950   6.705  0.0508  0.2038  0.1892
  126POPC   C3A 1820   1.267  10.149   6.372  0.0458 -0.1672 -0.0163
  126POPC   C4A 1821   1.332  10.416   6.040 -0.2505  0.1020  0.0083
  126POPC   C1B 1822   1.494   9.143   6.830 -0.2215  0.1624  0.3000
  126POPC   C2B 1823   1.281   9.198   6.488 -0.0870  0.1620 -0.0054
  126POPC   C3B 1824   0.982   9.492   6.485 -0.0117 -0.0295  0.3666
  126POPC   C4B 1825   0.754   9.467   6.152  0.0960  0.1055  0.0430
  127POPC   NC3 1826   6.951   7.713   7.797  0.1112 -0.0183  0.3449
  127POPC   PO4 1827   7.033   8.235   7.801  0.1624 -0.0562 -0.0451
  127POPC   GL1 1828   7.037   8.278   7.407  0.2253  0.3398 -0.1069
  127POPC   GL2 1829   7.018   7.922   7.310  0.2548 -0.1672  0.1243
  127POPC   C1A 1830   7.000   8.500   7.070  0.1154  0.1649 -0.2146
  127POPC   D2A 1831   6.956   8.835   6.817  0.0185  0.0568 -0.2159
  127POPC   C3A 1832   7.187   9.182   6.860  0.3902  0.0528 -0.1351
  127POPC   C4A 1833   7.289   9.336   7.178 -0.0696  0.2043  0.0689
  127POPC   C1B 1834   6.930   8.028   6.900  0.0979  0.2557  0.0607
  127POPC   C2B 1835   7.012   8.297   6.571  0.0688 -0.0329 -0.2098
  127POPC   C3B 1836   7.253   8.360   6.263 -0.3434 -0.0549 -0.0777
  127POPC   C4B 1837   7.353   8.517   5.859 -0.0141  0.3978  0.2616
  128POPC   NC3 1838   8.026  10.013   7.935  0.1220 -0.0110  0.1730
  128POPC   PO4 1839   8.069   9.565   7.930 -0.0769 -0.0247 -0.0836
  128POPC   GL1 1840   7.862   9.527   7.575  0.0592 -0.0618  0.0953
  128POPC   GL2 1841   8.050   9.844   7.358  0.0811  0.2195 -0.0931
  128POPC   C1A 1842   7.759   9.444   7.075 -0.3942 -0.4465 -0.0011
  128POPC   D2A 1843   7.867   9.830   6.667 -0.0213 -0.2216  0.1904
  128POPC   C3A 1844   7.649  10.068   6.463  0.1465 -0.0906 -0.0774
  128POPC   C4A 1845   7.268   9.912   6.162 -0.2493 -0.0437  0.1845
  128POPC   C1B 1846   8.338   9.887   6.992 -0.1544 -0.1853 -0.2545
  128POPC   C2B 1847   8.409   9.797   6.591 -0.2102  0.1361 -0.0014
  128POPC   C3B 1848   8.109   9.648   6.197 -0.1389 -0.0070  0.0566
  128POPC   C4B 1849   8.082   9.516   5.769 -0.2349  0.0687  0.1910
  129POPC   NC3 1850   1.292   8.288   7.559  0.0967  0.3206  0.0657
  129POPC   PO4 1851   1.557   7.893   7.499 -0.1698 -0.1116  0.0476
  129POPC   GL1 1852   1.627   8.028   7.136  0.2560 -0.0705  0.1028
  129POPC   GL2 1853   1.400   8.214   6.933 -0.0453 -0.1022  0.1392
  129POPC   C1A 1854   1.797   7.851   6.818  0.0417 -0.1157 -0.2783
  129POPC   D2A 1855   2.152   7.881   6.570  0.3013  0.1237 -0.1744
  129POPC   C3A 1856   2.589   7.840   6.648  0.1013 -0.0404 -0.1373
  129POPC   C4A 1857   3.032   7.861   6.767  0.0728  0.0490 -0.1045
  129POPC   C1B 1858   1.305   8.179   6.514 -0.0440  0.1200 -0.1715
  129POPC   C2B 1859   1.156   8.512   6.396 -0.1106 -0.0231 -0.1465
  129POPC   C3B 1860   0.849   8.726   6.228  0.0665 -0.3005  0.0164
  129POPC   C4B 1861   0.653   9.029   5.987  0.4642 -0.0845  0.2119
  130POPC   NC3 1862   5.047   2.745   8.245 -0.3361 -0.1280  0.1355
  130POPC   PO4 1863   5.089   3.121   7.966  0.1855  0.1218  0.2378
  130POPC   GL1 1864   5.452   3.155   7.758 -0.0019  0.2446 -0.0620
  130POPC   GL2 1865   5.455   3.420   7.638  0.2633  0.0913  0.5182
  130POPC   C1A 1866   5.845   2.893   7.460 -0.3510  0.0249  0.2460
  130POPC   D2A 1867   5.766   2.774   7.073  0.0239 -0.2344  0.1433
  130POPC   C3A 1868   5.846   3.132   6.770 -0.3670 -0.1070  0.0192
  130POPC   C4A 1869   6.167   3.450   6.627 -0.0164 -0.3347 -0.1132
  130POPC   C1B 1870   5.429   3.264   7.205  0.2247  0.0039 -0.0271
  130POPC   C2B 1871   5.509   3.455   6.867 -0.1672 -0.0511 -0.0418
  130POPC   C3B 1872   5.309   3.695   6.626 -0.1124  0.3505 -0.2647
  130POPC   C4B 1873   5.352   3.793   6.249  0.0366  0.0013  0.1359
  131POPC   NC3 1874   5.040   5.535   7.953  0.0703  0.2141 -0.0977
  131POPC   PO4 1875   4.696   5.173   8.059 -0.0463  0.0037 -0.1065
  131POPC   GL1 1876   4.709   5.332   7.592  0.0757 -0.0171 -0.0665
  131POPC   GL2 1877   4.655   5.643   7.455  0.1622  0.3066 -0.0941
  131POPC   C1A 1878   4.577   5.082   7.197  0.3185  0.3078 -0.1457
  131POPC   D2A 1879   4.607   4.899   6.812 -0.1804 -0.2123 -0.0215
  131POPC   C3A 1880   4.749   5.051   6.361  0.1405  0.0940  0.2499
  131POPC   C4A 1881   4.733   5.429   6.120 -0.0935  0.1094  0.2125
  131POPC   C1B 1882   4.786   5.624   6.997 -0.0510 -0.5011  0.0438
  131POPC   C2B 1883   4.785   5.816   6.549  0.2803  0.2613  0.1227
  131POPC   C3B 1884   4.668   6.205   6.471 -0.1226 -0.1476  0.0112
  131POPC   C4B 1885   4.814   6.562   6.536  0.2506  0.0347 -0.3646
  132POPC   NC3 1886   4.415   5.999   7.648  0.0858 -0.0765 -0.0413
  132POPC   PO4 1887   4.608   6.381   7.788 -0.0363  0.1279 -0.0023
  132POPC   GL1 1888   4.890   6.338   7.482 -0.1386  0.2225 -0.0722
  132POPC   GL2 1889   4.665   6.176   7.199 -0.0319  0.1782 -0.1391
  132POPC   C1A 1890   4.944   6.569   7.135 -0.0578 -0.0557 -0.1561
  132POPC   D2A 1891   5.098   6.891   6.828 -0.0498  0.3038 -0.1150
  132POPC   C3A 1892   5.285   6.760   6.408 -0.2478  0.0002 -0.0455
  132POPC   C4A 1893   5.062   6.636   6.081  0.1089  0.0840  0.2164
  132POPC   C1B 1894   4.959   6.137   6.928  0.0243  0.3513  0.2539
  132POPC   C2B 1895   5.187   6.239   6.504 -0.0116  0.0245 -0.0116
  132POPC   C3B 1896   5.500   6.358   6.189 -0.2188  0.0841 -0.1894
  132POPC   C4B 1897   5.574   6.638   5.843 -0.2139 -0.2000 -0.3380
  133POPC   NC3 1898   0.314   0.333   8.032  0.1933  0.0435 -0.3878
  133POPC   PO4 1899   0.212   0.035   7.749  0.1027 -0.0409 -0.0828
  133POPC   GL1 1900  -0.097   0.094   7.337 -0.0763 -0.3463  0.2215
  133POPC   GL2 1901  -0.341   0.425   7.338 -0.3169 -0.1107  0.3043
  133POPC   C1A 1902  -0.378  -0.002   6.976  0.3763 -0.2099 -0.1266
  133POPC   D2A 1903  -0.491   0.236   6.645 -0.1350 -0.0470  0.0232
  133POPC   C3A 1904  -0.357   0.612   6.430  0.0760 -0.1781  0.2149
  133POPC   C4A 1905  -0.199   0.771   6.028  0.4590  0.1810  0.0363
  133POPC   C1B 1906  -0.102   0.646   7.027 -0.1521 -0.1113  0.0328
  133POPC   C2B 1907  -0.265   0.975   6.751 -0.3118  0.1402  0.2101
  133POPC   C3B 1908  -0.443   1.181   6.427 -0.0745  0.1061 -0.1299
  133POPC   C4B 1909  -0.741   1.126   6.089 -0.0483  0.1484  0.0006
  134POPC   NC3 1910   3.272   2.580   8.726  0.1082 -0.1694 -0.1694
  134POPC   PO4 1911   3.671   2.521   8.663  0.1944  0.0409 -0.0934
  134POPC   GL1 1912   3.747   2.473   8.251  0.1335  0.2055 -0.0423
  134POPC   GL2 1913   4.049   2.505   8.085  0.3928 -0.1160  0.0770
  134POPC   C1A 1914   3.594   2.110   7.831  0.0565 -0.0079 -0.3387
  134POPC   D2A 1915   3.631   1.715   7.555 -0.1399  0.2339  0.5356
  134POPC   C3A 1916   3.307   1.503   7.308 -0.1996  0.3038  0.1298
  134POPC   C4A 1917   3.114   1.600   6.921 -0.0869 -0.2838  0.0105
  134POPC   C1B 1918   3.754   2.672   7.777 -0.1148 -0.1256 -0.4215
  134POPC   C2B 1919   3.582   2.648   7.383 -0.4231 -0.0601 -0.0669
  134POPC   C3B 1920   3.584   2.537   6.919 -0.0749  0.3157  0.1207
  134POPC   C4B 1921   3.598   2.641   6.491 -0.1071 -0.0571 -0.0656
  135POPC   NC3 1922   4.902   1.986   7.773 -0.0183  0.0473 -0.3413
  135POPC   PO4 1923   5.432   2.037   7.767  0.1194 -0.0350 -0.2564
  135POPC   GL1 1924   5.385   2.234   7.367 -0.2741  0.0545  0.0197
  135POPC   GL2 1925   5.465   1.914   7.158  0.1277 -0.2680  0.1692
  135POPC   C1A 1926   5.467   2.420   6.976 -0.0392  0.0554  0.1636
  135POPC   D2A 1927   5.291   2.492   6.437 -0.1915 -0.1642 -0.3858
  135POPC   C3A 1928   5.351   2.254   6.139 -0.2821  0.0525 -0.4726
  135POPC   C4A 1929   5.664   2.153   5.932 -0.0500  0.3759 -0.0562
  135POPC   C1B 1930   5.860   1.797   6.997  0.2060 -0.0082  0.2082
  135POPC   C2B 1931   6.044   1.746   6.672  0.1024 -0.2849  0.3546
  135POPC   C3B 1932   5.824   1.701   6.377 -0.1595 -0.0139 -0.1017
  135POPC   C4B 1933   5.373   1.711   6.209 -0.0815  0.1296  0.0582
  136POPC   NC3 1934   0.509  10.272   7.621 -0.0155  0.1524 -0.2417
  136POPC   PO4 1935   0.607   9.885   7.373 -0.0736 -0.0826  0.0697
  136POPC   GL1 1936   0.363   9.927   7.010 -0.2638  0.1248 -0.1293
  136POPC   GL2 1937   0.682   9.777   6.833 -0.0308 -0.0457  0.1060
  136POPC   C1A 1938   0.219   9.992   6.512  0.1615 -0.2650  0.0580
  136POPC   D2A 1939  -0.167   9.983   6.180 -0.1265  0.4080  0.1027
  136POPC   C3A 1940  -0.032  10.168   5.783 -0.2512 -0.1730  0.2894
  136POPC   C4A 1941  -0.112  10.308   5.341 -0.0827  0.1101 -0.1426
  136POPC   C1B 1942   0.736   9.934   6.329  0.0043  0.0395 -0.1803
  136POPC   C2B 1943   0.835  10.049   5.880 -0.0732 -0.1591  0.1441
  136POPC   C3B 1944   1.040  10.103   5.455 -0.3814  0.2706 -0.1951
  136POPC   C4B 1945   1.343  10.213   5.121 -0.0993  0.1003  0.1525
  137POPC   NC3 1946   8.632  10.445   7.892  0.1455 -0.0470  0.0095
  137POPC   PO4 1947   8.480  10.869   7.904  0.1209 -0.1662 -0.3565
  137POPC   GL1 1948   8.467  10.780   7.457  0.0647 -0.3333  0.0926
  137POPC   GL2 1949   8.696  10.904   7.301 -0.2552 -0.2007 -0.0961
  137POPC   C1A 1950   8.251  10.634   7.246  0.3528 -0.0032 -0.1002
  137POPC   D2A 1951   7.972  10.409   7.162  0.1422  0.3006  0.1894
  137POPC   C3A 1952   8.161  10.312   6.735  0.0371 -0.0530  0.0088
  137POPC   C4A 1953   8.075  10.149   6.248  0.2459 -0.0738 -0.0894
  137POPC   C1B 1954   8.523  10.852   6.822  0.4442  0.0526 -0.0189
  137POPC   C2B 1955   8.324  10.661   6.431 -0.0554 -0.2453 -0.0420
  137POPC   C3B 1956   7.905  10.678   6.355 -0.1725 -0.2715 -0.2404
  137POPC   C4B 1957   7.480  10.625   6.453  0.3173 -0.0102 -0.0771
  138POPC   NC3 1958   9.395   0.250   7.974 -0.2234  0.0951 -0.0328
  138POPC   PO4 1959   9.484   0.726   7.933 -0.0936 -0.3200 -0.0620
  138POPC   GL1 1960   9.765   0.684   7.535  0.0673  0.1140  0.0302
  138POPC   GL2 1961   9.745   0.358   7.288  0.0101 -0.0210  0.2114
  138POPC   C1A 1962   9.963   0.780   7.111  0.0785  0.0887  0.0598
  138POPC   D2A 1963   9.809   0.865   6.649 -0.2141 -0.0072  0.0693
  138POPC   C3A 1964   9.748   0.535   6.292 -0.1565 -0.1042 -0.0222
  138POPC   C4A 1965   9.747   0.527   5.823  0.1875 -0.1618 -0.2074
  138POPC   C1B 1966   9.671  -0.031   7.012  0.0308 -0.2681 -0.1030
  138POPC   C2B 1967   9.575   0.027   6.526  0.0903 -0.2178  0.0572
  138POPC   C3B 1968   9.614  -0.078   6.071  0.0775  0.1304 -0.0734
  138POPC   C4B 1969   9.844   0.037   5.731  0.0865  0.1044  0.0431
  139POPC   NC3 1970   4.713   4.394   7.790  0.1767  0.2073 -0.0736
  139POPC   PO4 1971   4.921   4.144   7.534 -0.1287  0.0571  0.1497
  139POPC   GL1 1972   4.715   3.865   7.314 -0.2803 -0.1087  0.2644
  139POPC   GL2 1973   4.928   3.638   7.285  0.0714  0.0529  0.0106
  139POPC   C1A 1974   4.553   3.718   6.790  0.2007 -0.2606  0.2239
  139POPC   D2A 1975   4.665   3.645   6.419 -0.2480  0.0561  0.0082
  139POPC   C3A 1976   4.265   3.574   6.137  0.1951 -0.1472  0.2593
  139POPC   C4A 1977   4.167   3.569   5.713  0.3350  0.1146 -0.2434
  139POPC   C1B 1978   4.969   3.476   6.953 -0.2270  0.2219 -0.2685
  139POPC   C2B 1979   4.883   3.226   6.594  0.1575 -0.0508  0.0132
  139POPC   C3B 1980   4.941   2.888   6.320  0.1802 -0.0943 -0.0899
  139POPC   C4B 1981   5.249   2.897   5.987 -0.2019 -0.3698  0.1157
  140POPC   NC3 1982   9.933   4.042   7.766  0.0216  0.0943 -0.0816
  140POPC   PO4 1983  10.307   4.079   7.908 -0.0346 -0.0982  0.1391
  140POPC   GL1 1984  10.300   3.928   7.400 -0.3877 -0.0204  0.0684
  140POPC   GL2 1985  10.001   3.979   7.243  0.0518 -0.0973  0.1278
  140POPC   C1A 1986  10.438   3.749   7.125 -0.0966 -0.1110 -0.0169
  140POPC   D2A 1987  10.599   3.650   6.764  0.0610  0.0186 -0.2765
  140POPC   C3A 1988  10.941   3.392   6.472 -0.1209  0.0268 -0.0226
  140POPC   C4A 1989  11.130   2.979   6.352 -0.1390 -0.1246 -0.0375
  140POPC   C1B 1990   9.965   4.405   7.051 -0.0219  0.0433  0.2278
  140POPC   C2B 1991   9.854   4.449   6.618 -0.1085 -0.1919 -0.2366
  140POPC   C3B 1992   9.698   4.651   6.408  0.1958 -0.0878 -0.1466
  140POPC   C4B 1993   9.274   4.850   6.183  0.1450 -0.0073  0.1715
  141POPC   NC3 1994   2.521   4.158   8.158 -0.2559 -0.0558 -0.2050
  141POPC   PO4 1995   2.861   4.072   8.008  0.1667 -0.2403 -0.2047
  141POPC   GL1 1996   2.965   4.145   7.548 -0.0705 -0.1871 -0.0782
  141POPC   GL2 1997   3.271   4.141   7.389 -0.2487  0.3581 -0.1391
  141POPC   C1A 1998   3.012   4.392   7.096 -0.0201 -0.0143  0.1794
  141POPC   D2A 1999   3.000   4.460   6.655 -0.2666  0.2425 -0.1577
  141POPC   C3A 2000   3.026   4.809   6.377 -0.0533 -0.2074 -0.0666
  141POPC   C4A 2001   2.853   4.787   6.008 -0.0573 -0.2670  0.1521
  141POPC   C1B 2002   3.416   4.020   6.968 -0.0155 -0.0925 -0.0273
  141POPC   C2B 2003   3.723   3.990   6.580 -0.1154  0.2219  0.2344
  141POPC   C3B 2004   3.795   3.621   6.297  0.0842  0.1046  0.1419
  141POPC   C4B 2005   3.798   3.322   5.994 -0.2322  0.2685 -0.2649
  142POPC   NC3 2006   8.188   7.497   8.387  0.0478  0.3253 -0.0588
  142POPC   PO4 2007   8.084   7.229   8.060  0.1060 -0.0837  0.0387
  142POPC   GL1 2008   7.917   7.065   7.601 -0.3021 -0.2998  0.1015
  142POPC   GL2 2009   7.687   7.117   7.372 -0.2299  0.0510  0.0068
  142POPC   C1A 2010   8.001   6.698   7.376  0.1153  0.1122 -0.3511
  142POPC   D2A 2011   8.015   6.372   7.097  0.1884  0.0105  0.2242
  142POPC   C3A 2012   8.388   6.276   6.935 -0.0174  0.2832 -0.2133
  142POPC   C4A 2013   8.506   6.232   6.458 -0.1405 -0.1494 -0.0446
  142POPC   C1B 2014   7.698   6.797   6.956 -0.2177 -0.1357 -0.1160
  142POPC   C2B 2015   7.513   7.019   6.599  0.3826 -0.2108  0.2166
  142POPC   C3B 2016   7.205   6.966   6.360 -0.1225 -0.0476 -0.0240
  142POPC   C4B 2017   6.882   6.731   6.252  0.1333 -0.2273  0.0409
  143POPC   NC3 2018   6.302   3.565   8.240 -0.2713  0.2033 -0.0679
  143POPC   PO4 2019   6.171   3.076   8.210  0.0497 -0.0268 -0.0376
  143POPC   GL1 2020   6.275   2.858   7.761 -0.0871 -0.1699 -0.2428
  143POPC   GL2 2021   6.446   2.503   7.892  0.1878 -0.0494  0.1240
  143POPC   C1A 2022   6.286   2.687   7.294 -0.0627 -0.2684 -0.1373
  143POPC   D2A 2023   6.534   2.884   6.853 -0.0353  0.0912 -0.0822
  143POPC   C3A 2024   6.227   2.906   6.445 -0.0208  0.0900  0.0323
  143POPC   C4A 2025   6.026   3.165   6.209 -0.0134 -0.2579 -0.0951
  143POPC   C1B 2026   6.654   2.594   7.567 -0.0083 -0.2069  0.0427
  143POPC   C2B 2027   6.929   2.646   7.248 -0.1616  0.1526  0.1116
  143POPC   C3B 2028   7.388   2.858   7.183  0.2365  0.0494 -0.0253
  143POPC   C4B 2029   7.467   3.236   6.898  0.0706 -0.3027 -0.1412
  144POPC   NC3 2030   7.761   9.205   8.046  0.2828  0.0274 -0.1359
  144POPC   PO4 2031   7.458   8.884   7.954  0.2080  0.1969  0.1555
  144POPC   GL1 2032   7.246   8.930   7.514  0.1922  0.4798  0.1651
  144POPC   GL2 2033   6.972   8.964   7.403 -0.2728  0.0136  0.0408
  144POPC   C1A 2034   7.415   8.790   7.055 -0.1024 -0.2549  0.2164
  144POPC   D2A 2035   7.369   8.713   6.595 -0.1292  0.1944  0.0910
  144POPC   C3A 2036   7.678   8.704   6.301 -0.3853 -0.3412  0.1863
  144POPC   C4A 2037   7.828   8.676   5.958 -0.0540 -0.0992  0.0640
  144POPC   C1B 2038   6.633   9.155   7.140 -0.0899 -0.2810  0.1000
  144POPC   C2B 2039   6.320   9.335   6.766  0.0044 -0.0079 -0.2099
  144POPC   C3B 2040   5.933   9.437   6.605  0.1959  0.2219 -0.2975
  144POPC   C4B 2041   5.711   9.261   6.191 -0.1320 -0.2568  0.0326
  145POPC   NC3 2042   0.153   4.390   7.897  0.0099 -0.2734  0.1099
  145POPC   PO4 2043   0.603   4.338   7.735 -0.2043  0.2590 -0.0680
  145POPC   GL1 2044   0.361   4.146   7.422 -0.2405 -0.3694  0.2260
  145POPC   GL2 2045   0.122   4.333   7.373  0.3598 -0.0748 -0.1600
  145POPC   C1A 2046   0.317   3.935   6.967 -0.3099 -0.0567  0.0577
  145POPC   D2A 2047   0.227   4.045   6.495 -0.1602 -0.0361  0.0838
  145POPC   C3A 2048   0.054   3.794   6.283 -0.1853  0.1810 -0.1570
  145POPC   C4A 2049  -0.024   3.466   6.102  0.2999 -0.1316  0.1767
  145POPC   C1B 2050  -0.157   4.286   7.040 -0.2868 -0.1002  0.0004
  145POPC   C2B 2051  -0.333   4.167   6.642 -0.2506 -0.0524  0.1373
  145POPC   C3B 2052  -0.242   4.218   6.229  0.1944  0.3220 -0.0069
  145POPC   C4B 2053  -0.169   4.039   5.821 -0.1799  0.0654 -0.1694
  146POPC   NC3 2054   3.362   3.933   8.724 -0.0523 -0.0744  0.2377
  146POPC   PO4 2055   3.196   3.793   8.259  0.0371 -0.3312  0.0212
  146POPC   GL1 2056   2.930   3.620   7.932 -0.0907  0.2870  0.1861
  146POPC   GL2 2057   2.667   3.719   7.688  0.1087  0.2114  0.2116
  146POPC   C1A 2058   3.144   3.582   7.510 -0.1634 -0.2685  0.0885
  146POPC   D2A 2059   3.035   3.663   7.152 -0.1753  0.1751  0.0594
  146POPC   C3A 2060   3.055   3.300   6.779 -0.0965  0.0864  0.1579
  146POPC   C4A 2061   3.167   2.903   6.552 -0.0310 -0.1431 -0.1361
  146POPC   C1B 2062   2.540   3.592   7.357  0.3285  0.2990  0.1209
  146POPC   C2B 2063   2.577   3.537   6.923 -0.0512  0.0513  0.2168
  146POPC   C3B 2064   2.571   3.704   6.510 -0.0830  0.0723 -0.4524
  146POPC   C4B 2065   2.754   3.919   6.204  0.0193  0.3298  0.0713
  147POPC   NC3 2066   0.020   2.573   8.287  0.0328  0.2999  0.0028
  147POPC   PO4 2067   0.014   2.125   8.186 -0.1999 -0.0411 -0.1374
  147POPC   GL1 2068  -0.088   2.081   7.731  0.2354 -0.0344 -0.1641
  147POPC   GL2 2069   0.100   1.756   7.697 -0.1357 -0.1388 -0.0229
  147POPC   C1A 2070  -0.255   2.295   7.428 -0.2956 -0.1535  0.2180
  147POPC   D2A 2071  -0.256   2.584   7.187  0.1614  0.1307 -0.1972
  147POPC   C3A 2072   0.043   2.874   7.241  0.0245 -0.0302  0.0406
  147POPC   C4A 2073   0.412   2.906   7.390  0.1928 -0.0439 -0.0541
  147POPC   C1B 2074   0.015   1.700   7.284 -0.1615  0.0416 -0.1200
  147POPC   C2B 2075   0.017   1.440   6.919 -0.4336 -0.0117  0.0557
  147POPC   C3B 2076   0.063   1.328   6.445 -0.3232  0.0608 -0.1477
  147POPC   C4B 2077  -0.153   1.296   5.998 -0.1551 -0.1706  0.0848
  148POPC   NC3 2078   9.381   1.285   7.751  0.2981  0.0828  0.2960
  148POPC   PO4 2079   9.088   1.530   7.388  0.0436  0.1369 -0.0923
  148POPC   GL1 2080   9.461   1.429   7.135 -0.1023 -0.1379  0.4567
  148POPC   GL2 2081   9.612   1.200   7.287  0.1595  0.0383 -0.1180
  148POPC   C1A 2082   9.609   1.343   6.781  0.1070  0.4826  0.0137
  148POPC   D2A 2083   9.333   1.044   6.453 -0.3536 -0.1735  0.0296
  148POPC   C3A 2084   9.423   0.930   6.036  0.3811  0.0990 -0.2790
  148POPC   C4A 2085   9.434   1.245   5.786  0.1451 -0.2219  0.1158
  148POPC   C1B 2086   9.453   0.912   7.042  0.3660 -0.0348  0.1526
  148POPC   C2B 2087   9.446   0.440   6.951  0.2094  0.1815 -0.2244
  148POPC   C3B 2088   9.316   0.503   6.512 -0.0524 -0.4775 -0.1349
  148POPC   C4B 2089   9.319   0.335   6.080  0.2592 -0.0677 -0.1126
  149POPC   NC3 2090   8.240   7.499   7.688  0.1452 -0.0055 -0.1825
  149POPC   PO4 2091   8.154   7.755   7.953 -0.0428  0.1034 -0.0129
  149POPC   GL1 2092   8.336   7.915   7.431 -0.1409 -0.2838 -0.0962
  149POPC   GL2 2093   8.422   8.320   7.486  0.4275  0.3834 -0.0608
  149POPC   C1A 2094   8.421   7.682   7.037 -0.0855  0.0296 -0.1367
  149POPC   D2A 2095   8.264   7.542   6.669  0.0619  0.2673  0.0776
  149POPC   C3A 2096   7.959   7.793   6.420 -0.2517  0.2584  0.1574
  149POPC   C4A 2097   7.640   7.931   6.175 -0.0269 -0.1978  0.0517
  149POPC   C1B 2098   8.587   8.315   7.067  0.1766  0.0791 -0.4061
  149POPC   C2B 2099   8.448   8.089   6.722 -0.3040 -0.3495 -0.0476
  149POPC   C3B 2100   8.467   8.002   6.344 -0.1034  0.1526  0.0740
  149POPC   C4B 2101   8.668   8.015   5.934 -0.2170  0.0941  0.2139
  150POPC   NC3 2102   0.304  10.262   8.533 -0.1454  0.0063  0.1537
  150POPC   PO4 2103   0.562  10.537   8.136  0.2948 -0.2341  0.3497
  150POPC   GL1 2104   0.742  10.717   7.736 -0.1205  0.1542  0.5326
  150POPC   GL2 2105   1.089  10.617   7.675  0.1890 -0.0474 -0.1700
  150POPC   C1A 2106   0.817  10.707   7.241  0.1352 -0.0587 -0.3633
  150POPC   D2A 2107   0.506  10.452   7.039 -0.0291 -0.3439 -0.0185
  150POPC   C3A 2108   0.492  10.432   6.610 -0.3185 -0.1352  0.2110
  150POPC   C4A 2109   0.565  10.773   6.287 -0.0939  0.2852 -0.3449
  150POPC   C1B 2110   1.268  10.766   7.252  0.0064  0.0202  0.1113
  150POPC   C2B 2111   1.408  10.669   6.968 -0.3123 -0.1343 -0.1196
  150POPC   C3B 2112   1.360  10.554   6.578 -0.0798 -0.0520 -0.2160
  150POPC   C4B 2113   1.316  10.868   6.257  0.1140  0.0645 -0.1347
  151POPC   NC3 2114   3.914   7.840   7.880 -0.3052 -0.3253 -0.0697
  151POPC   PO4 2115   3.695   7.575   7.657  0.2617  0.0526 -0.0310
  151POPC   GL1 2116   3.696   7.440   7.338  0.1263  0.2298  0.1817
  151POPC   GL2 2117   3.571   7.240   7.223 -0.3742 -0.0648 -0.1188
  151POPC   C1A 2118   3.586   7.719   6.891 -0.1843  0.0118 -0.1612
  151POPC   D2A 2119   3.419   7.718   6.454  0.0948  0.0202  0.3337
  151POPC   C3A 2120   3.695   7.498   6.131  0.3517  0.1393  0.2557
  151POPC   C4A 2121   3.779   7.096   5.788 -0.0777  0.5426  0.0144
  151POPC   C1B 2122   3.760   7.289   6.769  0.0298  0.1206 -0.4086
  151POPC   C2B 2123   3.930   7.645   6.520 -0.2553  0.2870 -0.2294
  151POPC   C3B 2124   3.776   7.939   6.152  0.0991  0.0605  0.2473
  151POPC   C4B 2125   3.509   8.197   5.915  0.2281  0.1187  0.1970
  152POPC   NC3 2126   7.186  10.214   7.698 -0.1542 -0.0039 -0.0151
  152POPC   PO4 2127   7.496  10.600   7.813 -0.0410 -0.2463 -0.4684
  152POPC   GL1 2128   7.619  10.685   7.371  0.1987 -0.2147  0.0326
  152POPC   GL2 2129   7.850  10.907   7.329  0.1130 -0.1421  0.1801
  152POPC   C1A 2130   7.588  10.840   6.881 -0.1282 -0.0158 -0.0897
  152POPC   D2A 2131   7.361  11.167   6.670 -0.0172 -0.0897 -0.0737
  152POPC   C3A 2132   7.452  11.564   6.422  0.1801  0.0624 -0.1447
  152POPC   C4A 2133   7.590  11.962   6.484  0.1710  0.0229 -0.0491
  152POPC   C1B 2134   7.712  11.256   7.082 -0.2819  0.1857  0.3118
  152POPC   C2B 2135   7.522  11.659   6.881  0.1268 -0.0597 -0.1296
  152POPC   C3B 2136   7.108  11.883   6.570  0.0958  0.0403  0.2123
  152POPC   C4B 2137   6.656  11.794   6.429 -0.0804  0.0333 -0.0915
  153POPC   NC3 2138   4.983   3.511   7.759  0.0899 -0.1596  0.1255
  153POPC   PO4 2139   4.640   3.409   7.667 -0.1783  0.2199  0.0391
  153POPC   GL1 2140   4.436   3.390   7.209  0.2797 -0.4014 -0.0830
  153POPC   GL2 2141   4.261   3.522   7.323  0.0083  0.0166  0.1203
  153POPC   C1A 2142   4.371   3.145   6.802 -0.0235  0.1595  0.0516
  153POPC   D2A 2143   4.473   2.881   6.383 -0.0621 -0.2693  0.2980
  153POPC   C3A 2144   4.544   2.558   6.252  0.2069 -0.0330 -0.2863
  153POPC   C4A 2145   4.823   2.212   6.057  0.2777  0.2956 -0.3375
  153POPC   C1B 2146   3.983   3.247   7.152 -0.0597  0.3139  0.0296
  153POPC   C2B 2147   3.708   3.024   6.922  0.0919 -0.1204 -0.0222
  153POPC   C3B 2148   3.275   2.926   7.037 -0.1456  0.0444 -0.1196
  153POPC   C4B 2149   3.240   3.045   7.510 -0.1931  0.2941  0.2683
  154POPC   NC3 2150   1.042   3.824   8.967  0.3351  0.2459  0.0362
  154POPC   PO4 2151   1.046   4.032   8.478 -0.0742  0.1116  0.2682
  154POPC   GL1 2152   1.022   3.701   8.094  0.3060  0.2595  0.4591
  154POPC   GL2 2153   0.781   3.676   7.842 -0.0586  0.1155  0.2106
  154POPC   C1A 2154   1.212   3.398   7.900  0.0213 -0.1193  0.1714
  154POPC   D2A 2155   1.089   3.021   7.753 -0.2732  0.0341 -0.1855
  154POPC   C3A 2156   1.134   2.799   7.386 -0.1895 -0.0020 -0.0628
  154POPC   C4A 2157   1.052   2.761   7.040  0.2259 -0.2300  0.2271
  154POPC   C1B 2158   0.715   3.760   7.425 -0.0459 -0.2765 -0.2144
  154POPC   C2B 2159   0.818   3.955   7.107 -0.1537 -0.2932 -0.2169
  154POPC   C3B 2160   1.118   4.203   6.854  0.0390  0.0959 -0.4289
  154POPC   C4B 2161   1.283   4.311   6.459 -0.1916 -0.0838  0.0512
  155POPC   NC3 2162   1.555   1.879   8.816  0.1796  0.2187 -0.0673
  155POPC   PO4 2163   1.686   1.465   8.633  0.0544  0.2322  0.0871
  155POPC   GL1 2164   1.910   1.793   8.475 -0.0423 -0.0745  0.0984
  155POPC   GL2 2165   2.057   1.572   8.275  0.1783 -0.3922  0.1520
  155POPC   C1A 2166   2.115   2.229   8.297  0.2055  0.4135 -0.1075
  155POPC   D2A 2167   1.892   2.533   8.078 -0.0870 -0.1272  0.1318
  155POPC   C3A 2168   1.947   2.551   7.657  0.0468  0.2638  0.1186
  155POPC   C4A 2169   1.974   2.664   7.303  0.0577  0.1184 -0.0844
  155POPC   C1B 2170   2.353   1.833   8.146  0.1704 -0.0912  0.1901
  155POPC   C2B 2171   2.743   1.730   7.984 -0.1890  0.0400 -0.0822
  155POPC   C3B 2172   3.153   1.842   7.800  0.2447  0.1453  0.0068
  155POPC   C4B 2173   3.084   1.943   7.366  0.2887 -0.0543  0.2239
  156POPC   NC3 2174   9.092   4.199   7.676 -0.4643 -0.0652 -0.0249
  156POPC   PO4 2175   8.715   3.900   7.753  0.1541 -0.2501  0.2302
  156POPC   GL1 2176   8.333   3.975   7.550 -0.1226 -0.0564 -0.0502
  156POPC   GL2 2177   8.018   3.986   7.728  0.2201  0.0648  0.3235
  156POPC   C1A 2178   8.118   3.907   7.270 -0.0041 -0.0057  0.3621
  156POPC   D2A 2179   8.086   4.005   6.780  0.0396  0.0628 -0.1905
  156POPC   C3A 2180   7.965   4.342   6.511  0.1114  0.2461 -0.2202
  156POPC   C4A 2181   7.738   4.486   6.133 -0.0200  0.0821  0.0761
  156POPC   C1B 2182   7.671   4.053   7.478  0.0375 -0.2595 -0.1614
  156POPC   C2B 2183   7.614   4.211   7.099 -0.1561 -0.1020 -0.1624
  156POPC   C3B 2184   7.651   4.536   6.868  0.2143  0.1861  0.2089
  156POPC   C4B 2185   7.403   4.663   6.564 -0.1836 -0.1031 -0.0927
  157POPC   NC3 2186   0.548   6.149   7.845 -0.0003  0.0493  0.0668
  157POPC   PO4 2187   0.084   6.069   8.006  0.0851  0.0294 -0.0099
  157POPC   GL1 2188   0.065   6.254   7.657  0.1804 -0.0236 -0.1301
  157POPC   GL2 2189   0.099   6.595   7.647  0.1539  0.0950 -0.1860
  157POPC   C1A 2190   0.112   6.113   7.281  0.1193  0.1000  0.0400
  157POPC   D2A 2191  -0.030   5.665   7.108 -0.3018 -0.0561  0.0543
  157POPC   C3A 2192   0.043   5.631   6.702  0.0176 -0.2498 -0.0156
  157POPC   C4A 2193   0.431   5.409   6.564 -0.1376  0.1557  0.1092
  157POPC   C1B 2194   0.364   6.569   7.266 -0.0499  0.1527 -0.0028
  157POPC   C2B 2195   0.528   6.519   6.830 -0.1658 -0.1535 -0.1107
  157POPC   C3B 2196   0.290   6.466   6.445  0.2892 -0.1133  0.0894
  157POPC   C4B 2197  -0.034   6.452   6.131  0.3786 -0.1084 -0.1451
  158POPC   NC3 2198   8.541   1.506   7.574  0.3117  0.3536  0.0216
  158POPC   PO4 2199   8.550   1.822   7.945 -0.0860 -0.2919  0.1190
  158POPC   GL1 2200   8.281   1.902   7.499  0.1579 -0.1124  0.2395
  158POPC   GL2 2201   8.230   2.233   7.355 -0.1456  0.2578  0.2974
  158POPC   C1A 2202   8.051   1.658   7.118 -0.0062  0.0570  0.1316
  158POPC   D2A 2203   7.980   1.371   6.761  0.2697  0.2608  0.0803
  158POPC   C3A 2204   8.332   1.461   6.522  0.0153  0.2446  0.0320
  158POPC   C4A 2205   8.369   1.329   6.078 -0.0498  0.0664 -0.0196
  158POPC   C1B 2206   8.456   2.034   6.999 -0.1058 -0.0600  0.0080
  158POPC   C2B 2207   8.651   1.913   6.558 -0.0436 -0.1213  0.1066
  158POPC   C3B 2208   8.683   1.796   6.143 -0.4060 -0.2663 -0.3406
  158POPC   C4B 2209   9.085   1.618   5.821  0.4953  0.2170 -0.0115
  159POPC   NC3 2210   0.585   1.812   8.228 -0.2440 -0.2103  0.1441
  159POPC   PO4 2211   0.485   2.284   8.254 -0.0045  0.0846  0.1401
  159POPC   GL1 2212   0.416   2.164   7.839 -0.1215  0.6110 -0.1521
  159POPC   GL2 2213   0.592   1.887   7.741  0.0630  0.2108 -0.3170
  159POPC   C1A 2214   0.260   2.459   7.495  0.3259 -0.0266  0.0997
  159POPC   D2A 2215   0.255   2.507   7.018 -0.0011 -0.0664 -0.0322
  159POPC   C3A 2216  -0.121   2.535   6.746 -0.0104 -0.0630 -0.0041
  159POPC   C4A 2217  -0.527   2.723   6.751  0.0504 -0.4747 -0.1255
  159POPC   C1B 2218   0.506   2.026   7.340  0.0101 -0.0465 -0.1051
  159POPC   C2B 2219   0.413   1.761   6.884  0.4516 -0.0404 -0.0302
  159POPC   C3B 2220   0.408   1.738   6.473  0.1881 -0.0643  0.0998
  159POPC   C4B 2221   0.143   1.821   6.123 -0.1361  0.2526 -0.1222
  160POPC   NC3 2222   9.069   7.263   7.872  0.2440  0.0041 -0.0204
  160POPC   PO4 2223   9.291   6.917   7.920 -0.1389  0.0478  0.1053
  160POPC   GL1 2224   9.558   6.631   7.653  0.0184 -0.2460 -0.2456
  160POPC   GL2 2225   9.861   6.848   7.548  0.0104 -0.0684 -0.0898
  160POPC   C1A 2226   9.709   6.268   7.499  0.1216 -0.0721 -0.3856
  160POPC   D2A 2227   9.847   5.821   7.484  0.1042  0.0371  0.0262
  160POPC   C3A 2228  10.067   5.613   7.286  0.1250  0.2053  0.0577
  160POPC   C4A 2229  10.163   5.334   7.007 -0.0050  0.1473 -0.4339
  160POPC   C1B 2230   9.970   6.880   7.139  0.0390  0.0759  0.0733
  160POPC   C2B 2231  10.116   6.678   6.746 -0.1031  0.1032  0.3764
  160POPC   C3B 2232  10.083   6.513   6.285  0.3204 -0.0778 -0.0202
  160POPC   C4B 2233  10.155   6.596   5.883 -0.3143  0.1200 -0.1051
  161POPC   NC3 2234   0.390   3.309   8.707 -0.2578  0.1323 -0.1755
  161POPC   PO4 2235   0.372   3.598   8.353 -0.0695  0.4285  0.2726
  161POPC   GL1 2236   0.302   3.370   7.930 -0.2291  0.1986 -0.1856
  161POPC   GL2 2237   0.485   3.109   7.846 -0.2320  0.1567 -0.2927
  161POPC   C1A 2238   0.169   3.387   7.539  0.2068  0.1656 -0.1563
  161POPC   D2A 2239   0.371   3.369   7.119 -0.0714 -0.0222  0.1573
  161POPC   C3A 2240   0.625   3.583   6.851 -0.2835  0.0020 -0.0185
  161POPC   C4A 2241   0.708   3.901   6.532  0.0399  0.0841  0.0800
  161POPC   C1B 2242   0.731   3.292   7.518 -0.1146 -0.1730  0.1094
  161POPC   C2B 2243   0.913   3.244   7.175 -0.1112 -0.0680  0.1434
  161POPC   C3B 2244   1.206   3.245   6.875  0.2158 -0.0641 -0.4457
  161POPC   C4B 2245   1.604   3.043   6.608 -0.0079 -0.2013 -0.3338
  162POPC   NC3 2246   6.036   8.843   8.079 -0.1022 -0.1778  0.2396
  162POPC   PO4 2247   5.963   8.484   7.732  0.0777 -0.0860  0.1261
  162POPC   GL1 2248   5.686   8.690   7.386 -0.0702  0.1867 -0.0786
  162POPC   GL2 2249   5.297   8.878   7.430 -0.2934  0.0057 -0.0691
  162POPC   C1A 2250   5.471   8.569   6.960 -0.1124  0.1691 -0.2505
  162POPC   D2A 2251   5.469   8.769   6.502 -0.0146 -0.3059 -0.1306
  162POPC   C3A 2252   4.975   8.809   6.273 -0.1953 -0.0842 -0.1488
  162POPC   C4A 2253   4.746   8.646   5.960  0.1931  0.0309  0.0320
  162POPC   C1B 2254   5.189   8.952   6.914 -0.2696 -0.0616 -0.4079
  162POPC   C2B 2255   5.196   9.192   6.562 -0.1047 -0.2576  0.2617
  162POPC   C3B 2256   5.232   9.190   6.078  0.1586 -0.0948 -0.2319
  162POPC   C4B 2257   5.398   8.905   5.883 -0.4115  0.0044  0.0086
  163POPC   NC3 2258   0.693   7.823   7.966  0.0137  0.1696  0.1511
  163POPC   PO4 2259   0.466   8.140   7.650  0.3188 -0.0394  0.0785
  163POPC   GL1 2260   0.494   8.066   7.223  0.1774  0.0514  0.2269
  163POPC   GL2 2261   0.796   7.883   7.052  0.2549 -0.0345  0.1264
  163POPC   C1A 2262   0.242   8.017   6.813  0.2596  0.2182 -0.1590
  163POPC   D2A 2263   0.091   7.847   6.418 -0.2126  0.0389  0.2030
  163POPC   C3A 2264  -0.350   7.639   6.606  0.0285 -0.1412 -0.0439
  163POPC   C4A 2265  -0.379   7.205   6.834  0.0064 -0.0632 -0.0053
  163POPC   C1B 2266   0.952   7.886   6.651 -0.1524  0.1565 -0.2365
  163POPC   C2B 2267   0.993   7.972   6.179  0.0937  0.1232  0.1129
  163POPC   C3B 2268   1.039   8.121   5.722  0.1108 -0.1769  0.0204
  163POPC   C4B 2269   0.974   8.226   5.240 -0.1713 -0.0372  0.1095
  164POPC   NC3 2270   3.213   5.360   8.126  0.2283  0.2852 -0.0943
  164POPC   PO4 2271   3.120   5.795   7.993  0.0651 -0.0555  0.0178
  164POPC   GL1 2272   3.255   5.973   7.556 -0.0087  0.0019 -0.1661
  164POPC   GL2 2273   3.445   5.879   7.371 -0.1670  0.2567  0.0604
  164POPC   C1A 2274   2.879   6.057   7.305 -0.1329  0.0829  0.0616
  164POPC   D2A 2275   2.542   5.838   7.318  0.1563  0.1899 -0.2831
  164POPC   C3A 2276   2.152   5.799   7.040 -0.3776  0.0403  0.0588
  164POPC   C4A 2277   1.988   5.465   6.821 -0.2762 -0.0084 -0.1744
  164POPC   C1B 2278   3.292   5.892   7.015  0.2621 -0.1097 -0.0255
  164POPC   C2B 2279   2.864   5.852   6.854 -0.0319  0.1894  0.1738
  164POPC   C3B 2280   2.560   5.492   6.926 -0.2075 -0.0827  0.0133
  164POPC   C4B 2281   2.281   5.077   6.855  0.1215 -0.0379  0.1822
  165POPC   NC3 2282   7.188   2.226   8.302  0.0094  0.0304 -0.3741
  165POPC   PO4 2283   7.389   2.539   8.090  0.3294 -0.1041 -0.0092
  165POPC   GL1 2284   7.140   2.411   7.630  0.2354 -0.2020  0.3902
  165POPC   GL2 2285   7.392   2.411   7.372  0.1045  0.0806  0.1761
  165POPC   C1A 2286   7.008   2.155   7.295  0.0901 -0.0069  0.2742
  165POPC   D2A 2287   6.906   2.419   6.822 -0.0103  0.1178 -0.1566
  165POPC   C3A 2288   6.979   2.283   6.433  0.0295  0.2834 -0.1423
  165POPC   C4A 2289   6.626   2.128   6.162  0.1183 -0.2249  0.1477
  165POPC   C1B 2290   7.341   2.296   6.973 -0.0471  0.0393 -0.3605
  165POPC   C2B 2291   7.470   2.298   6.579 -0.2940 -0.1072 -0.4514
  165POPC   C3B 2292   7.791   2.392   6.290 -0.1307  0.0388  0.0962
  165POPC   C4B 2293   8.232   2.697   6.287 -0.0250 -0.2464 -0.0992
  166POPC   NC3 2294   0.893   8.375   7.204  0.0830  0.1598 -0.2216
  166POPC   PO4 2295   1.134   8.702   7.344 -0.1280 -0.1204  0.1620
  166POPC   GL1 2296   1.275   8.722   6.983  0.1817  0.0560  0.1744
  166POPC   GL2 2297   0.944   8.730   6.849  0.0877 -0.1128  0.0126
  166POPC   C1A 2298   1.618   8.648   6.649  0.1780 -0.1607  0.0304
  166POPC   D2A 2299   2.113   8.646   6.485  0.1337 -0.3710 -0.2053
  166POPC   C3A 2300   2.261   8.298   6.291  0.2418  0.1893 -0.1478
  166POPC   C4A 2301   2.571   8.046   6.211  0.2529  0.0265  0.1578
  166POPC   C1B 2302   0.744   9.072   6.545 -0.0616  0.0047  0.3475
  166POPC   C2B 2303   0.437   9.373   6.522  0.2911 -0.0178 -0.4181
  166POPC   C3B 2304   0.119   9.569   6.308 -0.0407  0.2979  0.0513
  166POPC   C4B 2305   0.354   9.792   5.988 -0.0032  0.2493  0.0460
  167POPC   NC3 2306   4.318   6.902   7.789  0.3493  0.1581 -0.0648
  167POPC   PO4 2307   4.086   6.400   7.815 -0.0095 -0.0928  0.0468
  167POPC   GL1 2308   4.270   6.499   7.347  0.4736 -0.3239 -0.3580
  167POPC   GL2 2309   4.447   6.667   7.388  0.1043  0.1749 -0.3145
  167POPC   C1A 2310   4.005   6.676   7.034 -0.1036 -0.0679  0.0746
  167POPC   D2A 2311   3.950   6.654   6.659 -0.0134 -0.1989 -0.1554
  167POPC   C3A 2312   3.802   6.962   6.389 -0.0884 -0.3863 -0.0586
  167POPC   C4A 2313   3.452   6.766   6.049 -0.1578 -0.1255  0.1184
  167POPC   C1B 2314   4.496   6.701   6.850  0.2734 -0.1552 -0.0519
  167POPC   C2B 2315   4.324   6.813   6.437 -0.0450  0.3533 -0.3752
  167POPC   C3B 2316   4.533   6.596   6.127 -0.0915 -0.0536  0.0849
  167POPC   C4B 2317   4.459   6.398   5.705 -0.2256  0.0268  0.1331
  168POPC   NC3 2318   5.288   5.189   8.242 -0.0574 -0.1921  0.1249
  168POPC   PO4 2319   5.079   4.848   8.019 -0.0258 -0.0546 -0.0692
  168POPC   GL1 2320   4.991   4.892   7.582 -0.4156 -0.4011 -0.0720
  168POPC   GL2 2321   4.813   4.634   7.403  0.2537 -0.0462  0.1832
  168POPC   C1A 2322   5.069   5.193   7.263 -0.0490  0.2919 -0.0559
  168POPC   D2A 2323   5.331   5.589   6.977 -0.1144  0.0244 -0.1947
  168POPC   C3A 2324   5.313   5.651   6.641 -0.4034  0.0539  0.0341
  168POPC   C4A 2325   5.188   5.824   6.254 -0.1876 -0.1962  0.4321
  168POPC   C1B 2326   4.954   4.514   6.925 -0.0649 -0.1617  0.0118
  168POPC   C2B 2327   5.234   4.622   6.572  0.0001 -0.0190 -0.1853
  168POPC   C3B 2328   5.246   4.903   6.272 -0.3197  0.1403 -0.0456
  168POPC   C4B 2329   5.237   5.320   6.234 -0.1194  0.1363 -0.1202
  169POPC   NC3 2330   6.890   1.527   8.779  0.1681 -0.0706 -0.0907
  169POPC   PO4 2331   6.653   1.426   8.351  0.1367 -0.0104 -0.0972
  169POPC   GL1 2332   6.714   1.391   7.902  0.4299  0.0177  0.1189
  169POPC   GL2 2333   6.654   1.745   7.719  0.0920  0.2833 -0.0022
  169POPC   C1A 2334   6.467   1.273   7.586  0.1753  0.1433 -0.1331
  169POPC   D2A 2335   6.484   0.907   7.302 -0.1787  0.1074  0.4808
  169POPC   C3A 2336   6.691   0.824   6.948 -0.0238 -0.1659  0.1468
  169POPC   C4A 2337   6.926   0.746   6.638 -0.1795 -0.1529 -0.2148
  169POPC   C1B 2338   6.733   1.669   7.303 -0.1820  0.1548 -0.1068
  169POPC   C2B 2339   6.997   1.742   6.938 -0.0666  0.1081 -0.0054
  169POPC   C3B 2340   7.098   1.770   6.449 -0.0276  0.0154 -0.1040
  169POPC   C4B 2341   6.754   1.608   6.156  0.2010  0.0376  0.1847
  170POPC   NC3 2342   7.205   5.573   8.348  0.0428 -0.0930  0.1288
  170POPC   PO4 2343   7.278   5.499   8.035  0.2892  0.1647 -0.1930
  170POPC   GL1 2344   7.223   5.619   7.621 -0.0860  0.1292 -0.0026
  170POPC   GL2 2345   6.883   5.677   7.511 -0.0787 -0.2816  0.1262
  170POPC   C1A 2346   7.353   5.585   7.166  0.6584 -0.1326 -0.0628
  170POPC   D2A 2347   7.476   5.691   6.795 -0.3476 -0.2021 -0.1269
  170POPC   C3A 2348   7.641   5.911   6.510  0.1419 -0.2051 -0.0406
  170POPC   C4A 2349   7.503   6.132   6.165 -0.1878  0.1426  0.0633
  170POPC   C1B 2350   6.826   5.676   7.037  0.3870 -0.1512  0.2042
  170POPC   C2B 2351   6.879   5.805   6.576 -0.1195 -0.1740  0.0760
  170POPC   C3B 2352   7.161   5.660   6.291  0.0544  0.0831  0.0825
  170POPC   C4B 2353   7.240   5.858   5.850  0.2488  0.2153  0.1369
  171POPC   NC3 2354   4.596   7.340   7.835  0.2548 -0.2490 -0.1399
  171POPC   PO4 2355   4.380   7.592   7.768 -0.0626  0.0820 -0.0167
  171POPC   GL1 2356   4.193   7.463   7.475 -0.1384 -0.1684  0.2815
  171POPC   GL2 2357   4.263   7.185   7.404 -0.0626  0.2645 -0.0181
  171POPC   C1A 2358   4.128   7.567   6.997  0.0145 -0.3429  0.1476
  171POPC   D2A 2359   4.444   7.703   6.655 -0.4701  0.1330 -0.1038
  171POPC   C3A 2360   4.876   7.601   6.904  0.0672  0.0462 -0.4573
  171POPC   C4A 2361   5.183   7.335   7.128  0.0871  0.0435 -0.0474
  171POPC   C1B 2362   4.180   7.107   6.967  0.1780 -0.3366 -0.2327
  171POPC   C2B 2363   4.217   7.272   6.499  0.1121 -0.2825 -0.0459
  171POPC   C3B 2364   4.246   7.216   6.152  0.2130  0.0981 -0.1114
  171POPC   C4B 2365   4.350   7.179   5.670  0.3550 -0.2164 -0.1517
  172POPC   NC3 2366   1.083   0.358   8.718  0.4390 -0.2367 -0.1956
  172POPC   PO4 2367   1.337   0.589   8.441 -0.4079 -0.2383  0.0437
  172POPC   GL1 2368   1.625   0.869   8.192  0.0590 -0.1158 -0.0099
  172POPC   GL2 2369   1.628   1.210   8.178  0.1559  0.0521  0.0747
  172POPC   C1A 2370   1.678   0.902   7.782  0.4061  0.0961  0.2244
  172POPC   D2A 2371   1.846   0.673   7.446 -0.1104  0.0425  0.1032
  172POPC   C3A 2372   1.717   0.635   7.037  0.0075  0.1013 -0.2291
  172POPC   C4A 2373   1.542   0.602   6.592 -0.4454 -0.0841 -0.1308
  172POPC   C1B 2374   1.417   1.613   8.064 -0.1746 -0.2166 -0.1046
  172POPC   C2B 2375   1.179   1.921   7.742 -0.2801 -0.0221  0.1640
  172POPC   C3B 2376   0.917   2.295   7.685 -0.2256 -0.0614 -0.2554
  172POPC   C4B 2377   0.644   2.647   7.747 -0.1112 -0.1098  0.0521
  173POPC   NC3 2378   3.611   8.334   7.638 -0.0844  0.2217  0.2988
  173POPC   PO4 2379   4.047   8.374   7.704  0.0884 -0.2392  0.2468
  173POPC   GL1 2380   4.211   8.004   7.531  0.1883 -0.2843 -0.0415
  173POPC   GL2 2381   3.868   7.938   7.376 -0.1568  0.0825  0.1777
  173POPC   C1A 2382   4.463   7.929   7.162 -0.1567 -0.0412  0.0281
  173POPC   D2A 2383   4.695   8.082   6.901  0.0890  0.0845 -0.4268
  173POPC   C3A 2384   4.509   8.395   6.715  0.1699 -0.2160  0.0752
  173POPC   C4A 2385   4.551   8.768   6.443  0.0595 -0.0432 -0.0796
  173POPC   C1B 2386   3.989   8.088   6.906 -0.0939 -0.2056 -0.1965
  173POPC   C2B 2387   3.987   8.240   6.509  0.3666 -0.0160 -0.1004
  173POPC   C3B 2388   4.000   8.340   6.084 -0.0953  0.0384 -0.1067
  173POPC   C4B 2389   4.411   8.364   5.813 -0.1703 -0.0300 -0.0226
  174POPC   NC3 2390   8.005   4.193   3.678  0.1056 -0.0293 -0.1143
  174POPC   PO4 2391   8.231   4.365   4.050 -0.1455 -0.0996  0.1429
  174POPC   GL1 2392   8.348   4.194   4.422  0.0120  0.1741 -0.1267
  174POPC   GL2 2393   8.138   4.029   4.623  0.3325 -0.1469 -0.0827
  174POPC   C1A 2394   8.673   4.234   4.719 -0.1014 -0.2268 -0.3361
  174POPC   D2A 2395   8.795   4.447   5.130  0.2131 -0.3995  0.2141
  174POPC   C3A 2396   8.794   4.635   5.471  0.0672 -0.0320 -0.0131
  174POPC   C4A 2397   9.128   4.740   5.678  0.0081  0.1358 -0.4654
  174POPC   C1B 2398   8.112   4.328   5.016 -0.0190  0.0012 -0.2292
  174POPC   C2B 2399   7.872   4.402   5.385 -0.0034 -0.1219  0.3746
  174POPC   C3B 2400   7.472   4.518   5.551 -0.0368  0.0052  0.1731
  174POPC   C4B 2401   7.170   4.624   5.352  0.0593  0.1134  0.1629
  175POPC   NC3 2402   3.340   5.121   3.946  0.3379 -0.1348  0.0946
  175POPC   PO4 2403   2.984   4.876   4.106 -0.1317 -0.0168  0.0156
  175POPC   GL1 2404   2.862   4.765   4.509  0.4465  0.2730  0.2309
  175POPC   GL2 2405   2.627   4.479   4.553  0.0480 -0.0175  0.0938
  175POPC   C1A 2406   2.811   4.897   4.907 -0.1527 -0.0094  0.1360
  175POPC   D2A 2407   2.878   4.890   5.371  0.1317  0.2422 -0.4258
  175POPC   C3A 2408   2.623   4.633   5.654 -0.3568 -0.1634  0.0785
  175POPC   C4A 2409   2.472   4.303   5.865  0.2235  0.0866  0.2550
  175POPC   C1B 2410   2.484   4.207   4.803  0.0734 -0.0725 -0.0894
  175POPC   C2B 2411   2.500   4.078   5.236  0.1515  0.3749  0.0948
  175POPC   C3B 2412   2.612   3.864   5.619 -0.2612 -0.1693  0.0923
  175POPC   C4B 2413   2.574   3.532   5.928 -0.1717  0.0004  0.1672
  176POPC   NC3 2414   8.417   2.442   3.864  0.0435 -0.1869  0.2249
  176POPC   PO4 2415   8.003   2.188   3.943  0.1197  0.0787 -0.0889
  176POPC   GL1 2416   8.095   1.832   4.225 -0.1941 -0.3145  0.2388
  176POPC   GL2 2417   8.274   1.643   4.207  0.2021 -0.0253  0.1420
  176POPC   C1A 2418   7.979   1.764   4.676 -0.2286  0.1656  0.2946
  176POPC   D2A 2419   8.166   1.524   4.996  0.3159  0.1962 -0.1530
  176POPC   C3A 2420   8.144   1.812   5.445  0.2660 -0.2189  0.0431
  176POPC   C4A 2421   7.913   2.131   5.659  0.3737  0.2090 -0.2395
  176POPC   C1B 2422   8.488   1.662   4.581 -0.1490  0.1081 -0.0493
  176POPC   C2B 2423   8.693   1.617   5.018  0.0283  0.0947 -0.0454
  176POPC   C3B 2424   8.978   1.525   5.372  0.3012  0.1837  0.1715
  176POPC   C4B 2425   9.333   1.721   5.374  0.1549  0.1459 -0.2025
  177POPC   NC3 2426   0.566   8.763   3.119  0.0788 -0.0271 -0.0105
  177POPC   PO4 2427   0.811   8.898   3.466 -0.0462  0.0897  0.2822
  177POPC   GL1 2428   1.309   9.051   3.762 -0.1266  0.2778 -0.1771
  177POPC   GL2 2429   1.252   9.408   3.869  0.2000 -0.0199  0.2282
  177POPC   C1A 2430   1.636   9.221   4.168  0.4275  0.0491 -0.1000
  177POPC   D2A 2431   1.761   9.076   4.573 -0.2243  0.0941 -0.1420
  177POPC   C3A 2432   1.434   8.719   4.737 -0.2558 -0.1853 -0.2537
  177POPC   C4A 2433   1.514   8.394   5.022 -0.1036  0.0049 -0.3598
  177POPC   C1B 2434   1.161   9.516   4.222  0.0822  0.1644 -0.1889
  177POPC   C2B 2435   1.212   9.960   4.383  0.2714 -0.0645 -0.2452
  177POPC   C3B 2436   1.394  10.321   4.603 -0.0429 -0.1169 -0.0839
  177POPC   C4B 2437   1.652  10.767   4.460  0.0072  0.1509  0.0109
  178POPC   NC3 2438   9.376  10.576   3.468  0.5349  0.0592 -0.1327
  178POPC   PO4 2439   9.314  11.061   3.673  0.0724 -0.0709 -0.1550
  178POPC   GL1 2440   9.243  11.107   4.125 -0.1499 -0.1310 -0.0300
  178POPC   GL2 2441   9.121  11.438   4.134  0.1681 -0.1089 -0.0242
  178POPC   C1A 2442   9.175  11.104   4.503  0.2498 -0.0705 -0.0479
  178POPC   D2A 2443   9.176  11.357   4.800 -0.3141  0.2306  0.0476
  178POPC   C3A 2444   9.365  11.262   5.198 -0.1112  0.1936 -0.0131
  178POPC   C4A 2445   9.591  11.519   5.493 -0.1325  0.0679 -0.3885
  178POPC   C1B 2446   8.756  11.254   4.173  0.2554  0.0006 -0.1429
  178POPC   C2B 2447   8.667  11.179   4.632 -0.2218 -0.2590  0.2656
  178POPC   C3B 2448   8.509  10.832   4.919 -0.1288 -0.0014  0.2552
  178POPC   C4B 2449   8.623  10.492   5.114 -0.1587  0.1385 -0.0046
  179POPC   NC3 2450   1.745   4.615   3.432 -0.0323 -0.2452  0.0168
  179POPC   PO4 2451   1.810   4.344   3.183  0.3657 -0.2904 -0.0638
  179POPC   GL1 2452   1.693   4.041   3.490 -0.4229 -0.2777 -0.2106
  179POPC   GL2 2453   1.976   4.031   3.752 -0.0952  0.1648 -0.1650
  179POPC   C1A 2454   1.505   3.745   3.793  0.0910 -0.2008 -0.2646
  179POPC   D2A 2455   1.405   3.535   4.147  0.1265  0.0192 -0.0219
  179POPC   C3A 2456   1.022   3.690   4.403  0.2173  0.0099 -0.1329
  179POPC   C4A 2457   1.178   3.932   4.706  0.2812  0.2356 -0.1636
  179POPC   C1B 2458   1.812   3.877   4.151 -0.3239 -0.0631  0.1855
  179POPC   C2B 2459   1.642   3.704   4.583 -0.2027  0.6000  0.3362
  179POPC   C3B 2460   1.494   3.650   4.966 -0.0933 -0.1971  0.3068
  179POPC   C4B 2461   1.447   3.705   5.355  0.2224 -0.4943 -0.0687
  180POPC   NC3 2462   8.902   9.680   3.709 -0.1624 -0.2121  0.2659
  180POPC   PO4 2463   9.104  10.194   3.701  0.0510  0.2534  0.2181
  180POPC   GL1 2464   9.180  10.270   4.150  0.2668 -0.1564 -0.0154
  180POPC   GL2 2465   9.372  10.559   4.102 -0.0477 -0.0152 -0.0710
  180POPC   C1A 2466   9.128  10.078   4.558 -0.2495 -0.0438  0.0516
  180POPC   D2A 2467   9.217  10.248   4.939  0.0846 -0.1745 -0.0755
  180POPC   C3A 2468   9.050  10.314   5.314 -0.2367 -0.0014  0.0876
  180POPC   C4A 2469   8.886  10.134   5.700 -0.0247  0.2239  0.0597
  180POPC   C1B 2470   9.364  10.568   4.597 -0.0448 -0.0674 -0.3747
  180POPC   C2B 2471   9.035  10.718   4.955 -0.1549 -0.2404 -0.2705
  180POPC   C3B 2472   8.903  11.005   5.278 -0.1818  0.2161  0.2622
  180POPC   C4B 2473   8.569  11.275   5.206  0.2789 -0.1279 -0.1211
  181POPC   NC3 2474   7.584   9.683   3.707  0.0364 -0.1302 -0.1194
  181POPC   PO4 2475   7.293   9.206   3.779 -0.2087 -0.1670 -0.1826
  181POPC   GL1 2476   7.439   9.182   4.188 -0.1696  0.2495 -0.0138
  181POPC   GL2 2477   7.742   9.115   4.272 -0.0508 -0.1800  0.0729
  181POPC   C1A 2478   7.269   9.134   4.668 -0.0857 -0.2661 -0.0541
  181POPC   D2A 2479   7.382   9.415   5.083 -0.0604  0.1170 -0.1754
  181POPC   C3A 2480   7.514   9.159   5.480  0.0373 -0.2324  0.1620
  181POPC   C4A 2481   7.498   9.010   5.941 -0.1903 -0.4273 -0.0383
  181POPC   C1B 2482   8.073   9.002   4.383  0.0841 -0.0547 -0.1365
  181POPC   C2B 2483   8.187   8.943   4.842 -0.1118  0.2145  0.0821
  181POPC   C3B 2484   7.946   8.730   5.196 -0.4010 -0.1701 -0.2073
  181POPC   C4B 2485   7.673   8.668   5.480  0.0433 -0.0667 -0.1154
  182POPC   NC3 2486   8.874   6.745   3.860  0.1669 -0.0911  0.4009
  182POPC   PO4 2487   8.581   7.096   4.018  0.0680 -0.1789 -0.0971
  182POPC   GL1 2488   8.734   6.966   4.380  0.1789  0.1396  0.1793
  182POPC   GL2 2489   9.000   6.938   4.452 -0.1383 -0.0089 -0.3002
  182POPC   C1A 2490   8.795   6.558   4.659 -0.1261  0.4607  0.0712
  182POPC   D2A 2491   8.713   6.471   5.007 -0.3081  0.0144  0.2416
  182POPC   C3A 2492   8.877   6.691   5.307 -0.1159 -0.3863 -0.0181
  182POPC   C4A 2493   8.812   6.722   5.800 -0.3720 -0.2787 -0.1156
  182POPC   C1B 2494   9.038   6.950   4.946 -0.0407 -0.0451  0.0147
  182POPC   C2B 2495   9.296   7.217   5.287  0.0078 -0.2214  0.1887
  182POPC   C3B 2496   9.651   7.356   5.416 -0.2186 -0.0433 -0.1546
  182POPC   C4B 2497   9.986   7.412   5.815 -0.0755 -0.1491  0.0185
  183POPC   NC3 2498   9.849   3.086   3.291 -0.1106 -0.1641 -0.1241
  183POPC   PO4 2499   9.464   3.180   3.543  0.0991 -0.1483 -0.2643
  183POPC   GL1 2500   9.660   3.382   3.789  0.0688 -0.0359  0.0306
  183POPC   GL2 2501  10.011   3.582   3.869  0.0381 -0.2078 -0.1618
  183POPC   C1A 2502   9.655   3.528   4.331 -0.0551 -0.2425  0.1451
  183POPC   D2A 2503   9.399   3.644   4.827 -0.1758  0.0102 -0.1207
  183POPC   C3A 2504   9.639   3.563   5.208 -0.0389 -0.5107 -0.0233
  183POPC   C4A 2505   9.783   3.407   5.571 -0.1027  0.2107 -0.1228
  183POPC   C1B 2506   9.941   3.135   4.132  0.1275  0.0823 -0.1182
  183POPC   C2B 2507   9.970   3.235   4.595  0.3783 -0.3696  0.0751
  183POPC   C3B 2508  10.128   3.405   4.793 -0.1603  0.4315  0.2827
  183POPC   C4B 2509  10.168   3.453   5.204  0.2245  0.0662 -0.2070
  184POPC   NC3 2510   6.069   2.385   3.850 -0.1101  0.0878 -0.0748
  184POPC   PO4 2511   5.899   2.720   4.101 -0.2021  0.0270  0.0982
  184POPC   GL1 2512   5.952   2.670   4.539 -0.0210 -0.0437 -0.1802
  184POPC   GL2 2513   6.007   2.919   4.809 -0.2097  0.0880 -0.1625
  184POPC   C1A 2514   5.688   2.594   4.972  0.3822 -0.0735  0.1922
  184POPC   D2A 2515   5.760   2.367   5.388 -0.0897 -0.0138 -0.1086
  184POPC   C3A 2516   6.008   2.536   5.664 -0.1272  0.2137 -0.2673
  184POPC   C4A 2517   6.008   2.902   5.857 -0.2992 -0.0173 -0.3891
  184POPC   C1B 2518   6.165   2.827   5.262  0.1073 -0.0802  0.2887
  184POPC   C2B 2519   6.433   2.914   5.641  0.1699 -0.0429  0.1734
  184POPC   C3B 2520   6.515   2.846   6.051  0.0690  0.1530 -0.0102
  184POPC   C4B 2521   6.781   2.752   6.399 -0.1449  0.1492 -0.3274
  185POPC   NC3 2522   4.872   1.473   4.099 -0.1091  0.1638 -0.1772
  185POPC   PO4 2523   5.129   1.055   4.183 -0.2152 -0.1287  0.1726
  185POPC   GL1 2524   4.976   1.267   4.542 -0.2674  0.0118 -0.1684
  185POPC   GL2 2525   4.865   1.588   4.602  0.0742 -0.0352 -0.0581
  185POPC   C1A 2526   5.050   1.257   5.037 -0.0024  0.0562 -0.1788
  185POPC   D2A 2527   4.693   1.416   5.321  0.3469 -0.0608 -0.0669
  185POPC   C3A 2528   4.680   1.717   5.571  0.0088  0.4515  0.1876
  185POPC   C4A 2529   4.454   1.831   5.878 -0.0977 -0.0468 -0.2910
  185POPC   C1B 2530   4.620   1.676   4.881  0.1379  0.0506  0.1080
  185POPC   C2B 2531   4.501   1.918   5.193 -0.3516  0.1689  0.1558
  185POPC   C3B 2532   4.133   2.007   5.454  0.0277 -0.2507  0.3948
  185POPC   C4B 2533   3.880   2.259   5.643 -0.0325 -0.1605  0.3147
  186POPC   NC3 2534   2.283   6.858   3.900 -0.2888  0.3456 -0.1051
  186POPC   PO4 2535   2.301   6.893   4.371 -0.3357  0.1465 -0.0190
  186POPC   GL1 2536   2.074   6.554   4.663  0.1507  0.4140  0.2970
  186POPC   GL2 2537   1.883   6.728   4.933 -0.2626 -0.0292 -0.1753
  186POPC   C1A 2538   2.204   6.307   5.027  0.1884 -0.0546  0.1238
  186POPC   D2A 2539   2.239   6.135   5.376 -0.0754  0.1894 -0.3549
  186POPC   C3A 2540   2.010   6.370   5.632  0.2270  0.1265  0.3689
  186POPC   C4A 2541   2.300   6.372   5.849  0.1153  0.0251  0.0702
  186POPC   C1B 2542   2.113   6.731   5.313  0.2364 -0.0421 -0.0625
  186POPC   C2B 2543   2.483   6.651   5.326 -0.2097 -0.0620 -0.1093
  186POPC   C3B 2544   2.719   6.286   5.434  0.2902 -0.1017 -0.1194
  186POPC   C4B 2545   2.911   5.873   5.402 -0.1804 -0.1176 -0.3799
  187POPC   NC3 2546   7.407   1.198   3.922  0.2400  0.0689 -0.1263
  187POPC   PO4 2547   7.205   1.507   4.214 -0.2130 -0.1001 -0.1583
  187POPC   GL1 2548   7.467   1.704   4.611  0.0536  0.0085  0.0989
  187POPC   GL2 2549   7.454   1.974   4.732 -0.0730  0.0486  0.1206
  187POPC   C1A 2550   7.664   1.738   5.111 -0.0962  0.1165 -0.0967
  187POPC   D2A 2551   7.556   1.802   5.540 -0.0466 -0.0813  0.1301
  187POPC   C3A 2552   7.516   1.490   5.837  0.1126  0.1154  0.0175
  187POPC   C4A 2553   7.258   1.436   6.124 -0.1887 -0.0615 -0.1095
  187POPC   C1B 2554   7.105   2.246   4.809  0.0433  0.1336  0.1506
  187POPC   C2B 2555   6.846   2.566   4.767  0.0342 -0.0014 -0.3882
  187POPC   C3B 2556   6.413   2.535   4.788 -0.2259 -0.0465  0.2343
  187POPC   C4B 2557   6.129   2.360   4.996  0.0751  0.0088  0.0115
  188POPC   NC3 2558   0.051   1.156   3.064 -0.0889  0.2105 -0.0967
  188POPC   PO4 2559  -0.018   0.877   3.255  0.4467  0.2131  0.1689
  188POPC   GL1 2560   0.115   1.015   3.622 -0.1818  0.1353  0.4955
  188POPC   GL2 2561   0.104   0.831   3.834 -0.1368 -0.1602  0.0298
  188POPC   C1A 2562   0.385   1.229   3.982 -0.0302  0.2594  0.0026
  188POPC   D2A 2563   0.654   1.299   4.304  0.1382 -0.1343 -0.1040
  188POPC   C3A 2564   0.785   1.730   4.408  0.0849  0.2416  0.1763
  188POPC   C4A 2565   0.997   2.048   4.243 -0.1248  0.0053  0.0578
  188POPC   C1B 2566  -0.339   1.087   3.914 -0.2615 -0.0202  0.1507
  188POPC   C2B 2567  -0.754   1.207   4.102  0.1066  0.1119  0.2639
  188POPC   C3B 2568  -1.158   1.408   4.265 -0.2283 -0.2117 -0.2588
  188POPC   C4B 2569  -1.416   1.181   4.582  0.2884 -0.0780  0.1235
  189POPC   NC3 2570   0.674   1.017   3.095 -0.1259  0.0294 -0.0154
  189POPC   PO4 2571   0.501   0.747   3.304 -0.1527 -0.0346 -0.1709
  189POPC   GL1 2572   0.641   0.738   3.721 -0.0166 -0.2396  0.2597
  189POPC   GL2 2573   0.762   0.495   3.955  0.2495  0.0214  0.2097
  189POPC   C1A 2574   0.891   0.960   3.995  0.1817  0.0155 -0.4383
  189POPC   D2A 2575   1.084   1.344   4.014  0.0457  0.1962 -0.3871
  189POPC   C3A 2576   0.761   1.643   3.843 -0.1341  0.0662 -0.1239
  189POPC   C4A 2577   0.826   2.078   3.772 -0.3024 -0.2869 -0.0878
  189POPC   C1B 2578   0.473   0.751   4.229 -0.1808  0.1447  0.2333
  189POPC   C2B 2579   0.582   0.906   4.591  0.0900  0.0065 -0.1146
  189POPC   C3B 2580   0.450   0.810   4.885  0.1771 -0.2202  0.0765
  189POPC   C4B 2581   0.213   0.993   5.253  0.2048  0.3343 -0.0473
  190POPC   NC3 2582   0.629   1.899   2.355 -0.1057 -0.2675 -0.2931
  190POPC   PO4 2583   0.648   1.777   2.802  0.1437  0.0404 -0.2909
  190POPC   GL1 2584   0.788   1.610   3.211  0.1377  0.0120  0.2649
  190POPC   GL2 2585   0.380   1.481   3.216 -0.1040  0.0871 -0.0579
  190POPC   C1A 2586   1.079   1.378   3.553 -0.0846 -0.1392  0.3876
  190POPC   D2A 2587   1.361   1.002   3.754 -0.1820 -0.1255 -0.2174
  190POPC   C3A 2588   1.371   0.972   4.229  0.1327 -0.2952  0.1569
  190POPC   C4A 2589   1.658   0.925   4.463  0.0442 -0.0325 -0.1658
  190POPC   C1B 2590   0.286   1.591   3.513  0.3800 -0.2949  0.0826
  190POPC   C2B 2591   0.385   2.015   3.497 -0.2674 -0.0484 -0.0521
  190POPC   C3B 2592   0.481   2.394   3.714  0.2162  0.2762  0.2123
  190POPC   C4B 2593   0.200   2.740   3.755  0.1188  0.1585 -0.0922
  191POPC   NC3 2594   8.767   1.255   3.414  0.0423  0.1927 -0.0932
  191POPC   PO4 2595   8.462   1.028   3.652 -0.2594  0.0382  0.1256
  191POPC   GL1 2596   8.334   1.006   4.071  0.0711 -0.1511 -0.0778
  191POPC   GL2 2597   8.537   1.244   4.264 -0.2622 -0.5086 -0.1876
  191POPC   C1A 2598   8.226   0.701   4.462  0.1704  0.0535  0.2309
  191POPC   D2A 2599   8.122   0.529   4.873 -0.0969  0.0323 -0.0624
  191POPC   C3A 2600   7.783   0.396   5.053  0.1653  0.0366 -0.2228
  191POPC   C4A 2601   7.793   0.173   5.601 -0.0993  0.2035 -0.0995
  191POPC   C1B 2602   8.668   1.135   4.598 -0.0768 -0.1915  0.1196
  191POPC   C2B 2603   8.746   1.132   5.029 -0.2797 -0.0187 -0.0765
  191POPC   C3B 2604   8.941   0.958   5.392  0.1182  0.0079 -0.0394
  191POPC   C4B 2605   8.974   1.101   5.859 -0.1459 -0.1781  0.2124
  192POPC   NC3 2606   3.859  10.191   3.869  0.0277  0.0470 -0.0192
  192POPC   PO4 2607   3.512  10.548   3.857 -0.0782 -0.0903  0.3816
  192POPC   GL1 2608   3.700  10.523   4.211  0.1593 -0.0388  0.0270
  192POPC   GL2 2609   3.880  10.890   4.407 -0.2854 -0.1143  0.0743
  192POPC   C1A 2610   3.767  10.448   4.640 -0.0740 -0.2072  0.2977
  192POPC   D2A 2611   3.584  10.473   5.003 -0.2903  0.1811 -0.1152
  192POPC   C3A 2612   3.598  10.952   5.167 -0.3739  0.0396  0.0677
  192POPC   C4A 2613   3.943  11.124   5.477  0.0927 -0.0547 -0.0071
  192POPC   C1B 2614   3.672  11.198   4.717 -0.0492  0.2710 -0.0243
  192POPC   C2B 2615   3.741  11.425   5.089  0.1026  0.0618  0.0844
  192POPC   C3B 2616   3.847  11.585   5.417  0.3563  0.1233  0.0441
  192POPC   C4B 2617   3.959  11.760   5.737  0.2987 -0.4980  0.0336
  193POPC   NC3 2618   2.334   9.230   3.796  0.2122  0.2696  0.0502
  193POPC   PO4 2619   2.762   9.371   3.920  0.0008 -0.4263 -0.3070
  193POPC   GL1 2620   2.450   9.428   4.236  0.0862  0.3337  0.0369
  193POPC   GL2 2621   2.592   9.547   4.442 -0.1307 -0.1888 -0.1074
  193POPC   C1A 2622   2.134   9.554   4.572 -0.2011  0.0722 -0.1890
  193POPC   D2A 2623   1.880   9.474   4.960  0.1548 -0.2675  0.1742
  193POPC   C3A 2624   2.056   9.245   5.271  0.3956  0.0042 -0.0736
  193POPC   C4A 2625   2.143   9.286   5.777  0.2565  0.1758  0.2231
  193POPC   C1B 2626   2.980   9.609   4.792  0.1909 -0.2956 -0.0500
  193POPC   C2B 2627   3.060   9.496   5.245 -0.1420  0.1328  0.3036
  193POPC   C3B 2628   2.865   9.512   5.629  0.2659  0.2802 -0.0360
  193POPC   C4B 2629   2.943   9.696   6.054 -0.1386  0.0557 -0.0428
  194POPC   NC3 2630  10.537   4.890   3.955  0.0828 -0.0037  0.3604
  194POPC   PO4 2631  10.674   4.619   3.618 -0.1975  0.0397  0.1902
  194POPC   GL1 2632  10.779   4.415   4.030 -0.0380  0.2543 -0.0763
  194POPC   GL2 2633  10.490   4.222   3.985 -0.0934 -0.0207  0.3228
  194POPC   C1A 2634  10.868   4.102   4.272 -0.3221 -0.0988 -0.3513
  194POPC   D2A 2635  11.047   3.673   4.444  0.0650 -0.1790  0.0622
  194POPC   C3A 2636  10.743   3.606   4.824  0.3565  0.0909  0.1251
  194POPC   C4A 2637  10.910   3.725   5.171  0.0232 -0.0974  0.1334
  194POPC   C1B 2638  10.390   3.943   4.214 -0.2463 -0.2012  0.1966
  194POPC   C2B 2639  10.080   3.804   4.487 -0.0340  0.3196 -0.2138
  194POPC   C3B 2640   9.962   3.868   4.975 -0.2309 -0.1016  0.1486
  194POPC   C4B 2641   9.977   3.846   5.457  0.2120 -0.2592 -0.3042
  195POPC   NC3 2642   2.574   2.043   2.075  0.0139 -0.0468 -0.1020
  195POPC   PO4 2643   2.334   1.916   2.488 -0.2938  0.0229  0.1640
  195POPC   GL1 2644   2.195   1.899   2.911 -0.3798 -0.2349  0.3282
  195POPC   GL2 2645   2.266   2.256   2.930  0.2932  0.0231  0.0264
  195POPC   C1A 2646   1.987   2.064   3.356  0.3089 -0.3215  0.2599
  195POPC   D2A 2647   1.720   2.027   3.618  0.0740  0.0627  0.0789
  195POPC   C3A 2648   1.468   2.290   3.961  0.5353 -0.2417  0.2503
  195POPC   C4A 2649   1.315   2.441   4.328  0.0353  0.1984 -0.0723
  195POPC   C1B 2650   2.423   2.309   3.258 -0.2138  0.0130  0.0259
  195POPC   C2B 2651   2.526   2.480   3.608  0.2410  0.1644  0.0825
  195POPC   C3B 2652   2.387   2.634   4.064 -0.4702 -0.0882  0.2103
  195POPC   C4B 2653   2.391   2.539   4.458 -0.2881  0.2362  0.0233
  196POPC   NC3 2654   2.509   8.092   3.895  0.0293 -0.0771 -0.1478
  196POPC   PO4 2655   2.577   8.458   3.818  0.1601 -0.0528 -0.1204
  196POPC   GL1 2656   2.571   8.498   4.259  0.3037  0.0894  0.0938
  196POPC   GL2 2657   2.359   8.670   4.517  0.6366  0.1337  0.0761
  196POPC   C1A 2658   2.693   8.316   4.702  0.0922 -0.1547 -0.2827
  196POPC   D2A 2659   2.393   8.110   5.068 -0.1846  0.0259 -0.1851
  196POPC   C3A 2660   2.063   8.380   5.300  0.0203 -0.1417  0.1056
  196POPC   C4A 2661   1.772   8.639   5.627  0.2279 -0.0264  0.0617
  196POPC   C1B 2662   2.293   9.068   4.682  0.1587 -0.0304  0.2662
  196POPC   C2B 2663   2.430   9.388   4.983 -0.0517  0.1760 -0.0429
  196POPC   C3B 2664   2.620   9.767   5.171 -0.2876  0.1408 -0.4069
  196POPC   C4B 2665   2.595   9.942   5.679 -0.1035 -0.0010  0.3701
  197POPC   NC3 2666   3.691   2.462   3.164  0.0041 -0.0608  0.0091
  197POPC   PO4 2667   3.290   2.254   3.174  0.0593  0.0868 -0.1812
  197POPC   GL1 2668   3.091   2.091   3.419 -0.2845 -0.0838 -0.1556
  197POPC   GL2 2669   3.320   1.842   3.588  0.2330  0.1807  0.0060
  197POPC   C1A 2670   2.704   1.927   3.587 -0.0741 -0.3560  0.2716
  197POPC   D2A 2671   2.254   1.904   3.775 -0.1929 -0.0174  0.0295
  197POPC   C3A 2672   2.302   1.609   4.034 -0.2584  0.1466  0.2596
  197POPC   C4A 2673   2.060   1.247   4.231  0.6210 -0.1813 -0.0624
  197POPC   C1B 2674   3.009   1.857   3.943  0.1314 -0.2505  0.0097
  197POPC   C2B 2675   2.723   1.731   4.225 -0.0908  0.0279  0.2197
  197POPC   C3B 2676   2.372   1.505   4.555  0.2759 -0.2328 -0.1877
  197POPC   C4B 2677   2.116   1.020   4.678  0.2187  0.0899 -0.0202
  198POPC   NC3 2678   5.718   2.063   3.494  0.1623  0.2167 -0.0332
  198POPC   PO4 2679   5.622   2.200   3.955 -0.1765  0.0011 -0.0735
  198POPC   GL1 2680   5.506   2.003   4.246  0.0728 -0.3027  0.0242
  198POPC   GL2 2681   5.769   1.848   4.352  0.0381  0.3456 -0.0328
  198POPC   C1A 2682   5.295   1.895   4.569 -0.2352 -0.4230  0.0743
  198POPC   D2A 2683   5.158   1.775   5.026 -0.0722  0.1402 -0.0613
  198POPC   C3A 2684   5.414   1.673   5.245 -0.2425 -0.1623 -0.2412
  198POPC   C4A 2685   5.755   1.865   5.406 -0.2341 -0.1604 -0.1029
  198POPC   C1B 2686   5.740   2.117   4.711 -0.0114 -0.0858 -0.2839
  198POPC   C2B 2687   5.476   2.135   5.073  0.0945 -0.0157  0.1720
  198POPC   C3B 2688   5.349   2.126   5.509  0.1768  0.1465  0.0244
  198POPC   C4B 2689   5.182   1.798   5.764 -0.1231  0.0208  0.1454
  199POPC   NC3 2690   6.005  10.203   4.478 -0.1608  0.0277 -0.0656
  199POPC   PO4 2691   5.702  10.435   4.224 -0.2077 -0.0969  0.2939
  199POPC   GL1 2692   5.529  10.374   4.551 -0.0327  0.2395 -0.3905
  199POPC   GL2 2693   5.677  10.530   4.792 -0.0314 -0.1560 -0.1384
  199POPC   C1A 2694   5.233  10.287   4.896 -0.1251 -0.1093  0.0767
  199POPC   D2A 2695   5.000  10.426   5.263  0.2466 -0.2301 -0.0295
  199POPC   C3A 2696   5.032  10.288   5.643  0.2101 -0.1136  0.0957
  199POPC   C4A 2697   5.208  10.551   6.041 -0.0710 -0.1578  0.1145
  199POPC   C1B 2698   5.738  10.300   5.154  0.2049 -0.1376  0.4863
  199POPC   C2B 2699   5.958  10.223   5.398 -0.1667  0.0186  0.0098
  199POPC   C3B 2700   6.057  10.060   5.664  0.2144  0.4731 -0.0118
  199POPC   C4B 2701   5.974  10.261   6.046 -0.0991  0.2980  0.2545
  200POPC   NC3 2702   7.764   7.350   3.665 -0.0546  0.0335 -0.2904
  200POPC   PO4 2703   7.682   7.791   3.618 -0.0407 -0.3819  0.0708
  200POPC   GL1 2704   7.533   7.600   4.074  0.0860 -0.1993 -0.2744
  200POPC   GL2 2705   7.289   7.810   4.053  0.0915 -0.0010 -0.0438
  200POPC   C1A 2706   7.574   7.571   4.487 -0.1440  0.2060 -0.1216
  200POPC   D2A 2707   7.748   7.697   4.849  0.0383 -0.0044  0.1373
  200POPC   C3A 2708   8.145   7.873   4.953 -0.0414 -0.0960 -0.0913
  200POPC   C4A 2709   8.536   7.724   5.037 -0.2502 -0.0695  0.6268
  200POPC   C1B 2710   7.341   8.067   4.490 -0.3690  0.1921  0.1687
  200POPC   C2B 2711   7.217   7.998   4.929 -0.2309 -0.0496  0.2663
  200POPC   C3B 2712   7.386   7.911   5.285  0.0766 -0.2464  0.3217
  200POPC   C4B 2713   7.730   7.716   5.392 -0.1936  0.0050  0.0841
  201POPC   NC3 2714   5.551   9.357   3.592  0.0894  0.0700 -0.0868
  201POPC   PO4 2715   5.786   9.163   3.948  0.1888  0.1002 -0.2246
  201POPC   GL1 2716   5.679   9.126   4.401  0.0198  0.0132  0.1871
  201POPC   GL2 2717   5.755   8.822   4.642  0.1718 -0.2737  0.2532
  201POPC   C1A 2718   5.628   9.467   4.683 -0.0169 -0.1144 -0.0887
  201POPC   D2A 2719   5.999   9.729   4.752  0.1659  0.2319 -0.1742
  201POPC   C3A 2720   5.941   9.633   5.167  0.1211 -0.1393 -0.1116
  201POPC   C4A 2721   5.960   9.584   5.540 -0.0156 -0.2287  0.0243
  201POPC   C1B 2722   5.782   8.876   5.012 -0.0741  0.0730 -0.1255
  201POPC   C2B 2723   6.012   9.135   5.402 -0.3277  0.2037 -0.0437
  201POPC   C3B 2724   6.141   9.242   5.835 -0.2063 -0.0387 -0.1386
  201POPC   C4B 2725   6.326   9.350   6.223 -0.2040  0.0128  0.2808
  202POPC   NC3 2726  10.533   7.806   4.160  0.0136  0.1672  0.0423
  202POPC   PO4 2727  10.438   7.349   4.132 -0.0542  0.2512 -0.2205
  202POPC   GL1 2728  10.376   7.442   4.528 -0.0650  0.1620 -0.2140
  202POPC   GL2 2729  10.597   7.612   4.669 -0.4100  0.1613  0.0114
  202POPC   C1A 2730  10.520   7.239   5.027  0.2319  0.1277 -0.0005
  202POPC   D2A 2731  10.768   7.029   5.234  0.0177 -0.0934  0.0897
  202POPC   C3A 2732  10.849   7.022   5.662  0.1120  0.0704  0.0091
  202POPC   C4A 2733  10.492   6.981   5.911  0.0202 -0.0082 -0.4497
  202POPC   C1B 2734  10.355   7.805   4.915 -0.1218  0.3211 -0.0694
  202POPC   C2B 2735  10.159   7.768   5.293 -0.1398 -0.0935  0.0174
  202POPC   C3B 2736   9.801   7.898   5.542 -0.0698  0.1952 -0.2936
  202POPC   C4B 2737   9.556   7.680   5.869  0.1737 -0.0340 -0.2969
  203POPC   NC3 2738   9.012   5.546   4.108 -0.2233  0.2897 -0.0196
  203POPC   PO4 2739   9.291   5.234   4.006  0.2306  0.0590 -0.1549
  203POPC   GL1 2740   9.488   5.104   4.435  0.0019 -0.0714  0.1743
  203POPC   GL2 2741   9.287   5.244   4.646 -0.2270  0.2641  0.0926
  203POPC   C1A 2742   9.681   4.849   4.737 -0.0771 -0.0543  0.0758
  203POPC   D2A 2743   9.796   4.735   5.177  0.0214 -0.0204  0.0478
  203POPC   C3A 2744   9.630   4.973   5.521  0.0608 -0.0481 -0.3040
  203POPC   C4A 2745   9.688   4.973   5.935 -0.0238  0.0007 -0.0400
  203POPC   C1B 2746   8.958   5.380   4.868 -0.0665 -0.2127  0.0701
  203POPC   C2B 2747   8.903   5.593   5.256 -0.2863  0.4057 -0.1454
  203POPC   C3B 2748   9.069   5.890   5.552 -0.2181 -0.1871  0.2275
  203POPC   C4B 2749   9.003   6.274   5.862 -0.1688  0.2125 -0.0424
  204POPC   NC3 2750   8.161   6.155   3.976 -0.0638 -0.0958  0.1158
  204POPC   PO4 2751   8.490   5.791   3.822  0.2906  0.0894 -0.1161
  204POPC   GL1 2752   8.677   5.909   4.236  0.0110  0.1568 -0.1776
  204POPC   GL2 2753   8.421   6.072   4.463 -0.2457 -0.0571 -0.1555
  204POPC   C1A 2754   8.898   6.080   4.651 -0.1445  0.2264 -0.1352
  204POPC   D2A 2755   9.261   5.824   4.957  0.0804 -0.3296  0.2315
  204POPC   C3A 2756   9.578   5.810   5.224  0.0721  0.0069 -0.3769
  204POPC   C4A 2757   9.976   5.973   5.467  0.4092  0.0845 -0.3979
  204POPC   C1B 2758   8.071   6.013   4.718  0.0236 -0.1326  0.1665
  204POPC   C2B 2759   7.916   6.023   5.146  0.3431 -0.0056  0.0631
  204POPC   C3B 2760   8.163   6.161   5.553  0.1584 -0.3732 -0.0195
  204POPC   C4B 2761   8.307   6.499   5.707  0.0253  0.2408  0.0252
  205POPC   NC3 2762   3.158   7.580   3.767  0.0442  0.3436 -0.2047
  205POPC   PO4 2763   2.712   7.590   3.608  0.3974 -0.2707  0.0027
  205POPC   GL1 2764   2.730   7.690   4.163 -0.0559  0.0426  0.0889
  205POPC   GL2 2765   2.980   7.452   4.347 -0.2397  0.1329 -0.1878
  205POPC   C1A 2766   2.649   7.816   4.621  0.4814 -0.0649  0.3082
  205POPC   D2A 2767   2.445   7.622   4.904 -0.0413  0.1113  0.2162
  205POPC   C3A 2768   2.036   7.665   5.006 -0.1380  0.3236 -0.1805
  205POPC   C4A 2769   1.810   7.984   5.073 -0.0736 -0.0565 -0.0464
  205POPC   C1B 2770   3.118   7.573   4.791  0.2573 -0.2403 -0.3868
  205POPC   C2B 2771   3.200   7.620   5.216 -0.1190 -0.2154  0.0439
  205POPC   C3B 2772   3.042   7.991   5.516  0.3567  0.0115 -0.2579
  205POPC   C4B 2773   2.563   7.904   5.644  0.2513 -0.0239  0.0265
  206POPC   NC3 2774   5.401   6.099   3.905 -0.0415 -0.0042 -0.3058
  206POPC   PO4 2775   4.981   5.870   3.937  0.4178  0.1287  0.0359
  206POPC   GL1 2776   5.186   5.889   4.315 -0.0757  0.0500 -0.0970
  206POPC   GL2 2777   5.561   5.666   4.406 -0.1709  0.1210  0.0124
  206POPC   C1A 2778   5.121   6.074   4.845  0.0941 -0.0229  0.2673
  206POPC   D2A 2779   5.130   6.015   5.152 -0.0269  0.0154 -0.0801
  206POPC   C3A 2780   4.789   5.786   5.360  0.1267  0.0931 -0.0611
  206POPC   C4A 2781   4.718   5.341   5.527 -0.0320  0.2328  0.0662
  206POPC   C1B 2782   5.634   5.935   4.824 -0.0604 -0.1115 -0.0267
  206POPC   C2B 2783   5.687   6.019   5.163  0.1470  0.1808 -0.0752
  206POPC   C3B 2784   5.486   5.784   5.487  0.2173 -0.0284  0.1178
  206POPC   C4B 2785   5.576   5.608   5.951 -0.3344  0.1433  0.3899
  207POPC   NC3 2786   5.691   0.339   4.473 -0.1779  0.2324 -0.1056
  207POPC   PO4 2787   5.958   0.587   4.149  0.1895 -0.0984  0.0674
  207POPC   GL1 2788   6.101   0.723   4.516 -0.1301 -0.0863 -0.0056
  207POPC   GL2 2789   6.252   0.558   4.661 -0.1701  0.0039  0.0915
  207POPC   C1A 2790   5.992   0.846   4.943 -0.2987  0.0875  0.1607
  207POPC   D2A 2791   5.908   0.828   5.323  0.1297 -0.0699 -0.0411
  207POPC   C3A 2792   5.527   0.651   5.511 -0.0108  0.2839 -0.2340
  207POPC   C4A 2793   5.340   0.361   5.827  0.2359  0.6002 -0.3649
  207POPC   C1B 2794   6.497   0.773   4.996 -0.0358  0.2346 -0.3277
  207POPC   C2B 2795   6.477   0.778   5.441  0.2429 -0.4775  0.2498
  207POPC   C3B 2796   6.676   0.683   5.802  0.1171 -0.5188 -0.0451
  207POPC   C4B 2797   6.896   0.921   6.099  0.0938 -0.0125 -0.0900
  208POPC   NC3 2798   3.456   7.340   4.104  0.1029  0.2404 -0.0996
  208POPC   PO4 2799   3.370   7.821   4.217  0.2383 -0.0544  0.0795
  208POPC   GL1 2800   3.465   7.970   4.676 -0.1416  0.1963 -0.1255
  208POPC   GL2 2801   3.815   7.959   4.668 -0.0399  0.2214  0.0728
  208POPC   C1A 2802   3.099   8.076   4.750  0.3189  0.0629  0.1397
  208POPC   D2A 2803   2.857   7.916   5.073  0.1560 -0.0606  0.2097
  208POPC   C3A 2804   2.725   7.601   5.290 -0.1227 -0.0712  0.0921
  208POPC   C4A 2805   2.899   7.471   5.596 -0.1203  0.1337 -0.4933
  208POPC   C1B 2806   3.894   8.127   5.009 -0.3672 -0.0083 -0.0016
  208POPC   C2B 2807   3.813   8.544   5.089 -0.0229  0.0119 -0.4793
  208POPC   C3B 2808   3.518   8.735   5.321  0.1049  0.1251 -0.0150
  208POPC   C4B 2809   3.177   8.997   5.159  0.0259 -0.0888 -0.4207
  209POPC   NC3 2810   6.140   1.044   4.146  0.1293 -0.2504 -0.0016
  209POPC   PO4 2811   6.555   0.796   4.158  0.0043 -0.2207  0.0128
  209POPC   GL1 2812   6.859   1.105   4.373  0.2538 -0.1063 -0.3618
  209POPC   GL2 2813   6.874   1.482   4.634 -0.3737 -0.0059 -0.2783
  209POPC   C1A 2814   7.317   1.082   4.648  0.3063 -0.0835 -0.0065
  209POPC   D2A 2815   7.614   0.773   4.757 -0.1228 -0.0017  0.0481
  209POPC   C3A 2816   7.760   0.406   4.530 -0.0068 -0.2752 -0.3377
  209POPC   C4A 2817   7.985   0.089   4.605  0.1809 -0.0740 -0.0788
  209POPC   C1B 2818   7.045   1.784   4.893 -0.0426 -0.0502 -0.0981
  209POPC   C2B 2819   7.041   2.023   5.296  0.4310 -0.0245  0.2223
  209POPC   C3B 2820   6.985   2.311   5.545  0.0890  0.0245 -0.0898
  209POPC   C4B 2821   6.934   2.495   5.992 -0.0539 -0.3464  0.0442
  210POPC   NC3 2822   5.208   0.638   3.973 -0.4849 -0.2076 -0.1581
  210POPC   PO4 2823   5.230   0.228   4.291 -0.0964  0.0518  0.0008
  210POPC   GL1 2824   5.152   0.494   4.641 -0.0066  0.1339 -0.1289
  210POPC   GL2 2825   5.297   0.266   4.957  0.0503 -0.0429  0.1150
  210POPC   C1A 2826   5.319   0.799   4.894 -0.1355  0.0899  0.0236
  210POPC   D2A 2827   5.418   1.036   5.234  0.1249  0.0657  0.1988
  210POPC   C3A 2828   5.215   1.332   5.515 -0.0628  0.0200 -0.1807
  210POPC   C4A 2829   4.882   1.365   5.799  0.1586  0.1958 -0.0185
  210POPC   C1B 2830   5.708   0.304   5.132  0.3440  0.1549 -0.0045
  210POPC   C2B 2831   5.879   0.103   5.479 -0.1685 -0.0428 -0.1528
  210POPC   C3B 2832   6.246  -0.085   5.657 -0.0083  0.2382 -0.0963
  210POPC   C4B 2833   6.509  -0.331   5.958 -0.1265  0.0013 -0.0951
  211POPC   NC3 2834   2.460  10.328   4.038  0.0007  0.2037 -0.4040
  211POPC   PO4 2835   2.517   9.920   4.040 -0.0816  0.3079  0.2928
  211POPC   GL1 2836   2.449  10.109   4.464 -0.0572 -0.0218 -0.0232
  211POPC   GL2 2837   2.723  10.032   4.664 -0.1284  0.1156  0.0266
  211POPC   C1A 2838   2.344  10.071   4.965 -0.0575 -0.0149  0.3255
  211POPC   D2A 2839   2.273  10.339   5.357  0.1451 -0.2327  0.0153
  211POPC   C3A 2840   2.664  10.424   5.609  0.3069  0.0703 -0.1118
  211POPC   C4A 2841   2.780  10.836   5.776 -0.1887  0.1250 -0.2136
  211POPC   C1B 2842   2.761  10.280   5.150  0.0675 -0.0087 -0.0590
  211POPC   C2B 2843   2.637  10.727   5.159  0.1159  0.0704  0.1305
  211POPC   C3B 2844   2.286  10.910   5.306  0.4571 -0.2514  0.0724
  211POPC   C4B 2845   2.151  11.184   5.602  0.0062  0.1666 -0.0855
  212POPC   NC3 2846   4.027   0.712   3.654  0.0934  0.0592  0.0653
  212POPC   PO4 2847   4.378   0.585   3.971  0.1093 -0.0189 -0.0556
  212POPC   GL1 2848   3.957   0.827   4.133 -0.1134 -0.2814 -0.7277
  212POPC   GL2 2849   3.703   0.921   4.016 -0.2016 -0.0966  0.0610
  212POPC   C1A 2850   3.939   1.015   4.577 -0.0284 -0.2791  0.0825
  212POPC   D2A 2851   3.860   1.281   4.956  0.0679  0.0381  0.5853
  212POPC   C3A 2852   4.168   1.484   5.303 -0.0720  0.5447  0.1975
  212POPC   C4A 2853   4.387   1.342   5.678  0.0567  0.0774 -0.2734
  212POPC   C1B 2854   3.453   1.024   4.311  0.1671 -0.0083  0.1852
  212POPC   C2B 2855   3.330   1.193   4.690  0.1897  0.2315 -0.0180
  212POPC   C3B 2856   3.424   1.192   5.203 -0.1213  0.1656  0.4818
  212POPC   C4B 2857   3.435   1.132   5.746  0.2529  0.0727 -0.3445
  213POPC   NC3 2858   3.279   1.652   2.567 -0.0438  0.1117 -0.0103
  213POPC   PO4 2859   3.026   1.424   2.771  0.0433  0.0842  0.0363
  213POPC   GL1 2860   2.785   1.411   3.127 -0.1669  0.1644  0.1047
  213POPC   GL2 2861   2.757   1.721   3.136  0.0301  0.2829  0.3108
  213POPC   C1A 2862   2.860   1.484   3.594  0.0749 -0.1965  0.0396
  213POPC   D2A 2863   2.992   1.323   3.843  0.0807 -0.0120  0.2969
  213POPC   C3A 2864   3.131   1.485   4.224  0.2388 -0.1633 -0.0877
  213POPC   C4A 2865   2.994   1.517   4.596 -0.2487 -0.0973 -0.0880
  213POPC   C1B 2866   2.297   1.685   3.346  0.0272  0.0110  0.2390
  213POPC   C2B 2867   1.980   1.547   3.554  0.1501 -0.1794 -0.1647
  213POPC   C3B 2868   1.531   1.581   3.575 -0.0080 -0.0905 -0.1932
  213POPC   C4B 2869   1.328   1.798   3.832  0.0102 -0.0327 -0.1927
  214POPC   NC3 2870   1.257   8.620   3.522 -0.0981  0.1979 -0.1855
  214POPC   PO4 2871   0.960   8.673   3.906 -0.2581  0.1131  0.3502
  214POPC   GL1 2872   0.895   8.830   4.286  0.2674 -0.2204 -0.0484
  214POPC   GL2 2873   1.164   8.988   4.243  0.4880  0.1067  0.1213
  214POPC   C1A 2874   0.909   8.812   4.751 -0.2189 -0.2045 -0.1191
  214POPC   D2A 2875   1.180   8.884   5.170  0.1496 -0.0356 -0.1554
  214POPC   C3A 2876   1.252   8.639   5.518  0.1516 -0.2120  0.3970
  214POPC   C4A 2877   1.204   8.556   5.889  0.0264  0.0268 -0.0444
  214POPC   C1B 2878   1.207   9.226   4.650  0.0701  0.0081  0.0826
  214POPC   C2B 2879   1.337   9.411   5.050  0.0617 -0.0101 -0.1781
  214POPC   C3B 2880   1.203   9.610   5.392  0.1864 -0.1806 -0.1050
  214POPC   C4B 2881   1.164   9.563   5.786  0.1821  0.0329  0.0785
  215POPC   NC3 2882   4.175   4.339   4.276  0.1867  0.2292 -0.1670
  215POPC   PO4 2883   3.781   4.452   4.199 -0.0988 -0.2175  0.3193
  215POPC   GL1 2884   3.561   4.289   4.437 -0.3581 -0.3704 -0.1098
  215POPC   GL2 2885   3.314   3.923   4.373  0.2274  0.1323  0.2855
  215POPC   C1A 2886   3.203   4.334   4.778  0.4155  0.2821  0.1488
  215POPC   D2A 2887   2.979   4.422   5.059 -0.1016  0.3001  0.0740
  215POPC   C3A 2888   2.901   4.325   5.425  0.1016  0.1063 -0.0050
  215POPC   C4A 2889   2.994   4.303   5.825 -0.3512  0.1221  0.0332
  215POPC   C1B 2890   3.385   3.581   4.704 -0.0700  0.3585  0.3130
  215POPC   C2B 2891   3.751   3.438   4.922  0.0280  0.0069 -0.4255
  215POPC   C3B 2892   3.977   3.307   5.125 -0.2688  0.0987 -0.2416
  215POPC   C4B 2893   3.912   3.198   5.531  0.1172 -0.2660  0.0661
  216POPC   NC3 2894   6.805   2.973   4.249  0.0660  0.2404  0.0131
  216POPC   PO4 2895   6.944   2.454   4.138  0.1440  0.0742  0.5390
  216POPC   GL1 2896   7.209   2.514   4.431 -0.0625  0.1203  0.3329
  216POPC   GL2 2897   7.224   2.813   4.421 -0.3698 -0.2756 -0.0996
  216POPC   C1A 2898   7.534   2.549   4.717  0.0353  0.0505 -0.3281
  216POPC   D2A 2899   7.699   2.692   5.075  0.0744  0.1712  0.0299
  216POPC   C3A 2900   8.158   2.832   5.153 -0.0051 -0.1747 -0.0229
  216POPC   C4A 2901   8.376   2.929   5.543 -0.1903 -0.1371 -0.2397
  216POPC   C1B 2902   7.229   2.908   4.808 -0.0588 -0.1965  0.0398
  216POPC   C2B 2903   7.285   3.117   5.317  0.0503 -0.4110  0.1119
  216POPC   C3B 2904   7.349   3.238   5.698 -0.0196 -0.0156  0.3206
  216POPC   C4B 2905   7.436   3.124   6.133 -0.1531  0.3528  0.2875
  217POPC   NC3 2906   7.255   6.106   3.905  0.0411 -0.1522  0.2494
  217POPC   PO4 2907   7.643   6.314   3.750 -0.1149  0.1209 -0.2101
  217POPC   GL1 2908   7.585   6.181   4.308  0.2162 -0.0266  0.1987
  217POPC   GL2 2909   7.316   5.940   4.416  0.2963  0.0681 -0.0359
  217POPC   C1A 2910   7.377   6.476   4.636  0.0563  0.1597 -0.1470
  217POPC   D2A 2911   6.979   6.532   4.870  0.3096 -0.3020 -0.0265
  217POPC   C3A 2912   6.938   6.534   5.277 -0.2755 -0.0418 -0.0339
  217POPC   C4A 2913   6.730   6.517   5.761  0.0027 -0.0580 -0.0322
  217POPC   C1B 2914   7.554   6.029   4.816  0.2934 -0.0797  0.1192
  217POPC   C2B 2915   7.375   6.278   5.181  0.3490 -0.0631 -0.0587
  217POPC   C3B 2916   7.333   6.346   5.717 -0.2326 -0.1683 -0.0361
  217POPC   C4B 2917   7.349   6.577   5.972  0.3452  0.1399 -0.0914
  218POPC   NC3 2918   1.358   3.310   3.122 -0.3690 -0.0692 -0.1775
  218POPC   PO4 2919   0.844   3.303   3.204 -0.3396  0.2926  0.0695
  218POPC   GL1 2920   0.818   2.879   3.395 -0.2699  0.0918 -0.1768
  218POPC   GL2 2921   1.173   2.959   3.403 -0.1367  0.2776 -0.1057
  218POPC   C1A 2922   0.700   2.845   3.754 -0.2698  0.0745  0.2367
  218POPC   D2A 2923   0.487   2.767   4.164 -0.3253  0.0047  0.0637
  218POPC   C3A 2924   0.063   2.950   4.235 -0.1433 -0.0673  0.0619
  218POPC   C4A 2925  -0.283   2.918   4.375  0.1540 -0.0164 -0.0456
  218POPC   C1B 2926   1.147   2.702   3.787 -0.2158 -0.1460 -0.1039
  218POPC   C2B 2927   0.875   2.513   4.085 -0.1133  0.0553  0.1165
  218POPC   C3B 2928   0.500   2.221   4.258 -0.0592  0.1284 -0.0009
  218POPC   C4B 2929   0.112   2.388   4.111 -0.5045  0.1159  0.1689
  219POPC   NC3 2930   8.850   3.329   3.488 -0.1148 -0.0669  0.1378
  219POPC   PO4 2931   8.715   3.502   3.832  0.1709  0.2066  0.0389
  219POPC   GL1 2932   8.762   3.240   4.205  0.1490  0.1642 -0.2726
  219POPC   GL2 2933   9.032   3.335   4.232  0.1090 -0.1058 -0.0364
  219POPC   C1A 2934   8.793   3.066   4.703  0.0601 -0.0061  0.3408
  219POPC   D2A 2935   8.763   2.909   5.110 -0.0626  0.0443  0.0728
  219POPC   C3A 2936   8.569   2.536   5.282  0.0537 -0.1876 -0.0104
  219POPC   C4A 2937   8.267   2.283   5.358 -0.1446 -0.0554  0.4275
  219POPC   C1B 2938   9.322   3.212   4.609 -0.0284 -0.0635  0.0957
  219POPC   C2B 2939   9.613   3.154   4.968 -0.2246  0.1610 -0.0576
  219POPC   C3B 2940   9.864   2.954   5.312 -0.0126  0.1706  0.0008
  219POPC   C4B 2941  10.392   2.901   5.233  0.3519 -0.2089  0.0591
  220POPC   NC3 2942   0.010   9.107   3.902 -0.1558 -0.2404 -0.1189
  220POPC   PO4 2943   0.348   8.901   4.077  0.1351 -0.3892 -0.2195
  220POPC   GL1 2944   0.396   9.040   4.395  0.1992  0.0337  0.0811
  220POPC   GL2 2945   0.662   9.282   4.387  0.0445  0.1231  0.1357
  220POPC   C1A 2946   0.359   8.886   4.735  0.0305  0.1481 -0.0380
  220POPC   D2A 2947   0.199   8.610   5.015  0.1797  0.2375 -0.2147
  220POPC   C3A 2948  -0.111   8.767   5.310 -0.2023 -0.0341 -0.0822
  220POPC   C4A 2949  -0.092   9.275   5.403 -0.0969 -0.0846 -0.2679
  220POPC   C1B 2950   0.700   9.248   4.810  0.0814  0.5062 -0.2946
  220POPC   C2B 2951   0.853   9.270   5.148 -0.1944 -0.1083  0.2358
  220POPC   C3B 2952   0.990   9.090   5.572 -0.0742  0.2483  0.0419
  220POPC   C4B 2953   1.136   9.046   5.982  0.1263  0.0879  0.1165
  221POPC   NC3 2954   2.289   5.404   4.407 -0.2170 -0.1941 -0.0214
  221POPC   PO4 2955   1.855   5.222   4.138 -0.1948 -0.0160  0.0179
  221POPC   GL1 2956   1.828   5.196   4.637 -0.1092 -0.1605  0.0826
  221POPC   GL2 2957   1.806   5.397   4.770  0.3790  0.0442 -0.1269
  221POPC   C1A 2958   1.599   5.006   5.007  0.0770 -0.0781  0.1379
  221POPC   D2A 2959   1.630   4.772   5.397 -0.0632  0.0740  0.2294
  221POPC   C3A 2960   1.727   4.625   5.777  0.0714  0.1624  0.0791
  221POPC   C4A 2961   1.666   4.574   6.138  0.2093 -0.3265  0.0392
  221POPC   C1B 2962   2.002   5.210   5.209  0.1553  0.2994 -0.3146
  221POPC   C2B 2963   2.124   4.800   5.434  0.2209  0.3456  0.1067
  221POPC   C3B 2964   2.084   4.306   5.553 -0.0426 -0.0604  0.0844
  221POPC   C4B 2965   2.082   3.860   5.689 -0.0490  0.1830 -0.2555
  222POPC   NC3 2966   3.428   4.350   3.232 -0.4762  0.1908 -0.2237
  222POPC   PO4 2967   3.120   4.181   3.398 -0.1976  0.0335  0.0734
  222POPC   GL1 2968   2.883   3.972   3.770  0.3549 -0.0715 -0.0520
  222POPC   GL2 2969   2.804   4.175   3.975  0.0082 -0.0309 -0.1542
  222POPC   C1A 2970   2.668   3.567   3.991 -0.1897  0.1604  0.0610
  222POPC   D2A 2971   2.352   3.425   3.952 -0.2164 -0.1874  0.5426
  222POPC   C3A 2972   1.909   3.397   4.247  0.1717 -0.0027 -0.0867
  222POPC   C4A 2973   1.713   3.219   4.584  0.1943 -0.1610  0.3344
  222POPC   C1B 2974   2.772   3.997   4.427 -0.0711 -0.0524 -0.0508
  222POPC   C2B 2975   2.938   3.861   4.827  0.2498 -0.2113  0.0351
  222POPC   C3B 2976   2.855   3.631   5.199  0.0117  0.2745  0.0892
  222POPC   C4B 2977   2.751   3.217   5.507 -0.1718 -0.4423  0.0994
  223POPC   NC3 2978   4.966   5.323   4.121 -0.4277 -0.2391  0.2833
  223POPC   PO4 2979   4.585   5.274   4.302 -0.0412  0.1092 -0.0829
  223POPC   GL1 2980   4.869   5.569   4.598  0.0783 -0.0754 -0.2308
  223POPC   GL2 2981   4.746   5.851   4.535 -0.0450  0.0707 -0.0871
  223POPC   C1A 2982   5.035   5.505   4.969 -0.0385 -0.2102  0.0994
  223POPC   D2A 2983   5.230   5.400   5.384 -0.0834 -0.2619  0.0563
  223POPC   C3A 2984   5.089   5.695   5.800  0.0821  0.0918  0.1321
  223POPC   C4A 2985   4.697   5.918   6.032  0.0038  0.2027 -0.0190
  223POPC   C1B 2986   4.588   5.983   4.939  0.1229  0.0097 -0.0242
  223POPC   C2B 2987   4.404   6.260   5.226  0.1114  0.0170  0.3046
  223POPC   C3B 2988   4.016   6.237   5.465  0.0975  0.2689 -0.0762
  223POPC   C4B 2989   3.733   6.279   5.717  0.0637  0.1659 -0.0444
  224POPC   NC3 2990   8.161  10.317   3.883 -0.1673 -0.1868  0.0696
  224POPC   PO4 2991   8.581  10.505   4.076  0.1092  0.2944 -0.0677
  224POPC   GL1 2992   8.488  10.298   4.413  0.3445  0.3968 -0.1741
  224POPC   GL2 2993   8.749  10.465   4.652 -0.0251 -0.3116  0.0596
  224POPC   C1A 2994   8.295  10.260   4.792  0.1142 -0.1504 -0.2704
  224POPC   D2A 2995   8.037  10.298   5.150  0.0503 -0.0854 -0.2576
  224POPC   C3A 2996   8.157  10.691   5.232 -0.2035  0.2424 -0.0330
  224POPC   C4A 2997   8.381  10.935   5.561  0.1221 -0.0712  0.1496
  224POPC   C1B 2998   8.811  10.003   4.952  0.0687  0.0551  0.1644
  224POPC   C2B 2999   9.029   9.850   5.300 -0.0454  0.3122 -0.2610
  224POPC   C3B 3000   9.464   9.726   5.380  0.0646  0.0744  0.1487
  224POPC   C4B 3001   9.734   9.393   5.347  0.1412 -0.0544 -0.1589
  225POPC   NC3 3002   3.837   8.236   4.038  0.1021 -0.0306  0.0446
  225POPC   PO4 3003   3.865   7.784   4.124 -0.1619  0.0653 -0.2875
  225POPC   GL1 3004   3.850   7.441   4.491  0.0287  0.2278  0.0374
  225POPC   GL2 3005   3.582   7.450   4.575  0.0972 -0.1024 -0.0339
  225POPC   C1A 3006   3.864   7.169   4.855 -0.4490 -0.1210 -0.4429
  225POPC   D2A 3007   3.867   7.183   5.312 -0.1243  0.2743  0.1815
  225POPC   C3A 3008   3.935   7.566   5.538  0.3309 -0.2125 -0.0981
  225POPC   C4A 3009   3.909   8.034   5.653 -0.2827 -0.2496 -0.1965
  225POPC   C1B 3010   3.376   7.221   4.943 -0.0483 -0.1112  0.1445
  225POPC   C2B 3011   3.408   7.015   5.289  0.0498 -0.1704 -0.0483
  225POPC   C3B 3012   3.549   6.737   5.521 -0.0962 -0.3310 -0.0761
  225POPC   C4B 3013   3.254   6.451   5.704  0.0510  0.2881  0.2813
  226POPC   NC3 3014   6.721  10.055   3.700 -0.1778 -0.2125  0.1050
  226POPC   PO4 3015   7.128  10.048   3.539  0.0757 -0.0458 -0.0872
  226POPC   GL1 3016   7.108  10.115   4.021 -0.0007 -0.0847 -0.2548
  226POPC   GL2 3017   6.801  10.025   4.224 -0.1758 -0.1223 -0.2515
  226POPC   C1A 3018   7.271  10.182   4.420 -0.0911  0.1853 -0.2810
  226POPC   D2A 3019   7.422   9.884   4.723  0.0133  0.0017 -0.1193
  226POPC   C3A 3020   7.603   9.462   4.639 -0.0138 -0.0822 -0.0392
  226POPC   C4A 3021   8.049   9.447   4.696 -0.0073  0.1710  0.1652
  226POPC   C1B 3022   6.821  10.079   4.673 -0.2021 -0.0714  0.1169
  226POPC   C2B 3023   7.115  10.075   5.060  0.2999  0.0672  0.0990
  226POPC   C3B 3024   7.364   9.886   5.302 -0.1002 -0.3745  0.2790
  226POPC   C4B 3025   7.593   9.629   5.534 -0.0502 -0.2260 -0.0622
  227POPC   NC3 3026   5.920   5.352   4.085  0.0067  0.2389 -0.2079
  227POPC   PO4 3027   5.641   5.074   4.147 -0.0171 -0.0380 -0.0463
  227POPC   GL1 3028   5.589   4.777   4.646 -0.0502  0.0368  0.1265
  227POPC   GL2 3029   5.597   4.398   4.649 -0.0431  0.1321  0.0800
  227POPC   C1A 3030   5.498   4.720   5.079 -0.0074  0.0819  0.0217
  227POPC   D2A 3031   5.433   4.568   5.492  0.0865 -0.0652  0.3174
  227POPC   C3A 3032   5.199   4.589   5.868 -0.1773  0.0270  0.1751
  227POPC   C4A 3033   4.825   4.635   6.130 -0.0641  0.1858 -0.1730
  227POPC   C1B 3034   5.444   4.124   4.920  0.1352  0.4521  0.3079
  227POPC   C2B 3035   5.346   4.101   5.349 -0.1573 -0.2355  0.1053
  227POPC   C3B 3036   5.031   4.169   5.686  0.0219  0.0030 -0.0745
  227POPC   C4B 3037   4.880   3.867   6.005  0.0925  0.3179  0.0677
  228POPC   NC3 3038   1.236   6.512   4.127 -0.0901 -0.0721  0.1823
  228POPC   PO4 3039   0.798   6.556   4.209 -0.2474 -0.0043  0.2630
  228POPC   GL1 3040   1.008   6.531   4.629  0.1233  0.0548 -0.4349
  228POPC   GL2 3041   0.749   6.431   4.800 -0.1408 -0.0748 -0.1806
  228POPC   C1A 3042   1.269   6.492   4.950  0.0562 -0.0252 -0.0397
  228POPC   D2A 3043   1.477   6.924   5.244  0.1613  0.0822 -0.0726
  228POPC   C3A 3044   1.204   7.327   5.244 -0.1902  0.0098  0.0074
  228POPC   C4A 3045   0.757   7.347   5.548  0.1796 -0.4401  0.3666
  228POPC   C1B 3046   0.866   6.362   5.240  0.2305  0.1226 -0.0452
  228POPC   C2B 3047   0.925   6.213   5.584 -0.1740  0.1503  0.0135
  228POPC   C3B 3048   0.786   5.886   5.832 -0.0241 -0.0866 -0.4412
  228POPC   C4B 3049   0.718   5.643   6.218 -0.2077  0.5199  0.0687
  229POPC   NC3 3050   6.560   6.556   3.601  0.2601  0.3725 -0.2533
  229POPC   PO4 3051   6.238   6.502   3.821 -0.1982 -0.4382  0.0681
  229POPC   GL1 3052   6.209   6.592   4.332  0.4073  0.0071 -0.3171
  229POPC   GL2 3053   5.918   6.572   4.549 -0.0726 -0.2285 -0.0881
  229POPC   C1A 3054   6.497   6.466   4.634  0.2200 -0.1263  0.1255
  229POPC   D2A 3055   6.518   6.138   4.968  0.0467  0.1684 -0.0666
  229POPC   C3A 3056   6.382   6.328   5.415  0.0564  0.4046 -0.0605
  229POPC   C4A 3057   6.356   6.123   5.811 -0.0142  0.0745  0.0896
  229POPC   C1B 3058   6.014   6.933   4.705  0.0290  0.0742  0.2429
  229POPC   C2B 3059   6.099   7.268   4.920 -0.0551  0.0049 -0.2372
  229POPC   C3B 3060   6.265   7.191   5.260 -0.0821  0.3296 -0.0216
  229POPC   C4B 3061   6.243   7.288   5.702 -0.0371 -0.2425 -0.0860
  230POPC   NC3 3062   9.797   1.605   2.651 -0.2362  0.1259  0.2070
  230POPC   PO4 3063   9.895   1.928   2.983  0.2951 -0.4007 -0.0289
  230POPC   GL1 3064   9.885   1.682   3.319  0.0293  0.0838  0.1688
  230POPC   GL2 3065  10.014   1.919   3.498  0.1450  0.1565 -0.1773
  230POPC   C1A 3066   9.642   1.726   3.834 -0.2911  0.1193  0.0457
  230POPC   D2A 3067  10.006   1.684   4.154  0.1926  0.1090 -0.2673
  230POPC   C3A 3068   9.947   1.616   4.680 -0.0372 -0.0433 -0.1918
  230POPC   C4A 3069   9.700   1.588   4.961  0.1379 -0.0510  0.0186
  230POPC   C1B 3070  10.378   1.608   3.740  0.1134 -0.0454  0.1837
  230POPC   C2B 3071  10.519   1.516   4.160 -0.0853 -0.2317 -0.3172
  230POPC   C3B 3072  10.235   1.272   4.530 -0.3775 -0.3685  0.2439
  230POPC   C4B 3073  10.070   0.863   4.466  0.0678 -0.0200 -0.1305
  231POPC   NC3 3074   4.698  10.241   3.988  0.4815 -0.0012  0.0267
  231POPC   PO4 3075   4.332  10.008   4.020 -0.1073 -0.1988 -0.2335
  231POPC   GL1 3076   4.117  10.130   4.355  0.1372  0.0301  0.0486
  231POPC   GL2 3077   3.876   9.970   4.371  0.0183  0.0188 -0.1000
  231POPC   C1A 3078   4.274  10.147   4.759  0.0770 -0.1112  0.0516
  231POPC   D2A 3079   4.151  10.107   5.219  0.0732 -0.0225 -0.0736
  231POPC   C3A 3080   4.486   9.762   5.504 -0.2164  0.0539 -0.2191
  231POPC   C4A 3081   4.720   9.504   5.362  0.3127 -0.3151  0.3196
  231POPC   C1B 3082   3.712   9.983   4.840 -0.1673 -0.0970  0.2458
  231POPC   C2B 3083   3.255  10.037   4.964  0.1193  0.0735  0.0414
  231POPC   C3B 3084   3.053   9.940   5.417 -0.0268 -0.1782 -0.1154
  231POPC   C4B 3085   3.061  10.113   5.856  0.0053 -0.2808  0.3495
  232POPC   NC3 3086   9.502   6.990   4.422  0.0292 -0.0692  0.0016
  232POPC   PO4 3087   9.266   6.685   4.105  0.1638 -0.2116  0.1173
  232POPC   GL1 3088   9.258   6.481   4.489  0.0547 -0.1439 -0.1867
  232POPC   GL2 3089   9.592   6.193   4.468  0.1743  0.0912  0.0486
  232POPC   C1A 3090   9.244   6.365   4.870 -0.1653  0.0341 -0.0259
  232POPC   D2A 3091   9.183   6.323   5.257  0.1911 -0.0776  0.1098
  232POPC   C3A 3092   9.303   6.626   5.609 -0.3767  0.2115 -0.1038
  232POPC   C4A 3093   9.405   7.038   5.696  0.1934 -0.0266 -0.1520
  232POPC   C1B 3094   9.860   6.080   4.829  0.1505  0.0755 -0.0438
  232POPC   C2B 3095  10.191   6.183   5.068 -0.0261  0.2322  0.1846
  232POPC   C3B 3096  10.286   6.356   5.482 -0.3469  0.3208 -0.2135
  232POPC   C4B 3097  10.684   6.534   5.641 -0.1141 -0.0830 -0.1678
  233POPC   NC3 3098   3.895   0.332   3.918  0.0680 -0.3269 -0.1916
  233POPC   PO4 3099   3.617   0.473   3.762 -0.0357 -0.2924  0.0210
  233POPC   GL1 3100   3.433   0.396   4.127 -0.2638 -0.2488 -0.0821
  233POPC   GL2 3101   3.199   0.611   4.093 -0.1860 -0.0834  0.0703
  233POPC   C1A 3102   3.273   0.133   4.440 -0.1319  0.0912 -0.0144
  233POPC   D2A 3103   3.173  -0.076   4.736 -0.1774 -0.2115 -0.3870
  233POPC   C3A 3104   3.158   0.141   5.021  0.3795 -0.1584  0.2406
  233POPC   C4A 3105   3.125   0.339   5.321  0.2263  0.3031 -0.0053
  233POPC   C1B 3106   3.213   0.704   4.551 -0.1423 -0.2239  0.2339
  233POPC   C2B 3107   3.221   0.720   5.033 -0.1805 -0.1657  0.0875
  233POPC   C3B 3108   3.409   0.729   5.505  0.1686 -0.0126  0.1794
  233POPC   C4B 3109   3.185   0.534   5.842  0.0470 -0.0105  0.1622
  234POPC   NC3 3110   2.293   0.350   3.493 -0.1619 -0.0648  0.0530
  234POPC   PO4 3111   2.544   0.553   3.234  0.1326 -0.0706 -0.0948
  234POPC   GL1 3112   2.341   0.794   3.597  0.1389 -0.1460  0.1285
  234POPC   GL2 3113   2.383   1.177   3.507 -0.0045 -0.1453 -0.0316
  234POPC   C1A 3114   2.147   0.814   4.011 -0.2252 -0.0237  0.0109
  234POPC   D2A 3115   2.012   0.592   4.323  0.0804  0.2466 -0.1446
  234POPC   C3A 3116   2.264   0.220   4.465  0.1387  0.0827  0.2760
  234POPC   C4A 3117   2.051  -0.170   4.454 -0.1705 -0.0990  0.2818
  234POPC   C1B 3118   2.543   1.171   3.894 -0.0095  0.1178  0.1247
  234POPC   C2B 3119   2.726   1.171   4.306 -0.1078  0.2724  0.0293
  234POPC   C3B 3120   2.684   1.128   4.675 -0.1371  0.1084 -0.1611
  234POPC   C4B 3121   2.495   1.077   5.056  0.1968  0.0216 -0.4254
  235POPC   NC3 3122   3.770   6.462   4.158  0.0909 -0.1587  0.0203
  235POPC   PO4 3123   3.372   6.029   4.137  0.2420 -0.0698 -0.0327
  235POPC   GL1 3124   3.608   5.968   4.498  0.1194  0.1260 -0.1279
  235POPC   GL2 3125   3.721   5.670   4.653 -0.2554 -0.1236 -0.0288
  235POPC   C1A 3126   3.604   6.110   4.917  0.1086  0.1296  0.0352
  235POPC   D2A 3127   3.559   6.178   5.277 -0.3142 -0.0929  0.4895
  235POPC   C3A 3128   3.198   6.280   5.222 -0.1819 -0.2095  0.2001
  235POPC   C4A 3129   3.019   6.617   5.241 -0.0048  0.1607 -0.2112
  235POPC   C1B 3130   3.797   5.301   4.808 -0.0418  0.0391 -0.4270
  235POPC   C2B 3131   3.975   4.974   5.152 -0.0039 -0.1433  0.1282
  235POPC   C3B 3132   4.311   5.011   5.459  0.1866 -0.1966 -0.4839
  235POPC   C4B 3133   4.596   5.026   5.862  0.1545  0.0841 -0.0511
  236POPC   NC3 3134   0.008   0.466   3.502  0.0496  0.2132  0.1440
  236POPC   PO4 3135  -0.388   0.133   3.460  0.3015 -0.0378  0.0667
  236POPC   GL1 3136  -0.372   0.254   3.959 -0.1856 -0.0389 -0.2081
  236POPC   GL2 3137  -0.263   0.577   4.051 -0.1495 -0.2462  0.0768
  236POPC   C1A 3138  -0.398   0.282   4.399  0.0251 -0.3733  0.0283
  236POPC   D2A 3139  -0.457   0.454   4.847 -0.2242  0.4250 -0.2205
  236POPC   C3A 3140  -0.295   0.249   5.108  0.2124  0.1307  0.1492
  236POPC   C4A 3141  -0.364   0.314   5.520 -0.2625 -0.1148 -0.3357
  236POPC   C1B 3142  -0.047   0.826   4.320 -0.1637 -0.1218 -0.2522
  236POPC   C2B 3143  -0.140   0.879   4.824  0.2875 -0.1722 -0.0343
  236POPC   C3B 3144  -0.319   0.891   5.144  0.1171 -0.2137  0.0335
  236POPC   C4B 3145  -0.531   0.952   5.621 -0.1460  0.2224 -0.1526
  237POPC   NC3 3146   5.439   7.939   3.743 -0.0806  0.0957 -0.0775
  237POPC   PO4 3147   5.123   7.657   3.888  0.2362 -0.2796  0.4097
  237POPC   GL1 3148   5.329   7.844   4.206  0.2697 -0.1368 -0.0873
  237POPC   GL2 3149   5.348   8.182   4.253  0.2397 -0.4170  0.0093
  237POPC   C1A 3150   4.953   7.880   4.533  0.0371 -0.1285 -0.4721
  237POPC   D2A 3151   4.592   8.098   4.858 -0.0430  0.0112  0.0999
  237POPC   C3A 3152   4.762   8.057   5.218  0.4077 -0.1161  0.3237
  237POPC   C4A 3153   4.632   7.922   5.688 -0.3392  0.0031  0.1381
  237POPC   C1B 3154   5.397   8.173   4.661 -0.2171  0.0156 -0.1630
  237POPC   C2B 3155   5.479   8.508   4.925  0.2196  0.2578  0.0699
  237POPC   C3B 3156   5.346   8.671   5.302 -0.1093  0.0450 -0.3954
  237POPC   C4B 3157   5.141   8.673   5.578  0.0879  0.2753 -0.3864
  238POPC   NC3 3158   9.038   1.718   3.327 -0.0739  0.1230  0.2180
  238POPC   PO4 3159   9.244   1.425   3.490 -0.3683  0.0341 -0.2217
  238POPC   GL1 3160   9.128   1.613   3.858  0.0252  0.1982  0.1957
  238POPC   GL2 3161   8.885   1.630   4.147 -0.1059  0.0328  0.1812
  238POPC   C1A 3162   9.306   1.896   4.195 -0.1188 -0.2374 -0.0910
  238POPC   D2A 3163   9.475   1.826   4.574  0.1437 -0.0206  0.2824
  238POPC   C3A 3164   9.425   2.076   4.971 -0.1602  0.0568 -0.3220
  238POPC   C4A 3165   9.629   2.458   5.135 -0.1485  0.1544 -0.0702
  238POPC   C1B 3166   8.990   1.651   4.528  0.0641  0.0308 -0.0981
  238POPC   C2B 3167   9.162   1.574   4.921 -0.1366  0.0123  0.0720
  238POPC   C3B 3168   9.358   1.227   5.156  0.1599 -0.1037 -0.1187
  238POPC   C4B 3169   9.795   1.303   5.361 -0.0330 -0.4363 -0.2806
  239POPC   NC3 3170   5.830   4.611   4.201 -0.0788  0.2250 -0.3380
  239POPC   PO4 3171   6.152   4.385   4.152  0.0454  0.2321  0.1208
  239POPC   GL1 3172   6.084   4.606   4.674  0.0390 -0.0385 -0.1931
  239POPC   GL2 3173   6.354   4.485   4.854  0.1048 -0.0288  0.2505
  239POPC   C1A 3174   5.987   4.825   5.094  0.3565  0.0421 -0.0182
  239POPC   D2A 3175   5.729   5.049   5.494  0.3375  0.0721 -0.2536
  239POPC   C3A 3176   5.946   5.238   5.874 -0.3494 -0.1081 -0.2473
  239POPC   C4A 3177   6.043   5.718   5.994 -0.3788 -0.0712  0.1396
  239POPC   C1B 3178   6.526   4.535   5.269 -0.2596 -0.3163 -0.2792
  239POPC   C2B 3179   6.811   4.355   5.648 -0.0207 -0.2410 -0.1654
  239POPC   C3B 3180   7.014   4.119   5.919  0.0154 -0.2434 -0.2028
  239POPC   C4B 3181   7.113   4.006   6.267 -0.1568  0.1251  0.3240
  240POPC   NC3 3182   7.596   4.728   4.303  0.4903  0.1950 -0.2514
  240POPC   PO4 3183   7.801   4.313   4.221 -0.2531  0.3017 -0.0200
  240POPC   GL1 3184   7.717   4.285   4.639  0.3321 -0.0496 -0.2255
  240POPC   GL2 3185   7.663   4.592   4.813  0.3141  0.1013  0.0900
  240POPC   C1A 3186   7.700   4.059   5.007  0.0226  0.0558 -0.0733
  240POPC   D2A 3187   7.950   3.915   5.365 -0.2050  0.3984 -0.0401
  240POPC   C3A 3188   8.021   4.082   5.852 -0.2016  0.1547  0.1727
  240POPC   C4A 3189   8.190   3.857   6.292  0.0357  0.0048  0.1337
  240POPC   C1B 3190   7.645   4.852   5.070 -0.1693 -0.0058 -0.0388
  240POPC   C2B 3191   7.804   5.148   5.320 -0.2958  0.0315  0.0386
  240POPC   C3B 3192   8.084   5.251   5.668  0.1743  0.1985 -0.1771
  240POPC   C4B 3193   8.415   5.087   5.874  0.0084  0.2556  0.2300
  241POPC   NC3 3194   3.050   3.128   3.263  0.4319  0.2314  0.3380
  241POPC   PO4 3195   3.461   3.331   3.492  0.1422 -0.0006 -0.3953
  241POPC   GL1 3196   3.250   3.180   3.828 -0.1511 -0.2862  0.1311
  241POPC   GL2 3197   3.217   2.783   3.914 -0.2871  0.0672 -0.0618
  241POPC   C1A 3198   3.257   3.414   4.157  0.0196 -0.0381 -0.4711
  241POPC   D2A 3199   2.971   3.531   4.384  0.0692 -0.0259 -0.0184
  241POPC   C3A 3200   2.985   3.202   4.543  0.0589 -0.0534 -0.2346
  241POPC   C4A 3201   3.089   2.748   4.718 -0.0176 -0.1055  0.0947
  241POPC   C1B 3202   3.275   2.908   4.273 -0.0959 -0.2191  0.0244
  241POPC   C2B 3203   3.462   3.102   4.606 -0.2054  0.0709 -0.1604
  241POPC   C3B 3204   3.381   3.007   5.045 -0.0004  0.1727 -0.1808
  241POPC   C4B 3205   3.126   2.736   5.296 -0.0889  0.0014 -0.0494
  242POPC   NC3 3206   8.250   3.340   4.067  0.1118  0.0382 -0.2479
  242POPC   PO4 3207   7.810   3.324   4.101  0.0445  0.1373 -0.0497
  242POPC   GL1 3208   7.832   3.344   4.466 -0.2250  0.0660 -0.0190
  242POPC   GL2 3209   8.070   3.107   4.508  0.0463 -0.2383 -0.0954
  242POPC   C1A 3210   7.911   3.596   4.891 -0.0124  0.2036  0.2452
  242POPC   D2A 3211   8.087   3.459   5.209 -0.1172 -0.0693  0.1122
  242POPC   C3A 3212   8.312   3.676   5.602  0.0857 -0.3518  0.1637
  242POPC   C4A 3213   8.501   3.964   5.947 -0.1136  0.1266  0.5296
  242POPC   C1B 3214   8.317   3.182   4.805 -0.0764 -0.0967  0.3901
  242POPC   C2B 3215   8.575   3.386   5.178 -0.0783 -0.1041  0.0604
  242POPC   C3B 3216   8.840   3.724   5.422  0.2855  0.0904  0.1170
  242POPC   C4B 3217   8.982   4.135   5.580  0.1044  0.2465  0.0366
  243POPC   NC3 3218   4.519   7.053   3.846  0.1369 -0.0935 -0.0459
  243POPC   PO4 3219   4.320   7.116   4.380 -0.0664 -0.0784 -0.0273
  243POPC   GL1 3220   4.437   6.925   4.698 -0.1114  0.1539 -0.0340
  243POPC   GL2 3221   4.828   7.001   4.780 -0.1939 -0.1056 -0.0303
  243POPC   C1A 3222   4.406   7.213   5.114  0.0276  0.0724 -0.2578
  243POPC   D2A 3223   4.534   7.474   5.358  0.0495 -0.2600 -0.0680
  243POPC   C3A 3224   4.314   7.832   5.314  0.2649 -0.1047  0.0391
  243POPC   C4A 3225   4.232   8.242   5.334 -0.2475 -0.3205  0.1188
  243POPC   C1B 3226   5.216   6.971   4.876 -0.0985  0.1332  0.3113
  243POPC   C2B 3227   5.382   7.277   5.137  0.0933 -0.0762 -0.1295
  243POPC   C3B 3228   5.405   7.305   5.635  0.0194  0.0268  0.0142
  243POPC   C4B 3229   5.275   7.146   5.997  0.0130  0.4043  0.2075
  244POPC   NC3 3230   8.760   3.981   4.013 -0.0750  0.1057 -0.0854
  244POPC   PO4 3231   8.374   3.835   4.029  0.3023 -0.1540  0.0815
  244POPC   GL1 3232   8.537   3.727   4.412  0.0175 -0.0175  0.2145
  244POPC   GL2 3233   8.298   3.562   4.557  0.1819 -0.2758  0.1528
  244POPC   C1A 3234   8.848   3.581   4.704  0.0335 -0.1332  0.0992
  244POPC   D2A 3235   9.060   3.303   5.137 -0.2384  0.2290 -0.1768
  244POPC   C3A 3236   9.280   3.480   5.558 -0.4674  0.0223 -0.1718
  244POPC   C4A 3237   9.123   3.388   6.018 -0.0780 -0.1322 -0.0267
  244POPC   C1B 3238   8.389   3.780   4.946 -0.2886 -0.3209  0.2392
  244POPC   C2B 3239   8.430   3.992   5.235 -0.0409  0.1535  0.1127
  244POPC   C3B 3240   8.391   4.307   5.485  0.0477 -0.1928  0.0206
  244POPC   C4B 3241   8.179   4.675   5.733  0.3085  0.2416  0.1166
  245POPC   NC3 3242   6.749   1.778   4.073 -0.2615 -0.3230  0.0197
  245POPC   PO4 3243   6.522   1.402   4.173 -0.1303  0.0219  0.1731
  245POPC   GL1 3244   6.327   1.454   4.511 -0.2176  0.3359  0.2799
  245POPC   GL2 3245   6.447   1.138   4.657 -0.1563  0.0537 -0.2314
  245POPC   C1A 3246   6.537   1.613   4.968  0.3783 -0.2295  0.3039
  245POPC   D2A 3247   6.637   1.557   5.362  0.0458 -0.2371 -0.1048
  245POPC   C3A 3248   6.601   1.827   5.698 -0.2513  0.1861  0.1915
  245POPC   C4A 3249   6.267   1.908   5.902  0.4569 -0.1778  0.1730
  245POPC   C1B 3250   6.829   1.219   5.021 -0.3677  0.1300 -0.2202
  245POPC   C2B 3251   7.204   1.456   5.292  0.1320  0.0535  0.1341
  245POPC   C3B 3252   7.077   1.622   5.596  0.2352 -0.1115 -0.3895
  245POPC   C4B 3253   7.154   1.948   5.936  0.1745 -0.2612 -0.0835
  246POPC   NC3 3254   6.207   3.630   4.234  0.1111  0.0564  0.1744
  246POPC   PO4 3255   6.636   3.458   4.203  0.1841 -0.2840  0.1668
  246POPC   GL1 3256   6.621   3.450   4.611  0.3463 -0.1879 -0.5081
  246POPC   GL2 3257   6.863   3.235   4.678  0.0343 -0.1475 -0.1421
  246POPC   C1A 3258   6.293   3.374   4.998 -0.2532 -0.1653 -0.5036
  246POPC   D2A 3259   6.169   3.310   5.430  0.2236  0.0355 -0.0437
  246POPC   C3A 3260   6.449   3.361   5.925  0.0946 -0.2633 -0.0388
  246POPC   C4A 3261   6.526   3.274   6.333 -0.2721  0.1278 -0.0693
  246POPC   C1B 3262   6.797   3.512   5.129 -0.0137 -0.1069 -0.0667
  246POPC   C2B 3263   6.810   3.295   5.493 -0.1593 -0.0627  0.0780
  246POPC   C3B 3264   6.892   2.900   5.669  0.0529 -0.3397  0.1040
  246POPC   C4B 3265   7.245   2.735   5.722 -0.1689  0.0307  0.0045
  247POPC   NC3 3266   7.929   0.601   3.597 -0.1912 -0.1261  0.1302
  247POPC   PO4 3267   7.844   1.051   3.723  0.0502  0.5792 -0.0034
  247POPC   GL1 3268   7.843   1.344   4.113 -0.3775 -0.0478  0.4573
  247POPC   GL2 3269   7.638   1.285   4.362 -0.0628  0.1639  0.1177
  247POPC   C1A 3270   8.103   1.228   4.518  0.3329  0.0934  0.2398
  247POPC   D2A 3271   8.281   0.995   4.908  0.1404 -0.1250  0.2908
  247POPC   C3A 3272   8.323   1.159   5.392 -0.2718  0.0242 -0.2588
  247POPC   C4A 3273   8.430   1.459   5.600 -0.2689 -0.1932  0.0470
  247POPC   C1B 3274   7.757   1.264   4.891 -0.0605 -0.1899 -0.1682
  247POPC   C2B 3275   7.858   0.883   5.191  0.0419 -0.1778  0.1916
  247POPC   C3B 3276   7.983   0.657   5.463 -0.3338  0.1429 -0.2031
  247POPC   C4B 3277   8.315   0.739   5.822  0.4152  0.1908  0.1004
  248POPC   NC3 3278   3.223   9.162   3.932 -0.1937 -0.2219 -0.0045
  248POPC   PO4 3279   3.381   9.571   4.045  0.1358  0.1995  0.2503
  248POPC   GL1 3280   3.525   9.275   4.356  0.1293 -0.0549 -0.0882
  248POPC   GL2 3281   3.816   9.495   4.351 -0.0219 -0.1871 -0.1596
  248POPC   C1A 3282   3.517   9.469   4.777  0.2682  0.0115 -0.1675
  248POPC   D2A 3283   3.637   9.608   5.240  0.0131  0.1810  0.0268
  248POPC   C3A 3284   3.528  10.097   5.371 -0.1165  0.2013  0.0976
  248POPC   C4A 3285   3.211  10.476   5.448 -0.2353 -0.2217  0.1560
  248POPC   C1B 3286   4.018   9.594   4.812 -0.0819 -0.1466 -0.2554
  248POPC   C2B 3287   4.254   9.437   5.176 -0.0745  0.1745  0.1038
  248POPC   C3B 3288   4.084   9.387   5.517  0.2976 -0.0323 -0.3287
  248POPC   C4B 3289   3.590   9.199   5.492  0.0179 -0.1579 -0.2907
  249POPC   NC3 3290   4.379   3.767   4.150  0.3038 -0.2236 -0.3389
  249POPC   PO4 3291   4.579   4.080   4.217 -0.2062 -0.0627  0.1363
  249POPC   GL1 3292   4.427   4.128   4.615 -0.2712 -0.0618 -0.0729
  249POPC   GL2 3293   4.492   4.480   4.684 -0.1872  0.1048  0.0541
  249POPC   C1A 3294   4.147   4.232   4.876  0.1748 -0.1118  0.0587
  249POPC   D2A 3295   3.838   4.484   5.099 -0.0213  0.0912 -0.5122
  249POPC   C3A 3296   3.511   4.223   5.344  0.0186 -0.0168  0.1180
  249POPC   C4A 3297   3.227   3.883   5.630 -0.2694  0.1501  0.4045
  249POPC   C1B 3298   4.454   4.626   5.084 -0.1299 -0.2022 -0.1509
  249POPC   C2B 3299   4.668   4.893   5.176  0.3401 -0.2231  0.0968
  249POPC   C3B 3300   5.033   4.881   5.379 -0.2860  0.2162 -0.2145
  249POPC   C4B 3301   5.089   5.045   5.817  0.2636  0.2452 -0.2735
  250POPC   NC3 3302   0.623   8.278   4.016  0.0447 -0.1864  0.0086
  250POPC   PO4 3303   0.410   7.963   4.120 -0.2239 -0.0500  0.0708
  250POPC   GL1 3304   0.301   7.965   4.560  0.1361 -0.1389  0.3316
  250POPC   GL2 3305   0.022   8.125   4.648 -0.0276 -0.0781  0.3291
  250POPC   C1A 3306   0.204   8.003   5.072 -0.2402 -0.0935  0.1505
  250POPC   D2A 3307   0.060   7.967   5.418 -0.0199  0.1489  0.0017
  250POPC   C3A 3308   0.071   8.297   5.583 -0.2519 -0.1505  0.0646
  250POPC   C4A 3309   0.234   8.776   5.712 -0.0806 -0.1545  0.0594
  250POPC   C1B 3310  -0.184   8.285   5.021  0.3643  0.3377  0.0577
  250POPC   C2B 3311  -0.386   8.250   5.357  0.0355 -0.0268 -0.0285
  250POPC   C3B 3312  -0.379   8.468   5.771 -0.2530 -0.0738  0.2422
  250POPC   C4B 3313  -0.337   8.648   6.160 -0.0417 -0.0776 -0.2996
  251POPC   NC3 3314   3.177   8.506   3.772 -0.0987  0.2405 -0.2139
  251POPC   PO4 3315   2.984   8.679   4.083 -0.0069  0.0821  0.3708
  251POPC   GL1 3316   2.977   8.701   4.520 -0.2110 -0.0591 -0.0431
  251POPC   GL2 3317   3.210   8.889   4.553 -0.2314 -0.3454 -0.0939
  251POPC   C1A 3318   2.681   8.739   5.032 -0.0250  0.0958  0.2576
  251POPC   D2A 3319   2.338   8.797   5.222  0.1099  0.1786 -0.2329
  251POPC   C3A 3320   2.257   8.845   5.643 -0.2588 -0.1642  0.3187
  251POPC   C4A 3321   2.073   8.876   6.019 -0.2187  0.0303  0.1931
  251POPC   C1B 3322   2.843   9.121   4.816  0.3502 -0.2800  0.2123
  251POPC   C2B 3323   2.755   9.090   5.347  0.1893 -0.0633  0.1097
  251POPC   C3B 3324   2.467   9.290   5.474 -0.1028 -0.0970  0.0597
  251POPC   C4B 3325   2.177   9.698   5.385  0.1588  0.0120 -0.1465
  252POPC   NC3 3326   9.821   5.318   4.140  0.4891 -0.0011 -0.3286
  252POPC   PO4 3327  10.194   5.190   4.032 -0.1943 -0.1050 -0.0555
  252POPC   GL1 3328  10.224   4.862   4.391 -0.1858 -0.0161 -0.2909
  252POPC   GL2 3329  10.018   5.061   4.547 -0.0516 -0.1386  0.1683
  252POPC   C1A 3330  10.525   4.499   4.473  0.1648  0.1377 -0.0525
  252POPC   D2A 3331  10.526   4.052   4.665 -0.0203  0.2906 -0.0675
  252POPC   C3A 3332  10.477   3.940   5.059 -0.0896 -0.4811  0.3668
  252POPC   C4A 3333  10.505   3.715   5.412 -0.0525 -0.2104  0.0139
  252POPC   C1B 3334  10.270   5.135   4.911  0.2625 -0.0815 -0.1568
  252POPC   C2B 3335  10.404   4.877   5.272 -0.1485 -0.0330 -0.0577
  252POPC   C3B 3336  10.160   4.803   5.657  0.1851  0.2983 -0.0728
  252POPC   C4B 3337  10.086   4.641   6.044 -0.0611  0.0133 -0.3506
  253POPC   NC3 3338   8.102   8.347   3.792  0.1616  0.3229  0.4037
  253POPC   PO4 3339   8.541   8.516   3.828 -0.2422  0.0472  0.1866
  253POPC   GL1 3340   8.472   8.732   4.209  0.1337  0.2319 -0.0735
  253POPC   GL2 3341   8.306   8.587   4.445  0.0687 -0.1823 -0.3927
  253POPC   C1A 3342   8.733   8.941   4.530 -0.0727 -0.0173 -0.0269
  253POPC   D2A 3343   9.056   9.031   4.913  0.0568 -0.4096  0.1518
  253POPC   C3A 3344   8.927   8.740   5.341  0.0288  0.0919  0.0074
  253POPC   C4A 3345   8.736   8.470   5.651  0.1420  0.1105 -0.3588
  253POPC   C1B 3346   7.894   8.550   4.675  0.0887  0.0290 -0.0989
  253POPC   C2B 3347   7.656   8.786   4.679 -0.1789  0.1426  0.0190
  253POPC   C3B 3348   7.698   9.105   4.952  0.1239  0.2205  0.0134
  253POPC   C4B 3349   7.948   9.422   5.170 -0.0831 -0.0594  0.1775
  254POPC   NC3 3350   8.239   9.804   3.181 -0.2103  0.1265  0.0825
  254POPC   PO4 3351   8.046   9.831   3.647  0.1545  0.0513 -0.0913
  254POPC   GL1 3352   7.853   9.765   4.145 -0.2786 -0.3540 -0.0898
  254POPC   GL2 3353   7.525   9.834   4.195  0.2296 -0.3966  0.0519
  254POPC   C1A 3354   7.923   9.912   4.613  0.0087  0.1450  0.1927
  254POPC   D2A 3355   7.860   9.842   4.977  0.2226  0.0357 -0.0999
  254POPC   C3A 3356   8.036   9.886   5.386  0.0965 -0.2141  0.0737
  254POPC   C4A 3357   8.061  10.334   5.693  0.0759  0.0519 -0.0835
  254POPC   C1B 3358   7.070   9.583   4.314 -0.1739  0.0135 -0.2896
  254POPC   C2B 3359   6.887   9.155   4.369 -0.3437 -0.4955  0.0927
  254POPC   C3B 3360   6.784   9.044   4.659 -0.1251  0.2236 -0.1584
  254POPC   C4B 3361   6.878   9.166   5.096 -0.1505  0.0940 -0.0851
  255POPC   NC3 3362   8.648   8.016   3.934 -0.0230  0.1210  0.0948
  255POPC   PO4 3363   8.311   8.141   4.204  0.3138 -0.0236 -0.3491
  255POPC   GL1 3364   8.385   8.113   4.563 -0.0667 -0.0358  0.1672
  255POPC   GL2 3365   8.718   8.039   4.653  0.5112  0.0059  0.0419
  255POPC   C1A 3366   8.242   8.346   4.969 -0.2056  0.0151  0.1521
  255POPC   D2A 3367   7.815   8.220   5.103 -0.2453 -0.2771  0.2679
  255POPC   C3A 3368   7.446   8.477   5.018 -0.1577 -0.0222  0.1075
  255POPC   C4A 3369   7.293   8.901   5.162  0.0757  0.0864  0.1261
  255POPC   C1B 3370   8.714   8.391   4.905 -0.1509  0.1612 -0.1328
  255POPC   C2B 3371   8.472   8.754   5.171  0.2266  0.0360 -0.0916
  255POPC   C3B 3372   8.441   9.237   5.298  0.2225  0.2133  0.0751
  255POPC   C4B 3373   8.519   9.624   5.452 -0.1306 -0.1659  0.0276
  256POPC   NC3 3374   7.341   3.644   4.161 -0.0502 -0.3688 -0.2315
  256POPC   PO4 3375   7.214   3.265   4.206 -0.0121 -0.1350  0.0332
  256POPC   GL1 3376   7.377   3.355   4.634  0.3022 -0.1652  0.0162
  256POPC   GL2 3377   7.497   3.619   4.679  0.1066  0.0739 -0.1532
  256POPC   C1A 3378   7.724   3.148   4.935  0.0244  0.0953  0.0855
  256POPC   D2A 3379   7.801   3.079   5.412 -0.3650 -0.0384 -0.2438
  256POPC   C3A 3380   7.766   2.746   5.764 -0.0966  0.1069 -0.1211
  256POPC   C4A 3381   7.497   2.343   5.897 -0.0289  0.0751 -0.1588
  256POPC   C1B 3382   7.282   3.653   5.071  0.4786  0.2986  0.1648
  256POPC   C2B 3383   7.469   3.602   5.438  0.0436 -0.1251 -0.0893
  256POPC   C3B 3384   7.828   3.517   5.660 -0.0100 -0.1069  0.0239
  256POPC   C4B 3385   7.880   3.611   6.036 -0.1967 -0.1381 -0.0874
  257POPC   NC3 3386   4.741   3.442   4.071  0.0849 -0.1420  0.1621
  257POPC   PO4 3387   5.277   3.359   4.090  0.3146  0.1078 -0.0101
  257POPC   GL1 3388   5.399   3.412   4.530  0.2600  0.1487 -0.1731
  257POPC   GL2 3389   5.795   3.348   4.621 -0.2285  0.1913  0.1223
  257POPC   C1A 3390   5.305   3.200   4.854  0.2086 -0.0192  0.0271
  257POPC   D2A 3391   5.638   3.095   5.065  0.0556 -0.7037  0.0715
  257POPC   C3A 3392   5.689   3.036   5.441 -0.2211 -0.3476 -0.1951
  257POPC   C4A 3393   5.333   3.155   5.525  0.2097  0.0045  0.2242
  257POPC   C1B 3394   5.641   3.662   4.859  0.1781 -0.0894  0.1243
  257POPC   C2B 3395   5.450   3.563   5.271  0.1429  0.0909 -0.0356
  257POPC   C3B 3396   5.184   3.657   5.688  0.1138 -0.0076 -0.0695
  257POPC   C4B 3397   5.158   3.361   6.102 -0.0517 -0.1648  0.3041
  258POPC   NC3 3398   1.433   0.016   3.424 -0.1911  0.1114 -0.1792
  258POPC   PO4 3399   1.151  -0.310   3.659  0.0291  0.1875 -0.0434
  258POPC   GL1 3400   1.038  -0.263   4.070 -0.0542 -0.1446 -0.2792
  258POPC   GL2 3401   0.998   0.104   4.169 -0.1914 -0.0872 -0.1038
  258POPC   C1A 3402   0.810  -0.322   4.434 -0.2966 -0.0301  0.1021
  258POPC   D2A 3403   0.920  -0.391   4.845 -0.0955 -0.2511 -0.0919
  258POPC   C3A 3404   0.846  -0.080   5.142  0.2729 -0.2081 -0.0469
  258POPC   C4A 3405   0.704   0.182   5.492 -0.2387 -0.0127  0.2425
  258POPC   C1B 3406   1.087   0.186   4.591  0.1083 -0.0409 -0.0765
  258POPC   C2B 3407   1.334   0.098   4.959 -0.4738 -0.1039 -0.0209
  258POPC   C3B 3408   1.386   0.062   5.427  0.1374 -0.1788 -0.0576
  258POPC   C4B 3409   1.418   0.225   5.789 -0.0416  0.1656  0.1151
  259POPC   NC3 3410   7.867   2.661   3.819 -0.0995  0.1627 -0.1029
  259POPC   PO4 3411   8.068   2.886   3.945 -0.0202  0.3002 -0.0244
  259POPC   GL1 3412   8.244   2.670   4.278 -0.0285  0.0095 -0.0599
  259POPC   GL2 3413   8.565   2.530   4.357  0.1658 -0.0159  0.0906
  259POPC   C1A 3414   8.043   2.613   4.727 -0.0030 -0.1656 -0.0483
  259POPC   D2A 3415   7.886   2.234   5.016  0.0776  0.1461  0.0286
  259POPC   C3A 3416   7.463   2.260   5.177  0.1906 -0.2993 -0.1182
  259POPC   C4A 3417   7.157   2.654   5.255  0.2483 -0.3419  0.2770
  259POPC   C1B 3418   8.775   2.553   4.759  0.0399  0.2385 -0.0499
  259POPC   C2B 3419   9.178   2.804   4.937 -0.0382  0.0912  0.0795
  259POPC   C3B 3420   9.356   2.824   5.308  0.6663 -0.0813  0.2435
  259POPC   C4B 3421   9.066   2.833   5.499 -0.1095  0.0689  0.3697
  260POPC   NC3 3422   0.531   6.925   3.988 -0.0647  0.1486  0.0453
  260POPC   PO4 3423   0.939   7.021   3.979 -0.0080 -0.0633  0.0501
  260POPC   GL1 3424   0.820   7.053   4.464 -0.0150  0.2078 -0.2645
  260POPC   GL2 3425   0.590   6.913   4.551  0.0328 -0.3605  0.3451
  260POPC   C1A 3426   0.917   7.332   4.854 -0.2703  0.0933 -0.3485
  260POPC   D2A 3427   0.960   7.774   5.016 -0.1381  0.1887  0.0751
  260POPC   C3A 3428   0.805   8.020   4.804 -0.0175  0.1332 -0.2591
  260POPC   C4A 3429   0.619   8.346   4.794  0.1645  0.2623 -0.2091
  260POPC   C1B 3430   0.574   6.908   4.916  0.2526  0.0649 -0.0953
  260POPC   C2B 3431   0.953   6.864   5.197  0.0871  0.0116  0.1478
  260POPC   C3B 3432   1.102   6.663   5.646 -0.0806  0.0396  0.0275
  260POPC   C4B 3433   0.959   6.433   6.051 -0.0036  0.2618 -0.1364
  261POPC   NC3 3434   4.679   8.485   4.467  0.0694 -0.0587  0.2237
  261POPC   PO4 3435   4.274   8.504   4.183 -0.2109 -0.0336  0.1739
  261POPC   GL1 3436   4.255   8.603   4.600  0.5228  0.1315  0.0584
  261POPC   GL2 3437   4.230   8.383   4.787  0.1929 -0.1493  0.0117
  261POPC   C1A 3438   4.246   8.964   4.912 -0.3277 -0.0056  0.3672
  261POPC   D2A 3439   4.491   9.031   5.395 -0.1178  0.0545 -0.2223
  261POPC   C3A 3440   4.338   8.893   5.800  0.1312 -0.2279 -0.2023
  261POPC   C4A 3441   3.959   8.949   5.958  0.1579 -0.1925 -0.1122
  261POPC   C1B 3442   4.518   8.613   5.106  0.1209 -0.4310 -0.0734
  261POPC   C2B 3443   4.675   8.511   5.452 -0.1622 -0.0883  0.2100
  261POPC   C3B 3444   4.946   8.245   5.615  0.1605 -0.3179 -0.2870
  261POPC   C4B 3445   5.095   7.927   5.979 -0.1201  0.1189  0.1155
  262POPC   NC3 3446   5.520   8.638   4.219 -0.3393 -0.4259  0.0632
  262POPC   PO4 3447   5.805   8.262   4.086  0.1748 -0.0706 -0.0980
  262POPC   GL1 3448   5.845   8.293   4.462  0.4035  0.0255 -0.4188
  262POPC   GL2 3449   5.805   7.935   4.490  0.0485 -0.1079 -0.1335
  262POPC   C1A 3450   5.928   8.253   4.873 -0.1114  0.2973 -0.0808
  262POPC   D2A 3451   5.756   8.135   5.333 -0.1607  0.0575  0.1084
  262POPC   C3A 3452   5.958   8.195   5.698  0.0141  0.2299 -0.1212
  262POPC   C4A 3453   5.717   8.061   6.060  0.2480  0.1923  0.1161
  262POPC   C1B 3454   5.928   7.711   4.869  0.1059 -0.3314  0.0185
  262POPC   C2B 3455   5.761   7.525   5.300  0.0117 -0.1229  0.0226
  262POPC   C3B 3456   5.867   7.618   5.639  0.0157  0.1055  0.3160
  262POPC   C4B 3457   6.003   7.645   5.994 -0.1359 -0.2292  0.2638
  263POPC   NC3 3458   2.983   5.630   4.043 -0.3370 -0.0560  0.2191
  263POPC   PO4 3459   3.456   5.547   4.154  0.3179  0.4161 -0.0131
  263POPC   GL1 3460   3.331   5.387   4.500  0.3130 -0.0479 -0.2909
  263POPC   GL2 3461   3.079   5.231   4.388 -0.1555 -0.0695  0.1676
  263POPC   C1A 3462   3.291   5.146   4.867 -0.2065  0.0918 -0.1506
  263POPC   D2A 3463   3.374   4.807   5.150 -0.0079  0.1669 -0.1149
  263POPC   C3A 3464   3.327   4.706   5.599  0.1366 -0.3940  0.1764
  263POPC   C4A 3465   3.494   4.361   5.843 -0.2164 -0.5443 -0.0206
  263POPC   C1B 3466   2.839   5.370   4.765  0.1155 -0.2278  0.1577
  263POPC   C2B 3467   2.977   5.350   5.196 -0.1432 -0.2263 -0.0952
  263POPC   C3B 3468   3.160   5.248   5.662 -0.1910  0.0479  0.2461
  263POPC   C4B 3469   3.358   5.003   6.031  0.1975 -0.1690  0.1406
  264POPC   NC3 3470  10.325  10.235   3.334  0.0546 -0.0919  0.1168
  264POPC   PO4 3471  10.575   9.971   3.585 -0.1250 -0.2010  0.0386
  264POPC   GL1 3472  10.563  10.049   4.067  0.2155  0.3043  0.1694
  264POPC   GL2 3473  10.492   9.688   4.078 -0.3857 -0.0027 -0.0678
  264POPC   C1A 3474  10.661  10.169   4.514  0.0295  0.0880 -0.0869
  264POPC   D2A 3475  10.958  10.506   4.711  0.0834 -0.2451  0.1921
  264POPC   C3A 3476  10.779  10.676   5.169 -0.3393  0.0963 -0.2376
  264POPC   C4A 3477  10.695  10.731   5.602 -0.3221 -0.0514 -0.2268
  264POPC   C1B 3478  10.543   9.594   4.421  0.0364  0.2867  0.2543
  264POPC   C2B 3479  10.866   9.458   4.677  0.0350 -0.0967  0.1346
  264POPC   C3B 3480  10.858   9.396   5.093  0.0879  0.0724 -0.1020
  264POPC   C4B 3481  10.995   9.126   5.326 -0.2914 -0.0341 -0.0664
  265POPC   NC3 3482   3.027   6.137   3.780  0.0963 -0.0362 -0.1059
  265POPC   PO4 3483   2.884   6.214   4.143  0.2348  0.1698 -0.0600
  265POPC   GL1 3484   3.044   6.150   4.519 -0.1412 -0.2496 -0.1693
  265POPC   GL2 3485   3.140   6.516   4.723  0.0668  0.0999  0.3643
  265POPC   C1A 3486   3.230   5.806   4.779  0.0516  0.0422  0.1993
  265POPC   D2A 3487   3.484   5.660   5.158 -0.2796  0.2956 -0.2380
  265POPC   C3A 3488   3.533   5.257   5.295 -0.0757 -0.0036  0.2584
  265POPC   C4A 3489   3.721   5.092   5.705  0.1067 -0.2457  0.0349
  265POPC   C1B 3490   3.548   6.613   4.932 -0.1214  0.2312 -0.0677
  265POPC   C2B 3491   4.006   6.720   5.091  0.1562 -0.1938  0.2579
  265POPC   C3B 3492   4.120   6.722   5.504 -0.0903 -0.2240  0.1610
  265POPC   C4B 3493   4.119   6.743   5.936 -0.0619 -0.0310 -0.2253
  266POPC   NC3 3494   0.345   7.664   3.699  0.3337  0.0628  0.1150
  266POPC   PO4 3495   0.330   7.437   4.038  0.1645 -0.0186 -0.1027
  266POPC   GL1 3496   0.346   7.426   4.304 -0.0566 -0.3322  0.1949
  266POPC   GL2 3497   0.612   7.577   4.488 -0.0389 -0.2617  0.0456
  266POPC   C1A 3498   0.274   7.239   4.682 -0.3349 -0.0608  0.3145
  266POPC   D2A 3499   0.096   6.789   4.827  0.2804 -0.0873  0.1199
  266POPC   C3A 3500   0.149   6.553   5.178 -0.0759  0.3611  0.0105
  266POPC   C4A 3501   0.143   6.139   5.128  0.2070  0.2153  0.1552
  266POPC   C1B 3502   0.460   7.634   4.931 -0.2072 -0.1749 -0.2626
  266POPC   C2B 3503   0.290   7.539   5.317 -0.2229 -0.0985 -0.1638
  266POPC   C3B 3504   0.165   7.492   5.692 -0.0854 -0.0888  0.5454
  266POPC   C4B 3505   0.389   7.375   5.962 -0.2833  0.0486  0.1192
  267POPC   NC3 3506   9.875   6.644   3.608  0.2955  0.2270 -0.1403
  267POPC   PO4 3507   9.659   6.911   3.921 -0.0900 -0.0656 -0.0361
  267POPC   GL1 3508   9.881   6.686   4.299 -0.2798  0.0771  0.0982
  267POPC   GL2 3509  10.209   6.798   4.240 -0.1653  0.1869 -0.3293
  267POPC   C1A 3510   9.878   6.565   4.754  0.0719 -0.0571  0.0588
  267POPC   D2A 3511   9.701   6.319   5.212  0.0538 -0.0746 -0.0632
  267POPC   C3A 3512   9.803   6.569   5.539 -0.4495  0.0133  0.1176
  267POPC   C4A 3513   9.814   6.874   5.517  0.1117  0.0578 -0.4018
  267POPC   C1B 3514  10.204   6.919   4.679 -0.0399 -0.0229  0.1739
  267POPC   C2B 3515  10.168   6.788   5.081  0.0496 -0.0881  0.0728
  267POPC   C3B 3516  10.390   6.881   5.457  0.4374 -0.3763  0.0919
  267POPC   C4B 3517  10.302   7.300   5.479 -0.1280  0.0208 -0.2399
  268POPC   NC3 3518   3.716   9.178   3.889 -0.2834 -0.5775  0.0877
  268POPC   PO4 3519   3.605   8.672   3.961 -0.0317  0.1020  0.0245
  268POPC   GL1 3520   3.831   8.703   4.367 -0.1832 -0.0338 -0.0976
  268POPC   GL2 3521   3.725   8.422   4.573 -0.0423  0.2628  0.1122
  268POPC   C1A 3522   3.672   8.899   4.690  0.1064 -0.1247 -0.0097
  268POPC   D2A 3523   3.847   9.101   5.107 -0.0683 -0.1515  0.0365
  268POPC   C3A 3524   3.982   8.897   5.393  0.2676  0.3361 -0.2483
  268POPC   C4A 3525   3.905   8.525   5.625 -0.2590  0.1691  0.0564
  268POPC   C1B 3526   3.401   8.480   4.837  0.2727  0.2357 -0.1205
  268POPC   C2B 3527   3.035   8.387   5.122 -0.4171  0.0711  0.1037
  268POPC   C3B 3528   2.705   8.332   5.377  0.0396 -0.1360  0.0158
  268POPC   C4B 3529   2.588   8.418   5.668 -0.1511  0.0725  0.3749
  269POPC   NC3 3530   4.367   2.255   4.055 -0.2336 -0.3101 -0.1855
  269POPC   PO4 3531   4.734   2.493   4.195  0.0634  0.1308 -0.1353
  269POPC   GL1 3532   5.013   2.423   4.548 -0.0817 -0.1930  0.2397
  269POPC   GL2 3533   5.128   2.672   4.826  0.0652 -0.1004  0.3607
  269POPC   C1A 3534   4.914   2.234   5.012 -0.1939  0.0524  0.0887
  269POPC   D2A 3535   4.894   2.271   5.438 -0.2159 -0.1654  0.2547
  269POPC   C3A 3536   4.553   2.426   5.686 -0.0340  0.2248 -0.2145
  269POPC   C4A 3537   4.160   2.755   5.610  0.0106  0.1244 -0.1603
  269POPC   C1B 3538   5.318   2.699   5.229  0.1319 -0.0080  0.2027
  269POPC   C2B 3539   5.482   2.625   5.676  0.0116 -0.3702 -0.1587
  269POPC   C3B 3540   5.696   2.607   6.064  0.1696 -0.1176  0.4054
  269POPC   C4B 3541   5.742   2.726   6.429 -0.1256 -0.3820 -0.2015
  270POPC   NC3 3542   8.072   5.518   3.815 -0.1081  0.2592  0.2662
  270POPC   PO4 3543   8.147   5.115   4.113  0.1728  0.1538 -0.1591
  270POPC   GL1 3544   8.267   5.144   4.476  0.2477 -0.1474 -0.0687
  270POPC   GL2 3545   8.566   5.318   4.551  0.2463  0.0891 -0.1517
  270POPC   C1A 3546   8.215   5.192   4.986 -0.1011 -0.3457  0.2039
  270POPC   D2A 3547   8.240   5.620   5.304  0.0037  0.2592  0.0829
  270POPC   C3A 3548   8.621   5.548   5.700  0.1269  0.1037  0.2492
  270POPC   C4A 3549   8.961   5.679   5.953 -0.0913 -0.0007  0.1662
  270POPC   C1B 3550   8.504   5.636   4.839  0.1695 -0.1177 -0.1791
  270POPC   C2B 3551   8.466   6.048   5.026 -0.1441 -0.0997  0.0800
  270POPC   C3B 3552   8.636   6.133   5.535 -0.1252  0.0138 -0.0102
  270POPC   C4B 3553   8.575   6.019   6.018 -0.1961 -0.4678 -0.1460
  271POPC   NC3 3554   6.378   9.161   3.876 -0.0590  0.3056  0.3474
  271POPC   PO4 3555   6.512   9.629   3.846 -0.3462 -0.0314 -0.0282
  271POPC   GL1 3556   6.492   9.409   4.297 -0.1447  0.0470  0.1235
  271POPC   GL2 3557   6.214   9.248   4.332  0.0590  0.1280 -0.1175
  271POPC   C1A 3558   6.625   9.514   4.702  0.3101 -0.0551  0.2099
  271POPC   D2A 3559   7.056   9.590   4.795  0.3069 -0.0168  0.0766
  271POPC   C3A 3560   6.851   9.686   5.164  0.1977 -0.1922 -0.0778
  271POPC   C4A 3561   7.117   9.568   5.611 -0.1357  0.0888 -0.2428
  271POPC   C1B 3562   6.120   9.214   4.774 -0.0500  0.1858  0.0785
  271POPC   C2B 3563   6.457   9.409   5.174  0.2338 -0.2916  0.0937
  271POPC   C3B 3564   6.701   9.320   5.514 -0.2062 -0.1516 -0.2620
  271POPC   C4B 3565   7.011   8.956   5.574 -0.0812  0.1307 -0.0522
  272POPC   NC3 3566   9.585   7.823   3.758 -0.0515  0.1793  0.1544
  272POPC   PO4 3567   9.560   7.997   4.080  0.2759 -0.4189 -0.0145
  272POPC   GL1 3568   9.590   7.764   4.462 -0.1080  0.1176  0.0956
  272POPC   GL2 3569   9.519   7.415   4.684  0.1726 -0.2026 -0.2537
  272POPC   C1A 3570   9.953   7.584   4.649 -0.0503  0.2430 -0.2589
  272POPC   D2A 3571  10.009   7.395   5.062 -0.1670  0.1474  0.3650
  272POPC   C3A 3572   9.731   7.041   5.055  0.0552  0.1113  0.0212
  272POPC   C4A 3573   9.467   6.776   5.177  0.1337 -0.1230  0.0455
  272POPC   C1B 3574   9.133   7.529   4.879  0.0430 -0.1017 -0.0315
  272POPC   C2B 3575   8.837   7.397   5.205  0.0546  0.0506  0.0520
  272POPC   C3B 3576   8.968   7.228   5.625 -0.1705  0.2905 -0.1439
  272POPC   C4B 3577   9.079   7.496   5.894 -0.1399 -0.0994  0.0298
  273POPC   NC3 3578   9.614   2.359   2.971  0.1635  0.3946  0.2256
  273POPC   PO4 3579   9.424   2.623   3.231  0.1168 -0.0822  0.1804
  273POPC   GL1 3580   9.476   2.521   3.598 -0.0970 -0.0401  0.0091
  273POPC   GL2 3581   9.662   2.753   3.729 -0.0155 -0.1183 -0.0430
  273POPC   C1A 3582   9.563   2.233   3.934  0.2265 -0.3086 -0.0269
  273POPC   D2A 3583   9.704   2.178   4.339  0.1691 -0.1123  0.0419
  273POPC   C3A 3584   9.415   2.404   4.630  0.0236 -0.2049  0.3498
  273POPC   C4A 3585   9.108   2.781   4.415  0.0379  0.4614 -0.3218
  273POPC   C1B 3586   9.594   2.772   4.186 -0.3254  0.1004 -0.1383
  273POPC   C2B 3587   9.780   2.791   4.536  0.3803 -0.2234 -0.4138
  273POPC   C3B 3588  10.118   2.805   4.818 -0.1322  0.2527  0.0637
  273POPC   C4B 3589  10.144   2.484   5.270 -0.1826  0.0181  0.0726
  274POPC   NC3 3590   0.526   0.253   3.432  0.0728  0.2650  0.0372
  274POPC   PO4 3591   0.088  -0.061   3.632 -0.1650 -0.1259 -0.2170
  274POPC   GL1 3592  -0.039  -0.083   3.998  0.1969  0.0269  0.0423
  274POPC   GL2 3593   0.282  -0.155   4.170 -0.2674 -0.0642  0.0285
  274POPC   C1A 3594  -0.362  -0.186   4.296 -0.0743 -0.1628 -0.2024
  274POPC   D2A 3595  -0.797  -0.071   4.322 -0.1973  0.1451 -0.2103
  274POPC   C3A 3596  -0.703  -0.084   4.699 -0.0373  0.0741  0.0713
  274POPC   C4A 3597  -0.172  -0.136   4.880 -0.2489 -0.2229  0.2318
  274POPC   C1B 3598   0.160   0.264   4.393 -0.0709 -0.1541  0.1546
  274POPC   C2B 3599   0.061   0.367   4.733  0.1467  0.1106  0.0362
  274POPC   C3B 3600   0.084   0.561   5.151 -0.1175  0.0289  0.1983
  274POPC   C4B 3601   0.020   0.629   5.584  0.2848  0.0639  0.0720
  275POPC   NC3 3602   7.272   6.971   3.497 -0.1928  0.3716  0.0275
  275POPC   PO4 3603   7.358   7.092   3.909  0.0361 -0.0283  0.0920
  275POPC   GL1 3604   7.115   7.278   4.216  0.1554 -0.0299  0.1403
  275POPC   GL2 3605   6.724   7.266   4.244  0.3162  0.2407 -0.0642
  275POPC   C1A 3606   7.053   7.469   4.653 -0.0661  0.0297 -0.2201
  275POPC   D2A 3607   7.255   7.519   5.011  0.0112  0.1922  0.0097
  275POPC   C3A 3608   7.195   7.299   5.441  0.0238  0.1097  0.0494
  275POPC   C4A 3609   7.182   7.487   5.905 -0.1089 -0.1428  0.0975
  275POPC   C1B 3610   6.483   7.018   4.581 -0.0465 -0.2691  0.0751
  275POPC   C2B 3611   6.603   6.861   5.003  0.4558  0.2240  0.3062
  275POPC   C3B 3612   6.643   6.910   5.430 -0.0059 -0.0239  0.0205
  275POPC   C4B 3613   6.948   6.932   5.675 -0.1226  0.1966 -0.2364
  276POPC   NC3 3614   8.578   9.019   3.793  0.0356  0.0504  0.1088
  276POPC   PO4 3615   8.989   9.213   3.592  0.0924  0.1920 -0.0990
  276POPC   GL1 3616   8.978   9.254   3.990 -0.0363  0.1292  0.1928
  276POPC   GL2 3617   9.321   9.292   4.061  0.2856 -0.1640 -0.3228
  276POPC   C1A 3618   8.594   9.384   4.372  0.3185  0.1010 -0.1577
  276POPC   D2A 3619   8.456   9.786   4.501 -0.1679 -0.2484 -0.0448
  276POPC   C3A 3620   8.372   9.804   5.012 -0.0117 -0.1478 -0.1426
  276POPC   C4A 3621   8.487  10.152   5.411 -0.0417  0.2024  0.0552
  276POPC   C1B 3622   9.265   8.919   4.348 -0.1725 -0.1042  0.1120
  276POPC   C2B 3623   9.138   8.577   4.619 -0.2190  0.0499  0.0433
  276POPC   C3B 3624   9.249   8.508   5.022 -0.2380  0.1860 -0.4036
  276POPC   C4B 3625   9.462   8.203   5.190  0.0226 -0.1996 -0.1119
  277POPC   NC3 3626   5.151   4.216   3.995 -0.1435  0.0304  0.0521
  277POPC   PO4 3627   4.985   3.902   4.135  0.0140  0.1665 -0.0998
  277POPC   GL1 3628   4.820   3.673   4.487  0.0458  0.2177  0.3449
  277POPC   GL2 3629   4.913   3.387   4.525  0.0604 -0.5461 -0.2186
  277POPC   C1A 3630   4.571   3.700   4.872 -0.0359  0.1974 -0.0530
  277POPC   D2A 3631   4.440   3.527   5.278 -0.1854  0.1237 -0.0185
  277POPC   C3A 3632   4.462   3.062   5.337  0.0634  0.0089  0.2278
  277POPC   C4A 3633   4.912   2.734   5.456  0.1953 -0.1564  0.1056
  277POPC   C1B 3634   5.084   3.672   4.886  0.1617 -0.2707 -0.1364
  277POPC   C2B 3635   4.908   3.805   5.259 -0.1647 -0.1973 -0.1728
  277POPC   C3B 3636   4.621   3.876   5.612  0.2797 -0.1926 -0.1375
  277POPC   C4B 3637   4.402   4.110   5.936  0.2081 -0.0840 -0.2269
  278POPC   NC3 3638   5.924   7.791   4.051  0.0348  0.1678 -0.0021
  278POPC   PO4 3639   5.669   7.463   4.171  0.0185  0.0637 -0.1061
  278POPC   GL1 3640   5.379   7.520   4.606  0.1875 -0.0504 -0.2698
  278POPC   GL2 3641   5.664   7.253   4.755 -0.2364  0.3140 -0.3384
  278POPC   C1A 3642   5.420   7.809   4.983  0.3403 -0.1207 -0.0749
  278POPC   D2A 3643   5.231   8.128   5.254  0.0657 -0.0019 -0.0101
  278POPC   C3A 3644   4.981   8.494   5.037 -0.0533 -0.2320 -0.3803
  278POPC   C4A 3645   4.941   8.959   5.145 -0.0123  0.0072 -0.1931
  278POPC   C1B 3646   5.692   6.841   5.077 -0.1647 -0.2534 -0.0659
  278POPC   C2B 3647   5.811   7.011   5.481  0.1537  0.2675 -0.0855
  278POPC   C3B 3648   5.858   7.160   5.957  0.1189 -0.2316  0.1800
  278POPC   C4B 3649   5.929   7.370   6.402  0.0198  0.0438 -0.1597
  279POPC   NC3 3650   9.234   4.686   4.033 -0.0622  0.1663  0.3173
  279POPC   PO4 3651   9.137   4.241   3.887 -0.0319  0.0081 -0.1701
  279POPC   GL1 3652   9.257   4.318   4.375  0.0290  0.1512  0.0106
  279POPC   GL2 3653   9.050   4.121   4.438 -0.1734 -0.1428 -0.1933
  279POPC   C1A 3654   9.253   4.603   4.742 -0.1208 -0.2037 -0.0468
  279POPC   D2A 3655   9.272   4.497   5.269  0.2373  0.0106 -0.1394
  279POPC   C3A 3656   9.542   4.399   5.606  0.1531  0.2871  0.3218
  279POPC   C4A 3657   9.476   4.425   6.077  0.4618 -0.1170  0.1802
  279POPC   C1B 3658   9.180   4.081   4.906 -0.3243  0.1908  0.2260
  279POPC   C2B 3659   9.335   4.018   5.258 -0.2037  0.3808  0.0913
  279POPC   C3B 3660   9.546   3.937   5.664  0.5334  0.0354  0.3060
  279POPC   C4B 3661   9.304   3.966   6.086  0.1248 -0.5562  0.4175
  280POPC   NC3 3662   0.989   5.166   4.242  0.3287 -0.0856  0.0608
  280POPC   PO4 3663   1.278   5.558   4.392 -0.3739  0.3723 -0.0553
  280POPC   GL1 3664   1.280   5.317   4.789 -0.0885  0.2181 -0.0127
  280POPC   GL2 3665   0.961   5.183   4.752 -0.1935 -0.5266 -0.1038
  280POPC   C1A 3666   1.151   5.223   5.262 -0.0368 -0.0934  0.0194
  280POPC   D2A 3667   1.166   5.022   5.572  0.0614  0.3744 -0.0090
  280POPC   C3A 3668   0.869   4.882   5.858  0.2062  0.1945  0.0697
  280POPC   C4A 3669   0.684   5.116   6.233 -0.1215  0.1594  0.1490
  280POPC   C1B 3670   1.153   4.864   4.902 -0.0479 -0.2059  0.1985
  280POPC   C2B 3671   1.190   4.592   5.235  0.3028  0.0669  0.4697
  280POPC   C3B 3672   1.047   4.196   5.441  0.0259 -0.0595 -0.4073
  280POPC   C4B 3673   0.820   3.931   5.637  0.2000  0.0328 -0.1573
  281POPC   NC3 3674   0.663   4.693   3.908 -0.0202 -0.0694  0.1403
  281POPC   PO4 3675   0.398   4.869   4.148 -0.1082  0.2215  0.1899
  281POPC   GL1 3676   0.347   4.949   4.514 -0.0902  0.0399 -0.0479
  281POPC   GL2 3677   0.471   5.243   4.638 -0.3339 -0.2775  0.2661
  281POPC   C1A 3678   0.230   4.887   4.933 -0.0387 -0.0470  0.1438
  281POPC   D2A 3679   0.234   4.681   5.440 -0.1227  0.0768 -0.1300
  281POPC   C3A 3680   0.138   4.963   5.741 -0.2442  0.1389 -0.0199
  281POPC   C4A 3681   0.222   5.261   6.102 -0.3064  0.1574 -0.3581
  281POPC   C1B 3682   0.603   5.211   5.058  0.1273  0.2500  0.1244
  281POPC   C2B 3683   0.703   5.183   5.495  0.1307 -0.1888 -0.2054
  281POPC   C3B 3684   0.818   5.367   5.754  0.0022 -0.0816  0.0865
  281POPC   C4B 3685   1.177   5.392   6.101  0.2005 -0.0077  0.0031
  282POPC   NC3 3686   5.326   3.833   3.777  0.0143 -0.0285  0.0342
  282POPC   PO4 3687   5.680   3.703   4.147 -0.0009  0.1035 -0.0050
  282POPC   GL1 3688   5.914   4.009   4.439  0.0698 -0.3196 -0.1698
  282POPC   GL2 3689   6.263   4.054   4.572  0.2218 -0.1937  0.1354
  282POPC   C1A 3690   5.912   4.103   4.871 -0.0777  0.1077 -0.0773
  282POPC   D2A 3691   5.846   4.353   5.295  0.0433  0.0111 -0.1597
  282POPC   C3A 3692   6.216   4.256   5.557 -0.1119  0.2322 -0.0449
  282POPC   C4A 3693   6.252   3.963   5.870 -0.2105  0.0910  0.2162
  282POPC   C1B 3694   6.420   3.954   4.931  0.2885 -0.0414 -0.0012
  282POPC   C2B 3695   6.208   3.816   5.290  0.0685 -0.0361 -0.0278
  282POPC   C3B 3696   5.869   3.813   5.585  0.1353  0.2381  0.0515
  282POPC   C4B 3697   5.665   3.466   5.796  0.2834 -0.2801 -0.2047
  283POPC   NC3 3698   6.572   4.102   3.969  0.2345 -0.0750 -0.2153
  283POPC   PO4 3699   6.674   3.933   4.309  0.1096  0.0361  0.3295
  283POPC   GL1 3700   6.863   4.136   4.717 -0.0315 -0.2290  0.0433
  283POPC   GL2 3701   7.205   4.198   4.926  0.1296  0.0361  0.0240
  283POPC   C1A 3702   6.814   4.083   5.194 -0.3882 -0.1521  0.3453
  283POPC   D2A 3703   6.693   3.783   5.533  0.2921  0.1461 -0.1192
  283POPC   C3A 3704   7.050   3.702   5.685 -0.1890  0.3218 -0.3411
  283POPC   C4A 3705   7.392   3.638   6.017  0.0989 -0.2824  0.2493
  283POPC   C1B 3706   7.220   4.072   5.397  0.0381  0.0765  0.0182
  283POPC   C2B 3707   7.520   4.085   5.788  0.0941 -0.1293 -0.0898
  283POPC   C3B 3708   7.633   3.987   6.278 -0.3085  0.2047 -0.2970
  283POPC   C4B 3709   7.483   3.587   6.525  0.0266  0.1060 -0.2515
  284POPC   NC3 3710   4.038   3.071   3.647  0.0147 -0.3136 -0.0611
  284POPC   PO4 3711   3.894   2.625   3.823  0.3020 -0.2204  0.0461
  284POPC   GL1 3712   3.728   2.516   4.110 -0.0568 -0.0908  0.0893
  284POPC   GL2 3713   3.889   2.416   4.337  0.0050 -0.2791  0.0081
  284POPC   C1A 3714   3.343   2.348   4.144  0.2170 -0.2063  0.2817
  284POPC   D2A 3715   2.983   2.344   3.888  0.0344 -0.1191 -0.0300
  284POPC   C3A 3716   2.605   2.132   4.047 -0.3947 -0.3564 -0.0489
  284POPC   C4A 3717   2.175   2.105   4.201 -0.1606 -0.1450 -0.2672
  284POPC   C1B 3718   3.637   2.644   4.609 -0.1430  0.2605  0.2411
  284POPC   C2B 3719   3.451   2.479   4.943 -0.0402  0.1882  0.1467
  284POPC   C3B 3720   3.522   2.201   5.312 -0.2122 -0.3513 -0.0255
  284POPC   C4B 3721   3.511   1.975   5.772  0.0962 -0.2355 -0.1906
  285POPC   NC3 3722   9.412   3.967   3.445 -0.1576 -0.1006 -0.0719
  285POPC   PO4 3723   9.607   3.934   3.783 -0.1400 -0.0769  0.2110
  285POPC   GL1 3724   9.703   4.066   4.151  0.1346  0.0462 -0.2317
  285POPC   GL2 3725   9.906   4.308   4.150  0.1046 -0.0580 -0.0885
  285POPC   C1A 3726   9.685   4.021   4.593 -0.1879  0.0492  0.2012
  285POPC   D2A 3727   9.661   4.269   4.933  0.0147 -0.0869 -0.0776
  285POPC   C3A 3728   9.954   4.304   5.247  0.2213 -0.0070 -0.2528
  285POPC   C4A 3729  10.383   4.324   5.451  0.1489  0.0626 -0.0237
  285POPC   C1B 3730   9.939   4.470   4.545 -0.0125 -0.1499 -0.2147
  285POPC   C2B 3731  10.279   4.462   4.890  0.0522 -0.0790 -0.0921
  285POPC   C3B 3732  10.639   4.434   5.044 -0.3518  0.0187  0.3588
  285POPC   C4B 3733  11.015   4.363   4.711  0.2099  0.0806  0.3620
  286POPC   NC3 3734   5.022   6.355   4.129  0.1654  0.0942 -0.1319
  286POPC   PO4 3735   5.207   6.741   4.261  0.1420  0.1367 -0.2292
  286POPC   GL1 3736   5.271   6.569   4.571  0.0383  0.1579 -0.1408
  286POPC   GL2 3737   4.928   6.454   4.634  0.0499 -0.1785  0.0627
  286POPC   C1A 3738   5.458   6.478   4.853  0.1743  0.1937  0.1384
  286POPC   D2A 3739   5.485   6.418   5.254  0.0658  0.1424 -0.1579
  286POPC   C3A 3740   5.799   6.380   5.436  0.2179 -0.3767 -0.0267
  286POPC   C4A 3741   5.931   6.118   5.582 -0.2759  0.1492 -0.0579
  286POPC   C1B 3742   4.999   6.508   5.076  0.1381  0.1952 -0.0010
  286POPC   C2B 3743   4.929   6.486   5.451  0.3197 -0.0147 -0.4034
  286POPC   C3B 3744   4.906   6.173   5.720 -0.2556 -0.3423 -0.2251
  286POPC   C4B 3745   5.320   6.171   5.746 -0.1088  0.4332 -0.0636
  287POPC   NC3 3746   7.383   5.069   3.563 -0.0360  0.1120  0.0945
  287POPC   PO4 3747   7.524   5.128   3.953 -0.1436 -0.0163 -0.2777
  287POPC   GL1 3748   7.678   5.418   4.326  0.0245 -0.4841 -0.1696
  287POPC   GL2 3749   7.738   5.643   4.380  0.1764  0.0659  0.1515
  287POPC   C1A 3750   7.458   5.400   4.727  0.3384 -0.1717  0.0551
  287POPC   D2A 3751   7.183   5.604   5.011  0.1806 -0.2911  0.2581
  287POPC   C3A 3752   7.317   5.776   5.370 -0.0447 -0.2449 -0.0242
  287POPC   C4A 3753   7.701   5.990   5.691 -0.1707 -0.1067  0.2326
  287POPC   C1B 3754   7.983   5.532   4.731 -0.2490 -0.1848  0.0421
  287POPC   C2B 3755   7.699   5.593   5.178  0.0040 -0.0181 -0.2457
  287POPC   C3B 3756   7.623   5.487   5.629 -0.1395  0.1106  0.2348
  287POPC   C4B 3757   7.682   5.653   6.052 -0.1476  0.2573 -0.2828
  288POPC   NC3 3758  10.306   2.746   2.597  0.2114 -0.0625 -0.0126
  288POPC   PO4 3759   9.969   2.762   2.907  0.3451 -0.1373  0.2617
  288POPC   GL1 3760  10.014   2.618   3.383 -0.2174  0.0203  0.0028
  288POPC   GL2 3761  10.374   2.534   3.421 -0.3202  0.2705 -0.1029
  288POPC   C1A 3762  10.075   2.337   3.731 -0.3489 -0.0616  0.1080
  288POPC   D2A 3763  10.219   2.055   3.987  0.0749 -0.0327 -0.4145
  288POPC   C3A 3764  10.314   1.973   4.393 -0.0208 -0.3808  0.2097
  288POPC   C4A 3765  10.399   1.755   4.764 -0.0510 -0.2353  0.0854
  288POPC   C1B 3766  10.550   2.182   3.664 -0.0529 -0.0649 -0.0046
  288POPC   C2B 3767  10.800   1.905   3.951 -0.1678  0.0588  0.1551
  288POPC   C3B 3768  10.816   1.837   4.437  0.0291  0.3684  0.5414
  288POPC   C4B 3769  11.072   1.868   4.755  0.2197  0.2190  0.0730
  289POPC   NC3 3770   5.051   2.975   4.299 -0.1381  0.0894 -0.0813
  289POPC   PO4 3771   4.619   2.997   4.218 -0.1404 -0.0692  0.1994
  289POPC   GL1 3772   4.631   2.727   4.613  0.0011  0.0023  0.1842
  289POPC   GL2 3773   4.315   2.426   4.616  0.0642  0.1046  0.3250
  289POPC   C1A 3774   4.618   2.624   5.002 -0.0931 -0.2854 -0.0140
  289POPC   D2A 3775   4.360   2.487   5.238  0.2440  0.0632  0.3379
  289POPC   C3A 3776   3.992   2.282   5.014  0.1513 -0.2351 -0.2800
  289POPC   C4A 3777   3.738   2.127   4.710  0.0648 -0.0454 -0.0482
  289POPC   C1B 3778   4.367   2.074   4.744 -0.1132  0.1646 -0.0771
  289POPC   C2B 3779   4.056   1.760   4.940  0.0229 -0.1153  0.0479
  289POPC   C3B 3780   3.712   1.745   5.193 -0.0782  0.0441 -0.1126
  289POPC   C4B 3781   3.700   1.538   5.572 -0.1314 -0.5095  0.2390
  290POPC   NC3 3782   6.086   6.981   4.100  0.1370 -0.2660  0.2765
  290POPC   PO4 3783   6.340   7.403   3.958 -0.1496  0.3316 -0.0120
  290POPC   GL1 3784   6.320   7.707   4.340 -0.0993  0.0113  0.2568
  290POPC   GL2 3785   6.073   7.514   4.452  0.0179 -0.2147  0.0825
  290POPC   C1A 3786   6.355   7.934   4.594 -0.2289 -0.5031  0.0190
  290POPC   D2A 3787   6.288   7.971   5.149  0.2692 -0.1692 -0.0976
  290POPC   C3A 3788   6.423   7.650   5.393  0.0476  0.0242  0.0708
  290POPC   C4A 3789   6.725   7.409   5.585  0.1209 -0.3541  0.0977
  290POPC   C1B 3790   6.498   7.476   4.807 -0.0053  0.0962  0.1428
  290POPC   C2B 3791   6.741   7.321   5.048  0.1211 -0.1421  0.0998
  290POPC   C3B 3792   7.067   7.003   5.077 -0.1644  0.0051  0.1770
  290POPC   C4B 3793   7.400   6.803   5.342  0.0606 -0.0373 -0.0473
  291POPC   NC3 3794  10.158   9.777   3.757 -0.0894 -0.0021 -0.0299
  291POPC   PO4 3795   9.802   9.659   3.771  0.0263 -0.1887  0.3056
  291POPC   GL1 3796   9.758   9.510   4.152  0.0426  0.1246  0.2452
  291POPC   GL2 3797  10.011   9.423   4.310 -0.3174  0.3073  0.0038
  291POPC   C1A 3798   9.532   9.357   4.512  0.0612 -0.0212 -0.1089
  291POPC   D2A 3799   9.570   9.317   4.905  0.0862 -0.1314  0.0700
  291POPC   C3A 3800   9.273   9.259   5.315  0.2577 -0.1784 -0.2099
  291POPC   C4A 3801   8.895   9.293   5.436 -0.2483  0.0040 -0.0662
  291POPC   C1B 3802   9.929   9.572   4.682  0.0010  0.1730  0.1792
  291POPC   C2B 3803   9.927   9.787   5.074 -0.2061  0.2009 -0.1556
  291POPC   C3B 3804  10.256   9.876   5.338 -0.1784  0.0710 -0.0791
  291POPC   C4B 3805  10.123  10.056   5.771  0.1346 -0.1079 -0.1151
  292POPC   NC3 3806   0.367   9.753   3.366  0.0970  0.0177 -0.2355
  292POPC   PO4 3807   0.325   9.561   3.821  0.1015 -0.1533 -0.1049
  292POPC   GL1 3808   0.438   9.715   4.221 -0.1556 -0.1734  0.2260
  292POPC   GL2 3809   0.452  10.015   4.335 -0.0991  0.1570  0.1571
  292POPC   C1A 3810   0.827   9.691   4.518 -0.2923 -0.2557 -0.4752
  292POPC   D2A 3811   0.983   9.735   4.912 -0.2110  0.0681 -0.0720
  292POPC   C3A 3812   0.700   9.769   5.224  0.0726  0.0224  0.1271
  292POPC   C4A 3813   0.267   9.801   5.438 -0.1484 -0.0935  0.1700
  292POPC   C1B 3814   0.461   9.886   4.793  0.0462 -0.2661  0.2466
  292POPC   C2B 3815   0.408  10.181   5.106 -0.0518 -0.2128  0.0007
  292POPC   C3B 3816   0.438  10.296   5.542 -0.4922 -0.0091 -0.2234
  292POPC   C4B 3817   0.362  10.314   6.058 -0.1777  0.0412  0.0104
  293POPC   NC3 3818   4.795   9.052   3.857 -0.2308 -0.1680 -0.3047
  293POPC   PO4 3819   4.966   8.634   4.060 -0.1068 -0.2098  0.1395
  293POPC   GL1 3820   5.120   8.698   4.518  0.5138  0.0118 -0.0029
  293POPC   GL2 3821   4.928   8.953   4.685 -0.1593 -0.0149 -0.3154
  293POPC   C1A 3822   5.366   9.011   4.823 -0.1474 -0.0209  0.2626
  293POPC   D2A 3823   5.554   9.285   5.166 -0.0378 -0.0894  0.0708
  293POPC   C3A 3824   5.258   9.210   5.449 -0.0439  0.1923 -0.3326
  293POPC   C4A 3825   4.868   9.105   5.717  0.0541  0.4516  0.0073
  293POPC   C1B 3826   4.675   9.354   4.838  0.4063  0.2817  0.2175
  293POPC   C2B 3827   4.621   9.825   4.895  0.2776  0.0407 -0.2322
  293POPC   C3B 3828   4.691  10.282   4.879 -0.0396  0.0625 -0.0198
  293POPC   C4B 3829   4.418  10.487   5.034 -0.1151 -0.1439 -0.0304
  294POPC   NC3 3830   7.256  10.544   3.749  0.0762 -0.2499 -0.5215
  294POPC   PO4 3831   7.700  10.643   3.732 -0.0724  0.3175 -0.0256
  294POPC   GL1 3832   7.542  10.565   4.164  0.0943 -0.0301 -0.1390
  294POPC   GL2 3833   7.358  10.792   4.306 -0.1028 -0.0775  0.1332
  294POPC   C1A 3834   7.608  10.370   4.729  0.2794 -0.1204  0.2922
  294POPC   D2A 3835   7.623  10.556   5.088 -0.1636 -0.0514 -0.1799
  294POPC   C3A 3836   7.658  10.263   5.495 -0.1684  0.2617  0.2080
  294POPC   C4A 3837   7.705   9.957   5.891  0.1516  0.2800 -0.1014
  294POPC   C1B 3838   7.363  10.897   4.735 -0.1396 -0.0318 -0.1757
  294POPC   C2B 3839   7.324  10.947   5.257 -0.3732 -0.0381 -0.0533
  294POPC   C3B 3840   7.505  11.211   5.527  0.3886  0.6005  0.2277
  294POPC   C4B 3841   7.418  11.454   5.918 -0.1921  0.0325  0.2693
  295POPC   NC3 3842   5.841   1.698   3.799  0.0955 -0.3167 -0.0178
  295POPC   PO4 3843   5.456   1.578   4.044 -0.0678  0.0440 -0.1834
  295POPC   GL1 3844   5.507   1.371   4.477  0.3532  0.1661 -0.1093
  295POPC   GL2 3845   5.870   1.155   4.541 -0.0845 -0.0925 -0.0386
  295POPC   C1A 3846   5.565   1.345   4.876  0.2750 -0.2424 -0.2398
  295POPC   D2A 3847   5.776   1.401   5.301  0.2253  0.0142  0.1853
  295POPC   C3A 3848   5.627   1.134   5.756  0.0997 -0.3938  0.0994
  295POPC   C4A 3849   5.343   1.143   6.157  0.2429  0.2107 -0.1135
  295POPC   C1B 3850   6.047   1.347   4.875  0.1473  0.0228 -0.0781
  295POPC   C2B 3851   6.266   1.202   5.246 -0.0710 -0.3570  0.0249
  295POPC   C3B 3852   6.164   1.543   5.606  0.0964  0.2646 -0.0745
  295POPC   C4B 3853   5.824   1.561   5.901 -0.2408  0.0109 -0.2460
  296POPC   NC3 3854   9.564   0.805   3.374 -0.1130 -0.2006 -0.3358
  296POPC   PO4 3855   9.309   0.982   3.673 -0.0276 -0.0933  0.2694
  296POPC   GL1 3856   9.621   0.813   3.995  0.2021  0.0986 -0.1705
  296POPC   GL2 3857   9.809   0.568   3.924 -0.0474  0.0285 -0.2815
  296POPC   C1A 3858   9.500   0.908   4.374  0.0887 -0.1207  0.0983
  296POPC   D2A 3859   9.683   1.112   4.749  0.3413 -0.1788  0.2985
  296POPC   C3A 3860   9.810   0.793   4.925 -0.2072 -0.0340  0.3477
  296POPC   C4A 3861   9.823   0.483   5.254  0.0473 -0.2974 -0.2245
  296POPC   C1B 3862   9.731   0.406   4.363 -0.1177 -0.2042  0.0478
  296POPC   C2B 3863   9.625   0.368   4.720 -0.2900 -0.0088 -0.2702
  296POPC   C3B 3864   9.491   0.075   5.060  0.1013 -0.0702 -0.1189
  296POPC   C4B 3865   9.371   0.143   5.531 -0.3509 -0.0500  0.0856
  297POPC   NC3 3866   9.407   8.842   3.652 -0.5308 -0.0172 -0.0066
  297POPC   PO4 3867   9.430   8.440   3.837 -0.2316  0.0437  0.2375
  297POPC   GL1 3868   9.445   8.499   4.249 -0.1579  0.2265  0.3227
  297POPC   GL2 3869   9.621   8.266   4.542  0.1994  0.0096  0.4074
  297POPC   C1A 3870   9.576   8.754   4.672  0.0600 -0.1845 -0.0009
  297POPC   D2A 3871   9.597   8.909   5.139  0.1703 -0.0029  0.0154
  297POPC   C3A 3872   9.417   8.778   5.455  0.1469  0.1003  0.0266
  297POPC   C4A 3873   9.273   8.397   5.654 -0.1166 -0.3017  0.1400
  297POPC   C1B 3874   9.272   8.012   4.755 -0.0718 -0.0265 -0.0993
  297POPC   C2B 3875   8.951   8.020   5.032  0.1292 -0.0861 -0.1690
  297POPC   C3B 3876   8.639   8.101   5.297 -0.3775 -0.0212  0.0629
  297POPC   C4B 3877   8.223   7.942   5.426  0.0893  0.1996 -0.3559
  298POPC   NC3 3878   3.892   5.904   3.766 -0.0510  0.0917 -0.0349
  298POPC   PO4 3879   4.263   6.192   4.039  0.0699  0.1211  0.2072
  298POPC   GL1 3880   4.472   6.298   4.380 -0.1238 -0.0791  0.1002
  298POPC   GL2 3881   4.223   6.031   4.589 -0.1638 -0.1150  0.3469
  298POPC   C1A 3882   4.320   6.458   4.828  0.3182  0.2312 -0.0795
  298POPC   D2A 3883   4.539   6.733   5.159 -0.3517  0.0659 -0.1626
  298POPC   C3A 3884   4.895   7.111   5.293 -0.2487 -0.0723  0.1404
  298POPC   C4A 3885   5.286   6.841   5.433 -0.2326 -0.0838  0.2982
  298POPC   C1B 3886   3.999   5.782   5.058  0.0277 -0.3313 -0.0269
  298POPC   C2B 3887   3.936   5.531   5.370 -0.1513 -0.0881  0.0441
  298POPC   C3B 3888   3.748   5.611   5.618 -0.0417 -0.0828 -0.1152
  298POPC   C4B 3889   3.390   5.960   5.745  0.1031 -0.1131  0.0006
  299POPC   NC3 3890   2.574   9.707   3.589  0.2399  0.3367  0.1412
  299POPC   PO4 3891   2.173   9.633   3.489  0.0264  0.1586 -0.0663
  299POPC   GL1 3892   2.100   9.678   3.957  0.0115 -0.3022  0.0954
  299POPC   GL2 3893   2.031  10.069   4.084 -0.0509 -0.2709 -0.0211
  299POPC   C1A 3894   1.581   9.701   4.190 -0.1472 -0.4370  0.0220
  299POPC   D2A 3895   1.577   9.558   4.563  0.0036 -0.2138 -0.0407
  299POPC   C3A 3896   1.474   9.849   4.848  0.0093  0.1053 -0.1617
  299POPC   C4A 3897   1.629   9.865   5.216  0.0330  0.0204 -0.3392
  299POPC   C1B 3898   1.853   9.931   4.570  0.1079  0.1776  0.1491
  299POPC   C2B 3899   1.840  10.238   4.968  0.0158 -0.0229  0.1204
  299POPC   C3B 3900   1.819  10.672   5.208  0.3064 -0.0264  0.1427
  299POPC   C4B 3901   1.753  11.068   5.386 -0.0938  0.1182  0.1824
  300POPC   NC3 3902   2.834   6.719   4.392 -0.0861 -0.0738 -0.0803
  300POPC   PO4 3903   3.206   6.991   4.362  0.0707 -0.1963 -0.1488
  300POPC   GL1 3904   2.930   7.058   4.739 -0.0669 -0.0124 -0.1727
  300POPC   GL2 3905   2.573   7.276   4.624  0.3346  0.0574  0.1315
  300POPC   C1A 3906   2.878   7.078   5.237  0.1179 -0.0959  0.3817
  300POPC   D2A 3907   3.100   6.953   5.694  0.0106 -0.2780 -0.0109
  300POPC   C3A 3908   2.782   6.600   5.833  0.0210 -0.0140  0.1333
  300POPC   C4A 3909   2.397   6.896   5.783  0.3743  0.0507  0.0957
  300POPC   C1B 3910   2.406   7.138   4.982  0.1857  0.0292 -0.2387
  300POPC   C2B 3911   2.381   7.240   5.399 -0.0086  0.3642 -0.2525
  300POPC   C3B 3912   2.197   7.423   5.836  0.0797  0.2328 -0.0431
  300POPC   C4B 3913   2.330   7.490   6.243 -0.1509  0.2171 -0.2667
  301POPC   NC3 3914   8.237   1.910   3.404  0.1910  0.0234 -0.3507
  301POPC   PO4 3915   8.722   1.999   3.518 -0.0800 -0.3127  0.3004
  301POPC   GL1 3916   8.784   2.104   4.024 -0.1106 -0.0773 -0.2133
  301POPC   GL2 3917   8.545   2.036   4.112 -0.0519  0.0085 -0.0531
  301POPC   C1A 3918   8.974   2.141   4.447  0.3869 -0.2047  0.0578
  301POPC   D2A 3919   8.898   2.078   4.819  0.2732  0.1413 -0.2285
  301POPC   C3A 3920   9.071   2.400   5.202  0.1764  0.0903  0.1181
  301POPC   C4A 3921   9.401   2.308   5.522 -0.2416 -0.2302 -0.0440
  301POPC   C1B 3922   8.313   2.170   4.545 -0.0512  0.4157 -0.1587
  301POPC   C2B 3923   8.372   1.952   4.918  0.2370 -0.0856 -0.3522
  301POPC   C3B 3924   8.624   1.983   5.267 -0.1490 -0.1471 -0.0284
  301POPC   C4B 3925   8.885   2.035   5.477 -0.3982 -0.0782 -0.1875
  302POPC   NC3 3926   7.790   6.814   3.692  0.0158  0.2249 -0.0704
  302POPC   PO4 3927   7.944   6.697   4.061  0.0639 -0.2402 -0.0305
  302POPC   GL1 3928   8.073   6.452   4.414 -0.1246  0.0924  0.0046
  302POPC   GL2 3929   7.830   6.723   4.549  0.1629 -0.0065 -0.2535
  302POPC   C1A 3930   8.297   6.510   4.709 -0.3436  0.2929  0.2959
  302POPC   D2A 3931   8.215   6.537   5.181 -0.1048 -0.2602  0.1054
  302POPC   C3A 3932   7.980   6.896   5.261 -0.3128 -0.4973  0.1956
  302POPC   C4A 3933   7.672   7.208   5.436 -0.2115 -0.3697  0.2050
  302POPC   C1B 3934   7.843   6.482   4.907 -0.0505  0.1069  0.1683
  302POPC   C2B 3935   7.800   6.442   5.415  0.2153 -0.0988 -0.3596
  302POPC   C3B 3936   7.742   6.694   5.696 -0.0256  0.3996  0.2886
  302POPC   C4B 3937   7.459   7.051   5.861 -0.4308 -0.0197  0.1317
  303POPC   NC3 3938   6.879   2.530   3.392 -0.1552 -0.0367 -0.2319
  303POPC   PO4 3939   6.715   2.220   3.739 -0.1590 -0.1275 -0.0350
  303POPC   GL1 3940   6.523   2.226   4.190  0.1463 -0.1266  0.0269
  303POPC   GL2 3941   6.257   2.270   4.419 -0.0778 -0.0558  0.0420
  303POPC   C1A 3942   6.659   2.056   4.645 -0.0554 -0.1654  0.2772
  303POPC   D2A 3943   6.585   2.158   5.026  0.1642  0.0254  0.1345
  303POPC   C3A 3944   6.640   2.636   5.211  0.2745  0.3040  0.1061
  303POPC   C4A 3945   6.627   3.017   5.083 -0.0188  0.3278  0.2742
  303POPC   C1B 3946   6.157   1.901   4.586  0.1395  0.0932  0.1187
  303POPC   C2B 3947   6.140   1.831   5.006 -0.2160 -0.1544  0.1246
  303POPC   C3B 3948   6.242   2.013   5.415  0.0182 -0.0360 -0.0815
  303POPC   C4B 3949   6.494   2.330   5.664  0.1701  0.0223  0.0709
  304POPC   NC3 3950   1.554   4.912   3.826 -0.2633 -0.0593 -0.2971
  304POPC   PO4 3951   1.152   4.693   3.771 -0.2992 -0.4539  0.1545
  304POPC   GL1 3952   1.130   4.637   4.198  0.2162  0.1913 -0.2433
  304POPC   GL2 3953   0.912   4.743   4.471 -0.1724  0.1483  0.0753
  304POPC   C1A 3954   0.813   4.229   4.337 -0.0070  0.0979  0.2671
  304POPC   D2A 3955   0.636   3.927   4.814 -0.1378 -0.0911  0.1267
  304POPC   C3A 3956   0.513   4.269   5.169  0.0849 -0.1625  0.0496
  304POPC   C4A 3957   0.241   4.132   5.492 -0.0235 -0.0318 -0.0461
  304POPC   C1B 3958   0.702   4.764   4.844 -0.2478 -0.1053 -0.1471
  304POPC   C2B 3959   0.722   4.690   5.321  0.1638 -0.1045  0.2778
  304POPC   C3B 3960   0.702   4.440   5.695 -0.1743  0.1139 -0.0158
  304POPC   C4B 3961   0.462   4.106   5.962 -0.0601 -0.1569  0.2068
  305POPC   NC3 3962   5.364   9.439   4.067 -0.1013  0.1373 -0.0079
  305POPC   PO4 3963   5.170   9.110   4.282  0.1516 -0.5827 -0.0749
  305POPC   GL1 3964   4.947   9.490   4.446  0.2134  0.3878  0.0702
  305POPC   GL2 3965   5.061   9.812   4.387 -0.0130 -0.4044 -0.0065
  305POPC   C1A 3966   5.115   9.625   4.921 -0.1346  0.1918  0.2977
  305POPC   D2A 3967   5.099   9.927   5.259 -0.2937  0.2114 -0.0988
  305POPC   C3A 3968   5.033   9.812   5.675 -0.1334 -0.1549 -0.0110
  305POPC   C4A 3969   5.094   9.603   5.921 -0.1636 -0.0871  0.2019
  305POPC   C1B 3970   5.395   9.918   4.520 -0.1675 -0.0847  0.0342
  305POPC   C2B 3971   5.518   9.883   4.990  0.3023  0.2664  0.0427
  305POPC   C3B 3972   5.482   9.818   5.528 -0.1811  0.2250  0.0097
  305POPC   C4B 3973   5.529   9.437   5.779  0.1666  0.0306 -0.2169
  306POPC   NC3 3974   6.294   5.932   3.678 -0.1183 -0.1429 -0.3500
  306POPC   PO4 3975   6.799   6.133   3.767  0.0269  0.0356 -0.2529
  306POPC   GL1 3976   6.709   6.371   4.109  0.0173 -0.0326 -0.1172
  306POPC   GL2 3977   6.547   6.177   4.234 -0.2887 -0.2502 -0.0280
  306POPC   C1A 3978   6.958   6.591   4.368 -0.1287 -0.2465 -0.2107
  306POPC   D2A 3979   6.972   6.966   4.567  0.2305  0.1190  0.2193
  306POPC   C3A 3980   7.340   7.048   4.629 -0.1277  0.0464  0.0417
  306POPC   C4A 3981   7.666   7.004   4.862 -0.1876 -0.2497  0.0592
  306POPC   C1B 3982   6.765   5.999   4.481 -0.0986  0.3330  0.2356
  306POPC   C2B 3983   7.012   6.051   4.860 -0.1503 -0.1023 -0.0481
  306POPC   C3B 3984   6.867   5.987   5.331 -0.3259 -0.0373  0.2161
  306POPC   C4B 3985   6.807   6.017   5.660 -0.0949 -0.0073 -0.3217
  307POPC   NC3 3986   6.278   9.890   4.193  0.1488 -0.1417  0.1287
  307POPC   PO4 3987   6.408  10.413   4.256 -0.0389  0.2220  0.1958
  307POPC   GL1 3988   6.435  10.380   4.624 -0.0975  0.0964  0.0149
  307POPC   GL2 3989   6.571  10.633   4.700 -0.1224 -0.0534 -0.0347
  307POPC   C1A 3990   6.364   9.974   5.023  0.1102 -0.0547  0.1156
  307POPC   D2A 3991   6.425   9.867   5.447 -0.0145  0.1106 -0.0058
  307POPC   C3A 3992   6.745  10.108   5.536 -0.3129  0.2304 -0.0303
  307POPC   C4A 3993   7.172  10.094   5.737 -0.2824  0.3201 -0.1680
  307POPC   C1B 3994   6.750  10.907   5.053  0.0599  0.2446 -0.2009
  307POPC   C2B 3995   6.898  11.158   5.336 -0.0754  0.1373  0.0005
  307POPC   C3B 3996   6.903  11.618   5.498 -0.0388 -0.0046 -0.0460
  307POPC   C4B 3997   6.640  11.856   5.733 -0.0683  0.0743  0.0761
  308POPC   NC3 3998   5.182   7.245   4.233  0.0820 -0.1420  0.0425
  308POPC   PO4 3999   4.807   7.331   4.106 -0.1082  0.2467 -0.1302
  308POPC   GL1 4000   4.700   7.483   4.541 -0.2550  0.0731 -0.1413
  308POPC   GL2 4001   4.386   7.489   4.724  0.0110  0.1053  0.1465
  308POPC   C1A 4002   4.915   7.455   4.990 -0.0975 -0.0536  0.3112
  308POPC   D2A 4003   5.036   7.669   5.320 -0.1122 -0.2461 -0.0160
  308POPC   C3A 4004   4.878   7.487   5.764  0.1011  0.3266 -0.2124
  308POPC   C4A 4005   4.809   7.509   6.211 -0.1184  0.0070 -0.1484
  308POPC   C1B 4006   4.087   7.607   4.937 -0.3128 -0.2850 -0.0953
  308POPC   C2B 4007   3.645   7.713   5.080 -0.0031  0.2917 -0.1275
  308POPC   C3B 4008   3.491   8.150   5.291  0.3477 -0.0032  0.2067
  308POPC   C4B 4009   3.184   8.417   5.586 -0.1047  0.0365 -0.3789
  309POPC   NC3 4010   0.603   5.939   4.138  0.0504 -0.0337  0.0038
  309POPC   PO4 4011   0.208   5.744   4.306  0.2173  0.0145  0.2500
  309POPC   GL1 4012   0.157   5.673   4.701 -0.0668  0.0385 -0.0933
  309POPC   GL2 4013   0.083   5.388   4.872  0.2423 -0.0805  0.0397
  309POPC   C1A 4014   0.425   5.737   5.083 -0.1007  0.2131  0.2804
  309POPC   D2A 4015   0.489   5.801   5.438  0.3848 -0.0792  0.0440
  309POPC   C3A 4016   0.433   6.225   5.509 -0.2614 -0.1181  0.2768
  309POPC   C4A 4017   0.564   6.708   5.477  0.0805  0.1956 -0.0050
  309POPC   C1B 4018   0.151   5.305   5.265  0.1454 -0.2878  0.0630
  309POPC   C2B 4019   0.108   5.453   5.630 -0.2178 -0.1285  0.5111
  309POPC   C3B 4020   0.321   5.735   5.962 -0.0728 -0.1029  0.0967
  309POPC   C4B 4021   0.407   6.166   5.998  0.0252  0.0164  0.0215
  310POPC   NC3 4022   4.231   4.881   4.350 -0.0906 -0.2873 -0.1588
  310POPC   PO4 4023   4.633   4.687   4.205  0.0779  0.1202  0.1925
  310POPC   GL1 4024   4.770   4.862   4.571  0.0611 -0.0275 -0.3442
  310POPC   GL2 4025   4.499   5.146   4.771 -0.0302  0.3064  0.1880
  310POPC   C1A 4026   5.211   5.105   4.834 -0.2141 -0.1041  0.2348
  310POPC   D2A 4027   5.496   5.386   4.770 -0.1093 -0.2826  0.0297
  310POPC   C3A 4028   5.787   5.308   5.083  0.1641 -0.0112 -0.2776
  310POPC   C4A 4029   5.979   5.566   5.555  0.2585  0.1611  0.3745
  310POPC   C1B 4030   4.528   5.503   5.106  0.5149  0.1037  0.1125
  310POPC   C2B 4031   4.317   5.841   5.477 -0.1621 -0.0217 -0.3834
  310POPC   C3B 4032   4.216   5.972   5.881 -0.1799  0.0451  0.0623
  310POPC   C4B 4033   4.324   5.754   6.290 -0.0629  0.1545  0.0652
  311POPC   NC3 4034   6.756   7.962   3.568 -0.0302  0.1922 -0.0636
  311POPC   PO4 4035   6.775   8.208   3.929 -0.0813  0.1490 -0.0140
  311POPC   GL1 4036   6.799   8.099   4.292  0.1211  0.1945  0.2519
  311POPC   GL2 4037   6.790   7.825   4.460 -0.1984 -0.0540 -0.0186
  311POPC   C1A 4038   6.603   8.347   4.640  0.0522 -0.0106 -0.0076
  311POPC   D2A 4039   6.463   8.395   4.953 -0.0508  0.0529 -0.0045
  311POPC   C3A 4040   6.537   8.261   5.423  0.1218  0.2479  0.0469
  311POPC   C4A 4041   6.417   8.434   5.795  0.0653  0.1344 -0.2280
  311POPC   C1B 4042   6.743   7.891   4.981  0.0814  0.0863  0.1257
  311POPC   C2B 4043   6.884   7.828   5.366 -0.1554  0.4551 -0.0328
  311POPC   C3B 4044   6.614   7.845   5.800 -0.1401  0.1320 -0.1522
  311POPC   C4B 4045   6.318   8.077   6.120 -0.3215  0.2143  0.4346
  312POPC   NC3 4046   6.515   0.516   3.707 -0.1465 -0.0845 -0.0269
  312POPC   PO4 4047   6.906   0.352   4.010  0.0742 -0.1844  0.1005
  312POPC   GL1 4048   6.914   0.392   4.503  0.2026 -0.0448 -0.1044
  312POPC   GL2 4049   6.775   0.626   4.556 -0.1162 -0.1085 -0.2879
  312POPC   C1A 4050   7.064  -0.040   4.833 -0.2049  0.1718 -0.0374
  312POPC   D2A 4051   7.066  -0.102   5.269 -0.0391 -0.0336 -0.0259
  312POPC   C3A 4052   7.318   0.043   5.644  0.2855  0.1633 -0.2696
  312POPC   C4A 4053   7.645  -0.213   6.018  0.5320 -0.2162 -0.0465
  312POPC   C1B 4054   6.997   0.781   4.874  0.0095 -0.0327 -0.1882
  312POPC   C2B 4055   7.282   0.888   5.167  0.0239 -0.0323 -0.3861
  312POPC   C3B 4056   7.565   1.107   5.514 -0.1701 -0.4617 -0.0454
  312POPC   C4B 4057   7.761   1.329   5.430  0.1704  0.0717  0.3286
  313POPC   NC3 4058   3.296   0.046   3.167  0.0325 -0.0516  0.0294
  313POPC   PO4 4059   2.961  -0.034   3.461 -0.3375  0.0950  0.2008
  313POPC   GL1 4060   2.980   0.061   3.901 -0.0615 -0.1135 -0.0922
  313POPC   GL2 4061   2.832   0.321   3.773 -0.1905  0.1077 -0.1836
  313POPC   C1A 4062   2.829   0.257   4.240  0.1091 -0.2099 -0.1874
  313POPC   D2A 4063   2.721   0.174   4.607 -0.3050  0.1028  0.1155
  313POPC   C3A 4064   2.609  -0.104   4.707  0.1212  0.4195 -0.1332
  313POPC   C4A 4065   2.178  -0.024   4.929  0.1374 -0.1262 -0.1464
  313POPC   C1B 4066   2.724   0.674   4.041  0.2777 -0.0966 -0.0522
  313POPC   C2B 4067   2.516   0.704   4.462 -0.1461 -0.3177  0.0591
  313POPC   C3B 4068   2.516   0.563   4.874  0.2803 -0.1539  0.0667
  313POPC   C4B 4069   2.724   0.604   5.306 -0.0448 -0.1367  0.4742
  314POPC   NC3 4070   9.685   9.197   3.582 -0.0565  0.1032  0.2636
  314POPC   PO4 4071  10.108   9.247   3.832 -0.0140 -0.1464 -0.0113
  314POPC   GL1 4072  10.261   8.912   4.276  0.1221  0.0541 -0.0423
  314POPC   GL2 4073  10.402   8.575   4.332 -0.3285  0.1196  0.1866
  314POPC   C1A 4074  10.000   9.067   4.657  0.0881 -0.3706  0.4883
  314POPC   D2A 4075  10.088   9.174   5.059 -0.0406 -0.1200  0.2112
  314POPC   C3A 4076   9.989   9.010   5.485  0.3824 -0.1396 -0.0110
  314POPC   C4A 4077  10.354   8.944   5.766 -0.2587 -0.0553 -0.0887
  314POPC   C1B 4078  10.452   8.814   4.761  0.1647 -0.0272 -0.1328
  314POPC   C2B 4079  10.528   9.166   4.844  0.1507 -0.0459 -0.3014
  314POPC   C3B 4080  10.392   9.534   4.975  0.0438 -0.2846 -0.0251
  314POPC   C4B 4081  10.611   9.834   4.983 -0.1040 -0.0735 -0.0661
  315POPC   NC3 4082   1.764   7.454   4.256 -0.0103  0.1087  0.0744
  315POPC   PO4 4083   1.870   7.143   4.075  0.2916 -0.2885  0.0806
  315POPC   GL1 4084   1.835   6.977   4.492 -0.1627 -0.0900 -0.1338
  315POPC   GL2 4085   2.054   7.195   4.684  0.0366  0.0180  0.1037
  315POPC   C1A 4086   1.507   7.096   4.721  0.1561  0.0924 -0.3461
  315POPC   D2A 4087   1.593   7.537   4.915  0.0325  0.2770 -0.0120
  315POPC   C3A 4088   1.689   7.576   5.318  0.1993  0.0330  0.0650
  315POPC   C4A 4089   2.088   7.904   5.469  0.0021 -0.0763 -0.0359
  315POPC   C1B 4090   1.920   7.198   5.153  0.2544  0.1807  0.0686
  315POPC   C2B 4091   1.815   7.183   5.590 -0.0523 -0.0220 -0.2761
  315POPC   C3B 4092   1.666   7.474   5.839 -0.2796  0.0461  0.1615
  315POPC   C4B 4093   1.489   7.957   5.975  0.1262 -0.1241 -0.0982
  316POPC   NC3 4094   6.498   0.321   4.214 -0.0458  0.1393 -0.3168
  316POPC   PO4 4095   6.140   0.124   4.490 -0.0012  0.1423 -0.2391
  316POPC   GL1 4096   6.075   0.170   4.890 -0.3775  0.1192 -0.0591
  316POPC   GL2 4097   6.231  -0.060   5.039  0.1354  0.0190 -0.2255
  316POPC   C1A 4098   6.227   0.394   5.218 -0.0202 -0.0150  0.0638
  316POPC   D2A 4099   6.263   0.420   5.681 -0.2441  0.3295 -0.1335
  316POPC   C3A 4100   5.936   0.448   5.864  0.0786 -0.0544  0.3706
  316POPC   C4A 4101   5.571   0.731   6.027  0.2768  0.0137 -0.0708
  316POPC   C1B 4102   6.562  -0.140   5.220 -0.0319  0.2010  0.1795
  316POPC   C2B 4103   6.771   0.085   5.602  0.3460 -0.4735 -0.1448
  316POPC   C3B 4104   6.565   0.200   6.021 -0.1436 -0.3921 -0.1590
  316POPC   C4B 4105   6.355   0.224   6.400  0.3971  0.0596 -0.3585
  317POPC   NC3 4106  10.337   5.809   4.028 -0.0121 -0.0144 -0.0309
  317POPC   PO4 4107   9.931   5.876   4.102 -0.1254  0.0110  0.0378
  317POPC   GL1 4108   9.997   5.689   4.454  0.2008 -0.1606 -0.0378
  317POPC   GL2 4109  10.290   5.607   4.546  0.2946  0.3945  0.0428
  317POPC   C1A 4110   9.808   5.601   4.840 -0.1410  0.4097 -0.0747
  317POPC   D2A 4111   9.799   5.253   5.125  0.0416  0.0589 -0.3349
  317POPC   C3A 4112   9.975   5.337   5.497  0.1304 -0.2425 -0.0700
  317POPC   C4A 4113  10.133   5.648   5.835 -0.1728 -0.0680 -0.1456
  317POPC   C1B 4114  10.259   5.696   4.912 -0.1282 -0.0260 -0.2815
  317POPC   C2B 4115  10.397   5.746   5.404 -0.2204 -0.1545 -0.0017
  317POPC   C3B 4116  10.590   6.038   5.790  0.0240 -0.0594  0.1962
  317POPC   C4B 4117  10.334   5.955   6.216  0.0774 -0.2216 -0.0075
  318POPC   NC3 4118   4.053   1.195   3.808  0.0606  0.2846  0.1279
  318POPC   PO4 4119   4.066   1.619   3.919 -0.0064 -0.1220  0.1709
  318POPC   GL1 4120   3.947   1.499   4.288  0.3867 -0.1722  0.1858
  318POPC   GL2 4121   4.110   1.436   4.553 -0.2112 -0.0055  0.0137
  318POPC   C1A 4122   3.562   1.675   4.628  0.1497 -0.0115  0.0194
  318POPC   D2A 4123   3.288   1.801   4.908  0.3477 -0.1997  0.2521
  318POPC   C3A 4124   3.191   1.836   5.437  0.1104  0.2568 -0.1515
  318POPC   C4A 4125   3.268   1.603   5.842  0.2839 -0.1861  0.0283
  318POPC   C1B 4126   4.320   1.244   4.887 -0.1696  0.0439 -0.2405
  318POPC   C2B 4127   4.348   0.981   5.216  0.0983  0.1265 -0.1189
  318POPC   C3B 4128   4.429   0.836   5.547 -0.2737 -0.1882  0.1308
  318POPC   C4B 4129   4.736   0.552   5.678  0.0180 -0.0344  0.0919
  319POPC   NC3 4130   6.650   5.213   4.339 -0.3042 -0.2664 -0.1314
  319POPC   PO4 4131   6.330   5.573   4.133  0.1223 -0.1249 -0.0398
  319POPC   GL1 4132   6.278   5.755   4.453  0.0560 -0.0053 -0.0091
  319POPC   GL2 4133   6.031   5.656   4.581  0.0574  0.0814  0.0040
  319POPC   C1A 4134   6.101   6.127   4.709  0.0003 -0.0877  0.1155
  319POPC   D2A 4135   6.042   6.321   5.014 -0.0187  0.1135  0.2079
  319POPC   C3A 4136   6.181   6.706   5.173  0.1631  0.0245  0.0339
  319POPC   C4A 4137   6.148   6.767   5.700  0.1689  0.1234  0.0391
  319POPC   C1B 4138   6.087   5.695   5.034  0.0114 -0.3763  0.1425
  319POPC   C2B 4139   6.407   5.742   5.337  0.0707 -0.1823 -0.0557
  319POPC   C3B 4140   6.431   5.575   5.684  0.0690 -0.0899 -0.0860
  319POPC   C4B 4141   6.720   5.620   5.933 -0.1947  0.1887 -0.4155
  320POPC   NC3 4142   6.591   4.432   4.372  0.1221  0.4245  0.0098
  320POPC   PO4 4143   6.700   4.763   4.581  0.0846  0.0510 -0.0393
  320POPC   GL1 4144   6.386   4.953   4.779 -0.3056  0.0621 -0.2625
  320POPC   GL2 4145   6.400   5.327   4.742 -0.2268  0.3568  0.1643
  320POPC   C1A 4146   6.252   5.231   5.229  0.0008  0.1278  0.1322
  320POPC   D2A 4147   6.229   4.848   5.580  0.1384 -0.2760  0.2005
  320POPC   C3A 4148   6.489   4.627   5.903  0.1669 -0.0585 -0.2031
  320POPC   C4A 4149   6.607   4.311   6.131 -0.0763  0.1730 -0.1119
  320POPC   C1B 4150   6.675   5.486   5.029  0.1206  0.0083 -0.0176
  320POPC   C2B 4151   6.920   5.455   5.477  0.0500  0.1006  0.0547
  320POPC   C3B 4152   7.161   5.357   5.836 -0.0672 -0.0676  0.0425
  320POPC   C4B 4153   7.205   5.107   6.240 -0.0560 -0.0785  0.2357
  321POPC   NC3 4154   1.984   6.164   4.443 -0.1424 -0.1918  0.2436
  321POPC   PO4 4155   2.230   5.862   4.612 -0.0578 -0.1747 -0.2541
  321POPC   GL1 4156   2.378   5.728   4.937  0.0017  0.4445 -0.1735
  321POPC   GL2 4157   2.050   5.736   5.088  0.1026  0.0990 -0.1742
  321POPC   C1A 4158   2.496   5.652   5.357 -0.3505 -0.1536  0.1641
  321POPC   D2A 4159   2.495   5.845   5.723 -0.0008 -0.2636 -0.1947
  321POPC   C3A 4160   2.704   5.589   5.928 -0.0145 -0.1151 -0.0278
  321POPC   C4A 4161   2.876   5.267   6.115 -0.1502 -0.1002 -0.0418
  321POPC   C1B 4162   1.940   5.727   5.549 -0.1650 -0.0273  0.2761
  321POPC   C2B 4163   2.166   5.584   5.960 -0.1175 -0.0280  0.0591
  321POPC   C3B 4164   1.940   5.528   6.325 -0.1116  0.0772  0.1056
  321POPC   C4B 4165   1.663   5.708   6.509 -0.0076  0.1849  0.1469
  322POPC   NC3 4166   7.319   4.090   4.428 -0.2047 -0.1782  0.0386
  322POPC   PO4 4167   7.138   4.563   4.564 -0.3176  0.0908  0.2391
  322POPC   GL1 4168   7.190   4.902   4.818 -0.2274 -0.0548  0.0645
  322POPC   GL2 4169   6.950   5.158   4.815 -0.1247 -0.3274  0.0757
  322POPC   C1A 4170   7.345   5.148   5.273  0.1312  0.0832  0.1286
  322POPC   D2A 4171   7.490   4.965   5.717 -0.1197 -0.1132 -0.0044
  322POPC   C3A 4172   7.180   4.577   5.972  0.1833 -0.0531 -0.0528
  322POPC   C4A 4173   6.957   4.539   6.384  0.0743  0.1348 -0.1364
  322POPC   C1B 4174   6.794   4.907   5.131  0.0013 -0.1670 -0.0937
  322POPC   C2B 4175   6.859   4.947   5.595  0.1567  0.0853 -0.1233
  322POPC   C3B 4176   6.734   5.048   5.992 -0.1238  0.0354 -0.2613
  322POPC   C4B 4177   6.397   5.246   6.111 -0.2003  0.4591 -0.0733
  323POPC   NC3 4178   2.257   3.003   2.921  0.1515 -0.2318  0.0528
  323POPC   PO4 4179   2.561   3.164   3.084  0.0431 -0.0668  0.3524
  323POPC   GL1 4180   2.630   3.136   3.478 -0.1650 -0.0640  0.0825
  323POPC   GL2 4181   2.770   3.260   3.659  0.0024  0.2929  0.1221
  323POPC   C1A 4182   2.368   2.988   3.760  0.1763  0.2013 -0.2962
  323POPC   D2A 4183   2.040   2.985   4.024  0.2961 -0.0238 -0.0066
  323POPC   C3A 4184   1.724   2.847   3.648  0.5141  0.5397  0.1924
  323POPC   C4A 4185   1.563   2.520   3.500  0.2476 -0.1870  0.0813
  323POPC   C1B 4186   2.829   3.086   4.046 -0.4373  0.2150 -0.1391
  323POPC   C2B 4187   2.806   2.739   4.245 -0.3108  0.0225  0.2952
  323POPC   C3B 4188   2.916   2.285   4.438 -0.0564  0.1620 -0.0418
  323POPC   C4B 4189   3.214   1.942   4.416  0.2034 -0.1049  0.3729
  324POPC   NC3 4190   8.511   4.805   4.131 -0.0151 -0.2734  0.1195
  324POPC   PO4 4191   8.899   5.096   4.313  0.1011 -0.5181  0.1172
  324POPC   GL1 4192   8.920   4.855   4.563 -0.0073  0.0794  0.3275
  324POPC   GL2 4193   8.606   4.781   4.627  0.0829  0.1069 -0.0440
  324POPC   C1A 4194   8.960   4.913   4.978 -0.0604 -0.4893 -0.2473
  324POPC   D2A 4195   9.316   5.039   5.137  0.1288  0.1088 -0.2394
  324POPC   C3A 4196   9.359   5.407   5.433  0.1931 -0.1266  0.3845
  324POPC   C4A 4197   9.586   5.568   5.718 -0.3163  0.0652  0.0538
  324POPC   C1B 4198   8.419   4.734   5.009 -0.0586  0.1623  0.0405
  324POPC   C2B 4199   8.433   4.933   5.312 -0.2344  0.1197 -0.0573
  324POPC   C3B 4200   8.809   5.156   5.411 -0.1738 -0.2360 -0.2630
  324POPC   C4B 4201   8.991   5.176   5.849 -0.2208  0.1270  0.0851
  325POPC   NC3 4202   7.061   8.949   3.407 -0.1435  0.0090 -0.1323
  325POPC   PO4 4203   7.129   8.648   3.642  0.2806  0.3558 -0.0394
  325POPC   GL1 4204   7.010   8.838   4.017  0.2491 -0.0129  0.0182
  325POPC   GL2 4205   6.653   8.708   4.022  0.0350 -0.1760 -0.0294
  325POPC   C1A 4206   7.058   8.689   4.396 -0.0986  0.0031 -0.0620
  325POPC   D2A 4207   6.953   8.579   4.898  0.0393 -0.2923 -0.0757
  325POPC   C3A 4208   6.994   8.301   5.241  0.0677  0.3422  0.1399
  325POPC   C4A 4209   6.866   8.509   5.672  0.1118  0.4631  0.1731
  325POPC   C1B 4210   6.476   8.769   4.371  0.2475 -0.1393  0.0901
  325POPC   C2B 4211   6.217   8.765   4.697  0.2025  0.2044  0.2046
  325POPC   C3B 4212   6.411   8.878   5.078 -0.1437 -0.5087 -0.1287
  325POPC   C4B 4213   6.446   8.876   5.505  0.1508 -0.0003  0.0257
  326POPC   NC3 4214   9.346   9.830   4.005  0.1150  0.2215  0.3622
  326POPC   PO4 4215   9.651  10.156   3.711  0.1083 -0.0383  0.0940
  326POPC   GL1 4216   9.759  10.027   4.213 -0.1087  0.1312  0.1072
  326POPC   GL2 4217  10.090   9.889   4.306  0.0503 -0.0463  0.2329
  326POPC   C1A 4218   9.611   9.914   4.587 -0.2014  0.0905 -0.4284
  326POPC   D2A 4219   9.443   9.760   4.890  0.0454  0.1417 -0.0052
  326POPC   C3A 4220   9.066   9.554   4.933  0.0539 -0.2016 -0.1988
  326POPC   C4A 4221   8.645   9.372   4.886  0.2119  0.0701 -0.0738
  326POPC   C1B 4222  10.162  10.065   4.713 -0.2203 -0.2594  0.2482
  326POPC   C2B 4223   9.989  10.353   5.128  0.0793 -0.0736 -0.1219
  326POPC   C3B 4224   9.616  10.297   5.417  0.3921 -0.0706 -0.0324
  326POPC   C4B 4225   9.358  10.188   5.749  0.0062  0.2481 -0.0556
  327POPC   NC3 4226   4.447   1.628   4.261  0.0016  0.0157 -0.1455
  327POPC   PO4 4227   4.386   1.210   4.175  0.1013  0.0949  0.0722
  327POPC   GL1 4228   4.568   0.929   4.339 -0.2673 -0.1306  0.0045
  327POPC   GL2 4229   4.377   0.681   4.486 -0.0415  0.1199  0.4868
  327POPC   C1A 4230   4.750   0.763   4.772 -0.0583  0.1053 -0.0009
  327POPC   D2A 4231   4.827   0.690   5.129  0.2319  0.2101 -0.0122
  327POPC   C3A 4232   4.930   0.987   5.425  0.1564 -0.1099 -0.3885
  327POPC   C4A 4233   5.128   0.900   5.755  0.1447 -0.0864 -0.1004
  327POPC   C1B 4234   4.161   0.655   4.853 -0.1151 -0.0629 -0.0184
  327POPC   C2B 4235   4.354   0.447   5.115  0.3369  0.1635  0.1304
  327POPC   C3B 4236   4.468   0.227   5.456  0.2625  0.0182  0.1596
  327POPC   C4B 4237   4.554  -0.189   5.495  0.0679 -0.1199  0.0516
  328POPC   NC3 4238   3.411   4.112   3.888 -0.3577 -0.1181 -0.1174
  328POPC   PO4 4239   3.860   3.925   4.064  0.1704  0.1253 -0.2742
  328POPC   GL1 4240   3.885   3.948   4.490 -0.0448  0.0471  0.0547
  328POPC   GL2 4241   3.995   3.797   4.696 -0.3568  0.0731  0.0886
  328POPC   C1A 4242   3.625   4.029   4.906  0.0839  0.2986  0.1074
  328POPC   D2A 4243   3.297   3.856   5.128 -0.1831 -0.2371  0.1175
  328POPC   C3A 4244   3.342   3.432   5.235 -0.0253  0.0712 -0.2448
  328POPC   C4A 4245   3.322   3.163   5.595  0.2841  0.0130  0.2732
  328POPC   C1B 4246   4.049   3.794   5.132 -0.0500 -0.1920 -0.0126
  328POPC   C2B 4247   3.719   3.718   5.349 -0.4387  0.0356  0.0643
  328POPC   C3B 4248   3.687   3.649   5.708 -0.1506 -0.0733 -0.1365
  328POPC   C4B 4249   3.340   3.501   5.971 -0.0051 -0.3245  0.0789
  329POPC   NC3 4250   2.660   4.166   3.391  0.3114  0.2727 -0.1207
  329POPC   PO4 4251   2.397   4.241   3.659  0.0372  0.0178  0.1503
  329POPC   GL1 4252   2.348   3.921   4.091  0.2944  0.0011  0.0604
  329POPC   GL2 4253   2.327   4.196   4.242 -0.2477  0.2424 -0.0793
  329POPC   C1A 4254   2.259   3.729   4.396  0.2989  0.1538 -0.0572
  329POPC   D2A 4255   2.153   3.791   4.849  0.1000 -0.0255  0.0920
  329POPC   C3A 4256   2.079   4.280   5.036 -0.0636 -0.0231  0.2192
  329POPC   C4A 4257   2.473   4.573   5.136  0.1333  0.0096 -0.0515
  329POPC   C1B 4258   2.009   4.261   4.551 -0.1105 -0.1101  0.2870
  329POPC   C2B 4259   1.665   4.152   4.791 -0.1059  0.3094 -0.3021
  329POPC   C3B 4260   1.385   4.165   5.095  0.0530 -0.1004 -0.0045
  329POPC   C4B 4261   1.616   4.205   5.510 -0.0412  0.6107 -0.0952
  330POPC   NC3 4262   1.040   6.006   4.295 -0.2379  0.2630 -0.1544
  330POPC   PO4 4263   0.773   5.591   4.428 -0.0008 -0.1637 -0.1448
  330POPC   GL1 4264   0.912   5.669   4.902 -0.1038  0.1049  0.3620
  330POPC   GL2 4265   1.153   5.996   4.754  0.0250  0.1116  0.2888
  330POPC   C1A 4266   0.934   5.738   5.385 -0.1408 -0.2806 -0.3249
  330POPC   D2A 4267   1.213   5.664   5.671  0.0952 -0.0602 -0.2569
  330POPC   C3A 4268   1.596   5.624   5.900 -0.0401 -0.0913 -0.0848
  330POPC   C4A 4269   1.853   5.976   6.030 -0.3429  0.1379 -0.3340
  330POPC   C1B 4270   1.285   6.007   5.165  0.1036  0.3610 -0.0060
  330POPC   C2B 4271   1.551   6.032   5.513 -0.0563  0.1608  0.2519
  330POPC   C3B 4272   1.459   6.252   5.909  0.1607 -0.0326  0.2323
  330POPC   C4B 4273   1.582   6.356   6.348 -0.0505  0.0649  0.0244
  331POPC   NC3 4274  10.371   4.376   3.329  0.0499  0.0349  0.0559
  331POPC   PO4 4275  10.581   4.052   3.518 -0.2776 -0.1912  0.0642
  331POPC   GL1 4276  10.801   3.813   3.811 -0.3211  0.3744 -0.1214
  331POPC   GL2 4277  10.738   3.552   3.655 -0.0907  0.1098  0.0399
  331POPC   C1A 4278  11.139   3.778   3.970 -0.4123 -0.0550  0.0264
  331POPC   D2A 4279  11.583   3.682   3.922 -0.1062 -0.0094 -0.0696
  331POPC   C3A 4280  11.889   4.027   4.187  0.1118 -0.1637  0.2555
  331POPC   C4A 4281  12.092   4.214   4.344  0.1617 -0.0582 -0.0817
  331POPC   C1B 4282  10.924   3.309   4.024  0.0362  0.4401 -0.0142
  331POPC   C2B 4283  11.320   3.350   4.255  0.2589  0.2340  0.1995
  331POPC   C3B 4284  11.576   3.129   4.072 -0.1045 -0.0992  0.0522
  331POPC   C4B 4285  12.066   2.847   4.136 -0.2491  0.0719 -0.1319
  332POPC   NC3 4286   2.511   4.594   4.004  0.1329  0.3517  0.0648
  332POPC   PO4 4287   2.483   5.013   4.234 -0.0799 -0.0450  0.2254
  332POPC   GL1 4288   2.361   4.938   4.585 -0.1527 -0.3587  0.2043
  332POPC   GL2 4289   2.400   5.175   4.833  0.0943 -0.0522 -0.0183
  332POPC   C1A 4290   2.057   4.730   4.903 -0.1877  0.2258  0.1183
  332POPC   D2A 4291   1.657   4.693   4.656 -0.2965 -0.2647  0.0159
  332POPC   C3A 4292   1.276   4.412   4.716  0.1320 -0.2807  0.0338
  332POPC   C4A 4293   0.917   4.338   4.888  0.0170 -0.1417 -0.3001
  332POPC   C1B 4294   2.492   5.184   5.234  0.0087 -0.2641 -0.0140
  332POPC   C2B 4295   2.631   5.185   5.643  0.1632 -0.1669  0.0083
  332POPC   C3B 4296   2.377   5.066   5.903  0.1659 -0.0922 -0.0300
  332POPC   C4B 4297   2.134   4.694   6.002 -0.1808  0.1551 -0.1203
  333POPC   NC3 4298   1.710  10.195   3.635 -0.0680 -0.0862  0.0557
  333POPC   PO4 4299   1.961  10.554   3.610  0.2791  0.1355  0.1419
  333POPC   GL1 4300   1.857  11.067   3.662 -0.0327 -0.1854 -0.4498
  333POPC   GL2 4301   1.653  11.256   3.888 -0.3128  0.1865 -0.0061
  333POPC   C1A 4302   1.882  11.592   3.606  0.3000 -0.1882 -0.0097
  333POPC   D2A 4303   1.718  11.932   3.908  0.2162 -0.0406  0.2147
  333POPC   C3A 4304   1.821  12.362   4.038 -0.2663  0.1693 -0.3764
  333POPC   C4A 4305   1.712  12.666   4.345  0.0454 -0.0220  0.1727
  333POPC   C1B 4306   1.255  11.124   4.024 -0.0714 -0.1632 -0.2765
  333POPC   C2B 4307   0.960  11.186   4.386 -0.1271  0.0610 -0.0315
  333POPC   C3B 4308   0.660  10.961   4.552 -0.0101  0.0835  0.2423
  333POPC   C4B 4309   0.540  10.962   4.959  0.4735  0.2716  0.0997
  334POPC   NC3 4310   1.267   7.401   3.881 -0.1552 -0.1955  0.1050
  334POPC   PO4 4311   1.363   7.716   4.023 -0.0106 -0.0751 -0.1088
  334POPC   GL1 4312   1.486   7.878   4.387 -0.3390 -0.0332 -0.1136
  334POPC   GL2 4313   1.832   7.917   4.611 -0.3701  0.5377  0.2247
  334POPC   C1A 4314   1.334   8.005   4.793 -0.3948 -0.1116  0.2618
  334POPC   D2A 4315   1.351   7.915   5.314 -0.0027  0.2424  0.0545
  334POPC   C3A 4316   1.604   8.178   5.530  0.1981 -0.0150 -0.2328
  334POPC   C4A 4317   2.035   8.234   5.815 -0.1010  0.3310  0.2072
  334POPC   C1B 4318   1.976   8.382   4.753  0.2121 -0.1875  0.0367
  334POPC   C2B 4319   1.890   8.791   4.976 -0.1375  0.1547 -0.2239
  334POPC   C3B 4320   1.660   8.960   5.285 -0.1490  0.2553 -0.1822
  334POPC   C4B 4321   1.545   9.107   5.716  0.0900  0.0249  0.2192
  335POPC   NC3 4322   1.740   5.717   4.277 -0.0384  0.3800 -0.2358
  335POPC   PO4 4323   1.535   6.014   4.402 -0.0533 -0.1501  0.1642
  335POPC   GL1 4324   1.634   5.849   4.763  0.0479  0.2602  0.0093
  335POPC   GL2 4325   1.664   6.144   4.903  0.1263 -0.0231  0.0406
  335POPC   C1A 4326   1.544   5.565   5.174 -0.1399  0.2711  0.1014
  335POPC   D2A 4327   1.575   5.260   5.530 -0.1459 -0.0161  0.0807
  335POPC   C3A 4328   1.877   5.182   5.930  0.1257 -0.0065 -0.1654
  335POPC   C4A 4329   2.018   5.050   6.375  0.2962  0.2318  0.1410
  335POPC   C1B 4330   1.689   6.424   5.249 -0.0378 -0.1794  0.0250
  335POPC   C2B 4331   1.609   6.653   5.647 -0.0513 -0.0999 -0.0670
  335POPC   C3B 4332   1.437   6.746   6.039  0.1290  0.2635 -0.0781
  335POPC   C4B 4333   1.224   6.741   6.428  0.0003  0.2546  0.0382
  336POPC   NC3 4334  10.245   3.704   3.427  0.1979  0.2790  0.0160
  336POPC   PO4 4335  10.270   3.331   3.295 -0.1154 -0.0499  0.0995
  336POPC   GL1 4336  10.498   3.102   3.593  0.0084  0.0558  0.0896
  336POPC   GL2 4337  10.210   2.925   3.751  0.0435  0.0295 -0.2275
  336POPC   C1A 4338  10.402   3.286   4.020 -0.2179 -0.2036  0.2571
  336POPC   D2A 4339  10.435   3.395   4.400 -0.0484  0.2028 -0.4551
  336POPC   C3A 4340  10.544   3.100   4.808 -0.0420 -0.2204 -0.3289
  336POPC   C4A 4341  10.787   2.817   4.980 -0.2097  0.1102  0.0221
  336POPC   C1B 4342  10.102   2.671   4.046  0.1849  0.0080  0.3278
  336POPC   C2B 4343  10.162   2.449   4.409  0.0139 -0.0016 -0.2720
  336POPC   C3B 4344   9.918   2.288   4.759 -0.0939 -0.2076 -0.2090
  336POPC   C4B 4345   9.941   2.031   5.097  0.0576 -0.1885  0.1433
  337POPC   NC3 4346   4.142   2.821   4.186 -0.3201 -0.0734 -0.0391
  337POPC   PO4 4347   4.195   3.268   4.104 -0.0743  0.1127  0.1566
  337POPC   GL1 4348   4.362   3.390   4.555  0.1962  0.1705  0.3901
  337POPC   GL2 4349   4.146   3.119   4.668  0.0432  0.1354  0.0327
  337POPC   C1A 4350   4.610   3.196   4.877  0.2063 -0.0569  0.0904
  337POPC   D2A 4351   4.931   3.337   5.228  0.0187  0.1131  0.0347
  337POPC   C3A 4352   4.785   3.319   5.651  0.1055 -0.1302  0.0048
  337POPC   C4A 4353   4.634   3.247   6.087 -0.0457 -0.1947  0.3670
  337POPC   C1B 4354   4.033   2.798   4.966 -0.0365  0.1106  0.3661
  337POPC   C2B 4355   3.778   2.693   5.362  0.2716  0.0351 -0.1139
  337POPC   C3B 4356   3.431   2.686   5.697  0.2555  0.0499 -0.1093
  337POPC   C4B 4357   3.317   2.371   6.121 -0.1421 -0.0055 -0.2476
  338POPC   NC3 4358   9.962   8.526   4.094  0.0183  0.0815 -0.1491
  338POPC   PO4 4359  10.125   8.111   4.172  0.1322  0.1373  0.3897
  338POPC   GL1 4360  10.157   7.994   4.506 -0.0284 -0.3299 -0.3449
  338POPC   GL2 4361  10.074   8.458   4.657 -0.0688  0.0651  0.0915
  338POPC   C1A 4362   9.900   8.062   4.869 -0.2590 -0.0833 -0.2462
  338POPC   D2A 4363   9.680   7.802   4.993 -0.2416  0.0869  0.1399
  338POPC   C3A 4364   9.331   7.781   5.386  0.0026  0.0416 -0.4032
  338POPC   C4A 4365   8.917   7.835   5.562 -0.3197 -0.0711  0.0672
  338POPC   C1B 4366  10.047   8.627   5.087 -0.3403  0.1271 -0.0227
  338POPC   C2B 4367   9.808   8.488   5.463  0.2566 -0.2522  0.2677
  338POPC   C3B 4368   9.833   8.191   5.912  0.0084  0.1822 -0.2318
  338POPC   C4B 4369  10.025   7.752   6.189  0.1196 -0.5415  0.3331
  339POPC   NC3 4370   5.062   4.852   4.018  0.0182 -0.0230 -0.2347
  339POPC   PO4 4371   5.325   4.578   4.242 -0.2342 -0.3314  0.0672
  339POPC   GL1 4372   5.144   4.517   4.520  0.1012 -0.0099  0.0727
  339POPC   GL2 4373   4.982   4.331   4.454  0.0105  0.0294 -0.0855
  339POPC   C1A 4374   4.986   4.579   4.917 -0.0403  0.3960 -0.2210
  339POPC   D2A 4375   4.845   4.403   5.266 -0.4382  0.0410  0.1385
  339POPC   C3A 4376   4.678   4.586   5.635  0.4763 -0.2037 -0.1901
  339POPC   C4A 4377   4.365   4.598   5.903  0.3099 -0.0906  0.0403
  339POPC   C1B 4378   4.930   4.092   4.795 -0.2212  0.1084  0.2252
  339POPC   C2B 4379   4.547   4.077   5.154 -0.0249 -0.0773 -0.2006
  339POPC   C3B 4380   4.234   4.347   5.419  0.3923  0.0846  0.0731
  339POPC   C4B 4381   3.900   4.179   5.668 -0.1368  0.2805 -0.2615
  340POPC   NC3 4382   8.532   7.537   3.970 -0.1189 -0.0647  0.0140
  340POPC   PO4 4383   8.726   7.673   4.272 -0.2909 -0.1558 -0.0626
  340POPC   GL1 4384   8.575   7.435   4.551 -0.2656 -0.2691 -0.3015
  340POPC   GL2 4385   8.740   7.323   4.724  0.1356 -0.0853  0.0422
  340POPC   C1A 4386   8.188   7.381   4.825 -0.0574  0.1779 -0.0418
  340POPC   D2A 4387   8.179   7.454   5.274  0.0040 -0.1411 -0.0526
  340POPC   C3A 4388   8.494   7.492   5.613  0.1869 -0.0694  0.0012
  340POPC   C4A 4389   8.531   7.177   5.868  0.0893  0.1950  0.2168
  340POPC   C1B 4390   8.527   7.038   5.022  0.2291 -0.2188 -0.1562
  340POPC   C2B 4391   8.417   6.934   5.485 -0.0293 -0.1286 -0.1289
  340POPC   C3B 4392   8.011   7.124   5.764  0.0087 -0.0241  0.0606
  340POPC   C4B 4393   7.729   7.502   5.871 -0.1588  0.0303  0.0298
  341POPC   NC3 4394   4.823   0.538   4.204  0.1930 -0.0655  0.1603
  341POPC   PO4 4395   4.763   0.107   4.100 -0.3841  0.1444 -0.1410
  341POPC   GL1 4396   4.566   0.188   4.544  0.0469 -0.1273  0.3913
  341POPC   GL2 4397   4.209  -0.020   4.591 -0.0706 -0.0467 -0.1767
  341POPC   C1A 4398   4.787   0.217   5.000 -0.0815 -0.0893 -0.5187
  341POPC   D2A 4399   5.038   0.296   5.432  0.0360  0.0125  0.2261
  341POPC   C3A 4400   5.413  -0.022   5.495 -0.0302  0.0413 -0.1706
  341POPC   C4A 4401   5.539  -0.308   5.678 -0.0087 -0.3950 -0.0011
  341POPC   C1B 4402   4.023   0.174   4.922  0.0513  0.5293 -0.0692
  341POPC   C2B 4403   3.944   0.021   5.312 -0.1113 -0.1466  0.0767
  341POPC   C3B 4404   3.903  -0.277   5.748 -0.1537 -0.0348  0.0651
  341POPC   C4B 4405   3.629  -0.578   5.987 -0.1795  0.2205  0.3265
  342W        W 4406   5.060   4.897  11.387 -0.1277 -0.3291  0.2481
  343W        W 4407   4.866   8.576   0.864  0.0190  0.0320 -0.1772
  344W        W 4408   9.908   1.245  11.362 -0.0620  0.3132 -0.0316
  345W        W 4409   6.949   2.845   3.789 -0.1722  0.3063  0.1477
  346W        W 4410   9.718   8.939   0.955 -0.0919 -0.1754  0.4355
  347W        W 4411   6.647   1.895   8.304  0.0524  0.0750  0.1132
  348W        W 4412  10.505   2.301  10.792 -0.1523 -0.1761  0.0457
  349W        W 4413   6.291   5.327   8.086 -0.1975  0.0810 -0.1366
  350W        W 4414   1.793   8.137   8.479  0.2685  0.0342 -0.0497
  351W        W 4415   9.469   4.308  10.463 -0.5408 -0.0728 -0.0733
  352W        W 4416   9.495   2.305   8.875  0.1632 -0.2521 -0.2947
  353W        W 4417   4.003   0.666   9.980  0.1753  0.2675  0.0162
  354W        W 4418   1.285   7.298   0.249 -0.0504  0.1345  0.1103
  355W        W 4419  10.528   6.213   8.999 -0.1651  0.1759  0.0970
  356W        W 4420   2.954  10.211   8.175  0.0165  0.0900 -0.0685
  357W        W 4421   5.381  10.252   9.571 -0.2400 -0.0541  0.3396
  358W        W 4422   9.966  10.501   7.379 -0.0466  0.2644 -0.1794
  359W        W 4423   5.341   2.678   7.640  0.1333  0.1935  0.1328
  360W        W 4424   8.568   5.228   2.774 -0.2130 -0.1123 -0.4098
  361W        W 4425   3.983   7.359   0.672 -0.0981 -0.0344  0.2592
  362W        W 4426   9.762   6.488   1.420  0.0810 -0.0811  0.0447
  363W        W 4427   9.758   3.616   3.385 -0.1164 -0.2692 -0.0952
  364W        W 4428   7.570   2.737   3.386  0.3717 -0.3237 -0.2681
  365W        W 4429   1.979   3.576   0.237  0.0954  0.3271  0.4660
  366W        W 4430   7.453   0.315   8.214 -0.0504 -0.2078 -0.0150
  367W        W 4431   5.689   4.170   4.055  0.2364 -0.2224  0.1744
  368W        W 4432   9.554   0.460   9.605 -0.0854 -0.1204 -0.3757
  369W        W 4433   5.212   6.979  10.965 -0.1569  0.4339  0.2715
  370W        W 4434   6.330   7.884   0.271  0.0224  0.2149  0.2905
  371W        W 4435   0.017   3.444  10.869  0.2491 -0.2309 -0.0607
  372W        W 4436   4.538   9.769   7.808  0.1641 -0.1216  0.4009
  373W        W 4437   7.379   1.926   2.755 -0.1137 -0.3180 -0.5198
  374W        W 4438   7.796   0.222   1.606  0.0176  0.0026 -0.1655
  375W        W 4439   5.197   9.526   0.706  0.1539  0.0807 -0.2976
  376W        W 4440   2.262   2.556   9.820  0.2429  0.0663  0.2334
  377W        W 4441   9.576   7.389   4.054  0.0576  0.2861 -0.0944
  378W        W 4442   4.456   3.951   3.228 -0.1509 -0.0164  0.2463
  379W        W 4443   0.474   1.030   0.599  0.1645  0.2329  0.0018
  380W        W 4444   2.988  10.249   2.903 -0.1795 -0.0489 -0.0638
  381W        W 4445   9.945  10.446   0.336  0.2230 -0.0701  0.1420
  382W        W 4446   3.426   9.473   3.246  0.2615  0.0988 -0.2679
  383W        W 4447  10.592   3.101  11.676 -0.0784  0.0441 -0.1767
  384W        W 4448   5.061   1.481   3.132  0.0021 -0.0883  0.1208
  385W        W 4449   6.554   7.245   3.006 -0.0848 -0.0479 -0.1465
  386W        W 4450   6.301   5.843   1.004  0.0498  0.3480 -0.1966
  387W        W 4451   2.686   5.859   7.762  0.2697 -0.1689  0.2561
  388W        W 4452   2.482   6.328   8.985 -0.1941 -0.1215  0.0647
  389W        W 4453   6.551   6.500   2.212  0.0260 -0.0325 -0.1180
  390W        W 4454   1.112   2.199   2.301 -0.1236  0.3120 -0.3584
  391W        W 4455   0.410   6.805   0.135  0.1115 -0.2434 -0.0846
  392W        W 4456   4.593   6.668  10.861 -0.1220 -0.0170 -0.2135
  393W        W 4457  10.423   9.361  10.842  0.1353 -0.0965 -0.0732
  394W        W 4458   0.907   8.400   2.177 -0.2086  0.2516  0.0770
  395W        W 4459   9.694  10.163   8.595 -0.1310  0.1380 -0.1068
  396W        W 4460   6.263   9.717   1.958  0.0556 -0.0485 -0.2785
  397W        W 4461   0.568   0.593   2.607 -0.2443  0.2501 -0.0216
  398W        W 4462   8.776   1.287  10.544 -0.1023  0.0107 -0.1360
  399W        W 4463   4.672   4.411   9.766  0.2997 -0.0894 -0.1116
  400W        W 4464   7.806   4.185   1.142 -0.1969 -0.0929  0.0856
  401W        W 4465   3.995   9.675   8.141  0.3988 -0.2267 -0.0821
  402W        W 4466   4.982   5.876   0.785 -0.2181 -0.0745  0.2009
  403W        W 4467   2.782   8.319  10.975 -0.2644  0.1251  0.0666
  404W        W 4468  10.392   4.843   9.717  0.1381  0.0475  0.1126
  405W        W 4469   7.078   8.460  10.799 -0.2890  0.3973  0.0722
  406W        W 4470   0.163   9.792   0.334  0.0075  0.4106  0.2095
  407W        W 4471   6.954   0.749   2.232 -0.2769 -0.1138  0.0647
  408W        W 4472   9.354   3.737   0.905  0.0544 -0.2070 -0.1325
  409W        W 4473   6.293   8.780   2.204 -0.3916  0.4770  0.2357
  410W        W 4474   9.516   1.485  11.088  0.0325 -0.1829  0.2873
  411W        W 4475   6.590   2.962  11.339 -0.1296 -0.0623 -0.3199
  412W        W 4476   6.004   9.109   3.509 -0.1680 -0.0226 -0.0733
  413W        W 4477   8.269   2.329  10.388  0.0624  0.4702 -0.1986
  414W        W 4478   6.032   6.573   0.404  0.0320 -0.1342 -0.0651
  415W        W 4479   2.881   5.829   9.459  0.1232  0.0830  0.0621
  416W        W 4480   6.181   4.740   2.250 -0.0255  0.1761 -0.1064
  417W        W 4481   1.612   8.505   9.170  0.0888  0.0867 -0.2779
  418W        W 4482   2.873  10.144   3.719 -0.1176  0.0397 -0.1585
  419W        W 4483   6.861   6.876   1.310  0.0124 -0.2600  0.0895
  420W        W 4484   8.629  10.072   9.482  0.2568  0.1739 -0.0721
  421W        W 4485   2.102   9.906   9.955 -0.1942  0.0612 -0.1025
  422W        W 4486   1.602   4.437   3.910  0.0337  0.1733 -0.0700
  423W        W 4487  10.353   4.348   0.213  0.0004  0.3035  0.0615
  424W        W 4488   5.179   5.193   1.899 -0.1553 -0.0924  0.1577
  425W        W 4489  10.284   0.209  10.334  0.1340  0.1777 -0.1185
  426W        W 4490   4.280   8.682  10.807 -0.3660 -0.0037  0.0882
  427W        W 4491   0.596   1.638   1.916  0.3849 -0.1420  0.0805
  428W        W 4492   9.644   9.178   2.127 -0.0976  0.2571 -0.5725
  429W        W 4493   2.941   5.565   8.475  0.1133 -0.0074 -0.3153
  430W        W 4494   9.770   4.524   1.449  0.0684  0.2501 -0.2634
  431W        W 4495   7.790   3.290   1.371  0.2088 -0.1115 -0.1416
  432W        W 4496   5.032   0.977   2.937 -0.1776 -0.2263  0.0270
  433W        W 4497   9.203   1.103   2.219  0.1629  0.1890  0.0920
  434W        W 4498   7.035   9.734   8.120  0.1999 -0.0143 -0.1321
  435W        W 4499   5.545   6.649   9.820  0.0344 -0.0206  0.0937
  436W        W 4500   4.375   3.643   2.693 -0.3199  0.2530  0.2393
  437W        W 4501   8.869  10.170   2.251 -0.1530  0.1865  0.2092
  438W        W 4502   8.156   0.990   1.907  0.0339 -0.0444  0.0722
  439W        W 4503   4.902   8.126   3.698  0.0626 -0.1386  0.0379
  440W        W 4504  10.244   3.500  11.582  0.0570  0.5228  0.1227
  441W        W 4505   4.953   0.575   8.595  0.0026  0.3019  0.0870
  442W        W 4506   1.406   5.365   3.957 -0.1951 -0.3025  0.0676
  443W        W 4507   4.519   4.992   0.877 -0.2651  0.0103  0.1191
  444W        W 4508   0.918   8.381  10.090  0.0956  0.0512 -0.0185
  445W        W 4509   1.848   4.714  10.437 -0.1791 -0.0609  0.0579
  446W        W 4510   8.758   6.968  10.504 -0.1744 -0.0982  0.1213
  447W        W 4511   1.705   0.347   1.177 -0.1734 -0.1423 -0.1681
  448W        W 4512   1.185   5.609   2.651 -0.0001  0.1649 -0.3412
  449W        W 4513   7.037   4.780  10.986  0.1243 -0.1000 -0.2334
  450W        W 4514   5.908   0.693   9.386  0.0031 -0.2111  0.0816
  451W        W 4515   9.864   2.250   9.667  0.0712 -0.1843 -0.0058
  452W        W 4516   1.413   7.295   9.162 -0.5198 -0.2071 -0.0756
  453W        W 4517   4.597   9.864  11.163  0.1541 -0.0277  0.0483
  454W        W 4518   4.869   9.458   9.489  0.1219 -0.0670  0.1239
  455W        W 4519   6.311   7.876   1.198 -0.1859  0.1121 -0.0246
  456W        W 4520   3.440   3.658   2.667 -0.1271  0.1526  0.1407
  457W        W 4521   5.631   2.071   9.859 -0.1764  0.0122  0.0451
  458W        W 4522   5.667   2.416   9.423 -0.2355 -0.0160 -0.0421
  459W        W 4523   5.163   0.544  10.753  0.2415  0.2591  0.3599
  460W        W 4524   5.874   2.437   1.643 -0.0022 -0.1820 -0.0463
  461W        W 4525   6.769   3.036   3.367 -0.0326 -0.0917  0.0118
  462W        W 4526   5.429   2.924   3.879  0.1080 -0.0699 -0.1967
  463W        W 4527   6.928   6.438   2.587  0.0757  0.0187  0.0297
  464W        W 4528   1.853   6.471   0.176  0.3025  0.0407 -0.2478
  465W        W 4529   7.345   6.922   1.270 -0.3105  0.0823  0.2766
  466W        W 4530   2.959   4.706   2.623 -0.0196  0.0112  0.1636
  467W        W 4531   9.474   9.400   9.352  0.1857  0.1215 -0.4616
  468W        W 4532   3.021   2.256   0.474 -0.6481 -0.2092 -0.0275
  469W        W 4533   1.093  10.548   2.824  0.0361 -0.1469  0.0232
  470W        W 4534  10.252   3.511   1.612 -0.0859  0.0179 -0.1887
  471W        W 4535   1.867   2.144   1.262 -0.0958 -0.0478  0.0794
  472W        W 4536   3.940   6.901  11.083 -0.1285 -0.0459  0.0448
  473W        W 4537   7.921   8.630   8.209 -0.1387 -0.0207 -0.0424
  474W        W 4538   0.425   6.402   9.259  0.0449 -0.0337 -0.2891
  475W        W 4539   4.633   3.378  10.625  0.2539  0.0117  0.0037
  476W        W 4540   0.655   4.492   2.773 -0.2782  0.0142 -0.1375
  477W        W 4541   8.318   5.776   8.980 -0.0820 -0.3094  0.2228
  478W        W 4542   0.910   5.496  11.424  0.1527  0.3008  0.0860
  479W        W 4543  10.494  10.197  10.991 -0.2196  0.1437 -0.0412
  480W        W 4544   9.953   6.295   1.833  0.1741  0.1824 -0.0759
  481W        W 4545   4.410   8.941   1.973 -0.0508  0.1000 -0.3346
  482W        W 4546   5.846   0.589  10.119 -0.1459  0.3446  0.2516
  483W        W 4547   7.068   5.050   8.144 -0.0349 -0.2048  0.2964
  484W        W 4548   9.827   7.370   2.486  0.1363 -0.0343  0.1247
  485W        W 4549   8.864   3.853   0.977  0.1407 -0.0859 -0.1680
  486W        W 4550   0.697   7.200   9.941  0.1343 -0.1703  0.0660
  487W        W 4551  10.378   6.710   1.320  0.1184 -0.0009  0.1133
  488W        W 4552   3.024   5.200   2.770 -0.2774 -0.1209 -0.0124
  489W        W 4553  10.001   5.511   7.940 -0.1214  0.1151  0.2719
  490W        W 4554   0.559   1.578   8.987 -0.4919  0.1040 -0.0186
  491W        W 4555   4.880   9.103   1.876  0.0367 -0.2441 -0.0259
  492W        W 4556  10.242   2.285   2.970 -0.2492  0.0525  0.0609
  493W        W 4557   2.016   8.106   7.355  0.2697 -0.2841 -0.2069
  494W        W 4558   9.600   1.096   8.291 -0.1650  0.2794  0.0158
  495W        W 4559   5.178   4.832   3.085  0.1035  0.0542  0.1302
  496W        W 4560   7.936   9.551   2.765 -0.1284 -0.2319  0.1549
  497W        W 4561   9.494   6.683   1.763  0.1019  0.1333 -0.0522
  498W        W 4562   1.510   0.739   2.840 -0.0141  0.1868  0.1458
  499W        W 4563   4.937   9.564   8.896  0.2125 -0.1863  0.2202
  500W        W 4564   0.927   0.838   2.349  0.2588  0.2243 -0.1010
  501W        W 4565   6.363   6.846   0.049  0.1099 -0.0212 -0.0400
  502W        W 4566   8.062   7.627  11.528 -0.3606  0.1679 -0.0275
  503W        W 4567   9.014   2.346   0.318  0.1452 -0.1511  0.0028
  504W        W 4568   1.425   5.770  11.198  0.0199 -0.1476  0.1205
  505W        W 4569   1.669   7.079  10.476 -0.2193  0.1165  0.0693
  506W        W 4570   9.859   9.909   3.312  0.0238 -0.2632  0.0642
  507W        W 4571   6.559   5.325   0.757  0.1301  0.2742  0.0243
  508W        W 4572   9.724   5.344   0.304  0.1179 -0.1315 -0.0704
  509W        W 4573   4.815  10.402  11.150  0.0709 -0.2164  0.1085
  510W        W 4574   0.249   1.776   8.628  0.0098 -0.2801  0.2961
  511W        W 4575   7.348   4.261   1.396 -0.3424  0.0956 -0.1600
  512W        W 4576   8.241   5.638  10.618  0.3759  0.0451 -0.3998
  513W        W 4577  10.285   2.856   8.619  0.0276  0.0778 -0.0473
  514W        W 4578   9.179   8.904   0.722  0.1245  0.1122  0.1039
  515W        W 4579   6.750   7.132   9.366  0.0945 -0.0405 -0.1384
  516W        W 4580  10.165   6.818   9.323  0.1248  0.3591  0.1359
  517W        W 4581   9.082   5.968   2.397  0.1572 -0.1042 -0.1049
  518W        W 4582   5.075   0.860   1.774  0.1292  0.2428  0.1785
  519W        W 4583   8.125   1.416   3.258 -0.0613 -0.3174 -0.2266
  520W        W 4584   0.240   0.999  10.907  0.1400 -0.2364 -0.1229
  521W        W 4585  10.313   1.202   1.695 -0.0890  0.2409 -0.0779
  522W        W 4586   8.506   0.147  10.214  0.2262  0.1329  0.0551
  523W        W 4587   0.343   6.649   0.629 -0.2136  0.2462 -0.0081
  524W        W 4588   5.217   7.763   2.822 -0.2227 -0.3141  0.2793
  525W        W 4589   1.179   8.148   3.266 -0.2551  0.2838  0.0004
  526W        W 4590   6.308   9.130   0.254 -0.0392 -0.1878 -0.1033
  527W        W 4591   6.777   7.035   8.630 -0.3599  0.1877  0.2135
  528W        W 4592   2.921  10.383   4.319 -0.3389  0.0986 -0.0368
  529W        W 4593   3.904   0.209  10.199  0.0334 -0.1187 -0.0302
  530W        W 4594   8.451   3.724   0.680  0.1727 -0.0463  0.1218
  531W        W 4595   3.162   1.336   9.792  0.0751  0.0481  0.1286
  532W        W 4596   3.597   2.989   1.114  0.0046 -0.2315 -0.0316
  533W        W 4597   3.048   9.765   9.871 -0.4963 -0.2009  0.2014
  534W        W 4598   0.917   7.851  11.297  0.2312 -0.0563  0.3915
  535W        W 4599   8.822   0.133   8.292  0.0204  0.1122  0.0059
  536W        W 4600   7.899   6.781   9.253  0.1220  0.1786 -0.2425
  537W        W 4601   9.705   5.724   1.887  0.0200  0.2984 -0.0249
  538W        W 4602   4.052   1.953   4.355 -0.2479  0.2241  0.1523
  539W        W 4603   8.140   5.652   8.548  0.0207  0.0630  0.2691
  540W        W 4604   5.544   6.910   0.650  0.2788 -0.3354  0.3459
  541W        W 4605   3.037   6.936   8.577  0.2663 -0.1342  0.0134
  542W        W 4606   6.788   8.077   9.145 -0.0385  0.1167 -0.3240
  543W        W 4607   9.937  10.257   9.771 -0.2136  0.0610  0.2033
  544W        W 4608   5.542   4.983  11.008  0.3165 -0.0390  0.1651
  545W        W 4609   0.598   1.199   3.588  0.2406  0.1312  0.2078
  546W        W 4610   0.919   5.789   0.649 -0.0742 -0.0327  0.1010
  547W        W 4611   2.635   3.879   1.265  0.0323 -0.2699  0.2021
  548W        W 4612   0.524   6.982   3.004 -0.1847  0.1199 -0.3978
  549W        W 4613   6.098   5.609   2.368 -0.0668  0.0920  0.0092
  550W        W 4614   2.129   0.630   0.442  0.1675 -0.3707  0.1578
  551W        W 4615   4.513   2.761   2.797  0.1338 -0.3031  0.2480
  552W        W 4616   4.895   6.240   9.076  0.1028 -0.2629 -0.4701
  553W        W 4617   6.308   8.032   1.731  0.0582 -0.0084  0.4545
  554W        W 4618   9.060   4.027   3.022  0.0233  0.1096  0.1130
  555W        W 4619   8.904   6.819   9.344 -0.0969  0.1538  0.2713
  556W        W 4620   5.769   6.972   2.321  0.0027 -0.2254  0.1200
  557W        W 4621   7.730   9.032  10.822 -0.0533  0.0731  0.1357
  558W        W 4622   1.963   1.073   1.370 -0.1040  0.3288 -0.1897
  559W        W 4623   2.269   9.806   0.360 -0.0724 -0.0951 -0.0925
  560W        W 4624   2.530   2.234   9.030  0.1179 -0.0496 -0.0209
  561W        W 4625   0.155   7.033   0.867  0.0811  0.0477  0.0006
  562W        W 4626   2.727   2.980  10.293 -0.1958 -0.0033  0.0171
  563W        W 4627   0.455   4.878   8.575 -0.2530 -0.0651  0.2372
  564W        W 4628   7.363   7.781  10.229 -0.0903  0.2001  0.0005
  565W        W 4629   7.564   9.701   0.925  0.0929  0.2192  0.0373
  566W        W 4630   7.155   7.381  11.381 -0.0887 -0.1335  0.0702
  567W        W 4631   5.767   2.859   9.551  0.5494  0.3267 -0.0186
  568W        W 4632   6.331   8.010   3.316  0.1854 -0.1397  0.0884
  569W        W 4633   2.518  10.552   1.549 -0.3094 -0.2160  0.2416
  570W        W 4634   8.817   4.702   3.729 -0.2102 -0.5284 -0.0438
  571W        W 4635   0.087   8.986   7.182  0.0831  0.2256  0.1841
  572W        W 4636   6.188   5.008  10.850 -0.1835  0.2050 -0.2199
  573W        W 4637   6.239   0.001  11.656  0.0098  0.0378 -0.0505
  574W        W 4638   9.159   9.174  11.541 -0.0504  0.0875  0.3776
  575W        W 4639   3.826   9.431  11.207  0.0185 -0.2728  0.1973
  576W        W 4640   5.699   4.371   9.198 -0.0606 -0.2519  0.0104
  577W        W 4641   4.767   0.093  10.228  0.1741 -0.1138  0.0682
  578W        W 4642   8.104   0.686   0.446  0.0296 -0.1125 -0.1515
  579W        W 4643   5.417   0.454   9.586  0.2072  0.1215  0.5658
  580W        W 4644   7.319   1.815   3.263  0.2355  0.0935  0.1534
  581W        W 4645   7.503   2.675   8.592 -0.0420 -0.2028  0.1782
  582W        W 4646   5.415   3.588   8.222  0.0416  0.1333  0.1718
  583W        W 4647   9.462  10.495   2.872 -0.2305 -0.0871  0.1565
  584W        W 4648   1.151   1.589  10.345  0.3031 -0.1837 -0.2493
  585W        W 4649   8.294   3.221   0.766  0.1988  0.1294 -0.1206
  586W        W 4650  10.310   7.290   1.679 -0.0741  0.3703  0.1334
  587W        W 4651   1.561  10.203   4.182 -0.3838 -0.2965 -0.0329
  588W        W 4652   9.976   9.618  10.618 -0.0620 -0.2069 -0.0177
  589W        W 4653   5.541   1.683   1.349 -0.0993  0.0875 -0.0916
  590W        W 4654   5.432   3.961  10.257  0.2147 -0.0133 -0.0493
  591W        W 4655   7.673   2.128   9.245  0.2784  0.4380 -0.0489
  592W        W 4656   4.410   3.091  11.024 -0.1643  0.1957 -0.0116
  593W        W 4657   3.610   5.834   2.667  0.1566 -0.2474  0.0624
  594W        W 4658   7.448   3.454   0.548  0.2262 -0.2981 -0.0395
  595W        W 4659   8.834   4.656   0.342  0.0040  0.1187 -0.2936
  596W        W 4660   1.774   7.753   9.297  0.2219  0.1249 -0.0609
  597W        W 4661  10.099   9.465   0.343  0.2778  0.0260  0.0848
  598W        W 4662   3.142   3.233  10.403  0.0821  0.0050  0.0765
  599W        W 4663   5.598   1.576   3.074 -0.0889 -0.1747  0.3895
  600W        W 4664   8.420   5.592   3.297  0.2069  0.0833  0.0236
  601W        W 4665   7.025   9.549   9.093 -0.0487  0.1846  0.0981
  602W        W 4666   2.043   2.039   9.074 -0.1692 -0.1282 -0.1356
  603W        W 4667   5.901   2.848   8.607  0.2201  0.1849 -0.1203
  604W        W 4668   4.593   1.085   8.432  0.0787 -0.1742  0.2256
  605W        W 4669   0.777   4.881   8.956  0.0208 -0.4688 -0.3695
  606W        W 4670   8.035   1.433   2.205  0.5035 -0.1345 -0.0177
  607W        W 4671   9.184   4.898  11.207  0.1457  0.2654  0.2059
  608W        W 4672   5.463   0.214   0.618  0.2605 -0.0645  0.2411
  609W        W 4673   3.525   7.156   7.832  0.0707 -0.2250  0.2921
  610W        W 4674   6.113  10.218   3.863 -0.1701 -0.0547 -0.2658
  611W        W 4675   3.359   3.097   1.844 -0.0254  0.0547 -0.2097
  612W        W 4676   2.548   9.954   8.461 -0.1859 -0.2261  0.3037
  613W        W 4677   1.031  10.315   0.251 -0.3250 -0.1439 -0.4166
  614W        W 4678   6.454   2.941  10.733  0.0405 -0.0898  0.0080
  615W        W 4679  10.273   6.551  11.562  0.2013 -0.2773  0.2717
  616W        W 4680   3.175   2.516   0.985  0.1915 -0.0761  0.0920
  617W        W 4681   1.666   1.923   0.547  0.1121 -0.0874 -0.1643
  618W        W 4682   0.722   5.586   2.312 -0.1923  0.3966 -0.0501
  619W        W 4683   1.181   6.037  11.526 -0.0433 -0.2000  0.2452
  620W        W 4684   1.499   4.389   1.579 -0.0713 -0.1367 -0.0278
  621W        W 4685   9.736   3.476  10.291 -0.2902  0.1645 -0.0479
  622W        W 4686   1.707   1.996  10.316  0.3583 -0.0685  0.3101
  623W        W 4687   5.224   4.326   7.896  0.2267 -0.0598 -0.1741
  624W        W 4688   4.131   4.661   1.969  0.0482  0.0217  0.0564
  625W        W 4689   7.343   0.426   1.311  0.2780  0.1731 -0.2144
  626W        W 4690   1.443   0.109   3.933  0.0175  0.0942 -0.1189
  627W        W 4691   0.103   0.961   9.061 -0.1985  0.3480  0.1069
  628W        W 4692   6.246   1.415   9.994  0.0850 -0.2018  0.0347
  629W        W 4693  10.384   3.555   7.904 -0.2288  0.2157  0.1068
  630W        W 4694   0.225   8.576   7.428  0.0738 -0.1885 -0.0910
  631W        W 4695   5.525   8.155   9.664 -0.0716 -0.2659  0.2245
  632W        W 4696   8.223   0.863   0.939  0.1178  0.3984 -0.3281
  633W        W 4697   8.287   0.671   2.836 -0.2735 -0.1627  0.0383
  634W        W 4698   1.525   8.846   0.646 -0.0280 -0.1328  0.0332
  635W        W 4699  10.408   2.467   9.910  0.2014 -0.1970 -0.0581
  636W        W 4700   4.797   4.181   0.778 -0.1334 -0.2278  0.0873
  637W        W 4701   7.204   7.709   2.715 -0.1796  0.0320 -0.0171
  638W        W 4702   5.170   4.498  11.668  0.1129 -0.0653 -0.2571
  639W        W 4703   5.175   2.651   1.635 -0.0731  0.5754  0.3775
  640W        W 4704   6.528   5.042   9.178  0.0056 -0.1458  0.0732
  641W        W 4705  10.428   4.005   1.620  0.0594 -0.1753  0.0634
  642W        W 4706   5.719   5.018   1.449 -0.0841 -0.4671 -0.0470
  643W        W 4707   0.864   9.621   9.841  0.1332  0.2522  0.1754
  644W        W 4708   8.486   8.128  10.977 -0.0744  0.2017  0.0010
  645W        W 4709   5.773   7.116   8.886  0.1702  0.1222 -0.1399
  646W        W 4710   8.933   7.168  10.997  0.0238 -0.0034 -0.0554
  647W        W 4711   7.957   4.535   3.295 -0.0952  0.0911 -0.1519
  648W        W 4712   0.065   6.179   4.081 -0.1333 -0.3269 -0.0937
  649W        W 4713   3.097   3.974   2.848 -0.1301 -0.1429 -0.1346
  650W        W 4714   0.592   9.749   9.118 -0.1172  0.2772  0.2231
  651W        W 4715   7.379   2.562   1.963  0.0505 -0.0300  0.2361
  652W        W 4716   9.882   4.067   1.657  0.0784 -0.2349  0.0766
  653W        W 4717   6.382   0.704   8.591  0.0738  0.0682  0.1568
  654W        W 4718   6.385   0.707   3.236 -0.2147  0.0677 -0.2665
  655W        W 4719   2.212   9.377  10.202  0.3431  0.0071 -0.0161
  656W        W 4720   2.928   6.162   9.117 -0.2873 -0.0515  0.0523
  657W        W 4721   2.822   0.707   2.895 -0.0451  0.2273  0.0172
  658W        W 4722  10.497   9.561   8.283 -0.2095 -0.1896 -0.0061
  659W        W 4723   4.561   1.896   3.799  0.1689 -0.0879 -0.0693
  660W        W 4724   8.242   0.739   2.348  0.0019 -0.2390 -0.0332
  661W        W 4725   6.026   3.002   2.622  0.0923 -0.0297  0.1345
  662W        W 4726   5.337   4.366  10.531 -0.0884  0.2965  0.2462
  663W        W 4727   3.127   8.827  10.875 -0.3666 -0.1149  0.1333
  664W        W 4728   0.187   6.122   0.588  0.0586  0.0499 -0.3863
  665W        W 4729   1.712   4.099  10.533  0.0576  0.1904  0.1267
  666W        W 4730   4.018   5.764   4.227 -0.2425  0.3030 -0.0919
  667W        W 4731   4.934   5.723   0.316 -0.0513  0.1051  0.0936
  668W        W 4732   3.808   5.651   0.731  0.0236 -0.2462 -0.1806
  669W        W 4733   7.498   2.252  11.098  0.1032 -0.0076 -0.1320
  670W        W 4734   9.101   4.246   0.878  0.0300 -0.2666 -0.2104
  671W        W 4735   9.687   4.052   2.278  0.3279  0.0980 -0.1722
  672W        W 4736   8.331   7.685   1.663 -0.1721  0.1530 -0.4107
  673W        W 4737   7.101   4.826   3.199 -0.0009 -0.1018 -0.0265
  674W        W 4738   4.242   1.723   1.999  0.2572 -0.1740 -0.0023
  675W        W 4739   0.704   3.506   2.336  0.0523  0.1200 -0.0398
  676W        W 4740   7.352   7.987   8.407  0.2543  0.1152  0.1181
  677W        W 4741   1.243   3.362   1.022 -0.0506 -0.3139  0.0034
  678W        W 4742   0.261   1.015   9.954 -0.1179 -0.1480 -0.1771
  679W        W 4743   8.201   2.172   0.358  0.1949 -0.0265  0.0571
  680W        W 4744   6.374   8.282   0.857  0.1716 -0.4242 -0.2207
  681W        W 4745  10.422   2.892   3.108  0.4558  0.0179 -0.1788
  682W        W 4746   1.819   8.975  10.071 -0.3031 -0.3499  0.2338
  683W        W 4747   3.198   3.672   3.706  0.0959 -0.1168  0.1247
  684W        W 4748  10.043   5.496   9.070 -0.2256 -0.0535 -0.0019
  685W        W 4749   2.092   3.708   9.762 -0.1087  0.3617  0.1201
  686W        W 4750   5.149   5.293   8.748 -0.2832  0.1733  0.2219
  687W        W 4751   6.617   7.936   8.157 -0.1468 -0.1521 -0.2806
  688W        W 4752   4.228   1.232   0.816  0.2356 -0.0902 -0.0133
  689W        W 4753   4.066   7.480   1.177  0.2046 -0.1772 -0.0345
  690W        W 4754   2.917   2.049  10.320  0.0393  0.1731 -0.3886
  691W        W 4755   7.101   0.244   0.852  0.2528 -0.0050  0.1172
  692W        W 4756   5.177   0.094   9.305  0.1405 -0.0090 -0.2479
  693W        W 4757   5.038   5.906   7.642  0.1274 -0.2712 -0.0298
  694W        W 4758   5.294   5.321   0.356 -0.2250  0.1592 -0.4345
  695W        W 4759   2.058   6.700  11.254  0.0712 -0.0467  0.0384
  696W        W 4760   2.347   1.300   9.299 -0.1736  0.1995 -0.3116
  697W        W 4761   8.218   6.834  11.001 -0.1809  0.2316  0.3887
  698W        W 4762   1.957   8.260   9.514 -0.3217 -0.2616  0.1797
  699W        W 4763   2.629   5.652   2.385  0.0394  0.2319  0.0876
  700W        W 4764   5.401   8.158   0.094 -0.1628 -0.0015 -0.2200
  701W        W 4765   1.915   4.711   4.266  0.2874  0.1586  0.0875
  702W        W 4766   7.057   5.547   4.538  0.1440 -0.4835  0.4780
  703W        W 4767   3.646   4.004  10.451 -0.0896  0.2122 -0.0528
  704W        W 4768   3.544   7.036   2.290  0.0517 -0.0428  0.1799
  705W        W 4769   4.073   9.145   2.581  0.0760 -0.2316 -0.0981
  706W        W 4770   5.832   2.845   3.239 -0.0337 -0.2420 -0.1841
  707W        W 4771   2.206   5.813   4.110  0.2712 -0.0429  0.1176
  708W        W 4772   8.000   9.015   0.662 -0.0031  0.1717 -0.1293
  709W        W 4773   4.194   2.134  11.086  0.1813  0.1099 -0.1405
  710W        W 4774   4.464   6.979   1.044 -0.1057  0.2893 -0.0491
  711W        W 4775   4.635   6.189  11.232 -0.0747 -0.3003 -0.0823
  712W        W 4776   8.446   7.926   8.315 -0.0654 -0.0841 -0.2424
  713W        W 4777   4.636   8.843   2.398  0.0665  0.0519  0.0695
  714W        W 4778   7.904   7.390   1.482 -0.0237 -0.0239 -0.2451
  715W        W 4779   9.548   0.038   2.109 -0.0436 -0.0167 -0.1840
  716W        W 4780   7.043   7.233   2.700  0.0535 -0.1637 -0.6167
  717W        W 4781   6.423   4.297  11.425  0.0758 -0.0727 -0.2955
  718W        W 4782   0.448   5.938  10.722 -0.0932 -0.1566  0.0679
  719W        W 4783   1.427  10.581   9.417 -0.0958  0.0136  0.1007
  720W        W 4784   5.684   2.829   8.141  0.0866  0.2816  0.2106
  721W        W 4785  10.274   5.248   3.476  0.2997 -0.1914  0.2949
  722W        W 4786  10.445   4.607   9.247  0.2451 -0.0745 -0.2181
  723W        W 4787   6.933   5.277   3.899 -0.2002 -0.2031 -0.2595
  724W        W 4788   6.753   8.627   0.934 -0.1126  0.0950 -0.1175
  725W        W 4789   6.547   1.044  10.965  0.1401 -0.2895  0.0175
  726W        W 4790   6.064   2.604   0.438 -0.2434 -0.4326  0.1369
  727W        W 4791  10.546   1.224   2.466 -0.2895 -0.0784 -0.0822
  728W        W 4792  10.550   9.167   2.518 -0.1794  0.1992 -0.2835
  729W        W 4793   0.155   5.602   8.354 -0.5293 -0.1472  0.2483
  730W        W 4794   6.578  10.325   0.178  0.1575  0.1556  0.3869
  731W        W 4795   3.758   6.189   0.759  0.0403  0.2123  0.2235
  732W        W 4796   7.523   4.206   9.384  0.1123 -0.0825 -0.2104
  733W        W 4797  10.545   8.121   7.255 -0.0175 -0.0380  0.0692
  734W        W 4798   5.626   2.994   0.980  0.1012 -0.0271  0.3574
  735W        W 4799   7.967   0.349   4.061 -0.2196 -0.2330 -0.1736
  736W        W 4800   2.532   8.291   3.364 -0.1010  0.1035  0.0117
  737W        W 4801   6.268   3.684  10.259  0.1760 -0.2653 -0.2303
  738W        W 4802   3.049   7.800   8.320 -0.1118  0.0405 -0.1117
  739W        W 4803   2.914   8.554   3.317 -0.0870 -0.0072  0.0252
  740W        W 4804   5.117   1.697   2.269 -0.1119 -0.0821  0.1025
  741W        W 4805   0.165   5.372   0.004 -0.0696  0.0417 -0.2269
  742W        W 4806   5.897   6.408   9.586  0.4345  0.0475 -0.2422
  743W        W 4807   1.857   8.951   3.723 -0.0982  0.2342 -0.0625
  744W        W 4808   9.138   4.399   3.374 -0.0819  0.1189  0.2101
  745W        W 4809   6.622   4.602   1.517  0.3330  0.0643  0.0553
  746W        W 4810   6.135   5.767  10.699 -0.1147 -0.0025  0.2209
  747W        W 4811   6.061   9.770  11.295  0.2165 -0.0840  0.0985
  748W        W 4812   8.066   0.258   9.202 -0.0248 -0.0728 -0.1295
  749W        W 4813   8.696   5.791   1.381 -0.2165  0.0259 -0.1771
  750W        W 4814   2.871   5.371   1.992  0.0815  0.1569  0.0925
  751W        W 4815   4.418   7.206   0.496  0.0168 -0.1219  0.0438
  752W        W 4816   2.100   6.729   9.945 -0.1462 -0.3200  0.4696
  753W        W 4817   9.820   2.633   0.310  0.0273  0.0178 -0.0628
  754W        W 4818   1.671   5.134  10.595 -0.0396 -0.0365  0.1848
  755W        W 4819   7.905  10.198  10.128 -0.0071 -0.0630 -0.1621
  756W        W 4820   8.919   5.307   2.109  0.4336 -0.0875 -0.1852
  757W        W 4821   6.137   1.956   9.914 -0.3359  0.0301  0.3728
  758W        W 4822   9.227   3.784   4.182  0.0573 -0.1774  0.0546
  759W        W 4823   4.638   3.065   2.408 -0.1207  0.0910 -0.0083
  760W        W 4824   2.855   0.430  10.823 -0.1053  0.1843  0.0636
  761W        W 4825   7.997   5.432   1.965 -0.1190 -0.1436 -0.1601
  762W        W 4826   2.696   5.834   4.407  0.2688 -0.0348  0.2083
  763W        W 4827   5.634   7.687   9.718 -0.2640  0.1992  0.1589
  764W        W 4828   9.526   3.501   1.616 -0.1903  0.0628 -0.1208
  765W        W 4829   9.375   3.203   8.059 -0.0377 -0.5695 -0.3161
  766W        W 4830   7.776   9.771   0.455 -0.2747 -0.1490  0.2409
  767W        W 4831   7.736   3.777   0.324  0.0167 -0.0370 -0.2152
  768W        W 4832   7.800   3.089  10.491  0.1579 -0.0402 -0.1386
  769W        W 4833   9.165   2.486   9.355 -0.0684 -0.3011  0.1895
  770W        W 4834   8.319   7.824  10.060 -0.3649 -0.0547  0.1193
  771W        W 4835   3.826   8.964   0.629  0.0555 -0.1538  0.1166
  772W        W 4836   5.124   8.907  10.388 -0.0943  0.0326 -0.1449
  773W        W 4837   9.992   5.845   1.087  0.0412  0.2639  0.1573
  774W        W 4838   9.305   0.587  10.875  0.0559 -0.2393 -0.1983
  775W        W 4839   1.272  10.467  11.203  0.0440  0.0588  0.3644
  776W        W 4840   1.279   2.676   8.991  0.0726  0.0034  0.0175
  777W        W 4841   1.208   5.958   3.362 -0.0575 -0.0367  0.0769
  778W        W 4842   1.616   9.655  10.239  0.5456  0.0391 -0.1555
  779W        W 4843   8.192   6.105   2.078  0.0029 -0.5070 -0.0052
  780W        W 4844   4.562   1.862   9.294  0.2291  0.3289 -0.0814
  781W        W 4845   3.352   4.921   2.967 -0.0285  0.2671  0.1974
  782W        W 4846  10.074   9.988   1.066 -0.2600  0.5065  0.2208
  783W        W 4847   9.445   2.613   9.818 -0.4083  0.0784 -0.3293
  784W        W 4848   7.382   2.638  10.309 -0.0983  0.2666 -0.2288
  785W        W 4849  10.154   7.711   1.496 -0.1413  0.2487  0.1556
  786W        W 4850   7.177   6.177  10.466 -0.0660 -0.3060 -0.0898
  787W        W 4851   4.053   5.933   1.094  0.0022 -0.1922 -0.2696
  788W        W 4852   3.232   3.727   0.035  0.3803  0.1079  0.1098
  789W        W 4853   4.316   3.679  10.893 -0.1138 -0.0441  0.2621
  790W        W 4854   8.560   4.212   3.660  0.0146 -0.0650 -0.0987
  791W        W 4855   4.085   9.116   4.485  0.3519 -0.0073  0.2017
  792W        W 4856   6.345   8.376   3.703  0.1424 -0.0912 -0.2956
  793W        W 4857   7.938   4.515   9.402 -0.3472  0.0890 -0.2254
  794W        W 4858   1.479   1.517   2.101  0.3695 -0.0121 -0.2825
  795W        W 4859   8.408   5.570   9.740 -0.0634  0.3375 -0.5554
  796W        W 4860   2.729   8.683   9.750  0.0215  0.4729 -0.3052
  797W        W 4861   9.928   8.681   0.142 -0.1496 -0.0338  0.1590
  798W        W 4862  10.019   5.574  11.046  0.1526  0.0336  0.1408
  799W        W 4863   5.461   1.900   1.971 -0.2251  0.0561 -0.0205
  800W        W 4864   7.878   1.074   2.710 -0.2040 -0.0941  0.1396
  801W        W 4865   4.922   4.829   9.574  0.1771 -0.0195 -0.2559
  802W        W 4866   3.740   2.020   3.323 -0.3257 -0.0612 -0.0840
  803W        W 4867   3.220   6.842   1.940  0.0117 -0.5509 -0.4278
  804W        W 4868   8.731   8.106   0.473  0.1315 -0.1547 -0.1457
  805W        W 4869   0.087   3.973   1.199  0.2818 -0.0960  0.5514
  806W        W 4870   1.043   6.909   8.360 -0.0439 -0.0251  0.0326
  807W        W 4871   9.307  10.166  11.305  0.1426  0.2939 -0.1804
  808W        W 4872  10.450   5.238  11.270  0.3279 -0.2878 -0.1898
  809W        W 4873   7.878   2.620   2.855 -0.0567  0.0108  0.0982
  810W        W 4874   7.234   0.782   8.305  0.0638  0.3173 -0.0462
  811W        W 4875  10.242   7.845   7.598 -0.5682 -0.1177  0.1214
  812W        W 4876   1.780   8.584   4.395 -0.0516  0.0033  0.0241
  813W        W 4877   3.590   5.166   1.192  0.0616  0.1242  0.1903
  814W        W 4878   8.675   7.545   0.029  0.1368 -0.0646 -0.2268
  815W        W 4879   2.380   6.331   3.991 -0.0284 -0.1663 -0.3018
  816W        W 4880   8.778   0.586  10.037 -0.1332 -0.2033 -0.1899
  817W        W 4881   6.878   5.790   4.082 -0.0279  0.1437 -0.0774
  818W        W 4882   5.935   7.857   0.699 -0.2624  0.0207  0.2195
  819W        W 4883   8.348   4.877   0.960  0.0031  0.3262 -0.0955
  820W        W 4884   7.009   7.083   7.998 -0.3284  0.1229 -0.4255
  821W        W 4885   4.675   9.657   3.880  0.2412  0.1668 -0.0584
  822W        W 4886   4.045   5.903  10.168  0.1146  0.0259  0.1130
  823W        W 4887   7.258   4.172  11.036  0.1673  0.1694 -0.3074
  824W        W 4888   5.755   3.333   3.208 -0.4250  0.0163 -0.4222
  825W        W 4889   5.951   6.858  11.497  0.2525 -0.2982  0.2209
  826W        W 4890  10.257   8.815   2.878 -0.3697 -0.1951  0.3898
  827W        W 4891   3.704   0.289   1.837  0.1037 -0.1082 -0.3696
  828W        W 4892   6.235   0.650   0.993 -0.0543 -0.0344  0.1652
  829W        W 4893   3.149   5.708   2.460  0.3309 -0.1516 -0.0177
  830W        W 4894   4.725   5.586   8.450  0.3188 -0.2772  0.3966
  831W        W 4895   1.793   4.766   1.864 -0.1292 -0.0769 -0.0343
  832W        W 4896   3.076   8.560   0.684  0.3338  0.1158  0.0501
  833W        W 4897   2.653   9.935   2.144  0.1831 -0.3371  0.1176
  834W        W 4898   5.572   8.993   3.281 -0.1313  0.0179 -0.2322
  835W        W 4899   5.891   6.741   3.564 -0.0492  0.0558 -0.2882
  836W        W 4900   0.576   3.317   0.760  0.0204  0.0682  0.0647
  837W        W 4901   7.795   7.638   1.874 -0.0258 -0.1189  0.2777
  838W        W 4902   9.556   7.237   7.614  0.0324  0.1952  0.0306
  839W        W 4903   2.447   1.090   2.938 -0.0130  0.0663 -0.0208
  840W        W 4904   6.726   0.776   1.183 -0.1323 -0.0872  0.1161
  841W        W 4905   7.765   0.699   1.699  0.2372 -0.0318  0.2194
  842W        W 4906   1.007   2.077   8.204  0.0652 -0.0661 -0.0494
  843W        W 4907   9.929   0.239   0.769 -0.1715 -0.1138 -0.1899
  844W        W 4908   5.662   2.959  10.327  0.0584 -0.0250 -0.2401
  845W        W 4909  10.191   3.753   8.626 -0.0530  0.1006 -0.0070
  846W        W 4910   3.239   0.053   0.611  0.1891  0.2557  0.2503
  847W        W 4911   6.190   5.889  11.642  0.2625  0.5493 -0.1933
  848W        W 4912   4.989   5.845   8.784  0.1475  0.1255 -0.1993
  849W        W 4913   5.792   3.366   8.418  0.2951 -0.1212  0.1132
  850W        W 4914   2.128   4.336  10.303 -0.2814  0.1278 -0.3686
  851W        W 4915   9.129   7.071   1.889  0.1356 -0.4129  0.1209
  852W        W 4916  10.561   2.458   0.723 -0.3750  0.2236 -0.1020
  853W        W 4917   6.980   9.846  10.939 -0.0037 -0.1022 -0.3751
  854W        W 4918   9.361  10.089   1.674  0.0820  0.2732 -0.0871
  855W        W 4919   9.148   7.683   9.666 -0.1611  0.0112  0.0632
  856W        W 4920   1.321  10.593   1.253  0.0121  0.5604 -0.2619
  857W        W 4921   4.613   6.960   2.632  0.0413  0.1826  0.1717
  858W        W 4922   2.191   0.197   9.586 -0.1680  0.0924 -0.3210
  859W        W 4923   9.006   7.410  10.565  0.1930  0.0395  0.0148
  860W        W 4924   6.632   1.248   1.327  0.1533 -0.0643  0.1266
  861W        W 4925   5.297   7.863   9.305  0.1006  0.2309 -0.3048
  862W        W 4926   9.016   9.365   1.680  0.3042 -0.2224 -0.0835
  863W        W 4927   1.678   2.214   3.039 -0.1923  0.0320 -0.1909
  864W        W 4928  10.295   8.696   7.970  0.1377 -0.0379  0.1334
  865W        W 4929   4.955   4.304  10.241  0.5583 -0.1689  0.3918
  866W        W 4930   7.169   1.937   1.664 -0.1125  0.0389 -0.1094
  867W        W 4931   3.048   9.892  10.970  0.1496 -0.2718 -0.1677
  868W        W 4932   5.443   6.973   3.883 -0.1275  0.0867  0.0881
  869W        W 4933   1.127   1.273   9.976 -0.1274  0.0407  0.0130
  870W        W 4934   6.400   5.373  10.536  0.1680  0.4526 -0.1458
  871W        W 4935   4.027   0.727   3.157 -0.1174  0.3331  0.0417
  872W        W 4936   4.545   6.956   9.545 -0.2732 -0.0103 -0.1065
  873W        W 4937   3.176   5.612  11.033  0.0342 -0.2662 -0.3264
  874W        W 4938   4.681   5.429   1.212  0.1452 -0.1599  0.0004
  875W        W 4939  10.099   0.002  11.174 -0.0565 -0.1173 -0.3506
  876W        W 4940   2.408  10.528   2.109 -0.0991  0.1256  0.0861
  877W        W 4941   9.088   3.277   8.501 -0.0922 -0.0262  0.3070
  878W        W 4942   2.055   9.354  11.112  0.2494 -0.0256 -0.2385
  879W        W 4943   2.507   3.398   2.051  0.1091  0.0335  0.1085
  880W        W 4944   5.231   9.071   0.453 -0.0965 -0.2239  0.0214
  881W        W 4945   9.457   7.565   3.024  0.0524  0.0046 -0.1413
  882W        W 4946   7.917   4.716   3.950 -0.1159  0.0257 -0.3192
  883W        W 4947   4.053   4.604   0.329 -0.1168  0.0353 -0.3414
  884W        W 4948   4.826   6.069   3.104  0.2881  0.3498 -0.0652
  885W        W 4949   5.602   7.043   8.100  0.0057 -0.3379 -0.0289
  886W        W 4950   4.221   7.124  10.641  0.1806 -0.2276 -0.2922
  887W        W 4951   1.739   0.358   0.063 -0.0622 -0.1992 -0.3377
  888W        W 4952   7.380   3.941   9.782  0.0200  0.1646  0.1876
  889W        W 4953   8.184   4.982   9.505  0.3596 -0.1220  0.0301
  890W        W 4954   5.314   4.308   1.670 -0.2251  0.2375  0.0333
  891W        W 4955   0.653   2.432  10.538 -0.2994 -0.5126  0.3506
  892W        W 4956   3.121   9.867   1.973 -0.5319 -0.3861 -0.1631
  893W        W 4957   9.563   9.437   2.560 -0.1589 -0.2431  0.2499
  894W        W 4958   8.278   3.179   9.261  0.1573  0.1811 -0.0148
  895W        W 4959   3.195  10.140   2.369  0.0190  0.0678  0.4451
  896W        W 4960   5.211   8.900   2.166 -0.0874 -0.1616  0.0514
  897W        W 4961   6.735   8.403  10.315 -0.1001  0.2049 -0.0081
  898W        W 4962   0.789   1.053  10.244  0.4731  0.0715  0.0070
  899W        W 4963   1.077   6.518   1.377  0.1790  0.0938 -0.3447
  900W        W 4964   0.264   2.566   0.278 -0.1250  0.1778  0.0619
  901W        W 4965   2.529   5.513  11.556 -0.0764 -0.1069  0.0338
  902W        W 4966   7.589   5.827   2.063 -0.0610  0.5400 -0.0272
  903W        W 4967   6.506   1.464   9.503  0.2131  0.1845 -0.2646
  904W        W 4968   5.294   3.054   1.389 -0.0091  0.2251 -0.2481
  905W        W 4969  10.269   3.982   0.626 -0.2223 -0.0577 -0.0083
  906W        W 4970   4.201   5.527   9.301  0.0177  0.1140 -0.1085
  907W        W 4971   1.230   5.251   0.626  0.3719 -0.0150  0.0099
  908W        W 4972   7.863   5.098  11.171  0.0061 -0.1016  0.0328
  909W        W 4973   7.085   3.124  11.470 -0.0028 -0.4009  0.0571
  910W        W 4974   8.927   0.167   2.883 -0.1640 -0.0775 -0.0380
  911W        W 4975   7.471   3.903   0.817 -0.0403 -0.4828  0.1361
  912W        W 4976   9.133   1.950   2.338  0.1742  0.0413  0.2432
  913W        W 4977   5.572   2.954   2.818 -0.5461 -0.1542  0.1184
  914W        W 4978  10.396   3.771   9.587 -0.0902  0.1655  0.0630
  915W        W 4979   8.314   6.812   3.711  0.1910 -0.2549 -0.0283
  916W        W 4980   6.231   3.273   8.700  0.3450  0.1180 -0.1464
  917W        W 4981   0.978   8.849   1.922 -0.0438  0.1020  0.0870
  918W        W 4982   7.853   2.651   1.998  0.3645 -0.2052 -0.3582
  919W        W 4983   5.130   6.449   3.204 -0.0586 -0.0009 -0.1439
  920W        W 4984  10.058   9.339   1.892  0.0109 -0.1152 -0.0307
  921W        W 4985   3.310   6.819   0.008 -0.2872  0.0574 -0.2433
  922W        W 4986   0.282   1.688   0.051 -0.5044  0.0109  0.0709
  923W        W 4987   6.561   9.808  10.127 -0.3788 -0.0245 -0.2425
  924W        W 4988   0.564   7.646   1.629  0.2015  0.0247 -0.1204
  925W        W 4989   9.358   2.676  10.918  0.2401 -0.0137 -0.0520
  926W        W 4990   3.924   9.350   8.616 -0.2068 -0.1227  0.1480
  927W        W 4991   5.578   9.195   0.781 -0.0325  0.4331 -0.0709
  928W        W 4992   4.769   1.994   3.257 -0.0909 -0.0961 -0.1286
  929W        W 4993   2.735   0.837   8.395 -0.2495 -0.2209  0.2262
  930W        W 4994   9.807   8.550  10.972 -0.3863  0.1876  0.3154
  931W        W 4995   0.486   6.352   3.857  0.0938  0.2087  0.0281
  932W        W 4996   8.779   5.977   1.981 -0.1220  0.1743  0.0196
  933W        W 4997   8.355   0.717   8.622  0.1182 -0.0329  0.4064
  934W        W 4998   5.210   1.767   8.112  0.4387 -0.1053 -0.0742
  935W        W 4999   2.422   5.292   8.601 -0.0107 -0.0956 -0.3024
  936W        W 5000   8.593   3.174   8.869  0.1147 -0.1345 -0.0437
  937W        W 5001  10.227   9.875   9.465 -0.0538 -0.0867 -0.1218
  938W        W 5002   4.374   5.203   3.106  0.0225  0.2854  0.0747
  939W        W 5003   6.021   6.166   4.149  0.0515 -0.0920  0.0495
  940W        W 5004   9.895   4.903   0.166 -0.2191 -0.0054  0.0938
  941W        W 5005   1.297   6.329   9.127  0.1065 -0.3442  0.0562
  942W        W 5006   0.813   9.849  11.111  0.2092  0.0820  0.2075
  943W        W 5007   3.417   5.051   9.437 -0.1211 -0.1081 -0.0061
  944W        W 5008   5.562   6.510  11.211 -0.0072 -0.1507 -0.2493
  945W        W 5009   7.325   2.177   1.053 -0.0633  0.0249 -0.2442
  946W        W 5010   4.161   3.737   9.943 -0.2102 -0.0226  0.1841
  947W        W 5011   8.684   7.682   3.539  0.0676  0.0108 -0.0353
  948W        W 5012   9.480   7.273   0.056  0.3490  0.0563 -0.0078
  949W        W 5013   8.014   0.919   3.239  0.0401  0.0217 -0.0800
  950W        W 5014   9.528   6.301  10.896  0.0501 -0.3041 -0.0971
  951W        W 5015   2.778   3.275  10.856  0.1622 -0.3438  0.1032
  952W        W 5016   2.518  10.060   2.710 -0.2254  0.1295 -0.1216
  953W        W 5017   6.972   7.603   9.430  0.1335  0.0817  0.0233
  954W        W 5018   0.179   6.605   1.694 -0.1633  0.2871  0.1451
  955W        W 5019   7.998   3.609  10.190 -0.0663  0.2098 -0.0291
  956W        W 5020   3.718   2.232   9.806  0.3152 -0.0713 -0.1571
  957W        W 5021   0.175   7.288   2.801  0.1523  0.2850 -0.1685
  958W        W 5022   6.402   2.572   3.599 -0.0694 -0.0532  0.0022
  959W        W 5023   9.029   0.502   0.992  0.1605  0.1472 -0.0986
  960W        W 5024   4.645   6.470   2.815 -0.0784  0.1391  0.2253
  961W        W 5025  10.574   7.940   8.618 -0.0783 -0.2885 -0.2361
  962W        W 5026   5.496   0.780   2.819  0.1352  0.0575 -0.0126
  963W        W 5027   2.907   6.595   8.177 -0.2989 -0.0137 -0.1661
  964W        W 5028   4.835   2.588   2.486 -0.0654 -0.0740  0.1880
  965W        W 5029   0.960   1.252   8.879  0.1868 -0.0620  0.2780
  966W        W 5030   1.319   4.120   2.603 -0.0256  0.0664 -0.0876
  967W        W 5031   4.538   8.001   9.795  0.0646 -0.0628 -0.1946
  968W        W 5032   6.820  10.159   9.885  0.0678 -0.1109  0.0298
  969W        W 5033   4.399   6.696  11.362 -0.2463  0.1724 -0.1274
  970W        W 5034  10.143   2.602   9.438 -0.2717 -0.2311  0.0235
  971W        W 5035   4.214   8.668   0.102  0.0129 -0.0050  0.1267
  972W        W 5036   2.436   1.540   2.018 -0.1559  0.3848 -0.3565
  973W        W 5037   5.398   5.940   0.488  0.1644  0.0675  0.0886
  974W        W 5038   5.256   8.191   3.346  0.1044  0.2046  0.2615
  975W        W 5039   0.978   3.056   0.124  0.4548 -0.0057 -0.0432
  976W        W 5040   1.603   1.210   0.118 -0.2504 -0.1431 -0.1132
  977W        W 5041   9.539   9.634   0.251  0.1808  0.3923  0.0288
  978W        W 5042   7.552   5.775   9.246  0.2730  0.3609 -0.0954
  979W        W 5043   5.394   5.208   7.756 -0.1711  0.2269 -0.1238
  980W        W 5044   5.182   2.637   0.856 -0.1207  0.0802 -0.1295
  981W        W 5045   7.202   8.374   2.247  0.2565  0.0881 -0.1735
  982W        W 5046   7.176   6.015   1.149  0.3078 -0.1369  0.0206
  983W        W 5047   5.599   1.534   2.304  0.3264 -0.3518  0.2014
  984W        W 5048   5.291   0.655   0.061  0.1594 -0.1155 -0.1090
  985W        W 5049   8.734   4.686  11.298  0.0287 -0.0902 -0.1329
  986W        W 5050   0.913   8.060   0.460 -0.0736  0.0152 -0.0598
  987W        W 5051   9.659   2.214  11.347  0.0507 -0.2370 -0.4316
  988W        W 5052   6.773   6.030   9.500  0.1742  0.0700  0.1701
  989W        W 5053   8.801   0.946   2.575 -0.2865  0.1166 -0.0677
  990W        W 5054   8.649   2.635   1.610  0.0252 -0.2861 -0.1089
  991W        W 5055   7.495   3.268  10.905 -0.1287 -0.0743  0.1214
  992W        W 5056   6.452   8.376   9.354 -0.0411  0.0318 -0.2685
  993W        W 5057   1.825   3.057   0.510  0.1373  0.0035  0.2201
  994W        W 5058   7.849   6.305   1.772  0.1580  0.3237  0.0024
  995W        W 5059   5.194   8.345  11.362 -0.1710  0.1378 -0.2875
  996W        W 5060   1.853   3.843   0.872  0.1696 -0.4769  0.1899
  997W        W 5061   9.412  10.332   9.597 -0.1610  0.0140 -0.3663
  998W        W 5062   2.126   9.222   8.828  0.0883  0.1964 -0.3913
  999W        W 5063   6.230  10.296   1.022 -0.0493  0.1035 -0.0510
 1000W        W 5064   6.044   6.260  10.469  0.0925 -0.5092  0.1432
 1001W        W 5065   5.042   5.843   2.017  0.0506 -0.1025  0.1269
 1002W        W 5066   6.531   0.166   3.339 -0.2149  0.0895  0.0712
 1003W        W 5067   8.501   7.174   0.713 -0.0273 -0.0785  0.0538
 1004W        W 5068   1.605   1.389  10.519 -0.1438  0.1146  0.1388
 1005W        W 5069   4.228  10.092   8.014 -0.1751 -0.1665 -0.1012
 1006W        W 5070   4.393   6.957   9.059  0.0366 -0.0552  0.0673
 1007W        W 5071   1.632   6.900   8.487 -0.0886 -0.1668  0.0125
 1008W        W 5072   5.313   0.146   3.576  0.1700  0.4051  0.1960
 1009W        W 5073  10.412   4.159  11.423 -0.1024  0.0696  0.0818
 1010W        W 5074   7.908   0.594   8.846 -0.2100  0.0467 -0.1213
 1011W        W 5075   2.183   7.242   2.479  0.0042  0.1680  0.1108
 1012W        W 5076   0.487   7.808   8.647  0.3309  0.2556 -0.0305
 1013W        W 5077   0.174   5.402  10.883 -0.0471 -0.1940 -0.2426
 1014W        W 5078   3.810   0.032  10.831 -0.3362  0.0616 -0.1328
 1015W        W 5079   5.956   9.411   0.569 -0.0946  0.0762  0.1893
 1016W        W 5080   0.064   2.585  11.496  0.1858  0.0495  0.0302
 1017W        W 5081   8.519   9.488   9.411  0.0436  0.1027 -0.1743
 1018W        W 5082   4.598   9.403   0.968 -0.2550  0.0289 -0.2024
 1019W        W 5083   5.874   0.857   3.216 -0.2089  0.1134 -0.0688
 1020W        W 5084   0.462  10.578   9.219  0.1838 -0.0944 -0.1029
 1021W        W 5085   8.770   7.667   1.447  0.0212 -0.1052 -0.1556
 1022W        W 5086   5.100   9.119   9.253 -0.2481 -0.0728 -0.1057
 1023W        W 5087  10.458   6.619   0.832 -0.2576  0.1394  0.0585
 1024W        W 5088   6.380   0.787   1.589  0.1002  0.2543  0.0415
 1025W        W 5089   4.520   3.173   0.751 -0.0902 -0.3833  0.2263
 1026W        W 5090   1.501   8.631   4.001  0.1898  0.0494  0.1982
 1027W        W 5091   3.212   2.752   0.205 -0.4709  0.3146 -0.0747
 1028W        W 5092   6.049   9.853   9.368 -0.2393  0.2736 -0.2508
 1029W        W 5093   7.068   0.599   0.351  0.0687 -0.2561  0.2509
 1030W        W 5094   1.522   7.083   2.507 -0.1542  0.0661  0.0108
 1031W        W 5095  10.505   5.303   7.442  0.0627 -0.0513  0.1944
 1032W        W 5096   7.500   2.346   4.092  0.0520  0.1418  0.0319
 1033W        W 5097   0.127   7.018   1.443  0.0458 -0.2002 -0.0521
 1034W        W 5098   3.732   7.030   0.184 -0.0219 -0.1864 -0.2680
 1035W        W 5099   6.716   4.420   7.698 -0.1088  0.0484 -0.0263
 1036W        W 5100   7.792   7.427  10.130  0.3118 -0.0623 -0.0606
 1037W        W 5101   9.699   0.762  11.447  0.1116  0.1488  0.2341
 1038W        W 5102   3.079   7.008   3.875  0.1969  0.1440 -0.1625
 1039W        W 5103  10.013   0.629  10.620 -0.0030  0.3164 -0.1279
 1040W        W 5104   7.487   0.497   3.901  0.3473 -0.0704  0.2761
 1041W        W 5105   5.618   4.741   3.364  0.1550  0.0271  0.1156
 1042W        W 5106   5.158   0.026  10.839 -0.2286  0.3807  0.0773
 1043W        W 5107   0.973   4.959  11.225  0.1410  0.2791  0.0689
 1044W        W 5108   6.737  10.503   1.636 -0.0674 -0.0445 -0.0794
 1045W        W 5109   1.126   9.689   7.924  0.1579  0.2558  0.1006
 1046W        W 5110  10.575   4.912   3.213 -0.2619 -0.0828  0.1127
 1047W        W 5111   7.352   0.043   0.434 -0.1170 -0.0877  0.0105
 1048W        W 5112   0.682   1.190   9.732  0.2177  0.0562  0.1812
 1049W        W 5113   6.924   6.195  10.913 -0.0235 -0.1331  0.0270
 1050W        W 5114   6.142   4.053   0.097 -0.0232  0.2165  0.0203
 1051W        W 5115   3.334   6.594   9.054 -0.0055 -0.1598 -0.1041
 1052W        W 5116   3.929   5.052   2.186 -0.2804  0.1971  0.2315
 1053W        W 5117   9.201   2.872   0.283  0.2185  0.1821 -0.0739
 1054W        W 5118   6.911   1.113   0.511  0.3863 -0.2908  0.0955
 1055W        W 5119   1.176   6.107   0.985  0.1789  0.1086 -0.1290
 1056W        W 5120   2.707   3.517  10.349 -0.1465  0.0266  0.1219
 1057W        W 5121   3.768   5.212   4.334  0.2382  0.1741  0.1667
 1058W        W 5122   0.987   5.157   0.081 -0.2856 -0.1707  0.0881
 1059W        W 5123   9.970   9.928  10.152  0.2233 -0.0386  0.1779
 1060W        W 5124  10.532   6.059  11.529  0.1232 -0.1751  0.0283
 1061W        W 5125   2.858  10.512   0.287  0.0635 -0.2894 -0.0794
 1062W        W 5126   2.387   4.352   0.515 -0.2337  0.1476 -0.0980
 1063W        W 5127   9.349   1.029  11.186 -0.1676 -0.2525 -0.0124
 1064W        W 5128   9.525   5.911   0.302  0.2065 -0.1206 -0.4641
 1065W        W 5129   2.852   8.700   1.293  0.0067  0.0303 -0.1793
 1066W        W 5130   8.496   7.034   8.304 -0.3043 -0.1354 -0.1162
 1067W        W 5131   8.469   1.829   9.705  0.2037  0.0057 -0.1800
 1068W        W 5132   5.774   3.178   9.887 -0.2357  0.1056  0.2084
 1069W        W 5133   9.662   4.854   9.054 -0.2362 -0.0359 -0.1996
 1070W        W 5134   5.295   7.047  11.510  0.1490  0.0157 -0.1413
 1071W        W 5135   9.317   1.550   9.213 -0.0423 -0.1342  0.1190
 1072W        W 5136   3.115   4.407   4.266  0.2215  0.0186  0.0571
 1073W        W 5137  10.278   2.600  11.200  0.0012  0.1640 -0.1748
 1074W        W 5138   4.876  10.277   9.997  0.1143  0.1972  0.0652
 1075W        W 5139   6.803   9.157   1.037 -0.0463  0.1316 -0.1176
 1076W        W 5140   3.034   0.423   1.161  0.1936 -0.0012  0.1134
 1077W        W 5141   7.277  10.209  11.273 -0.3475 -0.1951 -0.0241
 1078W        W 5142  10.516   7.610   0.314 -0.2353  0.0196 -0.1333
 1079W        W 5143   7.132   5.915   0.626 -0.0061 -0.1500  0.1808
 1080W        W 5144   1.311   5.851   9.155  0.0166 -0.0745 -0.0535
 1081W        W 5145   7.046   1.069   2.954  0.1965 -0.2472  0.0766
 1082W        W 5146   0.458   5.390   4.067  0.1546 -0.0297 -0.1857
 1083W        W 5147   4.547   0.424   8.912 -0.2171  0.0101 -0.3883
 1084W        W 5148   1.391   6.339   3.637 -0.1658  0.2492 -0.1338
 1085W        W 5149   1.183  10.134   8.817 -0.1139  0.0122  0.0814
 1086W        W 5150   3.670   4.629   0.970  0.1226  0.1140 -0.1263
 1087W        W 5151  10.127  10.290   3.813 -0.1598 -0.2367 -0.1271
 1088W        W 5152   0.488   5.254   8.223 -0.0006 -0.2057 -0.3770
 1089W        W 5153   8.886   8.442  11.325 -0.5195  0.0965  0.1482
 1090W        W 5154   5.202   2.844   9.405  0.1573  0.2138  0.0902
 1091W        W 5155   7.280   7.476   0.591  0.0563 -0.1929  0.0399
 1092W        W 5156   6.261   0.080   8.707  0.2964  0.2235  0.1433
 1093W        W 5157   9.188   5.257   9.076  0.0914  0.1199 -0.0653
 1094W        W 5158   2.604   2.761   2.223  0.1046 -0.2098  0.0764
 1095W        W 5159   8.808   2.979   0.564  0.1533  0.0922 -0.1087
 1096W        W 5160   3.238   7.092   9.047  0.0417 -0.0556  0.1253
 1097W        W 5161  10.066   8.750   8.424  0.0297  0.1647  0.2469
 1098W        W 5162   1.338   9.077   8.566  0.1140 -0.0643  0.1860
 1099W        W 5163   4.075   4.331   9.742  0.3246  0.1826  0.1239
 1100W        W 5164   6.599   3.923   7.972 -0.1086  0.3158  0.1803
 1101W        W 5165   5.188   2.591   0.235  0.3525 -0.0409  0.0004
 1102W        W 5166   0.738   8.608   7.679  0.0119 -0.1364  0.1883
 1103W        W 5167   4.219   5.474   4.583  0.0027 -0.2865 -0.0403
 1104W        W 5168   2.830  10.543  10.531 -0.2176 -0.0401  0.2423
 1105W        W 5169   3.195   6.824  10.745 -0.0605  0.3294 -0.0043
 1106W        W 5170   2.957   7.233   3.264  0.2262 -0.0794  0.1979
 1107W        W 5171   5.032   7.664   9.761 -0.0862  0.3231 -0.0538
 1108W        W 5172   2.067   9.493   0.007  0.1086 -0.1394 -0.1364
 1109W        W 5173  10.550   9.448   3.514  0.1874 -0.3261 -0.0338
 1110W        W 5174   1.156   2.202   8.683 -0.0238  0.0233 -0.0553
 1111W        W 5175   5.387   4.146   8.326  0.0104  0.2688 -0.1743
 1112W        W 5176   0.182   5.581   9.358  0.0848 -0.2118  0.1139
 1113W        W 5177   5.037   6.127   9.635 -0.0485  0.1303 -0.0379
 1114W        W 5178   8.966   5.475   3.129  0.1105  0.1398 -0.0356
 1115W        W 5179   2.335   5.807   2.757 -0.0429  0.4491 -0.2151
 1116W        W 5180   0.664  10.231   8.854 -0.2251  0.0239 -0.0285
 1117W        W 5181   6.054   2.546   2.298 -0.0211  0.4073  0.2421
 1118W        W 5182   4.837   7.243   0.116  0.0357  0.0386 -0.3202
 1119W        W 5183   6.520   8.605   0.044  0.1385 -0.1184 -0.1398
 1120W        W 5184   2.021   9.799   1.483 -0.4022  0.1140 -0.4264
 1121W        W 5185  10.238   6.935  11.213 -0.0921 -0.2031  0.2662
 1122W        W 5186   7.455   9.946   0.019  0.1543  0.1497 -0.4033
 1123W        W 5187   9.819   2.441  10.141  0.2566  0.1343 -0.2181
 1124W        W 5188   9.434   5.344   2.091  0.2223 -0.2317 -0.1501
 1125W        W 5189   5.305   9.558   2.713  0.2985 -0.2914  0.1008
 1126W        W 5190   9.267   5.242   0.507  0.2414  0.0623 -0.0154
 1127W        W 5191   0.219   8.657   0.720 -0.0343  0.2544 -0.0413
 1128W        W 5192   6.317   5.829  10.255 -0.0706 -0.0492 -0.0352
 1129W        W 5193   2.185   3.657  11.490  0.0513  0.1629 -0.0789
 1130W        W 5194   3.203   7.991   0.874 -0.2268  0.2092 -0.1187
 1131W        W 5195   9.782   0.997  10.920 -0.3082  0.3292  0.0368
 1132W        W 5196   3.581   1.301   2.897  0.2965 -0.4287  0.2200
 1133W        W 5197   6.822   3.867  11.086  0.0617  0.1083  0.2181
 1134W        W 5198   6.260   0.790  10.559  0.0278 -0.0196 -0.2615
 1135W        W 5199   7.407   5.243  10.469 -0.0348  0.3372  0.1502
 1136W        W 5200   2.642   1.684  10.404  0.1360 -0.0995 -0.0588
 1137W        W 5201   5.499   6.697   1.111  0.3484 -0.0288  0.1626
 1138W        W 5202   9.909   8.989   0.483  0.1399 -0.2044  0.2809
 1139W        W 5203   2.733   9.343   2.523  0.2346 -0.1468 -0.1813
 1140W        W 5204   6.908   0.411   1.586  0.1801  0.0651 -0.0664
 1141W        W 5205   5.000   2.010   8.962 -0.0846 -0.1676 -0.2633
 1142W        W 5206   9.699   1.645   9.601  0.0646  0.1399 -0.0546
 1143W        W 5207  10.327   0.230   0.372 -0.2140  0.0815  0.0430
 1144W        W 5208   9.024   7.215   1.429 -0.0372  0.2252 -0.2527
 1145W        W 5209   0.165  10.122   9.263  0.0873 -0.1268 -0.2850
 1146W        W 5210   0.397   3.258  10.172  0.0601 -0.1895 -0.3268
 1147W        W 5211   9.331   0.553  10.074 -0.2708 -0.1968  0.0307
 1148W        W 5212   1.430   0.734   0.147  0.1357 -0.1111 -0.0685
 1149W        W 5213   6.670   2.948  10.234  0.0980  0.0923  0.0452
 1150W        W 5214   8.639   1.498  11.399 -0.2505  0.0404  0.1338
 1151W        W 5215   0.594   4.030   8.162  0.0215 -0.2161 -0.0143
 1152W        W 5216   0.391   0.786   1.518 -0.1727  0.0026  0.5066
 1153W        W 5217   6.242   3.710   3.314  0.0919  0.0484 -0.0797
 1154W        W 5218   8.545   8.233   2.915 -0.0638  0.2432 -0.3524
 1155W        W 5219   4.819   3.768   9.369  0.2324  0.1007  0.2421
 1156W        W 5220   2.668   1.639   1.006  0.0205  0.0764 -0.1463
 1157W        W 5221   6.790   9.174   0.487 -0.3169  0.2095 -0.2538
 1158W        W 5222   0.638   7.042   0.785 -0.0055 -0.1170  0.2298
 1159W        W 5223   0.992   5.523   1.176  0.0075 -0.0739 -0.1163
 1160W        W 5224   8.376  10.412   0.806 -0.0270 -0.3512 -0.1823
 1161W        W 5225   1.176   6.421   3.209  0.0757 -0.0649  0.1038
 1162W        W 5226   3.882   5.198   8.635  0.1743  0.0023 -0.1602
 1163W        W 5227   1.087   7.521   9.973 -0.4239 -0.0660  0.2862
 1164W        W 5228   7.274   6.307   2.941 -0.1121  0.0105  0.1943
 1165W        W 5229   4.921   1.013  11.138  0.1247  0.0049 -0.0465
 1166W        W 5230   0.568   9.388   7.164  0.0405  0.0712  0.1717
 1167W        W 5231   9.360   8.472   2.008 -0.0095 -0.1814  0.1097
 1168W        W 5232   6.617   1.524   0.681  0.0492 -0.0987 -0.0733
 1169W        W 5233   9.831   8.471   2.118 -0.0141  0.0455 -0.0122
 1170W        W 5234   9.793   9.535   1.126 -0.0402 -0.2859 -0.0310
 1171W        W 5235   1.816   4.854   2.996  0.3058  0.1088  0.0864
 1172W        W 5236   0.691  10.591  10.548 -0.0297  0.1049  0.1644
 1173W        W 5237   1.862   5.503   1.426 -0.2421  0.1505  0.0196
 1174W        W 5238   2.163   1.001  10.781 -0.3993 -0.2318  0.0382
 1175W        W 5239   6.889   0.871   8.674 -0.0055 -0.0054 -0.0731
 1176W        W 5240   7.737   0.186   9.577 -0.2801  0.1881  0.0978
 1177W        W 5241  10.020   9.851   8.980  0.1163 -0.1375 -0.0206
 1178W        W 5242   9.504   7.760   2.516  0.0050 -0.0477  0.4815
 1179W        W 5243   6.256   0.249   9.198 -0.1092  0.1615 -0.1511
 1180W        W 5244   4.686   1.872   1.180  0.1086  0.1215  0.0910
 1181W        W 5245   1.904   7.836  11.054  0.1416 -0.2736 -0.2493
 1182W        W 5246   1.304   2.825   2.238  0.0595 -0.0095 -0.1544
 1183W        W 5247   0.988   5.064   1.434 -0.2516 -0.1167  0.0201
 1184W        W 5248   8.813   3.759   9.642 -0.0518  0.2119 -0.1490
 1185W        W 5249   2.890   0.049   9.629 -0.1253  0.2693  0.1191
 1186W        W 5250   9.974   4.576   9.476 -0.0622 -0.2025  0.0659
 1187W        W 5251   1.073   1.745   9.087 -0.2276  0.0067 -0.0366
 1188W        W 5252   9.175   9.686   2.913  0.0772  0.4643  0.1040
 1189W        W 5253   9.743   6.986   8.108 -0.2372  0.2104  0.0124
 1190W        W 5254   4.989   1.061   0.793  0.0437 -0.1669 -0.2453
 1191W        W 5255   0.894  10.514   3.269 -0.0162  0.1816  0.1769
 1192W        W 5256   9.183   3.688   7.841 -0.0989  0.4424  0.0480
 1193W        W 5257   7.529   8.053   1.846 -0.2756  0.0626 -0.0762
 1194W        W 5258   9.282   9.184  10.281 -0.0397  0.3079  0.1126
 1195W        W 5259   1.181   5.219   2.355  0.0877  0.1632 -0.0558
 1196W        W 5260   1.955   5.965   1.347 -0.0929  0.2456  0.2135
 1197W        W 5261   1.996  10.222   0.615 -0.3480 -0.1260 -0.0569
 1198W        W 5262   0.824   9.688   1.982  0.0646  0.1144 -0.1566
 1199W        W 5263   9.495   7.733  11.461 -0.2791 -0.0648 -0.0033
 1200W        W 5264   2.004   0.914   2.700 -0.0229  0.0023 -0.1096
 1201W        W 5265   5.597   6.347  10.207 -0.0747  0.0696 -0.2984
 1202W        W 5266   2.558   6.822   9.516  0.1285 -0.1042 -0.0403
 1203W        W 5267  10.176   4.525   2.817  0.2771  0.2644 -0.0179
 1204W        W 5268   8.133   9.177   3.424 -0.1608  0.1221 -0.1605
 1205W        W 5269   2.649   6.783   2.254 -0.1309  0.0777  0.0977
 1206W        W 5270   3.064   5.412  11.460 -0.1027 -0.0825  0.0085
 1207W        W 5271   5.206   2.086   3.706 -0.2070  0.1305  0.0729
 1208W        W 5272   9.153   1.640  11.467 -0.3643  0.0998  0.1780
 1209W        W 5273   3.462   7.325  10.244 -0.0694  0.0235  0.0448
 1210W        W 5274   5.378   0.247   2.093  0.0741 -0.1771 -0.0424
 1211W        W 5275   0.606   4.213   9.645  0.2151 -0.0902 -0.3420
 1212W        W 5276   1.512   1.824   1.018 -0.1859  0.0149 -0.1415
 1213W        W 5277   0.164   8.570   1.528  0.0040  0.3665 -0.2558
 1214W        W 5278   4.307   8.098   0.192  0.1681  0.2161  0.3256
 1215W        W 5279   0.890   8.483  11.131 -0.0884  0.0774 -0.0771
 1216W        W 5280   4.434   3.811  11.347 -0.4120 -0.1687 -0.1670
 1217W        W 5281   5.834   5.890   1.457  0.1713  0.1220  0.0744
 1218W        W 5282   5.867   4.355   0.570  0.1522  0.0971  0.4115
 1219W        W 5283   0.543   4.199   0.948  0.0329  0.2109  0.2365
 1220W        W 5284   3.804   1.203   1.891 -0.0806 -0.2074  0.0485
 1221W        W 5285   5.743   8.518   1.354 -0.0642  0.3386 -0.0689
 1222W        W 5286   0.336   7.063  10.391  0.2361  0.4884  0.0579
 1223W        W 5287   9.128   3.406   9.989 -0.1205  0.0559  0.0256
 1224W        W 5288   6.707   0.688   0.667 -0.1242  0.0241  0.3795
 1225W        W 5289   5.183   5.146   3.662  0.1196 -0.1033 -0.1525
 1226W        W 5290   3.763   1.866   0.714  0.0665 -0.0593 -0.0139
 1227W        W 5291   6.119   2.881  11.646  0.1335  0.1761 -0.2667
 1228W        W 5292   3.732   0.644   2.192  0.3970  0.0056 -0.3564
 1229W        W 5293   8.532   4.672   9.451 -0.2380 -0.0307  0.1322
 1230W        W 5294   3.426   3.548   2.167  0.2139 -0.0166  0.4267
 1231W        W 5295   6.512   9.300   9.820  0.3394 -0.0857 -0.3998
 1232W        W 5296  10.473   7.543  10.162  0.0802 -0.2684  0.0849
 1233W        W 5297   9.910   4.534   2.337  0.0241 -0.1662 -0.3151
 1234W        W 5298   7.600   0.809  10.836 -0.0582  0.0391  0.2203
 1235W        W 5299   7.026   0.297   8.456 -0.3188  0.2308  0.4887
 1236W        W 5300   3.821   0.331   2.591 -0.0390 -0.1324 -0.3770
 1237W        W 5301   2.145   8.919   0.794 -0.1695  0.1574 -0.1213
 1238W        W 5302   3.172   6.798   1.102  0.0894 -0.2159 -0.2532
 1239W        W 5303   7.586   8.809   1.101  0.1191 -0.2027 -0.2179
 1240W        W 5304   1.514  10.288   0.343  0.1978 -0.1581  0.2259
 1241W        W 5305   7.698   0.881   0.178 -0.1422  0.1119  0.0568
 1242W        W 5306  10.482   5.624   8.878  0.5229  0.0398 -0.3083
 1243W        W 5307   5.076   8.117   2.476  0.2363  0.3809  0.0971
 1244W        W 5308   8.105   9.986  10.851  0.3854  0.1988 -0.3700
 1245W        W 5309   7.119   7.890  11.210 -0.0708  0.0375 -0.0831
 1246W        W 5310   8.245  10.210   2.305 -0.1082  0.2832  0.0088
 1247W        W 5311   1.609   1.756   1.699 -0.2193 -0.3383  0.1052
 1248W        W 5312   7.081   5.942   9.118 -0.2949 -0.1372  0.1511
 1249W        W 5313  10.158   6.715   1.868 -0.1239 -0.0398  0.3520
 1250W        W 5314   4.656   7.350   3.321 -0.1288 -0.2092 -0.2609
 1251W        W 5315  10.033   5.291   8.477  0.0578 -0.0303 -0.1603
 1252W        W 5316   0.940   4.802   2.185 -0.1093 -0.0399 -0.1968
 1253W        W 5317   6.456   6.230  10.903  0.2061 -0.0347  0.2308
 1254W        W 5318   7.721   1.909   2.372  0.2838  0.1853 -0.0017
 1255W        W 5319   0.226   3.564   2.438 -0.1510  0.5128 -0.3166
 1256W        W 5320   8.350   5.383  10.221  0.0084  0.0193 -0.2183
 1257W        W 5321   3.700   3.017   4.062  0.0723 -0.2171  0.0376
 1258W        W 5322   1.491   9.369   0.514  0.0917 -0.0201 -0.0942
 1259W        W 5323   5.178   1.849  10.789  0.1653  0.4824 -0.0182
 1260W        W 5324   3.992   8.341   8.680  0.1054 -0.1303 -0.1565
 1261W        W 5325   6.328   9.483   3.335 -0.0262 -0.0114  0.0651
 1262W        W 5326   3.494   7.801   1.688 -0.1743 -0.0718 -0.2042
 1263W        W 5327   9.414   0.949   1.805 -0.0726 -0.0156  0.3200
 1264W        W 5328   8.845   8.028   9.319 -0.2332 -0.0317  0.2235
 1265W        W 5329   9.308   3.540   9.462 -0.0723  0.1564  0.0195
 1266W        W 5330   4.988   9.226   9.991  0.0186  0.0154 -0.5397
 1267W        W 5331   5.625   8.588   0.196  0.0765 -0.2598 -0.2241
 1268W        W 5332  10.478   4.197   8.853  0.4188  0.1834  0.2409
 1269W        W 5333   5.527  10.345   1.813 -0.0847  0.1350 -0.1235
 1270W        W 5334   5.990   6.749   9.208 -0.1843 -0.1522 -0.0850
 1271W        W 5335   4.083   5.539   0.316  0.4152  0.0643 -0.1922
 1272W        W 5336   5.542   0.288  10.442 -0.1766  0.1841  0.0738
 1273W        W 5337   7.887   7.803   9.251  0.1782 -0.2670 -0.2563
 1274W        W 5338   4.645   9.301   2.310  0.0353 -0.0024  0.0184
 1275W        W 5339   3.229   5.267  10.581  0.0260  0.3906 -0.1542
 1276W        W 5340   0.898   5.238   8.594 -0.0549  0.3654  0.1292
 1277W        W 5341   6.539   2.808   9.309  0.0255  0.0649 -0.2936
 1278W        W 5342   9.335   1.003   1.110  0.2461  0.2280  0.0464
 1279W        W 5343   0.027   4.770  11.286  0.1808 -0.2451  0.0418
 1280W        W 5344   9.027   3.812   0.461  0.5139  0.1236  0.0403
 1281W        W 5345   9.862   2.289   0.704  0.1040 -0.1392  0.4587
 1282W        W 5346   1.139   9.449  11.193 -0.1335  0.0180  0.0259
 1283W        W 5347   2.269   5.723   0.884  0.0964 -0.0189  0.2239
 1284W        W 5348   8.209   3.249   9.858 -0.0136 -0.0905  0.1179
 1285W        W 5349   7.479   5.537   1.368  0.0014  0.3259 -0.0361
 1286W        W 5350   3.012   4.131   1.526 -0.1582 -0.2044 -0.2334
 1287W        W 5351   0.522   5.120   2.151  0.0342 -0.1109  0.1663
 1288W        W 5352   4.845   6.018   2.458  0.1302  0.0473  0.1378
 1289W        W 5353   1.184   5.269   9.157  0.0182 -0.1867  0.0210
 1290W        W 5354   9.303   5.185   1.549  0.5934  0.4046  0.4392
 1291W        W 5355   6.625   9.823   8.468  0.2157  0.1721  0.2330
 1292W        W 5356   7.039   8.761   9.218 -0.2894  0.2031 -0.0330
 1293W        W 5357   4.205   7.807  11.417  0.2274 -0.0851 -0.2617
 1294W        W 5358  10.097   6.760   0.541 -0.3671  0.0911 -0.2880
 1295W        W 5359   5.714   0.990   8.988  0.0635  0.1686  0.0675
 1296W        W 5360   9.530   2.068   3.396  0.0176  0.0809  0.0528
 1297W        W 5361   5.843   8.191  10.618 -0.1978 -0.0847 -0.2432
 1298W        W 5362   1.398   3.597   0.025 -0.2177  0.1273  0.0454
 1299W        W 5363   6.862   3.244   1.262  0.2608  0.2576 -0.2636
 1300W        W 5364   1.398  10.137   0.807  0.1834 -0.1475 -0.2039
 1301W        W 5365   1.466   6.101   8.740 -0.1661  0.3029  0.1308
 1302W        W 5366   4.421   5.843   0.102 -0.1521  0.0728  0.2723
 1303W        W 5367   8.125   6.605   2.078  0.1399 -0.0348  0.1338
 1304W        W 5368   8.372   7.603   0.996  0.1305  0.1459 -0.1277
 1305W        W 5369   5.887   0.535   0.404  0.0769 -0.0551  0.0902
 1306W        W 5370   2.876   4.032   0.402 -0.1713 -0.2764 -0.0354
 1307W        W 5371   0.814   8.633  10.633 -0.1348  0.0303 -0.0948
 1308W        W 5372   5.805   1.560   1.788 -0.2208  0.0476 -0.2728
 1309W        W 5373   2.601   6.353   1.599  0.0927 -0.2276 -0.0786
 1310W        W 5374   9.562   9.965   0.915  0.0330  0.1846  0.2045
 1311W        W 5375   1.226  10.211   9.663 -0.4000  0.1111 -0.1113
 1312W        W 5376   5.236  10.066   1.277 -0.0478  0.0386  0.0559
 1313W        W 5377   7.865   4.732   1.227  0.0583 -0.0912 -0.3064
 1314W        W 5378   0.675   3.489   9.134 -0.0626  0.1362 -0.0007
 1315W        W 5379   8.838   8.316   8.409  0.1384 -0.0395 -0.3089
 1316W        W 5380   7.201   2.454   3.711  0.0128  0.0477  0.1767
 1317W        W 5381   7.607   4.132   1.787 -0.1850 -0.1027 -0.1020
 1318W        W 5382   4.907   7.122   2.316 -0.1496  0.2041 -0.0178
 1319W        W 5383   3.001   1.371   2.298 -0.0322  0.0153 -0.0087
 1320W        W 5384   6.664   4.088   0.122  0.0793 -0.2340  0.1929
 1321W        W 5385   9.956   3.912   8.244  0.1250  0.0290  0.0423
 1322W        W 5386   5.846   0.978   0.043  0.3699 -0.1426  0.0510
 1323W        W 5387   7.853   0.535  11.528 -0.0023 -0.2499 -0.1525
 1324W        W 5388   6.012   2.232  10.366  0.0128 -0.1591 -0.1370
 1325W        W 5389   1.666   0.710   1.542 -0.0846 -0.2184 -0.1044
 1326W        W 5390   8.466   5.472   2.283 -0.7014 -0.0546 -0.0254
 1327W        W 5391   9.947   8.141   9.767 -0.0012  0.0151  0.0005
 1328W        W 5392   9.088   2.986   8.870 -0.1384 -0.0542 -0.0269
 1329W        W 5393   6.590   4.684   2.616  0.1705  0.3836  0.2167
 1330W        W 5394   4.357   6.643   8.208  0.0842 -0.1640 -0.1410
 1331W        W 5395   5.296   9.320   1.757  0.1211 -0.6497  0.2268
 1332W        W 5396   6.409   5.753   8.457  0.0914 -0.0387  0.0130
 1333W        W 5397   4.740   6.605   9.975  0.0787 -0.2494  0.0210
 1334W        W 5398   9.149   0.563  11.302  0.2613  0.0361 -0.2760
 1335W        W 5399   8.551   9.968  11.658 -0.0347  0.0010  0.4707
 1336W        W 5400   9.380   7.369   3.608  0.0648  0.0205 -0.2819
 1337W        W 5401   5.024   5.570   9.712 -0.1034  0.0267  0.0828
 1338W        W 5402   7.391   8.147   9.799 -0.0753 -0.0620 -0.0748
 1339W        W 5403   7.510   9.419  11.582  0.0585  0.1418 -0.0567
 1340W        W 5404   7.426   2.754  11.272  0.1773  0.1813 -0.0501
 1341W        W 5405  10.191   1.746  11.624 -0.2467 -0.0378  0.0572
 1342W        W 5406   3.261   3.305  10.906 -0.0773 -0.0955 -0.0612
 1343W        W 5407  10.318   7.667   2.558 -0.1552  0.1758 -0.0436
 1344W        W 5408   5.900   5.772   3.340 -0.1343  0.1985  0.0724
 1345W        W 5409   5.924  10.417   9.617 -0.1234  0.2561  0.1107
 1346W        W 5410   1.186   0.900   1.495  0.1779 -0.0529  0.0539
 1347W        W 5411   6.622   3.369   9.977  0.1406  0.2168 -0.4111
 1348W        W 5412   0.383   0.753   1.003 -0.1446 -0.1661 -0.1402
 1349W        W 5413   1.459   4.500   9.539 -0.0715  0.0467 -0.0475
 1350W        W 5414   8.173   6.723   7.830  0.1062 -0.4381 -0.4619
 1351W        W 5415   2.715   5.435  11.045  0.1650  0.3442  0.0771
 1352W        W 5416   6.075   7.366   1.454  0.2808  0.2318 -0.3784
 1353W        W 5417   5.419   2.434  10.355 -0.2661 -0.2636 -0.1931
 1354W        W 5418   1.773   5.244   3.293 -0.0874 -0.2713  0.0761
 1355W        W 5419   6.986   0.356   3.518  0.1514  0.0410 -0.3246
 1356W        W 5420   7.322   2.120   9.618  0.2066  0.0716  0.2570
 1357W        W 5421   6.515   8.442   8.325 -0.0966  0.1317  0.0904
 1358W        W 5422   4.165   8.872   7.367 -0.0548 -0.1866  0.0869
 1359W        W 5423   8.000   8.181  11.044  0.0800  0.3155  0.1424
 1360W        W 5424   5.359   0.277   2.626  0.1339 -0.0708  0.0106
 1361W        W 5425   0.983   4.930   3.033  0.1347  0.1563 -0.2126
 1362W        W 5426   7.234   6.390   8.776  0.0676 -0.1285  0.0723
 1363W        W 5427   8.212   4.634   0.268 -0.5081  0.1861  0.2059
 1364W        W 5428   0.168   7.808   2.830 -0.2215 -0.2108 -0.1347
 1365W        W 5429   6.931   2.469   2.196  0.0887 -0.0420  0.3690
 1366W        W 5430   1.217   2.741  10.800 -0.2849  0.3019  0.0673
 1367W        W 5431   5.713   8.479  11.363 -0.0586 -0.1399 -0.2972
 1368W        W 5432   2.601   1.312  11.325 -0.0008 -0.1948  0.0434
 1369W        W 5433   8.567   2.816   0.972  0.0106  0.0020 -0.0326
 1370W        W 5434   0.394   4.874   0.011 -0.0068 -0.0480  0.2573
 1371W        W 5435   1.744   0.842   8.689 -0.4080 -0.0405 -0.0653
 1372W        W 5436   9.127   7.422   4.421 -0.0405  0.2201  0.0525
 1373W        W 5437   7.325   1.764   8.541  0.0661  0.0805  0.0818
 1374W        W 5438   8.939   1.133  11.457 -0.1325  0.2444 -0.0103
 1375W        W 5439   5.315   5.422  11.122 -0.2082 -0.0454  0.0336
 1376W        W 5440   8.168   6.210   2.604 -0.1085 -0.2341  0.2030
 1377W        W 5441   3.258   4.854   3.432  0.0339 -0.0847  0.0820
 1378W        W 5442   9.620   2.856   8.868  0.1202  0.1560  0.1637
 1379W        W 5443   6.324   6.968   9.613  0.0105  0.0417  0.0620
 1380W        W 5444   2.319   4.860   9.946 -0.0315 -0.2647 -0.0756
 1381W        W 5445   9.867  10.484  10.258  0.0881 -0.2379  0.3502
 1382W        W 5446   8.965   5.566   0.807  0.0666  0.0524  0.3048
 1383W        W 5447   6.723   5.326   9.683 -0.0652 -0.1290 -0.1276
 1384W        W 5448   2.919   1.264  10.611  0.0625 -0.3481 -0.0293
 1385W        W 5449   9.568   7.234  10.473 -0.0612 -0.0337 -0.0393
 1386W        W 5450   6.906   4.348  10.660 -0.0526 -0.2911  0.1931
 1387W        W 5451   6.925   4.049   3.288 -0.0923  0.2074  0.3542
 1388W        W 5452   9.457   7.775  10.465 -0.0719  0.0566 -0.0278
 1389W        W 5453   5.203   3.216   1.926  0.0299 -0.1751 -0.0971
 1390W        W 5454   0.590   4.006   0.350 -0.1367  0.1271 -0.1680
 1391W        W 5455   8.591  10.122  10.838 -0.2754 -0.0953 -0.1893
 1392W        W 5456   4.678   2.046   2.290  0.1105 -0.0603  0.1966
 1393W        W 5457   7.983   7.228  11.241 -0.1143  0.0126  0.1983
 1394W        W 5458   0.406   7.316   8.561 -0.0232 -0.1919  0.0230
 1395W        W 5459   7.960   3.472  10.800  0.0142  0.2874  0.6060
 1396W        W 5460   2.043   7.066  11.675  0.0243 -0.1714 -0.1151
 1397W        W 5461   0.198   5.505   2.256 -0.1765  0.0118 -0.1010
 1398W        W 5462   8.626   0.039   9.775  0.2253  0.1089  0.0424
 1399W        W 5463  10.070   2.278  11.647  0.1219 -0.1202  0.1078
 1400W        W 5464   0.398   6.448   9.909 -0.2820 -0.1444 -0.1935
 1401W        W 5465   5.349   1.281   2.708 -0.1922 -0.1431  0.1202
 1402W        W 5466   4.567   8.982   4.319  0.0933 -0.2153 -0.0298
 1403W        W 5467   9.174   7.048  10.231  0.0138 -0.1428  0.1481
 1404W        W 5468   1.678   8.578   9.807  0.2286 -0.1140 -0.2120
 1405W        W 5469   0.477   9.942   8.022 -0.1751  0.3834  0.0803
 1406W        W 5470   7.062   4.443   0.178 -0.1597  0.1991 -0.0167
 1407W        W 5471   7.880   8.125   7.670 -0.2162 -0.0287 -0.1342
 1408W        W 5472   2.210   2.996  11.051 -0.2034  0.2977 -0.0456
 1409W        W 5473   3.484   6.573  11.216  0.1664  0.1936 -0.1417
 1410W        W 5474   0.588   9.428  11.244 -0.4542  0.1478 -0.2261
 1411W        W 5475   0.422  10.090   3.783 -0.1533  0.2619  0.0976
 1412W        W 5476   1.433   5.689   0.701 -0.0450 -0.0195  0.1127
 1413W        W 5477   9.079   5.343   9.554  0.0192  0.2571 -0.1883
 1414W        W 5478   7.752   6.251   2.811  0.0881  0.1314 -0.0662
 1415W        W 5479   4.175   2.081   9.667  0.3739  0.1962 -0.1335
 1416W        W 5480   8.293   6.674   1.053  0.0392  0.1585 -0.0129
 1417W        W 5481   3.255   1.013   9.392 -0.0510  0.0577  0.0114
 1418W        W 5482   3.612   8.970  10.827 -0.0265  0.1440 -0.1956
 1419W        W 5483   6.260   4.178  10.928  0.1378  0.1300 -0.2567
 1420W        W 5484   6.408   0.491   9.723  0.2282  0.1551 -0.1119
 1421W        W 5485   1.146   3.331   8.981  0.0331 -0.4130 -0.5663
 1422W        W 5486   3.323   6.021   9.637  0.1328  0.1290 -0.0726
 1423W        W 5487  10.092   9.326   8.534 -0.0733  0.1169  0.0787
 1424W        W 5488   5.341   5.065   2.346 -0.1680  0.1816  0.2491
 1425W        W 5489   1.258   7.144  10.249 -0.1106 -0.1164 -0.3567
 1426W        W 5490   5.239   6.312   7.887 -0.0350  0.0426  0.1444
 1427W        W 5491   7.841   5.962  10.412 -0.2410  0.1542 -0.2448
 1428W        W 5492   6.523   5.762   9.828  0.0843 -0.1215 -0.1154
 1429W        W 5493   1.760   2.638   9.603 -0.2353 -0.1297 -0.2179
 1430W        W 5494   5.917   7.333  11.282 -0.0493  0.3532  0.4724
 1431W        W 5495   7.839   5.790   1.600 -0.2586 -0.5398 -0.0249
 1432W        W 5496   9.169   3.054   9.500 -0.0327 -0.3613  0.2144
 1433W        W 5497   4.528   2.533  10.998  0.2051  0.2647  0.1284
 1434W        W 5498   4.172   3.540   1.040  0.2430  0.1089  0.1268
 1435W        W 5499   6.887   7.204   3.775  0.1791  0.0499  0.2764
 1436W        W 5500   4.913   2.969   3.300 -0.2736  0.0729  0.3031
 1437W        W 5501   0.095   7.920   9.868 -0.1550 -0.3505  0.0384
 1438W        W 5502   7.769   2.240  10.321 -0.2222 -0.1621  0.0176
 1439W        W 5503   0.376   5.236   1.577 -0.0147  0.0658  0.1051
 1440W        W 5504   2.774   8.886   3.672  0.0626  0.1281 -0.1301
 1441W        W 5505   2.518   0.027   3.102 -0.0221  0.0553  0.1863
 1442W        W 5506   3.813   1.156  10.887 -0.1976  0.2029  0.0192
 1443W        W 5507  10.006   7.871   9.320 -0.1738  0.2330  0.0514
 1444W        W 5508   4.561   5.944   1.090  0.4275 -0.2151  0.0730
 1445W        W 5509   4.071   9.896   1.737 -0.1417  0.0611  0.2600
 1446W        W 5510   3.158   6.337  10.603  0.3479 -0.1458 -0.1501
 1447W        W 5511   8.979   8.150   2.533 -0.2002 -0.1117 -0.1089
 1448W        W 5512  10.382   5.480   2.521 -0.0728 -0.1164 -0.0950
 1449W        W 5513   2.092   9.164   3.255  0.0748 -0.1269  0.1664
 1450W        W 5514   8.080   3.674  11.589  0.0224 -0.0167  0.0090
 1451W        W 5515   8.693   6.311   2.818  0.0024  0.1057 -0.3420
 1452W        W 5516  10.574   1.277   8.457  0.2823  0.1963 -0.1519
 1453W        W 5517   0.682   5.589  10.991 -0.3230  0.3185  0.0384
 1454W        W 5518   1.781   2.868  10.046 -0.1265  0.2192 -0.3568
 1455W        W 5519   8.147   7.663  10.982  0.2546 -0.0502  0.1381
 1456W        W 5520   5.646   2.780   9.047  0.1691 -0.0352 -0.3053
 1457W        W 5521   7.649   4.854  10.194  0.0308  0.0992  0.0407
 1458W        W 5522   7.763   7.940   8.740  0.1257  0.2549  0.2865
 1459W        W 5523   1.104   9.049   0.760  0.0086  0.1130 -0.1503
 1460W        W 5524   8.075   4.052   3.151 -0.1580  0.0480  0.1790
 1461W        W 5525   6.806   0.116   9.834 -0.2390  0.2207  0.1072
 1462W        W 5526   8.062   6.260  10.112 -0.0892 -0.0579 -0.2002
 1463W        W 5527   1.810  10.181   1.146 -0.2221  0.1672 -0.3416
 1464W        W 5528   0.981   3.209   9.472 -0.1547 -0.0232  0.1684
 1465W        W 5529   1.871   6.427   8.295  0.0704 -0.2929  0.2013
 1466W        W 5530   1.369   5.914   3.910 -0.1825 -0.1854  0.2292
 1467W        W 5531   9.901   9.633   8.084  0.2212  0.0168  0.0380
 1468W        W 5532   2.569   1.143  10.255 -0.0855  0.2461  0.2265
 1469W        W 5533   1.489   2.439   0.854  0.0394 -0.0972 -0.1635
 1470W        W 5534   1.613   7.402   3.569 -0.1651 -0.0781  0.0937
 1471W        W 5535   3.296   5.340   1.732  0.3116  0.3563 -0.0875
 1472W        W 5536   0.389   1.082   2.684 -0.0126 -0.0781 -0.0527
 1473W        W 5537   2.868   7.753  10.730 -0.3361 -0.2854 -0.0135
 1474W        W 5538   6.236  10.510   2.483  0.2977 -0.0690 -0.2325
 1475W        W 5539  10.409   5.375   9.670  0.3003  0.2964 -0.0705
 1476W        W 5540   8.040   1.106   8.447 -0.0078  0.1161 -0.1547
 1477W        W 5541   5.024   0.135   0.947 -0.0192 -0.1317 -0.2457
 1478W        W 5542   1.576   4.022   0.307 -0.0700  0.2748  0.0867
 1479W        W 5543   7.415   6.446   0.490  0.0769 -0.2890  0.1212
 1480W        W 5544   2.353   7.524   0.113 -0.1278  0.0236 -0.1711
 1481W        W 5545   6.279   8.585  11.256 -0.0647 -0.3551 -0.1598
 1482W        W 5546   1.377   4.531   2.169 -0.5067 -0.1750 -0.2460
 1483W        W 5547   0.721   2.163  10.033  0.1227 -0.4161 -0.0141
 1484W        W 5548   5.497   7.314   1.485  0.1797  0.1589 -0.0441
 1485W        W 5549   1.258   6.585   9.628  0.0804  0.1282 -0.0830
 1486W        W 5550   4.496   8.163   1.665  0.2274 -0.1216 -0.2748
 1487W        W 5551   5.100   1.956  11.253 -0.2809  0.2921 -0.2398
 1488W        W 5552   0.369   6.960   8.997  0.1005  0.1744 -0.1418
 1489W        W 5553   7.919   1.137   8.954 -0.0435 -0.1511 -0.1454
 1490W        W 5554   1.765   6.193   9.215 -0.1035  0.2391 -0.0241
 1491W        W 5555   8.506   5.784   0.432  0.1426  0.2505  0.4315
 1492W        W 5556   8.085   6.196   9.175  0.1605  0.1332  0.1363
 1493W        W 5557   0.237   7.332   1.883 -0.5818  0.1382  0.1800
 1494W        W 5558   3.503   9.458   1.190 -0.2807  0.2186  0.1671
 1495W        W 5559   8.964   4.201  10.637  0.2444 -0.1208  0.0215
 1496W        W 5560   0.730  10.067   1.640 -0.1644 -0.1101  0.2356
 1497W        W 5561   7.014   5.362   1.584 -0.1242 -0.0908  0.1460
 1498W        W 5562   6.948   6.260   0.225 -0.2778 -0.4335 -0.4052
 1499W        W 5563   0.381   4.400   8.933 -0.0341 -0.0603  0.1045
 1500W        W 5564   2.394   1.094   1.069 -0.3170  0.0976  0.1267
 1501W        W 5565   4.103   4.201   8.590 -0.0669 -0.1195  0.1631
 1502W        W 5566   4.129   3.709   8.366 -0.1314 -0.0707 -0.1730
 1503W        W 5567   6.257   6.192   8.626 -0.2132  0.2390 -0.1498
 1504W        W 5568   3.208   1.430  11.021 -0.0850  0.1533 -0.3232
 1505W        W 5569   4.138   9.804   9.871  0.3782 -0.2057 -0.0067
 1506W        W 5570   2.056   3.728  10.492  0.0267  0.0575 -0.3174
 1507W        W 5571   5.811  10.550   8.744  0.2023 -0.1092 -0.4260
 1508W        W 5572   8.124   2.226   2.223 -0.0161  0.0816 -0.3695
 1509W        W 5573   1.268   3.866   0.856 -0.1021 -0.1630 -0.2418
 1510W        W 5574   4.272   1.656  11.001 -0.0025 -0.0172  0.1133
 1511W        W 5575   0.932   1.322   0.659  0.1515 -0.0707 -0.2162
 1512W        W 5576   0.093   3.341   9.461 -0.0552  0.1477 -0.2359
 1513W        W 5577   7.741  10.583   2.485 -0.3770  0.1636 -0.2599
 1514W        W 5578   1.319   4.891  10.202  0.1190 -0.1950  0.1158
 1515W        W 5579   0.766   5.051  10.766 -0.0075 -0.2784  0.1468
 1516W        W 5580   6.770   5.093   0.198 -0.2095 -0.0056 -0.4004
 1517W        W 5581   3.340   9.705   0.164 -0.2030 -0.2979  0.0584
 1518W        W 5582   5.229   0.553   1.386 -0.2961  0.1095 -0.2432
 1519W        W 5583   8.046   6.680  11.504  0.0246  0.2516  0.1657
 1520W        W 5584   6.717   0.283   2.445  0.1620 -0.2889  0.0058
 1521W        W 5585   6.463   7.526   9.343  0.0681 -0.1659 -0.0255
 1522W        W 5586   2.191   7.105  10.339 -0.0432  0.0380 -0.0293
 1523W        W 5587   3.819   2.350   1.485 -0.0747 -0.1983  0.1336
 1524W        W 5588   0.417   5.590   0.496  0.2053 -0.5260 -0.0535
 1525W        W 5589   9.822  10.518   8.944 -0.3382  0.1231 -0.0912
 1526W        W 5590   4.033   2.604   2.703  0.1505  0.0185  0.0461
 1527W        W 5591   6.887   7.948  10.005  0.1804 -0.1284  0.2097
 1528W        W 5592   2.419   3.756   0.387  0.2521 -0.0843 -0.3162
 1529W        W 5593   2.289   0.610   2.253 -0.0638  0.2149 -0.0988
 1530W        W 5594   0.676   4.964   2.569 -0.2800  0.0382 -0.0147
 1531W        W 5595   8.851   1.811   2.736 -0.2873 -0.2339  0.1561
 1532W        W 5596   0.631   0.483   2.124 -0.1137  0.2768  0.1165
 1533W        W 5597   9.737   6.409  10.414  0.2826 -0.0942 -0.0295
 1534W        W 5598   4.051   7.921   9.520  0.1370  0.2080 -0.2357
 1535W        W 5599   5.274   3.944   0.864 -0.3256  0.1019  0.1048
 1536W        W 5600   5.094   0.304   8.189 -0.0667 -0.1506  0.3886
 1537W        W 5601   7.454   0.991  11.453  0.0717  0.1082 -0.2294
 1538W        W 5602   4.084   4.786   8.527 -0.3015 -0.0371  0.5128
 1539W        W 5603  10.363   6.529   2.852  0.2044  0.2665 -0.3056
 1540W        W 5604   4.089   3.286   8.961 -0.1092 -0.2005 -0.0909
 1541W        W 5605   9.784   6.634  11.213 -0.1067  0.2064  0.4382
 1542W        W 5606   4.815   4.282   0.256  0.2056  0.1543  0.0105
 1543W        W 5607   2.841   6.752   3.284  0.2046  0.2309 -0.1717
 1544W        W 5608   8.105   9.071   2.557  0.0985  0.1823 -0.1762
 1545W        W 5609   4.289   5.779   1.528  0.1810  0.1654 -0.0055
 1546W        W 5610  10.544   3.068   1.929  0.1726  0.1001  0.0234
 1547W        W 5611   2.261   5.347   3.852  0.3142  0.1832  0.0245
 1548W        W 5612   5.763   3.514  10.542  0.2499  0.0861  0.0785
 1549W        W 5613   1.224   7.078   9.694  0.1114  0.0305  0.0155
 1550W        W 5614   8.776   6.813  10.034  0.2439  0.2287  0.3977
 1551W        W 5615   2.382   0.135   2.539 -0.2662 -0.0183  0.1060
 1552W        W 5616   6.993   5.548  11.180  0.0433 -0.1334  0.0297
 1553W        W 5617   3.638   8.101   3.243 -0.0225 -0.1558  0.1007
 1554W        W 5618   7.556  10.443   9.238 -0.0537 -0.1784  0.0486
 1555W        W 5619   9.142   8.271   9.716  0.4634  0.2486 -0.2367
 1556W        W 5620   9.372   9.751   1.314 -0.1106  0.1626 -0.0546
 1557W        W 5621   6.392   4.279  10.403  0.0655  0.3821  0.1083
 1558W        W 5622   8.422   1.684  10.949 -0.2042  0.1985 -0.0031
 1559W        W 5623   3.229   0.080   8.875  0.2168  0.2006 -0.0482
 1560W        W 5624   5.370   3.097   0.391 -0.0525  0.2120 -0.1738
 1561W        W 5625   6.576   8.978   2.628 -0.1678 -0.0311  0.0948
 1562W        W 5626   7.105   0.559   9.118  0.1753 -0.1443 -0.3071
 1563W        W 5627   1.058   0.315  11.129  0.2898 -0.1276 -0.2101
 1564W        W 5628   2.508   3.285   2.559 -0.1822  0.0416  0.4186
 1565W        W 5629   9.609   2.059   2.534  0.2358  0.0321  0.0229
 1566W        W 5630   1.689   7.124   9.948 -0.0857  0.2152  0.0964
 1567W        W 5631   5.110   4.616  10.909 -0.1780 -0.1076 -0.0824
 1568W        W 5632   6.075   4.633  11.149 -0.0426 -0.3956 -0.3051
 1569W        W 5633   6.024   2.022   9.129  0.1937  0.0232 -0.2979
 1570W        W 5634   0.710   0.360   9.354  0.3706 -0.0940 -0.2216
 1571W        W 5635   5.746   5.872   9.384 -0.1706  0.2265 -0.3419
 1572W        W 5636  10.556   6.125   3.064 -0.0297 -0.0323 -0.0732
 1573W        W 5637   9.319   2.836   2.325  0.0158 -0.0431 -0.2880
 1574W        W 5638   8.214   0.114   3.371 -0.3955 -0.2931  0.0371
 1575W        W 5639   6.899   2.175   9.316 -0.6090 -0.2989 -0.0163
 1576W        W 5640   3.538   7.302   2.967 -0.0807 -0.4225 -0.1328
 1577W        W 5641   2.938   5.160   0.675  0.0891 -0.2086 -0.1246
 1578W        W 5642   2.177   8.206   4.373  0.0025 -0.0406 -0.1711
 1579W        W 5643   2.306   8.359  10.627  0.0242  0.0902 -0.0799
 1580W        W 5644   7.315   0.355  10.588 -0.0832  0.0507 -0.2482
 1581W        W 5645   3.385   7.372   1.880  0.0634  0.0828  0.0029
 1582W        W 5646   5.397   9.147  10.690 -0.1055 -0.0689 -0.0630
 1583W        W 5647   0.739   1.963   8.710 -0.0499 -0.1546 -0.3134
 1584W        W 5648   4.023   9.457   1.410  0.1701  0.0820  0.1363
 1585W        W 5649   2.199   3.610   1.186 -0.3091  0.3481 -0.0098
 1586W        W 5650   9.940   1.948   0.338  0.0888  0.2388 -0.2365
 1587W        W 5651   5.354   6.532   3.659  0.0164  0.0342  0.2672
 1588W        W 5652   0.926   2.899   2.504 -0.1888 -0.2740  0.0836
 1589W        W 5653   4.065   8.331   0.523  0.1143 -0.0401  0.2526
 1590W        W 5654   0.762   3.512   0.345 -0.0547 -0.0717 -0.1376
 1591W        W 5655   8.636   1.057  10.119  0.1514  0.0781 -0.4134
 1592W        W 5656   6.149   7.467   9.725  0.1431 -0.0526  0.1372
 1593W        W 5657   6.994   9.761  11.571  0.5053 -0.3576 -0.1478
 1594W        W 5658   9.230   5.541   0.136  0.1218  0.2424 -0.1105
 1595W        W 5659   7.716   0.372   0.343 -0.0711 -0.4429 -0.2019
 1596W        W 5660   4.316  10.349   9.380  0.3350 -0.1721  0.2458
 1597W        W 5661   3.151   1.538  10.258 -0.1663 -0.1601  0.0136
 1598W        W 5662   9.599   7.329   0.668  0.1202 -0.1232  0.2976
 1599W        W 5663  10.209   2.696   2.103 -0.1600 -0.1651 -0.0130
 1600W        W 5664   0.133   7.390   9.753  0.1604 -0.0288 -0.0505
 1601W        W 5665   3.551   4.100   9.113  0.0311  0.0977  0.0240
 1602W        W 5666   9.046  10.150   0.068 -0.1627 -0.0612 -0.0765
 1603W        W 5667   3.208   8.621   2.699 -0.0560 -0.1383 -0.2881
 1604W        W 5668   4.162   3.113   2.769  0.1312 -0.2609  0.1408
 1605W        W 5669   0.283   6.453   8.760 -0.4686  0.0780  0.1020
 1606W        W 5670   8.874   9.515   1.225 -0.1077  0.2990 -0.1651
 1607W        W 5671   6.287   7.965   9.144  0.0413 -0.0002  0.0064
 1608W        W 5672   0.984   5.858  10.564 -0.1276  0.0930 -0.1463
 1609W        W 5673   2.308   1.972   1.557 -0.0451  0.1233 -0.0787
 1610W        W 5674   6.432   7.511   8.394  0.4329 -0.0592 -0.1570
 1611W        W 5675   1.089   3.066   1.685 -0.1265 -0.2083  0.0556
 1612W        W 5676   6.299  10.546   7.507  0.0448 -0.4358  0.1696
 1613W        W 5677   5.800   9.522   3.183  0.0542 -0.0253 -0.1488
 1614W        W 5678   9.625   1.733  11.505  0.2131 -0.1185 -0.0724
 1615W        W 5679   2.564   7.394   0.785  0.1947  0.0330 -0.3916
 1616W        W 5680   3.640   8.032   2.221  0.1169  0.0426  0.1778
 1617W        W 5681   2.777  10.394   2.434 -0.0079  0.1589 -0.3118
 1618W        W 5682   3.777   6.823   1.891  0.1654 -0.3439  0.0046
 1619W        W 5683   6.092   4.560  10.653  0.1262  0.0776 -0.0690
 1620W        W 5684   0.422   5.205  10.423 -0.0786  0.1335  0.2343
 1621W        W 5685   7.900   4.486  10.351 -0.2989  0.1515 -0.2596
 1622W        W 5686   3.951   7.253   4.033  0.3387  0.1704  0.2231
 1623W        W 5687   0.724   7.259   3.583 -0.0604  0.5001 -0.1472
 1624W        W 5688   3.033   2.757   1.840  0.1665  0.0792 -0.0095
 1625W        W 5689   7.278   7.495   3.597 -0.2475 -0.0007 -0.1832
 1626W        W 5690   9.160   4.474   2.871  0.0940  0.1565 -0.1402
 1627W        W 5691  10.198   6.303   9.509  0.1878 -0.0072  0.1026
 1628W        W 5692   0.979   0.548  11.664 -0.1617 -0.0178  0.1057
 1629W        W 5693   4.477   0.751  11.236 -0.2174  0.1833 -0.3386
 1630W        W 5694   9.955   5.235  11.411  0.0935  0.0503  0.0369
 1631W        W 5695   1.087   6.208   0.481 -0.1032 -0.0031  0.0071
 1632W        W 5696   6.322   5.081   0.396  0.1078 -0.0749  0.0375
 1633W        W 5697   0.923   7.958   4.252 -0.0509  0.0258 -0.2465
 1634W        W 5698   0.093   7.083   3.687  0.4554 -0.0339 -0.0873
 1635W        W 5699   2.560   3.909   0.778  0.0281  0.0133 -0.4224
 1636W        W 5700   9.394   2.996   1.480  0.0714 -0.1496  0.0694
 1637W        W 5701   1.662   7.663  10.676  0.0261  0.1130  0.0556
 1638W        W 5702   9.236   0.059  11.357  0.0864 -0.0252 -0.3235
 1639W        W 5703   1.113   4.580   9.821 -0.0989 -0.1036 -0.0561
 1640W        W 5704   5.706   1.764   8.041  0.0283  0.3283 -0.2763
 1641W        W 5705   7.018   6.684   3.886  0.2388  0.0203  0.5116
 1642W        W 5706   8.833   4.738   2.234  0.1178  0.0875  0.4371
 1643W        W 5707   5.039  10.079   2.639 -0.0986  0.1052  0.2044
 1644W        W 5708   4.287  10.245  11.662  0.0180  0.1914 -0.0423
 1645W        W 5709   2.836   2.955   0.858  0.3483  0.3237  0.0319
 1646W        W 5710   0.190   3.709   9.057 -0.3136  0.3844 -0.1273
 1647W        W 5711   2.835   9.530   9.011 -0.1417 -0.0614  0.5476
 1648W        W 5712   8.368   7.245   1.355 -0.1560 -0.4996  0.0795
 1649W        W 5713   8.393   4.186   9.687  0.2184 -0.3705 -0.1816
 1650W        W 5714   1.522   6.056  10.475 -0.0229 -0.2625 -0.0540
 1651W        W 5715   0.356   8.131   3.615  0.0161 -0.4517  0.1033
 1652W        W 5716   6.406   6.115   1.931 -0.1783  0.1080 -0.0760
 1653W        W 5717   5.705   5.856  10.901 -0.1868 -0.0038 -0.2136
 1654W        W 5718   6.381   5.919   9.048 -0.3777  0.3075  0.2885
 1655W        W 5719   1.243  10.134   3.189  0.0106 -0.0182 -0.1617
 1656W        W 5720   2.273   8.296   8.437 -0.0965  0.0471 -0.0566
 1657W        W 5721   6.854   2.144   0.039 -0.0299  0.0271  0.0708
 1658W        W 5722   8.234   3.470   3.089 -0.1770 -0.0397  0.1204
 1659W        W 5723   7.915   8.273  10.433 -0.0815 -0.2570  0.1486
 1660W        W 5724   3.374   7.113   3.494  0.0872 -0.0320  0.1288
 1661W        W 5725   2.977   6.447   2.045 -0.1078 -0.0899 -0.0269
 1662W        W 5726   6.029   6.494  10.971 -0.1888  0.2106  0.3359
 1663W        W 5727   5.951   0.035   1.234  0.0736 -0.0162 -0.0030
 1664W        W 5728   9.747  10.215   1.360  0.0617  0.1430  0.0932
 1665W        W 5729   3.297   5.955   1.762 -0.0289  0.2091 -0.2607
 1666W        W 5730   6.769   4.931   3.545  0.0445 -0.0259 -0.2662
 1667W        W 5731   5.370   1.084  11.463  0.2342  0.0791  0.1706
 1668W        W 5732   1.757   5.322  11.118  0.3640  0.2187  0.1119
 1669W        W 5733   6.162   3.203  10.278  0.0813  0.0871  0.4543
 1670W        W 5734   8.262   6.008   1.611 -0.1297 -0.0441 -0.2002
 1671W        W 5735   3.359   1.363   0.921 -0.2914 -0.3032 -0.2005
 1672W        W 5736   8.626   0.676   0.652  0.1613 -0.4222  0.5687
 1673W        W 5737   4.614   9.710  10.674  0.0737 -0.0262 -0.1201
 1674W        W 5738   6.292   8.288   4.219 -0.1703 -0.3043 -0.1546
 1675W        W 5739   2.187   4.996   3.219 -0.1333 -0.1386  0.3439
 1676W        W 5740   7.354   4.499  11.489 -0.2168 -0.1570 -0.0030
 1677W        W 5741   2.181   9.926  11.108  0.2873  0.2874  0.3493
 1678W        W 5742   2.418   5.207   1.033 -0.0186  0.0045  0.0173
 1679W        W 5743   2.953   9.704   3.116  0.3231  0.0082  0.2218
 1680W        W 5744   9.036   7.473  11.358  0.3494  0.1079 -0.0408
 1681W        W 5745   9.507   8.784   2.382  0.2064 -0.1003  0.0218
 1682W        W 5746   0.092   6.798  11.390  0.2023  0.2303  0.1870
 1683W        W 5747  10.279   8.150   2.814 -0.1383 -0.2031  0.2569
 1684W        W 5748   6.087   1.342   2.343  0.2844 -0.0043 -0.2474
 1685W        W 5749   9.783   5.971   9.656  0.0061 -0.1000  0.2859
 1686W        W 5750   1.545   2.473  11.074 -0.0008 -0.0346 -0.1511
 1687W        W 5751   9.137   8.267   3.245 -0.2395  0.3910  0.0972
 1688W        W 5752   8.218   1.839  10.504  0.6069 -0.0664  0.1470
 1689W        W 5753   9.344   1.515   2.440 -0.1056  0.0538 -0.1191
 1690W        W 5754   6.123   1.669   0.537  0.2709  0.0540  0.3893
 1691W        W 5755   6.662   1.699   1.542 -0.1326 -0.1004  0.1398
 1692W        W 5756  10.262   0.233   9.175 -0.2834  0.1254  0.1802
 1693W        W 5757   2.041   4.325  11.340 -0.2370  0.3670  0.2034
 1694W        W 5758   4.335   3.597   9.249  0.1831  0.0413  0.1879
 1695W        W 5759   3.460   3.838   0.477 -0.4938  0.1984  0.2439
 1696W        W 5760   3.132   3.407   8.523 -0.1485 -0.1219  0.0089
 1697W        W 5761   7.131   8.600   9.925  0.0782 -0.1126 -0.0514
 1698W        W 5762   3.715   1.148   2.405 -0.1290 -0.3447 -0.2357
 1699W        W 5763   7.833   7.307   9.393  0.2965  0.1759  0.1505
 1700W        W 5764   0.407   2.303   1.484 -0.1944  0.4187  0.1276
 1701W        W 5765   2.006   4.227   0.184 -0.4179  0.1856  0.0704
 1702W        W 5766   1.355   7.345   8.652 -0.1491 -0.0890 -0.0402
 1703W        W 5767   2.811   7.855   9.579 -0.3374  0.3802 -0.0191
 1704W        W 5768   6.550   3.862   1.647  0.1289  0.3028 -0.1622
 1705W        W 5769   7.988   3.624   3.701 -0.1243  0.2645 -0.2523
 1706W        W 5770   6.983   6.713   0.465  0.1557 -0.3454  0.1007
 1707W        W 5771   8.017   0.010   7.729  0.2194 -0.0323 -0.1052
 1708W        W 5772   5.930   0.325   9.704 -0.1682 -0.1249  0.2493
 1709W        W 5773   5.129   0.598   0.904 -0.0074 -0.3262 -0.0140
 1710W        W 5774   4.369   5.673  10.458 -0.2126 -0.3498  0.2957
 1711W        W 5775   8.080   4.609   4.467 -0.0742 -0.0883  0.0487
 1712W        W 5776   8.014   7.249   0.999 -0.4850  0.0550 -0.2497
 1713W        W 5777   7.488   1.278   0.595 -0.2981  0.1018  0.1073
 1714W        W 5778   8.207   6.178  10.659 -0.0517 -0.1657 -0.1397
 1715W        W 5779   5.085   9.416   0.149 -0.0838 -0.0827  0.1223
 1716W        W 5780  10.112   4.463   9.999  0.1294 -0.2295  0.1917
 1717W        W 5781   9.957   8.222   0.445  0.2709 -0.2707 -0.1296
 1718W        W 5782   7.581   1.533   3.573 -0.0323  0.3483 -0.1538
 1719W        W 5783   3.552   3.004   8.941  0.1768  0.1187  0.3136
 1720W        W 5784   4.929   5.768  11.074 -0.1266  0.1824 -0.0804
 1721W        W 5785   5.859   6.160   0.291  0.1725  0.2664 -0.2281
 1722W        W 5786   6.914   6.176   1.945  0.1349 -0.0670  0.0990
 1723W        W 5787   6.133   5.413   0.014 -0.1432  0.1508  0.0299
 1724W        W 5788   9.374   1.073   2.682 -0.0495 -0.0146 -0.0251
 1725W        W 5789   5.388   5.576   3.845 -0.0487 -0.2316 -0.2154
 1726W        W 5790   3.898   5.316   9.708 -0.1501 -0.0602 -0.1237
 1727W        W 5791   1.303   8.553  10.823 -0.2486 -0.0302 -0.0829
 1728W        W 5792   7.558   8.638   0.525 -0.3022  0.0857 -0.2371
 1729W        W 5793   8.524   7.438   2.293  0.0977  0.1950  0.0385
 1730W        W 5794   3.936   3.955  11.447 -0.0923 -0.1889 -0.2603
 1731W        W 5795   3.788   5.324   3.237 -0.1065 -0.0340  0.0190
 1732W        W 5796   2.080   1.455  11.333  0.0845 -0.0345  0.2955
 1733W        W 5797   2.592  10.090  10.798  0.3779  0.3764  0.3074
 1734W        W 5798   8.564   3.921   2.971  0.2199 -0.0630  0.3346
 1735W        W 5799  10.284   8.704   1.693  0.1124  0.0600  0.0847
 1736W        W 5800   0.297   0.323   3.914  0.2495  0.2509 -0.1251
 1737W        W 5801   7.508   8.060  10.856 -0.1809 -0.2015 -0.1265
 1738W        W 5802   2.133   1.199   0.107 -0.0076 -0.0651 -0.0656
 1739W        W 5803   3.669   7.537   3.687  0.3653 -0.1710  0.3907
 1740W        W 5804   0.532   8.586   8.419  0.0810  0.0850  0.0750
 1741W        W 5805   4.814   2.781   0.506  0.0387  0.0892 -0.2976
 1742W        W 5806   6.719   5.850   0.266 -0.0304  0.0889 -0.1040
 1743W        W 5807   7.526   7.946   7.408 -0.0158 -0.2263  0.2134
 1744W        W 5808   9.630   6.337   3.267  0.1597 -0.0292 -0.2371
 1745W        W 5809   6.054   9.182   2.414  0.1880 -0.1367 -0.3390
 1746W        W 5810   1.254   9.001   0.185 -0.2706  0.0824  0.3377
 1747W        W 5811   0.635   2.567   1.116 -0.1414 -0.2560 -0.0229
 1748W        W 5812   9.862   3.981  10.142 -0.1722 -0.4292  0.0478
 1749W        W 5813   7.722   1.600  11.282 -0.1676 -0.2240 -0.0528
 1750W        W 5814   4.422   0.417   0.268 -0.0210 -0.0295  0.0675
 1751W        W 5815   8.609   3.075   1.866  0.1745  0.2090  0.2509
 1752W        W 5816   3.084   0.392  11.326  0.0583 -0.0510 -0.0814
 1753W        W 5817   4.633   6.210   0.638  0.1166  0.1387  0.2273
 1754W        W 5818   1.586   2.938  11.191 -0.1936  0.0276  0.0641
 1755W        W 5819   0.880   4.717  11.684  0.2148  0.0772 -0.3429
 1756W        W 5820   7.770   7.799   0.247 -0.1860  0.0845  0.1452
 1757W        W 5821   8.145   9.696   1.398 -0.2112  0.0642  0.1798
 1758W        W 5822   6.513  10.065   9.465  0.1862  0.1983  0.1833
 1759W        W 5823   2.397   3.258  10.041  0.0007 -0.1961  0.0230
 1760W        W 5824   2.539   8.527   8.789 -0.5209 -0.0807  0.0309
 1761W        W 5825   3.606   8.303   2.751 -0.3172  0.1831 -0.0205
 1762W        W 5826   7.378   6.594   2.552 -0.1960 -0.1099 -0.0468
 1763W        W 5827   9.107   6.285   3.697 -0.0501 -0.1170  0.1212
 1764W        W 5828   7.668   8.540  10.849  0.0207 -0.0500 -0.1399
 1765W        W 5829   2.005  10.231  10.723 -0.0754  0.0170 -0.1201
 1766W        W 5830   3.073  10.241   0.819  0.0319 -0.1201  0.0880
 1767W        W 5831   8.407   9.379  10.222 -0.2262  0.1963  0.0260
 1768W        W 5832   1.260   7.999  10.048 -0.0146  0.3722  0.0282
 1769W        W 5833   3.036   9.680   3.613 -0.1286 -0.0599  0.0703
 1770W        W 5834   9.176   8.800   9.562  0.1942 -0.1564 -0.0768
 1771W        W 5835   6.800   5.726   0.983  0.3068  0.0895  0.0493
 1772W        W 5836   7.398   0.710   3.031  0.1129  0.2376 -0.2583
 1773W        W 5837   4.013   1.386  10.428 -0.0716 -0.2435  0.0272
 1774W        W 5838   0.233   0.390   9.079  0.1760  0.0878  0.1308
 1775W        W 5839   3.021   2.860  10.742  0.0683 -0.1851 -0.1228
 1776W        W 5840   6.482   3.396   9.343  0.0541  0.2269  0.4171
 1777W        W 5841   6.409   2.759   4.074 -0.5551  0.1086  0.3415
 1778W        W 5842   2.057   2.319   0.813  0.2172 -0.3517  0.1326
 1779W        W 5843   6.720  10.119   7.930 -0.0602 -0.2311 -0.0166
 1780W        W 5844   3.612   5.684   8.186  0.1604  0.0315  0.0575
 1781W        W 5845   8.866   1.224   9.235  0.0276  0.3390 -0.1218
 1782W        W 5846   2.194   3.089   9.437 -0.3171  0.0146  0.0618
 1783W        W 5847   5.724   4.337   8.678 -0.0303  0.2436 -0.3064
 1784W        W 5848   3.426   1.155  10.578  0.1030  0.0639  0.0451
 1785W        W 5849   5.815   6.257   3.655  0.0101 -0.0866  0.0736
 1786W        W 5850   4.401   1.845  10.319  0.1859 -0.3191 -0.0319
 1787W        W 5851  10.064   5.757   0.536  0.1249 -0.1888 -0.2931
 1788W        W 5852   4.005   5.453   1.913  0.0768 -0.3881 -0.2749
 1789W        W 5853   3.705   0.398   9.191 -0.0224  0.0957  0.1492
 1790W        W 5854   5.200   8.916   9.695 -0.2823 -0.0190  0.3550
 1791W        W 5855   1.004   5.989   1.515 -0.0429 -0.0051 -0.1252
 1792W        W 5856   2.432   4.055  11.649  0.0734  0.0582 -0.0530
 1793W        W 5857   8.730   8.465   2.160  0.2608  0.4214 -0.3906
 1794W        W 5858   7.978   3.790   2.742  0.0753  0.1898  0.0855
 1795W        W 5859   8.139   9.949   9.378  0.2440  0.1389 -0.0829
 1796W        W 5860   3.327   0.810  11.046 -0.0890 -0.2357  0.3231
 1797W        W 5861   8.371   2.332   9.732  0.1305 -0.0786  0.1969
 1798W        W 5862   0.087   4.884   8.132 -0.0848 -0.2614  0.4938
 1799W        W 5863   2.439   1.071   1.764  0.0383  0.2338 -0.0943
 1800W        W 5864   6.590  10.532   3.803 -0.3837 -0.1650  0.1998
 1801W        W 5865   8.197   5.471  11.108  0.0653  0.1951 -0.2869
 1802W        W 5866   7.965   4.902   2.016 -0.0559 -0.1114  0.0792
 1803W        W 5867   8.912   1.012  10.964  0.1288  0.2971  0.2732
 1804W        W 5868   0.622   7.583   7.542 -0.0103 -0.0356  0.2158
 1805W        W 5869   6.890   7.821   1.395  0.1412 -0.0464  0.0595
 1806W        W 5870   0.606   1.163   9.239 -0.2983 -0.0317  0.1700
 1807W        W 5871   6.969   2.131  11.142  0.1996 -0.2319  0.2394
 1808W        W 5872   0.137   4.181   0.576 -0.2244 -0.3360  0.0626
 1809W        W 5873   5.044   7.846  10.454 -0.0952 -0.0066  0.0719
 1810W        W 5874   9.944   5.570   3.724 -0.0869  0.3767 -0.1516
 1811W        W 5875   6.977   0.154  10.929 -0.0875  0.1919  0.0117
 1812W        W 5876   5.650   6.310  10.744  0.1650 -0.3074  0.3546
 1813W        W 5877   9.189   0.537   8.338  0.0421  0.0681 -0.0022
 1814W        W 5878   8.021   3.919   0.788  0.0335  0.0704 -0.2132
 1815W        W 5879   2.577   4.848   2.938 -0.2815  0.0324  0.2571
 1816W        W 5880  10.119   0.756  10.091  0.1580 -0.1618 -0.0258
 1817W        W 5881   4.742   1.510  11.024  0.1440 -0.0411 -0.1418
 1818W        W 5882   9.263   1.945  11.090  0.1325 -0.0305  0.0421
 1819W        W 5883   9.223   3.451   8.967 -0.0419  0.1072 -0.1141
 1820W        W 5884   2.703   3.840   1.958 -0.2475 -0.2172 -0.0606
 1821W        W 5885   5.048   9.797   9.910 -0.2848 -0.1223 -0.3108
 1822W        W 5886   1.273   0.384   2.522 -0.3087  0.1502 -0.2328
 1823W        W 5887   3.026   9.252   0.462  0.2180 -0.3376  0.0631
 1824W        W 5888   0.805   4.815   9.463 -0.1468  0.1791 -0.3377
 1825W        W 5889   9.443   0.402   0.018 -0.0222 -0.2875  0.0811
 1826W        W 5890   4.581   1.427   3.038 -0.1924  0.0270 -0.0130
 1827W        W 5891   8.906   7.428   0.954 -0.0003 -0.2375  0.0003
 1828W        W 5892   9.499   8.708  11.498  0.1152 -0.2462 -0.2822
 1829W        W 5893   7.409   8.998  11.258  0.0647  0.1872  0.2780
 1830W        W 5894   0.995   3.897   9.539  0.0236 -0.4533 -0.0005
 1831W        W 5895   8.317   2.643   3.048 -0.1389  0.0496  0.1069
 1832W        W 5896   6.136   6.359   1.605  0.0941 -0.3141 -0.1481
 1833W        W 5897   0.076   1.161   1.196 -0.1019 -0.2920  0.1443
 1834W        W 5898   3.669   0.407   0.823 -0.0162 -0.0706 -0.1813
 1835W        W 5899   6.700  10.416   2.239 -0.2284  0.1278 -0.1401
 1836W        W 5900   6.378   8.541   2.831 -0.2231  0.1282  0.0509
 1837W        W 5901   1.355   3.590   9.351 -0.0213  0.3662 -0.0496
 1838W        W 5902   1.561   6.249   1.662  0.0698  0.1455  0.1266
 1839W        W 5903   7.829   0.454   7.855  0.1051 -0.0721 -0.1402
 1840W        W 5904   5.219   9.457  10.323 -0.0549  0.0204 -0.0035
 1841W        W 5905   2.297   3.428   8.855 -0.1454 -0.1501  0.3494
 1842W        W 5906   0.018   6.126   8.477 -0.2290 -0.2785  0.1108
 1843W        W 5907   7.866   7.955  10.022  0.5184 -0.2329 -0.1875
 1844W        W 5908   0.264   4.912   9.070 -0.3546 -0.0774  0.1193
 1845W        W 5909   3.231   2.236  10.055 -0.2635 -0.0123  0.2051
 1846W        W 5910   4.052   2.620   8.992  0.6502  0.2515 -0.1253
 1847W        W 5911   4.394   6.264  10.393  0.1735  0.1742 -0.0358
 1848W        W 5912   4.642   5.563  10.071 -0.0721 -0.0422 -0.0137
 1849W        W 5913   4.837   0.998   9.310 -0.1013  0.2363 -0.1174
 1850W        W 5914   1.641   6.082  11.543  0.0882  0.0028 -0.1440
 1851W        W 5915   4.835   5.607  10.607  0.0546 -0.3168  0.1637
 1852W        W 5916   1.302   1.093   2.581  0.2580  0.0460 -0.2290
 1853W        W 5917   4.549   6.716   0.450  0.2218  0.0114  0.0072
 1854W        W 5918   4.346   2.824  10.638 -0.0895  0.0046  0.1663
 1855W        W 5919   7.397  10.135   0.465  0.0865  0.1054 -0.0477
 1856W        W 5920  10.577   2.635   7.802  0.0512 -0.1351  0.0081
 1857W        W 5921   8.582   2.165   0.054 -0.0855 -0.0398  0.0537
 1858W        W 5922   0.202   1.215   7.838 -0.0374 -0.3857 -0.0560
 1859W        W 5923   9.585   0.833   0.307  0.4017  0.1303  0.0489
 1860W        W 5924   4.634   8.610  11.123  0.1184 -0.1613 -0.0695
 1861W        W 5925   6.026   8.772   4.231  0.3136 -0.2561 -0.1684
 1862W        W 5926   8.025   3.607   2.224 -0.1034  0.0056 -0.2166
 1863W        W 5927   0.104   4.158   2.001  0.1208 -0.0298 -0.2352
 1864W        W 5928   9.972   1.892   1.095 -0.1147 -0.0793  0.2977
 1865W        W 5929   1.595   4.944   0.720 -0.1254 -0.1591  0.1108
 1866W        W 5930   8.623   5.723  11.007  0.2185 -0.0458  0.1778
 1867W        W 5931   1.339   2.790   0.517  0.0853 -0.0384  0.2351
 1868W        W 5932   8.961   8.394   8.879  0.0165  0.3940 -0.3302
 1869W        W 5933   9.936   2.000   8.460 -0.1671  0.3763 -0.0509
 1870W        W 5934  10.281   1.007   2.144  0.2732  0.2854 -0.0902
 1871W        W 5935   6.030   5.212   9.112 -0.3044  0.2585  0.3399
 1872W        W 5936   8.821   3.847   2.383  0.2486 -0.0359 -0.2322
 1873W        W 5937   7.118   8.530   2.716 -0.1293  0.1421 -0.0196
 1874W        W 5938   3.995   1.191   9.880 -0.0394  0.6202 -0.1080
 1875W        W 5939   7.062   7.493   9.893 -0.2143  0.3201 -0.1459
 1876W        W 5940   8.230   4.839  10.288  0.0864  0.0685 -0.1070
 1877W        W 5941   1.168   7.964   7.948 -0.2206  0.3215  0.0934
 1878W        W 5942   7.488   7.417   1.121 -0.0627  0.1039  0.3967
 1879W        W 5943   3.270   6.646   2.478 -0.1424  0.0887 -0.0699
 1880W        W 5944   3.937   6.371   8.296  0.0169  0.1147 -0.0660
 1881W        W 5945   5.067   6.304   0.304  0.0259 -0.0800  0.0128
 1882W        W 5946   6.129   4.604  10.031 -0.2403 -0.1858  0.0602
 1883W        W 5947   4.099   1.134   9.260 -0.1937  0.0865 -0.1090
 1884W        W 5948   8.910   0.664   9.343 -0.0261  0.2713 -0.0899
 1885W        W 5949   2.557   6.876  10.024  0.0692  0.1335  0.1800
 1886W        W 5950   8.940   0.144   4.271 -0.0816  0.1461 -0.0945
 1887W        W 5951   3.343   7.723   3.318  0.0857 -0.0887 -0.2070
 1888W        W 5952   9.833   0.355  10.037  0.2201 -0.2776 -0.5066
 1889W        W 5953   5.250  10.255   3.399  0.1233 -0.3984 -0.3195
 1890W        W 5954  10.077   0.428   1.245  0.2705 -0.1422 -0.1189
 1891W        W 5955   1.660   7.528   1.527  0.2623 -0.0497 -0.0007
 1892W        W 5956   3.760  10.495   3.033 -0.3899  0.0285  0.1490
 1893W        W 5957   6.616   5.094   1.691  0.2122  0.1236 -0.0587
 1894W        W 5958   6.957   9.318  10.176 -0.2535 -0.2197 -0.0728
 1895W        W 5959  10.463   4.093   2.954 -0.2387 -0.1173  0.1279
 1896W        W 5960   9.659   0.658   2.885  0.2810 -0.1000  0.0861
 1897W        W 5961   7.265   8.366  11.248  0.1293 -0.0873 -0.0141
 1898W        W 5962   9.788   5.842  10.255  0.2051 -0.1947  0.1232
 1899W        W 5963   2.871   8.770   0.229 -0.1012 -0.0263  0.1450
 1900W        W 5964   7.972   3.926  10.629  0.1090  0.0121 -0.1306
 1901W        W 5965   2.130   9.976   3.151 -0.0558 -0.0171  0.0045
 1902W        W 5966   7.409   3.232   1.020  0.0685  0.0748  0.0638
 1903W        W 5967   0.088   8.638  11.536 -0.3334  0.1876  0.1539
 1904W        W 5968  10.383   7.563   3.071 -0.1720  0.2812  0.3374
 1905W        W 5969   5.397   1.382  10.139 -0.0088  0.4339 -0.1695
 1906W        W 5970   1.336   2.147   1.838  0.3449 -0.0838 -0.1499
 1907W        W 5971   5.504   5.135  10.331 -0.0493  0.0935 -0.1009
 1908W        W 5972   0.280   0.198   0.132  0.1673  0.0173 -0.1066
 1909W        W 5973   1.963   4.846  11.043 -0.1997  0.0243 -0.3881
 1910W        W 5974  10.510   2.041   1.255 -0.2272  0.2696 -0.1311
 1911W        W 5975   7.968   0.043   1.154 -0.1482 -0.0956  0.2317
 1912W        W 5976   3.957   2.912  10.328  0.2586 -0.0037  0.1156
 1913W        W 5977   5.317   3.088   8.432 -0.2510  0.0401 -0.0760
 1914W        W 5978   2.360   7.901  10.843 -0.3893  0.0143 -0.1451
 1915W        W 5979   2.134   8.879  10.909  0.2938 -0.4366 -0.1519
 1916W        W 5980   7.677   7.906  11.319 -0.1850 -0.3579 -0.3450
 1917W        W 5981   8.310   2.679  10.869 -0.1683  0.0775  0.0416
 1918W        W 5982   9.398   9.022   0.298  0.1830  0.0002  0.1041
 1919W        W 5983   4.249   4.362  10.533  0.0503  0.0815 -0.1087
 1920W        W 5984   2.890   2.256   8.660  0.3945  0.1002 -0.1667
 1921W        W 5985   3.685   8.127  10.725  0.3297  0.1176  0.2185
 1922W        W 5986   2.998   4.188  10.596  0.3374  0.2041 -0.2414
 1923W        W 5987   4.383   6.094   8.155 -0.3847 -0.0119  0.2320
 1924W        W 5988   1.098   2.041   2.840  0.1854  0.1501 -0.1759
 1925W        W 5989   1.292   8.208   0.785  0.1232 -0.1008 -0.2341
 1926W        W 5990   5.135   8.001   8.813  0.0494  0.3061  0.2754
 1927W        W 5991   6.780   1.900   2.035  0.2548 -0.3341 -0.1050
 1928W        W 5992   5.164   6.908  10.098 -0.0114 -0.0018 -0.1349
 1929W        W 5993   3.675   6.356   2.471 -0.0744 -0.1331  0.0925
 1930W        W 5994   3.510   1.491   1.624  0.1715  0.2967 -0.1239
 1931W        W 5995   1.761   8.102   9.986  0.0117 -0.2666 -0.1983
 1932W        W 5996   3.228   1.963   0.886  0.3618 -0.1571  0.0778
 1933W        W 5997   8.451   9.486  10.760 -0.0379 -0.1613  0.1109
 1934W        W 5998   3.753   2.325   1.010  0.0570 -0.0557 -0.1325
 1935W        W 5999   3.309   8.337   4.302 -0.2405  0.2069 -0.1194
 1936W        W 6000   5.045   8.365   9.514 -0.0679 -0.0662 -0.1092
 1937W        W 6001   0.063  10.107   2.929  0.1261  0.2380 -0.0436
 1938W        W 6002   1.676   8.010  11.488  0.0895  0.1046 -0.0785
 1939W        W 6003   2.353   0.795   9.433 -0.0181  0.1164  0.1779
 1940W        W 6004   9.455   9.887   9.138 -0.0273 -0.0527 -0.1554
 1941W        W 6005   8.658   8.963   1.542  0.1749 -0.0503 -0.2068
 1942W        W 6006   0.232   3.878   7.807 -0.0008  0.0329 -0.2452
 1943W        W 6007   5.160   2.550   4.034 -0.1252  0.3011 -0.1567
 1944W        W 6008   2.890   6.308   7.759 -0.1883 -0.2598 -0.0834
 1945W        W 6009   0.711   9.516   8.254  0.0309 -0.0195  0.0603
 1946W        W 6010   8.592   4.300  10.965 -0.0734 -0.0042  0.0025
 1947W        W 6011   6.503   2.492   0.822 -0.0534  0.3546  0.0079
 1948W        W 6012   4.858   3.611   0.979 -0.1030 -0.0653  0.3282
 1949W        W 6013   1.879   8.647   0.409 -0.0173  0.1574  0.1199
 1950W        W 6014   8.576   7.789   2.627 -0.0030  0.0271 -0.2577
 1951W        W 6015   1.058   2.634  11.286  0.1128 -0.1773  0.1839
 1952W        W 6016   4.580  10.420   2.235 -0.1771  0.0314  0.0923
 1953W        W 6017   8.099   5.799   0.728  0.1588  0.2350 -0.2268
 1954W        W 6018   2.964   6.086  11.055  0.2229  0.1924  0.3122
 1955W        W 6019   4.711   0.700   2.421  0.1506 -0.3108 -0.1226
 1956W        W 6020   2.103   9.019   4.188  0.0538 -0.4481 -0.2177
 1957W        W 6021   2.644   5.366   8.103 -0.0632  0.0315  0.1847
 1958W        W 6022  10.565   6.753   0.319 -0.3254 -0.1367 -0.0386
 1959W        W 6023   8.327   9.385   0.389 -0.3167  0.0676 -0.0544
 1960W        W 6024   6.159   7.417   0.918 -0.1038  0.0295  0.4928
 1961W        W 6025   9.923   0.897   1.806  0.4351  0.0084  0.1599
 1962W        W 6026   4.976   5.580   3.475  0.2188  0.1074  0.3427
 1963W        W 6027   2.681   2.165   1.187 -0.1576  0.0551 -0.1702
 1964W        W 6028   2.025   5.730   3.182 -0.1001  0.0125  0.2038
 1965W        W 6029   0.560   7.766  10.712  0.1230 -0.0973 -0.0383
 1966W        W 6030   7.655  10.348   1.913  0.0375  0.0025  0.1707
 1967W        W 6031   8.639   1.460   7.115 -0.1767 -0.1232  0.0540
 1968W        W 6032   4.856  10.380   3.106 -0.0652  0.1392  0.1460
 1969W        W 6033   7.183   6.986   7.461  0.0286  0.5197 -0.0529
 1970W        W 6034  10.354   3.035   7.594 -0.1268 -0.0363 -0.2726
 1971W        W 6035   6.727   1.740  11.305 -0.1088  0.0418  0.0624
 1972W        W 6036   9.041   3.065   2.684 -0.1499  0.0867 -0.0909
 1973W        W 6037   0.798   5.708   3.488  0.1563  0.1967 -0.1575
 1974W        W 6038   9.533   9.983  10.549 -0.0906 -0.0652 -0.0006
 1975W        W 6039   6.546   3.706   2.178 -0.1662  0.1855  0.1928
 1976W        W 6040   1.810   7.151   2.008  0.0602  0.1125 -0.0673
 1977W        W 6041   9.184   0.124  10.826 -0.0503  0.2090 -0.2388
 1978W        W 6042   0.170   1.400  11.295 -0.2173  0.3373 -0.0232
 1979W        W 6043   4.879   7.839   1.579  0.1975  0.3404  0.0927
 1980W        W 6044   8.446   0.642   9.132  0.1484  0.0750  0.1239
 1981W        W 6045   2.100   9.456   8.400  0.1113 -0.3374  0.3325
 1982W        W 6046   6.309   9.198   1.882  0.2580  0.4239  0.0559
 1983W        W 6047   7.613   5.615   3.479 -0.1504 -0.2053  0.0978
 1984W        W 6048   3.110   2.637   3.441  0.0687  0.1243 -0.2851
 1985W        W 6049   5.194   7.869   7.340  0.0876  0.2065  0.4263
 1986W        W 6050   3.208   8.027  10.958 -0.3139 -0.3303 -0.4554
 1987W        W 6051   7.354   0.701   7.841 -0.0342 -0.0437 -0.1701
 1988W        W 6052   6.332   5.366  10.054  0.0526 -0.1413  0.2446
 1989W        W 6053  10.024   8.939  11.309  0.1555 -0.3303 -0.1500
 1990W        W 6054   7.257   1.859   3.799  0.1231 -0.0141  0.2941
 1991W        W 6055   7.529   2.306   3.124 -0.4575  0.3706  0.1098
 1992W        W 6056   5.276  10.323   0.800  0.1901 -0.0855 -0.0717
 1993W        W 6057   9.175   8.735  10.055 -0.1647 -0.2796  0.3657
 1994W        W 6058   4.443   8.464   2.080 -0.2712  0.1497 -0.1671
 1995W        W 6059   6.990   9.424   2.173  0.1814  0.0609 -0.1710
 1996W        W 6060   9.778   6.545   2.201 -0.3710 -0.0987 -0.1199
 1997W        W 6061   1.372   5.644   0.166  0.2491 -0.0850 -0.1371
 1998W        W 6062   9.033   0.929   0.718 -0.2950  0.1159 -0.2099
 1999W        W 6063   2.610   0.417   1.935 -0.0552  0.2554  0.0553
 2000W        W 6064   9.002   9.803   1.970 -0.2351  0.1696  0.0767
 2001W        W 6065  10.523   6.279   9.925 -0.0209  0.4749  0.1098
 2002W        W 6066   2.388   8.573   1.081  0.0382 -0.0008 -0.0013
 2003W        W 6067   9.655   6.231   8.667  0.1013 -0.1408  0.1702
 2004W        W 6068   9.296   6.823   2.245 -0.2682 -0.1544 -0.1263
 2005W        W 6069   0.131   6.947   4.300 -0.1801 -0.1084 -0.0924
 2006W        W 6070   9.562   3.204   9.201 -0.1255 -0.0227  0.0706
 2007W        W 6071   5.131   1.972   9.481  0.0414 -0.1246 -0.2581
 2008W        W 6072   8.795   3.187  10.362 -0.1803  0.1863  0.2420
 2009W        W 6073   8.175   3.417   1.705  0.3357  0.1957 -0.2380
 2010W        W 6074   1.157   3.173  11.379  0.3139 -0.2795  0.1737
 2011W        W 6075   3.513   2.385   1.904  0.1078  0.1088 -0.1234
 2012W        W 6076   8.907   1.503   7.890  0.1253 -0.3709  0.0715
 2013W        W 6077   3.051  10.227   8.692 -0.2732  0.0997 -0.4877
 2014W        W 6078   4.612  10.004   4.437 -0.2890  0.0467  0.2589
 2015W        W 6079   8.244   6.792  10.359 -0.0801 -0.3012 -0.0503
 2016W        W 6080   5.590   1.786   0.416  0.0667 -0.0821  0.0962
 2017W        W 6081   5.761   5.682   0.225  0.0983  0.1193  0.1876
 2018W        W 6082   9.636   6.257   3.958 -0.0428 -0.2351  0.3197
 2019W        W 6083   5.821   7.808   9.276 -0.0200  0.0559  0.1369
 2020W        W 6084  10.239   0.534   3.145 -0.2215  0.2691  0.4705
 2021W        W 6085   3.850   3.014   0.295  0.3313 -0.3530  0.3013
 2022W        W 6086   5.787   3.762   2.929 -0.1054 -0.2213 -0.1589
 2023W        W 6087   0.536   4.029   8.705 -0.2493  0.1175  0.1829
 2024W        W 6088   1.783   3.387  11.404  0.0682  0.3403 -0.1890
 2025W        W 6089   8.678   7.605   0.570 -0.2528 -0.4441  0.1624
 2026W        W 6090   3.043   3.773   0.829  0.1136 -0.1449 -0.0578
 2027W        W 6091   1.427   4.735  11.274  0.0601 -0.1555 -0.0018
 2028W        W 6092   2.809   5.732   1.624 -0.1407  0.4145  0.1249
 2029W        W 6093   5.399   4.680   8.423  0.3715 -0.0043 -0.1858
 2030W        W 6094   8.950   8.563   1.743  0.1644 -0.0010  0.0749
 2031W        W 6095   9.690   2.122   8.037 -0.0457  0.0193  0.1583
 2032W        W 6096   3.705   7.171   9.161 -0.1686  0.0391 -0.6095
 2033W        W 6097   3.183   8.492   1.596  0.2445 -0.0228  0.1308
 2034W        W 6098   2.490   6.362   9.891  0.1454 -0.0808 -0.0426
 2035W        W 6099   7.693   3.002   9.005 -0.0040  0.2031 -0.1166
 2036W        W 6100   4.824   2.804   1.259 -0.0942 -0.2964 -0.0779
 2037W        W 6101   9.749   4.876   8.422 -0.1061 -0.0137 -0.0251
 2038W        W 6102   1.418   7.954   1.699 -0.3260 -0.0767  0.0713
 2039W        W 6103   4.380   4.068   8.972  0.0339 -0.0117 -0.2313
 2040W        W 6104   0.959   6.430   8.047 -0.0996  0.1602 -0.0413
 2041W        W 6105   0.337   5.104   3.652 -0.0621  0.1849  0.2626
 2042W        W 6106   7.865   7.498   8.823 -0.4622  0.0908 -0.1327
 2043W        W 6107   8.902   3.882   3.465  0.2171 -0.2361 -0.0834
 2044W        W 6108   5.634  10.407  10.564 -0.2660  0.1624  0.0331
 2045W        W 6109  10.401   8.969   0.558 -0.3254 -0.2545  0.2590
 2046W        W 6110   4.836   8.115   0.121 -0.4653 -0.1425  0.0133
 2047W        W 6111   5.947   6.305   1.162  0.1256  0.1246  0.2774
 2048W        W 6112   6.109   0.114   4.008  0.1442  0.2437  0.2219
 2049W        W 6113   1.343   2.238  10.690  0.0796 -0.1419 -0.2607
 2050W        W 6114   2.438   0.832   0.106 -0.2022  0.1926  0.1288
 2051W        W 6115   0.654   1.181   1.086 -0.2845  0.1149  0.1096
 2052W        W 6116   1.571   3.536   0.567 -0.1888  0.2043  0.3798
 2053W        W 6117   6.408   0.857   2.163  0.0558 -0.0060 -0.0615
 2054W        W 6118   4.645   0.798  10.771 -0.2104  0.2632  0.2474
 2055W        W 6119   1.798   7.431   8.333  0.1044 -0.1798 -0.0673
 2056W        W 6120   8.812   7.328   9.406 -0.2346 -0.3595 -0.0209
 2057W        W 6121   5.396   1.751   8.942 -0.1287 -0.0919  0.2025
 2058W        W 6122   5.884   4.226   3.185  0.2175 -0.1733  0.1526
 2059W        W 6123   4.147  10.221   0.489 -0.0844  0.0277 -0.0201
 2060W        W 6124   7.719   9.026   7.435 -0.0718 -0.1086  0.0521
 2061W        W 6125   0.460   9.143   2.757 -0.0251  0.3121  0.0052
 2062W        W 6126   0.794   1.317   2.684 -0.1912 -0.4958  0.0728
 2063W        W 6127   5.595   0.450   3.187 -0.0491  0.0548  0.1654
 2064W        W 6128   4.014   1.158   7.808  0.1567 -0.0744  0.3592
 2065W        W 6129   2.374   9.761   8.048  0.2470 -0.1303  0.0906
 2066W        W 6130   5.431   5.209   2.825 -0.1658 -0.1239 -0.0647
 2067W        W 6131   1.947   5.776   9.464  0.1023 -0.0563 -0.2834
 2068W        W 6132   9.258   4.561   1.606  0.0938  0.0866 -0.1121
 2069W        W 6133   1.652   3.081   1.977  0.1037  0.1337  0.0919
 2070W        W 6134   9.734   0.074   8.332 -0.2257  0.2479  0.3947
 2071W        W 6135  10.229   6.539   8.554 -0.0200  0.1674 -0.2490
 2072W        W 6136   2.144   6.839   8.240 -0.2336 -0.0594 -0.2449
 2073W        W 6137   6.200   5.090   1.138 -0.0551 -0.0307  0.3242
 2074W        W 6138   4.349   2.657   1.605 -0.2960  0.1852  0.1539
 2075W        W 6139  10.246   2.795  10.720 -0.1836  0.0478  0.0335
 2076W        W 6140   3.629   9.411  10.663 -0.1122 -0.0183  0.1968
 2077W        W 6141   0.993   5.606   3.926 -0.0139  0.0811 -0.0185
 2078W        W 6142   6.322   0.355  10.172  0.1037  0.2731  0.2008
 2079W        W 6143   8.924   8.370  10.231  0.2638  0.2096 -0.0063
 2080W        W 6144   8.749   8.481  10.692 -0.0917  0.0261 -0.2103
 2081W        W 6145   6.028   2.893   1.543  0.1993 -0.2798 -0.0205
 2082W        W 6146   7.295   7.194   9.395  0.0197 -0.0941 -0.2743
 2083W        W 6147   3.625   1.871   1.217 -0.0111  0.5084 -0.2197
 2084W        W 6148   8.744   3.405   2.924 -0.1381 -0.0266  0.2287
 2085W        W 6149  10.435   3.067   8.138  0.1012 -0.0155 -0.2708
 2086W        W 6150   6.246  10.222   2.027  0.0680 -0.1030  0.0769
 2087W        W 6151   6.511   7.487   3.468 -0.1516 -0.0089 -0.2049
 2088W        W 6152   2.467   7.346   9.414 -0.0643 -0.1440  0.0739
 2089W        W 6153   5.601   2.359  11.119 -0.1321 -0.0638  0.2041
 2090W        W 6154   1.424   2.424   2.650  0.1605  0.2495  0.0898
 2091W        W 6155   7.865   6.456  10.938  0.1003 -0.1238 -0.1440
 2092W        W 6156   5.716  10.538  11.592 -0.0631  0.0293 -0.3072
 2093W        W 6157   2.522   3.280  11.288  0.0373 -0.0286  0.2022
 2094W        W 6158   1.470   6.677  10.770 -0.0774  0.0556  0.2477
 2095W        W 6159   7.282   1.788  10.987 -0.3597  0.1579  0.2321
 2096W        W 6160   2.517   8.558  10.195 -0.0208  0.0605  0.2924
 2097W        W 6161   8.847   8.508   0.750  0.3915 -0.1915 -0.0253
 2098W        W 6162   0.833   4.789  10.344 -0.1858 -0.2826  0.2770
 2099W        W 6163   9.213  10.536   0.744 -0.0206 -0.1336 -0.2684
 2100W        W 6164   7.543   9.986  10.830 -0.0926  0.0256  0.0306
 2101W        W 6165   0.056  10.367   1.165 -0.0017 -0.1144  0.0320
 2102W        W 6166   1.424   7.415  11.103  0.0402  0.1987 -0.0528
 2103W        W 6167   9.223   6.016   4.160  0.1209 -0.1380  0.3293
 2104W        W 6168   6.371   0.382   0.298  0.1855 -0.1973  0.0685
 2105W        W 6169   5.981   2.174   0.725 -0.3054  0.1799  0.1873
 2106W        W 6170   6.398   6.776   3.083 -0.0113 -0.2878  0.0550
 2107W        W 6171   3.425   8.549  10.614  0.0775 -0.0811 -0.0661
 2108W        W 6172   7.661   8.510  10.055  0.3092  0.1189  0.3662
 2109W        W 6173   2.147   5.422  10.784 -0.1443  0.0288 -0.1527
 2110W        W 6174   5.820   6.778  10.598 -0.3016 -0.1096  0.0440
 2111W        W 6175   7.260   1.324   9.122  0.0846  0.1828 -0.0495
 2112W        W 6176   8.731   6.219   0.460 -0.0475 -0.0646  0.1204
 2113W        W 6177   8.393   9.842  10.378 -0.3620  0.1154  0.0338
 2114W        W 6178   4.527   2.251   2.748  0.1046  0.3812  0.0673
 2115W        W 6179   8.091   0.079   9.927  0.0631 -0.0371 -0.1020
 2116W        W 6180   3.404   7.684  10.580  0.0348  0.4856  0.0183
 2117W        W 6181   7.141   7.155  10.852  0.0989  0.0734  0.2509
 2118W        W 6182   9.007   1.122   8.663  0.3998  0.0792 -0.3136
 2119W        W 6183   8.582   7.511   8.119 -0.0687  0.0054 -0.3532
 2120W        W 6184   5.294   9.429   3.175  0.2152  0.2620 -0.2620
 2121W        W 6185   4.997   8.831  11.340  0.2183  0.2033 -0.5144
 2122W        W 6186  10.435   1.400  10.679  0.0214 -0.0921 -0.2658
 2123W        W 6187   9.609   0.829  10.384 -0.2285 -0.0435  0.1065
 2124W        W 6188   0.065   0.910  11.477 -0.1607  0.5396  0.0299
 2125W        W 6189   0.442   1.856  11.241  0.1821 -0.0718 -0.0596
 2126W        W 6190   7.238   1.668   8.085 -0.1815 -0.1679  0.1738
 2127W        W 6191   4.711   1.505   2.174  0.1291  0.2127  0.3375
 2128W        W 6192   7.453   3.441   8.918 -0.1762  0.0967  0.0224
 2129W        W 6193   7.518   3.013   2.792 -0.1765  0.1401 -0.1170
 2130W        W 6194   9.425   7.308   9.367  0.0291 -0.1789  0.1086
 2131W        W 6195   8.774   5.861   8.799 -0.1937 -0.0738 -0.0252
 2132W        W 6196   8.975   1.932   8.130  0.0252  0.0554 -0.2660
 2133W        W 6197   1.827   5.005   9.220  0.0745  0.2925  0.0758
 2134W        W 6198   9.037   9.388   8.071  0.4230  0.0784  0.0494
 2135W        W 6199   6.543   3.650   0.361  0.0242  0.2949  0.2231
 2136W        W 6200  10.283   5.843   9.341 -0.0137  0.0813 -0.0160
 2137W        W 6201   2.341   3.667  10.974 -0.1417 -0.0026 -0.2150
 2138W        W 6202   2.232   4.089   9.471 -0.0280 -0.2166  0.2082
 2139W        W 6203   7.234   7.960   8.892  0.0529 -0.2838  0.3421
 2140W        W 6204   6.112  10.269  11.299  0.1881 -0.5761 -0.1906
 2141W        W 6205   0.057   3.343   1.385 -0.0474  0.2726  0.0385
 2142W        W 6206   3.535   2.859   3.448 -0.0301 -0.0902 -0.1286
 2143W        W 6207   1.907   3.917   8.490  0.0129 -0.1141 -0.0880
 2144W        W 6208   5.607   0.250   4.006  0.2035 -0.1101  0.0917
 2145W        W 6209   0.080   1.577   2.817  0.0784  0.1120  0.0836
 2146W        W 6210   6.965   6.636   8.425  0.0528  0.0300 -0.3049
 2147W        W 6211   4.124   8.154   8.222 -0.0980  0.3264 -0.0668
 2148W        W 6212   9.437   6.138   0.937 -0.0619  0.2073 -0.1196
 2149W        W 6213   8.478   2.413  11.272  0.1577 -0.1808  0.0743
 2150W        W 6214   6.852   5.439  10.209  0.2013  0.0247  0.1471
 2151W        W 6215   8.317   8.402   8.524  0.2051 -0.0148  0.1188
 2152W        W 6216   0.007   3.013   0.498 -0.1713  0.0554 -0.1256
 2153W        W 6217   7.027   5.982  11.438  0.0413  0.3731  0.0378
 2154W        W 6218   8.509  10.335   3.086 -0.0311 -0.4035 -0.2734
 2155W        W 6219   0.227   7.665   8.217 -0.0418 -0.1690 -0.2722
 2156W        W 6220   3.885   8.440   0.969  0.0573 -0.1307  0.2012
 2157W        W 6221   1.320   5.517   1.569 -0.2320 -0.1044  0.4450
 2158W        W 6222   1.118   9.256   8.086  0.2727 -0.0564  0.0709
 2159W        W 6223   6.157   8.633   3.338 -0.1441 -0.1874  0.0185
 2160W        W 6224   1.045   6.054   2.392 -0.2542  0.0561 -0.1463
 2161W        W 6225   3.696   8.589   9.609  0.1762  0.2350  0.1880
 2162W        W 6226   4.053   4.300   3.276 -0.1514 -0.1670  0.1036
 2163W        W 6227   9.087   3.547   1.309  0.0954  0.2892 -0.0078
 2164W        W 6228   6.863   2.162   9.810  0.1304  0.0347  0.0851
 2165W        W 6229  10.181   4.404   7.498  0.0669  0.1207  0.0200
 2166W        W 6230   1.339   3.508   1.790  0.1204 -0.0367 -0.0015
 2167W        W 6231   2.889   9.252  10.980 -0.0616  0.0989 -0.2553
 2168W        W 6232   0.410   8.517   9.259 -0.1904  0.0591 -0.2264
 2169W        W 6233   3.021  10.517  11.166 -0.3025 -0.0003  0.2782
 2170W        W 6234   7.423   7.924   0.943 -0.1203  0.1489 -0.1520
 2171W        W 6235   5.041   1.517  11.570 -0.2494  0.1564 -0.1371
 2172W        W 6236   9.586   7.993   8.208  0.0332  0.0345 -0.1177
 2173W        W 6237   1.859   3.794   9.331 -0.1453 -0.4144  0.1839
 2174W        W 6238   3.762   1.538   3.500  0.2300 -0.1083 -0.1399
 2175W        W 6239   7.781   6.525   0.827 -0.2173 -0.1348 -0.1509
 2176W        W 6240   1.838   9.927   2.729 -0.0778  0.1556  0.2233
 2177W        W 6241   1.198   7.664   3.460  0.1132 -0.2009 -0.4902
 2178W        W 6242   0.551   6.897   2.116 -0.1017 -0.0385  0.0723
 2179W        W 6243   5.938   2.051   0.177 -0.1605 -0.1145  0.2455
 2180W        W 6244   6.838   9.343   8.465 -0.1427 -0.1168 -0.1264
 2181W        W 6245   3.238   2.697   2.978 -0.2297  0.1923 -0.1256
 2182W        W 6246   4.127   9.082   8.965 -0.0392 -0.3696  0.1033
 2183W        W 6247   9.921   9.662   2.845 -0.2007 -0.2526  0.3373
 2184W        W 6248   6.014   8.232   2.971  0.0035 -0.0975  0.0652
 2185W        W 6249   3.768   1.822   9.465 -0.3434 -0.0464 -0.2141
 2186W        W 6250   9.317   1.730  10.646  0.0303 -0.2132 -0.3597
 2187W        W 6251   7.494   0.066  11.043 -0.0064  0.3255  0.1816
 2188W        W 6252   3.609   6.492   0.410  0.1968  0.2744  0.0736
 2189W        W 6253   7.991   8.301   8.995 -0.0656  0.1469 -0.1352
 2190W        W 6254   4.353   1.178  10.976  0.0852  0.2702 -0.1392
 2191W        W 6255   4.859   6.824   3.328 -0.3199 -0.3125 -0.0457
 2192W        W 6256   6.322   2.695   3.048  0.2271  0.0004 -0.0042
 2193W        W 6257   3.839   4.464   2.514  0.1883 -0.1412 -0.0374
 2194W        W 6258   0.949   4.143   9.983 -0.1309 -0.2382  0.0464
 2195W        W 6259   3.305   1.709   8.780  0.1351 -0.0281  0.2965
 2196W        W 6260   1.599   9.339   8.172 -0.0030  0.4169  0.1425
 2197W        W 6261   5.608   6.529   4.082 -0.0221 -0.2850 -0.0729
 2198W        W 6262  10.126  10.471   1.189 -0.0727 -0.2411  0.0935
 2199W        W 6263   9.740   3.659   8.939 -0.3478 -0.0645  0.1901
 2200W        W 6264   9.569   9.958   2.703 -0.0372 -0.0016 -0.1560
 2201W        W 6265   1.199   9.345   1.217 -0.1713 -0.1413  0.1377
 2202W        W 6266   5.510   6.867   9.328  0.3323 -0.3899 -0.2725
 2203W        W 6267   5.505   8.128  11.030  0.2584 -0.0567 -0.2537
 2204W        W 6268   5.304   7.634   1.838 -0.2477 -0.0948 -0.3575
 2205W        W 6269  10.571   1.835   2.412  0.2693  0.3585  0.0518
 2206W        W 6270   3.812   8.475  10.237  0.2002  0.1482 -0.2036
 2207W        W 6271   7.859   2.606   7.254  0.0272  0.0435 -0.0170
 2208W        W 6272   6.331   7.918   3.840  0.1814  0.0345  0.1811
 2209W        W 6273   0.244   4.406   1.454 -0.0549 -0.0296  0.1975
 2210W        W 6274   8.023   8.883   9.191 -0.0628 -0.3084 -0.1837
 2211W        W 6275   0.395   8.147   8.298  0.2843  0.1219  0.1789
 2212W        W 6276   5.740  10.145   1.287  0.0146 -0.0423  0.2079
 2213W        W 6277   7.245   3.183   2.054 -0.2775 -0.1009 -0.1865
 2214W        W 6278   3.062   8.314   8.500 -0.1256  0.0187  0.2568
 2215W        W 6279   8.971   1.789   1.942 -0.1513 -0.3631 -0.1496
 2216W        W 6280   3.662   0.415   3.275  0.0313  0.2911 -0.2351
 2217W        W 6281   5.778   5.209   8.103  0.0913 -0.0457  0.3229
 2218W        W 6282   7.449   4.570   3.551 -0.2640  0.1232 -0.0044
 2219W        W 6283   4.006   9.936   1.202 -0.0328 -0.2135 -0.0453
 2220W        W 6284   9.731   7.027   9.018  0.2698 -0.1419  0.0968
 2221W        W 6285   6.776   4.699  11.474 -0.2062 -0.0513 -0.0569
 2222W        W 6286   3.915   6.726   9.054 -0.0370 -0.0624 -0.0923
 2223W        W 6287   5.043   7.256   1.647 -0.1193  0.3074  0.2360
 2224W        W 6288  10.147   3.306  10.813  0.3246 -0.3051 -0.1813
 2225W        W 6289   1.715   8.367   1.752 -0.1108 -0.1941  0.2168
 2226W        W 6290   6.870   2.018   2.571  0.0444 -0.1175 -0.0735
 2227W        W 6291   8.333   9.181  11.185 -0.0182  0.0004 -0.0692
 2228W        W 6292   3.561   7.087   0.847 -0.2470 -0.0721  0.1927
 2229W        W 6293   2.036   2.911   0.949  0.0880  0.4581  0.1600
 2230W        W 6294   9.621   4.591   3.315 -0.3481 -0.3605 -0.2693
 2231W        W 6295   3.267   0.929   3.100 -0.0266 -0.1918  0.0539
 2232W        W 6296   7.682   7.318   0.421  0.2046  0.0097  0.0755
 2233W        W 6297   7.254   9.189   8.766  0.3241 -0.1458  0.0568
 2234W        W 6298   2.395   9.074   1.209 -0.2993  0.0950 -0.2467
 2235W        W 6299   4.841   0.346  11.138 -0.0285  0.1470 -0.0312
 2236W        W 6300   2.332  10.380   1.041  0.2376 -0.2717 -0.0934
 2237W        W 6301   1.895   0.635  11.090  0.3639  0.0176  0.0991
 2238W        W 6302   3.236   3.353   0.911  0.2113  0.4535 -0.0396
 2239W        W 6303   0.884   0.782  11.165 -0.1912 -0.0987 -0.2666
 2240W        W 6304   2.927   8.054   3.635 -0.2806 -0.1570 -0.0165
 2241W        W 6305   0.981   6.758   1.864  0.0016 -0.0049 -0.1002
 2242W        W 6306   5.881   9.580   4.201 -0.1227 -0.2274 -0.1328
 2243W        W 6307   5.044   8.264   1.356  0.2086  0.0069 -0.0388
 2244W        W 6308   9.078   9.554   9.062 -0.1406 -0.1305 -0.2740
 2245W        W 6309  10.589   4.651   8.766  0.1154 -0.1206 -0.1738
 2246W        W 6310   3.986   7.811   2.516  0.0008  0.2632  0.1291
 2247W        W 6311   6.559   6.150  11.447 -0.1184  0.1441 -0.1519
 2248W        W 6312   6.926   5.921  10.083  0.0088 -0.0954 -0.2650
 2249W        W 6313   8.315  10.223   7.525 -0.2486  0.0029  0.0615
 2250W        W 6314   4.313   2.569  11.479  0.0401 -0.2679 -0.2940
 2251W        W 6315   9.611   7.803   0.280  0.0203 -0.0654  0.1080
 2252W        W 6316   4.556   4.529   1.141  0.5045  0.1052 -0.0483
 2253W        W 6317   3.368   4.204  11.663  0.1435 -0.1034  0.1167
 2254W        W 6318   4.862   5.455   2.270  0.0038  0.1804  0.1064
 2255W        W 6319   1.511   4.867   7.524 -0.3312  0.0517 -0.3185
 2256W        W 6320   5.502   7.803  10.645 -0.0908  0.2533  0.1535
 2257W        W 6321   1.258   3.564   8.522  0.0281 -0.2400  0.1886
 2258W        W 6322   8.651   2.941   0.057  0.1318 -0.0535 -0.0304
 2259W        W 6323   8.958   2.459   0.803 -0.1791 -0.0354  0.3053
 2260W        W 6324   8.758   5.288   1.168 -0.1124 -0.2345  0.1158
 2261W        W 6325  10.305   6.409   2.353  0.0752  0.1281 -0.1271
 2262W        W 6326   2.126   1.593   8.850  0.0330 -0.1183 -0.1447
 2263W        W 6327   1.951   9.567   7.859 -0.3552  0.4551 -0.1229
 2264W        W 6328   4.768   4.984   2.759 -0.0789 -0.4764  0.1016
 2265W        W 6329   3.846   4.117   0.246  0.0762  0.1523  0.1240
 2266W        W 6330   1.428   6.481   0.664 -0.3517  0.1004  0.1438
 2267W        W 6331   8.215   6.379   0.665 -0.0597  0.0574 -0.1399
 2268W        W 6332   3.929   2.513   0.086 -0.1657  0.1647 -0.1161
 2269W        W 6333   2.547   4.951   7.883 -0.0439  0.2651 -0.0095
 2270W        W 6334   7.226   7.296   2.183  0.1743  0.0790 -0.3847
 2271W        W 6335   4.366   7.759   3.190 -0.0790  0.1958 -0.2132
 2272W        W 6336   1.122   7.112   0.701 -0.1783  0.3401 -0.0265
 2273W        W 6337   1.940   2.561   2.717 -0.0002  0.2319  0.4829
 2274W        W 6338   6.401   9.160   8.374 -0.0783 -0.1347 -0.2368
 2275W        W 6339   8.303   2.773   8.987  0.1385  0.1339 -0.1571
 2276W        W 6340   1.605   2.561  10.432 -0.0539  0.0090 -0.0653
 2277W        W 6341   6.229   3.808   1.055 -0.1619 -0.0063  0.1592
 2278W        W 6342   2.260   3.566   3.113  0.0143 -0.0419 -0.2296
 2279W        W 6343   2.532   7.509   2.796  0.2360 -0.2579  0.0638
 2280W        W 6344   2.496   7.000  10.945 -0.0909  0.1302 -0.5520
 2281W        W 6345   7.496   3.497   3.691  0.5278  0.2792 -0.1284
 2282W        W 6346  10.487   5.228   9.196  0.4194  0.2946  0.0289
 2283W        W 6347  10.101   8.557   3.247  0.1156  0.2427  0.0847
 2284W        W 6348   3.796   3.339   2.577 -0.0089 -0.2113 -0.1490
 2285W        W 6349   4.215   1.207   2.305  0.0733 -0.0725  0.0073
 2286W        W 6350   1.795   9.328   1.999  0.0890  0.0422 -0.2148
 2287W        W 6351   7.913   4.719  11.489 -0.1534  0.0793  0.2176
 2288W        W 6352   5.706   9.468  11.496 -0.2232 -0.0479 -0.3725
 2289W        W 6353   6.926   3.981  10.013  0.3951 -0.1015 -0.1402
 2290W        W 6354   2.459   5.405   3.432 -0.2656  0.4473 -0.0423
 2291W        W 6355   6.161   5.197   2.005  0.1671  0.3248  0.0962
 2292W        W 6356   3.850   3.364   1.920  0.2285 -0.0184  0.0262
 2293W        W 6357   0.992   9.398   0.400  0.1208  0.1167 -0.1730
 2294W        W 6358   7.480   1.347   2.518 -0.0611  0.1317 -0.1568
 2295W        W 6359   6.027   8.296   8.831  0.1533  0.2551 -0.0803
 2296W        W 6360   8.433   1.589   0.396  0.1025  0.2411 -0.3755
 2297W        W 6361   4.834   0.699  10.294  0.0929  0.2524  0.3555
 2298W        W 6362   5.012   2.179   2.837  0.3143 -0.3480 -0.0481
 2299W        W 6363   5.198   2.458   9.159  0.0242  0.1754  0.1311
 2300W        W 6364   4.320   5.219   1.521 -0.0536  0.2044 -0.0630
 2301W        W 6365   2.854   0.927   3.366  0.1080 -0.0411  0.2610
 2302W        W 6366   3.928   0.274  11.326 -0.0070 -0.1908 -0.0421
 2303W        W 6367   3.650   6.472   8.706 -0.0779 -0.2854  0.0455
 2304W        W 6368   4.662  10.267  10.677  0.0128 -0.2236 -0.1464
 2305W        W 6369   7.260   8.390   0.899 -0.0884 -0.1982  0.0855
 2306W        W 6370   1.949   8.720   2.907  0.2199  0.0842 -0.0826
 2307W        W 6371   1.806   4.376   8.133 -0.0000  0.1497 -0.2448
 2308W        W 6372   7.334   6.526  10.866  0.0293  0.1661  0.2599
 2309W        W 6373   9.147   5.499   2.617 -0.0350  0.3963 -0.2356
 2310W        W 6374   4.634   1.840   9.867  0.2291  0.1244 -0.1180
 2311W        W 6375   2.375   0.397  10.955  0.2752  0.3858  0.2060
 2312W        W 6376   4.495   7.358   2.360  0.1067  0.1270 -0.2422
 2313W        W 6377   3.069   9.374   4.328  0.0975 -0.2936  0.1415
 2314W        W 6378   9.945   4.948  10.030  0.0780 -0.0246 -0.0433
 2315W        W 6379   9.845   9.137   9.041 -0.0051  0.0996 -0.0985
 2316W        W 6380   8.684   8.926  11.456  0.0174 -0.1298  0.0207
 2317W        W 6381  10.311   9.728   0.653 -0.1630 -0.1774 -0.1502
 2318W        W 6382  10.222   7.648   8.832 -0.2007  0.0238 -0.3082
 2319W        W 6383   0.698   4.547  10.770 -0.0528  0.0017  0.1083
 2320W        W 6384   1.430   5.170   8.333  0.3918  0.0808 -0.0609
 2321W        W 6385   8.063   6.244   1.204 -0.0541  0.0157  0.1966
 2322W        W 6386   7.292   9.611   0.352  0.0004 -0.2080 -0.1270
 2323W        W 6387   0.737   0.992  10.765 -0.0521 -0.1435 -0.0196
 2324W        W 6388   4.604   3.257   8.936 -0.2803 -0.0808 -0.0713
 2325W        W 6389   4.677   0.230  10.683 -0.2642  0.1597  0.1800
 2326W        W 6390   0.924  10.068   0.675  0.1645  0.0935  0.0688
 2327W        W 6391   8.870   3.636   8.208 -0.3450 -0.0920 -0.0870
 2328W        W 6392   9.885   8.111  10.657  0.1083  0.2426  0.3009
 2329W        W 6393   0.736   0.094  11.556 -0.0642  0.3512 -0.2828
 2330W        W 6394  10.507   9.321   9.733 -0.1315  0.2224 -0.1093
 2331W        W 6395   2.723   5.988   8.692  0.0268  0.2143 -0.2882
 2332W        W 6396   0.392   0.599   8.564 -0.3259  0.1504  0.5239
 2333W        W 6397   7.484   2.788  10.764 -0.0733  0.0280  0.3004
 2334W        W 6398   6.254   3.166   4.401  0.1044  0.2840  0.0799
 2335W        W 6399   0.518   6.681   2.582  0.0522 -0.0161 -0.1356
 2336W        W 6400   6.904   2.742   8.067 -0.2571 -0.1245  0.0920
 2337W        W 6401   4.095   8.461   1.698 -0.1029 -0.0917  0.0048
 2338W        W 6402   3.045   7.262  10.502 -0.2351 -0.0075  0.2170
 2339W        W 6403  10.228   7.123   8.842 -0.0705 -0.1695  0.0408
 2340W        W 6404   9.820   7.336  11.321  0.1425  0.3012 -0.0200
 2341W        W 6405   3.218   3.793   9.873  0.1571  0.0006  0.0905
 2342W        W 6406   5.067   6.381   1.269  0.3713  0.2317  0.1069
 2343W        W 6407   6.279   5.416   3.166 -0.0933  0.1010  0.0191
 2344W        W 6408   7.771   4.281  11.262 -0.4766  0.1052  0.1162
 2345W        W 6409   7.911   7.005   3.247  0.1054 -0.0401 -0.2822
 2346W        W 6410   0.523   7.561  11.220 -0.3534 -0.2117  0.0919
 2347W        W 6411   2.177   0.496   1.436  0.1430  0.0714 -0.0642
 2348W        W 6412   4.057   1.196   2.797 -0.2582 -0.3328 -0.2543
 2349W        W 6413   7.875   8.558   4.189 -0.1555  0.1184 -0.2498
 2350W        W 6414   3.582   8.321   1.834  0.0167  0.3244 -0.2785
 2351W        W 6415   2.078   0.749   1.837 -0.0673 -0.2050  0.1590
 2352W        W 6416   2.747  10.099   1.213  0.2132 -0.2318  0.1751
 2353W        W 6417   3.051   8.301   9.547  0.1185  0.2274 -0.0386
 2354W        W 6418   8.974   7.402   3.172 -0.0144  0.0553 -0.2543
 2355W        W 6419   3.834  10.557   3.496 -0.0895  0.2152 -0.3063
 2356W        W 6420   3.508   3.183  11.605 -0.0211  0.1628  0.0717
 2357W        W 6421   8.798   2.686   9.639 -0.1546  0.0982 -0.1270
 2358W        W 6422   2.294   6.785   3.206 -0.1110 -0.0175  0.0776
 2359W        W 6423   5.904   0.221   2.711 -0.2683 -0.2636 -0.2246
 2360W        W 6424   3.344   4.547  10.765 -0.1548  0.0574 -0.1756
 2361W        W 6425   0.048   0.548  10.914 -0.0666 -0.1612 -0.3929
 2362W        W 6426   6.556   9.608   0.989  0.0531 -0.3355 -0.1962
 2363W        W 6427   6.582  10.435   9.079 -0.0330  0.0708 -0.1172
 2364W        W 6428   3.629   0.909   9.048 -0.0212 -0.1797 -0.1494
 2365W        W 6429   4.095   9.895   8.573 -0.1182  0.1104  0.2418
 2366W        W 6430   2.142   0.063   9.062  0.0290  0.0705 -0.0842
 2367W        W 6431   4.590   0.428   0.776  0.1232 -0.0680 -0.0921
 2368W        W 6432   5.401  10.367   9.015  0.4526  0.1052 -0.1580
 2369W        W 6433   6.040   4.984  10.387 -0.0244 -0.0680  0.2188
 2370W        W 6434   4.427   0.259  11.486 -0.1365 -0.0935  0.1210
 2371W        W 6435   9.360   5.871  11.242  0.1002 -0.1101  0.0746
 2372W        W 6436   7.101  10.300   0.104 -0.1711  0.3398 -0.0047
 2373W        W 6437   7.528   1.054   8.639 -0.0774  0.1248  0.0885
 2374W        W 6438   6.221  10.487   8.183  0.4993  0.0209 -0.0386
 2375W        W 6439   9.113   0.260   9.735 -0.1408 -0.1857  0.2283
 2376W        W 6440   2.155   3.996   3.288  0.2194 -0.0942  0.0955
 2377W        W 6441   2.990   1.823   2.132 -0.2052  0.0329  0.3368
 2378W        W 6442   8.004   7.091   9.797 -0.0495  0.0553  0.1599
 2379W        W 6443   3.816   5.954   1.730 -0.1010  0.0758 -0.0374
 2380W        W 6444   2.849   2.307   2.375  0.0653  0.3324  0.0011
 2381W        W 6445   0.455   9.269   8.915 -0.1539 -0.3529  0.0194
 2382W        W 6446   1.647   9.775   3.180  0.1887  0.2111  0.1028
 2383W        W 6447   4.687   0.429   1.311 -0.0556 -0.1182 -0.1316
 2384W        W 6448  10.084   6.741   9.894 -0.3626  0.1217 -0.2885
 2385W        W 6449   4.991   4.613   0.593 -0.1062  0.0664 -0.0759
 2386W        W 6450   7.911   9.991   1.689  0.0414  0.1410  0.6412
 2387W        W 6451  10.165   4.000   2.093  0.3230  0.0056 -0.0504
 2388W        W 6452   4.748   1.635   8.102 -0.0474 -0.3320  0.0254
 2389W        W 6453   3.742   8.163   9.140 -0.0671  0.2110 -0.1192
 2390W        W 6454   9.915   4.364   0.601  0.1214  0.0843 -0.0422
 2391W        W 6455   8.542   4.907   0.056 -0.1017  0.2139 -0.1139
 2392W        W 6456   3.240   6.182   2.774 -0.0639  0.2311  0.2663
 2393W        W 6457   7.350   5.958   8.618 -0.1956  0.1911 -0.0861
 2394W        W 6458  10.445   4.880   0.987 -0.2538  0.2828 -0.1300
 2395W        W 6459   3.480  10.250   9.132  0.0074 -0.0342 -0.1507
 2396W        W 6460   2.826   1.894   2.624  0.3454 -0.1589  0.0334
 2397W        W 6461   1.839   5.309   1.921  0.2746  0.2526  0.2220
 2398W        W 6462   3.090   4.571   8.672 -0.1285 -0.1915  0.3415
 2399W        W 6463   7.373   6.455   2.023 -0.0628 -0.1022  0.2173
 2400W        W 6464   8.565   3.421  11.587 -0.5800  0.0491 -0.3281
 2401W        W 6465   4.056   7.624   8.300 -0.1207  0.0666  0.0808
 2402W        W 6466   7.287   6.098   9.591 -0.0521  0.0422  0.1321
 2403W        W 6467   6.652  10.109   7.399  0.0710  0.3879  0.0296
 2404W        W 6468   8.836   1.900   7.557  0.1092  0.2149  0.0678
 2405W        W 6469   4.129   0.314   2.133 -0.0651 -0.3785 -0.4879
 2406W        W 6470   9.639   4.293   2.741 -0.0272 -0.0963  0.5082
 2407W        W 6471  10.377   1.175  10.171 -0.2167  0.2159  0.2620
 2408W        W 6472   2.245   6.441   9.415  0.1702 -0.1846  0.2502
 2409W        W 6473   4.713   8.240   8.856 -0.4127 -0.3608  0.1311
 2410W        W 6474   6.202   2.476   9.597  0.0105  0.1597 -0.1326
 2411W        W 6475   6.717   1.181   9.194 -0.2856  0.0861  0.3825
 2412W        W 6476   2.338   5.845   9.038 -0.1940  0.0868  0.0319
 2413W        W 6477  10.375   3.454   0.556  0.1093 -0.4250 -0.0031
 2414W        W 6478   4.910   3.925   2.887 -0.1129  0.2318  0.1691
 2415W        W 6479   3.087   3.409  11.355 -0.0636  0.0115  0.2159
 2416W        W 6480   2.562   5.879   3.741  0.1445 -0.2154 -0.2009
 2417W        W 6481   0.244   0.341  10.446  0.4514 -0.0669  0.1084
 2418W        W 6482   0.267   9.129  10.867  0.2100 -0.0152 -0.0594
 2419W        W 6483   1.726   0.972   0.534  0.0882  0.1225  0.1367
 2420W        W 6484   4.564   0.473   9.857 -0.0331 -0.0131  0.0216
 2421W        W 6485   6.084   6.393  11.504 -0.0719 -0.2596  0.1387
 2422W        W 6486  10.157   5.043   2.487 -0.1299  0.1521  0.2311
 2423W        W 6487   5.221   0.765   2.423 -0.1455  0.0245  0.1758
 2424W        W 6488   5.556   9.961  11.099 -0.1661 -0.0353 -0.1715
 2425W        W 6489   2.510   5.858   3.250  0.0559 -0.0331 -0.1407
 2426W        W 6490   5.993   7.082   3.196 -0.1157 -0.2474 -0.3322
 2427W        W 6491  10.303   7.295   1.144  0.1435 -0.0656 -0.0919
 2428W        W 6492   0.766   8.314   2.982  0.1471 -0.1860 -0.0123
 2429W        W 6493  10.358   3.923  10.078 -0.2225  0.2976  0.2429
 2430W        W 6494   5.458   4.573   0.933  0.0081 -0.1523 -0.2987
 2431W        W 6495   2.200   9.938   9.436  0.1195  0.1471  0.0563
 2432W        W 6496   7.284   1.700  10.340 -0.2186 -0.1139 -0.2808
 2433W        W 6497   3.357   9.899   4.480 -0.1632 -0.1873 -0.0127
 2434W        W 6498   9.589   6.181   9.138  0.3677 -0.2134 -0.3407
 2435W        W 6499   7.901   9.323   1.142 -0.0846 -0.0309 -0.1260
 2436W        W 6500   5.479   2.475   2.002  0.1094 -0.3390  0.2296
 2437W        W 6501   1.063   3.356   2.721 -0.3343  0.1700  0.2462
 2438W        W 6502   3.854   9.649   2.340 -0.2590 -0.1930 -0.3548
 2439W        W 6503   5.765   3.784   3.503  0.4718 -0.2095 -0.2358
 2440W        W 6504   1.039   1.823   1.541  0.2214 -0.2452  0.2005
 2441W        W 6505   8.071   7.624   9.722 -0.1829  0.3346  0.0211
 2442W        W 6506   0.305   3.078  11.207 -0.4627 -0.3530  0.2678
 2443W        W 6507   4.972   3.908   1.496  0.0648 -0.0240  0.2119
 2444W        W 6508   6.834   2.699   1.354  0.0917  0.0596 -0.4773
 2445W        W 6509   1.516  10.217   1.532  0.0657  0.2481 -0.4823
 2446W        W 6510   8.845   2.186   9.615 -0.1330  0.0900  0.2646
 2447W        W 6511   9.286   3.482  10.834  0.1020 -0.1361  0.0974
 2448W        W 6512   1.286   4.047  10.792  0.1214 -0.0272  0.3033
 2449W        W 6513   2.813   7.201   0.398  0.1262 -0.2292 -0.2526
 2450W        W 6514   3.100   7.023  10.070  0.0483  0.1611  0.0405
 2451W        W 6515   5.041   1.524   9.232  0.2170  0.1134 -0.0234
 2452W        W 6516   2.469   8.700   2.084  0.0436  0.2776 -0.3540
 2453W        W 6517   1.183   8.422   1.757  0.0026  0.1113 -0.1328
 2454W        W 6518   3.531   5.516   0.185 -0.0525 -0.0711 -0.0773
 2455W        W 6519   5.176   5.161  10.719  0.0558 -0.0041  0.2709
 2456W        W 6520   6.788   7.643   4.001  0.0211  0.2490 -0.0195
 2457W        W 6521   2.680   0.520   9.726  0.0630  0.0963  0.0299
 2458W        W 6522   5.547   3.932  10.785 -0.1754  0.0934 -0.2498
 2459W        W 6523   9.172   8.879  11.121 -0.1102 -0.1217 -0.2930
 2460W        W 6524   0.272   2.511   9.800 -0.0069  0.0970 -0.1207
 2461W        W 6525   7.823  10.188  11.215  0.0998  0.1700 -0.0467
 2462W        W 6526   8.502   5.057   9.826 -0.1673  0.0726  0.2017
 2463W        W 6527   7.928   8.814   9.791 -0.1803 -0.2415 -0.2377
 2464W        W 6528   0.927   6.818   3.248  0.0997  0.0930  0.1801
 2465W        W 6529   2.138   2.949   8.760  0.0912  0.1493 -0.4219
 2466W        W 6530   4.468   5.819   8.921 -0.0228  0.0988 -0.1221
 2467W        W 6531  10.387   8.004   8.172  0.1764  0.1587  0.1259
 2468W        W 6532   9.136   8.881   1.350  0.4135  0.0105  0.0547
 2469W        W 6533   8.360   0.415  10.676  0.0542  0.1496 -0.2246
 2470W        W 6534   6.638   0.467  11.282 -0.1202  0.1215  0.1889
 2471W        W 6535   8.650   3.386   0.387  0.0917 -0.1732 -0.0753
 2472W        W 6536  10.242   2.174  10.327  0.1046  0.0584 -0.2792
 2473W        W 6537   6.047   0.244   0.815  0.1789 -0.0856  0.0865
 2474W        W 6538   6.141   9.360   8.021  0.2811  0.0300 -0.0796
 2475W        W 6539   9.454   1.349   8.752  0.1896  0.1964  0.0672
 2476W        W 6540   3.666   5.738   9.917 -0.0593 -0.0566  0.3183
 2477W        W 6541  10.003   2.093   7.657 -0.0024 -0.3480  0.0736
 2478W        W 6542   3.215  10.101   1.289  0.0583 -0.2996  0.0015
 2479W        W 6543   8.815  10.236   8.527 -0.1010  0.1791  0.1525
 2480W        W 6544   5.639   2.602   0.643  0.0675 -0.0662 -0.2470
 2481W        W 6545   5.134   6.422  10.984 -0.1079  0.0181  0.1362
 2482W        W 6546   7.674   7.349   2.286  0.0992 -0.1922 -0.1010
 2483W        W 6547   6.844   0.818   3.328  0.1036 -0.1981 -0.3305
 2484W        W 6548   3.934   2.502   9.458  0.0940  0.3604 -0.0945
 2485W        W 6549   1.564   1.557  10.052 -0.1228  0.4149 -0.1473
 2486W        W 6550   5.638   6.535   0.078  0.0038  0.1981  0.1441
 2487W        W 6551   0.029   8.300   3.997  0.0333 -0.1566  0.0856
 2488W        W 6552   8.845   5.904   0.109 -0.4369  0.1806 -0.0843
 2489W        W 6553   1.182   9.885  10.200 -0.0316  0.0489 -0.0992
 2490W        W 6554   0.627   2.931   2.930 -0.1361 -0.1392  0.1018
 2491W        W 6555   0.551   3.301  11.592  0.4482 -0.0704  0.0056
 2492W        W 6556   5.275   5.080   9.859 -0.1399  0.2600  0.0528
 2493W        W 6557   7.145  10.294  10.741 -0.1334  0.2711  0.0681
 2494W        W 6558   4.812   2.321  11.606  0.0328 -0.0465  0.4344
 2495W        W 6559   5.602   7.452   3.079 -0.0709  0.0261 -0.1980
 2496W        W 6560   7.424   7.624   9.182 -0.0344 -0.3925  0.0229
 2497W        W 6561   2.159   1.112   8.550  0.0910 -0.0497  0.1570
 2498W        W 6562  10.377   1.775   8.536  0.1538  0.1581 -0.1627
 2499W        W 6563   2.543   9.037  10.054  0.1581 -0.0477 -0.0892
 2500W        W 6564   9.524   5.012   9.707 -0.1166  0.1126  0.1755
 2501W        W 6565   8.246   5.128  10.670  0.0565 -0.0052  0.0971
 2502W        W 6566   3.441   8.918   1.905 -0.0635  0.0417 -0.1163
 2503W        W 6567   3.548   0.908   9.848 -0.0318  0.3067 -0.2247
 2504W        W 6568   1.561  10.036   9.278  0.1726 -0.1394 -0.0379
 2505W        W 6569  10.042   0.251   8.680  0.3483  0.1514  0.0841
 2506W        W 6570   8.081  10.343   9.048  0.0666 -0.5772  0.3329
 2507W        W 6571   6.629   0.819   0.171 -0.2227 -0.4354  0.0425
 2508W        W 6572   4.412   6.925   3.083  0.1264 -0.2140 -0.2221
 2509W        W 6573   7.350   2.810   0.642  0.0442  0.0980  0.1344
 2510W        W 6574   0.565   8.502  11.604  0.2342 -0.1993  0.1288
 2511W        W 6575   0.456   3.803  11.611 -0.0684  0.0834 -0.3508
 2512W        W 6576   8.275   4.335  11.392 -0.2136  0.0121  0.1250
 2513W        W 6577   0.768   4.526   8.368 -0.1671  0.1858  0.1130
 2514W        W 6578   0.874   4.544   3.398  0.0109  0.2107  0.2394
 2515W        W 6579  10.108   7.134   3.822  0.1433  0.2093  0.1716
 2516W        W 6580   3.461   8.917   3.529  0.0642 -0.0379  0.1686
 2517W        W 6581   2.800   8.848   2.460 -0.0463  0.1699 -0.0041
 2518W        W 6582   8.915   7.160   2.369 -0.2338  0.1216  0.2179
 2519W        W 6583   7.694   6.504  10.498  0.3328 -0.1328  0.3177
 2520W        W 6584   4.431   3.093   3.229 -0.2137  0.0741  0.1075
 2521W        W 6585   6.649   3.560   8.687 -0.0612 -0.1713  0.4046
 2522W        W 6586   4.691   6.061  10.028  0.0564  0.0455  0.0039
 2523W        W 6587   8.477   4.413  10.444 -0.0032  0.2816 -0.3655
 2524W        W 6588   1.885   0.211   3.129  0.3291 -0.0698  0.0318
 2525W        W 6589   3.501   2.557   9.214 -0.1749 -0.0480  0.0552
 2526W        W 6590   6.111   8.371   0.448 -0.1836 -0.2642  0.0854
 2527W        W 6591   8.489   0.200  11.348  0.0450  0.1000  0.0596
 2528W        W 6592   3.615   7.894  10.095  0.1236  0.2138  0.2132
 2529W        W 6593   1.327   8.298   8.330  0.3483  0.1528 -0.1891
 2530W        W 6594   6.676  10.326  10.786  0.0591 -0.0336  0.2288
 2531W        W 6595   7.876   1.588   2.707 -0.0246 -0.0568  0.0888
 2532W        W 6596   0.466   9.213   0.586  0.0097 -0.0670  0.1736
 2533W        W 6597   9.752   7.058   9.621  0.0720  0.0160  0.1525
 2534W        W 6598   5.730   7.799  11.406  0.4090 -0.2264  0.0781
 2535W        W 6599   9.875   3.606   1.943 -0.1309 -0.0115  0.3925
 2536W        W 6600   1.823   5.415   8.608  0.1329  0.1651 -0.0156
 2537W        W 6601   4.180   1.198   3.296 -0.2015  0.1233  0.3721
 2538W        W 6602   5.177   4.707   2.628  0.4374  0.1435 -0.0321
 2539W        W 6603   4.575   5.623   0.671 -0.0767 -0.0243  0.0861
 2540W        W 6604  10.499   7.763   1.939 -0.0602 -0.0199  0.2448
 2541W        W 6605   4.978   1.951   7.287 -0.1832 -0.1279  0.1043
 2542W        W 6606   5.001   3.700  10.338 -0.1938 -0.1081 -0.0671
 2543W        W 6607   9.802   3.642   9.457 -0.3295  0.0027 -0.0157
 2544W        W 6608   6.570   7.613   8.842  0.2620  0.0195 -0.3675
 2545W        W 6609   2.371   2.739  11.438 -0.0435  0.0564  0.0554
 2546W        W 6610   0.275  10.105  10.180  0.1806  0.0019 -0.0089
 2547W        W 6611   0.570   4.677  11.276  0.1667  0.3359 -0.0227
 2548W        W 6612   6.692   3.690   1.193 -0.1119  0.2349 -0.2366
 2549W        W 6613   7.678   1.111   9.490  0.0270  0.0273 -0.1174
 2550W        W 6614   9.121   1.200   0.264  0.0103 -0.2833 -0.3019
 2551W        W 6615   6.089  10.479   3.459 -0.0578 -0.0889 -0.2499
 2552W        W 6616   6.316   1.693   8.613  0.0035  0.0604  0.1368
 2553W        W 6617   2.228   6.923   9.137  0.0463 -0.1446 -0.0438
 2554W        W 6618   7.226   2.541   9.800 -0.2165  0.0028  0.0720
 2555W        W 6619  10.584   4.061   2.453 -0.1656  0.0275 -0.0091
 2556W        W 6620   0.784   9.997   3.399 -0.2578 -0.0135  0.0898
 2557W        W 6621   7.369   5.990   0.177  0.1659  0.0499 -0.0428
 2558W        W 6622   5.748   4.301   9.746  0.1770 -0.0095  0.3214
 2559W        W 6623   3.373   2.275   0.024 -0.0938  0.1443  0.1258
 2560W        W 6624   2.194   0.289  10.080  0.0022  0.0382 -0.1426
 2561W        W 6625   9.799   1.462   9.123  0.0327 -0.0481  0.0936
 2562W        W 6626   7.910  10.155   0.170  0.0157 -0.0299  0.1106
 2563W        W 6627   7.069   8.571   0.413  0.1379 -0.0465 -0.1573
 2564W        W 6628   5.482   8.434   2.112  0.0983  0.1300 -0.0580
 2565W        W 6629   9.140   5.478   8.600  0.3643 -0.0184  0.0488
 2566W        W 6630   0.713   0.115  10.042 -0.0835 -0.1404 -0.1189
 2567W        W 6631   7.542   7.475  11.048  0.0355 -0.0984 -0.1333
 2568W        W 6632   9.329   8.982   3.184 -0.1697 -0.0010  0.0292
 2569W        W 6633  10.137   3.221   2.812  0.2395  0.5602  0.2668
 2570W        W 6634   8.664   0.028  10.865  0.4023  0.1499  0.0393
 2571W        W 6635   9.502   6.174  10.058  0.1935  0.0251  0.0501
 2572W        W 6636   1.421   8.345   1.334  0.1456  0.0434 -0.0101
 2573W        W 6637   4.734   2.950   9.625  0.3467 -0.2514  0.1963
 2574W        W 6638   5.847   5.100   3.117 -0.3217 -0.2379  0.0524
 2575W        W 6639   7.154   6.603   7.825  0.0054  0.1064 -0.1830
 2576W        W 6640   9.802   1.973  10.424 -0.0777  0.5368 -0.0653
 2577W        W 6641   5.465   5.988   8.925 -0.0081 -0.2552  0.0038
 2578W        W 6642   6.483   1.614   9.050  0.1977  0.1950  0.0669
 2579W        W 6643   5.992   5.649   9.805  0.2005  0.1050 -0.1945
 2580W        W 6644   0.101   4.662   0.433  0.2051 -0.0434  0.0394
 2581W        W 6645  10.571   9.333   8.764  0.0408 -0.2465  0.2069
 2582W        W 6646   2.100  10.095   8.992  0.1719  0.1510 -0.2425
 2583W        W 6647  10.146   9.976   0.133 -0.1438  0.0772  0.2297
 2584W        W 6648   2.388  10.175   7.515  0.0170 -0.1590  0.0323
 2585W        W 6649   1.525   7.148  11.534  0.0451  0.0214  0.1465
 2586W        W 6650   5.855   8.048   1.510 -0.0767  0.1843  0.0588
 2587W        W 6651   0.966   7.571   8.822  0.0646 -0.0366 -0.1599
 2588W        W 6652   9.016   4.131   8.170 -0.0286 -0.0594 -0.3059
 2589W        W 6653   0.967   2.139   1.039 -0.1089  0.2871  0.0392
 2590W        W 6654   2.249   2.789  10.241 -0.0509  0.3010  0.0766
 2591W        W 6655   7.123   1.672   0.639 -0.0063 -0.0586  0.2816
 2592W        W 6656   9.286   8.186  11.396 -0.1061 -0.1207 -0.2289
 2593W        W 6657  10.364   7.221   0.033  0.0500  0.2327  0.0766
 2594W        W 6658   9.751   7.109   3.476 -0.0034  0.0138 -0.0565
 2595W        W 6659   5.463   3.974   1.361 -0.0873  0.2029 -0.0925
 2596W        W 6660   5.994   7.579   8.826 -0.0151 -0.1740  0.0117
 2597W        W 6661   4.124   1.617   8.966  0.3060 -0.2689 -0.0141
 2598W        W 6662   3.141   7.412  10.992  0.0450  0.2012 -0.1621
 2599W        W 6663   1.572   1.204   1.685  0.2060  0.0358  0.0551
 2600W        W 6664   9.375  10.419  10.487 -0.3337 -0.0200  0.0898
 2601W        W 6665   3.615   1.931  10.288 -0.1304  0.0422  0.0984
 2602W        W 6666   6.045   4.341   2.712 -0.1209  0.1832  0.1700
 2603W        W 6667   2.484   1.916   8.633 -0.2488 -0.2181  0.3250
 2604W        W 6668   5.720   7.505   8.079  0.0328 -0.2250  0.0096
 2605W        W 6669   9.856   6.124   2.431 -0.0421 -0.0080 -0.3050
 2606W        W 6670   6.981   8.371   8.265  0.1001 -0.0438 -0.1482
 2607W        W 6671   7.349   4.964   2.657  0.0379 -0.1921  0.0396
 2608W        W 6672   2.846   9.091  10.455 -0.3304  0.1638  0.0512
 2609W        W 6673   3.580   2.314   0.558 -0.1833 -0.0731  0.1701
 2610W        W 6674   4.053   5.112  11.177  0.0272 -0.1268  0.1146
 2611W        W 6675   5.585   3.638   9.702 -0.1318  0.3094  0.2888
 2612W        W 6676   2.746   8.219   0.923 -0.1288  0.1039  0.0981
 2613W        W 6677   8.113   3.237   8.760  0.1144  0.2433  0.0153
 2614W        W 6678   8.607   4.194   2.054 -0.0764 -0.0695  0.1643
 2615W        W 6679   6.316  10.138   8.753  0.1897 -0.0373 -0.0284
 2616W        W 6680   0.309   9.096   3.504 -0.0127  0.1458  0.2810
 2617W        W 6681   8.873   2.519  11.570 -0.1560  0.1126 -0.0435
 2618W        W 6682   7.357   2.788   1.157  0.0010  0.1432 -0.1406
 2619W        W 6683   9.082   6.088   1.599  0.1764  0.1225 -0.0511
 2620W        W 6684   5.577   2.593   1.245 -0.0600  0.2629 -0.1194
 2621W        W 6685   1.530   8.803   8.219 -0.0859 -0.0255  0.1786
 2622W        W 6686   3.918   7.374  11.543 -0.3821  0.3880 -0.0181
 2623W        W 6687   7.458   4.764   2.224 -0.3789  0.4941  0.2252
 2624W        W 6688   2.991   5.019  10.131 -0.1471 -0.0665  0.2558
 2625W        W 6689   1.593   0.461   2.122  0.0871  0.0210  0.0027
 2626W        W 6690  10.057   3.466   7.544 -0.1900 -0.1488  0.1707
 2627W        W 6691   7.885   5.187   1.575  0.1414 -0.1885 -0.1409
 2628W        W 6692   6.836   2.150   1.291  0.1644 -0.3499 -0.3154
 2629W        W 6693   0.794   6.765   9.715  0.0340  0.0794 -0.2697
 2630W        W 6694   7.683   1.808  10.650 -0.3711  0.0444 -0.1206
 2631W        W 6695   1.714   4.580   8.944  0.0257 -0.0477 -0.1154
 2632W        W 6696   4.805   3.931   9.882 -0.0578 -0.0125 -0.2159
 2633W        W 6697  10.358   4.803  10.235  0.1304 -0.1021 -0.0151
 2634W        W 6698   5.397   0.938   8.391 -0.1819 -0.1638 -0.1288
 2635W        W 6699   9.378   6.030  10.510 -0.1403 -0.2960 -0.4032
 2636W        W 6700   2.741   0.903  11.018 -0.0801 -0.0057 -0.2180
 2637W        W 6701   8.345   6.280  11.681  0.0201 -0.2133 -0.2747
 2638W        W 6702   1.377   6.156   2.779 -0.0713 -0.0115 -0.0694
 2639W        W 6703   8.902   9.519  10.358 -0.0711  0.2286  0.2357
 2640W        W 6704  10.038   5.328   1.746  0.1765  0.0420  0.0190
 2641W        W 6705   7.617  10.160   3.837 -0.3104  0.0413  0.2017
 2642W        W 6706  10.163   9.276   0.891  0.0172 -0.1986  0.3597
 2643W        W 6707   5.663   2.704   0.075 -0.3083 -0.4204 -0.1586
 2644W        W 6708   3.899   3.270   1.384  0.2785 -0.2298 -0.0484
 2645W        W 6709   8.938   3.880  10.998 -0.0475  0.1096  0.0010
 2646W        W 6710   1.439   8.712   2.171 -0.2348  0.2319 -0.3446
 2647W        W 6711   8.916   3.773   1.766  0.1855  0.0915 -0.0968
 2648W        W 6712   2.442   9.029   0.208 -0.1707 -0.0278  0.0938
 2649W        W 6713   8.400   4.647   3.537 -0.1491  0.2957 -0.1022
 2650W        W 6714   9.377  10.174   2.185 -0.1482 -0.3391 -0.2928
 2651W        W 6715   4.562   6.512   3.830 -0.1562  0.1966  0.1365
 2652W        W 6716   9.518   8.484   0.410  0.2892  0.0077 -0.1656
 2653W        W 6717   1.741   8.480   3.569  0.0848 -0.2893 -0.3345
 2654W        W 6718   0.628   4.064   1.488  0.1782  0.1805 -0.0216
 2655W        W 6719   3.415   3.442   9.128 -0.3411 -0.0647 -0.0497
 2656W        W 6720   9.439   3.197  11.184 -0.1447 -0.5184 -0.1647
 2657W        W 6721   8.329   7.855   0.191  0.0968 -0.0510 -0.1335
 2658W        W 6722   8.481   2.199  10.832  0.3157  0.3015  0.0342
 2659W        W 6723   5.753   3.426   1.934  0.1476  0.1778 -0.1999
 2660W        W 6724   9.087  10.355   8.003 -0.0830  0.3904 -0.1214
 2661W        W 6725   6.053   5.366   0.680 -0.0682 -0.2179  0.3518
 2662W        W 6726   5.444   7.877   2.241  0.0587 -0.1932  0.0698
 2663W        W 6727   5.633   6.997   4.358  0.1891  0.0838 -0.0160
 2664W        W 6728   8.686   4.746   2.804 -0.1154  0.1544  0.0828
 2665W        W 6729   0.736   3.008   2.020 -0.0919 -0.3064  0.0601
 2666W        W 6730   9.035   7.909  11.073  0.2024 -0.0938 -0.0243
 2667W        W 6731  10.449   8.134   1.560 -0.3613 -0.1052 -0.1034
 2668W        W 6732   9.126   9.652  11.640 -0.1273  0.0474 -0.2060
 2669W        W 6733   1.767   3.912  11.540 -0.1336 -0.0692  0.2121
 2670W        W 6734   5.833   9.527   9.008 -0.1320  0.1604 -0.1247
 2671W        W 6735   1.590   4.428  11.600 -0.1114 -0.4391 -0.0702
 2672W        W 6736   2.049   5.960   2.323  0.1788  0.2281  0.0369
 2673W        W 6737   9.655   2.670   9.377  0.0437 -0.2514  0.2742
 2674W        W 6738   3.431   9.534   8.869  0.0179 -0.0052 -0.1067
 2675W        W 6739   3.170   0.674  10.564  0.2592  0.0966  0.1481
 2676W        W 6740   4.544   3.224   3.688  0.1463  0.2110  0.0927
 2677W        W 6741   7.833   7.712  10.507 -0.0230 -0.2586 -0.3971
 2678W        W 6742   5.922   4.203  11.306  0.0664 -0.3552 -0.0116
 2679W        W 6743   5.971   8.639  10.890 -0.2570 -0.2400  0.0499
 2680W        W 6744   0.001   2.797   9.513  0.1379  0.0160  0.1305
 2681W        W 6745   4.680   9.309  11.267  0.2411 -0.2786  0.0312
 2682W        W 6746   1.857   8.490  10.284 -0.2521 -0.0133 -0.0783
 2683W        W 6747  10.133   2.738   0.700  0.0137  0.4313  0.0336
 2684W        W 6748   5.830   4.349   7.677  0.2812  0.1515  0.0869
 2685W        W 6749   5.058   9.454   3.658 -0.2308  0.0281  0.3323
 2686W        W 6750   3.260   1.298   3.432  0.2864  0.0585 -0.1681
 2687W        W 6751   4.173   0.802   1.998 -0.3478  0.1824 -0.1769
 2688W        W 6752   6.776   7.693  11.476 -0.3095  0.0706 -0.1326
 2689W        W 6753   7.661   5.925   1.128 -0.2657 -0.4191  0.0599
 2690W        W 6754   5.043   7.202   3.614  0.0133  0.0055  0.4542
 2691W        W 6755   0.927   7.052   1.294  0.3341  0.0215  0.2668
 2692W        W 6756   0.016   0.032   9.487 -0.2062  0.2477  0.0044
 2693W        W 6757   4.947   5.940   8.182  0.2391 -0.0168  0.1113
 2694W        W 6758   1.798   0.007   2.277 -0.0175  0.2409 -0.4545
 2695W        W 6759   6.753   1.734   3.547 -0.1269 -0.2171  0.1740
 2696W        W 6760   8.110   2.608   9.987  0.1822 -0.2501 -0.0179
 2697W        W 6761   9.337   7.459   2.113 -0.0233 -0.0233 -0.1889
 2698W        W 6762   0.035   5.456   3.818 -0.0933  0.2471 -0.1427
 2699W        W 6763   3.488   0.029  11.303 -0.2797  0.2603 -0.0491
 2700W        W 6764   0.487   7.179   9.493 -0.6908  0.0017  0.3052
 2701W        W 6765   1.185   8.485   9.676 -0.0426  0.1262 -0.2852
 2702W        W 6766   6.617   5.132   2.198  0.0424 -0.4505 -0.0078
 2703W        W 6767  10.438   4.453  10.786  0.1013  0.0499  0.4669
 2704W        W 6768   7.821   3.392   9.252  0.2426 -0.0503 -0.0868
 2705W        W 6769   0.576   6.707   1.317  0.0564  0.2603  0.1613
 2706W        W 6770   4.950   1.644  10.343 -0.3487  0.1094 -0.0145
 2707W        W 6771   0.553   1.787  10.303  0.0123 -0.1548 -0.0364
 2708W        W 6772   8.823   3.371   9.284  0.1692  0.0685 -0.1075
 2709W        W 6773   7.222   4.481   1.921  0.3033  0.2673 -0.2028
 2710W        W 6774   3.724   4.384   2.048 -0.0819  0.1543  0.0606
 2711W        W 6775   7.111   6.842   2.966  0.2576  0.1423 -0.1631
 2712W        W 6776   8.250   6.074   3.101 -0.3426 -0.3312  0.2212
 2713W        W 6777   7.995   8.388   2.881  0.0686  0.1785 -0.2140
 2714W        W 6778   3.369   5.321   0.743  0.0121 -0.1966  0.0230
 2715W        W 6779   3.203   8.070   2.508 -0.2196 -0.0997 -0.1319
 2716W        W 6780   1.183   3.247   0.550  0.0661 -0.1228  0.3862
 2717W        W 6781   1.724   7.595   0.855 -0.0044  0.4145  0.3227
 2718W        W 6782   3.742   4.741   9.861 -0.0328 -0.2206  0.2080
 2719W        W 6783   6.536   1.058   3.628  0.0907 -0.3139  0.0921
 2720W        W 6784   5.568   6.272   1.589 -0.1078  0.0809  0.0298
 2721W        W 6785   9.725   4.802   4.116 -0.0736  0.0068 -0.1312
 2722W        W 6786  10.130   5.859   2.067 -0.2618  0.0531  0.2708
 2723W        W 6787   2.460   6.307   2.147  0.0920 -0.3885 -0.1827
 2724W        W 6788   7.673   1.664   8.909 -0.0790 -0.2526  0.0150
 2725W        W 6789   7.071   2.996  10.966 -0.2228  0.0657 -0.0297
 2726W        W 6790   1.183   0.678  10.196  0.1047  0.3319  0.0613
 2727W        W 6791   5.605   2.111  10.698 -0.1955  0.1830 -0.0077
 2728W        W 6792   5.356   7.526  11.673  0.2435  0.1550  0.0175
 2729W        W 6793   7.154  10.290   2.035 -0.3208  0.1228  0.1001
 2730W        W 6794   7.783   5.029   0.226  0.1674  0.3422 -0.2122
 2731W        W 6795   2.177   6.736   2.344  0.4135 -0.3069  0.0244
 2732W        W 6796   8.058   8.606   0.059 -0.2625 -0.1683  0.1232
 2733W        W 6797   0.963   2.364   1.520  0.1111  0.0108 -0.0698
 2734W        W 6798   1.938   4.714   9.596 -0.2153  0.1676  0.1312
 2735W        W 6799  10.115   6.824   2.448 -0.0149  0.0802  0.0033
 2736W        W 6800   9.379   1.938   1.732  0.0729 -0.0370  0.0595
 2737W        W 6801   4.038   6.492   2.185 -0.1477 -0.0385 -0.0979
 2738W        W 6802   3.767   8.083  11.261  0.0368  0.2428  0.3372
 2739W        W 6803   9.751   1.774   2.149  0.0093  0.2253  0.3828
 2740W        W 6804   7.415   3.181   3.360 -0.1145  0.0058  0.1671
 2741W        W 6805   2.955   3.596   2.350 -0.2632 -0.0300  0.0253
 2742W        W 6806  10.357   0.364   2.617  0.0918  0.2141  0.0380
 2743W        W 6807   1.082   9.088   2.325 -0.0140 -0.2062 -0.3341
 2744W        W 6808   5.470   8.675  11.012  0.0064 -0.0151 -0.0036
 2745W        W 6809   2.222   5.164  11.353  0.0989  0.1984  0.0775
 2746W        W 6810   1.446   7.873   0.331  0.1807 -0.0470  0.1283
 2747W        W 6811   6.978   8.897  11.080  0.1978 -0.0417 -0.0411
 2748W        W 6812   2.153   9.719   7.346  0.4062  0.1653  0.2460
 2749W        W 6813   1.079   3.894   0.322 -0.0529  0.2816 -0.0628
 2750W        W 6814   5.043   3.144   0.841 -0.2492 -0.0477 -0.3615
 2751W        W 6815   5.382   0.908   0.549  0.0051  0.2806 -0.1204
 2752W        W 6816   8.039   1.028   1.351  0.1053 -0.2724  0.2492
 2753W        W 6817   7.012   4.329   4.128  0.1053 -0.0446  0.0788
 2754W        W 6818   7.410   5.579   0.854 -0.0322 -0.0467  0.2615
 2755W        W 6819   9.074   2.197   3.097  0.0202  0.1396  0.0103
 2756W        W 6820  10.489   9.019   8.310 -0.1319  0.0002 -0.1682
 2757W        W 6821   1.804   6.146   4.007 -0.0550 -0.2508  0.2048
 2758W        W 6822   7.042   9.589   0.802 -0.1198 -0.0114  0.1080
 2759W        W 6823   0.993   5.267   9.761  0.0702  0.3501  0.1323
 2760W        W 6824   6.090   8.782   0.024 -0.3329  0.0502  0.1585
 2761W        W 6825   8.167   8.667  10.769  0.1154  0.1771 -0.0401
 2762W        W 6826   4.161   1.636   0.363 -0.1217  0.2352 -0.1000
 2763W        W 6827   9.318   2.258   8.330 -0.2346 -0.1090  0.2591
 2764W        W 6828   7.718   9.450   1.770  0.1103  0.0264  0.2119
 2765W        W 6829   6.995   2.886   2.571  0.3265  0.1362 -0.0166
 2766W        W 6830   8.740   4.490   7.972 -0.1221 -0.1770 -0.0038
 2767W        W 6831   1.452   7.901   2.665 -0.2117  0.1898  0.0538
 2768W        W 6832   9.300   6.302   7.954 -0.3526  0.1551  0.0211
 2769W        W 6833   5.652  10.494   3.222 -0.1158 -0.1765 -0.0308
 2770W        W 6834   0.232   5.107   9.571  0.1546  0.0285 -0.1625
 2771W        W 6835   3.556   0.597  11.476 -0.0538 -0.0139 -0.2415
 2772W        W 6836   0.520   6.004   4.656 -0.0327 -0.3258 -0.1841
 2773W        W 6837   3.940   3.636   3.107 -0.1181  0.1194  0.1673
 2774W        W 6838   1.724  10.284   3.130  0.0742 -0.0412 -0.1535
 2775W        W 6839   9.275   3.578   3.248 -0.5972 -0.3227  0.0374
 2776W        W 6840   2.852   8.222  10.019  0.0523  0.0877  0.1290
 2777W        W 6841   6.856   7.578  10.955  0.1514  0.1001 -0.0858
 2778W        W 6842   1.826   3.363   9.052 -0.0178 -0.0792 -0.4447
 2779W        W 6843   2.581   9.678  10.313 -0.1447 -0.0713 -0.0580
 2780W        W 6844   5.385   1.893   2.702 -0.2178 -0.1169  0.1934
 2781W        W 6845   0.098  10.335   1.854 -0.1260 -0.1032  0.3499
 2782W        W 6846   8.989   0.099   3.742  0.0062 -0.0033 -0.0836
 2783W        W 6847   5.174   2.488   3.315 -0.1957 -0.0748 -0.1709
 2784W        W 6848   3.841   0.726   8.362 -0.1460  0.3500  0.3081
 2785W        W 6849   9.581   6.206  11.550 -0.0519  0.1221 -0.3527
 2786W        W 6850   5.229   1.251   9.655 -0.2126 -0.0820  0.0154
 2787W        W 6851   5.878   4.905   0.758 -0.1326 -0.1457  0.0163
 2788W        W 6852   4.669   3.790   3.711  0.0203  0.1752 -0.2495
 2789W        W 6853   4.348   8.506  10.068 -0.1791  0.0427  0.0489
 2790W        W 6854   8.460   8.739   8.118 -0.2030  0.1744 -0.1250
 2791W        W 6855   5.761  10.286   8.312  0.0771  0.0349  0.1599
 2792W        W 6856   2.560   2.214   0.294  0.2228 -0.0721 -0.3136
 2793W        W 6857   8.898   0.245   0.010 -0.6378 -0.0520 -0.2065
 2794W        W 6858   1.117   9.210   9.038 -0.0829 -0.1807  0.0458
 2795W        W 6859   1.226   1.083   3.128  0.3064 -0.2382  0.0522
 2796W        W 6860  10.357   6.744   3.538  0.0896 -0.2843  0.1683
 2797W        W 6861   9.228   3.555   3.750  0.0774 -0.3130 -0.1047
 2798W        W 6862   9.188   7.004   0.863  0.0420  0.0845  0.0272
 2799W        W 6863   8.314  10.152   8.643 -0.1489 -0.2026 -0.0594
 2800W        W 6864   5.911  10.598   0.382 -0.1640 -0.1228 -0.1469
 2801W        W 6865   8.782   5.407   0.271  0.2436  0.2443  0.2608
 2802W        W 6866   3.791   0.530  10.635  0.0212  0.0290  0.1419
 2803W        W 6867   3.791   5.800   9.469  0.2981  0.0603 -0.1153
 2804W        W 6868   2.097   3.126   3.383 -0.0814 -0.0538 -0.0718
 2805W        W 6869   0.453  10.577   2.925  0.2576  0.1025 -0.1610
 2806W        W 6870  10.514  10.043   8.256  0.3441 -0.1198  0.2058
 2807W        W 6871   8.925   7.970  11.562 -0.0016  0.0616  0.2276
 2808W        W 6872   0.613   7.019  11.284  0.2935  0.0008 -0.0340
 2809W        W 6873   3.332   0.090   9.395 -0.0224 -0.1613 -0.0117
 2810W        W 6874   5.797   7.209   1.851 -0.1710  0.1166  0.0084
 2811W        W 6875   1.571   0.360   9.755 -0.3881  0.0258 -0.2212
 2812W        W 6876   0.446   3.250  10.678  0.1246  0.2976 -0.2063
 2813W        W 6877   0.396   8.954   7.676  0.2358 -0.5449 -0.0295
 2814W        W 6878   2.448   1.512   1.463  0.0747  0.0901 -0.3203
 2815W        W 6879   9.044   1.037   8.050 -0.3683  0.2496 -0.1573
 2816W        W 6880   2.288   4.243   1.087 -0.1900 -0.1372 -0.1328
 2817W        W 6881   4.842   6.382  10.459 -0.2090  0.3303 -0.2402
 2818W        W 6882   2.297   9.231   2.781  0.2982 -0.1260 -0.2190
 2819W        W 6883   2.600  10.114   0.626 -0.0188 -0.0230 -0.0753
 2820W        W 6884   5.794   2.581  10.669  0.1307 -0.1289  0.0373
 2821W        W 6885   9.999   1.836   9.958  0.1832  0.1514  0.1153
 2822W        W 6886   5.856   4.358   8.239 -0.1309  0.0247 -0.1893
 2823W        W 6887   3.027   6.415   0.328 -0.1229  0.4255  0.0173
 2824W        W 6888   0.483   4.918   3.055  0.1003  0.2104  0.1078
 2825W        W 6889   0.772   6.876  10.699 -0.2337 -0.3493 -0.3118
 2826W        W 6890   8.615   5.959   0.867  0.0083  0.5397 -0.3847
 2827W        W 6891   6.503   4.579   9.037 -0.0789 -0.0274  0.0675
 2828W        W 6892   4.665   8.093  10.849 -0.2955 -0.0554  0.0912
 2829W        W 6893  10.286   1.297   9.315 -0.1084 -0.0408 -0.0193
 2830W        W 6894   2.898   2.361  10.822 -0.1558 -0.1074 -0.0574
 2831W        W 6895   6.889  10.501   4.224 -0.4336 -0.0941  0.1081
 2832W        W 6896  10.245   4.108   9.272  0.1299  0.0520  0.1177
 2833W        W 6897   4.453   0.894   0.069  0.3570  0.3266 -0.0326
 2834W        W 6898   9.347   7.459  10.045  0.0500  0.0594  0.1750
 2835W        W 6899   0.355   5.898   8.836 -0.2396 -0.1760 -0.3257
 2836W        W 6900   4.987   0.380   0.423 -0.2891  0.2367 -0.3001
 2837W        W 6901   3.189   8.120   3.017  0.1242  0.3825 -0.2362
 2838W        W 6902  10.554   0.260   8.650 -0.1662 -0.2147 -0.0936
 2839W        W 6903   9.397   8.613   2.865 -0.2553  0.0766  0.1446
 2840W        W 6904   9.444   2.613  11.666 -0.0696  0.1996  0.0123
 2841W        W 6905   2.441   8.175   2.291  0.2788  0.0418  0.1221
 2842W        W 6906   1.002   4.374   9.350  0.2450 -0.0698 -0.4850
 2843W        W 6907   9.539   3.879   2.912 -0.0084  0.0207 -0.2373
 2844W        W 6908   7.585  10.180   2.859  0.3875 -0.1439  0.0925
 2845W        W 6909   1.022   4.194   7.460 -0.0356  0.4004 -0.2725
 2846W        W 6910   8.983   8.812   8.135 -0.2103  0.3188 -0.1075
 2847W        W 6911   7.262   7.692   0.147  0.1396  0.1515  0.1941
 2848W        W 6912   8.486   3.967   1.537 -0.1604 -0.0349 -0.1574
 2849W        W 6913   9.349   8.724   8.603 -0.1632 -0.1833 -0.1859
 2850W        W 6914   8.739   0.167   0.735  0.0196 -0.0224 -0.3083
 2851W        W 6915   8.884   6.085  11.309 -0.0894 -0.2366 -0.0994
 2852W        W 6916  10.215   4.960   1.998  0.1248 -0.1923  0.0471
 2853W        W 6917   4.375  10.542  11.028  0.1997  0.3815 -0.1762
 2854W        W 6918   4.782   8.598   3.547  0.3774 -0.0611 -0.0442
 2855W        W 6919   5.244   1.458  11.117  0.1804  0.0722  0.0886
 2856W        W 6920   7.068   9.233  11.499  0.0854 -0.2043  0.3065
 2857W        W 6921   0.229   4.374   8.438  0.0771  0.0035 -0.3801
 2858W        W 6922   5.599   2.554   3.599 -0.0531  0.0302  0.0063
 2859W        W 6923   7.244   0.465  10.010 -0.0130 -0.1725  0.0066
 2860W        W 6924   8.715   5.044   0.618  0.0529  0.1257  0.0707
 2861W        W 6925   3.807   0.914   1.011  0.1918 -0.0057  0.3636
 2862W        W 6926   2.339   4.682   1.788  0.1722  0.2474  0.0361
 2863W        W 6927   4.387   0.456  10.318 -0.1428  0.1745 -0.0995
 2864W        W 6928   3.583   1.394  10.117 -0.1229 -0.2128  0.0942
 2865W        W 6929   6.074   1.624   1.384  0.1803 -0.0826 -0.2979
 2866W        W 6930   6.818   8.026   8.619 -0.3492  0.2289 -0.0675
 2867W        W 6931   7.728   9.374   3.283  0.0971 -0.0815 -0.3589
 2868W        W 6932   6.781   6.816   7.602  0.1169  0.0546  0.0283
 2869W        W 6933   3.012   9.544  10.575 -0.1667  0.2098  0.4075
 2870W        W 6934   7.002   9.094   1.555  0.1299 -0.1592 -0.0212
 2871W        W 6935   4.854   3.516   2.667 -0.2635 -0.2569 -0.1135
 2872W        W 6936  10.140   2.298   8.109 -0.0632 -0.0069 -0.0110
 2873W        W 6937   5.102   8.604   2.537 -0.0587  0.3938 -0.0462
 2874W        W 6938   1.168   8.276   9.229  0.1660  0.0931  0.1319
 2875W        W 6939   9.704   8.712   7.336 -0.0201 -0.1801  0.1429
 2876W        W 6940   0.411   5.201  11.290  0.0623  0.0965  0.1354
 2877W        W 6941   2.742   8.397   1.761 -0.0612  0.0559  0.3242
 2878W        W 6942   6.038   7.266  10.611  0.0369  0.1108 -0.1751
 2879W        W 6943   1.936   9.499   9.536 -0.0228 -0.2525 -0.0701
 2880W        W 6944   4.420   8.317   0.965  0.2924  0.0365 -0.3079
 2881W        W 6945   2.836   5.231   3.751  0.2168  0.0355  0.1132
 2882W        W 6946   6.855   7.183  10.205 -0.1240  0.0458  0.0713
 2883W        W 6947   8.287   7.900   8.843  0.0658 -0.0333  0.0066
 2884W        W 6948   2.351   1.603   0.455 -0.2645  0.0026 -0.3685
 2885W        W 6949   0.404  10.310   2.506  0.2376 -0.0121 -0.1881
 2886W        W 6950   2.468   2.052   0.773 -0.0599 -0.0867  0.0086
 2887W        W 6951   6.807   7.570   0.289 -0.1176  0.0677 -0.5150
 2888W        W 6952   3.489   0.445  10.241  0.0567  0.0188  0.4544
 2889W        W 6953  10.584   3.892   8.263 -0.1112 -0.0622  0.1668
 2890W        W 6954   5.362   9.878   1.763 -0.0506  0.0519 -0.1381
 2891W        W 6955   4.243   9.177   0.463 -0.0146 -0.2039  0.1738
 2892W        W 6956   1.949   5.266   9.654  0.2230 -0.0184  0.1288
 2893W        W 6957   4.016   7.281   7.902  0.1296  0.0730 -0.1405
 2894W        W 6958   2.828   1.223   0.814 -0.0083  0.0860 -0.1017
 2895W        W 6959   1.157   2.489   3.144  0.1346  0.3082  0.0350
 2896W        W 6960   3.847   3.148   9.366  0.2098  0.0148 -0.1828
 2897W        W 6961   2.844   1.740  11.229  0.1145 -0.1186 -0.0780
 2898W        W 6962   9.634   9.724  11.461 -0.5005  0.0554  0.2444
 2899W        W 6963   4.161   3.563   3.692 -0.3055 -0.0228 -0.3242
 2900W        W 6964   1.280   0.334   3.091  0.3267 -0.0229  0.2912
 2901W        W 6965   1.256   5.183   7.845  0.0957 -0.0551  0.0703
 2902W        W 6966   1.066   6.225   9.934 -0.0275  0.0712  0.0497
 2903W        W 6967   9.384   2.477   1.594  0.0692  0.1551 -0.1092
 2904W        W 6968   7.749   9.814   9.790 -0.0047  0.0312 -0.1188
 2905W        W 6969  10.360   7.445   8.392  0.0258 -0.1812 -0.1887
 2906W        W 6970   5.686   4.404  10.915 -0.0866  0.0978 -0.1747
 2907W        W 6971   6.471   2.203   2.311  0.3199 -0.2629  0.1844
 2908W        W 6972   9.421   7.117   8.532  0.1302 -0.0266  0.1966
 2909W        W 6973   6.600   4.933   3.110 -0.3218 -0.1023  0.4554
 2910W        W 6974   5.214  10.010   8.769  0.0505  0.0545  0.4099
 2911W        W 6975   9.711   5.495   1.379 -0.2922  0.2716  0.1314
 2912W        W 6976   3.420   4.647   3.920 -0.0011  0.4157 -0.0838
 2913W        W 6977   4.820  10.397   1.263 -0.1779 -0.1987  0.0722
 2914W        W 6978   5.732   5.533  11.354  0.3381 -0.1713  0.1676
 2915W        W 6979   9.384   6.325   2.434  0.2328 -0.1030  0.3894
 2916W        W 6980   3.280   1.615   9.340  0.1467 -0.2865  0.2038
 2917W        W 6981   6.023   0.385   3.481  0.1662 -0.0807 -0.0662
 2918W        W 6982   2.354   8.727   1.572 -0.0018 -0.2312 -0.1448
 2919W        W 6983   4.187   8.950  11.297 -0.2522  0.1832  0.1285
 2920W        W 6984   6.095   0.839   3.679  0.2588  0.3764  0.0050
 2921W        W 6985   3.537   7.175  11.304 -0.0162  0.3810 -0.0329
 2922W        W 6986   5.498   1.554   8.448 -0.1610  0.0183 -0.0134
 2923W        W 6987  10.186   7.664   9.770  0.0655 -0.1192 -0.1838
 2924W        W 6988   9.389   4.044   1.804 -0.0918  0.2401  0.1266
 2925W        W 6989   3.982   5.013   2.822 -0.0905  0.1697 -0.0172
 2926W        W 6990   0.125   3.314   0.891  0.2126 -0.0035  0.1016
 2927W        W 6991   1.991   3.462   2.738  0.3692 -0.0558  0.1159
 2928W        W 6992   1.630   4.519   2.623 -0.0126 -0.1216 -0.0983
 2929W        W 6993   7.597   7.641   9.710 -0.2003  0.0895  0.0319
 2930W        W 6994   3.479   9.790   1.545  0.1139  0.1149 -0.1812
 2931W        W 6995   0.223   9.520   1.306  0.0820 -0.0807  0.0853
 2932W        W 6996   9.875   6.482   2.726  0.3714 -0.0314 -0.0849
 2933W        W 6997   7.592  10.525  11.559  0.1816  0.1628 -0.1177
 2934W        W 6998   2.966   4.587   3.127 -0.1225  0.5627 -0.0629
 2935W        W 6999   4.311  10.113  10.306 -0.1351 -0.3574  0.0226
 2936W        W 7000   1.909   0.769  11.599  0.2088 -0.1684  0.0803
 2937W        W 7001   3.563   0.501   8.731 -0.3848  0.0653  0.3718
 2938W        W 7002   5.760   6.107   8.580  0.0222  0.0084  0.0243
 2939W        W 7003   1.452   5.020   4.381  0.2455  0.1027  0.0514
 2940W        W 7004  10.391   0.060  10.762  0.3796  0.1382 -0.0692
 2941W        W 7005   8.306   8.247   1.204 -0.0911  0.1168  0.1193
 2942W        W 7006   5.000   0.230   9.744 -0.0589  0.0151  0.2346
 2943W        W 7007   1.117   1.328   1.729 -0.0094  0.0444  0.1953
 2944W        W 7008   4.228   3.019   9.745  0.0627  0.1516 -0.0260
 2945W        W 7009   2.556   3.754   2.794 -0.0993  0.2103  0.2560
 2946W        W 7010   0.483   8.027   2.085  0.3100 -0.0080  0.0266
 2947W        W 7011   6.563   2.650   0.007  0.2868 -0.1685  0.0739
 2948W        W 7012   7.444   7.081   9.913  0.0100  0.1991  0.0156
 2949W        W 7013   8.908   1.438   0.615  0.0652  0.1355  0.0327
 2950W        W 7014   2.692   1.309   0.180 -0.0396  0.0286 -0.1012
 2951W        W 7015   3.208   9.370   1.646 -0.0920 -0.0035 -0.0372
 2952W        W 7016   7.226   3.563  11.228  0.1320 -0.3747 -0.3946
 2953W        W 7017   1.313   9.533   2.153  0.0509  0.0743 -0.1470
 2954W        W 7018   5.835   6.230   2.009  0.1384 -0.1266 -0.1943
 2955W        W 7019   9.379   9.445  11.145 -0.0215 -0.2827  0.1218
 2956W        W 7020   8.139   5.110   2.522 -0.0716  0.0865  0.1481
 2957W        W 7021   8.045   5.766   9.489 -0.2722 -0.1358  0.0965
 2958W        W 7022   8.829   7.359  10.030 -0.1938 -0.0607  0.1814
 2959W        W 7023   3.093   0.822   8.768 -0.2444 -0.0779  0.2985
 2960W        W 7024   9.037   2.563   3.985 -0.0346 -0.0275 -0.1727
 2961W        W 7025  10.207   8.470   8.765  0.2705  0.1269  0.0768
 2962W        W 7026   1.645   8.588   8.649  0.0070  0.2170 -0.1909
 2963W        W 7027   8.201   4.904   3.095  0.1119  0.1063 -0.0321
 2964W        W 7028   6.875   2.619   0.471 -0.0351 -0.2786 -0.2307
 2965W        W 7029   5.322   0.948  10.373  0.1358  0.2183  0.0413
 2966W        W 7030   3.068   3.079   1.381  0.0835 -0.0431 -0.2924
 2967W        W 7031   2.458   5.002  10.825  0.0075  0.2461 -0.2037
 2968W        W 7032   3.964   8.957  10.464 -0.1369 -0.1246 -0.3739
 2969W        W 7033   4.618   4.655   3.377  0.2084  0.0442 -0.3196
 2970W        W 7034   5.377   4.034   4.424  0.1860  0.1991  0.5313
 2971W        W 7035   9.129   0.963   3.197 -0.1578 -0.2031  0.3181
 2972W        W 7036   4.934   8.628   8.615  0.2325 -0.1959  0.2727
 2973W        W 7037   3.122   7.559   2.780  0.0971 -0.4086 -0.1882
 2974W        W 7038   7.719   4.245   2.797 -0.2423  0.3314 -0.0374
 2975W        W 7039   2.584   6.737   4.813 -0.0151 -0.1742  0.0347
 2976W        W 7040   4.836   4.974   2.297  0.2605 -0.1267  0.1677
 2977W        W 7041   7.226   1.175   0.165 -0.0234 -0.2682  0.2666
 2978W        W 7042   1.429   9.493  11.662  0.4599  0.1705 -0.1015
 2979W        W 7043   8.793   8.403   4.354 -0.1887  0.1145  0.3493
 2980W        W 7044   6.250   5.577   9.407 -0.3149  0.1851  0.0526
 2981W        W 7045   1.803  10.479  11.598 -0.1473  0.3334  0.3361
 2982W        W 7046   4.894   5.949  11.569  0.1222  0.0616 -0.1275
 2983W        W 7047   8.633   8.126   3.435 -0.1825  0.0814  0.0274
 2984W        W 7048   4.449   2.402  10.450 -0.1215  0.0104  0.0508
 2985W        W 7049   0.305   8.834   0.256  0.0669 -0.1551  0.1656
 2986W        W 7050   0.605   5.956   9.817 -0.1882 -0.1679 -0.0234
 2987W        W 7051   2.950   7.327   9.346 -0.1524  0.2560 -0.1944
 2988W        W 7052   8.208   4.192   8.738 -0.0344  0.3360 -0.3069
 2989W        W 7053   4.591   0.832   1.618 -0.1129  0.1039 -0.0510
 2990W        W 7054   3.828   6.666  11.600  0.1493  0.5596  0.1413
 2991W        W 7055   9.318   6.849  10.799  0.2678 -0.1077 -0.2212
 2992W        W 7056   7.762   9.871   3.206 -0.1300  0.1992 -0.0257
 2993W        W 7057   5.555   8.180   9.041 -0.1219 -0.1340  0.0433
 2994W        W 7058   2.460   8.207   9.692  0.0603 -0.4574 -0.3093
 2995W        W 7059   5.390   4.038   9.420  0.1601 -0.1754  0.5166
 2996W        W 7060   2.102  10.403   2.846  0.0762 -0.1471 -0.0534
 2997W        W 7061   5.275  10.520   0.147 -0.0970 -0.1689  0.1586
 2998W        W 7062   0.772   8.986  10.989 -0.1556  0.1756  0.0035
 2999W        W 7063   9.306   9.046   8.977  0.1524  0.1141 -0.2136
 3000W        W 7064   3.126   8.866   9.583 -0.2438 -0.0443 -0.1094
 3001W        W 7065   7.096   3.277   2.931  0.0729  0.0862  0.2489
 3002W        W 7066  10.213   0.998   1.187 -0.3203  0.1384  0.1450
 3003W        W 7067   1.177   9.026  10.601 -0.0463 -0.0312  0.3500
 3004W        W 7068   2.524   1.457   2.549 -0.3852  0.2120  0.0952
 3005W        W 7069   6.076   9.630   0.146 -0.0988  0.0931 -0.1228
 3006W        W 7070  10.158   1.501   2.263 -0.1829  0.0299  0.1628
 3007W        W 7071   6.442   9.480   2.816 -0.0671 -0.1665  0.2712
 3008W        W 7072   1.828   9.069   0.167  0.0074 -0.2987 -0.1570
 3009W        W 7073   5.683   1.589   9.865 -0.3633  0.0113  0.0249
 3010W        W 7074   9.267   5.204   0.991 -0.0945 -0.3120  0.1072
 3011W        W 7075   6.026   2.355   3.290  0.2133  0.3051 -0.1330
 3012W        W 7076   1.030   1.576   1.082  0.0221 -0.3848 -0.3352
 3013W        W 7077   7.003   2.187   3.096 -0.1340 -0.0057 -0.3030
 3014W        W 7078   3.949   9.439   3.443 -0.0401 -0.0997  0.0753
 3015W        W 7079   1.367   3.207  10.820  0.2182  0.0140  0.0660
 3016W        W 7080   4.892   8.603   9.912 -0.2215  0.1564 -0.0475
 3017W        W 7081   9.033   4.132   1.414 -0.1112  0.4018  0.2118
 3018W        W 7082   5.742   9.975   8.690 -0.1698  0.3828  0.2694
 3019W        W 7083   0.376   1.541   9.909  0.2690 -0.4025 -0.1426
 3020W        W 7084   6.925   2.028   7.923  0.2547 -0.0165 -0.0509
 3021W        W 7085   7.350   3.645   9.349 -0.0924 -0.1253  0.0717
 3022W        W 7086  10.502   6.720   8.937 -0.4602  0.1318 -0.1520
 3023W        W 7087   6.988   4.754   2.327 -0.0902  0.0188  0.0587
 3024W        W 7088   5.455   3.401  10.174  0.5901 -0.1307  0.2028
 3025W        W 7089   0.879   8.927   1.389 -0.0655  0.0915 -0.3262
 3026W        W 7090   4.803   4.900   8.511  0.0369 -0.1657 -0.1345
 3027W        W 7091   4.302   1.775   2.758  0.0053 -0.0239 -0.0130
 3028W        W 7092   8.918   4.302   9.485  0.0618  0.0666 -0.1511
 3029W        W 7093   3.666   7.672  11.015 -0.4430  0.0370 -0.0578
 3030W        W 7094   3.404   9.875  10.567  0.0849  0.1481  0.1884
 3031W        W 7095   4.831   8.029   0.995  0.3118  0.1122  0.2633
 3032W        W 7096   0.558   7.669   9.787 -0.1567  0.2175  0.0712
 3033W        W 7097   7.638   6.037   0.646 -0.1097  0.2298  0.1799
 3034W        W 7098   8.237  10.519   9.482 -0.0929  0.1128 -0.2845
 3035W        W 7099   6.903   0.430   3.004 -0.4220 -0.0365  0.0914
 3036W        W 7100   1.355   9.106   9.846 -0.0275 -0.0994 -0.1004
 3037W        W 7101   9.939   7.217   0.367  0.0619  0.2448  0.1677
 3038W        W 7102   1.756   2.271   0.207  0.2590  0.1323  0.0150
 3039W        W 7103  10.225   9.782  11.049  0.0521  0.0819 -0.2466
 3040W        W 7104   2.244   9.790  10.653 -0.0390  0.1845 -0.1906
 3041W        W 7105   4.487   1.957   8.811 -0.1424  0.2156 -0.2530
 3042W        W 7106   9.824   2.471   8.429  0.0727 -0.1175 -0.0817
 3043W        W 7107   6.116   7.674   2.986 -0.1791 -0.0903  0.1251
 3044W        W 7108   8.022   6.960   0.562 -0.4283  0.1762  0.0326
 3045W        W 7109   5.579   4.908   8.879  0.0681  0.0740  0.2400
 3046W        W 7110   1.902   3.922  10.936  0.0820  0.3878  0.0608
 3047W        W 7111   4.687   6.794   4.249 -0.0286 -0.0368 -0.2463
 3048W        W 7112   0.323   9.558   2.333 -0.1660  0.0094 -0.2207
 3049W        W 7113   2.708   9.054   1.650  0.0742  0.1916  0.1036
 3050W        W 7114   3.464   5.753  11.427  0.1784  0.0265 -0.1548
 3051W        W 7115   9.972   2.382  10.813  0.4967 -0.1363 -0.0972
 3052W        W 7116  10.177   9.841   1.964 -0.0882  0.3071  0.0449
 3053W        W 7117   3.420   6.819   8.194  0.4662 -0.1370  0.4564
 3054W        W 7118   7.160   5.809   3.518 -0.0382 -0.0443 -0.0952
 3055W        W 7119   2.605   7.454  11.009 -0.1147 -0.3972 -0.0733
 3056W        W 7120   9.109   2.956  11.386 -0.3694  0.2894  0.0132
 3057W        W 7121   9.086  10.010  10.378  0.0462  0.2397 -0.0898
 3058W        W 7122   8.871   5.408   1.631 -0.0971  0.1742  0.2089
 3059W        W 7123   7.682   2.110   3.590 -0.1534  0.1094 -0.0709
 3060W        W 7124   8.031   1.630   3.713  0.0480  0.0324 -0.1344
 3061W        W 7125   8.177   1.404  11.622 -0.1133 -0.0814 -0.0601
 3062W        W 7126   3.864   5.012   1.665 -0.1347 -0.3488  0.0814
 3063W        W 7127   7.112   1.264   8.426  0.0281  0.2507  0.2699
 3064W        W 7128   4.458  10.167   1.845 -0.0559 -0.1243  0.1164
 3065W        W 7129   5.234   0.161  11.375 -0.0066 -0.3158 -0.0683
 3066W        W 7130   0.387   5.408   8.834  0.1641 -0.1591 -0.0792
 3067W        W 7131   8.506   0.355   3.816 -0.0975 -0.0953  0.1353
 3068W        W 7132   1.961   0.049   0.397 -0.1577 -0.1979 -0.2784
 3069W        W 7133   6.209   5.073   9.571 -0.1750  0.0057  0.0562
 3070W        W 7134   6.662   4.898  10.569  0.2723  0.2076  0.1445
 3071W        W 7135   9.137   9.809   2.457  0.1627 -0.0688  0.4144
 3072W        W 7136   6.427   7.708  10.097  0.0542  0.0048 -0.0564
 3073W        W 7137   2.183   4.599   9.180 -0.0841  0.1242  0.1036
 3074W        W 7138   1.847   6.354  10.768  0.2307  0.2902 -0.1580
 3075W        W 7139   7.426   8.796   8.455 -0.1409 -0.0614 -0.0072
 3076W        W 7140   8.890   0.738   3.650  0.0765 -0.2316  0.0334
 3077W        W 7141   1.282   8.345   4.402 -0.3107  0.1580  0.0988
 3078W        W 7142   5.438   1.087   3.230  0.0935 -0.1701  0.1106
 3079W        W 7143   6.751   7.122  11.163  0.1929 -0.0532 -0.1047
 3080W        W 7144   7.538   2.558   9.399 -0.0241 -0.1157  0.2778
 3081W        W 7145   3.493   4.909   8.982  0.4869 -0.1395 -0.1486
 3082W        W 7146  10.579  10.084  11.508  0.0559 -0.1161  0.2876
 3083W        W 7147   2.149   4.411   2.747 -0.1870 -0.1179  0.1560
 3084W        W 7148   7.251   2.190  10.133 -0.2564 -0.1111  0.0850
 3085W        W 7149   4.796  10.026   8.169 -0.0867  0.0310 -0.1866
 3086W        W 7150   2.926   4.092   2.346 -0.3851  0.0406 -0.0756
 3087W        W 7151   8.797   4.451   4.191 -0.0381  0.1459 -0.3961
 3088W        W 7152   6.758   2.012   0.687  0.2335 -0.0102 -0.2397
 3089W        W 7153   3.269   7.082   0.485  0.2505  0.1149 -0.0052
 3090W        W 7154   9.259   6.433   1.302  0.4130  0.1223  0.0130
 3091W        W 7155   4.977   3.099   7.370  0.1254 -0.2032 -0.1263
 3092W        W 7156   0.512   4.826   1.788 -0.1687  0.4059 -0.0842
 3093W        W 7157   6.952   2.833   1.807  0.1470  0.2509  0.0265
 3094W        W 7158   2.515   6.745  11.382 -0.4304  0.1872 -0.2020
 3095W        W 7159   0.347   8.090   1.583  0.2789 -0.3198 -0.0508
 3096W        W 7160   3.805   3.656   9.460  0.1233  0.2869 -0.0788
 3097W        W 7161   9.077   9.847   8.215 -0.1951 -0.0105  0.0451
 3098W        W 7162   1.674   9.812   1.817 -0.2632 -0.3965  0.0538
 3099W        W 7163   6.414   8.311  10.766 -0.3065  0.1461  0.2005
 3100W        W 7164   4.680   2.523   3.180  0.0468 -0.4059 -0.4702
 3101W        W 7165   4.460   1.359   3.632  0.0405  0.0168  0.1131
 3102W        W 7166   4.289   2.192   1.835 -0.1376 -0.1692 -0.0338
 3103W        W 7167  10.155   0.892  11.674 -0.1404 -0.1162 -0.2250
 3104W        W 7168   0.727   6.368   1.680  0.0351 -0.5008 -0.1860
 3105W        W 7169  10.113   4.546  11.468  0.2893  0.0661 -0.3489
 3106W        W 7170   4.198   6.652  10.519  0.0956  0.1305 -0.1026
 3107W        W 7171   9.338   3.701   2.142 -0.0555 -0.3395  0.1125
 3108W        W 7172   2.483   8.727   7.971  0.2050  0.2375 -0.2338
 3109W        W 7173   1.496   2.952   0.957  0.1198  0.1474  0.1143
 3110W        W 7174   4.738   3.502   3.183  0.1373  0.1591  0.0544
 3111W        W 7175   0.281   0.317   1.765 -0.0051  0.1986 -0.1543
 3112W        W 7176   8.003   5.908  11.034  0.0078  0.0652 -0.2874
 3113W        W 7177   7.164   1.208   7.964 -0.2538 -0.3198 -0.3204
 3114W        W 7178   1.653   0.420   0.595 -0.2210  0.3375  0.0142
 3115W        W 7179   0.122   8.151  10.852  0.1052  0.0917 -0.2275
 3116W        W 7180   8.485   8.301   9.044  0.1383 -0.1119  0.0941
 3117W        W 7181   7.164   5.996   2.323 -0.3401  0.0079 -0.2149
 3118W        W 7182   2.737   9.120   9.496  0.0029 -0.1607 -0.2377
 3119W        W 7183  10.197   0.251   8.228 -0.0400  0.0272 -0.2571
 3120W        W 7184   9.700   7.637   9.656 -0.2584  0.3805 -0.0129
 3121W        W 7185   5.030   7.732   3.420  0.1003 -0.1648 -0.3810
 3122W        W 7186   7.811   1.832   3.138  0.1800  0.3415  0.0698
 3123W        W 7187   8.735   2.693  10.558 -0.0430 -0.2510 -0.0547
 3124W        W 7188   2.898   4.474  10.162  0.0482 -0.0165  0.2090
 3125W        W 7189   5.444   6.972   3.345 -0.2475 -0.1800  0.1724
 3126W        W 7190   9.385  10.096   3.231 -0.2180 -0.1589  0.0259
 3127W        W 7191   0.676   8.519   1.628  0.0067 -0.0502  0.0012
 3128W        W 7192   5.255   9.797  11.507 -0.0311 -0.0102  0.0601
 3129W        W 7193   0.273   6.018  10.243  0.1150  0.1842  0.1550
 3130W        W 7194  10.044   6.023   0.089 -0.2257  0.1525  0.0008
 3131W        W 7195   2.643   9.055   8.933  0.5467  0.0988  0.0702
 3132W        W 7196   5.911   5.051  11.349  0.1635 -0.1158 -0.0549
 3133W        W 7197   5.785   1.201   3.544  0.0818 -0.4461 -0.1305
 3134W        W 7198   5.741   3.938   9.018  0.3955 -0.1873 -0.4614
 3135W        W 7199   9.121   8.065   4.281  0.4430 -0.0132  0.3109
 3136W        W 7200   8.776   5.131   8.475 -0.1105  0.2877  0.2442
 3137W        W 7201   2.383   0.260   4.006 -0.1386 -0.0259  0.3988
 3138W        W 7202   3.460   8.978   3.011  0.7190 -0.0065  0.2040
 3139W        W 7203   0.463   2.028   9.151 -0.1922 -0.0488 -0.0468
 3140W        W 7204   1.146   9.650   0.818  0.0198 -0.0634  0.1658
 3141W        W 7205   9.258   3.914   8.757  0.0603  0.1264  0.2519
 3142W        W 7206   8.083   1.725   0.773 -0.3767  0.0493  0.0631
 3143W        W 7207   5.612   0.406   1.048  0.1286 -0.0312  0.0458
 3144W        W 7208   0.564   5.899   9.316  0.1264  0.0225  0.0320
 3145W        W 7209   5.179   1.039   8.807  0.1679  0.0387 -0.1506
 3146W        W 7210   4.169   7.427   3.520  0.2059 -0.0951 -0.3681
 3147W        W 7211   2.689   2.758   0.387 -0.0186  0.1137  0.0975
 3148W        W 7212   5.814   5.803   3.859 -0.0691  0.2458  0.3903
 3149W        W 7213   9.882   3.664   1.307 -0.2000 -0.0996 -0.1868
 3150W        W 7214   1.727   7.692   8.832  0.1703 -0.0078 -0.0991
 3151W        W 7215   7.571   0.035  10.119 -0.1471 -0.2970  0.1361
 3152W        W 7216   2.260   7.226   9.849 -0.0379 -0.2136  0.0471
 3153W        W 7217   3.459   4.179   9.576  0.0182 -0.1789 -0.3272
 3154W        W 7218   6.546   4.612  10.961  0.0597  0.2133 -0.0783
 3155W        W 7219   9.948   6.950  11.645 -0.0788  0.1246  0.2801
 3156W        W 7220   7.720   8.076   4.068  0.2922 -0.4073  0.2129
 3157W        W 7221   8.740   9.452   2.635 -0.1442 -0.1634 -0.0413
 3158W        W 7222   1.847   2.260   1.759 -0.4277  0.1512  0.1100
 3159W        W 7223   6.344   8.240   2.150 -0.0300 -0.1352 -0.2811
 3160W        W 7224   5.398   2.625   8.680  0.3406 -0.0422 -0.0239
 3161W        W 7225   5.109   8.193   0.555  0.0712  0.1643 -0.0337
 3162W        W 7226   6.236   9.490  10.912  0.0821  0.1349 -0.1382
 3163W        W 7227   6.540   6.783   9.045  0.0721  0.0991  0.1693
 3164W        W 7228   4.549   7.253  10.294 -0.1186 -0.2171  0.3381
 3165W        W 7229   7.915   2.398  11.313 -0.1830  0.2235  0.1346
 3166W        W 7230   5.488   9.956   2.943 -0.1327  0.1067  0.1204
 3167W        W 7231   7.442   5.107   0.721 -0.1998 -0.1140  0.1909
 3168W        W 7232   4.420   6.315   2.410  0.0242 -0.2585 -0.0265
 3169W        W 7233   8.325   0.408   9.663 -0.0072  0.1076 -0.0229
 3170W        W 7234  10.378   6.107   1.418  0.3488 -0.3994 -0.2292
 3171W        W 7235   9.246   0.363   3.177  0.1215 -0.1551  0.1696
 3172W        W 7236   0.527   3.902   1.986  0.1995 -0.1303  0.1329
 3173W        W 7237   1.063  10.146   1.229 -0.2512 -0.3031  0.1515
 3174W        W 7238   8.776  10.362   1.120 -0.0304  0.0092  0.0889
 3175W        W 7239   2.877   5.168   3.221  0.3317 -0.0244 -0.3728
 3176W        W 7240   6.912   7.413   8.333 -0.0607  0.1155 -0.0394
 3177W        W 7241   9.209   4.328   9.896  0.1975 -0.0087 -0.0480
 3178W        W 7242   1.961   1.268   0.902 -0.1266  0.4579 -0.3301
 3179W        W 7243   3.416  10.244  10.946  0.0361  0.1454 -0.0816
 3180W        W 7244   1.484   0.080  10.178  0.0729 -0.2831  0.1757
 3181W        W 7245   2.860   3.563   8.908 -0.1161 -0.2136 -0.2877
 3182W        W 7246   1.248   3.908  10.291 -0.4590 -0.0893  0.1926
 3183W        W 7247   3.711   3.357   8.627 -0.2258 -0.3130 -0.0952
 3184W        W 7248   9.183   4.793   0.778  0.2631  0.0704 -0.3138
 3185W        W 7249   4.016   4.931   9.410  0.1124  0.0311  0.1371
 3186W        W 7250   4.009   5.995  10.670  0.1094  0.2276  0.1287
 3187W        W 7251   2.329   4.758   0.769 -0.5127 -0.2000 -0.2759
 3188W        W 7252   1.837   3.519   1.553  0.2001  0.0485  0.2118
 3189W        W 7253   8.339   8.598   9.489  0.0285 -0.0789  0.0420
 3190W        W 7254   2.556   9.213   3.293  0.0485  0.1825  0.0658
 3191W        W 7255   3.086   7.299   0.951  0.1815  0.0434  0.0191
 3192W        W 7256   0.762   1.900   0.352 -0.1149 -0.0700  0.1898
 3193W        W 7257  10.167   4.485   1.830 -0.2188 -0.2613  0.3184
 3194W        W 7258   8.525   9.998   8.201 -0.0071  0.0177  0.1638
 3195W        W 7259   9.380   0.750   8.777 -0.2921  0.1512 -0.0887
 3196W        W 7260   9.924   8.362  10.198 -0.1440 -0.0231 -0.2283
 3197W        W 7261   0.123   2.610   2.819 -0.2215 -0.0081  0.1144
 3198W        W 7262   7.666   3.909   2.328  0.2194  0.0411  0.0299
 3199W        W 7263   4.936   3.923   8.031 -0.0199 -0.0438 -0.1955
 3200W        W 7264   6.485   6.614   8.505  0.2001  0.3388  0.1156
 3201W        W 7265   0.848   5.630   9.011  0.1500  0.1887 -0.3793
 3202W        W 7266   4.819   1.748   2.672 -0.3398 -0.0685 -0.3007
 3203W        W 7267   5.160   3.129   2.548  0.1017  0.0573  0.2300
 3204W        W 7268   1.385   8.425  11.323  0.0691 -0.3708  0.1468
 3205W        W 7269   1.934   5.572  10.312 -0.1821  0.4799 -0.0823
 3206W        W 7270   7.054   0.675  11.538 -0.0109 -0.1406  0.0146
 3207W        W 7271   3.359   8.700   8.396  0.1181 -0.2549  0.4948
 3208W        W 7272   5.579   8.232   0.548  0.2685  0.1251 -0.3735
 3209W        W 7273   3.470   4.871   1.948 -0.1307 -0.0579 -0.1987
 3210W        W 7274   5.508   4.724   3.833 -0.3602  0.2932 -0.2800
 3211W        W 7275   6.683   9.543  11.184 -0.0598  0.1704 -0.0175
 3212W        W 7276   3.584   1.000   0.145 -0.1021 -0.1242  0.2010
 3213W        W 7277   7.143   3.074  10.494  0.2082 -0.2112  0.0108
 3214W        W 7278   6.245   8.116  10.338  0.0624  0.0239  0.2791
 3215W        W 7279  10.496   5.294   1.533  0.0389  0.3976  0.0485
 3216W        W 7280   3.121   8.130   1.956  0.1074  0.0655  0.0725
 3217W        W 7281   6.143   4.497   9.477  0.1064 -0.0443  0.0038
 3218W        W 7282   8.532   6.406   1.797 -0.1870  0.0575  0.0923
 3219W        W 7283   6.862   8.075   0.923 -0.1202 -0.3076 -0.2576
 3220W        W 7284   4.226   6.199   1.875  0.0549  0.0906 -0.2899
 3221W        W 7285   5.009   3.293   9.340 -0.0193 -0.5116  0.0999
 3222W        W 7286   9.066   9.805  10.848  0.0360  0.1975  0.0123
 3223W        W 7287   4.388   2.726   3.764 -0.1980 -0.3331  0.1107
 3224W        W 7288   3.862   1.954   8.295 -0.0089 -0.3371 -0.1010
 3225W        W 7289   8.424   5.631   1.841  0.1006  0.1770 -0.1168
 3226W        W 7290   3.776   9.503   1.819  0.0389  0.0383 -0.1963
 3227W        W 7291   1.362   7.629  11.606 -0.0171 -0.4118 -0.1875
 3228W        W 7292   0.851   0.173   1.238 -0.3371 -0.0462  0.2815
 3229W        W 7293   7.088   7.654   1.841  0.1291 -0.0694  0.3538
 3230W        W 7294   7.388   9.495   9.683  0.1711  0.2660 -0.0439
 3231W        W 7295   3.672   5.844   3.287 -0.1410 -0.0667 -0.0852
 3232W        W 7296   8.019   6.017   0.342 -0.2099  0.1087  0.3444
 3233W        W 7297   4.515   9.015  10.183 -0.0428  0.2496 -0.1148
 3234W        W 7298   9.987   6.993   1.466  0.2054  0.1123 -0.2025
 3235W        W 7299   4.608   8.999   0.004 -0.0910  0.0720  0.1710
 3236W        W 7300   8.056   6.753   8.315 -0.1445 -0.3939 -0.0428
 3237W        W 7301   9.143   4.822   8.786  0.0838 -0.0764  0.1721
 3238W        W 7302   6.137   3.873   2.579  0.0134 -0.0455  0.1784
 3239W        W 7303   7.753   4.343   0.063 -0.1228  0.1897 -0.0813
 3240W        W 7304   7.197   2.249   0.444 -0.1428 -0.2791 -0.0088
 3241W        W 7305   5.166   1.789   0.953 -0.1961  0.0179 -0.1899
 3242W        W 7306   0.148   1.200   0.258 -0.1360  0.0731  0.0444
 3243W        W 7307   6.652   9.681  10.643  0.1380 -0.2094  0.1879
 3244W        W 7308   9.923   0.330  11.604 -0.0532 -0.0877  0.0077
 3245W        W 7309   4.214   0.413  10.930 -0.1423  0.1226  0.4150
 3246W        W 7310   0.441   3.072   2.454 -0.1100 -0.0475 -0.2149
 3247W        W 7311  10.089   9.440   2.399  0.0440 -0.1580  0.0494
 3248W        W 7312   2.786   6.547  10.986 -0.0563  0.1943 -0.3165
 3249W        W 7313   4.815   3.048   8.546  0.1321 -0.0356 -0.0721
 3250W        W 7314   4.129   9.611  10.780 -0.0823 -0.1155  0.2973
 3251W        W 7315   1.417   3.993   3.063  0.2232  0.2422 -0.3723
 3252W        W 7316   9.506   8.285   2.479 -0.2864  0.0149 -0.0212
 3253W        W 7317   9.126   7.682   3.944  0.0218  0.1482  0.1312
 3254W        W 7318   8.324   3.604   9.558 -0.5339  0.0954 -0.0613
 3255W        W 7319   1.799   6.622   4.141  0.1074  0.1024  0.2676
 3256W        W 7320   9.536   3.556   0.406 -0.0535  0.2253 -0.1062
 3257W        W 7321   3.756   2.198  11.397 -0.3607 -0.2390  0.1263
 3258W        W 7322   7.626   5.805   9.745  0.2913 -0.0663  0.0966
 3259W        W 7323   2.677   4.424   9.311  0.0181 -0.1072 -0.2020
 3260W        W 7324   0.736   9.678  10.330  0.1392  0.3911 -0.1879
 3261W        W 7325   0.894  10.200   2.406 -0.1288 -0.0673  0.1101
 3262W        W 7326   7.743   9.201   8.544  0.2099  0.2513 -0.0881
 3263W        W 7327   9.350   6.412   0.364 -0.1844  0.2442 -0.1784
 3264W        W 7328   1.706   6.601   2.459 -0.5098 -0.1822  0.0889
 3265W        W 7329   3.746   9.098   9.294  0.2309 -0.2638 -0.2608
 3266W        W 7330   6.707   8.806  10.621 -0.1005 -0.2200  0.4138
 3267W        W 7331   5.408   3.037   3.402 -0.1451 -0.0383 -0.1121
 3268W        W 7332   6.308   4.301   1.960  0.1134  0.1918  0.1253
 3269W        W 7333   1.422   6.702   2.841 -0.5299 -0.0203  0.0792
 3270W        W 7334   7.933   2.862   1.127  0.3029 -0.2554  0.0990
 3271W        W 7335   4.763   4.974  11.008 -0.1399  0.2918  0.2414
 3272W        W 7336   5.777   8.967   9.740  0.1909  0.1098 -0.1763
 3273W        W 7337   4.865  10.353   9.520  0.1044 -0.3657  0.0072
 3274W        W 7338   6.260   5.806   0.483 -0.1262  0.0369  0.1460
 3275W        W 7339   1.787   7.382   0.343  0.1108 -0.1669 -0.2565
 3276W        W 7340   1.380   1.649   9.507 -0.1857  0.1418  0.1032
 3277W        W 7341   7.919   2.395   8.259  0.1879  0.1738  0.3363
 3278W        W 7342   2.109   3.262   1.867  0.1755  0.0830 -0.1237
 3279W        W 7343   7.818   4.719   2.605  0.1293  0.2456  0.0457
 3280W        W 7344   3.657   4.797  11.200  0.0711  0.1906  0.0809
 3281W        W 7345   8.328   8.499  11.324  0.0648 -0.0215 -0.3229
 3282W        W 7346   7.838   3.645   8.635 -0.1331 -0.1345  0.0395
 3283W        W 7347   9.506   4.046   1.295  0.1563  0.1031  0.2260
 3284W        W 7348   3.918   7.514   2.099 -0.0519 -0.2178  0.3944
 3285W        W 7349   4.020   1.551   1.571 -0.1573 -0.1802 -0.1251
 3286W        W 7350   6.308   6.709   1.299 -0.2810  0.1923 -0.1331
 3287W        W 7351   9.534   7.987  11.004 -0.1544 -0.0094 -0.1920
 3288W        W 7352  10.149   9.828   8.471  0.0411  0.1451 -0.0098
 3289W        W 7353   6.076   7.243   2.635  0.0640  0.4549 -0.2520
 3290W        W 7354   1.871   3.373  10.910 -0.0277 -0.0580  0.1410
 3291W        W 7355   0.974   8.074  10.765  0.3514  0.1075 -0.2461
 3292W        W 7356   6.721  10.282   3.205  0.0087  0.2187  0.1631
 3293W        W 7357   9.660   9.096   8.564 -0.2054  0.0615 -0.1405
 3294W        W 7358   0.530   3.800   3.419  0.0149 -0.0433 -0.1516
 3295W        W 7359   7.858   3.119   3.553 -0.1689  0.0086 -0.0256
 3296W        W 7360   9.973   2.411   8.960  0.1639 -0.0164  0.0329
 3297W        W 7361   4.850   4.039   8.622 -0.1820 -0.4363 -0.2429
 3298W        W 7362   5.380   6.154   0.948  0.0812 -0.0315 -0.1551
 3299W        W 7363   9.697   0.460   1.831 -0.1496  0.1446 -0.3632
 3300W        W 7364   3.607   0.260   8.304 -0.3543 -0.0951  0.2942
 3301W        W 7365   3.338   5.825   9.130 -0.1586 -0.0489 -0.1616
 3302W        W 7366   6.646   6.727  10.083  0.0348  0.0515 -0.0196
 3303W        W 7367   4.700   8.657   9.238 -0.0557  0.1815  0.0755
 3304W        W 7368   6.909   4.239   1.590 -0.1913  0.1707  0.0475
 3305W        W 7369   4.070   6.836   8.591 -0.1353  0.0191  0.0880
 3306W        W 7370   1.765   4.982   2.373  0.4161 -0.0989 -0.1608
 3307W        W 7371   6.448   2.309   9.143  0.1500  0.0062  0.0550
 3308W        W 7372   4.385   4.150  10.117  0.0336 -0.0473 -0.0615
 3309W        W 7373   7.742   5.379   9.528  0.0019  0.2304  0.2005
 3310W        W 7374   9.875   7.016   0.929  0.4882 -0.1145 -0.0879
 3311W        W 7375   7.026   2.667   9.369 -0.0807  0.2220 -0.2522
 3312W        W 7376   2.084   7.659  10.300  0.2587  0.0389  0.1815
 3313W        W 7377   2.390   8.174   1.457 -0.0014  0.2737 -0.0929
 3314W        W 7378   6.781   9.973   8.950  0.1683 -0.2983  0.2493
 3315W        W 7379   9.063   5.749   9.195  0.2621  0.0218  0.2682
 3316W        W 7380   8.572   9.479  11.603  0.3290  0.1584 -0.0480
 3317W        W 7381   4.324   2.713   0.642  0.0934  0.0866  0.0125
 3318W        W 7382   6.182   7.222   2.137  0.1734 -0.2324 -0.1894
 3319W        W 7383   9.628   0.323  11.173  0.0117 -0.4122 -0.3148
 3320W        W 7384   4.616   8.108  11.343  0.3416  0.0085 -0.1121
 3321W        W 7385   9.911   7.568   2.011 -0.0783 -0.3436 -0.0335
 3322W        W 7386   1.010   9.173   2.828  0.2207  0.1216  0.2497
 3323W        W 7387   8.087  10.115   2.803 -0.0216  0.1622 -0.0731
 3324W        W 7388  10.522   4.230   9.712 -0.0737  0.1720  0.1252
 3325W        W 7389   5.200   0.216   7.676  0.0329 -0.0728  0.2920
 3326W        W 7390   4.723   8.601  10.492  0.1972 -0.0216 -0.3821
 3327W        W 7391  10.033   0.105   2.921 -0.0627 -0.0960 -0.0307
 3328W        W 7392   5.448   1.314   0.232 -0.2357 -0.1706  0.2445
 3329W        W 7393   7.145   1.307   3.419  0.4088  0.2461 -0.3810
 3330W        W 7394   9.639   5.083  10.770  0.4001  0.1138  0.4083
 3331W        W 7395   1.150   1.053  11.593 -0.3313 -0.2140 -0.3070
 3332W        W 7396   6.119   4.841   2.783 -0.0812  0.1695 -0.0616
 3333W        W 7397   7.726   7.202   8.445 -0.1438 -0.0640 -0.2904
 3334W        W 7398   9.759   1.614   8.035  0.1362 -0.2291 -0.0116
 3335W        W 7399   3.245  10.180   0.372 -0.1278 -0.0295 -0.0461
 3336W        W 7400   4.567   7.649   8.231 -0.1704 -0.0698 -0.2212
 3337W        W 7401   2.873   5.974  10.117  0.0586 -0.0326 -0.1296
 3338W        W 7402   7.830   3.149   2.058 -0.0227 -0.1633 -0.2251
 3339W        W 7403   8.462   0.224   2.947  0.0071 -0.0933  0.1470
 3340W        W 7404   2.649   0.024  11.496  0.0255 -0.1238  0.0338
 3341W        W 7405   0.180   4.120   9.294  0.1967  0.0312 -0.1098
 3342W        W 7406   8.583   6.775  11.561 -0.2942 -0.0599 -0.1602
 3343W        W 7407   9.791   0.501   9.083 -0.0778 -0.1199  0.1148
 3344W        W 7408   4.748   8.944   8.142 -0.0383 -0.0354  0.1332
 3345W        W 7409  10.175   4.865  11.006 -0.4134 -0.3322 -0.0647
 3346W        W 7410   8.746   1.729   0.977  0.1046 -0.0562 -0.0767
 3347W        W 7411   2.211   6.232   3.121 -0.0864  0.1205 -0.1541
 3348W        W 7412   5.533   2.965   4.464 -0.0084  0.3722  0.2915
 3349W        W 7413   7.321   0.876   2.606  0.0605  0.1836  0.2725
 3350W        W 7414   8.311   3.287  10.341  0.0445  0.1796 -0.4216
 3351W        W 7415   6.919   6.784  11.660  0.1797  0.1892  0.2307
 3352W        W 7416   5.294   4.243  11.213 -0.3389 -0.0210 -0.0823
 3353W        W 7417   1.705   1.705   3.125 -0.0280  0.2457 -0.4894
 3354W        W 7418   9.935   8.318   8.081  0.1671 -0.0009  0.0292
 3355W        W 7419   7.798   6.684   9.939 -0.0298  0.1548  0.0966
 3356W        W 7420   1.537   4.937   1.488 -0.0234 -0.1043 -0.1769
 3357W        W 7421   3.052   7.730   2.221  0.2305 -0.1676 -0.1925
 3358W        W 7422   4.095   2.652   1.152 -0.0399 -0.0544  0.0669
 3359W        W 7423   2.752   4.852   2.016 -0.2470  0.0625 -0.2739
 3360W        W 7424   7.464   4.600   0.975 -0.1976 -0.3760 -0.1180
 3361W        W 7425   6.518   1.670   2.410  0.0815  0.1309  0.2131
 3362W        W 7426   7.832   8.619  11.299 -0.1706  0.0113 -0.1177
 3363W        W 7427   2.000   7.754   9.745  0.1427  0.1971 -0.0581
 3364W        W 7428   4.929   1.999   4.094  0.1027  0.1419 -0.1968
 3365W        W 7429   9.093   9.940   9.520 -0.2256 -0.0003  0.3225
 3366W        W 7430   7.504   1.614   0.952 -0.0696 -0.4671  0.2272
 3367W        W 7431   6.151   3.578   9.745  0.2120 -0.2401 -0.2871
 3368W        W 7432   4.780   3.248  10.063 -0.0885 -0.0004  0.0761
 3369W        W 7433   9.237   4.099   2.528 -0.0372  0.2995 -0.1344
 3370W        W 7434   1.637   5.456   9.208  0.1767 -0.0406 -0.0597
 3371W        W 7435   3.886  10.005   3.301 -0.2151 -0.0495  0.0117
 3372W        W 7436   5.623   6.239   3.198 -0.0782  0.1746  0.0841
 3373W        W 7437   8.453   7.568   3.121  0.1744 -0.2454  0.0412
 3374W        W 7438   1.105   2.479  10.365 -0.3760  0.1223 -0.0912
 3375W        W 7439   8.586   5.822  10.194  0.0660 -0.1727  0.1650
 3376W        W 7440   8.433   5.110   1.920 -0.3729 -0.1654  0.1195
 3377W        W 7441  10.334  10.224  10.322 -0.1460  0.3095  0.0791
 3378W        W 7442   4.269   4.821   2.465  0.2010  0.0330 -0.0290
 3379W        W 7443   5.954   3.060  10.746  0.0370 -0.0462 -0.2094
 3380W        W 7444   4.020   5.046   0.012  0.3866 -0.0765  0.1160
 3381W        W 7445   7.864   5.344  10.319 -0.1547  0.0176 -0.1484
 3382W        W 7446   0.615   5.645  10.239 -0.0305 -0.0625  0.0027
 3383W        W 7447   7.087   3.474   9.767  0.2710  0.0467 -0.0249
 3384W        W 7448   0.348   0.293   9.740 -0.2305  0.3028 -0.0663
 3385W        W 7449   3.785   8.510  11.037  0.1250  0.3778  0.0593
 3386W        W 7450   7.162   6.809   1.720 -0.1459 -0.0761  0.0785
 3387W        W 7451   8.494   2.586   0.492 -0.5227 -0.0742 -0.1498
 3388W        W 7452   8.187   9.247   8.810  0.1483 -0.2087  0.0547
 3389W        W 7453   0.629  10.556   2.034  0.3842  0.1518  0.1061
 3390W        W 7454   3.373   2.306  10.598  0.1288 -0.2356  0.0171
 3391W        W 7455   6.331   7.480  11.048 -0.0480  0.3248  0.1381
 3392W        W 7456   9.854   8.952   9.897  0.1275  0.2517  0.1811
 3393W        W 7457   3.498   2.953  10.133  0.0234  0.1127  0.2048
 3394W        W 7458   8.510   1.500   2.035 -0.1484  0.0597  0.0285
 3395W        W 7459   0.899   6.603   0.915  0.0386 -0.0532  0.2394
 3396W        W 7460   7.750   6.274   2.295  0.2010  0.2010 -0.2709
 3397W        W 7461   6.034   1.092  10.877 -0.1666  0.1585  0.4562
 3398W        W 7462   4.788   9.273  10.493 -0.0402 -0.2831 -0.1115
 3399W        W 7463   8.767   3.610   8.712 -0.0941  0.2187 -0.1506
 3400W        W 7464   3.549   6.168   1.255  0.1584 -0.1613  0.3126
 3401W        W 7465   9.313   0.259   9.245  0.1092  0.2007 -0.0142
 3402W        W 7466   4.216   6.054   9.268  0.0549  0.0598 -0.2995
 3403W        W 7467   6.528   2.423  10.600  0.2086 -0.0786  0.0639
 3404W        W 7468   5.969   7.291   9.304  0.0462  0.2217  0.1769
 3405W        W 7469   0.705   3.382   3.686 -0.1764 -0.1906 -0.0711
 3406W        W 7470   9.994   6.122   8.319  0.1058  0.1200  0.2162
 3407W        W 7471   6.833   9.362   3.540  0.3473  0.2517  0.1974
 3408W        W 7472   0.459   8.602   2.076 -0.1027 -0.1216 -0.2859
 3409W        W 7473   2.624   0.741   1.378 -0.0609 -0.0570  0.0101
 3410W        W 7474   2.764   6.628   3.875  0.1389 -0.2786 -0.0241
 3411W        W 7475   7.123   4.287   0.651 -0.1465  0.0708  0.1006
 3412W        W 7476   4.970   3.500   8.422 -0.0172 -0.2578  0.2538
 3413W        W 7477   8.942  10.269   9.949 -0.0853 -0.0288  0.2136
 3414W        W 7478   8.199   1.391   1.662  0.4552 -0.3003 -0.0596
 3415W        W 7479   9.771   4.839   0.637  0.1934 -0.0774 -0.0212
 3416W        W 7480   3.212   7.686   1.254 -0.2162 -0.0794 -0.1908
 3417W        W 7481   8.283   7.332   3.543 -0.2715  0.0374  0.2543
 3418W        W 7482   4.507   5.628   7.982 -0.2911  0.4974  0.0016
 3419W        W 7483   8.433   1.108   3.053 -0.0918 -0.2923  0.1922
 3420W        W 7484   4.150   2.175   2.999  0.3253 -0.2072 -0.1935
 3421W        W 7485   1.475   8.806   1.612 -0.2047 -0.1437  0.0514
 3422W        W 7486   4.252  10.567   4.090  0.2384  0.3425 -0.1138
 3423W        W 7487   1.680   5.789   1.891 -0.2049 -0.2997  0.2212
 3424W        W 7488   8.356   1.165  11.125  0.3254  0.0417 -0.2309
 3425W        W 7489   4.091   0.112   9.073 -0.4046 -0.0728 -0.1542
 3426W        W 7490   7.123   8.009   0.468  0.1174 -0.1869  0.0419
 3427W        W 7491   5.111   2.748   2.913 -0.0533 -0.0266 -0.0374
 3428W        W 7492   1.240   9.307   3.301  0.0382  0.2727  0.0649
 3429W        W 7493   3.344  10.511   2.650 -0.1136 -0.1520  0.0696
 3430W        W 7494   8.619   6.274   3.731  0.1775  0.3120  0.0588
 3431W        W 7495   9.118   7.835   3.469  0.2372  0.0453  0.1221
 3432W        W 7496   3.970   8.216   9.864  0.1014 -0.0335  0.2382
 3433W        W 7497  10.326   2.311   8.584 -0.2118  0.0637  0.0654
 3434W        W 7498   6.737   9.850   2.213  0.5141 -0.0326  0.0405
 3435W        W 7499   7.285   5.464   2.617  0.0250 -0.1017  0.0964
 3436W        W 7500   9.175   3.148   3.137  0.2310 -0.1061  0.1957
 3437W        W 7501   8.866   1.753   0.184  0.3352  0.1333  0.0266
 3438W        W 7502   4.795   2.937   1.779  0.0681  0.2647 -0.4433
 3439W        W 7503   6.811   3.341   1.803 -0.0075  0.1643 -0.0163
 3440W        W 7504   0.715   2.146   1.933  0.0396 -0.5015  0.1471
 3441W        W 7505   0.024   7.641  11.469 -0.0300 -0.2975  0.0622
 3442W        W 7506   7.843  10.280   9.637  0.1544  0.0970 -0.0484
 3443W        W 7507   8.868   9.910   3.251  0.1658  0.0166 -0.3930
 3444W        W 7508   4.070   3.735  10.440 -0.0893  0.0686 -0.2118
 3445W        W 7509   8.556   1.561   3.812 -0.0346  0.1078  0.0963
 3446W        W 7510   8.957  10.451   9.423  0.2650  0.2522  0.1221
 3447W        W 7511   1.801   7.155   8.920  0.0170 -0.2226  0.2297
 3448W        W 7512   3.730   6.859   2.829 -0.0497  0.0950 -0.3196
 3449W        W 7513   3.354   6.136  10.130  0.1627  0.3128 -0.0795
 3450W        W 7514   4.769   9.515   3.250  0.1114 -0.0865 -0.3652
 3451W        W 7515   2.247   6.031   1.739 -0.3215  0.1897 -0.2788
 3452W        W 7516  10.469   0.234   1.057 -0.0063 -0.1870  0.0707
 3453W        W 7517   4.717   0.994   2.052  0.4532 -0.0285  0.1633
 3454W        W 7518   9.477   1.257  11.630  0.3610 -0.2554 -0.0609
 3455W        W 7519  10.244   1.083   0.445  0.3267 -0.2176  0.3047
 3456W        W 7520   9.819   1.074   9.452 -0.0192 -0.1502 -0.0305
 3457W        W 7521   1.290   8.461   2.645  0.3009  0.1125  0.1355
 3458W        W 7522   7.397   0.909   3.505 -0.1731  0.0301 -0.0579
 3459W        W 7523   2.879   0.153   2.797  0.1372 -0.0860  0.1795
 3460W        W 7524   3.545  10.577   9.912 -0.3029  0.2236 -0.0396
 3461W        W 7525   3.427   4.809  10.297  0.1409  0.1903  0.0743
 3462W        W 7526   2.535   2.968   1.705 -0.1831 -0.0301  0.2862
 3463W        W 7527   7.678   4.120   8.573 -0.1788 -0.1066 -0.0325
 3464W        W 7528   1.825   2.626  11.500 -0.0051  0.0932 -0.1575
 3465W        W 7529   0.300   9.029   1.206 -0.2011 -0.3307  0.0551
 3466W        W 7530   8.327  10.323  10.381  0.0299  0.2666 -0.3120
 3467W        W 7531   6.769   8.458  11.158  0.2970 -0.2347  0.1032
 3468W        W 7532   8.509   3.146  10.789  0.0139  0.2301  0.2320
 3469W        W 7533   4.840   0.096  11.668  0.0348 -0.0109  0.0031
 3470W        W 7534   4.708   5.843   9.384  0.0180 -0.0358 -0.0028
 3471W        W 7535   3.090   0.514   0.683 -0.1955  0.2203  0.0454
 3472W        W 7536   5.591   5.462   1.619  0.1172 -0.1168  0.0718
 3473W        W 7537   7.879   9.366  10.108 -0.0168  0.0111 -0.1465
 3474W        W 7538   7.777   0.160   8.728  0.2004 -0.2819 -0.0398
 3475W        W 7539   7.738   7.672   8.256 -0.2001 -0.0283  0.1555
 3476W        W 7540   1.664   8.680  11.608 -0.1396  0.1394 -0.1654
 3477W        W 7541   9.256   5.061   8.349 -0.1791 -0.0851 -0.3623
 3478W        W 7542   8.380   9.295   2.970 -0.1864  0.0118  0.0499
 3479W        W 7543   1.324   0.858   1.997 -0.3054  0.3488 -0.2235
 3480W        W 7544   1.768   5.604   3.690  0.1400 -0.1115 -0.1163
 3481W        W 7545   0.305   9.547   1.800  0.5140  0.1984 -0.0843
 3482W        W 7546  10.383   1.310  11.599  0.0600  0.1081 -0.3244
 3483W        W 7547   6.966   5.443   0.501 -0.2214 -0.1652 -0.0544
 3484W        W 7548   9.495   4.033   7.947  0.0566 -0.0555  0.2000
 3485W        W 7549   5.482   7.312   8.525  0.0185  0.0833  0.0194
 3486W        W 7550   8.561   9.553   1.679 -0.0511 -0.0915  0.0976
 3487W        W 7551   0.082   3.614   3.165  0.2387  0.3863 -0.1061
 3488W        W 7552   8.194   7.031   4.429  0.1135  0.3147 -0.0580
 3489W        W 7553   7.247   4.523   2.855  0.1573 -0.1760 -0.0881
 3490W        W 7554   7.156   1.255  10.185 -0.1552  0.2477 -0.0184
 3491W        W 7555   8.438   7.200  10.779 -0.3305  0.0036 -0.1096
 3492W        W 7556   5.196  10.409  10.392 -0.2589  0.0415 -0.4398
 3493W        W 7557   5.264   8.955   3.784 -0.3144 -0.1004  0.2341
 3494W        W 7558   6.616   7.228  10.647 -0.3086 -0.1202 -0.0241
 3495W        W 7559   1.049   6.505  11.292 -0.1782 -0.4456  0.0861
 3496W        W 7560   3.944   7.212  10.119  0.0765 -0.0508  0.0770
 3497W        W 7561   7.644   6.921  10.985 -0.3421  0.0465 -0.0971
 3498W        W 7562   2.471  10.405   9.390  0.1220  0.0939 -0.2246
 3499W        W 7563   2.515   8.087  11.679  0.1230 -0.1031 -0.0035
 3500W        W 7564   0.462   2.820   8.248  0.2651  0.1138 -0.0028
 3501W        W 7565   7.669   3.138   0.150 -0.0123  0.0481 -0.2169
 3502W        W 7566   9.733   3.625  11.573 -0.0995  0.2016 -0.0906
 3503W        W 7567   9.445   8.254  10.406  0.2370 -0.4436 -0.0948
 3504W        W 7568   4.614   8.881   1.103  0.0141 -0.0681 -0.3516
 3505W        W 7569   5.703  10.494   3.720 -0.0407  0.1091  0.0279
 3506W        W 7570   0.280   4.364  11.599 -0.0857 -0.2506  0.0014
 3507W        W 7571   2.593   7.170   1.297  0.0856 -0.2212  0.1915
 3508W        W 7572  10.086   4.129   1.205 -0.1451 -0.2427  0.1801
 3509W        W 7573  10.070   1.852   8.966  0.0787 -0.0543  0.2512
 3510W        W 7574   2.229   7.279  11.253 -0.0401 -0.0031 -0.0572
 3511W        W 7575   4.156   0.234   3.158  0.2529 -0.0619  0.0961
 3512W        W 7576   1.267   4.768   1.105  0.1153 -0.1295  0.0098
 3513W        W 7577   1.186   1.161  10.514 -0.1885  0.2443 -0.2486
 3514W        W 7578   3.263   4.814   0.754  0.2734 -0.0716  0.1354
 3515W        W 7579  10.204   2.420   1.140  0.3059  0.3988  0.1718
 3516W        W 7580   0.665   4.163  11.078 -0.0724 -0.1080  0.2276
 3517W        W 7581   7.445   5.495   8.757  0.0436  0.1724  0.3353
 3518W        W 7582   9.875   1.178   7.775 -0.1780  0.0790  0.1519
 3519W        W 7583  10.486   9.461   2.079  0.2902 -0.1297  0.1432
 3520W        W 7584   7.853   1.034  10.242 -0.0284  0.1437 -0.2034
 3521W        W 7585   3.388   9.415   0.703  0.1326  0.0050 -0.1893
 3522W        W 7586   5.399   0.513   8.935  0.0645 -0.1731 -0.0996
 3523W        W 7587   9.041   2.531   1.270  0.1913 -0.0877  0.0467
 3524W        W 7588   2.536   4.880   3.545 -0.3512  0.1420  0.3686
 3525W        W 7589   9.803   9.185  10.459  0.1006  0.0945  0.0078
 3526W        W 7590   5.387   4.273   0.537 -0.0111 -0.1578  0.0820
 3527W        W 7591   6.080   1.735  10.775 -0.1106  0.1510 -0.2093
 3528W        W 7592  10.034   0.040   1.685 -0.2393  0.2088 -0.1008
 3529W        W 7593   7.281   3.312   1.497 -0.1083  0.0997  0.0329
 3530W        W 7594   2.932   5.711   3.448  0.0422  0.1287 -0.0247
 3531W        W 7595   8.616   2.906  11.237  0.3155 -0.0127 -0.2193
 3532W        W 7596   8.504   8.892   0.385  0.0506  0.0315  0.0479
 3533W        W 7597   8.193   5.637   4.292 -0.0040 -0.2183  0.0133
 3534W        W 7598   9.366   9.226   9.835 -0.1802  0.1161  0.3786
 3535W        W 7599   9.424   1.263   9.706 -0.0513 -0.0790 -0.2288
 3536W        W 7600   5.648   1.143   4.032 -0.0926  0.0486  0.1780
 3537W        W 7601   0.992   8.602   0.045 -0.0799  0.1356  0.0453
 3538W        W 7602   0.045   5.699   9.884 -0.0660 -0.1630 -0.0138
 3539W        W 7603   5.047   3.367   3.601 -0.3076 -0.0662  0.0444
 3540W        W 7604   8.435   8.476   1.676  0.0023  0.0620 -0.3193
 3541W        W 7605   0.936   7.468  10.939  0.2403  0.1802 -0.0805
 3542W        W 7606   6.376   9.710   8.900  0.0575  0.0144 -0.1884
 3543W        W 7607   9.059   3.295   1.759 -0.1958 -0.0101  0.1890
 3544W        W 7608   1.086   7.513   2.545  0.2044 -0.1443 -0.0598
 3545W        W 7609   1.209   9.258   1.721  0.2078  0.1148  0.0795
 3546W        W 7610   5.895   6.259   9.073  0.2116 -0.0065 -0.0636
 3547W        W 7611   7.328  10.143   8.928  0.1357 -0.2074  0.3365
 3548W        W 7612   5.078   5.347  10.278  0.0205 -0.0852  0.1883
 3549W        W 7613   2.463   5.592   0.385 -0.3509 -0.0484  0.1212
 3550W        W 7614   7.092   3.550  10.264  0.0967 -0.2304  0.0482
 3551W        W 7615   0.732   9.455   1.596 -0.1795  0.4430 -0.0908
 3552W        W 7616   3.965   7.597  10.562  0.1891 -0.4067 -0.2069
 3553W        W 7617   7.482   9.902   1.952 -0.0878 -0.1842  0.0900
 3554W        W 7618   4.301   8.911   9.364  0.2346 -0.0734  0.0914
 3555W        W 7619   2.063   4.881   3.786 -0.2498  0.1585  0.2388
 3556W        W 7620   7.358   9.135   9.371 -0.1329 -0.3292  0.1285
 3557W        W 7621   7.497   3.792   1.299 -0.0350 -0.3614 -0.0988
 3558W        W 7622   7.349   7.416   8.116 -0.1959  0.0050  0.2320
 3559W        W 7623   3.680   9.202   2.200  0.1000 -0.1029 -0.4701
 3560W        W 7624  10.307   8.939   8.862 -0.0413  0.2459 -0.2496
 3561W        W 7625  10.534   0.566   9.420  0.1866 -0.1627  0.0056
 3562W        W 7626   6.620   8.893   8.823 -0.4230 -0.2338 -0.1809
 3563W        W 7627   8.190   3.039  11.491 -0.0456 -0.2829  0.1664
 3564W        W 7628   9.641   7.866   1.493 -0.0885 -0.0967  0.1315
 3565W        W 7629   8.091  10.562   2.031 -0.0377  0.0094 -0.0813
 3566W        W 7630   0.375   5.965   3.205 -0.1023 -0.1213  0.1771
 3567W        W 7631   8.709   2.124   1.625 -0.0563 -0.0267  0.2791
 3568W        W 7632   8.753   2.836   8.507  0.1772 -0.1038 -0.1200
 3569W        W 7633   0.923   6.426   2.802 -0.0100  0.0672 -0.0213
 3570W        W 7634   6.946   0.874   9.982  0.0042  0.2241 -0.0495
 3571W        W 7635   0.824   7.397   3.088  0.2544  0.0699 -0.3842
 3572W        W 7636   6.760  10.585   2.856 -0.5129  0.2176 -0.1113
 3573W        W 7637   7.418   2.984   3.846 -0.1354 -0.4401  0.0200
 3574W        W 7638   3.033   9.234   3.382  0.0172 -0.2045 -0.5592
 3575W        W 7639   8.568   9.923   2.755  0.3745  0.2497 -0.0940
 3576W        W 7640  10.005   6.256  10.030 -0.1366  0.3199 -0.1377
 3577W        W 7641   7.231   3.654   3.309 -0.0582 -0.3262  0.2262
 3578W        W 7642   6.479   9.286  10.338 -0.0794  0.1718  0.0201
 3579W        W 7643   4.108   6.407   3.587 -0.1188 -0.2789 -0.2485
 3580W        W 7644   2.654   6.044   0.199 -0.0432 -0.0482 -0.0423
 3581W        W 7645   8.900   2.617   2.870  0.0376 -0.0471 -0.1495
 3582W        W 7646   9.243  10.546   0.255  0.4755 -0.0724  0.0717
 3583W        W 7647   5.931   1.300   8.474 -0.0671  0.3155  0.2391
 3584W        W 7648   9.948   7.236   4.317 -0.1971  0.3085  0.0025
 3585W        W 7649   4.816   7.035   0.688 -0.0525 -0.1335  0.3275
 3586W        W 7650   7.683   2.824   4.271  0.1927  0.1435  0.1348
 3587W        W 7651   7.196   2.872   8.983 -0.1371  0.1004  0.0543
 3588W        W 7652   4.691   6.137   2.017  0.3541  0.0483 -0.0363
 3589W        W 7653   1.559   3.089   1.482  0.0548 -0.2701  0.3915
 3590W        W 7654   2.781   7.428  11.534 -0.0815  0.1551  0.3364
 3591W        W 7655   1.315   9.971  11.041  0.1300 -0.0162 -0.2645
 3592W        W 7656   5.976   6.026   2.912  0.2165  0.0782 -0.0649
 3593W        W 7657   8.726   5.219  11.014 -0.0109 -0.3133 -0.0301
 3594W        W 7658   7.993   9.623  11.636  0.0071  0.1208 -0.1671
 3595W        W 7659   4.037   7.052   9.531 -0.0102 -0.1406 -0.1262
 3596W        W 7660   2.782   4.727   0.588 -0.1437  0.2105  0.0524
 3597W        W 7661   1.820   2.091   2.605  0.1569 -0.0911  0.2187
 3598W        W 7662   4.409   7.452   9.781  0.1789 -0.1493  0.0003
 3599W        W 7663   9.486   3.304   1.090 -0.0206  0.1581  0.0449
 3600W        W 7664   4.538   6.478   3.340  0.1481  0.0708  0.2680
 3601W        W 7665   5.624   1.404  10.632 -0.0845  0.0257  0.1757
 3602W        W 7666   2.685   7.664   9.030 -0.0804  0.1356 -0.0276
 3603W        W 7667   7.963   1.401  10.881 -0.0355  0.0892  0.0745
 3604W        W 7668  10.135   8.945  10.748  0.0467  0.1390  0.3119
 3605W        W 7669   9.079   7.204   4.000  0.0705  0.1004 -0.2023
 3606W        W 7670   4.384   8.835   3.219 -0.0886  0.1106 -0.1120
 3607W        W 7671   3.639   6.627   3.385  0.0012 -0.0286  0.1302
 3608W        W 7672   2.217   9.292   1.620  0.1530 -0.2197 -0.2107
 3609W        W 7673   3.908   7.650   3.113  0.0186 -0.0805  0.0513
 3610W        W 7674   1.238   5.593   8.691  0.0110 -0.1310  0.2190
 3611W        W 7675   2.918   9.748   1.543 -0.1274  0.1758 -0.2464
 3612W        W 7676   3.477   5.148   9.935 -0.0945  0.0786 -0.0622
 3613W        W 7677   9.097   9.110   2.803  0.2472 -0.0166  0.2350
 3614W        W 7678   4.601   0.489   1.974  0.0279  0.1142 -0.1726
 3615W        W 7679   0.880   3.215  10.904  0.1277  0.0935 -0.4865
 3616W        W 7680   1.681   1.630   2.633  0.4958 -0.0799 -0.0627
 3617W        W 7681   9.534   6.867   0.513  0.0207 -0.0422 -0.0675
 3618W        W 7682   2.328   3.240  10.555  0.3984 -0.2565 -0.0258
 3619W        W 7683   8.693   2.978   3.197  0.1859  0.1600 -0.5388
 3620W        W 7684   1.744  10.208  11.183 -0.2338  0.0864  0.0178
 3621W        W 7685   0.308   3.330   2.013  0.1031  0.3228  0.1354
 3622W        W 7686   6.019   0.154  11.195  0.0553  0.0596  0.1236
 3623W        W 7687   7.615   1.388   9.883  0.1233 -0.0800  0.4390
 3624W        W 7688   8.396   4.511   8.439  0.3247 -0.0527  0.1223
 3625W        W 7689   1.792   5.024  11.563  0.0551  0.0969  0.2531
 3626W        W 7690   5.941   3.522   9.241 -0.0240 -0.2173  0.1935
 3627W        W 7691   7.327   5.984   1.685 -0.1447 -0.2462 -0.0360
 3628W        W 7692   1.365   5.316  11.439 -0.2446 -0.0669  0.1212
 3629W        W 7693   8.694   7.316   2.777 -0.2907 -0.4741  0.2824
 3630W        W 7694   4.433   9.143  10.906 -0.0058  0.3806 -0.1180
 3631W        W 7695   3.608   7.537   0.376 -0.0556 -0.0231  0.1936
 3632W        W 7696   1.239   0.426   0.944  0.0185  0.1849  0.1159
 3633W        W 7697   3.224   6.059   3.266  0.0853 -0.2042 -0.3866
 3634W        W 7698   5.484   7.182  10.574  0.2515  0.0249  0.1970
 3635W        W 7699   3.631   1.316   9.536 -0.0919 -0.1187 -0.3339
 3636W        W 7700   4.504   4.652  10.223 -0.0112 -0.1847 -0.3725
 3637W        W 7701   5.055   1.745   1.578  0.2702  0.1851 -0.1433
 3638W        W 7702   0.532   6.847   8.357  0.0370  0.3193 -0.3506
 3639W        W 7703   8.215   4.594   9.054 -0.0551 -0.1080 -0.2506
 3640W        W 7704   6.925  10.066  10.388 -0.0512 -0.1482  0.0416
 3641W        W 7705   7.507   4.077   3.882  0.1146  0.1119 -0.1937
 3642W        W 7706   7.579   5.833   2.571  0.0849 -0.2587  0.3016
 3643W        W 7707   8.642   4.293   2.624 -0.0147  0.3155 -0.1860
 3644W        W 7708   0.328   2.842   0.814  0.0204  0.1411 -0.1931
 3645W        W 7709  10.481   4.960   0.064 -0.2262  0.3285 -0.1013
 3646W        W 7710   0.609   2.557   2.273  0.1295  0.3153  0.2203
 3647W        W 7711   6.504   3.372   0.869  0.1929 -0.0075  0.3188
 3648W        W 7712   5.775   9.179   0.167  0.0963  0.2049 -0.0342
 3649W        W 7713   6.878   4.461   3.575 -0.1504  0.1145 -0.2277
 3650W        W 7714  10.260   4.830   0.553  0.3113  0.0276  0.3084
 3651W        W 7715   5.847   9.047   1.934 -0.1796 -0.0842  0.0345
 3652W        W 7716   8.076   7.124   0.069  0.2794 -0.0066  0.2390
 3653W        W 7717   8.646   9.782   9.952 -0.2596  0.0121  0.2208
 3654W        W 7718   6.987   1.265   2.420 -0.0840  0.1614 -0.4974
 3655W        W 7719   3.572   9.832  11.412 -0.1376 -0.2030  0.0084
 3656W        W 7720   2.976   9.302   2.062 -0.0910 -0.1151  0.1259
 3657W        W 7721   0.285   1.993   0.497  0.1105 -0.1467 -0.0416
 3658W        W 7722   8.090   7.063   8.789 -0.3166 -0.3267 -0.4887
 3659W        W 7723   6.158   3.713   8.856 -0.1852 -0.2054 -0.0226
 3660W        W 7724   5.497   3.543   0.600  0.1336 -0.0143  0.0465
 3661W        W 7725   9.483   5.643   0.775  0.1375  0.0420 -0.0322
 3662W        W 7726   1.917   4.008   1.337 -0.1333 -0.1814 -0.0361
 3663W        W 7727   6.759   3.583   3.135  0.4916 -0.1058 -0.0636
 3664W        W 7728   6.327   0.930  10.044  0.1418  0.1803  0.0003
 3665W        W 7729   2.898   0.339   1.603  0.3026  0.0779  0.4757
 3666W        W 7730  10.038   0.686   2.386  0.1283  0.1229  0.0062
 3667W        W 7731   9.904   1.454   8.568  0.0986 -0.0992 -0.1208
 3668W        W 7732   8.840   9.916  11.255  0.1447  0.2023  0.0192
 3669W        W 7733   6.553   0.701   9.215  0.1879  0.0150  0.0203
 3670W        W 7734   2.578   4.497  10.604 -0.2880  0.0319  0.1081
 3671W        W 7735   1.383   6.904   1.580  0.1497  0.1345 -0.1610
 3672W        W 7736   5.045   7.475  10.794 -0.1177  0.1114 -0.2664
 3673W        W 7737   2.133   7.057   1.557 -0.1652 -0.2294  0.6495
 3674W        W 7738   5.846   5.371  10.815 -0.1371  0.5825 -0.0073
 3675W        W 7739   3.069   0.455   9.163 -0.1832  0.0757 -0.0064
 3676W        W 7740  10.096   1.000   8.403  0.0266  0.0373  0.1180
 3677W        W 7741  10.100   4.190  11.058  0.0880  0.1685 -0.0730
 3678W        W 7742   5.127   7.836  11.289  0.2692 -0.0373  0.1478
 3679W        W 7743   9.583   8.269   7.708 -0.0042 -0.1612 -0.1875
 3680W        W 7744   1.134   9.708  10.676  0.0841  0.1903  0.0141
 3681W        W 7745  10.532   9.125  11.323  0.1277  0.0508 -0.1157
 3682W        W 7746   4.578  10.460   0.876  0.3777 -0.1510  0.0678
 3683W        W 7747   5.645  10.468  11.087  0.3324 -0.0922 -0.1481
 3684W        W 7748   3.361   8.888   0.874 -0.0446 -0.0254  0.0203
 3685W        W 7749   3.252   2.071   9.495  0.2370  0.3348 -0.0939
 3686W        W 7750   6.623   5.437  11.518 -0.0127  0.2084  0.3463
 3687W        W 7751   5.933   8.103   3.604  0.1405 -0.0632 -0.0388
 3688W        W 7752   8.281   9.081  11.678 -0.0346  0.1804  0.2384
 3689W        W 7753   1.841   9.663   9.085 -0.0665 -0.1954  0.1593
 3690W        W 7754   7.920   8.381   1.478  0.2725  0.5247  0.2851
 3691W        W 7755   4.982   7.333  11.290 -0.1402  0.0979  0.4747
 3692W        W 7756   1.164   1.695   2.522  0.0827  0.1286  0.1154
 3693W        W 7757   6.654   9.409   0.054 -0.0302  0.3137 -0.0927
 3694W        W 7758   9.578   1.791   8.790  0.1361  0.1084  0.0550
 3695W        W 7759   0.160   5.480   3.288  0.2331 -0.3032  0.0279
 3696W        W 7760   8.121   2.868   8.438 -0.0645  0.2487  0.5458
 3697W        W 7761   2.711   4.264   2.805 -0.4006  0.0700 -0.0692
 3698W        W 7762   5.849  10.048   3.380  0.1085  0.0607 -0.3974
 3699W        W 7763   5.813   8.990  11.318 -0.4070  0.1755 -0.0581
 3700W        W 7764   3.883   6.401   4.637  0.0586 -0.2216  0.2273
 3701W        W 7765   9.022   7.859  10.129 -0.0297 -0.0328 -0.1538
 3702W        W 7766   8.760   8.987   9.399 -0.0380  0.0255 -0.0428
 3703W        W 7767   8.705   0.597   8.237 -0.0165  0.0072 -0.2195
 3704W        W 7768   0.788   7.902   3.713  0.0537 -0.0496  0.0820
 3705W        W 7769   3.993  10.277  11.243  0.3138  0.0289  0.0929
 3706W        W 7770  10.415   3.222   2.394  0.1593  0.0122  0.1245
 3707W        W 7771   4.941   9.121   8.635 -0.2186 -0.0679  0.0500
 3708W        W 7772   3.708   1.454   0.085  0.0635  0.2420  0.2063
 3709W        W 7773   5.628   9.980   9.239  0.1820 -0.0985  0.2922
 3710W        W 7774  10.023   3.723   2.996 -0.1377 -0.0506  0.0038
 3711W        W 7775   8.953   2.079   9.106 -0.0667  0.0663 -0.1167
 3712W        W 7776   9.056   6.557  10.330 -0.1963 -0.0800 -0.1455
 3713W        W 7777   7.208   9.894   9.463  0.2954  0.0534 -0.1260
 3714W        W 7778  10.585   6.240  10.663  0.3497  0.1453  0.2678
 3715W        W 7779   1.014   5.342  10.432  0.2251  0.2245 -0.1244
 3716W        W 7780   1.658   9.238   0.982  0.1505  0.0142  0.1093
 3717W        W 7781   6.342   1.864  10.381  0.0491  0.2375  0.0549
 3718W        W 7782   7.043   4.033   1.111  0.0599 -0.0212  0.1748
 3719W        W 7783   4.223   5.128   8.993  0.0085  0.1771 -0.0421
 3720W        W 7784   6.823   6.759  10.774 -0.2300  0.2436 -0.1309
 3721W        W 7785   7.471   0.901   9.971 -0.0285  0.2733 -0.1651
 3722W        W 7786   9.825  10.379   2.452  0.1433 -0.2681  0.1368
 3723W        W 7787   5.333   5.695  11.660 -0.3982  0.0783 -0.1277
 3724W        W 7788   4.171   9.344   2.111 -0.0415  0.0516  0.0377
 3725W        W 7789   7.703   8.074   2.366  0.0422  0.1301 -0.0353
 3726W        W 7790   3.741   4.809   3.397  0.2838 -0.0975  0.0473
 3727W        W 7791   8.235   7.227   1.864 -0.0001 -0.3142  0.3956
 3728W        W 7792  10.544  10.248   0.312  0.2372 -0.1499 -0.1401
 3729W        W 7793   5.958   2.109   2.028  0.1032 -0.0925 -0.1914
 3730W        W 7794   6.651   5.615   3.664  0.0389  0.2462  0.0284
 3731W        W 7795   6.772   5.701  10.634 -0.0232 -0.1119  0.1017
 3732W        W 7796   6.591   3.137   0.129 -0.1459  0.1264 -0.1012
 3733W        W 7797   3.749   4.589   2.955 -0.1502  0.0442 -0.2233
 3734W        W 7798   3.068   2.606  10.332  0.3885 -0.1041 -0.3475
 3735W        W 7799   4.319   8.684   3.709  0.2401 -0.0846  0.2277
 3736W        W 7800   4.029   4.361   1.174  0.0043 -0.0632  0.1375
 3737W        W 7801   9.206   5.710   1.888  0.0579  0.1069 -0.0942
 3738W        W 7802   2.676   2.197   9.511  0.0972 -0.4945 -0.2344
 3739W        W 7803  10.227   7.467  10.997 -0.1775 -0.0857 -0.0902
 3740W        W 7804   3.176   0.490   1.960 -0.2141 -0.1400  0.0020
 3741W        W 7805   3.763   4.393   3.705  0.1663 -0.2272 -0.1836
 3742W        W 7806   7.086  10.505   8.128  0.1314 -0.1638 -0.2858
 3743W        W 7807   3.351   9.059  10.444  0.3134 -0.1443  0.2435
 3744W        W 7808   3.823   8.418   3.584  0.1164 -0.1206  0.0126
 3745W        W 7809   5.550   5.981   9.806  0.0482 -0.2910 -0.1451
 3746W        W 7810   7.708   4.345   9.833  0.0366  0.0395  0.2887
 3747W        W 7811   6.795   6.913   3.310  0.2401  0.0798 -0.1529
 3748W        W 7812   1.151   1.765   0.655 -0.1738 -0.3791 -0.1264
 3749W        W 7813   3.178   1.369   0.327  0.2134 -0.1026  0.1213
 3750W        W 7814   9.967  10.086  11.358  0.0287 -0.2583  0.0492
 3751W        W 7815  10.045  10.242  10.758  0.0525  0.1535 -0.0775
 3752W        W 7816   6.183   9.690   9.857  0.0156 -0.1343  0.0659
 3753W        W 7817   4.568   3.562   8.102 -0.1693 -0.1225  0.1543
 3754W        W 7818   3.063   9.732   8.610  0.0100 -0.0325  0.2633
 3755W        W 7819   0.061   6.813   2.497  0.3075  0.0422  0.2568
 3756W        W 7820   3.698   3.592  10.864 -0.0227  0.3858 -0.1695
 3757W        W 7821   5.134   9.904   0.307 -0.4409  0.3694  0.2115
 3758W        W 7822   0.838   9.560   2.534 -0.0578 -0.1954  0.0367
 3759W        W 7823   6.834   7.660   2.212  0.4248  0.0883  0.5002
 3760W        W 7824   7.314   4.514  10.126  0.0125  0.0497 -0.0017
 3761W        W 7825  10.178   6.214   4.399 -0.1633 -0.2029  0.0215
 3762W        W 7826   4.775   3.361   0.399  0.1508  0.3051 -0.1710
 3763W        W 7827   7.717   2.381   2.393  0.0315  0.2493 -0.1337
 3764W        W 7828   0.278   8.540   7.962 -0.3913  0.0028  0.0678
 3765W        W 7829   7.016   6.407   9.265 -0.0298  0.3133 -0.0393
 3766W        W 7830   5.617   9.637  10.066  0.1743 -0.1677  0.1040
 3767W        W 7831   6.082   8.929   1.489 -0.3090  0.3220  0.1495
 3768W        W 7832   7.847  10.054   1.061  0.1964 -0.0004  0.1135
 3769W        W 7833   8.065   1.618   9.773  0.2284  0.0091  0.1496
 3770W        W 7834   8.435   3.747   3.483 -0.0639 -0.0232 -0.1602
 3771W        W 7835   5.829   5.163   9.908 -0.2451  0.2890 -0.3055
 3772W        W 7836   2.363   3.884   8.672  0.0504 -0.2598 -0.3003
 3773W        W 7837   5.074   9.123   0.943 -0.0562 -0.1870 -0.0156
 3774W        W 7838   1.034  10.504   1.673  0.0285 -0.1266  0.0161
 3775W        W 7839   3.320   1.896   1.776 -0.2699  0.1936 -0.1991
 3776W        W 7840   8.112   4.637   9.847  0.0263 -0.0266  0.0360
 3777W        W 7841   6.163   8.717   8.615  0.0667  0.0467 -0.2980
 3778W        W 7842   2.914   4.576   3.714  0.0923  0.0117  0.1571
 3779W        W 7843   7.806   3.785   8.140  0.1488 -0.1679 -0.3108
 3780W        W 7844   4.438  10.108   2.621  0.0436 -0.1746  0.2506
 3781W        W 7845   5.889   0.772   8.487 -0.1357  0.1351 -0.2159
 3782W        W 7846   6.501   2.966   1.637 -0.1725  0.1575  0.0755
 3783W        W 7847   7.747   4.887  10.682  0.0966 -0.1813  0.1442
 3784W        W 7848   5.616   9.022   1.397 -0.1806 -0.0251 -0.1620
 3785W        W 7849   1.892   6.341   2.017 -0.1529  0.0056 -0.2775
 3786W        W 7850   9.382   1.735   0.250  0.1819 -0.2204  0.2710
 3787W        W 7851   3.800   1.558   7.980  0.1747  0.1729  0.1221
 3788W        W 7852   5.710   4.516   1.393  0.1810  0.3398 -0.0883
 3789W        W 7853   1.205   2.252   0.470 -0.1363  0.2023 -0.0536
 3790W        W 7854   3.285   3.154   2.526 -0.1985 -0.2318  0.1044
 3791W        W 7855   5.120   8.443   9.018 -0.3615  0.0361  0.0033
 3792W        W 7856   0.214   9.560  10.323 -0.1572  0.0394 -0.0801
 3793W        W 7857   1.183   8.700   8.868  0.0571  0.2662  0.1587
 3794W        W 7858   3.955   8.581   3.110  0.0100 -0.1442 -0.0738
 3795W        W 7859   4.497   5.971   3.621 -0.0269  0.1904 -0.2776
 3796W        W 7860   4.450   5.455  10.917  0.0258  0.1013  0.2440
 3797W        W 7861   8.168   2.894   1.681 -0.1712  0.4059 -0.3250
 3798W        W 7862   8.575   5.962   2.429  0.2143 -0.5184  0.1338
 3799W        W 7863   7.039   5.668   1.966  0.2582  0.0788 -0.0328
 3800W        W 7864   5.817   9.161   8.436 -0.3340 -0.1938 -0.1802
 3801W        W 7865   9.926   9.491   9.463  0.0006 -0.3042  0.2598
 3802W        W 7866   8.720   8.719   9.874 -0.0738  0.0727 -0.0502
 3803W        W 7867   1.607   6.748   9.256 -0.1756  0.4311 -0.2352
 3804W        W 7868   6.959   6.898   9.773 -0.1055  0.1257  0.0092
 3805W        W 7869   7.386   7.546   8.603  0.1807  0.1231 -0.1512
 3806W        W 7870   3.422   8.545   3.218  0.1772  0.0145 -0.0002
 3807W        W 7871  10.247   7.143   9.700 -0.2525  0.1474 -0.0500
 3808W        W 7872   3.176   3.135   8.000 -0.2741  0.0320 -0.0820
 3809W        W 7873   3.746   6.241   9.837  0.4048 -0.0848 -0.1347
 3810W        W 7874   9.099   9.290   2.285 -0.0170  0.0088 -0.0783
 3811W        W 7875   7.299   5.692  10.728  0.0881  0.0660 -0.0192
 3812W        W 7876   1.183   2.071  10.137  0.0119 -0.2015  0.0161
 3813W        W 7877   7.609   8.408   8.649 -0.2750 -0.1700  0.0188
 3814W        W 7878   0.766   4.224  11.623  0.2258 -0.0288  0.1218
 3815W        W 7879   2.943   6.065   1.295  0.2224 -0.0095 -0.1500
 3816W        W 7880   4.888   1.762   8.556 -0.2502  0.1104  0.3567
 3817W        W 7881   1.341   7.000   4.269 -0.0749  0.1640  0.1465
 3818W        W 7882   0.349   6.477   4.373 -0.3315  0.0585  0.0942
 3819W        W 7883   9.298   6.062   9.547 -0.1527 -0.1020 -0.1759
 3820W        W 7884   4.634   8.352   2.596  0.1771  0.0172 -0.3135
 3821W        W 7885   3.777   9.364   0.354  0.2775  0.2433 -0.2170
 3822W        W 7886   3.672   9.941   0.516  0.3708 -0.2567 -0.0034
 3823W        W 7887   6.699   6.584   0.965 -0.1707  0.1036  0.2051
 3824W        W 7888   1.968   8.876   1.315  0.2008 -0.0590  0.0579
 3825W        W 7889  10.359   1.639  11.148 -0.1881  0.0442 -0.3007
 3826W        W 7890   8.619   4.757  10.757 -0.0779 -0.5304 -0.2942
 3827W        W 7891   8.643   2.210   1.129  0.1320 -0.2863 -0.0716
 3828W        W 7892  10.350   2.670   0.263  0.2690 -0.2471  0.1210
 3829W        W 7893   9.165   4.340   9.000 -0.1503  0.1944  0.0931
 3830W        W 7894   6.795   0.928   1.778  0.0388  0.0281 -0.0936
 3831W        W 7895   7.398   9.687   8.598 -0.0550 -0.0027  0.3102
 3832W        W 7896  10.227   1.832   9.464  0.3310  0.0507  0.1516
 3833W        W 7897  10.447   3.645   2.721  0.0651  0.0379  0.0430
 3834W        W 7898   1.151   8.146  11.678  0.0595 -0.0375 -0.2451
 3835W        W 7899   6.225   1.618   7.931  0.0476  0.1510  0.0249
 3836W        W 7900   7.918   9.772   8.788  0.0259 -0.2771  0.1812
 3837W        W 7901   5.660   7.962   3.198  0.1467  0.1467 -0.0876
 3838W        W 7902   1.514   6.274  11.095  0.1135 -0.1150 -0.1152
 3839W        W 7903   0.039   7.433   8.887  0.0775 -0.0165  0.1499
 3840W        W 7904   0.449   3.043   9.154 -0.2557 -0.0945  0.0113
 3841W        W 7905   4.330   2.257   3.489 -0.3136 -0.0098  0.0468
 3842W        W 7906   4.154   6.564   9.474 -0.0768  0.2581 -0.1395
 3843W        W 7907   9.630   3.367   2.902  0.2214 -0.2055 -0.3005
 3844W        W 7908   9.953   7.989   2.428  0.1803 -0.0622 -0.2497
 3845W        W 7909   0.401   2.638   3.253 -0.1234  0.1266  0.2305
 3846W        W 7910   7.096   4.924   9.631 -0.1582 -0.2047 -0.0316
 3847W        W 7911   9.829  10.184   1.892 -0.2157 -0.1521 -0.0000
 3848W        W 7912   8.249   5.599   2.821  0.2460  0.0679  0.1249
 3849W        W 7913   0.579   6.234   8.419  0.1087 -0.0252  0.1289
 3850W        W 7914   4.332   7.595   4.188  0.3108 -0.1056 -0.4325
 3851W        W 7915   2.848   7.738   3.181 -0.0829  0.1465  0.1486
 3852W        W 7916   4.110   1.106   0.324 -0.0714 -0.1175 -0.0757
 3853W        W 7917   9.020   5.416  11.346  0.1359 -0.2240 -0.2337
 3854W        W 7918   4.307   7.617   0.232  0.0718 -0.0314  0.1859
 3855W        W 7919   5.084   9.567  10.824 -0.1352 -0.0158 -0.1578
 3856W        W 7920   4.557   0.905   0.553 -0.0579 -0.0494 -0.1541
 3857W        W 7921   4.225   2.238   0.889 -0.1055  0.2049  0.2857
 3858W        W 7922   2.225   6.056   8.134  0.1861 -0.0745 -0.2828
 3859W        W 7923   0.276  10.136   0.649 -0.3704  0.1272 -0.2058
 3860W        W 7924   8.847   8.462   1.218 -0.1342  0.0448  0.0582
 3861W        W 7925   1.641   9.826   8.189  0.4513  0.2700  0.0270
 3862W        W 7926   5.722   8.717  10.376 -0.0177 -0.1666 -0.0997
 3863W        W 7927   9.474   5.172  11.608 -0.1783  0.2206  0.1738
 3864W        W 7928   1.660   4.741   8.469 -0.4368  0.0980  0.0333
 3865W        W 7929   5.895   3.097   0.418 -0.1228 -0.2046 -0.2445
 3866W        W 7930   6.496   4.205   2.529 -0.1648 -0.2972 -0.2652
 3867W        W 7931   5.098   6.356   1.780 -0.0804  0.0028  0.2065
 3868W        W 7932   3.578  10.090  10.128  0.3480 -0.3407  0.0186
 3869W        W 7933   6.475   2.952   1.124  0.0439  0.1917 -0.3065
 3870W        W 7934   5.370   8.270  10.434 -0.0280  0.0805  0.1286
 3871W        W 7935   7.878   2.983  11.059  0.0801 -0.1231  0.2658
 3872W        W 7936   0.228   4.731  10.403 -0.0181 -0.3060 -0.0470
 3873W        W 7937   9.377   1.782   2.866  0.1912  0.2961  0.1378
 3874W        W 7938   0.534   4.899   9.926 -0.1838 -0.3629  0.0655
 3875W        W 7939  10.163   0.650   3.600  0.2872 -0.0385 -0.2070
 3876W        W 7940   3.879   9.321  10.060  0.2616  0.2669  0.1423
 3877W        W 7941   9.712   1.210   2.156 -0.0858 -0.3824 -0.2617
 3878W        W 7942   1.741   8.486   0.871 -0.0534 -0.1451 -0.0182
 3879W        W 7943   6.324   7.159   8.824 -0.4152  0.1999  0.1345
 3880W        W 7944   9.304   8.028   2.855 -0.0126 -0.2401  0.2390
 3881W        W 7945   0.997   4.213   2.155  0.2908  0.1418  0.1395
 3882W        W 7946   9.895   5.566   3.245  0.2473 -0.2855  0.0089
 3883W        W 7947   6.430   9.319   1.345  0.0269 -0.0404  0.0352
 3884W        W 7948   1.207   0.851   8.955  0.0104 -0.1380  0.0093
 3885W        W 7949   9.785   4.580  10.988 -0.0815  0.0900 -0.0341
 3886W        W 7950   8.568   0.012   2.152 -0.3068  0.0887  0.2070
 3887W        W 7951   1.531   4.277   1.031  0.1680  0.0241 -0.1504
 3888W        W 7952   3.705   4.587   1.515 -0.0702 -0.1663  0.0337
 3889W        W 7953   3.594   2.716   9.728 -0.1754 -0.1555 -0.0889
 3890W        W 7954  10.189   7.309  10.475 -0.2166 -0.1391  0.0346
 3891W        W 7955   4.132   7.559   9.148 -0.1732  0.1852 -0.2324
 3892W        W 7956   0.242   2.806   8.705 -0.1930  0.1006 -0.0254
 3893W        W 7957   2.084   4.364  10.828 -0.0680  0.1906  0.0982
 3894W        W 7958   9.961   4.171   3.149  0.0120 -0.0674 -0.2062
 3895W        W 7959   5.825   2.542   9.982  0.0911  0.1245  0.1180
 3896W        W 7960   0.899  10.528   9.476 -0.2085 -0.0224 -0.4550
 3897W        W 7961   2.948   3.337   0.308 -0.0751 -0.3009  0.0007
 3898W        W 7962   1.657   9.022   8.974 -0.1289 -0.1708 -0.0519
 3899W        W 7963   5.366   7.265   9.771 -0.0575  0.2017  0.0891
 3900W        W 7964   7.099   3.802   8.911 -0.2132  0.0575 -0.1589
 3901W        W 7965   0.143   1.635   1.515  0.0242 -0.0105 -0.1517
 3902W        W 7966   1.904   0.405   2.632 -0.1723 -0.0034 -0.0837
 3903W        W 7967   8.685   4.464   1.421  0.0785  0.1173 -0.1153
 3904W        W 7968   0.906   7.631   0.167 -0.1920  0.1457  0.1503
 3905W        W 7969   6.391   4.601   3.749  0.0399 -0.1478 -0.2484
 3906W        W 7970   7.212   0.766   4.207  0.3389 -0.0032 -0.0236
 3907W        W 7971   4.529   8.436   8.390 -0.0230  0.2285 -0.3164
 3908W        W 7972   0.769   5.931   1.962 -0.1041 -0.0199  0.1051
 3909W        W 7973   9.749   0.343   3.276 -0.1415 -0.0300  0.0003
 3910W        W 7974   2.061   7.199   0.864  0.0811 -0.3792  0.3309
 3911W        W 7975   8.739   6.978   8.881 -0.1591 -0.0991  0.0576
 3912W        W 7976   2.890  10.552   1.175 -0.1704 -0.1455 -0.1748
 3913W        W 7977   9.260   8.964   1.878  0.0050 -0.1638 -0.2165
 3914W        W 7978   7.712   6.756   1.719 -0.4243 -0.2787  0.2861
 3915W        W 7979   2.618   8.012   8.192  0.2304 -0.1084  0.0024
 3916W        W 7980   4.776   7.145   8.766  0.0262  0.4584  0.0124
 3917W        W 7981   5.792   7.634   1.155  0.1551  0.2034  0.0853
 3918W        W 7982   1.277   6.846   8.843 -0.2222 -0.0793 -0.1135
 3919W        W 7983   6.210   9.928   2.462  0.0798 -0.2504 -0.0173
 3920W        W 7984   5.760   9.967   9.717 -0.0428  0.3297 -0.1009
 3921W        W 7985   7.907   5.520   9.024  0.2315  0.1511  0.3974
 3922W        W 7986   0.103   5.212  10.032 -0.5871  0.1786  0.0111
 3923W        W 7987   5.021   1.374   1.195 -0.1121 -0.0053  0.1618
 3924W        W 7988   7.599   4.840   3.047 -0.6136 -0.2470 -0.2813
 3925W        W 7989   6.488   8.161  11.511  0.3350 -0.2627  0.0895
 3926W        W 7990   3.479   6.315  11.668  0.1215  0.4059  0.0954
 3927W        W 7991   5.621   9.140   2.813  0.0077 -0.0317  0.0891
 3928W        W 7992   5.999   8.379   2.468  0.1101 -0.1084  0.0674
 3929W        W 7993   3.655   3.070  11.114 -0.0739 -0.0655  0.0692
 3930W        W 7994   4.807   7.924   9.252  0.0063  0.0305 -0.0255
 3931W        W 7995   5.938   4.702   0.145  0.1540 -0.1475 -0.1779
 3932W        W 7996   6.954   5.241  10.722 -0.2841 -0.1790 -0.1238
 3933W        W 7997   8.014   5.158   9.894  0.0658 -0.2114 -0.2613
 3934W        W 7998   6.294   2.479   1.329  0.1177  0.1344  0.3799
 3935W        W 7999   4.412   0.922  10.218  0.1219 -0.1203  0.1371
 3936W        W 8000   8.905   3.857   9.168  0.1356  0.0047 -0.0913
 3937W        W 8001   0.120   5.329   1.117  0.0032 -0.0309  0.1762
 3938W        W 8002   7.899   4.946   3.544 -0.1024 -0.2499 -0.0860
 3939W        W 8003   4.601   1.819   0.170 -0.0374 -0.3363  0.2001
 3940W        W 8004   9.801   2.754  11.130  0.2049  0.2922  0.2308
 3941W        W 8005   0.184   0.148   2.551 -0.3356  0.0065  0.0490
 3942W        W 8006   3.607   4.104   1.544  0.2074  0.1581  0.1101
 3943W        W 8007   1.297   5.296  10.964  0.2736  0.1540 -0.2062
 3944W        W 8008   7.636   1.800   4.106 -0.1324 -0.1714 -0.0817
 3945W        W 8009   3.909   9.060   3.055 -0.1402  0.0380 -0.1153
 3946W        W 8010   5.323   4.581   9.691  0.0416 -0.2320  0.3146
 3947W        W 8011   8.576  10.395   1.633  0.2397  0.0433 -0.0692
 3948W        W 8012   7.807   0.336  10.783  0.0951  0.0407  0.0906
 3949W        W 8013   8.581   1.647   3.138 -0.0804  0.2282 -0.0416
 3950W        W 8014   1.003   8.690   8.340  0.0988 -0.0396 -0.0854
 3951W        W 8015   5.005  10.378   4.438 -0.0974  0.0877  0.0110
 3952W        W 8016   3.925   9.796  10.332 -0.5262  0.1160 -0.1614
 3953W        W 8017   8.173   9.133   8.314  0.0418 -0.0406 -0.0122
 3954W        W 8018   8.058   5.790   2.414  0.3111 -0.0194 -0.2785
 3955W        W 8019   9.189   5.542  10.362  0.1716  0.0092  0.0262
 3956W        W 8020   1.591   3.817   8.851 -0.1261  0.0470 -0.0904
 3957W        W 8021   3.289  10.146   9.635  0.3230 -0.1261  0.0432
 3958W        W 8022   3.422   5.981  10.830 -0.0971  0.0148 -0.1158
 3959W        W 8023   3.401   4.015   1.081 -0.1203  0.0392 -0.0885
 3960W        W 8024   1.425   5.262   1.109  0.0561 -0.4430 -0.1075
 3961W        W 8025   1.876   9.037   8.468 -0.3233  0.0118  0.0359
 3962W        W 8026   4.156   8.011  10.917 -0.1380  0.0219 -0.1018
 3963W        W 8027   6.888   5.715   8.696 -0.0775  0.1234  0.0102
 3964W        W 8028   1.624   6.823   3.306  0.2582  0.1719  0.1106
 3965W        W 8029  10.501   5.885  11.011  0.0940  0.2670  0.1515
 3966W        W 8030   0.056   3.549   9.947  0.0301 -0.1197  0.0524
 3967W        W 8031   4.230   4.663  11.251  0.2686  0.5755  0.0274
 3968W        W 8032   9.066   0.783   0.046 -0.1032  0.0990 -0.0142
 3969W        W 8033   1.651   9.171  11.384 -0.0397  0.1039 -0.2189
 3970W        W 8034   9.416   3.306   2.485  0.1294  0.3124  0.0800
 3971W        W 8035   2.199   2.264  11.631 -0.2072  0.4474  0.0037
 3972W        W 8036   2.142   9.739   1.952  0.1245 -0.0385  0.0127
 3973W        W 8037   8.305   9.619   8.457  0.2410  0.3497 -0.2994
 3974W        W 8038   4.295   9.900   0.822 -0.2248  0.0378 -0.0216
 3975W        W 8039   8.541   6.450   2.379 -0.1456 -0.3459  0.0525
 3976W        W 8040   0.985   8.396   1.170  0.1865 -0.3361 -0.0668
 3977W        W 8041   7.806   9.242   3.779  0.1136 -0.1056  0.1292
 3978W        W 8042   9.086   8.657   0.105  0.1851 -0.3961  0.0919
 3979W        W 8043  10.174   9.007   9.505  0.2269 -0.0417  0.0558
 3980W        W 8044   8.496  10.016   3.603  0.1870 -0.0975 -0.0657
 3981W        W 8045   7.711   5.733  11.618 -0.1302  0.0742  0.1321
 3982W        W 8046   5.765   6.784   1.544 -0.0279  0.0662 -0.4238
 3983W        W 8047   4.928   1.181  10.062 -0.3502  0.1568  0.0548
 3984W        W 8048   6.216   1.076  11.379  0.2281 -0.0061  0.1158
 3985W        W 8049   9.617   2.093   9.295  0.0768  0.2376  0.1995
 3986W        W 8050   2.953  10.340   9.254 -0.0754  0.2033  0.1031
 3987W        W 8051   0.263   7.318   3.322 -0.0028 -0.1978 -0.1231
 3988W        W 8052   9.903   0.165  10.754 -0.1213 -0.1320  0.0217
 3989W        W 8053   1.995   4.267   1.799 -0.1040 -0.3687 -0.2886
 3990W        W 8054  10.037   7.614  11.652  0.0474  0.1257 -0.4750
 3991W        W 8055   3.226   2.264   1.375 -0.0034 -0.2190  0.0396
 3992W        W 8056   3.052   0.466   0.177 -0.1399  0.2374  0.0289
 3993W        W 8057   1.743   0.336   8.226 -0.0153  0.1809  0.2775
 3994W        W 8058   1.435   1.347   0.607  0.0575  0.1509  0.1522
 3995W        W 8059   2.224  10.345  11.315  0.2514 -0.1486  0.0791
 3996W        W 8060   8.209   1.618   8.757 -0.2675  0.0204 -0.0000
 3997W        W 8061   7.505   1.315   3.030 -0.1832  0.0440  0.0210
 3998W        W 8062   7.871   4.856   0.740  0.1743  0.0975 -0.0234
 3999W        W 8063  10.530   9.179   1.574  0.0678  0.2113  0.1264
 4000W        W 8064   4.081   2.178  10.188 -0.1480  0.5302 -0.1454
 4001W        W 8065  10.171   9.989   2.465 -0.1399 -0.0443  0.2727
 4002W        W 8066   1.349   9.631   9.810 -0.2366  0.1563  0.2506
 4003W        W 8067   0.359  10.163  11.124  0.0941  0.3116  0.1708
 4004W        W 8068   3.810   2.748   0.720 -0.1821 -0.2860  0.2774
 4005W        W 8069   2.221   8.137  10.153 -0.1369  0.0798  0.1767
 4006W        W 8070   1.204   0.688  10.768 -0.3016  0.1156  0.1325
 4007W        W 8071   7.894   1.047  11.247  0.0237 -0.0438  0.1600
 4008W        W 8072   1.722   9.765   0.317 -0.0028 -0.0676 -0.0889
 4009W        W 8073   3.110   8.293   8.987  0.4081  0.0655 -0.1796
 4010W        W 8074   5.094   6.949   8.395 -0.1706 -0.4745 -0.0499
 4011W        W 8075   4.388   8.397   9.526 -0.1320 -0.1634 -0.2494
 4012W        W 8076   0.718   5.143   0.979 -0.0593  0.0253  0.0283
 4013W        W 8077   2.088   6.101  10.402  0.2820  0.1864 -0.0284
 4014W        W 8078   0.160   6.357   1.224  0.2600  0.1062 -0.0685
 4015W        W 8079   4.041   0.115   0.128  0.0441 -0.0569  0.0949
 4016W        W 8080   3.331   8.810   7.910 -0.0661  0.0650  0.1087
 4017W        W 8081  10.560   4.818   7.614 -0.2383  0.1174  0.0728
 4018W        W 8082   3.036   3.485   1.818  0.1411  0.2955 -0.0353
 4019W        W 8083   2.991   2.279   1.823 -0.3245  0.1628 -0.0047
 4020W        W 8084   0.730   6.721  10.230 -0.1472 -0.0822 -0.2457
 4021W        W 8085   0.938   7.980   2.477  0.4316 -0.3732 -0.0901
 4022W        W 8086   9.544   4.795  10.341  0.3578 -0.0628 -0.1187
 4023W        W 8087   2.883   0.900   1.991 -0.0011 -0.3078 -0.2631
 4024W        W 8088   0.574   7.853   3.153 -0.1024 -0.0002  0.0056
 4025W        W 8089  10.299   1.100  11.063  0.0428 -0.2138  0.2415
 4026W        W 8090   1.162   8.743   7.907  0.2567 -0.1543  0.1776
 4027W        W 8091   2.584   0.588  11.359 -0.0378  0.1048  0.2003
 4028W        W 8092   0.293   2.910   1.378 -0.0664  0.0161  0.0397
 4029W        W 8093   4.292   2.932   9.254  0.0927 -0.1844 -0.4802
 4030W        W 8094   1.986   6.182  11.215 -0.0236 -0.0936 -0.2174
 4031W        W 8095  10.376   3.932  10.711  0.0859 -0.0992 -0.2184
 4032W        W 8096   2.277   2.514   1.288  0.1703 -0.0019  0.0274
 4033W        W 8097   9.744   5.720   8.537  0.4131 -0.1054 -0.0918
 4034W        W 8098   8.746   4.139   8.618  0.2652  0.0342  0.0238
 4035W        W 8099   7.629   9.021   1.526  0.0525 -0.0771 -0.0770
 4036W        W 8100   8.238   5.836  11.487 -0.0525 -0.0421  0.0942
 4037W        W 8101   2.633   9.483   0.222 -0.0012  0.0480 -0.5530
 4038W        W 8102   4.067   6.125   8.732  0.0615  0.1141 -0.2192
 4039W        W 8103   4.660   0.306   3.112  0.0244  0.2598  0.0087
 4040W        W 8104   2.795  10.026   0.121  0.2997  0.1172 -0.1955
 4041W        W 8105   6.050   0.655   1.923  0.1780  0.2317  0.1748
 4042W        W 8106   3.751  10.473   9.436  0.1614  0.2339 -0.5138
 4043W        W 8107   1.918   1.652   9.524 -0.1528 -0.3709  0.1394
 4044W        W 8108   0.105   3.501  11.391  0.0672 -0.0565 -0.0370
 4045W        W 8109   0.270   9.355   8.010 -0.1905  0.1120  0.1917
 4046W        W 8110   5.296   9.988   8.314 -0.2137  0.1831  0.2738
 4047W        W 8111   2.974   5.792  10.578  0.0696  0.0045 -0.1824
 4048W        W 8112   2.845   1.361   9.409  0.1034  0.0183  0.1877
 4049W        W 8113   6.314   7.023   3.559 -0.0708 -0.1021 -0.2629
 4050W        W 8114   2.825   5.971   2.028 -0.1133  0.1904 -0.1184
 4051W        W 8115   1.554   6.045   0.379  0.4419 -0.0924  0.2436
 4052W        W 8116   8.992   1.498  11.011  0.0122 -0.3501  0.2201
 4053W        W 8117   8.913   4.618   8.397 -0.1086 -0.0638 -0.0164
 4054W        W 8118   7.623   4.906   9.689  0.2535 -0.2877 -0.0451
 4055W        W 8119   1.780   4.113   2.304 -0.2466 -0.0219  0.2481
 4056W        W 8120   1.924  10.394   9.410 -0.0013  0.2564  0.2088
 4057W        W 8121   4.678   2.258   1.497 -0.3403 -0.1510  0.2855
 4058W        W 8122   9.938   6.867  10.417 -0.0556  0.2597 -0.2405
 4059W        W 8123   9.553   7.980   2.004  0.0563 -0.0990 -0.1818
 4060W        W 8124   9.047   7.996   2.073  0.1533  0.1395 -0.0449
 4061W        W 8125   6.167   1.157   1.809 -0.2656  0.1793 -0.4659
 4062W        W 8126   9.718   8.203  11.653 -0.5221  0.2331 -0.0149
 4063W        W 8127   3.460   1.096   1.338  0.0583 -0.0833  0.0511
 4064W        W 8128   5.147   6.876   2.922  0.3913 -0.1006  0.1140
 4065W        W 8129   4.405   7.282  11.486  0.0522  0.1458 -0.0147
 4066W        W 8130   6.745   0.169  11.652  0.1575  0.0574 -0.1619
 4067W        W 8131   8.911   8.684   2.948  0.2471 -0.1891 -0.1286
 4068W        W 8132   6.747   3.349  11.085 -0.0127 -0.0025 -0.3245
 4069W        W 8133   8.898   9.234   0.312 -0.0078 -0.1196  0.1973
 4070W        W 8134   4.727   4.874   9.133 -0.2139 -0.1233 -0.0003
 4071W        W 8135   5.598   2.898   1.754 -0.3718 -0.1795 -0.2075
 4072W        W 8136   9.682   5.330  10.317  0.1338  0.0351 -0.0813
 4073W        W 8137   1.608   1.972   2.163 -0.1758  0.1710  0.3017
 4074W        W 8138   9.620   6.936   2.596 -0.0292 -0.0803 -0.2421
 4075W        W 8139   1.207   4.409  10.367 -0.0438 -0.1907 -0.1200
 4076W        W 8140   1.294   6.676  10.114 -0.0318 -0.0964 -0.0584
 4077W        W 8141   7.684   5.818   3.956 -0.2928 -0.3170 -0.3184
 4078W        W 8142   6.244   0.354   2.327  0.2316 -0.0396 -0.1082
 4079W        W 8143  10.158   2.138  11.154 -0.0167 -0.3187 -0.0866
 4080W        W 8144   4.247   5.130  10.077 -0.2342 -0.3816  0.1556
 4081W        W 8145  10.550   1.998   9.875  0.5005  0.0657  0.1944
 4082W        W 8146   0.971  10.245   7.989 -0.2084 -0.0045  0.0140
 4083W        W 8147   0.484   4.208   2.394 -0.0475 -0.0973  0.2357
 4084W        W 8148   5.657   1.382   9.381 -0.0052 -0.2013 -0.0367
 4085W        W 8149   3.653   3.523   3.934 -0.0266  0.5200 -0.0126
 4086W        W 8150   1.985   8.381   1.309  0.1101  0.0311  0.1939
 4087W        W 8151   3.376   9.558  10.165 -0.1873 -0.1605  0.2358
 4088W        W 8152   6.345   3.370   1.351  0.2799  0.0566 -0.3619
 4089W        W 8153  10.596   3.151  10.499  0.0827 -0.0496  0.0072
 4090W        W 8154   4.737   7.664   2.885 -0.1396 -0.1360  0.0097
 4091W        W 8155   7.389   9.177   2.941  0.2766 -0.3374 -0.3869
 4092W        W 8156   5.553   5.412   9.574  0.0048 -0.3468 -0.0997
 4093W        W 8157   8.343   9.779  11.242 -0.0327 -0.0631 -0.1022
 4094W        W 8158  10.575  10.583  11.277  0.1918 -0.1700  0.0156
 4095W        W 8159   2.427   6.081   1.199  0.2581 -0.2656 -0.1668
 4096W        W 8160   2.169   1.933  11.237 -0.4658  0.0728  0.0460
 4097W        W 8161   5.390   1.421   0.715  0.5991  0.1086 -0.0264
 4098W        W 8162   1.738   9.794  10.799 -0.4894 -0.3276  0.0131
 4099W        W 8163   3.921   1.629   2.399 -0.3017  0.1251  0.2231
 4100W        W 8164   1.849   1.472   0.442 -0.1529  0.1005  0.3505
 4101W        W 8165  10.458   0.772  10.474 -0.0138 -0.0114  0.3184
 4102W        W 8166   6.232   7.725   2.257 -0.2824 -0.0666  0.1653
 4103W        W 8167  10.242   7.015   8.295  0.1525  0.1070  0.2511
 4104W        W 8168   9.933   1.283   9.903  0.4234 -0.0541 -0.1870
 4105W        W 8169   7.973   9.511  10.953 -0.1304 -0.3160  0.1248
 4106W        W 8170   3.413   4.816   4.441  0.2508  0.0820  0.2164
 4107W        W 8171   6.225   8.209   8.041 -0.1695 -0.0296 -0.0283
 4108W        W 8172   6.689   7.748   3.067 -0.0862 -0.0954  0.1075
 4109W        W 8173   4.283   3.314  10.223 -0.1419 -0.3513  0.2983
 4110W        W 8174   7.682   5.701   8.382 -0.0763 -0.1751 -0.2118
 4111W        W 8175   6.223   3.452   1.839  0.0974 -0.2132 -0.0411
 4112W        W 8176   4.300   2.131  11.613 -0.2674  0.1597 -0.0720
 4113W        W 8177   3.019   1.912  11.640 -0.0846  0.1011 -0.1466
 4114W        W 8178   8.983   2.276  10.591  0.0611 -0.0231 -0.1194
 4115W        W 8179   3.938   9.969   9.378 -0.0932 -0.1236  0.1865
 4116W        W 8180   2.420   5.541   1.362  0.1251 -0.3283  0.1849
 4117W        W 8181   6.076   3.506   3.747  0.3146  0.1633  0.0611
 4118W        W 8182   8.845   5.400  10.065 -0.1751  0.3728 -0.1501
 4119W        W 8183  10.418   3.072  11.168  0.0177 -0.2283  0.2690
 4120W        W 8184   7.614   6.613   3.172  0.0789  0.2345  0.1342
 4121W        W 8185   8.264  10.211   1.347 -0.2498  0.3029 -0.0738
 4122W        W 8186   5.784   9.657   2.543  0.0582 -0.0294  0.0240
 4123W        W 8187   6.662   4.406   0.645  0.2796 -0.1043  0.0383
 4124W        W 8188   9.014   6.057  10.136  0.1443  0.2188  0.6499
 4125W        W 8189   5.228   6.782   0.248 -0.0484 -0.0980 -0.0361
 4126W        W 8190   8.490   0.862   9.638  0.2105  0.1872 -0.3646
 4127W        W 8191   7.972   0.465   2.076  0.0146  0.0591  0.0014
 4128W        W 8192   6.211   1.105   9.136 -0.0959 -0.1690 -0.2853
 4129W        W 8193   2.130   5.448   2.405 -0.1463  0.1470  0.0945
 4130W        W 8194   0.281   3.432   0.319 -0.2805 -0.0519 -0.0838
 4131W        W 8195   0.749   0.491  10.369  0.0257  0.3207 -0.3023
 4132W        W 8196   7.482  10.419   0.905 -0.2068  0.2667  0.3485
 4133W        W 8197   7.027   5.313   1.003 -0.1713 -0.2033  0.0826
 4134W        W 8198   8.014   6.426   3.477 -0.3495 -0.1355 -0.3439
 4135W        W 8199   5.019   2.142  10.387 -0.1157 -0.2520 -0.4539
 4136W        W 8200   7.984   8.150   2.016 -0.1165 -0.1334  0.3802
 4137W        W 8201   0.026   8.927   2.031 -0.1145  0.3036 -0.0996
 4138W        W 8202   9.068   4.360   2.053 -0.0098 -0.1924 -0.1461
 4139W        W 8203   0.615   1.241   0.075  0.0265  0.1157  0.0100
 4140W        W 8204   7.648   9.004   2.537  0.1124 -0.0912 -0.0212
 4141W        W 8205   7.583   6.912   8.056 -0.0498 -0.3794 -0.0831
 4142W        W 8206   2.542   2.555   0.789 -0.0068  0.4143 -0.2565
 4143W        W 8207   7.624   1.875   9.967 -0.3563 -0.0069 -0.2774
 4144W        W 8208   1.797   2.659   1.325  0.1828  0.2003  0.0189
 4145W        W 8209   6.195   2.096   8.200 -0.0408  0.0281 -0.2553
 4146W        W 8210   8.543   6.860   2.121  0.0436 -0.0838 -0.0783
 4147W        W 8211   1.669   8.496   7.265  0.3136 -0.1910 -0.1056
 4148W        W 8212   1.067   7.367   1.776 -0.1598  0.2279 -0.2456
 4149W        W 8213  10.072   9.115   1.417  0.1228  0.2158  0.2067
 4150W        W 8214  10.553   5.109  10.612  0.0816 -0.0434  0.3825
 4151W        W 8215   5.599  10.165   0.420  0.2909 -0.0357 -0.0471
 4152W        W 8216   5.517   2.496   4.401 -0.1972  0.0801 -0.2307
 4153W        W 8217   7.667   4.014  10.197  0.0410 -0.1745  0.3147
 4154W        W 8218   2.318   8.181   0.472 -0.0792 -0.1886 -0.1340
 4155W        W 8219   1.267   1.546   2.982 -0.1529 -0.1363 -0.1972
 4156W        W 8220   5.979   6.101   9.979 -0.2244  0.3031 -0.3689
 4157W        W 8221   5.261  10.271  11.411 -0.2974  0.1974 -0.0305
 4158W        W 8222   3.056   6.832   9.526 -0.0210 -0.5199 -0.1472
 4159W        W 8223   9.915   5.434   2.243 -0.1999  0.3505  0.0084
 4160W        W 8224   0.557   1.806   1.321 -0.0680 -0.1712 -0.2543
 4161W        W 8225   4.476   4.143   8.247  0.1202 -0.0333  0.0052
 4162W        W 8226   5.021   0.123   8.829 -0.1715 -0.0933 -0.0564
 4163W        W 8227   0.013   9.897   1.020 -0.1951 -0.0711 -0.0555
 4164W        W 8228   3.812   0.946  10.345 -0.2177  0.1005 -0.0019
 4165W        W 8229   4.952   9.949  10.390 -0.0632 -0.2206 -0.1195
 4166W        W 8230   1.732   8.274   2.627  0.1394  0.0741 -0.1598
 4167W        W 8231   2.238   9.887   0.939  0.1420 -0.0837 -0.1461
 4168W        W 8232   6.438   2.707   2.536  0.0181  0.1123 -0.2305
 4169W        W 8233   7.521   0.214   2.906  0.1155 -0.0509  0.0261
 4170W        W 8234   5.907   4.470   3.633 -0.1495  0.0711 -0.0552
 4171W        W 8235   0.204   8.770   8.799 -0.0195  0.0601 -0.4420
 4172W        W 8236   5.083   7.090   9.408  0.0335 -0.0768  0.7604
 4173W        W 8237   5.260   3.732  11.174 -0.3410  0.4460 -0.4295
 4174W        W 8238   7.861   2.518   8.895  0.0468 -0.0159  0.1310
 4175W        W 8239   8.788  10.275   0.579  0.1562 -0.0687 -0.0874
 4176W        W 8240   0.843   2.157  11.029  0.1691  0.1682 -0.2100
 4177W        W 8241   7.308   0.046   1.673 -0.2296 -0.0542 -0.1622
 4178W        W 8242   9.454   2.621   0.651 -0.0492  0.1513 -0.2571
 4179W        W 8243   7.332   5.218   9.287 -0.5536  0.0185 -0.2515
 4180W        W 8244   7.514   3.440   2.482  0.2923  0.0540 -0.1400
 4181W        W 8245   9.635   6.053   1.478 -0.0287  0.0757 -0.0971
 4182W        W 8246   7.850   9.130  11.410 -0.0927  0.1119 -0.0911
 4183W        W 8247   1.328   6.492   0.054  0.1672 -0.1408  0.0829
 4184W        W 8248   0.809   3.909   2.624  0.0456 -0.0886  0.1506
 4185W        W 8249   4.471   0.069   1.679  0.1140  0.1828 -0.0822
 4186W        W 8250   7.940   8.369   0.876  0.1969 -0.3359  0.1008
 4187W        W 8251   5.731   3.294   1.439 -0.0322 -0.1829  0.0484
 4188W        W 8252   2.641  10.005   9.040  0.0009  0.1582  0.0416
 4189W        W 8253   6.045   6.737   0.858 -0.1649 -0.0409  0.0536
 4190W        W 8254   6.929  10.372   9.426 -0.0948 -0.3760 -0.0847
 4191W        W 8255   7.620   0.285   0.829 -0.0912  0.1868  0.0542
 4192W        W 8256   9.793   7.022   2.020  0.4282 -0.0075 -0.1697
 4193W        W 8257   1.679  10.445   8.981  0.2232  0.3230  0.3492
 4194W        W 8258   0.818   5.801   2.983 -0.0488 -0.0167 -0.0517
 4195W        W 8259   5.963   2.429  11.508  0.0330 -0.0209 -0.0371
 4196W        W 8260   7.980  10.574   2.950 -0.2646  0.2998 -0.1321
 4197W        W 8261   6.900   3.009   0.844  0.0299  0.0371 -0.2712
 4198W        W 8262  10.427   4.529   2.283  0.1774  0.0528  0.1493
 4199W        W 8263   0.557   0.192   0.836  0.4166 -0.1065  0.1064
 4200W        W 8264   8.485   0.178   1.209 -0.0196  0.3549 -0.0084
 4201W        W 8265   5.277   6.628  10.573  0.1474 -0.3376  0.1509
 4202W        W 8266   2.424   3.222   0.136 -0.1181 -0.0972 -0.2775
 4203W        W 8267   3.970   0.715   0.020  0.2729  0.2838 -0.2059
 4204W        W 8268   3.692   6.264   2.973  0.1394 -0.2493  0.1190
 4205W        W 8269   6.062   1.788   3.264  0.0565 -0.0996  0.1494
 4206W        W 8270   1.415  10.079  11.542  0.0786  0.2921  0.1982
 4207W        W 8271   5.324   6.332   2.732  0.0853 -0.2673  0.4129
 4208W        W 8272  10.237   4.611   7.947  0.2622  0.0345  0.1173
 4209W        W 8273   6.973   5.351   3.399  0.0184 -0.1283  0.1012
 4210W        W 8274   6.407   6.289   0.245  0.0240  0.0392  0.1083
 4211W        W 8275   0.835   1.696  11.576  0.4142 -0.2396  0.1902
 4212W        W 8276   1.479   7.463   3.000  0.0252 -0.0084 -0.3941
 4213W        W 8277   7.977   9.573   2.214  0.0237  0.0569  0.0672
 4214W        W 8278   4.979   0.885   8.113 -0.0473  0.1396 -0.1035
 4215W        W 8279   9.954   7.738   2.924 -0.1146  0.2659 -0.3169
 4216W        W 8280   8.231   6.596   9.819 -0.1915 -0.0065 -0.3575
 4217W        W 8281   7.090   9.772  10.024 -0.1924  0.0818 -0.1831
 4218W        W 8282   2.422   9.253  10.695  0.2014  0.0747 -0.0201
 4219W        W 8283  10.247   6.355   3.323 -0.1475  0.0633 -0.0974
 4220W        W 8284   8.096   2.029  10.057  0.2528 -0.2922  0.3790
 4221W        W 8285   7.584   8.871   3.388 -0.1842  0.1275  0.2006
 4222W        W 8286   0.004   1.208   0.719 -0.0739 -0.3712 -0.1143
 4223W        W 8287   3.956   9.612   9.042  0.1392 -0.0834  0.2902
 4224W        W 8288   9.379   4.540   2.401  0.1049  0.0623  0.3466
 4225W        W 8289   1.375   8.628  10.272  0.2670  0.0039  0.1362
 4226W        W 8290   0.757   3.697  10.008 -0.3842 -0.0697  0.1139
 4227W        W 8291   5.291   9.281  11.357 -0.3201  0.3065  0.1105
 4228W        W 8292   0.344   1.330  10.374 -0.1030 -0.1744  0.1986
 4229W        W 8293   2.178   8.870  10.395  0.1356 -0.1351 -0.0698
 4230W        W 8294   0.741   0.355   3.030  0.1283 -0.0227  0.2705
 4231W        W 8295   0.535   6.533  11.371  0.0322 -0.0378  0.0525
 4232W        W 8296   5.954   8.859   0.532 -0.0876  0.0533  0.1176
 4233W        W 8297   4.252   9.142   3.983  0.0625 -0.0557  0.1235
 4234W        W 8298   3.256   8.339   0.175 -0.2412  0.0981  0.0295
 4235W        W 8299   7.950   3.038   3.092 -0.1646  0.3578 -0.2646
 4236W        W 8300   4.324   4.782  10.753  0.1680  0.2613  0.4795
 4237W        W 8301   0.650   2.759  10.936 -0.3922  0.2142 -0.1570
 4238W        W 8302   4.845   6.919  10.502  0.0761  0.1417 -0.2573
 4239W        W 8303   3.898   0.773  11.135 -0.1816 -0.0298 -0.0063
 4240W        W 8304   3.356   8.484   2.237 -0.1544  0.3034  0.2261
 4241W        W 8305   7.827   4.426   2.122 -0.0991 -0.0190  0.0584
 4242W        W 8306   5.114   7.354   3.079  0.0590  0.0340  0.0476
 4243W        W 8307   0.455   9.752   2.786 -0.0265 -0.0013  0.2087
 4244W        W 8308   8.406   9.305   1.218 -0.0008 -0.0250 -0.0334
 4245W        W 8309   8.274   9.967   0.467 -0.1482 -0.1030  0.2696
 4246W        W 8310   3.899   7.846   8.777  0.0458 -0.0364 -0.1925
 4247W        W 8311   2.310  10.369   9.854  0.2534  0.0210 -0.0108
 4248W        W 8312   5.084   5.866  10.230  0.1416 -0.1968  0.0871
 4249W        W 8313   0.826   7.533   4.031 -0.0120 -0.1137 -0.0918
 4250W        W 8314   0.937   2.263  11.579 -0.0618 -0.0049 -0.1402
 4251W        W 8315   4.300  10.298   1.329 -0.2975 -0.2973 -0.2537
 4252W        W 8316   2.058   2.427  10.545 -0.1862  0.0458 -0.0428
 4253W        W 8317   8.026   8.125  11.548 -0.0529 -0.0120 -0.0114
 4254W        W 8318   4.271   4.137   2.753 -0.1597  0.1333  0.1928
 4255W        W 8319   9.850   3.982  10.631 -0.1967  0.2050 -0.0036
 4256W        W 8320   7.722   3.391  11.371 -0.4286  0.0034  0.0162
 4257W        W 8321   1.461   4.847   0.224 -0.1377 -0.1691  0.2175
 4258W        W 8322   7.849   6.451   0.270  0.1262 -0.4597 -0.1404
 4259W        W 8323   8.161   3.486   0.359 -0.2171  0.4335 -0.2880
 4260W        W 8324   4.777   9.874   2.261  0.1094 -0.2064  0.2498
 4261W        W 8325   3.525   4.841   2.522  0.1699 -0.0990 -0.1028
 4262W        W 8326   7.595   3.394   9.758 -0.3036 -0.0569 -0.0071
 4263W        W 8327   2.689   5.482   9.040  0.0837  0.0896  0.1230
 4264W        W 8328   8.756   0.507  10.986 -0.1808 -0.0164 -0.1016
 4265W        W 8329   0.505   2.991   0.359  0.1263 -0.0223 -0.3294
 4266W        W 8330   9.978   1.999   1.603 -0.1214  0.1891  0.0442
 4267W        W 8331   7.687  10.214   7.556 -0.0974  0.0132 -0.0883
 4268W        W 8332   7.776  10.050   2.362  0.1126 -0.0123  0.1261
 4269W        W 8333   7.274   4.369   7.619  0.0918  0.0019  0.0998
 4270W        W 8334   8.288   7.498   9.198  0.3986 -0.0202 -0.2641
 4271W        W 8335   2.455   4.185   1.621  0.0190  0.4119  0.0543
 4272W        W 8336   9.121   5.133  10.706  0.1716 -0.0524  0.2419
 4273W        W 8337   9.667   9.388   0.640 -0.0214 -0.4646  0.2451
 4274W        W 8338   1.985   3.040  11.677  0.3655 -0.1131  0.2098
 4275W        W 8339   7.378   4.302   2.395 -0.0750  0.2005 -0.0781
 4276W        W 8340  10.018   6.004   3.087 -0.1112 -0.1772 -0.1040
 4277W        W 8341   1.142   4.680   2.607  0.1519 -0.0488 -0.2369
 4278W        W 8342   6.682   2.646   9.809  0.1335  0.1603 -0.0365
 4279W        W 8343   5.029   0.766   9.732  0.1199 -0.1048  0.3199
 4280W        W 8344   4.015   3.184   0.785 -0.0163 -0.1936  0.2862
 4281W        W 8345   4.614   2.360   9.126 -0.0479  0.4542 -0.1499
 4282W        W 8346   0.724   0.345   0.351 -0.1516  0.1549  0.0831
 4283W        W 8347   4.562   4.721   0.348  0.0620 -0.0835 -0.0439
 4284W        W 8348   0.631   9.502  10.771  0.1209  0.1246 -0.2487
 4285W        W 8349   2.145   7.667   3.549  0.2294 -0.1499 -0.3105
 4286W        W 8350   3.023   0.320  10.158  0.0787 -0.1822  0.0845
 4287W        W 8351   5.031   9.092   2.745 -0.0805  0.0495  0.0602
 4288W        W 8352   5.907  10.033   1.708 -0.0333  0.1404 -0.0888
 4289W        W 8353   9.999   4.110   9.694  0.0687 -0.1033  0.0670
 4290W        W 8354   7.564   0.900   1.186  0.0454  0.1776 -0.1395
 4291W        W 8355   0.071  10.566  10.075 -0.0977  0.1786 -0.1388
 4292W        W 8356   4.853  10.040   1.621 -0.2676 -0.1173  0.1930
 4293W        W 8357   9.719   7.556   8.990 -0.0680 -0.2212 -0.1158
 4294W        W 8358   6.360   2.769   8.721 -0.0534  0.1671  0.0004
 4295W        W 8359   3.475   1.517   2.097  0.1050  0.0935  0.0556
 4296W        W 8360  10.259   1.261   3.423  0.0026  0.0424 -0.2352
 4297W        W 8361   1.251   2.883   2.847  0.1685  0.0319  0.1274
 4298W        W 8362   3.568   7.659   0.859  0.2989 -0.2717  0.1145
 4299W        W 8363   6.447   9.632   0.479 -0.4681  0.0252 -0.0109
 4300W        W 8364   5.412   2.212   1.548  0.1527  0.1033 -0.4479
 4301W        W 8365   2.085   1.771   9.974 -0.1618 -0.0233  0.3689
 4302W        W 8366   7.325  10.293   9.780  0.1278 -0.1406 -0.0600
 4303W        W 8367   9.917   3.165   1.394  0.1862 -0.0239 -0.1157
 4304W        W 8368   4.629   6.710   8.624 -0.0403 -0.1588 -0.2120
 4305W        W 8369   7.769   8.865  10.355  0.1301  0.0370 -0.1616
 4306W        W 8370   8.896   2.466  11.045  0.2898 -0.0934  0.1164
 4307W        W 8371   5.859   5.531   2.831 -0.0806  0.0528 -0.0934
 4308W        W 8372   7.878   6.316   9.638 -0.2444  0.0537  0.0019
 4309W        W 8373   3.967   8.940   3.532  0.2627  0.0289 -0.1294
 4310W        W 8374  10.316   6.327   0.439 -0.1180 -0.4186  0.0602
 4311W        W 8375   2.386   3.045   0.656  0.3311 -0.1756 -0.0788
 4312W        W 8376   6.066   9.131  10.608 -0.1992  0.2605  0.0220
 4313W        W 8377   7.768   7.661   0.744  0.3051 -0.0566 -0.0937
 4314W        W 8378   9.622   9.514   8.848 -0.2344  0.1444  0.1737
 4315W        W 8379   3.936  10.241   9.838  0.0603 -0.1336  0.0768
 4316W        W 8380   0.038   4.709   1.833  0.3249  0.0305 -0.0019
 4317W        W 8381   4.433   2.924   0.205 -0.0863  0.2499  0.1287
 4318W        W 8382  10.579   5.709   1.783 -0.2542  0.4247  0.2121
 4319W        W 8383   0.788   4.014  10.527  0.2885 -0.0302  0.0771
 4320W        W 8384   3.614   9.780   9.768 -0.3060  0.5312 -0.2493
 4321W        W 8385   6.573  10.544  10.370 -0.1597 -0.3581  0.0810
 4322W        W 8386   9.418   9.014   8.164 -0.0739 -0.3730 -0.1463
 4323W        W 8387   7.468   9.267  10.410 -0.3242  0.0899  0.1604
 4324W        W 8388   3.552   8.155   8.372 -0.3031  0.2330 -0.2130
 4325W        W 8389   8.523   9.797   9.026 -0.2823 -0.2078  0.3607
 4326W        W 8390   4.973   8.055   2.000 -0.0269 -0.0697  0.1308
 4327W        W 8391   5.744   7.390   0.672 -0.0955 -0.4594 -0.2647
 4328W        W 8392   0.698   7.416   2.168  0.0657  0.0568 -0.1254
 4329W        W 8393   0.913   0.840   9.458  0.0733  0.3127  0.1636
 4330W        W 8394   7.824   2.423   1.404  0.0081  0.3447 -0.2411
 4331W        W 8395   4.867   4.208   9.211  0.1888  0.0933  0.2800
 4332W        W 8396   9.919   1.079   2.627 -0.1120  0.0450  0.1692
 4333W        W 8397   9.686   4.063   8.657 -0.0578 -0.1869 -0.0575
 4334W        W 8398   9.394   4.596   9.469 -0.3545  0.1640  0.1790
 4335W        W 8399  10.563   3.835   0.261 -0.3726  0.0602  0.0457
 4336W        W 8400   7.130   5.573   0.043 -0.0266  0.0343  0.3714
 4337W        W 8401  10.068   0.226   2.181 -0.0693 -0.4203  0.0260
 4338W        W 8402   9.211   0.567   2.668  0.0978  0.0227  0.0463
 4339W        W 8403   0.371  10.266   3.316  0.0437  0.2696 -0.0970
 4340W        W 8404  10.321   9.357  10.326 -0.1630 -0.2686  0.4897
 4341W        W 8405   3.966   8.824   8.512  0.2287 -0.2460  0.0032
 4342W        W 8406   7.107   8.732   1.262  0.2012 -0.0041  0.1076
 4343W        W 8407   4.838   0.395   3.693 -0.1159 -0.4758 -0.2120
 4344W        W 8408   2.217   5.051  10.422  0.1783  0.1737  0.1618
 4345W        W 8409   2.648  10.154   3.239  0.1134 -0.0633  0.0616
 4346W        W 8410   2.037   2.635   3.230  0.2318  0.1523 -0.0897
 4347W        W 8411   3.723   0.753   1.647 -0.2609  0.1692 -0.0976
 4348W        W 8412   2.530   4.649   2.405 -0.1584  0.0980 -0.1187
 4349W        W 8413   4.355   4.797   9.734  0.1070 -0.2762  0.1803
 4350W        W 8414   3.523   2.878  10.659 -0.2215  0.0303 -0.0979
 4351W        W 8415   4.583   4.638   2.004 -0.2122 -0.1778 -0.0425
 4352W        W 8416   2.503   6.994   2.749 -0.2473  0.0979  0.0057
 4353W        W 8417   1.591  10.570   0.845  0.0927  0.0315  0.0875
 4354W        W 8418   4.438   7.588   0.824  0.1244 -0.0625 -0.0872
 4355W        W 8419   6.723   8.547   2.316 -0.0702 -0.0144  0.5969
 4356W        W 8420   0.790   7.911  10.266 -0.0756 -0.0350 -0.4272
 4357W        W 8421   3.995   5.942   2.232  0.0912 -0.0652 -0.0405
 4358W        W 8422   4.633   1.873  11.353  0.2773 -0.0852  0.0698
 4359W        W 8423   4.364   0.215   2.632 -0.3911 -0.1321  0.1525
 4360W        W 8424   9.491   9.202   1.488  0.0520  0.0944 -0.0908
 4361W        W 8425   2.160   5.911  11.677  0.1764  0.1216  0.0908
 4362W        W 8426   2.264   7.841   8.719 -0.0041  0.2091  0.0515
 4363W        W 8427   4.586   8.686   1.593  0.0755  0.0076  0.2069
 4364W        W 8428   3.134   9.887   9.100  0.0460  0.1745 -0.1796
 4365W        W 8429   7.004   6.796   2.243 -0.2015  0.2239 -0.2054
 4366W        W 8430  10.551   0.040   3.085 -0.0353  0.2377 -0.0665
 4367W        W 8431   5.749   1.008   1.580 -0.1709 -0.0677 -0.2484
 4368W        W 8432   2.337   0.813   9.944  0.0450  0.1921  0.1649
 4369W        W 8433   2.043   3.074   1.420  0.0807  0.1798 -0.5425
 4370W        W 8434   7.045   9.301   7.855 -0.1123 -0.0029  0.1074
 4371W        W 8435   2.331   8.325  11.158 -0.3060  0.2855 -0.1702
 4372W        W 8436   3.337   0.009   0.130  0.1113  0.3413  0.1641
 4373W        W 8437   0.324   8.485   4.379  0.0961  0.4565 -0.1259
 4374W        W 8438   8.329   1.534   8.305  0.0666 -0.0753  0.2104
 4375W        W 8439   5.280   7.011   8.899 -0.1329 -0.0175  0.1982
 4376W        W 8440   6.712   7.184   2.325 -0.2202  0.1085  0.1259
 4377W        W 8441   4.070   6.066   2.688  0.2364 -0.1822  0.1023
 4378W        W 8442   8.368   2.527   2.565  0.1610 -0.1283  0.0504
 4379W        W 8443   2.958  10.295   1.662 -0.0378  0.1360 -0.0112
 4380W        W 8444   0.770   0.433   8.279  0.1361  0.2322  0.1644
 4381W        W 8445   5.878   8.137   2.055 -0.0671 -0.1086  0.2302
 4382W        W 8446   8.360   5.405   0.895 -0.1669  0.1563  0.1925
 4383W        W 8447   8.728   6.918   1.129 -0.0934  0.1362  0.0628
 4384W        W 8448   8.304   1.932   1.353 -0.2019 -0.3025 -0.4502
 4385W        W 8449   6.245   6.084   9.491 -0.1239  0.0471  0.1068
 4386W        W 8450   0.142   4.872   1.340 -0.1093 -0.2761 -0.2746
 4387W        W 8451   1.820   7.894   1.227  0.0263  0.1059 -0.0412
 4388W        W 8452   6.834   7.150   1.835  0.3452 -0.1637 -0.2272
 4389W        W 8453   8.204   4.446   2.864  0.1950  0.1979  0.1988
 4390W        W 8454   8.399   8.643   0.936 -0.3152  0.2632  0.0703
 4391W        W 8455   1.727   3.729  10.150  0.1170 -0.1349 -0.2076
 4392W        W 8456   4.963   3.630   8.867 -0.2654  0.1260 -0.0991
 4393W        W 8457  10.276   0.559   1.739 -0.0284  0.0646 -0.2066
 4394W        W 8458   2.573   6.846   8.481 -0.0627  0.4389 -0.1996
 4395W        W 8459   9.419   3.698   8.347  0.1894  0.0363  0.0510
 4396W        W 8460   4.454   5.488  11.418  0.0430 -0.0040  0.0482
 4397W        W 8461   6.173   5.413  11.181  0.1808 -0.2879 -0.0662
 4398W        W 8462   6.922   7.633  10.392 -0.0608 -0.1694 -0.1944
 4399W        W 8463  10.121   8.859  10.275 -0.3585  0.5215 -0.2688
 4400W        W 8464   2.099   2.114   9.596  0.0231 -0.4464 -0.2025
 4401W        W 8465   0.925   4.026   3.171 -0.1661  0.3050  0.1806
 4402W        W 8466   0.736   0.447   1.640  0.0064 -0.3710  0.1926
 4403W        W 8467   6.051   3.573  11.651 -0.2390 -0.1899 -0.3395
 4404W        W 8468   1.247   7.136   3.433 -0.0825  0.1010 -0.3407
 4405W        W 8469   5.183   0.238   3.119  0.1317 -0.1629  0.1128
 4406W        W 8470   2.907   3.860  10.965 -0.0150  0.1252  0.1536
 4407W        W 8471   6.897   9.932   0.353 -0.2158 -0.4649 -0.2035
 4408W        W 8472   7.863   5.190   8.678  0.0449 -0.3812 -0.1590
 4409W        W 8473   1.641   8.916   3.290 -0.0370  0.1724 -0.2704
 4410W        W 8474   3.336   9.351  11.106 -0.1103  0.1779  0.0470
 4411W        W 8475   4.495   8.178   7.909  0.0114 -0.1063 -0.0547
 4412W        W 8476   9.077   1.681   9.606  0.1382 -0.1290  0.1083
 4413W        W 8477   9.866  10.418   3.340  0.0785  0.1074  0.1289
 4414W        W 8478   8.328   1.444   1.165 -0.3357  0.0296 -0.2418
 4415W        W 8479   3.123   4.630  11.461  0.1980 -0.3304 -0.2308
 4416W        W 8480   4.529   1.400   9.194 -0.1278  0.1900  0.2409
 4417W        W 8481   2.506   9.632   3.013 -0.0371  0.2430  0.3767
 4418W        W 8482   8.977   6.753   0.354  0.3185  0.1535  0.0245
 4419W        W 8483   3.502   4.053   2.363  0.2625 -0.0281  0.0171
 4420W        W 8484   6.535   7.597   1.803 -0.5150 -0.1414  0.1368
 4421W        W 8485   2.665   8.062  10.441 -0.3596  0.1356  0.1411
 4422W        W 8486   3.231   7.822   9.274  0.0624  0.2493 -0.0963
 4423W        W 8487   8.832   9.962   4.164 -0.1222 -0.1523  0.1916
 4424W        W 8488   2.557   9.612  11.024  0.2934  0.0126  0.1345
 4425W        W 8489   1.594   0.215  11.299 -0.2291  0.0582  0.1649
 4426W        W 8490   9.811   6.524   0.217  0.2885  0.1084 -0.0636
 4427W        W 8491   6.527   7.693   0.696  0.0984 -0.1878 -0.0026
 4428W        W 8492   8.329   3.218   2.232 -0.0453  0.2059 -0.1495
 4429W        W 8493   8.222   6.688   1.539  0.4861  0.2043  0.0028
 4430W        W 8494   7.100   3.237   8.609 -0.2850  0.0007 -0.0196
 4431W        W 8495   8.639   7.699   9.665  0.1046 -0.1294  0.0049
 4432W        W 8496   9.886   9.951   0.568 -0.2566  0.1229  0.0564
 4433W        W 8497   5.680   7.070   0.212 -0.2395 -0.0975  0.3343
 4434W        W 8498   8.017   0.106  10.415 -0.0028 -0.1850  0.2184
 4435W        W 8499   4.149   6.196  11.510  0.0028  0.0025 -0.0605
 4436W        W 8500   9.556   1.344   3.095  0.0780  0.0614  0.3757
 4437W        W 8501   0.195   5.715   2.770  0.0148  0.1406 -0.2461
 4438W        W 8502   4.549   3.488   9.729  0.1319 -0.0563  0.0808
 4439W        W 8503   1.853   7.547  11.498 -0.0249 -0.1838  0.1441
 4440W        W 8504   2.388   0.172  10.523 -0.0038  0.2835 -0.2086
 4441W        W 8505   7.226   0.301   7.521 -0.1263 -0.1157 -0.2020
 4442W        W 8506   7.248   9.041   0.252 -0.1595  0.3302  0.0967
 4443W        W 8507   3.002   7.637  10.205  0.0751 -0.0834  0.0468
 4444W        W 8508   3.271   6.460   9.801 -0.0535 -0.1971 -0.1058
 4445W        W 8509   3.502   0.531   1.278 -0.1905 -0.2486 -0.0824
 4446W        W 8510   6.447   6.591  11.250  0.0080 -0.0120  0.0816
 4447W        W 8511   7.877  10.115   8.396  0.0418  0.1413  0.2319
 4448W        W 8512   1.228   7.732   0.725  0.0896 -0.1479 -0.0126
 4449W        W 8513   2.939   3.365   9.396  0.2166 -0.0986 -0.2298
 4450W        W 8514   2.443   5.593   1.922 -0.0947  0.0012 -0.0507
 4451W        W 8515   0.060   5.000   2.342 -0.0957 -0.1137 -0.0979
 4452W        W 8516   5.631   0.374  11.011  0.2732 -0.2506  0.3163
 4453W        W 8517   8.227   0.323   8.323  0.1183  0.3526 -0.2410
 4454W        W 8518   9.592   5.881   8.025 -0.0244  0.1194 -0.0434
 4455W        W 8519   4.708   5.525   1.745  0.1482  0.3114  0.1036
 4456W        W 8520   6.529   6.829   4.059 -0.0669  0.0642  0.1637
 4457W        W 8521   5.171   8.135  10.024  0.0661 -0.2122 -0.0969
 4458W        W 8522   8.658   6.920   1.613  0.2091 -0.0872 -0.0365
 4459W        W 8523   5.966   7.634  10.280 -0.0075 -0.2815 -0.0279
 4460W        W 8524   0.945   1.974  10.570 -0.0718  0.1406  0.0503
 4461W        W 8525   2.273   1.103   2.294  0.0979  0.0107  0.0653
 4462W        W 8526   6.386   2.516   1.840 -0.0231 -0.0350 -0.1177
 4463W        W 8527   8.692   8.986   2.433  0.0161 -0.0797 -0.0661
 4464W        W 8528   8.191   7.640   4.328 -0.3943 -0.2175  0.0449
 4465W        W 8529  10.463   7.502   3.620 -0.0271  0.0936 -0.2746
 4466W        W 8530   0.931   6.830  11.628 -0.1477  0.3120  0.1528
 4467W        W 8531   1.939   0.154   4.077 -0.0150  0.0146  0.3934
 4468W        W 8532   1.253   2.963   9.826  0.1418 -0.2272 -0.0961
 4469W        W 8533   3.720   1.960   0.148 -0.2242 -0.2612  0.0458
 4470W        W 8534   6.447   3.585   7.599  0.3010 -0.1532 -0.1248
 4471W        W 8535  10.550   0.326   2.131 -0.4030 -0.0542 -0.2862
 4472W        W 8536   1.259   4.706   9.044 -0.0944  0.1407 -0.0527
 4473W        W 8537   1.207   9.830   0.297 -0.0614  0.0744  0.1009
 4474W        W 8538   2.034   1.782   0.848 -0.0378  0.0017 -0.0964
 4475W        W 8539  10.518   7.584   9.355 -0.2226 -0.2054  0.1165
 4476W        W 8540   6.230   6.644   7.803 -0.0639  0.2283 -0.1257
 4477W        W 8541   0.574   2.730  11.582  0.0836 -0.0197 -0.0220
 4478W        W 8542   8.186   0.301   0.753  0.3552  0.0094 -0.2914
 4479W        W 8543  10.116   7.702   0.621  0.3709  0.0008  0.2415
 4480W        W 8544  10.023   3.288   8.771 -0.1363  0.1302 -0.1748
 4481W        W 8545   9.217   7.027   9.750  0.0181 -0.3832  0.1981
 4482W        W 8546   9.128   4.318  11.277 -0.2500 -0.0463  0.1026
 4483W        W 8547   0.979   6.629   3.721 -0.1170  0.1984 -0.2002
 4484W        W 8548   7.545   1.159   1.638  0.0879  0.1028  0.1471
 4485W        W 8549   0.820   6.843   9.226  0.1684  0.0564 -0.1435
 4486W        W 8550   2.245   3.715   2.399  0.1380  0.1804 -0.0216
 4487W        W 8551   9.731   2.730  10.615 -0.1100 -0.3024  0.0309
 4488W        W 8552   5.243   4.720   9.224  0.0265 -0.0539 -0.1297
 4489W        W 8553   2.486   4.952   8.950 -0.4626  0.4502 -0.0247
 4490W        W 8554   3.169   2.932  11.249 -0.2926  0.2082  0.2475
 4491W        W 8555   8.539  10.389   9.094 -0.0827  0.0221 -0.2533
 4492W        W 8556  10.119   6.062   7.869  0.2053 -0.0890 -0.1581
 4493W        W 8557   7.339   4.047   0.242  0.1684 -0.0594  0.0246
 4494W        W 8558   1.047  10.057   7.527  0.0424  0.0109 -0.0081
 4495W        W 8559   2.282   8.765   3.549  0.1376  0.1035  0.1965
 4496W        W 8560   0.000   8.040   2.439 -0.0436  0.3687  0.0458
 4497W        W 8561   8.570   5.330   9.346 -0.3527  0.3191 -0.2424
 4498W        W 8562   7.595   6.305   9.099 -0.1881 -0.2070 -0.4994
 4499W        W 8563   8.015   2.479   9.397 -0.3602  0.1813 -0.1522
 4500W        W 8564   5.095   2.267   1.182 -0.0600 -0.0196 -0.3239
 4501W        W 8565   8.894   7.869   3.029  0.1133 -0.0150 -0.1167
 4502W        W 8566   4.572   1.332   0.343 -0.0442  0.0403 -0.0666
 4503W        W 8567   5.681   5.306   8.638  0.1070  0.1144  0.0724
 4504W        W 8568   6.472   8.596   7.839 -0.0594 -0.0111  0.0593
 4505W        W 8569   3.332   1.830   0.418  0.1867 -0.0592  0.1940
 4506W        W 8570  10.143   3.227   9.436  0.1099  0.1088 -0.2754
 4507W        W 8571   9.609   4.728  11.434 -0.4396 -0.1226 -0.0692
 4508W        W 8572   1.467   3.655  11.104  0.2291  0.0761 -0.0293
 4509W        W 8573   4.275   5.829   9.725 -0.0691 -0.0939  0.4121
 4510W        W 8574  10.375   0.878   2.761  0.1409  0.0231 -0.1370
 4511W        W 8575   1.627   3.220   2.444 -0.1448 -0.1143  0.0173
 4512W        W 8576   5.383   9.176   8.838  0.2181  0.1362 -0.0651
 4513W        W 8577  10.275   9.397   9.161 -0.0607  0.2584  0.2105
 4514W        W 8578   0.720   3.139   1.252 -0.0527  0.3019 -0.0659
 4515W        W 8579   0.786   3.247   8.232  0.0958 -0.0285  0.0236
 4516W        W 8580   6.334   6.737  10.480  0.1030 -0.0706 -0.0999
 4517W        W 8581   9.295   1.231  10.717  0.2295 -0.1764  0.0865
 4518W        W 8582   9.282   2.759   8.464  0.1076 -0.1362 -0.0557
 4519W        W 8583   6.025   8.154  11.144  0.1677  0.1795  0.0439
 4520W        W 8584   3.878   2.883   1.613  0.0077  0.2248 -0.3781
 4521W        W 8585   4.138   2.121   9.117 -0.2058  0.0185  0.0123
 4522W        W 8586   6.543   4.603   0.209 -0.0001  0.1427  0.2008
 4523W        W 8587   3.951   5.483   2.422  0.0269  0.0525 -0.0379
 4524W        W 8588   3.913   8.956   1.666  0.1598 -0.1293 -0.1025
 4525W        W 8589   3.826   1.947   1.823 -0.0787 -0.1754 -0.1394
 4526W        W 8590   9.498  10.575   1.591  0.0901 -0.1167  0.1886
 4527W        W 8591   3.387   7.948   8.803  0.2252 -0.2904  0.0823
 4528W        W 8592   5.785   4.436   1.909  0.1564 -0.1571 -0.2473
 4529W        W 8593   3.496   8.079   0.466 -0.1727  0.2314  0.0513
 4530W        W 8594   7.012   7.048   0.899  0.0340 -0.2897 -0.2570
 4531W        W 8595   4.124   2.188   0.409  0.0853 -0.0751 -0.1137
 4532W        W 8596   1.749   2.811   8.501  0.0720 -0.0207 -0.0253
 4533W        W 8597   5.075   6.580   0.767  0.0610 -0.2386  0.2276
 4534W        W 8598   3.143   0.606   9.779 -0.0854  0.1289  0.1300
 4535W        W 8599   8.865   3.425  11.175  0.3488 -0.0405  0.3738
 4536W        W 8600   8.027   5.334   3.293  0.0968  0.1789  0.3124
 4537W        W 8601   4.016  10.372   0.919  0.1219 -0.2111 -0.1616
 4538W        W 8602   7.076   3.709   0.474  0.0657  0.3562 -0.1305
 4539W        W 8603   7.229   3.959   2.008  0.0598 -0.3264  0.0897
 4540W        W 8604   6.370   4.058   2.992 -0.3392 -0.1592  0.2583
 4541W        W 8605   3.289   0.727   8.308 -0.2740 -0.1683  0.1693
 4542W        W 8606   5.829   4.146   1.054 -0.2975 -0.0800  0.0931
 4543W        W 8607   2.947   4.214   9.714 -0.0234  0.4510 -0.0323
 4544W        W 8608   5.916  10.573  10.144 -0.2223  0.0533  0.2474
 4545W        W 8609   9.661   9.924  11.022  0.1924 -0.0120 -0.2820
 4546W        W 8610   6.037   7.617   3.535  0.4718 -0.1375  0.2078
 4547W        W 8611   8.749   2.513   3.440 -0.1496 -0.0544 -0.1198
 4548W        W 8612   7.433   9.745  11.229 -0.1319 -0.0342 -0.0593
 4549W        W 8613   8.961   1.574   8.865  0.2154  0.0596  0.1587
 4550W        W 8614   5.862   3.879  10.071 -0.0961  0.2152 -0.2615
 4551W        W 8615   8.250   3.663   9.031 -0.0983  0.2101  0.1448
 4552W        W 8616   1.909   1.749  11.650 -0.0915 -0.2705 -0.0954
 4553W        W 8617   4.230   0.013  10.545 -0.2698 -0.1526 -0.1831
 4554W        W 8618   9.371   2.215   0.949  0.1533 -0.0585 -0.0929
 4555W        W 8619   0.009   0.560   9.976  0.1629 -0.0486 -0.1839
 4556W        W 8620   0.846   2.955  10.476  0.1042  0.0278 -0.0765
 4557W        W 8621   0.606  10.446   0.437 -0.0949  0.2650 -0.2623
 4558W        W 8622   8.520   2.814  10.080 -0.0538 -0.0008  0.0352
 4559W        W 8623   6.591   0.959   9.605  0.1881  0.0940 -0.2359
 4560W        W 8624   7.854   9.761  10.456 -0.1322 -0.1320  0.3820
 4561W        W 8625   5.364   9.414   9.699  0.0209  0.1538 -0.1111
 4562W        W 8626   9.053   0.454   0.448 -0.1074 -0.1143 -0.2880
 4563W        W 8627   2.803   2.507  11.668 -0.0186  0.0570  0.3067
 4564W        W 8628   1.547   3.275   3.575 -0.3916 -0.2454  0.0901
 4565W        W 8629   2.176   8.636   9.843  0.1150  0.0724  0.1320
 4566W        W 8630   1.863   8.934   2.420  0.0483 -0.1872 -0.0384
 4567W        W 8631   2.058   7.352  10.738  0.0857 -0.0262 -0.0798
 4568W        W 8632   6.299   2.992   9.704 -0.2580 -0.0218  0.1043
 4569W        W 8633   1.091   0.415   1.938 -0.2340  0.1957 -0.1007
 4570W        W 8634   4.801   4.972   1.577 -0.1560 -0.0521  0.2208
 4571W        W 8635   2.388   6.855   0.916 -0.1626  0.3071  0.1508
 4572W        W 8636   1.251   2.580   9.497  0.1620  0.0677  0.4749
 4573W        W 8637   2.897   3.659   3.315  0.2781  0.2983  0.2052
 4574W        W 8638   6.279   4.874   4.303 -0.2944  0.1056 -0.0658
 4575W        W 8639   7.969   8.776   8.671  0.0238  0.1934  0.1157
 4576W        W 8640   8.999   4.806   9.753  0.4862  0.2523  0.2335
 4577W        W 8641   6.499  10.588  11.237 -0.1829  0.0426  0.1053
 4578W        W 8642   5.327   3.463   1.142 -0.0913  0.3680  0.3861
 4579W        W 8643   1.818   3.591   2.153 -0.1175 -0.1072 -0.0919
 4580W        W 8644   5.404   3.601   0.134  0.1077  0.1640  0.1413
 4581W        W 8645   7.269   5.779   3.042 -0.3350  0.2001 -0.0575
 4582W        W 8646   6.752   9.776   3.221  0.0376 -0.0296  0.3298
 4583W        W 8647   5.312   3.666   2.784 -0.1377 -0.0312 -0.0172
 4584W        W 8648   8.953  10.102   9.022  0.0105  0.3357  0.1954
 4585W        W 8649   2.929   9.264   1.220  0.4265 -0.3172 -0.1709
 4586W        W 8650  10.229   3.576  10.401 -0.0984 -0.1213  0.2141
 4587W        W 8651   9.639   3.098  11.657 -0.0449  0.0376 -0.1592
 4588W        W 8652   8.162   9.139  10.611  0.2162  0.1591  0.1013
 4589W        W 8653   3.754   1.534  11.164  0.1319  0.2073 -0.1383
 4590W        W 8654   3.574   2.719  11.510 -0.2544 -0.2727  0.2438
 4591W        W 8655   4.434   9.749   1.374  0.5733 -0.2276 -0.2474
 4592W        W 8656   2.442   7.365   3.276  0.0618 -0.1764  0.2290
 4593W        W 8657   2.955   3.105   2.176 -0.2430 -0.2117  0.0556
 4594W        W 8658   0.437   8.463   1.139 -0.4291  0.2023 -0.1973
 4595W        W 8659   6.511   5.465   1.269 -0.2244 -0.1457  0.0761
 4596W        W 8660   3.645   9.989   2.024 -0.1353 -0.0289 -0.0369
 4597W        W 8661   5.433   8.214   1.094 -0.2156 -0.0530 -0.1024
 4598W        W 8662   7.090   3.576  10.789 -0.0278  0.3543  0.0359
 4599W        W 8663   6.751   2.573   2.876 -0.1017 -0.1341  0.1675
 4600W        W 8664   3.669   2.499  10.256  0.1312 -0.1504  0.2395
 4601W        W 8665   5.804  10.280   2.712  0.1152 -0.3385  0.0478
 4602W        W 8666   4.661   4.524  11.481  0.0486  0.2615  0.1317
 4603W        W 8667   7.353   5.204  11.038 -0.3021  0.1164 -0.2450
 4604W        W 8668   8.281   6.306  11.179  0.2985 -0.1260  0.1875
 4605W        W 8669   1.947   1.574   1.326 -0.2235 -0.0845  0.2371
 4606W        W 8670   4.979   8.981   1.413 -0.1240  0.3960 -0.0783
 4607W        W 8671   3.563   7.480   8.706 -0.0376  0.1712  0.1242
 4608W        W 8672   1.463   7.537   9.628  0.0619 -0.0253  0.1556
 4609W        W 8673   7.528   8.677   2.903 -0.0520  0.2076 -0.1010
 4610W        W 8674   2.515   6.307   4.465  0.1841 -0.0601 -0.4646
 4611W        W 8675   3.438   1.761   9.829  0.1192 -0.1550 -0.0372
 4612W        W 8676   6.660   9.467   1.795 -0.0013 -0.0014  0.0731
 4613W        W 8677   9.831   9.008   3.167 -0.2072 -0.0292  0.4921
 4614W        W 8678   7.864   2.399  10.790 -0.0804 -0.1688  0.2963
 4615W        W 8679   0.396   6.436   3.004 -0.1224 -0.1995  0.3294
 4616W        W 8680   2.244  10.381   8.572 -0.2676  0.0079  0.2060
 4617W        W 8681   6.008   1.921  11.411  0.0660  0.0867  0.2121
 4618W        W 8682   9.547   0.277  10.446 -0.0610  0.1740 -0.0095
 4619W        W 8683   0.920   5.148   3.706 -0.0652  0.0693 -0.2081
 4620W        W 8684   5.250   3.742   3.308 -0.0302 -0.0423 -0.1283
 4621W        W 8685   9.264   3.221  10.455 -0.0502 -0.0101  0.2138
 4622W        W 8686   5.478   5.132   1.005  0.3739  0.0290 -0.3471
 4623W        W 8687   6.467   5.157   3.897 -0.1004  0.0884  0.1078
 4624W        W 8688   3.757   5.315   9.155  0.2868 -0.0421  0.3021
 4625W        W 8689   3.075   3.897   9.325  0.2392  0.1428 -0.0868
 4626W        W 8690   3.325   4.406   2.760  0.3873  0.2030  0.0527
 4627W        W 8691   1.350   7.376   1.107 -0.0547 -0.2873  0.0054
 4628W        W 8692   7.662   3.185   8.528  0.2412 -0.0646  0.0282
 4629W        W 8693   3.229   6.534   3.117 -0.0542  0.0307 -0.1036
 4630W        W 8694   2.220   1.972  10.395 -0.0190  0.3097 -0.0047
 4631W        W 8695   9.164   2.142   3.692  0.1168  0.0230 -0.1239
 4632W        W 8696   3.784   8.889  11.665  0.1398 -0.1922 -0.0064
 4633W        W 8697   1.698   2.513   2.156  0.1184  0.1791 -0.0798
 4634W        W 8698   8.571   3.608  10.043  0.2688  0.0783  0.2094
 4635W        W 8699   2.892   0.878   0.444 -0.1726  0.0585 -0.0465
 4636W        W 8700  10.464   9.817  10.604 -0.1773 -0.3908 -0.0283
 4637W        W 8701  10.352   9.602   1.407 -0.2734  0.2822  0.1923
 4638W        W 8702   8.015   3.304   8.240 -0.1078  0.0006 -0.1163
 4639W        W 8703   8.993   1.549  10.122 -0.2440 -0.0276 -0.1513
 4640W        W 8704   5.492   6.621   1.972 -0.4182  0.0881 -0.2470
 4641W        W 8705  10.449  10.234   9.743 -0.0108  0.2920 -0.0751
 4642W        W 8706   1.285   7.806   9.148 -0.0555 -0.1037 -0.2421
 4643W        W 8707   1.201   4.823  10.691 -0.1300 -0.3384 -0.1669
 4644W        W 8708   9.325   1.841   7.777  0.1034 -0.1070 -0.0474
 4645W        W 8709   3.770   5.566  10.916 -0.0310  0.3791 -0.1758
 4646W        W 8710   0.693   2.388   9.596  0.2056  0.1778  0.2468
 4647W        W 8711   0.522   0.132   8.689 -0.0446  0.1142  0.0164
 4648W        W 8712   1.021   4.261   1.235 -0.2592 -0.0695 -0.1955
 4649W        W 8713   3.845   9.241   7.658  0.0619  0.0234  0.1779
 4650W        W 8714  10.061   4.125   3.664 -0.0302 -0.2691 -0.2582
 4651W        W 8715   3.701   3.872   9.973  0.5913  0.0225 -0.0746
 4652W        W 8716   0.796   9.958   8.431 -0.0758  0.0512  0.1240
 4653W        W 8717   1.064   6.972  11.128  0.1014  0.0965  0.0286
 4654W        W 8718   0.410   0.730   9.412 -0.1778 -0.2696 -0.1059
 4655W        W 8719   3.342   2.923   0.679 -0.0124  0.1652  0.0862
 4656W        W 8720   1.286   9.806   3.551 -0.1704 -0.0998  0.1705
 4657W        W 8721   7.750   2.732  11.617  0.0488 -0.3139 -0.0959
 4658W        W 8722  10.187   0.098   9.740 -0.1518 -0.0737 -0.1615
 4659W        W 8723   2.716   0.955   2.471  0.0560 -0.1101  0.0076
 4660W        W 8724   1.966   8.510   2.247  0.2336 -0.2581  0.0357
 4661W        W 8725   3.146   4.444   9.288  0.0192 -0.1984  0.1080
 4662W        W 8726   3.135   1.296   9.005 -0.1294  0.2148 -0.2248
 4663W        W 8727   6.856   5.367   9.164  0.0708  0.0408  0.2948
 4664W        W 8728   7.082   6.384   1.479  0.3445  0.1829 -0.1185
 4665W        W 8729   7.606   2.923   9.947  0.2374 -0.2002  0.0702
 4666W        W 8730   3.629   0.419   9.680  0.2418 -0.0806 -0.0770
 4667W        W 8731   9.779   1.348   1.195 -0.2122  0.4214 -0.2330
 4668W        W 8732   2.446   0.346   0.147  0.0399  0.0327  0.0021
 4669W        W 8733   6.451   2.283  10.037 -0.0461  0.1940 -0.4996
 4670W        W 8734   2.483   2.601   2.703 -0.2176 -0.1779 -0.0387
 4671W        W 8735   8.286   1.857  11.432  0.1481 -0.0076  0.2788
 4672W        W 8736   4.299   2.767   2.253  0.3473 -0.0326  0.1365
 4673W        W 8737   0.225   9.963   1.536  0.1748 -0.0038  0.2130
 4674W        W 8738   9.108   2.294   7.855  0.0849  0.1043  0.0073
 4675W        W 8739   2.513   7.448  10.499  0.0535 -0.0546 -0.2598
 4676W        W 8740   4.838   4.053  11.378 -0.3218 -0.0956  0.2891
 4677W        W 8741   6.274   3.144   3.318  0.0708 -0.1602  0.0977
 4678W        W 8742   7.425   7.705   1.493 -0.2333  0.0412  0.0428
 4679W        W 8743   5.408   1.590   3.535 -0.0811  0.3330 -0.0558
 4680W        W 8744   7.783   2.057   1.000 -0.3432  0.0464 -0.1083
 4681W        W 8745   3.176   6.598   3.607 -0.0797 -0.0126  0.1396
 4682W        W 8746   7.274   9.698  10.513 -0.2994 -0.3403 -0.0676
 4683W        W 8747   2.471   1.367  10.813  0.0148  0.0015  0.1492
 4684W        W 8748   5.019   8.628   0.273  0.0176 -0.1509  0.2433
 4685W        W 8749   5.459   9.549   8.514 -0.0806 -0.0263  0.3421
 4686W        W 8750   6.638   6.574   1.761 -0.1327 -0.1993 -0.0507
 4687W        W 8751   3.308   7.331   0.057 -0.0269  0.2493  0.2615
 4688W        W 8752   3.779   6.258   9.247 -0.0981 -0.0063  0.0884
 4689W        W 8753   9.028   0.124   1.381 -0.1338  0.1766  0.1196
 4690W        W 8754   2.212   9.108   9.705  0.1148 -0.0642  0.2928
 4691W        W 8755   0.646   6.200   1.226 -0.1588  0.0523  0.0791
 4692W        W 8756   1.767   1.087   2.309 -0.1341  0.2287  0.2651
 4693W        W 8757   8.648   9.260   8.914  0.3358 -0.1383  0.0194
 4694W        W 8758   1.035   5.800   9.589 -0.0442  0.0585  0.4462
 4695W        W 8759   1.357   2.677   0.033  0.0816  0.2664  0.1549
 4696W        W 8760   6.699   3.887   0.770 -0.0704  0.2079  0.0108
 4697W        W 8761   7.511   5.522   0.366 -0.4167 -0.1629  0.1056
 4698W        W 8762   0.530   9.280   9.974 -0.0556 -0.2175 -0.0313
 4699W        W 8763   5.375   7.759   1.308 -0.3641 -0.3054 -0.2636
 4700W        W 8764   2.324   7.103   2.002 -0.1365 -0.1703  0.0382
 4701W        W 8765   0.247   3.710   1.586 -0.0715  0.2232 -0.0572
 4702W        W 8766   0.920   4.160   3.850  0.2510  0.0931  0.2246
 4703W        W 8767   5.265   1.094   3.697 -0.1410 -0.1827 -0.0603
 4704W        W 8768   8.250   4.661   2.343 -0.1083 -0.1150  0.2053
 4705W        W 8769   1.036   4.643   7.661 -0.2293  0.2519  0.1971
 4706W        W 8770   7.231   6.474   0.917 -0.0684  0.3603  0.0933
 4707W        W 8771   1.014   9.699   3.001  0.0348  0.0019  0.0107
 4708W        W 8772   6.407   2.969   0.573 -0.1474  0.0161 -0.0299
 4709W        W 8773   6.007   3.961   9.431 -0.1483  0.3005  0.3397
 4710W        W 8774   8.998   9.226  10.724  0.1598  0.0189  0.0591
 4711W        W 8775   9.497   7.983   9.991  0.0469  0.1046  0.1956
 4712W        W 8776   6.381   1.812  11.673 -0.3742 -0.0736 -0.1315
 4713W        W 8777   3.412   1.818  11.392 -0.2901  0.2567  0.2655
 4714W        W 8778   6.292   1.313  10.512  0.0168  0.2155 -0.0746
 4715W        W 8779   5.024   8.864  10.864 -0.2274  0.1089  0.0808
 4716W        W 8780   7.921   0.449   3.074 -0.1387  0.1422 -0.1400
 4717W        W 8781   6.155   9.146   8.859 -0.1925 -0.3045 -0.0070
 4718W        W 8782   1.986   6.754   0.549  0.0391 -0.0000  0.0497
 4719W        W 8783  10.103   3.106   0.337  0.0107 -0.1631 -0.1822
 4720W        W 8784   4.661   4.950   3.754 -0.3347  0.1149 -0.3127
 4721W        W 8785   0.773   6.606   8.789  0.4710  0.1572  0.1049
 4722W        W 8786   1.293  10.142   8.348  0.1001  0.0405  0.1084
 4723W        W 8787   8.265   7.972   0.648 -0.3002 -0.0763 -0.0398
 4724W        W 8788  10.461   4.405   0.890 -0.0093 -0.3443 -0.0092
 4725W        W 8789   0.328   3.751   0.707  0.0410 -0.1430 -0.2680
 4726W        W 8790   9.200   4.426   0.107  0.1495  0.0479  0.0808
 4727W        W 8791   4.124   9.760   0.258  0.2963  0.0901  0.1494
 4728W        W 8792   2.462   4.369   9.786  0.2392  0.3035  0.2087
 4729W        W 8793   0.320   8.052   0.712 -0.1614  0.0462 -0.2078
 4730W        W 8794   1.067   6.519  10.543 -0.1659  0.1287  0.3495
 4731W        W 8795   0.954   7.826   1.970 -0.1774 -0.5521 -0.2998
 4732W        W 8796   2.665   1.272   8.150  0.0186  0.1122  0.2727
 4733W        W 8797   8.377   8.739   8.902 -0.2233  0.3377 -0.1960
 4734W        W 8798   9.689   7.370   1.537  0.1322 -0.1755  0.1990
 4735W        W 8799   9.493   2.880   2.821  0.0797 -0.0639 -0.3291
 4736W        W 8800   8.034   5.754  10.044  0.1634 -0.2641  0.1239
 4737W        W 8801   0.968  10.161  10.691  0.1814  0.0183 -0.2506
 4738W        W 8802   4.023   2.160   2.346 -0.0476 -0.2601 -0.0879
 4739W        W 8803  10.528   9.149   7.725 -0.1204  0.1862  0.0798
 4740W        W 8804   4.845   1.102   3.403  0.0255 -0.1795  0.1744
 4741W        W 8805  10.549   2.019   8.984 -0.1173 -0.2962 -0.2359
 4742W        W 8806   2.297  10.088   3.584  0.1802 -0.1798 -0.0215
 4743W        W 8807   8.982   4.592  10.276  0.1613  0.4259 -0.3110
 4744W        W 8808   3.377   4.037  10.888  0.0303 -0.0580  0.1154
 4745W        W 8809   9.700   4.434   0.136 -0.2643  0.1454  0.0750
 4746W        W 8810   8.783   3.295   0.944  0.0337 -0.1400 -0.2750
 4747W        W 8811   1.614   6.341   1.157 -0.0392  0.3233  0.1481
 4748W        W 8812   0.012  10.570   8.191 -0.1919  0.1798  0.0566
 4749W        W 8813   4.902   2.205   8.218  0.3515  0.0960 -0.1637
 4750W        W 8814   2.495  10.532   3.583 -0.1078 -0.0342  0.0602
 4751W        W 8815   5.037   1.284   8.375  0.1508 -0.2050  0.0511
 4752W        W 8816   4.627   6.438   9.522  0.3775 -0.1723  0.0971
 4753W        W 8817   6.681   3.345  10.495  0.1545 -0.1998 -0.1202
 4754W        W 8818   7.284   3.960  10.528 -0.0790 -0.1500  0.0121
 4755W        W 8819   1.621   5.866   9.998  0.0477 -0.0808 -0.2281
 4756W        W 8820   2.405   2.129  10.803 -0.0356  0.2427 -0.5151
 4757W        W 8821   9.382   7.533  11.003 -0.0066 -0.0127 -0.1350
 4758W        W 8822   2.537   1.752   9.368  0.2977 -0.1865  0.0547
 4759W        W 8823   4.274   4.191   2.207 -0.0527  0.1349 -0.1721
 4760W        W 8824   4.474   9.443   8.317 -0.1528  0.0764  0.3472
 4761W        W 8825   3.852  10.262  10.512  0.1123 -0.0178 -0.1814
 4762W        W 8826   1.539   2.140   9.317 -0.1854  0.1436  0.2017
 4763W        W 8827  10.011   0.552   9.584  0.0885  0.0933  0.0103
 4764W        W 8828   2.844   6.615   2.773 -0.2476 -0.1359  0.0930
 4765W        W 8829   9.893   0.287   7.799  0.0195  0.0878  0.1664
 4766W        W 8830   5.413   0.965   1.215 -0.3656 -0.2419 -0.0791
 4767W        W 8831   7.025   5.138  11.428 -0.0694 -0.0346 -0.1365
 4768W        W 8832   8.064   2.085   2.763 -0.0183 -0.0179 -0.2346
 4769W        W 8833   5.399   8.687   0.656 -0.1415 -0.3990  0.0579
 4770W        W 8834   2.817   3.025  11.584 -0.0125 -0.0869 -0.0407
 4771W        W 8835   6.009   4.900   3.854  0.1784 -0.1157  0.2284
 4772W        W 8836   5.336   0.885   9.318 -0.0461 -0.0136  0.0079
 4773W        W 8837   4.007   3.000   8.055  0.1430  0.1040 -0.2228
 4774W        W 8838   2.472   9.757  11.551 -0.0565  0.0148  0.0206
 4775W        W 8839   7.661   6.727   8.707 -0.2688  0.0452 -0.0285
 4776W        W 8840   3.366   8.346  10.028  0.1616 -0.0211  0.1610
 4777W        W 8841   2.180   8.328   1.868  0.0047 -0.1118  0.0660
 4778W        W 8842   5.892   8.724   2.868 -0.2703 -0.1219 -0.4516
 4779W        W 8843   9.748   2.878   0.982 -0.1227  0.0849  0.2883
 4780W        W 8844   5.688   8.033  10.175 -0.1025 -0.1153  0.3850
 4781W        W 8845   8.853   5.937  10.575  0.2362 -0.0902  0.1617
 4782W        W 8846   2.861   8.387   2.348  0.1307 -0.1708 -0.0296
 4783W        W 8847   0.041   8.141  11.354  0.0308 -0.1052  0.1692
 4784W        W 8848   8.535   6.589   8.450 -0.6454  0.1113 -0.5036
 4785W        W 8849   8.551   3.940  11.344 -0.0300  0.4013 -0.1462
 4786W        W 8850   2.685   6.219  10.533  0.1965  0.1226 -0.1769
 4787W        W 8851   1.718   6.108   3.271  0.2814  0.2633  0.1696
 4788W        W 8852   3.092   7.199   1.431  0.1210 -0.2429 -0.1717
 4789W        W 8853   6.737   4.316   8.291  0.1910 -0.3297  0.1477
 4790W        W 8854   4.078   6.465   0.964 -0.0077 -0.2234 -0.0576
 4791W        W 8855   0.156   9.685  11.037 -0.1246 -0.0580 -0.0653
 4792W        W 8856   2.125   2.410   8.749 -0.1203 -0.1798  0.3219
 4793W        W 8857   7.157   0.047  11.390  0.1635 -0.0788  0.2067
 4794W        W 8858   9.300   0.547   1.397 -0.1394  0.2362 -0.2119
 4795W        W 8859   3.978   3.691   0.515 -0.1022  0.1605  0.0634
 4796W        W 8860   0.010   9.934   2.277 -0.1202  0.5465  0.2739
 4797W        W 8861   0.911   7.411   8.338 -0.1721 -0.0274  0.2536
 4798W        W 8862   4.183   0.839  10.715 -0.1474  0.2192  0.0579
 4799W        W 8863   6.286   4.345   8.002  0.0011  0.1628  0.2628
 4800W        W 8864   3.288   5.628   3.013 -0.1597  0.1946  0.0117
 4801W        W 8865   9.640   8.941   9.483 -0.0267 -0.0292  0.0504
 4802W        W 8866   9.290   1.375   1.478  0.2672  0.1082 -0.1354
 4803W        W 8867   7.284   7.859   2.216 -0.0908  0.1962 -0.1323
 4804W        W 8868   9.283  10.029   0.508 -0.0234  0.1503  0.0211
 4805W        W 8869   9.278   7.315   2.678 -0.2073  0.2925 -0.1652
 4806W        W 8870   4.594   0.190   9.372 -0.1036 -0.0420  0.0542
 4807W        W 8871  10.406   6.274   1.912  0.2266  0.0658 -0.2936
 4808W        W 8872   9.800   1.485   1.725  0.0843 -0.3097  0.3572
 4809W        W 8873   6.236   6.995  11.038 -0.0805  0.0915 -0.4387
 4810W        W 8874  10.030   7.969   8.543  0.0190  0.1350 -0.0443
 4811W        W 8875  10.510   3.106   9.037 -0.0473 -0.0155 -0.0268
 4812W        W 8876   6.137   3.255  11.217 -0.0338 -0.1080  0.0685
 4813W        W 8877   0.960   6.116   3.770  0.2884  0.0318 -0.1289
 4814W        W 8878   5.614   1.884   9.340  0.1300  0.1034  0.4235
 4815W        W 8879   0.255   6.672  10.865 -0.0987  0.0128 -0.0767
 4816W        W 8880   7.147   0.034   3.157  0.1796  0.0455 -0.0868
 4817W        W 8881   6.492   5.580   1.892  0.1437 -0.0926  0.1778
 4818W        W 8882   2.268   0.929  11.253 -0.2682 -0.0543 -0.2756
 4819W        W 8883   7.430   0.533   8.707  0.0525  0.0650 -0.1458
 4820W        W 8884   8.632   3.451   1.513 -0.0312  0.2683  0.0530
 4821W        W 8885   1.102   1.440   0.233  0.0575  0.1497  0.0044
 4822W        W 8886   4.152   0.498   1.609 -0.5231  0.0794  0.2039
 4823W        W 8887   6.316   9.857   1.434  0.2309  0.0681  0.1412
 4824W        W 8888   4.524   6.665   1.982  0.1851 -0.1956 -0.1988
 4825W        W 8889   8.763   5.748   2.783  0.3747 -0.0586  0.0965
 4826W        W 8890   3.612   6.629   0.966 -0.1835 -0.1237 -0.3380
 4827W        W 8891   5.861   1.151  10.227  0.0871  0.0322 -0.1528
 4828W        W 8892   7.913  10.543   0.518  0.3852 -0.0169  0.1384
 4829W        W 8893   9.669   4.448   1.946  0.0991  0.1055  0.0115
 4830W        W 8894   8.593  10.404   2.618 -0.1175  0.2868 -0.0541
 4831W        W 8895   8.566   4.588   9.988  0.3071  0.1322 -0.3332
 4832W        W 8896   0.698   6.338   3.366  0.0153  0.5669  0.0704
 4833W        W 8897   0.067   6.982   8.581 -0.0039 -0.0384 -0.1159
 4834W        W 8898   7.395   8.155   2.751 -0.0368  0.1683  0.1119
 4835W        W 8899  10.218   6.359   3.898  0.1184 -0.0601 -0.0738
 4836W        W 8900   5.640   3.969   2.471  0.1298  0.0455  0.0834
 4837W        W 8901   7.895   8.328   9.546  0.0579  0.0528 -0.0267
 4838W        W 8902  10.312   4.309   8.374  0.4611  0.0823 -0.4068
 4839W        W 8903   0.145   6.346   0.151 -0.4147 -0.0635  0.1921
 4840W        W 8904   1.922   2.060  10.829 -0.0921 -0.1282  0.0351
 4841W        W 8905   6.986   2.506  10.852  0.0131  0.2261  0.1303
 4842W        W 8906  10.443   8.085   0.558  0.3073 -0.1877 -0.3461
 4843W        W 8907   2.443  10.051   1.651  0.0305 -0.0222 -0.1961
 4844W        W 8908   7.560   4.704  11.087 -0.0392 -0.0464  0.0102
 4845W        W 8909   6.339   9.981   3.422 -0.1557  0.3911  0.0535
 4846W        W 8910   4.550   5.980  10.796 -0.3232 -0.2394  0.0664
 4847W        W 8911   4.704   2.433   0.933  0.1074  0.1455  0.0748
 4848W        W 8912   4.414   9.163   1.515 -0.0591 -0.3654 -0.0362
 4849W        W 8913   8.965   7.407   8.344 -0.2023  0.0517  0.0612
 4850W        W 8914   1.502   4.442   0.569  0.2787  0.2205  0.1484
 4851W        W 8915   7.035   1.567   2.889 -0.2374  0.1490 -0.1773
 4852W        W 8916   7.687   8.135   0.539  0.0677  0.1381 -0.0499
 4853W        W 8917  10.267  10.496  11.643 -0.1312 -0.1662 -0.2933
 4854W        W 8918   3.154   9.221   8.585 -0.0129 -0.1944 -0.1517
 4855W        W 8919  10.095   5.766   1.554 -0.0509  0.3793 -0.0602
 4856W        W 8920   9.875   9.076   2.652 -0.1548 -0.1714 -0.0719
 4857W        W 8921   6.673   3.709   9.677 -0.1997 -0.7056  0.2442
 4858W        W 8922   8.148   4.093   0.336 -0.0580  0.3915  0.0064
 4859W        W 8923   8.592   9.553   7.999  0.3136 -0.1689  0.1834
 4860W        W 8924   4.380   7.935   8.625  0.0594 -0.0337  0.2072
 4861W        W 8925   5.898   1.678  10.347 -0.0389  0.2471  0.0824
 4862W        W 8926   2.189   1.440  10.395 -0.1559 -0.2472  0.1062
 4863W        W 8927   4.487   4.876   7.672  0.1962  0.0770  0.2219
 4864W        W 8928   0.508   3.056   9.643  0.1278 -0.2119 -0.1297
 4865W        W 8929   4.863   7.569   0.522 -0.1009  0.0537 -0.1531
 4866W        W 8930   7.316   4.704  10.548  0.1801 -0.0538 -0.1651
 4867W        W 8931   3.696   0.480   0.355 -0.0675  0.1183 -0.0500
 4868W        W 8932   1.122   4.032   1.712  0.0273 -0.2384  0.1980
 4869W        W 8933   3.743   3.870   1.968 -0.0684  0.1340  0.1665
 4870W        W 8934   4.868   7.170   9.834  0.0037 -0.0775 -0.1306
 4871W        W 8935   1.151   0.110  10.623 -0.0067  0.2883 -0.2173
 4872W        W 8936   3.799   3.593   0.076  0.1364  0.1349  0.2588
 4873W        W 8937   2.700   6.112   4.899 -0.2113  0.0955  0.0355
 4874W        W 8938   6.636   8.232   0.439 -0.2394  0.2281  0.0910
 4875W        W 8939   9.748   1.914  10.948 -0.1292  0.2788 -0.0106
 4876W        W 8940   6.261  10.367   2.968 -0.3196 -0.3682 -0.0541
 4877W        W 8941   6.403   5.778   2.783  0.0827  0.0295  0.0691
 4878W        W 8942   1.576   8.423   3.065 -0.0262 -0.0291  0.3854
 4879W        W 8943   8.672   4.752   8.848  0.1253 -0.1886 -0.0306
 4880W        W 8944   5.352  10.477   8.544 -0.2395 -0.0509  0.1326
 4881W        W 8945   0.397   0.788  10.452  0.0693 -0.3024  0.0898
 4882W        W 8946   3.369   1.063   1.929  0.0398  0.0197 -0.0540
 4883W        W 8947   6.121   0.201   1.812  0.0990  0.0622  0.0708
 4884W        W 8948   5.341   7.200   2.089  0.0530  0.3535  0.2012
 4885W        W 8949   7.817   5.034   4.648  0.1151  0.0163 -0.1581
 4886W        W 8950   5.443   8.337   8.533 -0.0214  0.0193 -0.1208
 4887W        W 8951   9.140   6.024   2.949 -0.2150 -0.0853  0.1554
 4888W        W 8952   2.905   2.543   9.145  0.2892  0.2312  0.2860
 4889W        W 8953   1.800   0.346   9.311 -0.1190 -0.0751  0.3852
 4890W        W 8954  10.579   6.933   1.995 -0.0615  0.1976 -0.0011
 4891W        W 8955   1.757   5.318   8.012 -0.2883 -0.2134  0.0717
 4892W        W 8956   3.298   4.454   1.730 -0.3528  0.2407  0.2130
 4893W        W 8957   1.921   0.719   9.734  0.0577 -0.0290  0.5189
 4894W        W 8958   0.076   7.826   3.333 -0.1910  0.2634  0.4127
 4895W        W 8959   4.130   6.413   0.320 -0.3920 -0.0015  0.0950
 4896W        W 8960   0.523   3.509  11.123  0.1545 -0.2985 -0.2558
 4897W        W 8961   7.788   5.731   2.981  0.0005 -0.0669  0.2745
 4898W        W 8962   4.912   7.545   1.095 -0.1819  0.0586  0.0751
 4899W        W 8963   2.445   6.624   0.392  0.0931 -0.0693  0.1098
 4900W        W 8964   4.399   4.026   1.087  0.0785 -0.1619  0.0068
 4901W        W 8965   9.479   5.738   8.930  0.0304 -0.1669 -0.1068
 4902W        W 8966   1.141   9.751   1.556  0.1571 -0.3248 -0.0432
 4903W        W 8967   7.486   7.316  10.500  0.2055  0.1705  0.3234
 4904W        W 8968   9.067   1.990   1.246 -0.1520  0.2599 -0.4266
 4905W        W 8969   0.919   1.344   2.220  0.1140 -0.0899  0.4344
 4906W        W 8970   2.060   2.706   1.770 -0.2513  0.0650  0.1483
 4907W        W 8971   0.219   8.738   2.468 -0.2250  0.0101  0.2961
 4908W        W 8972   6.678   1.022  10.441 -0.2424  0.1389  0.0983
 4909W        W 8973   2.101   4.883   7.704 -0.1190 -0.2003  0.2245
 4910W        W 8974   9.474   6.954   1.322  0.1135 -0.1102 -0.2744
 4911W        W 8975   1.604   7.061   0.711 -0.0449  0.0234 -0.0635
 4912W        W 8976   4.038   4.555   9.004 -0.1906  0.0479 -0.2722
 4913W        W 8977   0.484   7.682   0.413 -0.1058 -0.3429  0.2301
 4914W        W 8978   5.354   7.772   0.781  0.2185 -0.0950  0.2897
 4915W        W 8979   2.080   8.167   3.637  0.1376  0.0450  0.1700
 4916W        W 8980   9.471   3.963   0.145  0.2654  0.2523  0.0933
 4917W        W 8981   5.138   5.300   1.395 -0.2149  0.4897 -0.0292
 4918W        W 8982   0.404   7.844   1.153  0.1346  0.0749  0.2060
 4919W        W 8983   8.134   6.544   8.841  0.2920 -0.4050 -0.0491
 4920W        W 8984   2.430   7.766   7.799 -0.1679  0.2744 -0.2348
 4921W        W 8985   4.420   1.076   9.670  0.0669 -0.3002 -0.3995
 4922W        W 8986   2.642   5.164   2.435  0.1787 -0.3140 -0.1284
 4923W        W 8987   1.866   5.811   8.909  0.3841  0.4792 -0.1305
 4924W        W 8988   9.792   3.884   0.770 -0.2481  0.1333  0.1081
 4925W        W 8989   0.365   3.742   9.600  0.1853  0.1399 -0.5021
 4926W        W 8990   0.997   4.813   0.556 -0.0383  0.3620  0.0948
 4927W        W 8991   9.742   8.118   8.922 -0.1656 -0.1115 -0.0538
 4928W        W 8992   1.720   1.156  11.218  0.0187 -0.1482 -0.1396
 4929W        W 8993   4.195   8.368  11.311  0.2216 -0.3090 -0.0223
 4930W        W 8994  10.383   1.480   9.797 -0.0253  0.1369 -0.1262
 4931W        W 8995  10.252   1.221   8.816 -0.2410 -0.2328 -0.0762
 4932W        W 8996   3.603  10.006   8.678 -0.0304 -0.2338 -0.1930
 4933W        W 8997   3.238   4.582   9.842  0.0905  0.1053 -0.2476
 4934W        W 8998   4.902   5.360  11.563 -0.2664  0.1145 -0.0447
 4935W        W 8999   4.782   8.147   3.078 -0.0895  0.1452  0.0075
 4936W        W 9000   0.636   9.953   0.266 -0.1056  0.4011  0.0226
 4937W        W 9001   0.884   2.895   0.800 -0.3508 -0.2954 -0.1500
 4938W        W 9002   6.081   1.135   9.631 -0.1652 -0.0290  0.2798
 4939W        W 9003   0.832   5.312   1.808  0.1009 -0.3190  0.0134
 4940W        W 9004  10.159   5.019   8.860  0.0243 -0.0275 -0.2161
 4941W        W 9005   4.994   9.928   3.114  0.0136 -0.0438  0.4829
 4942W        W 9006   0.581  10.306   1.028 -0.0373 -0.1092 -0.1450
 4943W        W 9007   8.821   1.811  10.630  0.2363 -0.0448 -0.0929
 4944W        W 9008   6.262   1.711   1.963  0.4428  0.1466 -0.0263
 4945W        W 9009   9.090   1.939   0.602  0.2255  0.0788  0.1782
 4946W        W 9010   2.111   2.489  11.059  0.1493  0.0281  0.1188
 4947W        W 9011  10.461   8.577  11.030  0.3357 -0.2067  0.0731
 4948W        W 9012   6.769   4.974   1.229  0.0996  0.1075  0.1723
 4949W        W 9013   3.028   9.659  11.444  0.1114 -0.1309 -0.0562
 4950W        W 9014   4.981   3.041   0.075  0.1773  0.2238 -0.2170
 4951W        W 9015   2.225   7.236   8.598  0.2361 -0.1291 -0.3016
 4952W        W 9016   0.963   7.913   7.503 -0.1748 -0.3077  0.1851
 4953W        W 9017   1.713   8.850  10.615 -0.0981 -0.0758  0.0854
 4954W        W 9018   9.589   5.447   9.320  0.2491  0.2855  0.0865
 4955W        W 9019   4.596   1.248  10.510  0.2751  0.0229  0.0567
 4956W        W 9020   8.860   4.839   1.744  0.1897  0.0192 -0.1638
 4957W        W 9021  10.521   8.629   9.295 -0.0254 -0.3336 -0.1515
 4958W        W 9022   0.787  10.031   9.534  0.0794  0.0274  0.2052
 4959W        W 9023   3.773   8.540   8.106  0.0555  0.2232 -0.2658
 4960W        W 9024   7.769   5.495  10.764  0.3648  0.0015 -0.2437
 4961W        W 9025   7.396  10.147  10.272  0.1875  0.3346  0.1401
 4962W        W 9026   1.948   6.531   3.621 -0.4134  0.2099  0.0122
 4963W        W 9027   9.581   2.970  10.162 -0.3034 -0.1830 -0.3291
 4964W        W 9028   7.377   3.889   2.812  0.2764 -0.0089  0.1189
 4965W        W 9029   0.328   2.367  11.139 -0.2420  0.1334  0.0701
 4966W        W 9030   7.475   4.668   0.450 -0.0433 -0.0677 -0.0808
 4967W        W 9031   4.183   2.337   8.552  0.1774 -0.5285 -0.0798
 4968W        W 9032   2.953   9.787   2.598 -0.0098 -0.4758 -0.3988
 4969W        W 9033   4.789   2.347   3.672  0.2564 -0.3582 -0.2366
 4970W        W 9034   6.988   8.497   8.774  0.0509 -0.1448 -0.3152
 4971W        W 9035   5.920   9.435   1.562 -0.0969 -0.1297 -0.0494
 4972W        W 9036   5.438   9.929  10.499 -0.1249 -0.0413 -0.1223
 4973W        W 9037   9.068   0.265  10.342  0.0395  0.0951 -0.2601
 4974W        W 9038   8.438   3.636   2.582  0.1232  0.1761 -0.1422
 4975W        W 9039   8.705   1.620   1.482 -0.1696 -0.1863  0.3008
 4976W        W 9040   0.368   3.214   3.331  0.2599 -0.0511  0.0675
 4977W        W 9041   6.170   4.215   8.875  0.1697  0.1624  0.1334
 4978W        W 9042   6.347   3.529  10.837  0.2547  0.5389 -0.1476
 4979W        W 9043   1.049   6.993   2.328 -0.1112 -0.0824  0.0339
 4980W        W 9044   6.721   3.056   8.930  0.0571  0.1702 -0.0093
 4981W        W 9045   8.758   4.102  10.065  0.1008 -0.4108  0.1871
 4982W        W 9046   0.823   9.062   8.586 -0.2994  0.0958 -0.1282
 4983W        W 9047   4.781   1.328   8.796 -0.3591  0.0771  0.1606
 4984W        W 9048   3.043   3.006   8.897 -0.4200 -0.0097  0.3733
 4985W        W 9049   0.487   1.512   0.490  0.3601 -0.3956 -0.0598
 4986W        W 9050   0.597   4.502   0.464  0.1856  0.0838  0.1543
 4987W        W 9051   5.395   5.693   1.147 -0.0718 -0.0599  0.4012
 4988W        W 9052   4.213  10.119  10.828  0.3296 -0.1053 -0.3470
 4989W        W 9053   1.385   0.800   9.704 -0.3810 -0.1331  0.1101
 4990W        W 9054   0.246   2.017   1.903 -0.0377 -0.4482  0.1164
 4991W        W 9055   6.986   4.872   9.085  0.2135  0.1848 -0.0483
 4992W        W 9056   0.145   7.544   0.782 -0.0231 -0.2713  0.2138
 4993W        W 9057   0.203   8.686  10.589  0.1487 -0.2588  0.1272
 4994W        W 9058   1.963   4.194   9.897 -0.0646  0.2047  0.2036
 4995W        W 9059   5.696   5.217   3.645  0.1398  0.0306 -0.1096
 4996W        W 9060   9.288   1.509   0.977  0.0871  0.0575  0.1271
 4997W        W 9061   1.717   8.225   4.065 -0.1643 -0.0853  0.0831
 4998W        W 9062   0.493   8.273  10.538 -0.3661  0.0932 -0.0577
 4999W        W 9063   4.070   4.956   1.153 -0.0367 -0.1520 -0.1991
 5000W        W 9064   6.026   8.472   9.939  0.2617 -0.1151  0.0011
 5001W        W 9065   1.698   6.550   8.819  0.1756 -0.1531  0.2764
 5002W        W 9066   2.492   3.726   3.573  0.1043 -0.4237 -0.0599
 5003W        W 9067   1.407   9.494   2.641  0.0988 -0.0416 -0.0113
 5004W        W 9068   3.260   9.109   2.421  0.0404 -0.1851 -0.1075
 5005W        W 9069   0.590   5.319   9.291  0.0984 -0.0526  0.2818
 5006W        W 9070   7.459  10.180   8.155  0.3744 -0.1426 -0.1116
 5007W        W 9071   0.839   1.674   9.914 -0.2343 -0.0931  0.0059
 5008W        W 9072   8.861  10.437  10.449 -0.0380  0.0576  0.1442
 5009W        W 9073   4.266   9.403  10.370  0.2218 -0.2431  0.3299
 5010W        W 9074   7.276   2.714   0.090 -0.0827  0.0487  0.0350
 5011W        W 9075   9.117   4.633  10.824 -0.0675  0.1914  0.0407
 5012W        W 9076   0.898   3.514  10.480  0.0626  0.2782  0.0427
 5013W        W 9077   3.995   4.656   4.690 -0.1572 -0.1139  0.0613
 5014W        W 9078   0.415   2.180  11.671  0.1665 -0.2578 -0.1228
 5015W        W 9079   2.324   3.551   9.335 -0.1321 -0.0612 -0.4826
 5016W        W 9080   9.782   8.855   1.760  0.1874 -0.1640  0.3727
 5017W        W 9081   7.846   5.414   1.000 -0.0378  0.2696  0.2004
 5018W        W 9082   0.981   7.422   9.334  0.1500 -0.1016 -0.0205
 5019W        W 9083   2.495   7.475   1.688 -0.1561  0.2456  0.0591
 5020W        W 9084   3.216   7.539   9.749 -0.1302 -0.0268 -0.0425
 5021W        W 9085   5.922   3.760   1.532 -0.0806 -0.1051 -0.0571
 5022W        W 9086   0.537   5.430   2.760 -0.2691  0.2166 -0.1331
 5023W        W 9087   2.581   3.924   9.099  0.1728  0.0835  0.1290
 5024W        W 9088  10.090   4.067   2.616  0.1837  0.0042 -0.1063
 5025W        W 9089   2.133   6.718   8.696  0.0919  0.1016 -0.0935
 5026W        W 9090   6.571   8.860   9.331  0.0763  0.0165 -0.1052
 5027W        W 9091   4.244   8.718   2.646 -0.0387  0.1888  0.1398
 5028W        W 9092  10.243   5.360   0.294 -0.0214  0.1434  0.1098
 5029W        W 9093   6.410   2.223  11.297  0.4283 -0.4434 -0.2909
 5030W        W 9094   6.686  10.054   1.745  0.0596 -0.1390  0.2118
 5031W        W 9095   5.142   9.436   2.218 -0.1378  0.2424 -0.1807
 5032W        W 9096   5.564   8.695   8.852  0.3567 -0.0289  0.1441
 5033W        W 9097   5.413   2.602   2.482 -0.3352 -0.1253  0.2553
 5034W        W 9098   3.477   7.505   2.388  0.2535  0.1829  0.0736
 5035W        W 9099   9.268   5.010   3.065 -0.0815  0.1389  0.0384
 5036W        W 9100   7.830   9.190   0.226  0.0447  0.3108  0.1515
 5037W        W 9101   7.095   1.628   9.844  0.0128 -0.2335  0.1398
 5038W        W 9102   9.923   8.775   3.684  0.2609  0.4213  0.1762
 5039W        W 9103   4.294  10.344   3.633  0.0867  0.0459 -0.1177
 5040W        W 9104   8.568   1.070   8.313  0.4534  0.0951 -0.1573
 5041W        W 9105   9.998   2.813   9.855  0.1187  0.1157 -0.0161
 5042W        W 9106   2.310   7.375   3.902  0.0707  0.2434  0.0145
 5043W        W 9107   3.531   6.246   3.685 -0.1512 -0.1993  0.0228
 5044W        W 9108   4.997   7.594   2.298 -0.2315  0.0858  0.1422
 5045W        W 9109   1.336   4.302   3.441 -0.1005 -0.2344 -0.1206
 5046W        W 9110   4.348   9.930   9.073 -0.0773 -0.0905 -0.2889
 5047W        W 9111   7.809  10.588   8.258 -0.0238  0.1726 -0.0499
 5048W        W 9112   5.237   6.765   1.540  0.0379 -0.1132  0.0398
 5049W        W 9113   6.295   7.182  10.151  0.0635  0.2726  0.1009
 5050W        W 9114   1.609   0.381   8.890 -0.3445 -0.3458 -0.0547
 5051W        W 9115   5.830   7.066   9.695  0.0058 -0.1340  0.0735
 5052W        W 9116   8.024   8.758   1.754  0.0074  0.2951 -0.1189
 5053W        W 9117   7.956   7.878   1.365 -0.2507  0.0887  0.0489
 5054W        W 9118  10.492   2.413   1.682  0.1138 -0.2298  0.1880
 5055W        W 9119   8.134   9.662   0.818 -0.0638 -0.1554  0.0365
 5056W        W 9120   9.412   5.564   3.011 -0.2478  0.0018 -0.0869
 5057W        W 9121   5.241   5.820   2.954  0.1428 -0.1889 -0.2802
 5058W        W 9122   7.570   3.877  11.458  0.1841 -0.0553 -0.2552
 5059W        W 9123   7.268   8.984   1.968  0.2049 -0.1122 -0.1075
 5060W        W 9124   6.169   1.272   3.204  0.2667  0.1597  0.0373
 5061W        W 9125   7.961   7.288  10.687 -0.0206  0.1480  0.3263
 5062W        W 9126   1.458   8.145   8.823  0.0515 -0.1799 -0.0182
 5063W        W 9127   1.346   7.921  11.032  0.0241  0.2017 -0.2027
 5064W        W 9128   2.096   8.570   3.969  0.2798  0.5103  0.1282
 5065W        W 9129   7.181   8.919   0.798 -0.1413 -0.1246 -0.1556
 5066W        W 9130   1.216   8.878  11.230  0.0942  0.1881  0.1211
 5067W        W 9131   4.789   3.547  11.094  0.0085  0.3230 -0.3528
 5068W        W 9132   1.599   2.027   9.794  0.1921  0.2294  0.0547
 5069W        W 9133   1.338   5.043   1.924 -0.1455 -0.0120  0.3117
 5070W        W 9134   8.679   0.866   1.080  0.0972 -0.0286 -0.0781
 5071W        W 9135   4.490   4.207  11.007  0.3592  0.2170 -0.0119
 5072W        W 9136   7.165   0.745   0.819  0.2188 -0.2656  0.3919
 5073W        W 9137   5.685   4.644   2.906 -0.1009  0.1256 -0.2120
 5074W        W 9138   5.445   1.027  10.935  0.0817  0.0832 -0.0370
 5075W        W 9139   0.842   7.305  10.419  0.2017  0.3829 -0.1888
 5076W        W 9140   6.039   3.011   2.021  0.0876  0.2174 -0.0121
 5077W        W 9141  10.127   2.006   2.531  0.2183 -0.1329  0.1385
 5078W        W 9142   6.527   8.403   8.857 -0.3171  0.1815 -0.2234
 5079W        W 9143   5.984   2.994   3.691 -0.0181  0.3667 -0.3934
 5080W        W 9144   0.954   3.723  10.953  0.1484 -0.1926 -0.0318
 5081W        W 9145   4.921   3.034  10.975  0.1043 -0.0873  0.1135
 5082W        W 9146   9.982   5.123   9.344  0.0265  0.1381  0.1132
 5083W        W 9147   7.363   0.357   0.007  0.0275 -0.2030 -0.1742
 5084W        W 9148   1.182   4.365   0.203 -0.0903  0.0587  0.0927
 5085W        W 9149   7.719   0.820   0.735 -0.2264  0.0034  0.1270
 5086W        W 9150   5.601   3.943   1.921  0.1453 -0.1485 -0.1202
 5087W        W 9151   3.197   2.692   2.498  0.0547 -0.0956 -0.1392
 5088W        W 9152   4.983   3.589  11.579  0.0457  0.0223 -0.3928
 5089W        W 9153   2.346   4.205   2.130 -0.1796  0.1714  0.1055
 5090W        W 9154   3.539   8.048   9.600  0.1379  0.0420  0.1285
 5091W        W 9155   9.895   2.487   2.466 -0.1639  0.0653 -0.0696
 5092W        W 9156   1.513   0.075   1.782  0.0957  0.3109  0.1862
 5093W        W 9157   5.866   1.139   2.788 -0.0017 -0.4924 -0.2621
 5094W        W 9158   4.380   9.465   9.282 -0.4245  0.0239 -0.2654
 5095W        W 9159   3.107   1.678   1.304 -0.1965 -0.2467  0.1208
 5096W        W 9160   0.944   7.591   1.314 -0.0431 -0.5128  0.1099
 5097W        W 9161   6.971   6.611  11.224  0.1225  0.1609  0.2455
 5098W        W 9162   9.458   9.480  10.694  0.0184  0.1955  0.1011
 5099W        W 9163   2.100   0.584   9.016 -0.1920 -0.0190  0.2158
 5100W        W 9164   6.173   0.606  11.036 -0.1500 -0.0299 -0.0995
 5101W        W 9165   2.559   4.423   8.804  0.0692 -0.1810  0.0168
 5102W        W 9166   2.523   6.058  11.379  0.0821  0.1989  0.2130
 5103W        W 9167   8.112   5.552   0.232 -0.0982 -0.0791 -0.1559
 5104W        W 9168   4.114   1.020   1.458 -0.1136 -0.4663 -0.2678
 5105W        W 9169   5.667   3.246   8.883 -0.0791 -0.0592  0.2301
 5106W        W 9170   1.997  10.584   1.427  0.1136 -0.0681  0.1416
 5107W        W 9171   9.733   6.453   8.104 -0.0659 -0.1170 -0.1274
 5108W        W 9172   3.705   6.528  10.778 -0.0508 -0.2223 -0.1463
 5109W        W 9173   5.306   9.890   2.291 -0.0438 -0.1161 -0.2181
 5110W        W 9174   6.342   8.050   2.689 -0.1079 -0.0297 -0.0399
 5111W        W 9175   3.084   9.213  11.665 -0.1207  0.4065  0.2332
 5112W        W 9176   8.792   0.336   3.393 -0.0447  0.0926 -0.2017
 5113W        W 9177   0.051   1.513   2.056  0.0298 -0.2445  0.0887
 5114W        W 9178   5.815   3.880   8.491  0.1441  0.4596  0.2891
 5115W        W 9179   7.792   1.543   8.467  0.2925  0.2674  0.0188
 5116W        W 9180   4.454   5.792   2.737 -0.1130  0.2531  0.0510
 5117W        W 9181   5.936   7.480   0.149  0.2856 -0.0784  0.1552
 5118W        W 9182   2.071   5.180   0.600  0.1893 -0.1025 -0.2082
 5119W        W 9183   9.756   4.932   1.714 -0.1077  0.2005 -0.1633
 5120W        W 9184   1.666   9.427   8.651 -0.2290  0.2032 -0.2368
 5121W        W 9185   2.171   5.387   9.055 -0.1612 -0.0898 -0.0046
 5122W        W 9186   8.098   6.603   3.016 -0.0146 -0.0611 -0.1936
 5123W        W 9187   5.545   8.280   2.686  0.1084 -0.1970  0.0560
 5124W        W 9188   1.994   7.116   7.792 -0.1437  0.2213 -0.1899
 5125W        W 9189   0.375   2.759  10.371 -0.2898 -0.2407 -0.3000
 5126W        W 9190   1.896   9.422   2.461  0.0131  0.1997 -0.2185
 5127W        W 9191   5.022   5.910   1.412 -0.1361 -0.3075 -0.2645
 5128W        W 9192   6.464   3.164   3.797  0.0286  0.2284  0.3333
 5129W        W 9193  10.217   1.862  10.747  0.0175 -0.0003  0.1293
 5130W        W 9194   5.735   0.797  11.253 -0.1510  0.2063  0.0040
 5131W        W 9195   9.919   8.513   9.417 -0.1039  0.0080  0.0473
 5132W        W 9196   6.645   0.324   8.776 -0.1517  0.1886 -0.2122
 5133W        W 9197  10.493   2.243   2.193  0.3759  0.0800  0.1697
 5134W        W 9198   3.764   8.794   2.636  0.4975  0.1119  0.1473
 5135W        W 9199   7.593   9.470   9.089 -0.1426  0.0391 -0.1488
 5136W        W 9200   3.661   7.672   9.177  0.2534 -0.0455 -0.0400
 5137W        W 9201   4.575   0.447   8.041  0.0746  0.0848 -0.3887
 5138W        W 9202   4.110   5.092   3.552 -0.0005 -0.1496 -0.0785
 5139W        W 9203  10.383   5.848   3.501  0.0874 -0.1096  0.0533
 5140W        W 9204   4.221   1.767   3.445  0.4070  0.3234 -0.2608
 5141W        W 9205   9.074   7.522   9.025  0.0078 -0.1488  0.0297
 5142W        W 9206   0.107   0.769   1.926  0.2297  0.2765  0.1277
 5143W        W 9207   8.043   1.211   0.418 -0.0072 -0.3045 -0.2969
 5144W        W 9208   0.560   8.447   0.468  0.1257 -0.0051 -0.3050
 5145W        W 9209   9.200   3.335   0.647 -0.2039 -0.0539  0.1074
 5146W        W 9210   1.428   3.055   9.275 -0.0046  0.2796  0.0924
 5147W        W 9211   6.022   3.234   1.052  0.1842 -0.1035  0.1280
 5148W        W 9212   5.102   3.777   2.020  0.3680 -0.2927  0.2665
 5149W        W 9213  10.458   2.555   9.054 -0.1189  0.2264 -0.1774
 5150W        W 9214   3.619   5.020  10.745  0.1179  0.0251 -0.2240
 5151W        W 9215   3.157   4.916   1.515  0.3395 -0.0210 -0.1485
 5152W        W 9216   4.042   7.318   8.734 -0.1805 -0.2060  0.2790
 5153W        W 9217   4.324   7.350   2.852  0.2643 -0.0525 -0.0211
 5154W        W 9218   0.520   9.986  10.637 -0.0692 -0.2012 -0.3263
 5155W        W 9219   3.068  10.400  10.091  0.1231 -0.0949  0.1330
 5156W        W 9220   3.341   6.024   0.419  0.0287 -0.0050  0.2063
 5157W        W 9221   4.692   2.070  10.786  0.1406 -0.1818  0.0373
 5158W        W 9222   8.537   5.441  11.471  0.1549  0.0920 -0.2233
 5159W        W 9223   9.490   9.529   8.332 -0.0844 -0.1086  0.0322
 5160W        W 9224   4.475   1.284   1.264 -0.0006 -0.0267 -0.2766
 5161W        W 9225   1.541   1.358   1.159  0.0893 -0.0100  0.3522
 5162W        W 9226   0.510   6.767   3.478 -0.1764  0.1816  0.0855
 5163W        W 9227   6.872   3.892   7.543 -0.0169 -0.1038  0.0818
 5164W        W 9228   5.297   8.723   1.153 -0.1195  0.1210  0.1645
 5165W        W 9229  10.048   3.104   1.863  0.0606  0.1843 -0.3938
 5166W        W 9230   5.773   7.995   8.014 -0.1340 -0.0105  0.1060
 5167W        W 9231   0.002   8.500  10.191 -0.0096 -0.0583  0.1714
 5168W        W 9232   1.850   3.968   2.864 -0.1713  0.1291 -0.1055
 5169W        W 9233   9.541  10.138   0.108 -0.0670  0.0748 -0.0655
 5170W        W 9234   7.187   1.669   2.287 -0.1895 -0.1221 -0.0236
 5171W        W 9235   7.067   8.651  11.589  0.0119  0.0796 -0.1216
 5172W        W 9236   7.639   2.876   1.569 -0.2004 -0.1050  0.0705
 5173W        W 9237   7.032   3.891   3.803 -0.0518  0.0657  0.1690
 5174W        W 9238   0.617   7.642   2.669 -0.3324 -0.6935 -0.3172
 5175W        W 9239   2.030  10.016  11.632  0.0597 -0.0119 -0.0946
 5176W        W 9240   1.558   4.495  10.818  0.0036  0.0966  0.3517
 5177W        W 9241   7.906   6.177  11.486 -0.2806  0.0922 -0.1123
 5178W        W 9242   0.325   1.581  10.788 -0.1305  0.2307 -0.3792
 5179W        W 9243   4.320   8.070   9.134  0.6329 -0.0088  0.0465
 5180W        W 9244  10.358   2.839   1.520 -0.0979  0.0205 -0.2037
 5181W        W 9245   2.143   5.691  11.200  0.0532 -0.1544  0.0712
 5182W        W 9246  10.567   7.105   9.296  0.0043  0.0669 -0.0392
 5183W        W 9247   9.901   6.088   3.582  0.1994 -0.1256  0.0541
 5184W        W 9248   1.546   9.775   1.243 -0.0447 -0.4567  0.0661
 5185W        W 9249   2.834   7.838  11.258 -0.0199  0.1996  0.1011
 5186W        W 9250   5.469   5.572  10.047 -0.1204  0.1920 -0.0575
 5187W        W 9251   2.936   8.809  11.345  0.0302  0.0448 -0.1933
 5188W        W 9252   9.724   5.659  11.577  0.3244  0.2773 -0.2413
 5189W        W 9253   3.317   8.977   1.350 -0.2534 -0.1212 -0.0223
 5190W        W 9254   6.602   1.737   2.966  0.3885 -0.1307 -0.0229
 5191W        W 9255   7.465   0.541  11.173  0.1143  0.0019 -0.1986
 5192W        W 9256   9.318  10.430   9.019  0.0745  0.1845 -0.1310
 5193W        W 9257   0.449   8.972  11.391 -0.1463 -0.0026 -0.0715
 5194W        W 9258   6.346   6.188   8.079  0.0854 -0.1263 -0.0154
 5195W        W 9259   2.050   9.390   0.557 -0.0361 -0.3295 -0.0769
 5196W        W 9260   3.239  10.086   3.317 -0.2417 -0.0918 -0.1072
 5197W        W 9261   7.470   0.608   9.560 -0.0483 -0.1020 -0.1815
 5198W        W 9262   2.710   6.551   1.157  0.2588  0.2701  0.1022
 5199W        W 9263   3.205   3.676  10.550 -0.1379 -0.1951  0.1927
 5200W        W 9264  10.256   5.614  11.528  0.2579  0.3797 -0.1870
 5201W        W 9265   5.640   6.087  11.543 -0.0350 -0.2053 -0.3422
 5202W        W 9266   2.553   2.366  10.431 -0.1578 -0.0042  0.1735
 5203W        W 9267   7.264   0.749   1.792  0.1231  0.0947 -0.1460
 5204W        W 9268  10.029   7.357   9.312 -0.2370  0.0433 -0.3595
 5205W        W 9269   2.383   3.948  10.049  0.1342  0.2631 -0.3650
 5206W        W 9270   8.576   2.087  10.132  0.0986  0.0103 -0.0424
 5207W        W 9271   4.895   4.169   3.342  0.1767  0.2476 -0.2846
 5208W        W 9272   5.952   9.192   1.085 -0.2558  0.0453  0.0022
 5209W        W 9273   1.520   5.100   8.791 -0.0171  0.1454 -0.1234
 5210W        W 9274   9.969   2.585   1.643 -0.0080  0.1349 -0.2913
 5211W        W 9275   9.460   0.018   7.511  0.1172 -0.2333 -0.0184
 5212W        W 9276   6.693   9.615   7.183 -0.0937  0.0027 -0.2720
 5213W        W 9277   5.880   4.807   8.494 -0.0541  0.1232 -0.0326
 5214W        W 9278   0.718   6.211  10.340  0.1921  0.0251 -0.1293
 5215W        W 9279   4.544   7.690  11.080  0.0209  0.3517  0.2198
 5216W        W 9280   4.248   4.157   3.766  0.0170 -0.0279  0.1879
 5217W        W 9281   2.912   9.755   0.559  0.1404  0.1849 -0.1364
 5218W        W 9282   9.438   0.043  10.011 -0.2715 -0.0025 -0.2491
 5219W        W 9283   6.968   1.694   1.077 -0.0031 -0.1807 -0.1332
 5220W        W 9284   7.278   9.621   3.341  0.3000  0.0652  0.1061
 5221W        W 9285   1.518   6.758   2.030 -0.0022  0.1514  0.0412
 5222W        W 9286   8.387   5.163   3.595  0.1268 -0.0754 -0.0720
 5223W        W 9287   7.283   9.310   8.260  0.1015  0.5474  0.1124
 5224W        W 9288   6.735  10.471   8.546 -0.0211  0.3733  0.0767
 5225W        W 9289   6.944   4.092   2.695 -0.0113 -0.0189 -0.0010
 5226W        W 9290   5.139   4.129   2.413  0.0540  0.1501 -0.0553
 5227W        W 9291   2.199   2.552   0.337  0.0366 -0.1463 -0.1837
 5228W        W 9292   9.760   8.202   2.908 -0.1732  0.0255  0.0264
 5229W        W 9293   3.693  10.208   2.513 -0.4347  0.2331 -0.2387
 5230W        W 9294   3.128   0.804   1.526 -0.0720 -0.0599 -0.1207
 5231W        W 9295   8.208   9.347   4.080  0.1310  0.1145 -0.2329
 5232W        W 9296   5.374   2.614   9.827  0.0192 -0.3033 -0.0523
 5233W        W 9297   1.649   9.972   8.663 -0.0165 -0.0784  0.2511
 5234W        W 9298   5.793   4.817   9.381  0.1351  0.0402  0.0806
 5235W        W 9299   6.113   9.148   2.956  0.0197  0.0746  0.5439
 5236W        W 9300   8.346   6.679   0.282  0.1101 -0.2334  0.1334
 5237W        W 9301   5.531   3.220   9.347  0.0529 -0.0659 -0.1209
 5238W        W 9302   7.761   0.573   2.618  0.0560 -0.0867 -0.3305
 5239W        W 9303   7.244   0.155   9.513 -0.0588 -0.1257  0.0749
 5240W        W 9304   1.445   8.409   0.271  0.0650  0.4818  0.0943
 5241W        W 9305   6.732   4.437   3.035 -0.2859 -0.2890  0.0897
 5242W        W 9306   6.497   7.078   0.956 -0.3331 -0.1109  0.0587
 5243W        W 9307   6.418   4.805   0.781  0.1113  0.1856 -0.1769
 5244W        W 9308   7.096   6.843   9.101 -0.3686  0.0484  0.0694
 5245W        W 9309   9.283   7.954   9.039  0.1274  0.0478 -0.0630
 5246W        W 9310   4.293  10.384   3.121 -0.0262 -0.2350 -0.1166
 5247W        W 9311   5.775   1.383  11.277 -0.2550 -0.1181 -0.0376
 5248W        W 9312   9.205   7.674   0.653 -0.1947 -0.0853 -0.1679
 5249W        W 9313   0.155   2.731  10.877  0.1315 -0.2552  0.3851
 5250W        W 9314   1.929   1.169   9.014 -0.2242 -0.0413  0.0558
 5251W        W 9315   1.832   8.045   0.646 -0.1138  0.0481  0.1345
 5252W        W 9316   9.441   6.586   2.902  0.2964 -0.0762 -0.2987
 5253W        W 9317   1.559   6.518   4.536 -0.1441  0.1224 -0.1172
 5254W        W 9318   7.874   6.071   8.733  0.0145  0.0662 -0.1072
 5255W        W 9319   7.479   0.466   2.248 -0.0154 -0.1326  0.1254
 5256W        W 9320  10.060  10.296   8.262  0.0090 -0.0510 -0.2093
 5257W        W 9321   1.607   0.776   9.221  0.1498  0.1741 -0.1855
 5258W        W 9322   9.697   4.095  11.344  0.1601 -0.0419 -0.0714
 5259W        W 9323   6.079   7.196   7.859  0.5632  0.3160 -0.0650
 5260W        W 9324   2.948   5.212   9.633  0.1353  0.1239 -0.0442
 5261W        W 9325   8.196   0.652  10.214  0.2914 -0.4736 -0.1451
 5262W        W 9326  10.308   3.097   1.106  0.3728 -0.2170 -0.2049
 5263W        W 9327   9.931   7.845  11.237 -0.2450  0.5692 -0.0495
 5264W        W 9328   6.239  10.384   1.517  0.0674  0.0805 -0.2442
 5265W        W 9329   0.722   1.669   9.420  0.0108 -0.2458  0.3890
 5266W        W 9330   1.403   5.106   2.828 -0.0270  0.1334 -0.1927
 5267W        W 9331   7.384   7.943   7.907 -0.0069  0.3669  0.2171
 5268W        W 9332   3.621   1.101  11.361 -0.0749  0.2343  0.0590
 5269W        W 9333   6.008   9.955   0.584  0.2614  0.1208 -0.3150
 5270W        W 9334   5.005   7.007   1.184  0.1349  0.0688 -0.1683
 5271W        W 9335   1.540   9.262  10.894  0.0990  0.2031  0.5124
 5272W        W 9336   8.657   0.215   9.278 -0.4487  0.0859 -0.0475
 5273W        W 9337   6.918   1.635   9.321  0.1400 -0.2633  0.1666
 5274W        W 9338   6.114   3.983   3.815 -0.3490 -0.0032 -0.3631
 5275W        W 9339   0.226   4.312  11.086  0.1741 -0.2619  0.0707
 5276W        W 9340   3.931   7.256   1.651 -0.1791 -0.3116 -0.2235
 5277W        W 9341   9.908   9.766   1.578  0.0158 -0.0310 -0.0554
 5278W        W 9342   2.997   7.138   2.511  0.0880  0.3214  0.0696
 5279W        W 9343   5.679   3.404  11.114 -0.1595 -0.2016 -0.0857
 5280W        W 9344   9.755   0.834   1.346  0.5959  0.0522 -0.4039
 5281W        W 9345   8.156   9.242   1.679  0.0922  0.1629 -0.3288
 5282W        W 9346   9.803  10.363   0.824 -0.0243 -0.3578 -0.1285
 5283W        W 9347   6.350   9.184   0.744 -0.0476 -0.3596 -0.2115
 5284W        W 9348  10.096   8.486  11.440 -0.2301  0.0810  0.0605
 5285W        W 9349   3.538   7.823   2.821  0.3985  0.1523 -0.1217
 5286W        W 9350   2.783   0.988   9.790 -0.1366 -0.2616  0.0794
 5287W        W 9351   9.706   1.297   3.603 -0.0767 -0.1053  0.0603
 5288W        W 9352   2.946   1.821   8.456  0.1066  0.1760  0.0201
 5289W        W 9353   7.355   3.508   0.081  0.0895  0.2362  0.2802
 5290W        W 9354  10.059   9.464   9.929  0.1807  0.2113  0.2728
 5291W        W 9355   2.741   7.905   2.643 -0.0169  0.0559 -0.4113
 5292W        W 9356   8.679   7.979   0.941 -0.0591  0.3327 -0.1525
 5293W        W 9357   4.934   0.530   9.290 -0.0253 -0.1103  0.2347
 5294W        W 9358   3.555   6.837   3.866  0.0456  0.1207  0.1275
 5295W        W 9359   9.272   8.172   8.573  0.0242  0.3643 -0.0592
 5296W        W 9360   2.627   8.773  10.874  0.1039 -0.0134 -0.2014
 5297W        W 9361   2.304   6.437  10.914 -0.4328  0.0254  0.0919
 5298W        W 9362   5.724   5.895  10.403  0.0331 -0.1266  0.2946
 5299W        W 9363   7.462   1.291  11.003  0.2099 -0.4211 -0.4144
 5300W        W 9364   3.267   2.982   9.415  0.0251  0.0466 -0.1709
 5301W        W 9365   3.319   5.868   8.611  0.3347 -0.1708 -0.0659
 5302W        W 9366   7.481   7.192   8.885 -0.2084  0.1365 -0.0621
 5303W        W 9367   3.313   0.044   1.462 -0.0012  0.5642  0.3007
 5304W        W 9368   5.805   5.168   0.332  0.1272  0.1757  0.2007
 5305W        W 9369   0.773   8.417   8.806 -0.0249 -0.2002 -0.3457
 5306W        W 9370   0.066   5.586  10.392  0.0843 -0.2932  0.1173
 5307W        W 9371  10.032   6.764   3.150 -0.0412  0.1760  0.2860
 5308W        W 9372   8.071   9.493   9.220  0.2217 -0.3282 -0.0781
 5309W        W 9373   2.959   4.145  11.409 -0.0398  0.1227  0.0478
 5310W        W 9374   7.373   4.171   3.202 -0.3825  0.1556  0.0221
 5311W        W 9375   7.179   4.158   8.482 -0.0074 -0.0021 -0.0828
 5312W        W 9376  10.085   5.122  10.581 -0.0733 -0.2372 -0.0189
 5313W        W 9377   4.729   7.536   7.413 -0.2932  0.2767  0.0690
 5314W        W 9378   4.686   4.514   2.494 -0.1353 -0.1452 -0.1061
 5315W        W 9379   3.545   9.580   9.323  0.3020 -0.4962  0.1108
 5316W        W 9380   8.095   8.826   1.253  0.1422  0.2161 -0.0297
 5317W        W 9381   3.687   2.016   2.766 -0.1455 -0.0151  0.1043
 5318W        W 9382   1.293   7.900   1.185 -0.2576  0.1606  0.2778
 5319W        W 9383  10.150   0.610  11.092  0.0170 -0.1479 -0.2826
 5320W        W 9384   4.640   7.397   9.338  0.1922  0.2628  0.1261
 5321W        W 9385   8.960   8.712   3.458  0.1604 -0.2703  0.1829
 5322W        W 9386   7.797   4.949   9.161 -0.0026  0.3740  0.1513
 5323W        W 9387   4.662   9.123   9.006  0.0821  0.1234  0.1861
 5324W        W 9388   5.697   9.525  10.988 -0.0124  0.0126 -0.1021
 5325W        W 9389   1.214   4.051  11.527  0.0083 -0.1092  0.0492
 5326W        W 9390   3.713   7.872   0.038  0.0894  0.0899  0.0324
 5327W        W 9391  10.591   8.413   1.999 -0.2870  0.0107  0.1876
 5328W        W 9392   2.477   0.686  10.446 -0.1012  0.1184  0.0299
 5329W        W 9393  10.531   2.595  10.384 -0.0360 -0.2298 -0.1988
 5330W        W 9394  10.409   8.898   1.091 -0.2482  0.4600 -0.3483
 5331W        W 9395   4.083   2.581   9.933 -0.1479 -0.0619  0.2336
 5332W        W 9396   1.783   7.072  11.075  0.2296  0.3123  0.2948
 5333W        W 9397   6.848   8.835   8.366  0.1389  0.1570  0.0273
 5334W        W 9398   1.009   4.283   0.734 -0.3153 -0.1341  0.1877
 5335W        W 9399   3.375   5.778   3.679  0.0813  0.1594  0.0577
 5336W        W 9400   4.182   8.677   1.254  0.1006  0.0989 -0.0408
 5337W        W 9401   8.800   8.971  10.332  0.3246  0.1805  0.1364
 5338W        W 9402   2.763   7.300   9.790 -0.0877  0.4661  0.2216
 5339W        W 9403   7.655   7.364  11.591  0.1746 -0.0363 -0.0046
 5340W        W 9404   9.302   6.017   8.434 -0.1061 -0.1742  0.2151
 5341W        W 9405   6.098   1.586   2.800 -0.0475  0.3519 -0.0336
 5342W        W 9406   0.452  10.500   1.523 -0.0293 -0.0023 -0.3179
 5343W        W 9407   6.893   5.974   2.766 -0.0541  0.2707  0.0274
 5344W        W 9408   2.936   9.844   4.241  0.1697 -0.3329  0.2086
 5345W        W 9409   0.234   2.223  10.247 -0.4122  0.1308 -0.2806
 5346W        W 9410   9.006   6.335   9.211 -0.2535  0.2298 -0.0453
 5347W        W 9411   0.287   6.099   1.666  0.0546 -0.1753 -0.1422
 5348W        W 9412   6.034   2.189  10.971  0.1051 -0.1224  0.2364
 5349W        W 9413   9.582   9.829   9.674  0.0645 -0.0814 -0.0737
 5350W        W 9414   3.612   6.955   8.715 -0.1307  0.1461  0.0899
 5351W        W 9415   0.106   5.167   0.480  0.4435 -0.1306  0.0501
 5352W        W 9416   9.856   7.041  10.899  0.1484 -0.1214 -0.0413
 5353W        W 9417   8.834   8.782   8.622  0.1174 -0.2589 -0.0642
 5354W        W 9418   9.186   0.301   1.835  0.4390 -0.1504 -0.0617
 5355W        W 9419   5.497   8.513   9.974  0.1642 -0.3714  0.1194
 5356W        W 9420   5.429   5.177  11.519  0.0589 -0.2676 -0.1443
 5357W        W 9421   1.777   7.523   2.465  0.1834  0.2215  0.1584
 5358W        W 9422   2.549   3.435   1.559  0.3615  0.0230  0.1056
 5359W        W 9423   9.009   6.385   2.113 -0.3020 -0.0550  0.3417
 5360W        W 9424   8.237   2.329   1.717 -0.2721  0.1756  0.5996
 5361W        W 9425   4.233   8.236  10.486 -0.1353  0.0059  0.0989
 5362W        W 9426   4.537   2.308   9.982 -0.1790 -0.4706  0.2017
 5363W        W 9427   4.322   0.640   9.366  0.0574  0.1923  0.1459
 5364W        W 9428   2.512   9.321   0.712  0.3043 -0.2066  0.2467
 5365W        W 9429  10.274   1.567   1.333  0.2404 -0.1345  0.1976
 5366W        W 9430   9.233   7.082   8.989  0.2404 -0.0599  0.0833
 5367W        W 9431   8.817   0.651   8.810  0.0927 -0.1079  0.3797
 5368W        W 9432   0.289   4.005  10.103 -0.0754  0.0785  0.0784
 5369W        W 9433   6.570   4.175   9.553 -0.0758 -0.3206  0.1943
 5370W        W 9434   9.540   5.724   2.442 -0.1122  0.0126  0.1366
 5371W        W 9435   2.380   8.961   8.476 -0.0929  0.0943  0.2203
 5372W        W 9436   9.047   0.758  10.486 -0.0423  0.1037 -0.2021
 5373W        W 9437   5.509   2.266   0.355  0.1210 -0.1842  0.0326
 5374W        W 9438   8.200   8.363   9.966  0.3639 -0.0622 -0.0349
 5375W        W 9439   8.831   9.817   0.379 -0.0419 -0.1920 -0.0571
 5376W        W 9440   1.526   6.899   3.826  0.0417  0.0104  0.0026
 5377W        W 9441   2.895   6.754   0.641 -0.3566 -0.2212 -0.1516
 5378W        W 9442   8.655   2.890   3.829  0.0003 -0.1628  0.0834
 5379W        W 9443   2.702   7.706   1.240  0.0767 -0.1992 -0.0327
 5380W        W 9444   2.375   9.676   2.497 -0.0807 -0.3601  0.2743
 5381W        W 9445   7.374   6.025   8.117  0.4061 -0.0037 -0.0004
 5382W        W 9446   3.744   6.151  11.204 -0.0636 -0.0183 -0.3991
 5383W        W 9447   8.073   7.062   2.332  0.1963 -0.1198  0.0908
 5384W        W 9448   1.029   1.292   9.424  0.0059 -0.2386 -0.1505
 5385W        W 9449   1.281   5.037   3.400  0.3853  0.0403 -0.1019
 5386W        W 9450   3.446   6.680  10.242  0.3035 -0.0354  0.1094
 5387W        W 9451   6.259   1.548  11.251  0.2116  0.1236 -0.1032
 5388W        W 9452   8.981  10.410   3.213  0.0395  0.4197  0.0560
 5389W        W 9453   2.682   6.919  10.467  0.0133  0.0804 -0.0284
 5390W        W 9454   0.106   2.715   2.310 -0.1473  0.1610  0.2772
 5391W        W 9455  10.330  10.322   0.773  0.0899 -0.2933 -0.0173
 5392W        W 9456   6.912   9.603   2.673  0.3698  0.1682 -0.2565
 5393W        W 9457   0.112   0.740   2.429  0.4383  0.2341  0.0658
 5394W        W 9458   3.195   6.571   4.103  0.3005 -0.3134  0.0082
 5395W        W 9459   8.889   9.927   1.488 -0.3853 -0.1220 -0.0414
 5396W        W 9460   9.589   3.302   8.642  0.0599  0.0308  0.3115
 5397W        W 9461   3.821   4.395  10.211  0.3239  0.1533 -0.0822
 5398W        W 9462   4.420   4.713   8.155 -0.0497  0.2113 -0.0306
 5399W        W 9463   1.659   1.688  11.151 -0.1056  0.4076  0.0765
 5400W        W 9464   7.083   3.725   1.621  0.2425 -0.2875 -0.1369
 5401W        W 9465   7.542   6.179  10.083 -0.1244 -0.3417  0.0395
 5402W        W 9466   8.215   9.615   9.777  0.0890 -0.0826  0.1399
 5403W        W 9467   4.470   7.629  10.583 -0.2075  0.0846 -0.2108
 5404W        W 9468   7.670   2.481   0.836 -0.0259  0.0938  0.0720
 5405W        W 9469   2.134   5.293   0.140  0.0297 -0.2523  0.1155
 5406W        W 9470   0.482   8.697  10.169  0.1189  0.2876  0.2650
 5407W        W 9471   3.645   2.854   2.776 -0.0481 -0.0170 -0.3178
 5408W        W 9472   0.941   2.260   9.124 -0.0129  0.3250  0.0471
 5409W        W 9473   8.171   0.907   0.028 -0.0306  0.1842  0.1689
 5410W        W 9474   7.061   3.717   2.397 -0.1161  0.2989 -0.1058
 5411W        W 9475   2.055   7.496   2.990  0.0176 -0.1578  0.0700
 5412W        W 9476   4.640  10.011   0.439  0.1124 -0.2375 -0.0747
 5413W        W 9477   2.420   8.722   3.081  0.0229  0.1107  0.2111
 5414W        W 9478   4.626   5.291   0.312  0.1095  0.1680  0.0800
 5415W        W 9479   5.914   1.548   8.962  0.0731  0.1123  0.1202
 5416W        W 9480   8.419   6.083   8.537  0.0429  0.2028 -0.0869
 5417W        W 9481   2.888   8.327  11.463 -0.2167 -0.1696 -0.0565
 5418W        W 9482   1.540   4.181  11.196 -0.0387 -0.0852  0.0772
 5419W        W 9483   7.313   2.371   1.477  0.0369  0.0865 -0.0874
 5420W        W 9484   2.670   7.127   4.124 -0.0804  0.0298  0.4168
 5421W        W 9485   9.009   3.028  10.875  0.2030  0.0165 -0.1936
 5422W        W 9486   3.894   8.621   9.078 -0.0761 -0.0675 -0.3545
 5423W        W 9487   8.722   4.313   0.009 -0.0166 -0.2073  0.1085
 5424W        W 9488   7.035   1.239  10.713 -0.1469  0.1386  0.0403
 5425W        W 9489   8.076   1.136   9.704 -0.3619  0.1750 -0.0941
 5426W        W 9490   9.235   7.626   1.631  0.0048  0.0367  0.3075
 5427W        W 9491   5.208   6.791   7.881  0.1456 -0.3048  0.0235
 5428W        W 9492   9.200   8.149   0.230  0.0208 -0.2163  0.0520
 5429W        W 9493   3.475  10.056   8.241  0.0954 -0.2319  0.1945
 5430W        W 9494   3.641   4.464   8.763  0.2179 -0.1404  0.3175
 5431W        W 9495   3.345   8.660   9.193 -0.1900 -0.2642 -0.2749
 5432W        W 9496   1.977   7.845   0.168  0.0870 -0.0257 -0.0146
 5433W        W 9497   1.661   9.917   2.262  0.2497  0.1702 -0.0256
 5434W        W 9498   7.277   2.136   2.166 -0.1204  0.1651 -0.4066
 5435W        W 9499   1.463   9.376   9.313  0.1262 -0.2128 -0.0476
 5436W        W 9500   4.587   3.812   0.168 -0.1050  0.5475  0.3434
 5437W        W 9501   3.349   3.718   3.205 -0.0726 -0.1747  0.1256
 5438W        W 9502   9.936   7.586   3.449 -0.1196 -0.1012 -0.4769
 5439W        W 9503  10.381   2.012   0.794 -0.0037 -0.0174  0.0351
 5440W        W 9504  10.215   5.429  10.187 -0.0109  0.0563 -0.0370
 5441W        W 9505   8.092  10.240   3.413  0.0202 -0.2511  0.1858
 5442W        W 9506   1.468   5.598  10.621 -0.0381 -0.1121  0.1278
 5443W        W 9507  10.301   6.508  10.342  0.0083  0.3247  0.2520
 5444W        W 9508   1.968   1.520  10.823  0.0202 -0.0190 -0.1049
 5445W        W 9509   4.228   9.829   3.578 -0.0027 -0.1109  0.1441
 5446W        W 9510   4.457   0.723   3.398 -0.1887  0.3392 -0.2127
 5447W        W 9511   7.119   0.996   1.430 -0.0304 -0.2495 -0.3387
 5448W        W 9512   7.205   5.090   4.376  0.0034  0.1330  0.1720
 5449W        W 9513   2.495   5.758  10.458 -0.3296 -0.1712  0.0665
 5450W        W 9514   2.322   4.495   3.200  0.0329 -0.0300 -0.0176
 5451W        W 9515   2.442   1.765   0.010 -0.0347  0.2105 -0.0113
 5452W        W 9516   0.707   0.693   8.969 -0.3664 -0.1925  0.4340
 5453W        W 9517   0.288   4.863  10.914 -0.1443  0.1839 -0.0400
 5454W        W 9518   2.576   2.694   8.721  0.0344 -0.6354  0.1939
 5455W        W 9519   2.117   0.179   0.834  0.0436 -0.1237 -0.1856
 5456W        W 9520   1.773   3.512   8.035  0.1573  0.0962 -0.0316
 5457W        W 9521   5.938   9.953  10.790 -0.1743  0.0702  0.3716
 5458W        W 9522   4.427   5.704   2.194  0.0149 -0.2484  0.3437
 5459W        W 9523   7.191  10.116   1.576  0.0798  0.0966  0.1678
 5460W        W 9524   7.151   2.798   3.069  0.0793  0.3006 -0.0998
 5461W        W 9525   2.927   6.513  10.128 -0.0208  0.2131 -0.2423
 5462W        W 9526   0.145   1.590   8.159  0.2067  0.0777 -0.0236
 5463W        W 9527   8.565   7.023   9.647  0.3255 -0.0937  0.1314
 5464W        W 9528   2.859   3.967  10.158 -0.2908  0.3225  0.0820
 5465W        W 9529   8.412   9.607   7.537  0.0336 -0.0672  0.0705
 5466W        W 9530   0.812   3.566   8.654  0.2641  0.1491  0.2987
 5467W        W 9531   8.637   1.124   0.177  0.0276  0.0145  0.0117
 5468W        W 9532   6.559   3.603   3.648 -0.0245  0.1545 -0.2352
 5469W        W 9533   4.210   5.694   8.379  0.2470 -0.1214 -0.0275
 5470W        W 9534   3.510  10.461   1.047 -0.1686 -0.2441  0.1858
 5471W        W 9535   3.969   9.494   9.508 -0.2351 -0.1123 -0.4805
 5472W        W 9536   3.139   1.025  10.163 -0.4243 -0.0179  0.1744
 5473W        W 9537   0.745   8.781   9.709 -0.0988  0.2782  0.0230
 5474W        W 9538   2.732   2.539   9.949 -0.0504 -0.2193  0.1152
 5475W        W 9539   2.973   4.788  10.583  0.0857  0.1412  0.0052
 5476W        W 9540   4.757   8.171   7.453  0.1505  0.1683 -0.2567
 5477W        W 9541   9.562   0.241   0.448  0.2161  0.2310  0.0449
 5478W        W 9542   3.405   2.683   1.513 -0.0280  0.3794 -0.0018
 5479W        W 9543   3.172   6.947   2.915 -0.1718  0.0613 -0.2197
 5480W        W 9544   4.049   3.458  11.330 -0.2544 -0.1601 -0.0956
 5481W        W 9545   8.113   5.934   3.533  0.2194  0.1215 -0.1595
 5482W        W 9546   0.323   2.151   0.987 -0.0587  0.1803 -0.2327
 5483W        W 9547   8.332  10.304  11.332  0.0371 -0.1747  0.1843
 5484W        W 9548   1.573   0.999  10.155 -0.0016 -0.0026  0.4385
 5485W        W 9549   4.178   4.604   0.774  0.0062  0.1437 -0.1737
 5486W        W 9550  10.152   4.897   1.430  0.0245  0.1949 -0.1849
 5487W        W 9551   4.137   4.219   1.730 -0.1796  0.0383 -0.1970
 5488W        W 9552   8.971   6.343   8.675 -0.2017 -0.0859 -0.1584
 5489W        W 9553   9.053   1.379   2.954  0.0813  0.1132 -0.0871
 5490W        W 9554   6.291   5.873   1.484 -0.1928  0.0686 -0.0508
 5491W        W 9555   4.035   1.896  10.623 -0.3299 -0.0787 -0.2125
 5492W        W 9556   0.043   7.359  10.635  0.3793 -0.0621 -0.0448
 5493W        W 9557   2.060   6.209   8.737 -0.1532 -0.3225  0.2359
 5494W        W 9558  10.228   3.628   9.154 -0.2065  0.1464 -0.0417
 5495W        W 9559   3.628   2.458   2.417  0.0824  0.1957 -0.1151
 5496W        W 9560   3.002   6.927   7.862  0.0853  0.0953  0.2718
 5497W        W 9561   3.537   8.832  10.006 -0.0571  0.0966 -0.1021
 5498W        W 9562   9.037  10.410   1.858  0.0098 -0.2146 -0.0687
 5499W        W 9563   9.699   3.227  10.775  0.1803  0.3385  0.1719
 5500W        W 9564   8.516   7.370   8.694  0.1402 -0.0315  0.1108
 5501W        W 9565   0.506   3.438   2.883 -0.0578  0.1881 -0.2696
 5502W        W 9566   4.431   5.208   2.020 -0.1365 -0.4860 -0.3798
 5503W        W 9567   3.514   4.904  11.669 -0.2522 -0.0619  0.0371
 5504W        W 9568   4.888  10.395   8.474  0.0103 -0.2629 -0.3403
 5505W        W 9569   9.467   3.790   9.885 -0.2368 -0.0833 -0.0011
 5506W        W 9570   7.365   6.941  11.427  0.1520  0.1976 -0.3872
 5507W        W 9571   3.538   9.810   3.594  0.2357 -0.2794  0.0309
 5508W        W 9572   1.355  10.160   2.639 -0.0981  0.0048  0.0242
 5509W        W 9573   0.116   7.916  10.408  0.3371  0.2054  0.1478
 5510W        W 9574   5.516   8.659   7.880  0.2672 -0.3527 -0.1411
 5511W        W 9575   8.625   7.618  10.384 -0.0316  0.0884  0.0039
 5512W        W 9576   5.488   2.174   0.902 -0.0139 -0.3207  0.1711
 5513W        W 9577   7.503   1.299  10.505 -0.2836 -0.0654  0.0378
 5514W        W 9578   7.621   8.481   2.029  0.4761  0.1259  0.1936
 5515W        W 9579   8.369   0.256   4.388 -0.2720  0.0845  0.0673
 5516W        W 9580   5.081   8.402  10.879 -0.1026 -0.2714 -0.1077
 5517W        W 9581   5.341   8.789   8.341 -0.1485  0.0893  0.2686
 5518W        W 9582   1.928   9.361  10.608  0.2696  0.5094  0.0294
 5519W        W 9583   9.040   2.809   8.024 -0.0221  0.0072 -0.3623
 5520W        W 9584   3.550   1.597  10.670 -0.1127  0.2392  0.1786
 5521W        W 9585  10.167   3.344   9.935 -0.2354 -0.1163  0.2595
 5522W        W 9586   0.332   0.067  10.955  0.0809 -0.2170 -0.1460
 5523W        W 9587   4.510   3.693   1.480  0.3644 -0.2174  0.0364
 5524W        W 9588   4.004   7.941   3.536 -0.0711  0.4356 -0.1424
 5525W        W 9589   8.340   7.226  10.128  0.0889 -0.0886 -0.0439
 5526W        W 9590   0.387   8.626   3.657  0.1225 -0.2327  0.2996
 5527W        W 9591   6.006   8.254  11.668 -0.0658 -0.3525 -0.0601
 5528W        W 9592   2.562   1.419   9.843  0.1338 -0.0357  0.1013
 5529W        W 9593  10.386   8.688   3.812  0.3037 -0.2579 -0.1089
 5530W        W 9594   8.437   3.705   2.043 -0.0566 -0.0073 -0.0624
 5531W        W 9595   2.455   2.978   1.170  0.0037 -0.3685  0.0191
 5532W        W 9596   4.377   9.514   8.791  0.4354 -0.0453 -0.0318
 5533W        W 9597   2.025   4.617   2.274  0.0165  0.1935  0.1325
 5534W        W 9598   2.393   6.356   2.694  0.0418  0.1634 -0.0611
 5535W        W 9599   0.301   3.820  10.853 -0.0901 -0.5720 -0.2827
 5536W        W 9600   7.542   8.212   9.228  0.3791  0.0321 -0.0473
 5537W        W 9601  10.196   8.205  11.018  0.0857 -0.0805 -0.1127
 5538W        W 9602   8.784   0.732   3.003  0.3430  0.2458  0.0264
 5539W        W 9603   6.285  10.240   9.954 -0.1169  0.0102 -0.2894
 5540W        W 9604   9.899   7.359   8.570  0.0157  0.2068  0.3251
 5541W        W 9605   3.391   8.992   0.321  0.0541  0.0880 -0.1482
 5542W        W 9606   8.546   2.151   3.047 -0.1647 -0.1875  0.1729
 5543W        W 9607   0.467   7.384  11.633 -0.0592  0.1109  0.2133
 5544W        W 9608   0.986   1.413   8.162  0.2503  0.1738  0.1546
 5545W        W 9609   4.549   7.129  11.011  0.0969  0.0349 -0.1733
 5546W        W 9610   2.103   3.437   0.724  0.0521  0.2066  0.0757
 5547W        W 9611   7.630   8.801   0.012  0.4296  0.2620 -0.2029
 5548W        W 9612   9.541   2.272   2.086  0.0279 -0.0404  0.1759
 5549W        W 9613   6.055   2.711   0.951  0.1432  0.0842  0.0750
 5550W        W 9614   7.560   0.361   9.147 -0.0602  0.1300  0.0874
 5551W        W 9615   8.899   6.340   4.165  0.0851  0.6122  0.0621
 5552W        W 9616   0.020   5.129   8.589  0.0616 -0.1698 -0.3971
 5553W        W 9617   3.670   0.774   2.785  0.3159  0.2214  0.0694
 5554W        W 9618   8.304   8.770   2.223  0.1743 -0.1000  0.1429
 5555W        W 9619   3.774   7.169   8.332 -0.1042 -0.0631  0.2257
 5556W        W 9620   5.723   0.527   2.389 -0.0577 -0.0071  0.1312
 5557W        W 9621   2.790   8.934   0.876 -0.0405  0.1440 -0.1845
 5558W        W 9622   0.656   3.992   9.208 -0.0458 -0.3499 -0.1543
 5559W        W 9623   4.953   0.466   2.788 -0.0366 -0.0513  0.2949
 5560W        W 9624   7.702   0.560  10.315  0.0510 -0.3989 -0.0290
 5561W        W 9625   9.654   7.942   0.780  0.0389  0.0403 -0.1930
 5562W        W 9626   0.256   6.183  11.145  0.0069 -0.0799 -0.0805
 5563W        W 9627  10.286   7.112   2.787  0.0280  0.0481  0.0590
 5564W        W 9628   4.887   0.675   7.653 -0.3213 -0.2759  0.1351
 5565W        W 9629   2.142   7.588   2.025  0.2487  0.2686  0.1033
 5566W        W 9630   0.111   5.772   1.297  0.2029 -0.1234 -0.3091
 5567W        W 9631   5.837   8.447   8.326  0.0359 -0.0659  0.1555
 5568W        W 9632   6.870   0.714  10.774  0.0294 -0.1621  0.0519
 5569W        W 9633   9.440   7.628   8.581 -0.1425  0.0010  0.1765
 5570W        W 9634   4.427   3.987   9.611  0.4785  0.2244  0.0429
 5571W        W 9635   3.496   9.629   8.364  0.0817  0.1843 -0.0294
 5572W        W 9636   5.733   7.489   2.268 -0.1561  0.1487  0.1683
 5573W        W 9637  10.026   6.139  11.227  0.0853  0.0425 -0.0564
 5574W        W 9638   1.213   1.651  10.830 -0.0204 -0.2777 -0.0444
 5575W        W 9639   0.468   1.012   2.149  0.2458  0.0498 -0.3246
 5576W        W 9640   4.167   2.663   3.253  0.2837 -0.2245 -0.2022
 5577W        W 9641   0.946   8.894  10.152  0.0904  0.2424  0.2246
 5578W        W 9642   6.865   2.488  10.246  0.2556 -0.3143  0.2191
 5579W        W 9643   6.464   2.324   0.334 -0.2462  0.3212  0.0659
 5580W        W 9644   2.232   6.620   1.329 -0.0783  0.1914 -0.0803
 5581W        W 9645   0.880   2.586   8.138  0.0964  0.0102 -0.0768
 5582W        W 9646   2.892   1.815   9.041  0.0150  0.0138 -0.0613
 5583W        W 9647   0.239   4.321   3.135  0.1980 -0.1594 -0.0945
 5584W        W 9648   6.425  10.547   9.586 -0.2969 -0.2193  0.0490
 5585W        W 9649   9.410   4.827   0.291 -0.1422 -0.0936 -0.2746
 5586W        W 9650   1.454   6.117   9.567  0.0145 -0.2268 -0.3064
 5587W        W 9651   9.879   7.558   1.090  0.0011  0.1203 -0.1572
 5588W        W 9652   6.150   6.708   9.974 -0.1283 -0.3213 -0.1624
 5589W        W 9653   2.176   4.967   2.621 -0.2135 -0.0560 -0.0795
 5590W        W 9654   2.145   7.458   9.070 -0.2470  0.1757 -0.3007
 5591W        W 9655   0.587   4.337   1.872  0.0525 -0.2980  0.3229
 5592W        W 9656   2.207   8.945   9.210 -0.0873 -0.1321 -0.1153
 5593W        W 9657   6.603   3.675   2.687 -0.0421  0.1864  0.2907
 5594W        W 9658   9.818   5.325   0.852 -0.2827 -0.2745 -0.2121
 5595W        W 9659   3.042   8.770   8.807  0.1260  0.0933 -0.0279
 5596W        W 9660   1.032   7.837   2.948 -0.0233  0.0225 -0.0253
 5597W        W 9661   5.610   0.241   1.641  0.0079 -0.2393 -0.1718
 5598W        W 9662   4.084   3.022  11.512 -0.1797  0.2113 -0.0059
 5599W        W 9663   3.879   1.665   3.045  0.3105 -0.1205 -0.4264
 5600W        W 9664   3.808   6.315  10.352 -0.0702 -0.1009 -0.2069
 5601W        W 9665   2.869   0.485   2.403 -0.1378  0.1801 -0.0942
 5602W        W 9666   5.469   7.460  11.122 -0.0192  0.1357 -0.3284
 5603W        W 9667   0.764  10.132  10.089 -0.0169  0.0661  0.3480
 5604W        W 9668   1.826   8.345  10.821  0.0039  0.0695 -0.0992
 5605W        W 9669   2.022   0.514  10.627 -0.2784 -0.2482  0.2678
 5606W        W 9670   9.017   9.902   0.951  0.4131 -0.0504 -0.1550
 5607W        W 9671   6.592   7.899   9.621  0.0016 -0.0783 -0.0513
 5608W        W 9672   4.848   4.240   2.015 -0.0283 -0.0750 -0.3582
 5609W        W 9673   3.960   6.406   1.458  0.0274  0.2155  0.0075
 5610W        W 9674   5.840   7.089   1.129  0.1520 -0.0029  0.2161
 5611W        W 9675   8.300   3.095   7.861 -0.2091 -0.2786 -0.0883
 5612W        W 9676   5.501   5.902   1.902  0.1640 -0.2174  0.3050
 5613W        W 9677   7.740   5.273   2.776  0.2328  0.0240  0.1855
 5614W        W 9678   8.057   4.343   1.542 -0.0689 -0.0831 -0.0256
 5615W        W 9679   5.208   2.207   2.343  0.1679  0.3379 -0.1181
 5616W        W 9680   1.430   5.540   9.672  0.0004  0.0283 -0.0109
 5617W        W 9681  10.004   1.111  10.430  0.0475  0.0106  0.0874
 5618W        W 9682   0.481   8.166  10.027 -0.1322  0.0705 -0.2195
 5619W        W 9683   8.175   0.281   2.523  0.3084  0.3137 -0.0975
 5620W        W 9684   1.631   2.392   8.802 -0.0796  0.0403  0.2161
 5621W        W 9685   3.282   8.439   1.096  0.4191 -0.2729 -0.0291
 5622W        W 9686   8.538   8.869   3.278  0.3160 -0.1900 -0.1726
 5623W        W 9687   1.390   5.007   9.551 -0.0779  0.2182 -0.2096
 5624W        W 9688   3.034   6.946  11.275  0.0201  0.1541  0.0120
 5625W        W 9689   8.740   4.982  10.338 -0.0494 -0.1591  0.1261
 5626W        W 9690   5.007   6.781   1.976  0.0856  0.0854  0.2897
 5627W        W 9691   1.569   6.018   2.352 -0.1710  0.0126  0.3035
 5628W        W 9692   8.573   7.920   2.085  0.2273 -0.1085 -0.1397
 5629W        W 9693   7.691   3.832   3.391 -0.1650 -0.4343  0.1135
 5630W        W 9694   3.803   9.913  10.934  0.1334 -0.1171  0.0613
 5631W        W 9695   9.660   3.055   0.495  0.3109  0.0511  0.0022
 5632W        W 9696   8.573   8.365   0.059 -0.2699  0.2194  0.2406
 5633W        W 9697   5.354   3.498   2.297  0.2244  0.2698 -0.1304
 5634W        W 9698   5.756   3.456   2.583 -0.0334  0.2473 -0.2643
 5635W        W 9699   2.312   5.381  10.048  0.0282 -0.0898 -0.0164
 5636W        W 9700   9.148   3.618   2.724  0.0152  0.0696 -0.1145
 5637W        W 9701   6.599   1.496  10.841 -0.4392 -0.1423 -0.0892
 5638W        W 9702   8.922   1.319   1.852  0.3031  0.3461  0.1263
 5639W        W 9703   8.488   7.797  11.330 -0.2094  0.0803 -0.1046
 5640W        W 9704   4.166   9.218   0.967 -0.0602  0.5147 -0.0913
 5641W        W 9705   0.770   8.363   8.077  0.3179 -0.0494  0.1207
 5642W        W 9706   9.780   1.503  10.644  0.2459 -0.2834  0.1242
 5643W        W 9707   4.386   9.482   4.389 -0.0085  0.0271  0.2870
 5644W        W 9708   1.596   7.512  10.187 -0.2171 -0.2338 -0.0970
 5645W        W 9709   4.138   7.389  11.073  0.0535 -0.0170  0.1645
 5646W        W 9710   5.887   2.151   1.238 -0.2279 -0.0224 -0.0317
 5647W        W 9711   2.902   9.686   8.169  0.1071 -0.0100 -0.0389
 5648W        W 9712   0.242   9.832   9.704  0.0094  0.0541  0.2028
 5649W        W 9713   6.165   9.146   9.410 -0.0254 -0.0563  0.1396
 5650W        W 9714   8.028   2.857   2.424 -0.1079  0.1746 -0.0052
 5651W        W 9715   3.654   1.145   8.198 -0.4183  0.2928 -0.0001
 5652W        W 9716   8.718   2.910   9.253 -0.1103 -0.0043  0.2755
 5653W        W 9717   7.137   6.311   3.448 -0.2420  0.3448  0.1416
 5654W        W 9718  10.083   2.855  11.552  0.1089 -0.2062 -0.1434
 5655W        W 9719   1.765   3.588   3.174 -0.2623  0.1418 -0.1670
 5656W        W 9720   1.609   7.918   3.659 -0.0783  0.0840 -0.0201
 5657W        W 9721   5.339   0.534  10.106  0.2730 -0.1372  0.0528
 5658W        W 9722   6.972   8.124  11.662 -0.0519 -0.1735 -0.1890
 5659W        W 9723   1.090   0.352   9.711 -0.1459  0.0813  0.2112
 5660W        W 9724  10.543   8.442   3.427 -0.1318  0.1562 -0.0959
 5661W        W 9725   0.501   7.254  10.810  0.1210 -0.3947 -0.0228
 5662W        W 9726   5.430   7.603  10.156 -0.1966 -0.1273  0.0020
 5663W        W 9727   9.593   5.240   2.682  0.2786  0.0651 -0.1447
 5664W        W 9728   4.989   1.061   0.171  0.0596  0.2617  0.0335
 5665W        W 9729   2.545   0.289   1.161  0.4287 -0.0913  0.1023
 5666W        W 9730   1.603   0.016   2.798  0.2111 -0.1765 -0.5364
 5667W        W 9731   2.889   1.772   9.733 -0.0411 -0.0875  0.0336
 5668W        W 9732   8.192   7.825   3.723 -0.0197  0.1577 -0.0359
 5669W        W 9733   2.691   8.169   9.203 -0.3571 -0.3194 -0.1587
 5670W        W 9734   7.695   9.670   8.197  0.0900 -0.0378  0.2988
 5671W        W 9735   7.970   7.642   7.261 -0.1221 -0.0861  0.1087
 5672W        W 9736   5.265   1.979   3.210  0.1798  0.0608  0.0330
 5673W        W 9737   4.468   7.798   1.258 -0.1272 -0.1874 -0.0839
 5674W        W 9738   8.389   1.710   2.543  0.1225 -0.5930 -0.1898
 5675W        W 9739   4.899   6.468   8.238  0.0603  0.1976 -0.0173
 5676W        W 9740   3.963   2.074   3.768  0.1255  0.1346 -0.0702
 5677W        W 9741   5.661   4.250   0.082 -0.0750  0.2890 -0.0846
 5678W        W 9742   7.131   1.215   0.968  0.0431  0.0242  0.0695
 5679W        W 9743   9.130   0.012   2.441  0.0780  0.2073  0.0472
 5680W        W 9744   4.095   7.952   1.042 -0.2153  0.0891  0.2497
 5681W        W 9745   2.071   9.105   8.000  0.0961 -0.0220 -0.1166
 5682W        W 9746   6.955   4.558   1.060 -0.2256  0.0968 -0.0201
 5683W        W 9747   8.962   6.568   1.657 -0.3414  0.0878 -0.1239
 5684W        W 9748   7.523   8.790   8.960 -0.0760  0.3451 -0.3317
 5685W        W 9749   9.531   2.256   7.576 -0.0307  0.0298  0.1624
 5686W        W 9750   6.508   8.496   1.781  0.1121  0.0471  0.2527
 5687W        W 9751   0.033   6.827   3.123  0.2681 -0.3999 -0.2674
 5688W        W 9752   8.144   2.428   0.839 -0.1521  0.1556 -0.0908
 5689W        W 9753   8.701   3.203   9.703  0.1280 -0.3341 -0.2060
 5690W        W 9754   4.245   0.162   1.170 -0.1582  0.0664  0.0194
 5691W        W 9755   5.493   0.459   8.476 -0.0352 -0.0903  0.1148
 5692W        W 9756   1.769   2.786   9.096 -0.2321 -0.0235  0.0895
 5693W        W 9757   1.260   1.500  11.432  0.1880 -0.0339  0.3372
 5694W        W 9758   7.272   5.091   0.263  0.5594  0.1791 -0.2537
 5695W        W 9759   1.968   8.155   9.006  0.3256 -0.0736 -0.3015
 5696W        W 9760   9.041   2.799   1.843 -0.0161  0.3420 -0.2760
 5697W        W 9761   5.526   5.504   9.070  0.2025 -0.4185 -0.0907
 5698W        W 9762   3.622   8.071   1.288  0.2851  0.2287  0.3523
 5699W        W 9763   0.744   6.314   0.145 -0.2302  0.2037 -0.0111
 5700W        W 9764   4.813   4.995  10.026 -0.2271 -0.0149 -0.0755
 5701W        W 9765   9.348   8.553   9.173 -0.1073  0.0677  0.2768
 5702W        W 9766   6.594  10.047   2.741  0.3779 -0.1467  0.1899
 5703W        W 9767   3.942   9.661   3.910 -0.0395 -0.1307  0.1289
 5704W        W 9768   9.686   0.861   9.885 -0.0723 -0.1956  0.1497
 5705W        W 9769   2.907   8.516  10.544 -0.1203  0.2840  0.0078
 5706W        W 9770   2.255   6.607   1.807 -0.0531  0.2341 -0.0421
 5707W        W 9771   5.000   3.806   0.492 -0.3248  0.1926  0.0113
 5708W        W 9772   8.268   5.087   8.979 -0.0052  0.1127 -0.2769
 5709W        W 9773   5.330   8.653   1.696 -0.3203 -0.0421 -0.1418
 5710W        W 9774   5.100   9.911   3.906 -0.1539  0.1912  0.0755
 5711W        W 9775   9.474   5.708   3.870  0.1197  0.0581  0.4205
 5712W        W 9776   7.979   0.766   9.348  0.0126 -0.0494  0.3598
 5713W        W 9777   8.104   1.239   7.921 -0.0991 -0.1558  0.1571
 5714W        W 9778   1.660   1.210   9.462  0.2598  0.1576  0.1112
 5715W        W 9779   4.354   8.606   8.856  0.1896  0.1960 -0.2158
 5716W        W 9780   7.431   6.593   9.609  0.4165 -0.0596  0.2636
 5717W        W 9781   2.761   5.301  10.456  0.2250  0.1755  0.2681
 5718W        W 9782   3.387   3.346   9.856  0.0829  0.0207  0.0082
 5719W        W 9783   7.654   8.399   3.576 -0.3781  0.2130  0.2457
 5720W        W 9784   4.854   6.751   9.151  0.1681 -0.0247 -0.0939
 5721W        W 9785   0.667   5.666   8.488  0.0663  0.4326 -0.2562
 5722W        W 9786   6.743   0.786   2.654  0.4070 -0.1836 -0.0935
 5723W        W 9787   9.360   6.756   3.527 -0.3302 -0.1605 -0.2181
 5724W        W 9788   1.977   1.516   2.264  0.0791 -0.1296 -0.0990
 5725W        W 9789   0.826   6.679   0.446 -0.0126 -0.2846 -0.4772
 5726W        W 9790   1.285   1.933   0.077 -0.0514  0.0702 -0.2248
 5727W        W 9791   8.184   7.453   0.479 -0.3676  0.0645  0.1853
 5728W        W 9792   3.515   8.463   8.763 -0.1817 -0.0859 -0.2485
 5729W        W 9793   9.797   0.977   8.896 -0.3450  0.2297 -0.1206
 5730W        W 9794   5.359  10.415   2.428  0.1841 -0.0151 -0.3275
 5731W        W 9795   3.315   4.200  10.149  0.0058  0.1761  0.1483
 5732W        W 9796   7.710   2.146   1.858 -0.2182 -0.4168  0.1018
 5733W        W 9797   8.555   3.841   0.223  0.1342  0.0126 -0.1028
 5734W        W 9798   5.948   0.571   1.398  0.0787 -0.0606  0.0394
 5735W        W 9799   4.419  10.323   9.861  0.1302 -0.0974  0.2257
 5736W        W 9800   6.459   6.206   9.891  0.2414 -0.2069  0.0548
 5737W        W 9801   8.872   2.993   1.430 -0.0117  0.1467 -0.1593
 5738W        W 9802  10.366   4.481   1.379  0.1078 -0.0115 -0.2159
 5739W        W 9803   4.755   1.402   9.660  0.1721  0.2284  0.2909
 5740W        W 9804   5.488   7.499   3.582 -0.1413 -0.0397 -0.2896
 5741W        W 9805   9.476   2.249  10.711 -0.0527 -0.0163 -0.0949
 5742W        W 9806   1.240  10.119   1.991  0.0300 -0.0328 -0.1616
 5743W        W 9807   7.662  10.405  10.634 -0.1770 -0.0235 -0.1189
 5744W        W 9808   3.573   5.629   2.091 -0.0458 -0.2407  0.0275
 5745W        W 9809   0.907  10.191  11.479  0.0167  0.1898 -0.0350
 5746W        W 9810   4.323   8.216   3.321 -0.1051 -0.1513 -0.2731
 5747W        W 9811   1.425   3.875   1.338 -0.0387  0.1641  0.0032
 5748W        W 9812   0.714   2.687  10.000  0.2128 -0.4283 -0.1853
 5749W        W 9813   6.904   8.075   2.493 -0.3391  0.3282  0.1307
 5750W        W 9814   2.088   8.325   3.187 -0.2090 -0.0992  0.0723
 5751W        W 9815   8.544   2.046   8.860 -0.0344 -0.2176 -0.3157
 5752W        W 9816   5.790   5.694   8.307 -0.0247  0.0981 -0.1799
 5753W        W 9817   6.187   3.406   2.306 -0.3415  0.0744  0.1634
 5754W        W 9818   1.865   2.839  10.739 -0.1493  0.0505 -0.4049
 5755W        W 9819   6.907   9.056   9.669  0.2327 -0.1151  0.0168
 5756W        W 9820   2.458   5.345   2.947  0.1794  0.2932  0.0608
 5757W        W 9821   5.163  10.426   3.951  0.2110  0.4418 -0.2226
 5758W        W 9822   8.544   2.050   2.104 -0.1306 -0.2874 -0.2301
 5759W        W 9823   5.732   6.509   2.479 -0.1996 -0.4987 -0.0673
 5760W        W 9824   3.963   2.508   1.971 -0.0215  0.2192 -0.4071
 5761W        W 9825   7.158   1.229   9.615  0.0194  0.2580  0.1618
 5762W        W 9826   0.670   6.197   0.693 -0.0860  0.1347  0.2833
 5763W        W 9827   3.471   9.238   9.712 -0.0723  0.1086 -0.3410
 5764W        W 9828   3.794   6.929  10.476 -0.3210  0.4669  0.1468
 5765W        W 9829   1.530   0.009   8.529  0.1672 -0.0139  0.1046
 5766W        W 9830   0.208   5.700  11.290  0.0252 -0.1805  0.0172
 5767W        W 9831   6.292   9.512   7.522  0.1058 -0.0560 -0.2834
 5768W        W 9832   0.852   8.053   1.472  0.0391  0.2013 -0.2216
 5769W        W 9833   6.602   3.117   2.870 -0.1190  0.1462  0.1263
 5770W        W 9834   4.389  10.358   8.433  0.0101  0.0747 -0.2319
 5771W        W 9835   5.023   0.121   1.592  0.0615 -0.4859 -0.0933
 5772W        W 9836   6.833   9.263   3.046 -0.1056  0.3236  0.1055
 5773W        W 9837   9.512   7.395   8.123 -0.2180 -0.6349 -0.0127
 5774W        W 9838   8.044   1.986   8.991 -0.0427 -0.0553  0.0948
 5775W        W 9839   7.069   6.415   9.893 -0.0437  0.0431 -0.2719
 5776W        W 9840   8.823   2.882   2.277 -0.3259 -0.1851 -0.0807
 5777W        W 9841   2.215   2.419   2.202  0.0031 -0.0504 -0.1800
 5778W        W 9842   9.049   6.315  10.861  0.1438  0.2282 -0.0613
 5779W        W 9843   4.150   6.055   3.220  0.2332  0.3689  0.0006
 5780W        W 9844   4.269   4.666   1.520 -0.2690 -0.2561 -0.1643
 5781W        W 9845   7.730   0.845   4.139  0.0195  0.0071  0.0338
 5782W        W 9846   5.347   1.585   7.579  0.1942  0.0026  0.0688
 5783W        W 9847   7.041   0.241   2.057  0.1976 -0.2518 -0.2156
 5784W        W 9848   5.491  10.232  10.075  0.1402 -0.0198  0.0579
 5785W        W 9849   4.475   0.965   8.913 -0.1650  0.0542 -0.1142
 5786W        W 9850   6.556   0.273   8.231  0.4126  0.0447  0.0977
 5787W        W 9851   6.281   4.006   0.584  0.3987  0.2234  0.0764
 5788W        W 9852   8.359   6.852   2.649 -0.0989 -0.2448 -0.1008
 5789W        W 9853   1.876   4.981   1.099  0.2245  0.2934 -0.1658
 5790W        W 9854   3.309   5.360   3.439 -0.0807  0.0915  0.1121
 5791W        W 9855   4.638   9.705  11.672  0.0162 -0.1964  0.0028
 5792W        W 9856   7.239   1.896   9.028 -0.0325 -0.0878  0.3688
 5793W        W 9857   7.580   3.554  10.427 -0.2688 -0.1398 -0.1278
 5794W        W 9858   6.103   4.601   1.117 -0.0707  0.1178 -0.0495
 5795W        W 9859   8.542   9.842   1.042 -0.2075 -0.0120  0.3034
 5796W        W 9860   6.535   4.227   1.081  0.0443  0.0436 -0.1386
 5797W        W 9861   4.911   8.580   2.010  0.1194 -0.2552  0.3259
 5798W        W 9862  10.276   9.017   0.033 -0.0981 -0.3136 -0.1089
 5799W        W 9863   9.768   4.982   3.665 -0.0550 -0.1697 -0.1372
 5800W        W 9864   3.010   7.815   0.127 -0.1693 -0.0821  0.1151
 5801W        W 9865   5.403   2.435   8.080  0.4448  0.0614  0.1226
 5802W        W 9866   0.323   8.268   8.854 -0.1193  0.0550 -0.0371
 5803W        W 9867   6.728   4.808   4.093 -0.4627  0.2313  0.1283
 5804W        W 9868   6.054   2.543   9.063  0.2031 -0.3248  0.2890
 5805W        W 9869   7.895   3.902   9.703 -0.1396 -0.2803  0.0606
 5806W        W 9870   9.052   2.039   8.634  0.1701  0.2098  0.1055
 5807W        W 9871   8.727   2.197   2.530 -0.2661 -0.1896  0.0857
 5808W        W 9872  10.398   7.814   1.054  0.0988  0.0612  0.1382
 5809W        W 9873   3.006   2.824   8.417 -0.2396 -0.0568  0.0050
 5810W        W 9874   2.156   6.382   0.837 -0.3461  0.2746 -0.2759
 5811W        W 9875   4.438   9.233   3.528  0.1512 -0.0383 -0.1226
 5812W        W 9876   6.140   1.090   1.291  0.0023  0.1803  0.2561
 5813W        W 9877   8.000   6.162   7.517 -0.0568  0.0946 -0.0050
 5814W        W 9878   1.031   6.046  10.984  0.0212 -0.2208  0.1610
 5815W        W 9879   3.355   0.271  10.884 -0.0192 -0.0147 -0.0569
 5816W        W 9880   7.460   8.550   1.537 -0.0577 -0.1046  0.1190
 5817W        W 9881   5.945   2.540   2.811 -0.1517  0.0392 -0.2566
 5818W        W 9882   0.410  10.371   9.748  0.0668  0.0503  0.1153
 5819W        W 9883   9.441   6.768  11.660  0.0824  0.2602 -0.0701
 5820W        W 9884   4.204   5.264   3.968  0.3665 -0.2732 -0.0028
 5821W        W 9885   2.812   4.734   9.704  0.0068  0.0604  0.0575
 5822W        W 9886   4.585   5.210   9.605 -0.0066  0.2368  0.0928
 5823W        W 9887   6.778   5.850   1.514 -0.0783 -0.2411  0.2039
 5824W        W 9888   2.844   2.643   1.369  0.4208 -0.1955  0.0763
 5825W        W 9889   0.951   7.361  11.427 -0.0738  0.0446 -0.0588
 5826W        W 9890   9.564   0.233   1.066  0.2906 -0.3006  0.0300
 5827W        W 9891   2.638   0.107   0.683 -0.0651  0.0252  0.0577
 5828W        W 9892   6.714   8.417   3.415  0.1136 -0.0432  0.0968
 5829W        W 9893   4.553   1.355  11.475  0.1583 -0.0285  0.0049
 5830W        W 9894   9.949   5.641   2.724  0.3857 -0.0623  0.1172
 5831W        W 9895   4.674   3.943   2.367 -0.0284  0.2654  0.0596
 5832W        W 9896   8.140   8.852   3.841  0.0251 -0.0426 -0.1711
 5833W        W 9897   2.784   6.856   0.075  0.3528  0.1320  0.0889
 5834W        W 9898   8.345  10.220   9.897  0.0276 -0.1089 -0.7090
 5835W        W 9899   7.141   5.642   9.624 -0.1333  0.1623  0.3450
 5836W        W 9900   2.878   7.274   2.005  0.0999  0.2510 -0.1714
 5837W        W 9901   4.764   6.709   1.543  0.3627  0.0547  0.2314
 5838W        W 9902   2.762  10.162   9.725 -0.1762 -0.0214 -0.0598
 5839W        W 9903   2.618   0.609   0.824  0.2221 -0.2219  0.0586
 5840W        W 9904   6.273   4.035   8.367  0.4431 -0.0551 -0.0902
 5841W        W 9905   9.356   1.506   1.957 -0.1522  0.1390  0.0979
 5842W        W 9906   3.688  10.239  11.664 -0.3570 -0.2533 -0.0174
 5843W        W 9907   4.483   3.675   0.650  0.0637 -0.1093  0.0966
 5844W        W 9908   7.217   1.481  11.406  0.0321 -0.0376 -0.1078
 5845W        W 9909   5.225   3.067   9.862  0.0036  0.0272 -0.0061
 5846W        W 9910   3.840   4.512  10.823  0.1292  0.0040  0.1689
 5847W        W 9911   0.273   2.176   2.988 -0.1460  0.1138  0.3928
 5848W        W 9912   7.638   3.608   1.826  0.1699  0.0821  0.0450
 5849W        W 9913   3.358   4.004   7.869  0.0380  0.0756  0.1735
 5850W        W 9914   0.810   7.960   0.943 -0.0185  0.0431 -0.0395
 5851W        W 9915   2.704   6.873   1.727  0.0927 -0.1556  0.2957
 5852W        W 9916   5.678   6.972   2.808  0.0603 -0.0684 -0.0601
 5853W        W 9917   1.073   7.042   2.830  0.0131  0.2418  0.1651
 5854W        W 9918   0.884   9.697  11.602 -0.0477 -0.1077 -0.1577
 5855W        W 9919   2.540   2.808  10.706 -0.0666  0.2104  0.3500
 5856W        W 9920   4.732   2.839  11.400 -0.0511 -0.2358  0.1033
 5857W        W 9921  10.126   8.937   2.247  0.1085  0.0083 -0.2511
 5858W        W 9922   2.664   4.478   0.091  0.2660  0.1001 -0.0817
 5859W        W 9923   9.464   8.521   0.973 -0.3404  0.0150 -0.0747
 5860W        W 9924   1.754   3.382   1.086 -0.1460  0.1604 -0.0975
 5861W        W 9925   6.899   0.913   7.710  0.2205  0.1755 -0.0350
 5862W        W 9926   8.828   8.508   9.396  0.0271 -0.0045 -0.0468
 5863W        W 9927   1.757   3.068   2.985 -0.0303  0.2359 -0.0347
 5864W        W 9928   2.845   6.121   2.496 -0.0928  0.0128  0.0985
 5865W        W 9929   4.688   8.535  11.603  0.0077  0.1298  0.1727
 5866W        W 9930   0.347   0.321   1.281 -0.0720  0.3858  0.1357
 5867W        W 9931   2.620   0.053  10.085 -0.0861 -0.1834 -0.0509
 5868W        W 9932   7.516   7.370   3.197 -0.1749  0.0925 -0.0814
 5869W        W 9933   9.127   5.581  10.858  0.1340 -0.1094 -0.0139
 5870W        W 9934   4.915   4.395   8.255  0.0475 -0.1424 -0.2138
 5871W        W 9935   7.174   0.339   2.623 -0.0897 -0.0744  0.0400
 5872W        W 9936   5.606   6.138   4.400 -0.0213 -0.2222  0.0425
 5873W        W 9937   9.607   8.725  10.314  0.2972 -0.0178  0.0112
 5874W        W 9938   6.171   2.731  10.331  0.3147 -0.1885  0.1194
 5875W        W 9939   8.703   6.736  11.108 -0.0708 -0.2818  0.2605
 5876W        W 9940  10.537   1.669   0.455  0.0576  0.1099  0.0072
 5877W        W 9941   7.378   3.064   9.443 -0.1214 -0.0598 -0.1184
 5878W        W 9942   2.416  10.322   0.190 -0.1229 -0.0695 -0.2749
 5879W        W 9943   9.865   8.217   3.704 -0.1411 -0.0482 -0.1509
 5880W        W 9944   9.963   4.632  10.495  0.2484 -0.0280 -0.0526
 5881W        W 9945   9.599   6.026   2.846  0.0305 -0.0870  0.0216
 5882W        W 9946   3.055   2.912   9.935  0.0597  0.0610  0.1538
 5883W        W 9947   7.856   9.015   2.978  0.1201  0.1098  0.1960
 5884W        W 9948   1.467   8.120   9.548  0.0792 -0.0949 -0.0337
 5885W        W 9949   1.660   0.932  10.688  0.3000  0.1262  0.0169
 5886W        W 9950   1.330   9.696   8.902  0.0877  0.3617  0.1078
 5887W        W 9951   6.531   4.947  10.055  0.0861  0.0346 -0.0376
 5888W        W 9952   3.816   6.010   0.239 -0.1179  0.1827 -0.1087
 5889W        W 9953  10.342   8.474   2.394  0.3603  0.1181 -0.2996
 5890W        W 9954   4.558   8.443   0.401  0.0475 -0.5046  0.0064
 5891W        W 9955  10.484   9.648   2.690 -0.1494 -0.0852  0.1420
 5892W        W 9956   7.107   5.163   2.136  0.0078 -0.0899 -0.0448
 5893W        W 9957   7.733   4.246   0.536  0.0683  0.2161 -0.1465
 5894W        W 9958   0.412   7.545  10.233  0.3319  0.3088  0.0109
 5895W        W 9959   9.285   4.017   9.438 -0.1130 -0.0835 -0.1683
 5896W        W 9960   6.215   0.807   2.694 -0.1754  0.1930  0.2228
 5897W        W 9961   3.984   3.787   1.458  0.0420 -0.2192  0.1078
 5898W        W 9962   0.278   8.325   3.053 -0.0931 -0.2503  0.0752
 5899W        W 9963   4.909  10.409   0.469 -0.2886 -0.1215 -0.3154
 5900W        W 9964   5.719   6.952  11.032  0.0307  0.2900 -0.2093
 5901W        W 9965   2.662   3.808   9.673 -0.4372 -0.2504 -0.0520
 5902W        W 9966   5.082   7.322  10.274 -0.2701 -0.0313  0.0642
 5903W        W 9967   6.293   4.556   8.487  0.0068  0.0602  0.0370
 5904W        W 9968   7.897   6.670   2.589 -0.0390  0.1639 -0.0332
 5905W        W 9969   6.252   4.123   9.930 -0.0676 -0.0065 -0.1820
 5906W        W 9970   5.463   8.597   9.362  0.0089 -0.1983  0.4359
 5907W        W 9971   1.871   5.459   0.945  0.2283 -0.1779 -0.1211
 5908W        W 9972   8.887   6.890   2.985  0.2888 -0.0764  0.0457
 5909W        W 9973  10.308   8.086  10.095  0.1891 -0.1944 -0.0557
 5910W        W 9974   0.084   6.646   9.558 -0.0769  0.0026 -0.1922
 5911W        W 9975   4.440   5.278   2.573 -0.1861 -0.1570 -0.3250
 5912W        W 9976   4.485   2.838  10.165  0.0427 -0.0303 -0.0483
 5913W        W 9977   3.263   0.831   3.689  0.2526  0.0623  0.0718
 5914W        W 9978   3.627   5.707  10.468  0.3210 -0.3233 -0.1814
 5915W        W 9979   6.693   6.309  10.409  0.0916 -0.1084  0.1179
 5916W        W 9980   6.170   2.753  11.084 -0.0189 -0.0747 -0.2800
 5917W        W 9981   7.388   9.674   2.816 -0.0458  0.1622  0.0256
 5918W        W 9982   1.243   1.964  11.278  0.0975 -0.0112 -0.1653
 5919W        W 9983   1.782   5.620  11.585  0.0230  0.0248  0.2798
 5920W        W 9984   9.004   9.421   9.529 -0.1771 -0.1476  0.4728
 5921W        W 9985   7.541   5.743  11.142  0.0736 -0.3399  0.1759
 5922W        W 9986   8.799   7.162   3.590  0.0763  0.3394 -0.2313
 5923W        W 9987   6.237   6.267   0.711 -0.1839 -0.1866 -0.0663
 5924W        W 9988   3.189   6.347   0.811  0.0079  0.0956  0.0586
 5925W        W 9989   3.519   5.312   2.635 -0.1758  0.0776 -0.4639
 5926W        W 9990   2.628   7.924   1.913 -0.0448  0.0261  0.1093
 5927W        W 9991   2.533   8.631   0.558  0.3365 -0.2822  0.2289
 5928W        W 9992   7.544   6.423   1.302  0.1679  0.1587 -0.0392
 5929W        W 9993   6.794   4.261   2.142 -0.2481 -0.1678  0.3429
 5930W        W 9994   4.607   7.593   8.913  0.0140  0.3194  0.2425
 5931W        W 9995   6.541   0.488   7.550  0.1627 -0.1844 -0.1285
 5932W        W 9996   0.840   2.416   2.716  0.0416 -0.2790  0.0324
 5933W        W 9997   0.707   2.770   1.573 -0.1113  0.1032 -0.0658
 5934W        W 9998   6.126   8.701   9.089  0.1233  0.0703  0.0229
 5935W        W 9999   8.567   1.601   9.273 -0.1999 -0.2974  0.0611
 5936W        W10000   3.311   1.733   3.073 -0.2614 -0.0750 -0.0238
 5937W        W10001   4.941  10.455   7.513 -0.1021 -0.2136 -0.0418
 5938W        W10002   2.331   7.122   0.416  0.0966  0.0572  0.2694
 5939W        W10003   6.855   8.007  10.663 -0.2632 -0.1329 -0.1348
 5940W        W10004   8.855   1.426   2.368  0.1763 -0.0338  0.1039
 5941W        W10005   0.066   2.517   1.215 -0.1677 -0.1022  0.0411
 5942W        W10006   4.052   5.234  10.662 -0.4795 -0.1208 -0.1865
 5943W        W10007   3.765   1.326   0.581 -0.0681  0.0230 -0.5547
 5944W        W10008   4.234   5.464   0.948  0.1355 -0.0268 -0.0301
 5945W        W10009   3.645   6.675   9.518  0.0366  0.2038 -0.0612
 5946W        W10010   7.577   1.653   1.861 -0.0297  0.1361  0.0096
 5947W        W10011   7.912   1.798   0.142  0.2073 -0.0500 -0.1371
 5948W        W10012   5.881   7.225   3.730  0.4616 -0.2556  0.4032
 5949W        W10013   7.554   9.228   0.714 -0.2631 -0.0296  0.0679
 5950W        W10014   2.783   4.599   1.488 -0.0085  0.1568  0.1947
 5951W        W10015   6.992   7.375   8.997 -0.4361  0.0192 -0.0625
 5952W        W10016  10.269   5.953   2.611 -0.0778 -0.0371  0.0909
 5953W        W10017   6.384   7.078   1.703  0.1024  0.3389  0.0743
 5954W        W10018   7.099   3.146   0.366  0.3828  0.0706  0.1555
 5955W        W10019   3.996   1.685  10.025 -0.4523 -0.1372 -0.3519
 5956W        W10020   6.599   5.082  11.147  0.1334  0.0894  0.1882
 5957W        W10021   3.656   1.989  10.974  0.0244 -0.0303 -0.0192
 5958W        W10022   0.911   3.614  11.467 -0.0985 -0.1374  0.1835
 5959W        W10023   7.642   1.983   0.545 -0.0767  0.1395  0.2788
 5960W        W10024  10.307   7.173   0.658 -0.0119 -0.1990 -0.0672
 5961W        W10025   8.128   1.860   1.853  0.2613 -0.0690  0.0259
 5962W        W10026   6.509   1.229   2.757 -0.2925  0.2301 -0.1104
 5963W        W10027   7.438   4.852   8.795 -0.2746 -0.2429 -0.4925
 5964W        W10028   9.407   3.995  10.868 -0.2270 -0.1706  0.0327
 5965W        W10029   6.807   8.752   3.011  0.0327  0.1511 -0.0286
 5966W        W10030   2.986   1.342   1.768  0.4462  0.0199  0.0147
 5967W        W10031   2.499   0.417   8.690  0.0181  0.3415  0.0509
 5968W        W10032   3.689   3.881   8.393 -0.0751 -0.0420 -0.0775
 5969W        W10033   8.812   9.273   9.936 -0.1703  0.2123 -0.0410
 5970W        W10034   9.480   5.675   4.339  0.0313 -0.0411  0.0542
 5971W        W10035   5.417   4.801   0.410  0.4413  0.1873 -0.0628
 5972W        W10036   4.949   2.613  10.047 -0.0353  0.3664 -0.0747
 5973W        W10037   4.548   6.255   1.511 -0.1196  0.1912 -0.0042
 5974W        W10038   5.963   7.674   1.848  0.2106 -0.2507 -0.0000
 5975W        W10039   4.843   0.612  11.587 -0.1373  0.2293 -0.0630
 5976W        W10040   5.955   0.453   8.853  0.1305  0.0611  0.0369
 5977W        W10041   2.422   4.599  11.166 -0.0597 -0.0439 -0.0846
 5978W        W10042   6.200   0.533  11.535 -0.0996 -0.1533 -0.2083
 5979W        W10043   1.198   0.365   9.229 -0.1708  0.2478 -0.2115
 5980W        W10044   0.689   9.464   7.755  0.0753  0.1192 -0.2261
 5981W        W10045   3.955   5.494   1.342  0.2890  0.2294 -0.1788
 5982W        W10046   3.129   2.366  11.283 -0.0717  0.2028  0.0755
 5983W        W10047   9.548   1.294   0.611 -0.0244  0.4178  0.2976
 5984W        W10048   4.816  10.546   3.577 -0.0088 -0.0566 -0.0304
 5985W        W10049   7.287   9.259   1.168 -0.0120 -0.0761 -0.2097
 5986W        W10050   6.859   2.016  10.465 -0.2563  0.0735 -0.0917
 5987W        W10051   4.562   8.010   0.585  0.0270  0.1186 -0.1736
 5988W        W10052   3.343   6.081   2.245  0.0591 -0.1412  0.1762
 5989W        W10053   7.496   7.262   1.738 -0.2592  0.2216 -0.1452
 5990W        W10054   9.732   3.689  11.043 -0.1045 -0.0317  0.2585
 5991W        W10055   0.049   1.692  10.230 -0.0035 -0.2322  0.1301
 5992W        W10056   5.197   0.647  11.248 -0.0646 -0.0761 -0.0787
 5993W        W10057   3.978   6.986   1.116  0.0413  0.0263 -0.3159
 5994W        W10058   8.408   0.601   1.404  0.1430  0.1047 -0.1863
 5995W        W10059   1.403   2.249   1.363  0.0775  0.0819 -0.0435
 5996W        W10060   2.333   5.010   9.437  0.0854  0.3828 -0.1024
 5997W        W10061   9.922   3.282  11.253 -0.4075  0.1026  0.0843
 5998W        W10062   2.048   6.825  10.733 -0.1333 -0.3828  0.2576
 5999W        W10063   6.533   2.178   3.267  0.0093 -0.0365  0.1712
 6000W        W10064  10.003   0.990   3.099 -0.0161 -0.0874  0.1421
 6001W        W10065   0.346   1.251   1.708 -0.0184  0.1266 -0.0334
 6002W        W10066   0.581   9.081  10.479 -0.0178  0.2863 -0.2811
 6003W        W10067  10.165   1.484   2.906  0.0737 -0.2893 -0.0381
 6004W        W10068   7.123   4.882   1.671  0.1079 -0.0024 -0.4175
 6005W        W10069   3.259   0.442   2.840 -0.2398  0.0377  0.0369
 6006W        W10070   6.593   7.373   1.330  0.0569 -0.2262 -0.2372
 6007W        W10071   1.180   1.041   1.013  0.2307 -0.0907  0.1468
 6008W        W10072   8.473   2.627   8.067  0.1513  0.1621 -0.0990
 6009W        W10073   5.576   3.407   3.700  0.0746 -0.3005  0.1268
 6010W        W10074   9.769   8.736   7.935  0.4335  0.3155 -0.0535
 6011W        W10075   7.963   7.659   3.221 -0.0681  0.4001 -0.2351
 6012W        W10076   9.244   9.926   8.672 -0.0990  0.0847  0.0033
 6013W        W10077   1.959   0.270   1.868 -0.2057 -0.4033  0.0013
 6014W        W10078   6.362   1.302   0.243 -0.0842 -0.1680 -0.1338
 6015W        W10079   6.992   3.380   9.253  0.4464  0.1444 -0.0111
 6016W        W10080  10.381   0.978   9.713  0.1670 -0.3916  0.1080
 6017W        W10081  10.193   1.618   7.625  0.1148  0.2405  0.0736
 6018W        W10082   2.153   5.059   8.215  0.0654 -0.1213 -0.0970
 6019W        W10083   3.509   2.566  11.033  0.0092  0.3736  0.2925
 6020W        W10084   6.680   5.329   8.430  0.1478  0.1297  0.3299
 6021W        W10085   5.353   7.851   8.287  0.1615 -0.3760  0.0380
 6022W        W10086   5.820   3.855   0.358 -0.0773  0.0300  0.3473
 6023W        W10087   6.504   6.673   0.536  0.2362 -0.0862 -0.0432
 6024W        W10088   4.495   9.901   3.137 -0.1848 -0.1605  0.0580
 6025W        W10089   4.964   6.268   3.602 -0.0482  0.3311 -0.2440
 6026W        W10090   5.704   9.432  10.473 -0.2314 -0.0238 -0.0510
 6027W        W10091   1.840   5.903   2.764  0.0117 -0.0941 -0.0980
 6028W        W10092   1.919   8.000   2.170  0.0663 -0.0956 -0.0305
 6029W        W10093   5.051   4.370   1.177  0.0479 -0.0904 -0.0237
 6030W        W10094   8.513   3.026   2.682 -0.0078 -0.2069  0.1102
 6031W        W10095   2.088   1.121   8.009 -0.1326 -0.1372  0.0208
 6032W        W10096   1.631   9.276   1.478 -0.1358 -0.2087  0.0741
 6033W        W10097   7.446   9.023   9.909  0.1735 -0.2562 -0.1329
 6034W        W10098   9.687   5.004   1.223  0.0603  0.4400 -0.1667
 6035W        W10099   3.160   0.882   1.027  0.1249  0.0103  0.1176
 6036W        W10100   7.081   3.550   0.930  0.1481  0.2967 -0.6857
 6037W        W10101   8.761   9.710   8.608 -0.3849 -0.0221 -0.1299
 6038W        W10102   6.043   4.698   8.939 -0.3491 -0.2762 -0.1785
 6039W        W10103   8.353   5.345   1.436 -0.1136 -0.3936 -0.2092
 6040W        W10104   6.696   6.144   0.675 -0.1332  0.2537 -0.3146
 6041W        W10105  10.085   6.005   8.832  0.0620  0.1489  0.1425
 6042W        W10106   7.105   3.034   9.982  0.1348 -0.0996 -0.0805
 6043W        W10107   9.839   6.267   0.621  0.0204  0.1261 -0.0249
 6044W        W10108   3.575   9.365  11.602  0.3664  0.0352 -0.1624
 6045W        W10109   4.303   8.159   3.869 -0.1930 -0.1920  0.0114
 6046W        W10110   1.151   1.671   8.559  0.2288 -0.2434  0.2818
 6047W        W10111   2.348   8.746   2.583  0.0034  0.1123 -0.4464
 6048W        W10112   2.017   4.153   8.989  0.1620  0.0162 -0.2791
 6049W        W10113   0.056   2.237   9.439  0.2262 -0.0373 -0.0254
 6050W        W10114   2.179   3.803   7.975 -0.1854 -0.1859 -0.4531
 6051W        W10115   2.037   1.348   1.810 -0.3316  0.1276  0.1872
 6052W        W10116   9.707   5.126   3.180 -0.0407 -0.2530 -0.0170
 6053W        W10117   5.568   9.249   2.293 -0.1325  0.1242 -0.1862
 6054W        W10118   7.480   0.901   9.112  0.0354  0.1069 -0.2155
 6055W        W10119   7.638   8.013   3.165  0.2340 -0.0354 -0.0197
 6056W        W10120   3.424   8.095   3.723 -0.0150 -0.2135  0.0040
 6057W        W10121   5.321   6.794   2.477 -0.0227 -0.1168 -0.2260
 6058W        W10122   5.576   2.999   2.247 -0.1186 -0.1090  0.0622
 6059W        W10123   8.815   1.512   8.372  0.1271 -0.0788 -0.1684
 6060W        W10124   4.858   6.813  11.386 -0.2689 -0.1684 -0.2447
 6061W        W10125   0.491   9.370   0.068 -0.1760  0.0765  0.2478
 6062W        W10126   0.507   7.484   9.070 -0.0129 -0.0194 -0.0957
 6063W        W10127   5.151   6.510   8.730 -0.0641 -0.3039  0.1157
 6064W        W10128   5.822   7.936   8.539 -0.1674 -0.1708 -0.1209
 6065W        W10129   6.013   3.934  10.563 -0.1389  0.1849 -0.2527
 6066W        W10130   2.773   5.492   9.968 -0.5251 -0.3406 -0.0813
 6067W        W10131   5.259   6.015  10.654 -0.2481 -0.3235 -0.0131
 6068W        W10132   6.771   1.252  11.463  0.0324 -0.2738 -0.2847
 6069W        W10133   8.329   8.035   9.477  0.0814  0.1375 -0.0619
 6070W        W10134   0.998   9.587   7.358 -0.0429  0.0221 -0.0426
 6071W        W10135   6.803   5.525   2.968 -0.2287 -0.2830  0.3244
 6072W        W10136   1.263   3.582   9.924 -0.0333 -0.3457 -0.0413
 6073W        W10137   4.235   9.500   3.028  0.1109  0.0122  0.0598
 6074W        W10138   8.203   0.601  11.138 -0.0339  0.1506  0.3993
 6075W        W10139   3.504   1.325   3.905 -0.2517 -0.0410 -0.0777
 6076W        W10140   3.061   9.732   0.997 -0.1974 -0.4419 -0.0957
 6077W        W10141   3.118   2.511   9.600 -0.0671 -0.1850 -0.1534
 6078W        W10142   8.671   9.165   8.398  0.1462 -0.0947  0.0479
 6079W        W10143  10.238   4.834   8.398  0.3386  0.3565 -0.1824
 6080W        W10144   0.606   5.059   0.419  0.0632 -0.0581  0.1325
 6081W        W10145   8.988   3.891  11.657  0.3299  0.0522  0.0943
 6082W        W10146   1.589   4.487  10.040 -0.0640 -0.1795  0.1781
 6083W        W10147   1.505   2.655   1.702 -0.2222  0.3425 -0.1514
 6084W        W10148   0.873   3.230  10.016 -0.0931  0.0753  0.0417
 6085W        W10149   0.823   9.551   8.726 -0.2157 -0.2436  0.1856
 6086W        W10150   4.340   0.728   1.089 -0.1305  0.1457  0.2700
 6087W        W10151   8.257  10.422   8.171  0.2550  0.0055 -0.0466
 6088W        W10152   7.306   5.555   3.990 -0.0007  0.0792 -0.0770
 6089W        W10153   6.502   8.337   9.901  0.0765 -0.1913  0.0831
 6090W        W10154   4.686   3.427   1.952  0.1694 -0.4478 -0.0553
 6091W        W10155   8.757   6.390   9.706 -0.1325  0.0563 -0.1212
 6092W        W10156   9.150   4.956   2.561  0.1130  0.0010  0.1987
 6093W        W10157   1.683  10.178  10.325 -0.1071 -0.4719  0.0362
 6094W        W10158   5.700   3.245  11.585  0.3096  0.1015  0.4016
 6095W        W10159   1.735   8.741  11.148  0.1210  0.1554 -0.0998
 6096W        W10160   3.154   5.343   9.124  0.1655  0.3585  0.0328
 6097W        W10161   1.823   5.947   8.408  0.1504  0.3159 -0.3783
 6098W        W10162   1.607   5.442   2.383 -0.1618  0.1376 -0.2391
 6099W        W10163   2.568   9.180  11.359  0.2055 -0.1725  0.3575
 6100W        W10164   5.422   9.803   3.522 -0.1684 -0.1846 -0.0130
 6101W        W10165   9.148   7.645   0.158  0.1676  0.0570 -0.2514
 6102W        W10166   6.313   4.958  11.576  0.0662  0.1964  0.1931
 6103W        W10167   4.374   9.379   9.830  0.0009  0.0605  0.3284
 6104W        W10168   0.341   4.594   9.466  0.0943  0.0366 -0.0530
 6105W        W10169   8.447   0.241   8.840  0.0994 -0.2387 -0.0944
 6106W        W10170   6.866   2.326   1.748 -0.2182 -0.1296 -0.1676
 6107W        W10171   5.356   9.543   9.213  0.1765 -0.0620 -0.0893
 6108W        W10172   2.383   9.393   9.215 -0.1906 -0.2730 -0.0610
 6109W        W10173   8.786   1.994  11.190 -0.0448 -0.0642  0.0609
 6110W        W10174   2.824   1.813   1.671 -0.0483 -0.0315 -0.2178
 6111W        W10175  10.192   5.836   9.837 -0.2543  0.3566 -0.3811
 6112W        W10176   2.454   6.023   9.476  0.3264  0.0071  0.0451
 6113W        W10177   1.785   5.809   7.937  0.0384 -0.0063 -0.2141
 6114W        W10178   8.404   0.653   3.374  0.2037 -0.2564 -0.2250
 6115W        W10179  10.002   3.580   0.307  0.1418  0.2664  0.1714
 6116W        W10180   0.413   9.040   1.749  0.1113  0.4698  0.2641
 6117W        W10181   8.567   2.110   0.631 -0.1344  0.1177  0.0181
 6118W        W10182   3.770   4.507  11.629 -0.0593  0.1864 -0.0950
 6119W        W10183   1.127   7.632  10.532  0.3285  0.1101 -0.0438
 6120W        W10184   1.698   9.415   3.547  0.0517 -0.0308  0.0420
 6121W        W10185   3.945   2.419  10.703  0.0061  0.1937  0.0149
 6122W        W10186   9.450   5.679   9.930 -0.1517 -0.3448  0.5447
 6123W        W10187   9.622   9.556  10.243  0.2908  0.0897 -0.0377
 6124W        W10188   7.253   8.344   4.075  0.1047 -0.0217 -0.1113
 6125W        W10189   9.236   6.562  11.242  0.1133 -0.0999  0.0090
 6126W        W10190   4.741   4.448   1.583 -0.1113 -0.0134  0.2057
 6127W        W10191   9.123   9.374   8.597  0.2033  0.2698  0.3125
 6128W        W10192   9.085   3.792   7.346  0.2334 -0.3576  0.1474
 6129W        W10193   7.011  10.318   0.684  0.1053  0.2862  0.0185
 6130W        W10194   7.806   0.915   2.231 -0.0123  0.0926 -0.3349
 6131W        W10195   2.085   5.073   1.566  0.1962  0.1635 -0.2750
 6132W        W10196   6.383   1.928   1.067  0.3064 -0.2686 -0.0024
 6133W        W10197   6.199   4.195   1.452  0.1110  0.2274 -0.1434
 6134W        W10198   3.752   5.313  10.248 -0.1783 -0.2389  0.0392
 6135W        W10199   7.192  10.016   1.093  0.1191 -0.0714 -0.3153
 6136W        W10200   3.452   8.939  11.299  0.0547  0.0695 -0.0704
 6137W        W10201   6.975   2.514   0.936 -0.1868 -0.1465  0.4204
 6138W        W10202   5.271   3.510  10.750  0.0701  0.0210  0.1906
 6139W        W10203   0.861   2.747   9.243 -0.0748  0.3601  0.0265
 6140W        W10204   0.891   8.027   8.412 -0.0425 -0.1919  0.1239
 6141W        W10205   7.938   0.131  11.245  0.4755 -0.0710  0.0514
 6142W        W10206   3.041   0.863  11.539 -0.0746  0.0613  0.0085
 6143W        W10207   2.901   4.095   8.599  0.3776  0.0459  0.1388
 6144W        W10208  10.588   0.785   8.174  0.2686  0.0564 -0.3474
 6145W        W10209   9.587  10.389  10.934  0.3264 -0.3463 -0.2395
 6146W        W10210   7.076  10.572  10.253  0.2425  0.0512  0.2716
 6147W        W10211  10.589   2.090  11.395  0.0997  0.0769  0.1717
 6148W        W10212   4.482   4.537   8.696  0.1711 -0.5077 -0.2001
 6149W        W10213   7.608   1.458   7.817 -0.2922  0.1691 -0.1796
 6150W        W10214   1.726   8.947   9.459 -0.1383  0.2270 -0.0843
 6151W        W10215   9.529   5.411  11.170 -0.0888  0.1035 -0.1357
 6152W        W10216  10.282   7.166   3.328  0.4361 -0.0002  0.1607
 6153W        W10217   7.120   1.602   7.580  0.1077 -0.1031  0.3686
 6154W        W10218   8.995   8.730   4.005 -0.2022  0.1730  0.2725
 6155W        W10219   7.633   9.950   9.270 -0.0271 -0.1999 -0.0784
 6156W        W10220   7.365   9.383  10.908 -0.1378 -0.2029  0.0643
 6157W        W10221   2.404   0.592   2.707  0.1402  0.0976 -0.2101
 6158W        W10222   3.632   4.241  11.225  0.3762 -0.2192  0.1019
 6159W        W10223   6.620   6.056   2.373  0.1536 -0.0016 -0.1644
 6160W        W10224   3.792   3.394   4.421  0.3185 -0.0278 -0.2676
 6161W        W10225   1.004   9.161   7.053 -0.0655  0.2087  0.2050
 6162W        W10226   6.673   5.980   3.228  0.2997 -0.2011  0.1172
 6163W        W10227   1.888   5.357   2.861 -0.0079 -0.0011  0.1197
 6164W        W10228   8.326   2.826   9.597  0.1909  0.2780  0.1334
 6165W        W10229   9.266  10.312   1.256  0.1072  0.2031 -0.1537
 6166W        W10230  10.015   4.572   1.042 -0.0240  0.0046 -0.2084
 6167W        W10231   8.348   9.919   4.043  0.3007  0.2688 -0.0580
 6168W        W10232   6.441   1.171   8.730 -0.3307 -0.1864  0.2773
 6169W        W10233   9.280   1.137  10.226 -0.1993 -0.1061 -0.0887
 6170W        W10234   8.312   9.115   9.792 -0.0273 -0.4477  0.2353
 6171W        W10235   2.488   5.908  10.909  0.1216  0.0488 -0.2380
 6172W        W10236  10.175   8.129   2.004  0.0477 -0.0563  0.0276
 6173W        W10237   4.839   2.486   8.693  0.0565 -0.1580 -0.1153
 6174W        W10238   2.818   6.740   9.082 -0.4101  0.0329  0.0445
 6175W        W10239   8.554   4.282   0.492  0.0784 -0.3067  0.0208
 6176W        W10240   0.188   7.209   0.370 -0.1479 -0.1860 -0.1943
 6177W        W10241   0.744   1.354  11.171 -0.0027  0.1904  0.2968
 6178W        W10242   7.854   5.674   7.423 -0.0958 -0.3976  0.0790
 6179W        W10243   8.873   1.273   1.165 -0.5070 -0.3793  0.1950
 6180W        W10244   9.374   6.587   8.867 -0.1066  0.2198 -0.0593
 6181W        W10245   7.477   8.671   9.524 -0.2261  0.0607 -0.0757
 6182W        W10246   1.058   9.673   9.365  0.3280  0.2665  0.0336
 6183W        W10247   0.308   5.902   3.694 -0.1046 -0.1719  0.3972
 6184W        W10248   5.801   4.311  10.307  0.1804 -0.0470 -0.0326
 6185W        W10249   5.677  10.002  11.615 -0.2079  0.2166  0.1886
 6186W        W10250   2.308   9.660   8.796 -0.1699 -0.1850  0.2399
 6187W        W10251   8.339   1.156   9.242 -0.1286 -0.2452 -0.0196
 6188W        W10252   0.083   3.211   2.853  0.2209 -0.1466 -0.1237
 6189W        W10253   3.820   1.427   1.139  0.0817  0.0527  0.0297
 6190W        W10254  10.433   6.414  11.122  0.0225 -0.0903  0.2789
 6191W        W10255   1.161   3.622   3.465  0.0279  0.0487 -0.0210
 6192W        W10256   3.515   6.388   1.836 -0.3704  0.0753  0.1514
 6193W        W10257   0.795   3.799   0.780 -0.1389  0.0563 -0.0440
 6194W        W10258   0.500   5.497   9.794 -0.2930 -0.0949  0.0271
 6195W        W10259   7.827   9.286   9.585 -0.2541  0.3481  0.2376
 6196W        W10260   6.536   0.307  10.741  0.0892  0.0863  0.5201
 6197W        W10261   5.010   4.079  10.778 -0.0374 -0.1410  0.1523
 6198W        W10262   0.988   0.721   3.360  0.0262 -0.0026 -0.1253
 6199W        W10263   5.642   5.459   2.208 -0.2329 -0.1393  0.4823
 6200W        W10264   2.567   6.364   3.530  0.2583  0.0485  0.1655
 6201W        W10265   2.721   4.917  11.424 -0.1352 -0.0935  0.5218
 6202W        W10266   4.029   8.870   9.874  0.2113 -0.2295  0.1155
 6203W        W10267   5.961   5.769   1.917 -0.0164  0.2155  0.0345
 6204W        W10268   9.284   4.858   3.546 -0.1942  0.1541  0.0965
 6205W        W10269  10.172   5.344   1.200  0.1591 -0.0432  0.3191
 6206W        W10270   8.090   3.994   1.909  0.0250 -0.1957 -0.2789
 6207W        W10271   3.672   1.428   9.047  0.4145 -0.0714 -0.2120
 6208W        W10272   3.571   7.362   1.284  0.0719 -0.1323  0.3180
 6209W        W10273   8.863   9.308   3.166  0.2423  0.0714 -0.1797
 6210W        W10274   6.168   3.423   2.855  0.0843 -0.2599  0.2681
 6211W        W10275   7.563   7.066   2.720 -0.0995 -0.0694 -0.1413
 6212W        W10276   3.516   6.900   1.470 -0.2001 -0.1952  0.0239
 6213W        W10277   8.660   7.612  10.889 -0.2783  0.0896 -0.2526
 6214W        W10278   4.843   3.355   1.444  0.0863  0.2138 -0.0542
 6215W        W10279   6.592   4.705   9.556  0.0156 -0.0685  0.1567
 6216W        W10280   5.107   0.672   3.394 -0.1558  0.4085  0.1730
 6217W        W10281   5.812   8.680   3.724  0.1884  0.0807 -0.1626
 6218W        W10282   7.700   7.111   4.257 -0.0456  0.1554 -0.2469
 6219W        W10283   9.692   4.787   2.856  0.0460  0.0275 -0.0292
 6220W        W10284   3.462   3.254   3.010  0.1993  0.1618  0.4704
 6221W        W10285   8.996   0.899   1.577 -0.2928  0.5068 -0.0376
 6222W        W10286   5.956   6.580   2.961 -0.0618 -0.0048  0.0102
 6223W        W10287   5.300   4.113   8.960  0.0581 -0.1897  0.0691
 6224W        W10288   6.707   6.317   8.825  0.0905 -0.2429  0.1092
 6225W        W10289   1.931   7.878   1.694  0.1169  0.2237 -0.3053
 6226W        W10290   5.971   1.813   2.420  0.0057  0.1348 -0.1082
 6227W        W10291   0.080   6.632   3.900  0.1995  0.1033 -0.0634
 6228W        W10292   5.589   4.673  11.484  0.2985  0.1142  0.2890
 6229W        W10293   5.836   9.464   9.571  0.1620 -0.3624 -0.1082
 6230W        W10294   5.587   5.550   0.717 -0.0799  0.0346  0.1421
 6231W        W10295   7.625   2.147   8.608  0.4415  0.0289 -0.5874
 6232W        W10296   1.371   8.791   1.109  0.1380  0.2326  0.1960
 6233W        W10297   3.570   9.174   8.292  0.0761  0.1105  0.0201
 6234W        W10298   0.688   8.979   8.080 -0.0455 -0.1926 -0.1574
 6235W        W10299   4.850   2.687  10.618 -0.0041  0.0907 -0.1630
 6236W        W10300   1.415   1.341   9.053 -0.1411 -0.1918 -0.1276
 6237W        W10301   5.803   0.832   0.882 -0.2637 -0.4935  0.0328
 6238W        W10302   4.585   7.687   3.671 -0.0566 -0.1348  0.0722
 6239W        W10303   9.628   0.288   2.569 -0.3345 -0.0528  0.0388
 6240W        W10304   3.877   9.595   0.811  0.0466  0.0001 -0.1023
 6241W        W10305   9.149   5.947   0.591  0.0192 -0.2353  0.2713
 6242W        W10306  10.225  10.268   8.722 -0.0689  0.2525  0.1884
 6243W        W10307   4.947   2.434   9.592  0.0002  0.2914 -0.0979
 6244W        W10308   7.131  10.432   2.568 -0.0540 -0.1709  0.1031
 6245W        W10309   2.908   8.093   4.302 -0.1648  0.1640  0.1558
 6246W        W10310   1.437   9.005   2.706 -0.4148 -0.3852 -0.3245
 6247W        W10311  10.017   6.495   1.032 -0.0126  0.3187 -0.1626
 6248W        W10312   9.980   8.610   1.216  0.0945  0.0319 -0.3007
 6249W        W10313   1.484   0.673   3.400  0.0246 -0.0427 -0.1666
 6250W        W10314   5.121   6.416  11.540  0.0015 -0.2454  0.3176
 6251W        W10315  10.491   3.645   2.047  0.1183  0.0306  0.1058
 6252W        W10316   9.008   4.970  11.663 -0.0220 -0.0373  0.2540
 6253W        W10317   8.641   0.457   2.449 -0.0896  0.1273  0.0065
 6254W        W10318  10.140   8.038   3.272  0.0406 -0.2600 -0.2337
 6255W        W10319   2.730   2.894   9.567 -0.0246  0.1513  0.2579
 6256W        W10320   0.901   6.299   9.483  0.1498 -0.2064  0.1075
 6257W        W10321   0.839   6.129   8.931  0.3099  0.2609 -0.0697
 6258W        W10322   5.786  10.096   2.247 -0.1579 -0.0604  0.1214
 6259W        W10323   0.214   1.241   9.500 -0.1107  0.1192  0.2636
 6260W        W10324   7.424   6.547   8.287  0.2086  0.0111 -0.0897
 6261W        W10325   7.907   1.983  11.079 -0.0238  0.5314  0.2586
 6262W        W10326   5.068  10.397   2.048  0.0555 -0.1426  0.1860
 6263W        W10327   7.057   3.694   4.644  0.1873 -0.1454 -0.0921
 6264W        W10328   2.030   8.582   8.128 -0.1419  0.5202  0.0173
 6265W        W10329   6.800   0.159   0.435 -0.1428  0.0207 -0.1530
 6266W        W10330   7.243   8.180   1.367  0.0611  0.2803 -0.0097
 6267W        W10331   0.986   3.701   1.243 -0.0186 -0.0742  0.1686
 6268W        W10332   4.429   2.555   9.553  0.1523  0.3450  0.0404
 6269W        W10333   2.646   9.742   9.468 -0.0302  0.0253 -0.1721
 6270W        W10334   0.256   7.628   2.324 -0.2232 -0.3957 -0.2702
 6271W        W10335   7.443   5.034   1.274  0.2702 -0.2430  0.0139
 6272W        W10336   1.164   7.498   4.462  0.2241 -0.0651 -0.0066
 6273W        W10337   7.030   0.992  11.127 -0.2211 -0.2311 -0.0375
 6274W        W10338   4.287   8.739   0.742 -0.0888 -0.0275  0.0281
 6275W        W10339   7.194   8.374   3.233  0.2079  0.0328  0.0005
 6276W        W10340   7.311   2.368   8.948 -0.1227  0.1639 -0.0459
 6277W        W10341   0.058   9.083   9.216 -0.3406 -0.0405 -0.1425
 6278W        W10342  10.041   5.969  10.682  0.0786 -0.2379 -0.4131
 6279W        W10343  10.341   5.903  10.281 -0.0073 -0.1988  0.0295
 6280W        W10344   1.323   3.040  10.336  0.1586  0.1023 -0.3147
 6281W        W10345   1.501   3.145   0.164 -0.1151 -0.0536  0.1610
 6282W        W10346   4.883   8.648   3.033  0.2285 -0.1204 -0.2875
 6283W        W10347   7.004   8.570   1.811 -0.3414 -0.2042 -0.0884
 6284W        W10348   7.485   2.848   2.339  0.0924  0.0506  0.1059
 6285W        W10349   7.867   2.929   9.521 -0.1094 -0.0848 -0.1070
 6286W        W10350   9.584   7.959   3.295 -0.0618  0.2406  0.1957
 6287W        W10351   2.266   8.242   2.730  0.1612  0.1732 -0.2538
 6288W        W10352   5.326   6.009  11.186  0.0364  0.0476 -0.0485
 6289W        W10353   4.893   1.579   3.579 -0.2634 -0.3888 -0.2319
 6290W        W10354   4.642   2.522   2.026 -0.1390 -0.0214  0.2508
 6291W        W10355   4.384   7.596   1.802 -0.1241 -0.0688  0.1471
 6292W        W10356   3.625   3.563   1.086  0.2574 -0.0291 -0.0262
 6293W        W10357   6.645   6.860   2.691 -0.3159 -0.3660  0.1771
 6294W        W10358   3.341   6.228   8.245 -0.2355 -0.2157 -0.0481
 6295W        W10359  10.439   5.738   7.631 -0.0439 -0.3355  0.0907
 6296W        W10360   8.635   4.405   3.179 -0.1550  0.2496  0.1744
 6297W        W10361   4.910   0.274   2.291  0.2054  0.0819  0.2921
 6298W        W10362   8.711   5.395  10.558 -0.1178 -0.0478 -0.0238
 6299W        W10363   9.080   7.856   8.256  0.2019 -0.0595 -0.0204
 6300W        W10364   8.968   2.416  10.066  0.1100 -0.0095 -0.1111
 6301W        W10365   9.066   6.421   0.837  0.2202  0.0069 -0.0870
 6302W        W10366   7.481   6.344  11.261 -0.4800 -0.0998  0.0981
 6303W        W10367   9.504   2.208   0.366  0.0529 -0.3200  0.1976
 6304W        W10368   5.023   2.161   0.619  0.0897  0.0604 -0.0087
 6305W        W10369   5.675   8.482   3.267 -0.1531  0.0037 -0.2620
 6306W        W10370   7.082   7.344   1.454  0.1049 -0.2048 -0.2025
 6307W        W10371   6.883   5.107   2.701  0.1735 -0.0869 -0.1085
 6308W        W10372   7.083   4.438   9.675 -0.2394  0.1937 -0.1408
 6309W        W10373   9.288   2.625  10.413 -0.1746 -0.0723 -0.0413
 6310W        W10374   3.967   7.147   3.136  0.1872 -0.0814  0.0096
 6311W        W10375   2.103   4.436   8.571  0.0279 -0.1209 -0.1674
 6312W        W10376   3.645   1.833   4.073  0.1167 -0.0005  0.0450
 6313W        W10377   4.186   2.023   1.403 -0.2278  0.2254 -0.1149
 6314W        W10378   3.376   1.721   8.209 -0.0969 -0.0671 -0.1050
 6315W        W10379   1.807   6.644   1.573 -0.0194  0.0099  0.0095
 6316W        W10380   3.679   5.039   0.469  0.0327 -0.2169 -0.0984
 6317W        W10381   8.551   6.318  10.254 -0.2326 -0.1085  0.0386
 6318W        W10382   4.785   4.558  10.604 -0.0107 -0.1457 -0.0184
 6319W        W10383   3.685   8.606   1.427 -0.3268  0.2456 -0.2860
 6320W        W10384   9.081   9.591   4.432 -0.0959 -0.0311  0.3837
 6321W        W10385   3.667  10.232   1.479  0.1149 -0.1061 -0.2907
 6322W        W10386   0.622   0.443  10.849  0.1009 -0.1001 -0.1222
 6323W        W10387   3.259   5.530  10.114  0.0025 -0.2375  0.1429
 6324W        W10388   6.067  10.358   9.163  0.0911 -0.3572  0.0140
 6325W        W10389   1.168   5.609   2.028 -0.0462  0.1854  0.0121
 6326W        W10390   6.391   6.321   2.888 -0.4129  0.0897  0.0282
 6327W        W10391   4.354   3.196   8.420 -0.1048 -0.1033  0.1853
 6328W        W10392   0.764   0.098   2.468  0.3686 -0.0036  0.4200
 6329W        W10393   3.092   6.454   8.645  0.1526  0.0328  0.1273
 6330W        W10394  10.049   6.497  10.803  0.3643 -0.0347 -0.0853
 6331W        W10395   9.261   8.833  10.638 -0.0395  0.1837 -0.0315
 6332W        W10396   6.185   6.209   2.407  0.0372  0.0610 -0.2161
 6333W        W10397   1.134   3.280   2.211 -0.0878  0.0707 -0.1183
 6334W        W10398   9.782   3.618   2.509  0.0842  0.2106 -0.0620
 6335W        W10399   8.249   2.977   0.301  0.1226 -0.2440  0.1526
 6336W        W10400   2.779   2.312   2.930 -0.1079 -0.0101 -0.1832
 6337W        W10401   9.689  10.531  11.441 -0.2278  0.2806 -0.0717
 6338W        W10402   4.304   1.542   7.921  0.1204  0.0756  0.0660
 6339W        W10403   9.796   2.976   8.267  0.0270 -0.0281  0.2080
 6340W        W10404   6.855   1.615   0.183 -0.2156 -0.1402 -0.0926
 6341W        W10405   1.796   0.569  10.186  0.0663 -0.1002 -0.1065
 6342W        W10406   1.542   3.629  10.601 -0.0245 -0.3938  0.2837
 6343W        W10407   3.179  10.195  11.528 -0.1005 -0.0900 -0.0363
 6344W        W10408   0.624   4.725   1.291 -0.0612  0.1543 -0.1775
 6345W        W10409   1.712   7.919   8.012  0.0214  0.0330 -0.1552
 6346W        W10410   5.682   4.631   2.382  0.1315 -0.0765 -0.1070
 6347W        W10411   2.163   6.152   0.407 -0.1075 -0.1370  0.3901
 6348W        W10412   1.724   3.288   9.677  0.0247  0.2270  0.0253
 6349W        W10413   3.400   0.281   2.372 -0.1597  0.1279  0.3057
 6350W        W10414   7.477   6.942   0.737 -0.0960 -0.1257  0.2333
 6351W        W10415   9.823   9.762   7.633  0.0757  0.0139  0.0292
 6352W        W10416   7.788   1.494   1.380  0.0614 -0.0123  0.2727
 6353W        W10417   2.944   8.095   1.370 -0.1566  0.0950  0.1203
 6354W        W10418   0.794   0.658   0.747 -0.2001 -0.0908  0.0314
 6355W        W10419   1.482   2.035   8.293 -0.1178  0.0126 -0.0111
 6356W        W10420   0.994   9.196   9.532 -0.0291 -0.0874 -0.0956
 6357W        W10421   8.439   4.857   1.427  0.1482  0.2091  0.4055
 6358W        W10422   0.390   9.809  11.544 -0.3338 -0.1006  0.2368
 6359W        W10423   8.209   2.200   7.908 -0.1466  0.0371  0.1704
 6360W        W10424   4.836   5.146   3.285  0.0234 -0.3625  0.1982
 6361W        W10425   9.601   4.400   3.752  0.2654 -0.1206 -0.0331
 6362W        W10426   0.995   2.595   1.924  0.1477 -0.1218 -0.4611
 6363W        W10427   3.605   9.016   8.811 -0.0303 -0.1021 -0.3412
 6364W        W10428   3.989  10.211   8.910 -0.2323 -0.1359 -0.0851
 6365W        W10429   4.077   1.672  11.470 -0.2182 -0.0251  0.0550
 6366W        W10430   7.559   6.104  10.775  0.0822 -0.1381 -0.2177
 6367W        W10431   3.456   9.912   2.895 -0.2680 -0.0305  0.3539
 6368W        W10432   6.809   2.556   8.957  0.1490  0.1742  0.0510
 6369W        W10433   0.141   7.530   1.438  0.2095  0.0664 -0.0047
 6370W        W10434   7.254   8.818  10.423 -0.0122 -0.1519 -0.3078
 6371W        W10435   9.388   6.734   9.326 -0.2458 -0.0329  0.0646
 6372W        W10436   8.174   2.815  10.428 -0.2865 -0.1464  0.1354
 6373W        W10437   0.824   0.935   1.822  0.3652 -0.1569 -0.0569
 6374W        W10438   4.829   9.415   7.950 -0.2189  0.1101  0.1242
 6375W        W10439   7.095  10.093   8.482  0.0364 -0.1428 -0.0435
 6376W        W10440   9.813   8.647   8.959  0.0121  0.0759 -0.0701
 6377W        W10441   9.069   2.868   3.554 -0.2297  0.0170  0.0951
 6378W        W10442   4.276   0.224   3.626  0.0943  0.0698 -0.0142
 6379W        W10443   5.300   3.882   7.657  0.0292  0.2132 -0.2491
 6380W        W10444   5.398   3.656   8.687  0.0700  0.4777 -0.1790
 6381W        W10445   8.722   6.025   3.295  0.0627  0.1061  0.0287
 6382W        W10446   8.247   5.126   0.459 -0.0549 -0.0164  0.2787
 6383W        W10447   9.225   2.121  11.564  0.2844  0.1172 -0.1019
 6384W        W10448   3.249   0.399   7.910 -0.0401 -0.0383 -0.0028
 6385W        W10449   9.626   8.998  10.940  0.0893  0.1004 -0.0208
 6386W        W10450   3.195   8.141  10.447  0.0039 -0.1912  0.0766
 6387W        W10451   4.158   6.391  11.010 -0.0717 -0.0746 -0.2098
 6388W        W10452   8.886   5.775   9.757  0.1243  0.1837 -0.3760
 6389W        W10453   8.725   4.555   0.892  0.0103 -0.3212 -0.1153
 6390W        W10454  10.537   8.564   6.976 -0.2082  0.2259  0.4450
 6391W        W10455   5.383   1.368   1.656  0.0418  0.0580 -0.0942
 6392W        W10456   7.489   0.322   3.413 -0.0882  0.2415 -0.2729
 6393W        W10457   6.337  10.091  10.523  0.2104 -0.0226 -0.0651
 6394W        W10458   6.553   8.022   7.639 -0.0385  0.0564 -0.0709
 6395W        W10459   1.607   6.867   0.247  0.2905  0.0039 -0.2008
 6396W        W10460   3.342   5.814   0.867 -0.2046 -0.3236 -0.0323
 6397W        W10461   5.396   2.835  10.778 -0.0007  0.0009 -0.2846
 6398W        W10462  10.057   9.425   3.368  0.1356  0.1062  0.0885
 6399W        W10463   9.791   6.787   8.577 -0.0999 -0.0397  0.1701
 6400W        W10464   0.657   9.282   3.187  0.1068  0.0366 -0.2536
 6401W        W10465   1.730   7.431   7.316  0.1637  0.0323 -0.1079
 6402W        W10466   7.401  10.545   8.521  0.1524 -0.0590  0.1074
 6403W        W10467   3.786   1.506   8.551 -0.1504  0.2723 -0.0693
 6404W        W10468   2.824   4.874   1.066 -0.3108 -0.1352  0.4776
 6405W        W10469   7.004   7.614   0.955  0.0178  0.1008  0.0485
 6406W        W10470   5.113   3.144  10.442 -0.3610 -0.1374 -0.1936
 6407W        W10471  10.239   8.477  10.567  0.0920 -0.1612 -0.0247
 6408W        W10472   8.483   9.203   2.044 -0.0094 -0.0861 -0.1325
 6409W        W10473  10.460   5.522   0.716  0.4403  0.0831  0.2675
 6410W        W10474   4.992   4.529   8.805 -0.2829 -0.1836  0.0202
 6411W        W10475   4.569   3.321  11.504  0.0367  0.0744  0.0626
 6412W        W10476   1.867   7.233   9.441 -0.4018 -0.3266 -0.1031
 6413W        W10477   0.915   4.371   8.830 -0.1526 -0.1420 -0.1086
 6414W        W10478   6.132   9.651  10.436  0.1484  0.4126 -0.1975
 6415W        W10479   0.841   5.717   0.167 -0.1723 -0.3022 -0.1254
 6416W        W10480   2.381   1.161   0.554  0.0054  0.1564  0.2109
 6417W        W10481   0.313   6.394   2.136 -0.1623 -0.0443  0.1342
 6418W        W10482   8.349   3.708   8.534 -0.0734 -0.3592  0.1558
 6419W        W10483   8.107   7.192   3.960  0.2016  0.3425  0.2338
 6420W        W10484   6.529   7.573   2.642 -0.5437  0.0503  0.0776
 6421W        W10485   6.601   2.862   2.102  0.1062 -0.2322  0.1452
 6422W        W10486   0.429   8.587  11.024 -0.3507 -0.1154  0.2304
 6423W        W10487   9.599   5.626  10.703 -0.0314  0.2252 -0.1617
 6424W        W10488   9.819   0.047   9.401  0.2394  0.1208 -0.4551
 6425W        W10489   9.181   8.176   0.765  0.0597  0.1684  0.0768
 6426W        W10490   1.109   2.109   9.638  0.1669  0.6617 -0.1569
 6427W        W10491   9.448   5.926   3.396 -0.1462  0.0441  0.1660
 6428W        W10492   3.225   4.280   0.703  0.0384  0.0202 -0.0279
 6429W        W10493  10.568   8.452   8.360 -0.2436  0.0816  0.1060
 6430W        W10494   8.655   8.258   9.778  0.1062 -0.0122 -0.0119
 6431W        W10495   3.343   7.725  11.398  0.0784 -0.2048  0.3442
 6432W        W10496   0.164   4.550   9.920  0.0032 -0.2170 -0.0739
 6433W        W10497   6.400   7.730  10.594 -0.1926  0.1484  0.0540
 6434W        W10498   1.049   0.298   3.614 -0.2448  0.0564 -0.1772
 6435W        W10499   0.687   9.297   1.086  0.3482 -0.1185  0.1758
 6436W        W10500   6.954   9.647   1.299 -0.2035 -0.2018  0.1412
 6437W        W10501   6.670   4.064   8.755 -0.0538  0.0611 -0.2111
 6438W        W10502   3.095   3.645   1.328  0.1831  0.1298  0.3649
 6439W        W10503   1.853   5.831  10.831 -0.3054  0.1767  0.1299
 6440W        W10504   2.635   7.809   0.509  0.1386 -0.1685 -0.3455
 6441W        W10505   5.214   3.122  11.378  0.1673 -0.3141 -0.0245
 6442W        W10506  10.131   3.030  10.313 -0.3324  0.1782  0.3396
 6443W        W10507   2.100   7.828   4.061  0.0904  0.0062 -0.1566
 6444W        W10508   8.990   6.459   3.229  0.2185  0.0359  0.1773
 6445W        W10509   8.467   9.488   3.582 -0.1060  0.0305 -0.0833
 6446W        W10510   5.476   5.445   3.291  0.1578 -0.0729 -0.1860
 6447W        W10511   9.287  10.422   8.468  0.0270  0.3788  0.1097
 6448W        W10512   4.931   2.821   3.757  0.5150  0.0478  0.0769
 6449W        W10513   0.793  10.480  11.058  0.1923  0.2301 -0.0444
 6450W        W10514   4.388   4.675   2.912  0.1126 -0.0109 -0.0854
 6451W        W10515   0.069  10.460   8.927  0.0434 -0.1291 -0.0233
 6452W        W10516   5.026   5.415   9.223  0.1823  0.2176 -0.0208
 6453W        W10517   1.191   6.488   8.544  0.1042  0.0774 -0.0568
 6454W        W10518  10.109   4.580   3.765 -0.3776 -0.1196  0.0760
 6455W        W10519   3.676   4.582   9.316 -0.0564  0.2997 -0.1293
 6456W        W10520   8.034   7.752   2.266 -0.2857 -0.1224 -0.0972
 6457W        W10521   4.024   3.244  10.795  0.2693  0.2766  0.1677
 6458W        W10522   5.409   8.098   1.678  0.0027  0.1437  0.0744
 6459W        W10523   9.067   3.331   0.124  0.0999 -0.4076  0.0930
 6460W        W10524   7.230   9.488   1.748 -0.0460  0.0065 -0.1315
 6461W        W10525   6.211   6.679   2.552  0.2226 -0.2299  0.0366
 6462W        W10526   4.119   0.152   0.666 -0.3985 -0.1041 -0.0698
 6463W        W10527   9.001   4.820   1.260 -0.0718  0.1992 -0.1022
 6464W        W10528   5.346   8.483   3.764 -0.1191  0.0039  0.2119
 6465W        W10529   7.139  10.030   2.990 -0.1493 -0.4526 -0.3746
 6466W        W10530   4.097  10.486   2.342 -0.1374  0.0148  0.1553
 6467W        W10531  10.424   8.211   9.586 -0.0494 -0.0837 -0.0042
 6468W        W10532   5.626   4.702  10.077 -0.0904 -0.4574 -0.0543
 6469W        W10533   8.024   1.532   9.253 -0.2101  0.0272 -0.1255
 6470W        W10534   6.372   5.261   2.635  0.0010  0.1135 -0.2575
 6471W        W10535   2.756   3.717  11.643  0.2456 -0.3685 -0.0154
 6472W        W10536   8.383   6.083   9.774 -0.0831  0.0414 -0.0096
 6473W        W10537   6.350   8.809   9.785 -0.1830 -0.3373 -0.0623
 6474W        W10538   6.479   4.169   3.473  0.1765 -0.0459  0.2504
 6475W        W10539   9.312   3.785  11.328 -0.1033 -0.1495 -0.0827
 6476W        W10540   7.382   1.744   0.177  0.1200 -0.0121  0.1500
 6477W        W10541   6.546   3.890   9.170 -0.0214  0.1585  0.1457
 6478W        W10542   4.527   5.668   3.203  0.0861 -0.1322  0.1851
 6479W        W10543   0.562   9.171   2.224 -0.2723 -0.2912  0.1085
 6480W        W10544   7.913   4.591   8.586  0.0773  0.1658  0.2144
 6481W        W10545   1.768   9.287   2.934  0.2241 -0.2238 -0.0045
 6482W        W10546   5.794  10.386   0.813 -0.3665  0.0746 -0.2005
 6483W        W10547   4.017   8.293   2.430  0.0621 -0.1105 -0.0728
 6484W        W10548   0.717  10.527   3.740  0.3033 -0.1924 -0.0453
 6485W        W10549  10.483   4.333  10.269 -0.0945 -0.2749  0.0534
 6486W        W10550   3.231   2.202   2.688  0.0635 -0.2757  0.1187
 6487W        W10551   6.109   6.014  11.163  0.2446  0.2035 -0.2071
 6488W        W10552   2.818   5.709   2.900 -0.4596 -0.2457 -0.2346
 6489W        W10553   3.974   1.052   8.710  0.2501 -0.0015 -0.3072
 6490W        W10554  10.217   7.264   2.202  0.1533  0.0970  0.0658
 6491W        W10555  10.453   9.813  10.034  0.3262  0.2368 -0.2215
 6492W        W10556   8.819  10.395  11.375  0.1978  0.1046  0.2082
 6493W        W10557   9.155   5.765   1.200  0.0003 -0.1758  0.0684
 6494W        W10558   3.912   4.822  10.380  0.0163 -0.0941  0.3246
 6495W        W10559   8.352   3.245   3.501 -0.2103 -0.1302 -0.1762
 6496W        W10560   6.216   4.971   3.392 -0.1074 -0.0388 -0.1033
 6497W        W10561   8.687   9.453   0.752 -0.1247  0.0661  0.0220
 6498W        W10562   8.008   3.884  11.144  0.2139  0.0905 -0.1208
 6499W        W10563   9.552   8.124   9.458  0.1931 -0.0163 -0.0883
 6500W        W10564   6.800   8.044   1.915 -0.0513  0.1738  0.0470
 6501W        W10565   8.624   5.367   8.868 -0.2300 -0.1745 -0.0269
 6502W        W10566   5.162   6.332  10.062 -0.0798  0.0093  0.1796
 6503W        W10567   5.740   9.631   2.046  0.5342 -0.1521  0.0566
 6504W        W10568   1.074   8.765   3.056 -0.1105 -0.1733 -0.5909
 6505W        W10569   7.417   6.605   4.179  0.1498 -0.1325 -0.1776
 6506W        W10570   0.369   4.736   0.830  0.5458  0.0356  0.0737
 6507W        W10571   2.044   1.000  10.297 -0.2126  0.2230  0.1114
 6508W        W10572   8.610   0.752  11.450 -0.0623 -0.2714  0.1726
 6509W        W10573   4.678   9.490   0.443  0.0083 -0.1231 -0.1059
 6510W        W10574  10.299   3.660   1.018 -0.0561  0.2706 -0.0988
 6511W        W10575   0.141   0.013   0.625  0.3086 -0.1427 -0.1127
 6512W        W10576   9.398   5.390   3.501  0.0799 -0.1253  0.1688
 6513W        W10577   6.798   3.565  11.593 -0.2260 -0.1925  0.1883
 6514W        W10578   6.067   6.762   2.002 -0.1520 -0.0091  0.1261
 6515W        W10579   3.115   0.520   3.311  0.0805 -0.2649  0.1236
 6516W        W10580   4.643   9.642  10.122  0.0064  0.1244  0.0379
 6517W        W10581   0.498   3.605   1.178  0.0394  0.1651 -0.4476
 6518W        W10582   6.821   7.348   7.448 -0.2098  0.1489 -0.2289
 6519W        W10583   8.132   0.068   0.012  0.0926  0.0246 -0.0596
 6520W        W10584   8.712   6.397   1.227  0.0110  0.2443  0.2588
 6521W        W10585   7.586   6.882   0.252 -0.1470 -0.0802 -0.1067
 6522W        W10586   8.321   8.729  10.280  0.1370 -0.2664 -0.2431
 6523W        W10587   6.815   6.439   3.056 -0.1365  0.1538  0.0377
 6524W        W10588   6.444   7.313  11.560  0.0257 -0.1076 -0.1374
 6525W        W10589   1.582   0.259  10.815  0.0972 -0.4457  0.0251
 6526W        W10590   8.395   6.564   9.373  0.1773 -0.1772 -0.1956
 6527W        W10591   3.792   6.865   4.502 -0.4764  0.1916 -0.1678
 6528W        W10592   6.186   9.276  11.455 -0.0535 -0.0650  0.2844
 6529W        W10593   4.558   3.932  10.520  0.0109 -0.1213  0.1613
 6530W        W10594   1.432   2.486   9.945  0.2395 -0.1328  0.0472
 6531W        W10595   4.101   7.998   1.965  0.0509  0.3805 -0.0062
 6532W        W10596   9.208   6.534   9.822  0.2395  0.1610  0.0666
 6533W        W10597   6.569  10.062   0.688  0.0858 -0.1826 -0.4290
 6534W        W10598   3.537   3.610  11.306  0.0443 -0.3454  0.1625
 6535W        W10599   9.639   1.840   0.714  0.3919 -0.1538  0.0830
 6536W        W10600   4.103   0.655   0.590  0.1328 -0.0975 -0.1077
 6537W        W10601   2.380  10.276  10.344 -0.0121  0.0908  0.0779
 6538W        W10602   5.058   3.531   9.740 -0.1419  0.0139 -0.2199
 6539W        W10603   5.071   7.447   9.027  0.1568 -0.0506  0.4333
 6540W        W10604   0.744   7.991   9.155 -0.4610 -0.0393  0.2825
 6541W        W10605   0.431   2.017   9.696  0.1308  0.0611  0.1099
 6542W        W10606   0.632   7.160   2.557  0.0543 -0.2208  0.5007
 6543W        W10607   6.736   4.497  10.024  0.0808  0.0508 -0.1214
 6544W        W10608   3.515   7.084   9.752 -0.3073 -0.2699 -0.1659
 6545W        W10609   2.824   8.799   8.327 -0.0103 -0.1444 -0.0789
 6546W        W10610   8.838   2.395   8.315 -0.0033 -0.0459  0.0415
 6547W        W10611   4.797   9.588   2.704 -0.1737 -0.2098  0.0537
 6548W        W10612   0.023   2.974   9.996 -0.0637 -0.1533 -0.1248
 6549W        W10613   3.989   7.816   1.525  0.1456  0.0920  0.0667
 6550W        W10614   4.856   0.882   1.213  0.0437  0.0513 -0.0840
 6551W        W10615   3.600   7.205  10.803 -0.2064 -0.0712 -0.0304
 6552W        W10616   5.936   8.328   9.354  0.1359  0.1238 -0.3521
 6553W        W10617   0.385   9.190   8.435  0.4199  0.0724  0.0145
 6554W        W10618   5.362   7.279   0.993  0.0774  0.0403 -0.1490
 6555W        W10619   4.510   5.772   4.086  0.0294 -0.3597  0.0005
 6556W        W10620   6.737   8.970   2.037 -0.2160 -0.2006  0.0748
 6557W        W10621   6.465   9.890  11.581  0.1443  0.0078 -0.2542
 6558W        W10622   8.111   7.861   2.759  0.3007  0.4292 -0.2900
 6559W        W10623   1.933   0.052  10.425 -0.0980  0.0931 -0.2646
 6560W        W10624   5.409   2.272  11.564 -0.0064 -0.4371  0.0509
 6561W        W10625   8.269   4.959   8.508 -0.0317 -0.3590 -0.0600
 6562W        W10626   8.343   2.454   8.539 -0.0220  0.0975  0.2321
 6563W        W10627   8.610   6.683   0.678 -0.3503 -0.0478 -0.2237
 6564W        W10628   7.604   1.938   1.430 -0.1215  0.0694  0.2453
 6565W        W10629   6.041   3.005   9.175 -0.1190 -0.4073 -0.1252
 6566W        W10630   4.183   9.771  11.415 -0.0845  0.0731  0.2444
 6567W        W10631   0.759   8.884   9.174  0.0000  0.2352  0.0386
 6568W        W10632   2.584   7.589   2.288  0.3436  0.2389  0.0919
 6569W        W10633   8.274   2.558  11.662  0.1095  0.0852 -0.2164
 6570W        W10634   1.998   3.566   3.601 -0.3060 -0.0093 -0.0631
 6571W        W10635   4.599   0.252   8.467  0.0149  0.0647 -0.1924
 6572W        W10636   9.861   8.588   2.638  0.0075  0.0197 -0.1576
 6573W        W10637   5.682   3.833  11.490  0.1589  0.2576  0.2942
 6574W        W10638   9.006   7.643   2.465  0.0350  0.1250  0.0291
 6575W        W10639   2.327   7.771  11.346 -0.0805  0.2428 -0.0901
 6576W        W10640  10.448   1.756   3.226  0.3515  0.1520  0.1648
 6577W        W10641   5.851   0.041   2.234 -0.2891 -0.0650  0.0231
 6578W        W10642   9.062   2.923  10.025 -0.2132  0.0534  0.0791
 6579W        W10643   8.386   3.563  11.006 -0.0049 -0.3712 -0.0456
 6580W        W10644   3.493   2.404   3.625 -0.2974 -0.0199 -0.3220
 6581W        W10645   0.763   3.485   1.702  0.0489  0.0075 -0.0221
 6582W        W10646   3.552   7.627   8.254  0.3409 -0.3415  0.1447
 6583W        W10647   4.130   5.581   3.477 -0.1057 -0.2319  0.0034
 6584W        W10648   3.733   4.054   2.890 -0.1016 -0.2589 -0.0532
 6585W        W10649   7.623   6.905   2.174  0.2475  0.2261  0.0203
 6586W        W10650   0.408   8.255   2.537 -0.2739  0.4261  0.1477
 6587W        W10651   4.860   1.265   1.659 -0.1822  0.1606 -0.1229
 6588W        W10652   4.753  10.035   3.524  0.1987 -0.0131  0.0278
 6589W        W10653   8.524   3.267   8.328 -0.1147  0.0127  0.0606
 6590W        W10654   1.304   0.754   0.619 -0.2404  0.1626  0.3745
 6591W        W10655  10.010  10.167   2.907 -0.0373 -0.3505  0.0924
 6592W        W10656   7.268   2.434   2.596 -0.0565  0.0738 -0.0474
 6593W        W10657   4.912  10.027   0.902 -0.0554  0.0007 -0.0219
 6594W        W10658   2.219   7.610   4.484  0.1137  0.1392  0.1067
 6595W        W10659   1.032  10.543   0.692  0.0553 -0.0529  0.0967
 6596W        W10660   5.020   2.151   1.910  0.0752  0.0537 -0.1391
 6597W        W10661   4.246   8.722   8.100 -0.2924 -0.3039 -0.1038
 6598W        W10662   9.871   0.908   0.739  0.1736 -0.0766 -0.0109
 6599W        W10663   6.589   3.220   7.945 -0.1873 -0.3200  0.0526
 6600W        W10664   5.330   8.931   0.020  0.0500  0.0624  0.1085
 6601W        W10665   3.755   7.489   9.630 -0.0171 -0.0321 -0.3441
 6602W        W10666   0.794   6.419   2.213  0.2733 -0.4163  0.0393
 6603W        W10667   0.153   6.236   2.626  0.1223  0.0411  0.3913
 6604W        W10668   8.338   3.119   1.272 -0.1877 -0.1770  0.1297
 6605W        W10669   1.094   4.418  11.107 -0.1648  0.1051  0.3320
 6606W        W10670   8.989   0.973   9.690 -0.0038 -0.0737  0.0035
 6607W        W10671   7.422   1.996  11.465 -0.0804  0.1147  0.1074
 6608W        W10672   5.680   0.411  11.564  0.1194 -0.3718  0.2070
 6609W        W10673   5.187   1.696   9.853  0.5318  0.0919  0.1742
 6610W        W10674   9.380   7.436   1.111  0.5314  0.2670  0.1854
 6611W        W10675   2.281   2.585   9.330 -0.1714 -0.1164 -0.0773
 6612W        W10676   9.538   4.536   1.025 -0.0327 -0.0010  0.0599
 6613W        W10677   3.310   4.343   8.339  0.0354  0.1555  0.4292
 6614W        W10678   2.066   8.334   0.015  0.2209 -0.0449 -0.3610
 6615W        W10679   3.983  10.430   1.827 -0.2579 -0.0766 -0.0312
 6616W        W10680   8.888   2.387   2.078  0.2315  0.2001 -0.1986
 6617W        W10681   2.461   8.581  11.572  0.1605 -0.0192 -0.1409
 6618W        W10682   4.929   5.448   2.853 -0.1948 -0.0974  0.1276
 6619W        W10683   4.559   0.852   2.901  0.2644  0.0548  0.1849
 6620W        W10684   3.798   0.093   1.375 -0.0838 -0.1145  0.0702
 6621W        W10685   7.069   4.066  11.488 -0.3477 -0.2642 -0.2352
 6622W        W10686   0.329   7.987   9.430  0.2791  0.1467  0.2388
 6623W        W10687   3.646   2.943   2.280 -0.0481 -0.1004 -0.0471
 6624W        W10688   0.807   9.546   3.600 -0.2666  0.4672  0.1764
 6625W        W10689   4.487   7.884   2.263 -0.0061  0.1360  0.2082
 6626W        W10690   1.277   0.396   1.468  0.0970  0.0054  0.0028
 6627W        W10691   9.573   8.473   9.863  0.1547 -0.2291  0.2253
 6628W        W10692   8.796   8.961   1.004 -0.2574 -0.4843  0.4488
 6629W        W10693   7.685   1.367   0.022  0.1017 -0.0140 -0.2494
 6630W        W10694   7.355   6.510   0.026  0.1026  0.1868  0.1501
 6631W        W10695   5.479   2.409   2.935  0.1364  0.0307 -0.2557
 6632W        W10696   6.964   0.821   3.809  0.4642 -0.0970  0.1056
 6633W        W10697   4.580   2.378   0.329  0.2644  0.0995 -0.1943
 6634W        W10698   9.346   3.796  10.396 -0.0190 -0.1627  0.0085
 6635W        W10699   3.028   0.368   8.544 -0.2798 -0.5027  0.0249
 6636W        W10700   4.271   6.823   1.541 -0.3097  0.0158 -0.2385
 6637W        W10701   5.213   5.846   9.294  0.1192 -0.0066  0.0066
 6638W        W10702   8.269   8.213   2.444 -0.0969 -0.1234  0.2333
 6639W        W10703   2.603   9.657   1.094  0.0566  0.1417  0.2505
 6640W        W10704   7.421   5.709  10.258 -0.2419  0.0696 -0.1240
 6641W        W10705   8.279   8.284   8.000 -0.0325 -0.3554  0.1930
 6642W        W10706   2.141   7.656   0.616  0.2212 -0.1542 -0.1109
 6643W        W10707   2.102   0.648   0.969 -0.1547  0.1801 -0.1849
 6644W        W10708   0.929  10.475   8.451 -0.0176 -0.3284  0.3478
 6645W        W10709   2.837   3.384   9.854  0.2474 -0.0227  0.0120
 6646W        W10710   0.320   9.695   8.609 -0.0394  0.1486  0.0115
 6647W        W10711   2.529   7.799  10.005  0.3814 -0.0548  0.0930
 6648W        W10712  10.326   0.693   8.743  0.4726  0.0539  0.1954
 6649W        W10713   9.913   3.004   2.394 -0.2904  0.0450 -0.2347
 6650W        W10714   0.614   7.077   1.680 -0.2169 -0.2209  0.1557
 6651W        W10715   1.375   4.239   9.056  0.3661  0.0075  0.2412
 6652W        W10716   6.980   3.401   3.790  0.0569 -0.0335 -0.0786
 6653W        W10717   1.775   6.038   0.828  0.0390 -0.0850 -0.0230
 6654W        W10718   0.243   2.730   1.845 -0.3174  0.0088 -0.2397
 6655W        W10719   4.999   4.980   0.193  0.0710 -0.1875 -0.1241
 6656W        W10720   9.775   0.645   8.418 -0.0079  0.0992  0.1010
 6657W        W10721   3.800   4.498   8.200  0.0892 -0.1223  0.2770
 6658W        W10722   2.278   7.880   9.323 -0.0324  0.2329  0.1882
 6659W        W10723   9.767   9.286   0.036 -0.1734 -0.2513  0.0609
 6660W        W10724   3.914   8.687   2.148 -0.1174  0.1328  0.1245
 6661W        W10725   0.056   4.614   2.723 -0.2622 -0.3025  0.2383
 6662W        W10726   7.416   9.753   7.770 -0.0483  0.1963  0.0967
 6663W        W10727   2.513   2.064  10.009  0.3082 -0.1328 -0.4159
 6664W        W10728   1.750   9.726   0.792 -0.1872  0.1053 -0.0526
 6665W        W10729   8.210   4.465   0.751  0.2865  0.0238  0.0456
 6666W        W10730   9.133   7.874   1.153  0.0094 -0.0296  0.1698
 6667W        W10731   0.662   5.287   3.275 -0.1413 -0.1767  0.2948
 6668W        W10732   4.645   9.939   8.620  0.4870  0.3706  0.1861
 6669W        W10733   5.280   8.276   8.041 -0.3430  0.0571 -0.0094
 6670W        W10734  10.559   0.681   0.256  0.2132  0.1106  0.1420
 6671W        W10735   8.853   7.522   1.936 -0.0759  0.2238 -0.0015
 6672W        W10736   6.333   0.367   2.931 -0.2477  0.2020 -0.5141
 6673W        W10737   3.315   8.440  11.228  0.0478  0.1471  0.1732
 6674W        W10738   7.677   7.665   2.774  0.0580 -0.3341  0.2105
 6675W        W10739   8.794   7.798   8.667 -0.3904 -0.0319  0.1878
 6676W        W10740   1.965  10.291   1.856  0.2940  0.0890  0.0873
 6677W        W10741   3.034   7.475   8.724  0.0753  0.1375 -0.0844
 6678W        W10742   1.939   5.679   0.453 -0.1244  0.4339 -0.1071
 6679W        W10743   2.546  10.540  10.940 -0.2328 -0.2567  0.1238
 6680W        W10744   7.632   5.308   2.326 -0.0932  0.3744 -0.0202
 6681W        W10745   8.438   9.728   2.281 -0.0250 -0.0522  0.0464
 6682W        W10746   0.374   3.927   2.826 -0.3985 -0.0947  0.0196
 6683W        W10747   2.990   7.675   1.697  0.1057 -0.3130 -0.0254
 6684W        W10748  10.390   8.557   0.286  0.5039  0.5486 -0.1255
 6685W        W10749   2.855   2.948   2.744 -0.0234 -0.1351  0.4187
 6686W        W10750   2.820   8.249   0.355 -0.3302 -0.0995  0.3525
 6687W        W10751   7.789   3.075   0.647 -0.0952  0.0020  0.0975
 6688W        W10752   6.761  10.195  11.329 -0.0741  0.0951 -0.2247
 6689W        W10753   7.569  10.343   1.360 -0.1471 -0.0547  0.2061
 6690W        W10754   0.755   2.141   3.237 -0.2078  0.1431  0.0852
 6691W        W10755   1.576   3.934   1.855 -0.3048  0.1391 -0.1061
 6692W        W10756   7.286   8.082   3.623  0.0520  0.3294  0.0552
 6693W        W10757   3.725   5.386   3.719 -0.0031 -0.0214  0.2772
 6694W        W10758   0.263   8.936   9.657  0.1646 -0.1883 -0.1382
 6695W        W10759   8.164   4.117   2.396  0.0521  0.2326 -0.0209
 6696W        W10760   5.694   0.156   9.207  0.0270  0.0676  0.2212
 6697W        W10761   3.852   4.913   3.930  0.2068  0.1499 -0.0317
 6698W        W10762   9.337   4.890   1.972 -0.1472 -0.4229  0.1473
 6699W        W10763   8.368   2.674   2.075 -0.0065 -0.0977 -0.4049
 6700W        W10764   1.169   6.228   1.942  0.0554 -0.1277  0.0689
 6701W        W10765   7.892  10.285   4.301 -0.0055  0.0187  0.0304
 6702W        W10766   8.441   3.809  10.480  0.3229  0.0617  0.2321
 6703W        W10767   6.229   1.792   4.107 -0.0520 -0.0839  0.2173
 6704W        W10768   7.638   4.629   1.700 -0.0746 -0.0039  0.0214
 6705W        W10769   8.933   2.477   8.808  0.0927 -0.2810 -0.0639
 6706W        W10770   5.627   8.772   2.459 -0.0451 -0.2463  0.0547
 6707W        W10771   4.530  10.502   8.886 -0.0701  0.1281 -0.0078
 6708W        W10772   9.326   9.595   3.445 -0.0532  0.1394 -0.3637
 6709W        W10773   8.317   3.602   1.117  0.0712 -0.0248  0.1583
 6710W        W10774   8.378   8.723   2.788  0.0018 -0.1164  0.3464
 6711W        W10775   6.492   9.373   2.305 -0.2134 -0.4393 -0.1912
 6712W        W10776   8.183   2.036   8.429  0.3599  0.1167  0.1628
 6713W        W10777   3.961   5.557  11.491 -0.3795  0.1801  0.1297
 6714W        W10778  10.587   8.325   1.078  0.0720 -0.0592 -0.1968
 6715W        W10779   2.533   2.465   1.739  0.2673 -0.0437  0.0653
 6716W        W10780   6.807   9.655   9.629 -0.1363 -0.2028  0.0181
 6717W        W10781   3.532   9.959   0.979  0.0240 -0.2234  0.2160
 6718W        W10782   1.856  10.525   9.926 -0.0751 -0.1261 -0.0888
 6719W        W10783   4.800  10.134   9.049  0.1213 -0.0992 -0.0245
 6720W        W10784   2.617   6.118   0.699 -0.1915 -0.1681  0.0394
 6721W        W10785   7.164   1.995   4.276  0.0018  0.4265 -0.1529
 6722W        W10786   9.710   4.973   2.307 -0.2123  0.1483  0.2233
 6723W        W10787   3.752   9.044   1.125  0.0732  0.0605  0.2732
 6724W        W10788   6.268   2.044   1.573  0.1240 -0.0875  0.2282
 6725W        W10789   8.509   6.548   3.343 -0.0048  0.3341  0.2480
 6726W        W10790   8.449   0.332   0.302 -0.2031  0.2019 -0.2055
 6727W        W10791   4.135   0.770   2.513 -0.1082  0.0057 -0.0906
 6728W        W10792   5.300  10.398   2.915 -0.5106 -0.2857  0.3132
 6729W        W10793   6.461   5.490   8.887  0.1488  0.0151  0.1815
 6730W        W10794   8.560   1.066   1.627  0.1731 -0.3119 -0.2233
 6731W        W10795   6.501   7.922  11.060  0.1318 -0.0174  0.0220
 6732W        W10796   6.475   1.977  10.858 -0.1311  0.0818 -0.0189
 6733W        W10797   9.002   5.771   3.641  0.1536 -0.1748  0.1342
 6734W        W10798   0.097   8.939   3.065 -0.0779 -0.1773  0.0522
 6735W        W10799   4.740   4.391   3.818 -0.0306 -0.1243  0.1831
 6736W        W10800   7.440   8.303   0.068  0.2325  0.1146 -0.0106
 6737W        W10801   6.231   6.308   3.338  0.1836 -0.2260  0.3230
 6738W        W10802   6.496   8.967   3.331 -0.0256 -0.0407 -0.2216
 6739W        W10803   2.989   5.064   8.725  0.1125  0.0357 -0.2808
 6740W        W10804   0.596   5.721   1.494 -0.0365 -0.1886  0.1108
 6741W        W10805  10.286  10.350   2.104 -0.3371  0.0940 -0.1603
 6742W        W10806   9.704   4.137   9.167  0.3307 -0.1234 -0.0439
 6743W        W10807   7.206   8.276  10.336 -0.2444  0.0625  0.0313
 6744W        W10808   8.530   6.590  10.706 -0.1482  0.0175  0.3864
 6745W        W10809   3.488   3.604   1.566 -0.2182 -0.0566 -0.3583
 6746W        W10810   0.123   6.076   9.502  0.0084  0.0629 -0.0500
 6747W        W10811   6.961   9.229  10.707  0.0951  0.0797  0.1527
 6748W        W10812   6.262   0.869   0.539  0.2969 -0.1738 -0.3049
 6749W        W10813   9.786   8.990   4.141 -0.0372 -0.2146  0.2616
 6750W        W10814   9.411   4.329   0.523  0.3874  0.2049 -0.0034
 6751W        W10815  10.479   6.893  10.668 -0.3705 -0.1151 -0.0792
 6752W        W10816   0.280   2.278   8.720  0.1387  0.1286 -0.0379
 6753W        W10817   5.197   3.259   3.016 -0.2194 -0.0943 -0.1605
 6754W        W10818   6.612   9.288   9.147 -0.0349  0.1100  0.1353
 6755W        W10819   8.557   7.210  11.354  0.1543  0.1633 -0.0053
 6756W        W10820   6.795   0.245   9.285 -0.4180 -0.3508 -0.0921
 6757W        W10821  10.312  10.136   1.536  0.1123  0.2421  0.1663
 6758W        W10822   2.089   8.710   8.831 -0.2523 -0.2022 -0.0181
 6759W        W10823   2.122   8.989  11.445  0.4768 -0.0543 -0.0357
 6760W        W10824  10.519   0.618   1.341  0.2090 -0.0216  0.2273
 6761W        W10825   5.431   1.869  10.314 -0.1554  0.1401 -0.1961
 6762W        W10826   7.406   5.268   9.928  0.2178  0.0033  0.0128
 6763W        W10827   1.357   7.798   8.423 -0.2488  0.0665  0.0663
 6764W        W10828   4.848   4.477   2.957 -0.1726 -0.0299 -0.0256
 6765W        W10829   0.587   4.403  10.164  0.0372 -0.0016 -0.0778
 6766W        W10830   7.096   4.364   8.966  0.1294 -0.1963  0.0682
 6767W        W10831   8.869   9.366  11.154 -0.1952 -0.0658  0.1300
 6768W        W10832   8.115   4.561  10.866 -0.1465  0.1370 -0.1446
 6769W        W10833  10.125   1.571   0.732 -0.0793  0.0364  0.1263
 6770W        W10834   7.902   8.084   4.522 -0.0988  0.0295  0.0076
 6771W        W10835   0.236   6.554  10.350  0.0889 -0.4073 -0.1529
 6772W        W10836   2.610   7.558   8.465  0.4108 -0.0258 -0.1929
 6773W        W10837   3.876   4.101   0.765  0.1488  0.0901  0.2306
 6774W        W10838   2.337   5.932   9.968  0.0978  0.0232 -0.2710
 6775W        W10839   0.171  10.415  10.552  0.1301  0.1686  0.1410
 6776W        W10840   8.491   6.607   4.151  0.0651  0.1201  0.0632
 6777W        W10841   4.541   9.572   1.848 -0.1328 -0.1338 -0.0209
 6778W        W10842   0.352   4.629   2.234  0.1472 -0.3063 -0.0860
 6779W        W10843   0.813   7.099   8.791  0.0480  0.1816 -0.0729
 6780W        W10844   9.465   0.615   0.783 -0.2671 -0.5006  0.1968
 6781W        W10845   0.129   3.627  10.403 -0.0745 -0.0203 -0.0580
 6782W        W10846   5.297   5.659   8.412  0.0610  0.4536  0.0818
 6783W        W10847   7.239   7.025   8.480  0.1358 -0.1719  0.0397
 6784W        W10848   3.967   2.917   8.533 -0.0374 -0.1138 -0.0069
 6785W        W10849   1.216   8.222   3.820  0.0742  0.2936  0.2935
 6786W        W10850   3.482   0.838   0.605 -0.2991 -0.0321  0.0222
 6787W        W10851   7.565   3.815  10.929 -0.1658  0.1152  0.1816
 6788W        W10852   4.676   6.498   1.031 -0.0275 -0.2497 -0.2685
 6789W        W10853   4.552   1.769   1.626 -0.0592  0.2673 -0.2050
 6790W        W10854   5.498   7.376   9.294  0.1983  0.1446  0.3786
 6791W        W10855   1.592   6.680  11.335  0.2211 -0.0728  0.0623
 6792W        W10856   1.525   5.635   3.045 -0.1355 -0.0303  0.4262
 6793W        W10857   0.604   0.672   9.935  0.1122  0.0029 -0.1781
 6794W        W10858   4.192   5.866  11.169  0.0501 -0.0878  0.3450
 6795W        W10859   1.815   4.996  10.019 -0.2838  0.1549  0.0215
 6796W        W10860   6.600   1.307   2.140  0.0452  0.0781  0.0652
 6797W        W10861   1.898   2.360  10.050 -0.0663  0.1765 -0.0160
 6798W        W10862   0.494   4.268   3.567 -0.0224 -0.1468  0.1168
 6799W        W10863   8.051   4.051   9.249 -0.2293 -0.3750  0.3395
 6800W        W10864   0.937   9.172  11.542 -0.1348 -0.2240 -0.3141
 6801W        W10865   8.151  10.487  10.892  0.1393 -0.1344 -0.0132
 6802W        W10866   6.901   1.354   3.844 -0.0332  0.3318 -0.1312
 6803W        W10867   6.671   1.294   3.253 -0.2120 -0.0698  0.0011
 6804W        W10868   9.290   1.639   8.328  0.0148  0.1895  0.0545
 6805W        W10869   3.105   6.492   1.567 -0.0235 -0.0528  0.1395
 6806W        W10870   2.919   4.887   9.219 -0.1261  0.0877  0.1620
 6807W        W10871   6.561   5.747  11.073  0.2589  0.1676  0.0124
 6808W        W10872   3.016   9.228   9.961 -0.1691 -0.2428  0.0715
 6809W        W10873   4.708   8.124  10.263 -0.0812 -0.0776  0.0604
 6810W        W10874   5.611   9.988   3.988 -0.1438  0.0752  0.2149
 6811W        W10875   9.005  10.175   2.794 -0.0032  0.0443 -0.2162
 6812W        W10876  10.185   0.818   9.215 -0.0088  0.0764 -0.1808
 6813W        W10877   3.858  10.331   8.191 -0.0512 -0.0590 -0.1271
 6814W        W10878   6.653   6.534   9.601 -0.0852  0.0083 -0.0709
 6815W        W10879   5.509   7.671   8.853  0.0497  0.0034 -0.1320
 6816W        W10880   9.955   0.580   0.380 -0.1994  0.0217  0.1968
 6817W        W10881   9.500   9.657   1.873 -0.1418  0.2516 -0.2126
 6818W        W10882   1.680  10.050   9.817 -0.3067 -0.0596  0.0870
 6819W        W10883   5.479   0.084   9.869  0.0415 -0.0132 -0.0123
 6820W        W10884   2.741   2.751  11.134  0.1474 -0.0193  0.0486
 6821W        W10885   8.564   7.142   0.229 -0.1044  0.2178  0.0604
 6822W        W10886   4.705   8.990   0.506  0.0192  0.0083 -0.2839
 6823W        W10887   4.278   3.137   1.802  0.3008  0.0620  0.3306
 6824W        W10888   3.719   3.413  10.322  0.1637  0.1623  0.0859
 6825W        W10889   6.738   1.505  10.384  0.1271  0.2026 -0.1414
 6826W        W10890   5.758   2.226   2.501  0.1814 -0.0655 -0.1221
 6827W        W10891   9.903   9.382  11.110  0.3515 -0.1023  0.1027
 6828W        W10892   0.213   1.625   0.943  0.3064  0.2531  0.0214
 6829W        W10893   1.958   7.040   2.895  0.0041  0.1610  0.1156
 6830W        W10894   1.635   0.847   1.050  0.1322 -0.1616  0.1826
 6831W        W10895   3.982   6.857   0.576 -0.2767  0.0791 -0.0264
 6832W        W10896   3.744   8.788   7.679 -0.3564 -0.1255  0.2257
 6833W        W10897   8.928   6.441  11.674 -0.2242  0.2772 -0.0888
 6834W        W10898   8.504   6.291   8.941 -0.2177  0.1955 -0.2311
 6835W        W10899   1.441   4.019   9.785 -0.0052  0.0515  0.0959
 6836W        W10900   3.012   6.403  11.453  0.2316 -0.0156  0.0166
 6837W        W10901   2.049   0.198   8.590  0.1497 -0.0892  0.0086
 6838W        W10902   2.559   9.473   9.847  0.2295  0.0824  0.0008
 6839W        W10903   5.422   4.189   2.899  0.2191 -0.2062 -0.0538
 6840W        W10904   6.114   5.387   1.533 -0.1217  0.0629  0.1818
 6841W        W10905   5.485   6.631   8.340  0.0276  0.4415  0.1731
 6842W        W10906   7.159   7.814   3.194  0.0856  0.2007  0.1738
 6843W        W10907   0.144   8.207   0.196  0.1603 -0.2636 -0.1703
 6844W        W10908   1.332  10.556  11.666  0.2152 -0.1698 -0.0522
 6845W        W10909   0.359   0.458  11.395 -0.0508 -0.4086  0.1925
 6846W        W10910   4.205   6.001   0.633 -0.2495  0.0615 -0.1997
 6847W        W10911   9.591   9.414   3.089  0.1652  0.0647 -0.0662
 6848W        W10912   5.470   9.101  10.113 -0.1643  0.0238  0.1765
 6849W        W10913   9.210   5.073  10.113 -0.1735 -0.2740 -0.1012
 6850W        W10914   5.540   0.691   1.912 -0.2626  0.0318  0.0988
 6851W        W10915   5.582   9.919   0.856 -0.0374 -0.3865  0.1657
 6852W        W10916   2.114   9.455   1.097  0.3261 -0.1851  0.2145
 6853W        W10917   0.759   8.959   0.276 -0.0856  0.0947 -0.0543
 6854W        W10918   4.645   5.149  10.501  0.3531 -0.0731 -0.0943
 6855W        W10919   5.477   0.771   4.430 -0.0861 -0.1868 -0.2774
 6856W        W10920   5.348   3.626   9.188 -0.0410  0.0083 -0.1494
 6857W        W10921   5.406   9.454   1.233 -0.0367  0.2009 -0.1154
 6858W        W10922   9.529  10.147  10.065  0.3119 -0.2756  0.2389
 6859W        W10923   8.359  10.027   1.863  0.3586  0.1406 -0.2124
 6860W        W10924   6.051   3.317   7.821  0.1440 -0.0031  0.0972
 6861W        W10925   5.622   9.104   9.274 -0.0151  0.0534 -0.2850
 6862W        W10926   4.684   1.478   0.838 -0.1412  0.2314  0.0980
 6863W        W10927   7.231   9.892   2.394  0.1385  0.0008 -0.2229
 6864W        W10928   5.961   7.184   8.413  0.0403 -0.2262 -0.2595
 6865W        W10929   2.526   0.293   9.262 -0.2531 -0.0681  0.0498
 6866W        W10930   9.947   8.090   1.171  0.1168 -0.2449  0.3517
 6867W        W10931   4.393   8.432   7.270  0.0679  0.0135  0.3290
 6868W        W10932   7.573   6.115   3.268 -0.2084  0.0382  0.0717
 6869W        W10933   5.898  10.094  10.284 -0.1695 -0.0008 -0.1669
 6870W        W10934   6.610   3.041   8.404  0.0161  0.1581 -0.4536
 6871W        W10935   6.239   2.227   8.671  0.1060  0.1309  0.1848
 6872W        W10936   0.342   5.891   0.044  0.0429  0.3956 -0.1272
 6873W        W10937  10.066   4.756   3.274  0.0457 -0.1256 -0.1601
 6874W        W10938   2.950   0.071   2.092 -0.1849 -0.1763 -0.0590
 6875W        W10939   8.347   7.020   9.202 -0.1631 -0.3641 -0.0543
 6876W        W10940   1.505   8.113  10.451 -0.0017  0.2199  0.0505
 6877W        W10941   7.059  10.587   8.947  0.1894 -0.0770  0.2885
 6878W        W10942   8.102   0.896  10.774  0.0144  0.1558  0.1282
 6879W        W10943   4.690   8.988   9.688  0.0044  0.3746 -0.0691
 6880W        W10944   2.924  10.026  10.415 -0.1377  0.0988  0.1306
 6881W        W10945   5.277   2.129   8.543 -0.0350  0.2633 -0.1625
 6882W        W10946   8.516   1.267   8.776 -0.3585  0.2614 -0.3189
 6883W        W10947   8.554   0.850  10.630 -0.0356  0.0241  0.0785
 6884W        W10948   1.188   1.186  11.020  0.0160 -0.2162  0.0730
 6885W        W10949   4.099   0.163   9.636 -0.3366  0.0669 -0.4967
 6886W        W10950   0.777   1.491  10.663 -0.0758 -0.1266 -0.1706
 6887W        W10951   7.195   7.164   0.165  0.2098  0.2062 -0.0404
 6888W        W10952  10.329   9.611  11.537  0.1425  0.3782  0.1754
 6889W        W10953   2.690   2.710   3.209 -0.1451 -0.2388  0.0097
 6890W        W10954   3.191   5.113   2.310  0.1879 -0.3694 -0.3253
 6891W        W10955   1.588   8.394   7.913  0.0282 -0.3278 -0.3145
 6892W        W10956  10.265   9.320   2.963  0.0671  0.2312 -0.0043
 6893W        W10957   2.618   9.526   1.808 -0.1923 -0.0510 -0.1206
 6894W        W10958   4.210   6.334   9.958  0.0647  0.0092 -0.1409
 6895W        W10959   5.944   1.518   0.082  0.0183  0.1822 -0.1244
 6896W        W10960   4.791   2.849   9.088  0.1950 -0.2677 -0.4281
 6897W        W10961   4.919   9.433   1.421  0.1481  0.1982  0.0611
 6898W        W10962   1.190   2.694   1.269 -0.1238  0.0759  0.0695
 6899W        W10963   7.710   2.385   9.829  0.2017 -0.0422 -0.1772
 6900W        W10964   8.171   5.735   1.213 -0.3181  0.4141  0.1000
 6901W        W10965   7.876   9.105   2.065 -0.3310 -0.2755  0.0926
 6902W        W10966   4.156   6.906   3.500  0.1685 -0.0511 -0.0767
 6903W        W10967   5.601   6.434   0.631 -0.5249 -0.3134 -0.1169
 6904W        W10968   7.999   3.278   2.648 -0.2120  0.1398  0.0184
 6905W        W10969   4.575   9.128   2.812 -0.0249 -0.1700  0.4177
 6906W        W10970   0.191   9.440   3.025 -0.0674  0.1000  0.0724
 6907W        W10971  10.324   8.022   3.720  0.2402  0.2342 -0.3445
 6908W        W10972   7.632   4.250  10.700  0.5180  0.1265 -0.1997
 6909W        W10973   0.560   2.398   0.631 -0.1687 -0.1548 -0.0558
 6910W        W10974   9.486   4.505   8.554 -0.1806  0.3259  0.3798
 6911W        W10975   3.409  10.496  10.484 -0.1664 -0.2069 -0.2729
 6912W        W10976  10.494   8.196   9.063  0.1339  0.2888 -0.2884
 6913W        W10977  10.013   4.449   8.841  0.3343  0.3000  0.0811
 6914W        W10978   7.911   1.281   0.949 -0.0127  0.3145  0.1547
 6915W        W10979  10.315   7.988   0.013 -0.0768 -0.2252 -0.1097
 6916W        W10980   9.521   6.630   0.963 -0.3659  0.2311 -0.0285
 6917W        W10981   2.552   9.226   8.100 -0.2238  0.3375 -0.2318
 6918W        W10982   5.981   0.273   8.361  0.2782  0.1148 -0.1888
 6919W        W10983   3.925   3.105   3.159  0.2723  0.0467  0.2861
 6920W        W10984   1.511   3.588   2.698 -0.1193 -0.2955 -0.2314
 6921W        W10985   8.037   7.299   2.778 -0.3251  0.5254 -0.0093
 6922W        W10986   7.090   9.655   3.823  0.1445 -0.0193 -0.0800
 6923W        W10987   4.250   3.384   0.226  0.1384  0.0140  0.2591
 6924W        W10988   9.984   6.483   9.004  0.2595 -0.0314  0.2185
 6925W        W10989   1.418   0.689  11.321  0.2331  0.1497  0.0654
 6926W        W10990   1.135   3.755   2.162  0.0385 -0.0934 -0.1871
 6927W        W10991   4.085   1.181  11.469  0.1885  0.1815 -0.2014
 6928W        W10992   7.347   1.077   2.151  0.1853 -0.2944  0.1616
 6929W        W10993   5.646   1.047   2.256 -0.0377 -0.1468 -0.0574
 6930W        W10994   9.019   6.633   2.610  0.0360  0.5999 -0.0834
 6931W        W10995   5.633   2.258   8.944  0.0534  0.0963 -0.1692
 6932W        W10996   5.277   6.214   2.262  0.0467  0.1317  0.1947
 6933W        W10997   6.795   8.245   2.939 -0.0199 -0.1131  0.0694
 6934W        W10998   3.241   2.198   9.026 -0.0843 -0.0275  0.1549
 6935W        W10999   0.191   0.495   2.974  0.1519 -0.0006  0.1967
 6936W        W11000   2.045   0.062  10.943  0.0450  0.4801 -0.2870
 6937W        W11001   2.177   7.767   2.562  0.0794  0.0630  0.0101
 6938W        W11002   3.202   1.386  11.555 -0.0513 -0.3217  0.0337
 6939W        W11003   4.919  10.565   2.690 -0.2735 -0.4225  0.2427
 6940W        W11004   5.594   0.722   3.652  0.2573 -0.1879  0.1843
 6941W        W11005   6.800   3.112   9.589 -0.2483 -0.1447 -0.1644
 6942W        W11006   2.846   4.394   1.944  0.1126  0.1015 -0.1966
 6943W        W11007   7.986   3.821   1.468 -0.0562 -0.2690  0.1345
 6944W        W11008  10.122   8.605   0.750  0.0136  0.1783  0.1316
 6945W        W11009   2.020   0.690   3.167 -0.2171 -0.1709 -0.0165
 6946W        W11010   4.836  10.199  11.661  0.0931  0.0472  0.1560
 6947W        W11011   6.799   3.279   2.288 -0.1317 -0.1259  0.0158
 6948W        W11012   5.277   6.170   8.401 -0.3328 -0.2007  0.1161
 6949W        W11013  10.347   5.576   3.017  0.1797 -0.1076  0.0722
 6950W        W11014  10.490   0.124   1.539 -0.0147 -0.2109  0.1689
 6951W        W11015   7.087  10.505   1.227  0.1802 -0.4399 -0.2080
 6952W        W11016   7.872   8.158   8.292 -0.1637  0.0727 -0.0072
 6953W        W11017   0.530   7.323   1.230  0.1847 -0.1840  0.1901
 6954W        W11018   0.941   9.852   3.938  0.3787 -0.0691  0.0426
 6955W        W11019   7.663   3.485   2.995 -0.0881  0.1576  0.0556
 6956W        W11020   0.691   1.793   0.825  0.0621  0.1072 -0.1297
 6957W        W11021   5.761   3.683   0.978 -0.2893  0.1347 -0.0198
 6958W        W11022   2.665   9.010   4.287  0.4172  0.2593 -0.3657
 6959W        W11023   5.023   1.565   0.401  0.1850 -0.2946 -0.0770
 6960W        W11024  10.233   3.695  11.124 -0.2493 -0.0389  0.1880
 6961W        W11025   2.103   6.038   3.602  0.0575  0.1081 -0.2463
 6962W        W11026   1.156  10.339  10.272  0.0754 -0.2508 -0.1574
 6963W        W11027   2.622   2.260  11.270 -0.1298 -0.0126  0.0950
 6964W        W11028   0.247   0.516   0.590  0.2231  0.0316 -0.0631
 6965W        W11029   3.721  10.465   0.473  0.3117  0.1657  0.1119
 6966W        W11030   2.971   8.786   2.015  0.3243  0.2907 -0.0576
 6967W        W11031   6.770   0.890   8.193  0.1107  0.0307 -0.0825
 6968W        W11032   6.438   2.023   9.516 -0.1277 -0.1214 -0.3111
 6969W        W11033  10.280   0.608   0.779  0.0522 -0.2052  0.4421
 6970W        W11034   0.575   5.997   2.533 -0.0287 -0.3512  0.1084
 6971W        W11035   9.338   9.311   1.040 -0.2676  0.2164  0.0530
 6972W        W11036   2.056   7.111   3.513  0.2145 -0.2351 -0.0122
 6973W        W11037   6.084   3.871   2.097  0.0480 -0.0306 -0.0913
 6974W        W11038   0.549   8.119  11.105 -0.1968 -0.1535 -0.2637
 6975W        W11039   0.877   2.585   0.265  0.3800 -0.0123  0.2857
 6976W        W11040   5.830   5.139   2.543 -0.0019  0.0499  0.3680
 6977W        W11041   0.123   5.126   2.803  0.1559 -0.3826  0.1426
 6978W        W11042   7.021   8.277   9.530  0.2462 -0.0220 -0.1164
 6979W        W11043  10.140   1.566  10.334 -0.0536 -0.2340 -0.0941
 6980W        W11044   5.189   2.646  11.319  0.2605 -0.0141  0.0446
 6981W        W11045   9.901   7.271   3.010  0.0187 -0.0163 -0.3032
 6982W        W11046   5.829   1.743   0.959  0.2176 -0.0620 -0.2373
 6983W        W11047   2.653   7.210   8.875  0.1850 -0.3281 -0.3470
 6984W        W11048   6.184   7.714  11.520 -0.3874  0.0496 -0.0672
 6985W        W11049   0.686   6.017  11.357 -0.0845 -0.0927  0.1506
 6986W        W11050   6.220   1.297   0.856 -0.0921 -0.1420 -0.1021
 6987W        W11051   8.997   8.265   3.736 -0.0838 -0.1007 -0.0610
 6988W        W11052   4.218   1.584   9.575 -0.2211 -0.0062  0.2053
 6989W        W11053   5.661   7.037  10.161 -0.1267  0.1944  0.4258
 6990W        W11054   6.668   5.559   2.369 -0.0346 -0.1086  0.3455
 6991W        W11055   0.025   6.154   4.689 -0.2074  0.0397 -0.3204
 6992W        W11056   9.972   4.026   0.120  0.0941 -0.1806 -0.5115
 6993W        W11057   1.915  10.457   8.194  0.0571  0.2981 -0.0694
 6994W        W11058   9.054   8.685   2.496 -0.0674  0.1722  0.2447
 6995W        W11059   3.455   9.500   7.922 -0.2315 -0.0919  0.1200
 6996W        W11060   7.669   3.894   9.028 -0.0108  0.0526 -0.0734
 6997W        W11061   5.126   4.608   3.548  0.1798  0.2131 -0.2734
 6998W        W11062   6.962   0.615   9.565  0.1604  0.2576  0.1930
 6999W        W11063   5.557   0.955   9.875 -0.1112  0.0967  0.0797
 7000W        W11064   2.826   8.699   9.245 -0.2369 -0.1814 -0.0124
 7001W        W11065  10.524   3.440   8.539 -0.1280 -0.0922 -0.3117
 7002W        W11066   5.242   4.034  11.662  0.2173 -0.3129 -0.0401
 7003W        W11067   8.555   5.340   4.019 -0.1375 -0.0916 -0.4347
 7004W        W11068   4.054   0.640   8.954  0.0771 -0.0915 -0.0802
 7005W        W11069   7.018   2.763   8.538 -0.1394  0.2325  0.0779
 7006W        W11070   4.474   4.449   9.300  0.0472  0.1804  0.1372
 7007W        W11071   8.905   0.043   8.824 -0.0337 -0.1476 -0.0132
 7008W        W11072   4.161   5.123   0.562  0.1230 -0.0563 -0.0680
 7009W        W11073   6.284   8.761  10.313  0.2244  0.1652  0.0857
 7010W        W11074   7.014   4.022   9.350 -0.3027 -0.3612  0.1887
 7011W        W11075   9.000   0.150   7.726  0.0118 -0.0594  0.0278
 7012W        W11076   4.424   1.386  10.020 -0.2058 -0.2864 -0.0346
 7013W        W11077   2.327   7.340   8.088 -0.0327 -0.0693 -0.3407
 7014W        W11078   4.542   4.993  11.556  0.0378  0.2485 -0.1528
 7015W        W11079   8.949   4.851   9.232  0.1828 -0.0604 -0.1473
 7016W        W11080   7.344   2.208  10.636 -0.3386  0.1634  0.4049
 7017W        W11081   7.041   1.390   1.872  0.0732  0.3195  0.0191
 7018W        W11082   0.755   7.170   0.314  0.0371  0.0075 -0.1353
 7019W        W11083   2.038   4.944   8.696  0.2900  0.1296  0.0741
 7020W        W11084   4.110   8.112   2.906  0.2869 -0.2582 -0.1046
 7021W        W11085   9.201   2.927   0.979 -0.0926  0.0943 -0.1460
 7022W        W11086   6.621   2.402   8.374  0.2327 -0.3481  0.1434
 7023W        W11087   9.054   0.630   2.213 -0.0865 -0.2146  0.0770
 7024W        W11088   1.764   6.582  10.272  0.3132  0.2373  0.2020
 7025W        W11089   1.756   9.675  11.327  0.1186  0.0978 -0.3446
 7026W        W11090   7.816   6.862   1.205 -0.1510  0.0593 -0.2329
 7027W        W11091   3.891   3.350   9.881  0.0635  0.0665 -0.0630
 7028W        W11092   5.254   7.290   0.441  0.4504  0.2486 -0.0064
 7029W        W11093   0.750   8.737   2.651 -0.0226  0.1007  0.1446
 7030W        W11094   6.508   8.735   0.532 -0.1250  0.1489  0.2066
 7031W        W11095   6.164   5.454   3.640 -0.1335  0.0156  0.0412
 7032W        W11096   4.199   4.646   3.678 -0.0618 -0.0333  0.1182
 7033W        W11097   6.315   8.813   1.042  0.1093  0.0530 -0.1722
 7034W        W11098  10.445   7.084  10.145 -0.0400  0.4170  0.0036
 7035W        W11099  10.105   9.181   8.017  0.0777 -0.2299 -0.1112
 7036W        W11100   5.149   4.770  10.265 -0.0161 -0.1591  0.1071
 7037W        W11101   9.429   7.053   3.124  0.0799 -0.0855  0.1513
 7038W        W11102   0.818   8.367   3.500 -0.0192 -0.0778  0.3172
 7039W        W11103   5.649   4.751  10.556  0.2973  0.0591 -0.0268
 7040W        W11104   5.963   8.549   1.863  0.3275  0.0373  0.2262
 7041W        W11105   6.598   8.860   1.455  0.1683  0.0151  0.1241
 7042W        W11106   8.959   5.287   3.609 -0.2759 -0.0601  0.3457
 7043W        W11107   7.303   1.476   1.390  0.2182  0.1839  0.0904
 7044W        W11108   8.575  10.486   3.556  0.1372  0.0230 -0.3345
 7045W        W11109   5.732   2.883  11.271 -0.0325  0.1492  0.0111
 7046W        W11110   8.681   8.858  10.953  0.1217 -0.1793 -0.3945
 7047W        W11111   3.180   5.052  11.103  0.1752  0.2798  0.0055
 7048W        W11112   9.886   8.266   1.616  0.1260  0.2614  0.0729
 7049W        W11113   0.108   6.338   3.490 -0.1835  0.0759  0.2392
 7050W        W11114   0.067  10.162   7.795 -0.2082  0.0083 -0.1314
 7051W        W11115   6.921   2.594  11.377 -0.1554 -0.0551 -0.1858
 7052W        W11116   4.738   6.859   8.005 -0.0524  0.1108  0.6512
 7053W        W11117   3.243   3.957   1.917  0.0464  0.0170 -0.1891
 7054W        W11118   7.507   5.206  11.524 -0.1322  0.0228 -0.1942
 7055W        W11119   6.070  10.200   0.162  0.2322 -0.4522  0.0881
 7056W        W11120   3.822   0.816   9.472  0.0289 -0.0189  0.1265
 7057W        W11121   4.033   0.273   8.604  0.1959 -0.1746 -0.0309
 7058W        W11122   6.978   4.926   0.668  0.2104 -0.0105  0.1401
 7059W        W11123   9.533   1.577  10.202  0.1423  0.2050 -0.1099
 7060W        W11124   9.746   9.798   2.279  0.1192 -0.0534 -0.1353
 7061W        W11125   0.118   1.708   9.399 -0.1586  0.3878 -0.0560
 7062W        W11126   9.825   7.580  10.739  0.3096 -0.3071  0.2607
 7063W        W11127   6.074   7.999   9.753  0.0918  0.0919  0.3897
 7064W        W11128   1.251  10.589   2.220 -0.1249  0.0353 -0.0951
 7065W        W11129   2.281   4.704  11.597  0.0271 -0.2795 -0.1485
 7066W        W11130   7.795   3.500   0.909 -0.3927 -0.1451  0.2426
 7067W        W11131   6.597   0.411   1.959  0.1181  0.1147 -0.1096
 7068W        W11132   1.493   5.366  10.169 -0.0266  0.0044  0.0175
 7069W        W11133   3.802   3.892   3.578  0.2187 -0.1101  0.2016
 7070W        W11134   6.723   7.123   0.449 -0.1050  0.0449 -0.0008
 7071W        W11135   5.727   1.287   1.051  0.0552  0.2067 -0.0027
 7072W        W11136   1.351   4.565   3.052  0.2946 -0.1509  0.1726
 7073W        W11137   8.506   2.388   9.271  0.0306  0.3141  0.0950
 7074W        W11138   5.333   3.565   1.597 -0.0814 -0.3557 -0.0605
 7075W        W11139   5.979   5.652   8.850  0.0866 -0.1429  0.1426
 7076W        W11140   6.321   8.006   8.598  0.1519 -0.2732  0.4494
 7077W        W11141   5.135   2.364  10.860 -0.0341 -0.1176 -0.3152
 7078W        W11142   3.141   1.919  10.813 -0.3949 -0.0487  0.0531
 7079W        W11143   2.230   3.797   1.848  0.0700 -0.2394  0.1654
 7080W        W11144   2.219   8.068   0.965  0.0871  0.1448 -0.0954
 7081W        W11145   3.609   4.496   0.515 -0.0387  0.2196 -0.1781
 7082W        W11146   2.612   7.033   3.576  0.0822 -0.2588  0.2745
 7083W        W11147   3.795   8.356  11.633  0.0865 -0.2053  0.0484
 7084W        W11148  10.508   2.173   0.241  0.0956 -0.3623  0.2346
 7085W        W11149   4.918   6.565   2.420 -0.3048 -0.3155 -0.0427
 7086W        W11150   5.893   5.430  10.324  0.0946  0.2612 -0.0602
 7087W        W11151   1.869   6.753   1.046 -0.0238 -0.0742  0.2901
 7088W        W11152   3.401   5.342   8.603  0.2330 -0.1483  0.0146
 7089W        W11153   6.677   3.868  10.549  0.0915 -0.1767  0.2368
 7090W        W11154  10.355   9.794   3.161  0.3857  0.0977  0.0632
 7091W        W11155   8.652  10.468   0.132 -0.0452  0.1780 -0.1841
 7092W        W11156   2.701  10.083  11.278 -0.0830  0.1326  0.0845
 7093W        W11157   5.190   3.172   8.906  0.1855 -0.0899 -0.0441
 7094W        W11158   9.245   8.404  10.944  0.1969 -0.2087  0.3058
 7095W        W11159   1.249   7.175  10.713 -0.0258  0.1881  0.1271
 7096W        W11160   7.363   5.303   3.071 -0.2280  0.0078  0.0328
 7097W        W11161   8.568   7.160   7.820 -0.0754 -0.1176 -0.1031
 7098W        W11162   0.457  10.015   2.096 -0.3299 -0.2332 -0.0798
 7099W        W11163   1.053   5.370   3.072 -0.0224 -0.1733  0.1210
 7100W        W11164   1.239   9.613   8.394  0.2591  0.2704 -0.4520
 7101W        W11165   2.955   3.501   2.829  0.1858 -0.2275 -0.2689
 7102W        W11166   9.031   8.028  10.596 -0.1184 -0.2791 -0.3608
 7103W        W11167   9.569   1.783   1.302 -0.1477 -0.0195 -0.0200
 7104W        W11168   3.456   3.310   0.446 -0.1115  0.0487 -0.1532
 7105W        W11169   4.016   7.862   0.593 -0.0153  0.0069  0.1041
 7106W        W11170   1.135   4.747   8.580 -0.1596  0.0878  0.4901
 7107W        W11171   1.320   5.530   3.474 -0.1139 -0.0061  0.1183
 7108W        W11172   0.775   8.305   9.603  0.0555  0.1769  0.3078
 7109W        W11173   3.135   7.580   0.526 -0.0976 -0.2997 -0.1611
 7110W        W11174   0.590   8.019   0.002 -0.0757 -0.0315 -0.1124
 7111W        W11175   5.194   4.655   2.051  0.1809  0.2753  0.1896
 7112W        W11176   6.695   1.298   9.931 -0.2191  0.3562  0.2617
 7113W        W11177   8.163   4.067  10.165  0.1496  0.1437 -0.2291
 7114W        W11178   2.104   1.905   2.004  0.1237 -0.0650  0.4501
 7115W        W11179   9.497   8.563   1.464  0.0095  0.2485  0.1709
 7116W        W11180   6.251   4.532   3.144 -0.1110  0.2700 -0.1585
 7117W        W11181   6.291   1.519   3.674  0.0671 -0.1405 -0.2839
 7118W        W11182   2.836   1.734   0.508  0.1053  0.2633 -0.0327
 7119W        W11183   8.672   4.950   3.268 -0.1442 -0.2566 -0.0740
 7120W        W11184   0.699   6.437  10.891 -0.0815  0.0790  0.4344
 7121W        W11185   7.518   1.621   9.437 -0.3633 -0.0098 -0.3851
 7122W        W11186   7.465   5.207   1.803  0.2294  0.0194 -0.3007
 7123W        W11187   8.683   1.008   2.123  0.3257 -0.1476 -0.0809
 7124W        W11188   1.042   7.871   9.568  0.0490 -0.2034 -0.1334
 7125W        W11189   3.064   9.478   9.476 -0.4316 -0.1047 -0.2074
 7126W        W11190  10.376   9.000   3.386 -0.0373 -0.1482 -0.0392
 7127W        W11191   9.057   7.220   0.410 -0.0676 -0.2284  0.1778
 7128W        W11192   6.113   3.517   0.632  0.3155  0.1696 -0.2156
 7129W        W11193   5.825   7.891   2.559 -0.1429 -0.1380  0.0245
 7130W        W11194   4.212   3.741   1.904 -0.2824 -0.2679  0.1669
 7131W        W11195   0.535   5.788   0.962 -0.1029 -0.0800  0.4403
 7132W        W11196   3.642   9.416   2.794 -0.3961  0.1598 -0.0967
 7133W        W11197   1.744   2.151  11.365  0.0425  0.2682 -0.0550
 7134W        W11198   5.699   9.167   7.894  0.1166 -0.1662  0.0565
 7135W        W11199   9.061  10.281  10.919  0.2472  0.1610  0.3404
 7136W        W11200   6.225  10.015   8.267  0.0322  0.1667 -0.1261
 7137W        W11201   5.415   5.554  10.641 -0.1697 -0.0075  0.0627
 7138W        W11202   5.999   9.700   1.048  0.1442 -0.1029 -0.0562
 7139W        W11203   2.627   5.051   0.219  0.1485  0.0799 -0.2361
 7140W        W11204   1.948   8.892   1.874 -0.1123  0.2566  0.1980
 7141W        W11205   4.390   1.320   1.786 -0.0362 -0.0977  0.0600
 7142W        W11206   9.261   3.028   3.969 -0.3209 -0.2799 -0.0572
 7143W        W11207   2.271   9.223   2.117 -0.0170  0.0566  0.0951
 7144W        W11208   7.231   6.738  10.272 -0.4041  0.3531  0.0862
 7145W        W11209   7.853   8.592   2.429  0.0137  0.1072  0.1727
 7146W        W11210   6.382   9.966  11.011 -0.1786 -0.1198 -0.1028
 7147W        W11211   2.741   3.424   1.051  0.1832 -0.0389  0.1075
 7148W        W11212   9.212   9.523   0.592  0.0563  0.1624 -0.0047
 7149W        W11213   0.418  10.327  11.596  0.0947  0.0059  0.1820
 7150W        W11214   4.329   9.596   2.546 -0.1633 -0.1329  0.2069
 7151W        W11215   6.737   8.350   1.377  0.0195  0.1417  0.1191
 7152W        W11216   4.604   7.139   1.852  0.0407 -0.1592  0.5293
 7153W        W11217   2.176   7.788   8.246  0.0804 -0.1256  0.1055
 7154W        W11218   5.058   9.898   9.399 -0.2114  0.2950 -0.0728
 7155W        W11219   7.545   4.261   8.048 -0.2535  0.4310 -0.0909
 7156W        W11220   5.527   1.743  11.576 -0.1089  0.1242  0.2423
 7157W        W11221   6.066   9.880   2.970 -0.1565  0.1787 -0.3728
 7158W        W11222   0.491   9.423   9.505 -0.1692 -0.0385  0.0887
 7159W        W11223   3.283   4.494   2.233  0.2686 -0.2211  0.4995
 7160W        W11224   2.376   4.723   1.262  0.0916  0.1746 -0.1071
 7161W        W11225   1.255   8.839   9.337 -0.1914 -0.0270  0.0647
 7162W        W11226   5.099   1.961   0.140 -0.3416 -0.0720  0.0564
 7163W        W11227   8.457   6.977   3.192  0.0579 -0.2820  0.2380
 7164W        W11228   6.212   7.149   0.445  0.1413  0.0806  0.0298
 7165W        W11229   5.123   2.182   9.934 -0.3405 -0.1212 -0.1421
 7166W        W11230   4.013   4.142   9.313 -0.1831  0.1319  0.0914
 7167W        W11231   2.764   6.256   3.071  0.0278 -0.2404 -0.1469
 7168W        W11232   1.886   6.548   2.969  0.0194  0.2235  0.1367
 7169W        W11233   8.243   2.787   3.471  0.0991 -0.0538 -0.1975
 7170W        W11234   7.041   4.972  10.222 -0.0640  0.2541 -0.0058
 7171W        W11235   8.582   4.269   9.132 -0.1493  0.1894  0.0201
 7172W        W11236   2.299   6.530  10.410  0.4115 -0.3841 -0.2296
 7173W        W11237   7.289   0.805  10.423 -0.0599 -0.2126  0.3213
 7174W        W11238   0.413   1.467   2.414 -0.1703  0.1381  0.2574
 7175W        W11239   5.596   7.785   0.335  0.0266 -0.0246  0.2794
 7176W        W11240   4.808   1.272   2.564 -0.0905  0.0136 -0.1225
 7177W        W11241   9.883   5.399   9.823 -0.4528  0.0218  0.2629
 7178W        W11242   4.229   7.844  10.172  0.2677 -0.2868  0.3064
 7179W        W11243   5.175   1.222   2.091  0.0414 -0.0084 -0.1102
 7180W        W11244   9.213   2.407   2.543  0.3006 -0.0315 -0.3722
 7181W        W11245   8.607   1.364   9.685  0.0764 -0.0223  0.1963
 7182W        W11246   4.719   7.940   4.114  0.0031  0.4199  0.0879
 7183W        W11247   4.619   5.444   3.738  0.2666 -0.1332 -0.1778
 7184W        W11248   5.091   6.618   9.613 -0.0142  0.0852  0.1267
 7185W        W11249   2.135   1.992   0.394 -0.0682 -0.1433 -0.1630
 7186W        W11250   8.290   1.281  10.531  0.0610 -0.0173  0.0570
 7187W        W11251   0.655   9.792   1.216  0.2887 -0.2778  0.1788
 7188W        W11252   5.359   8.709   2.931  0.1918 -0.1247 -0.0165
 7189W        W11253   5.329   7.300   2.599 -0.4224  0.1256 -0.1434
 7190W        W11254   2.861   1.166   1.300  0.2138 -0.0942 -0.1096
 7191W        W11255   2.350   8.509   9.258 -0.1202  0.3888  0.0416
 7192W        W11256   8.462   1.221   0.729 -0.2238 -0.2124 -0.2197
 7193W        W11257   7.940   4.884   8.129 -0.1872 -0.0398  0.0836
 7194W        W11258   6.793   8.848  10.151  0.2124  0.0039 -0.1752
 7195W        W11259   8.431   4.646   1.852 -0.1511  0.0093 -0.3296
 7196W        W11260   0.295   2.245   2.458  0.0044  0.0137 -0.1655
 7197W        W11261   7.883   2.624   0.399 -0.0721  0.0627  0.0767
 7198W        W11262   3.171   9.135   9.119 -0.1420  0.0318 -0.3180
 7199W        W11263   4.473   3.653   8.702  0.0560  0.1861  0.1467
 7200W        W11264   7.803   2.192   4.448  0.4255 -0.0362 -0.1484
 7201W        W11265   4.483  10.524   0.325 -0.3917 -0.1632 -0.2510
 7202W        W11266   0.315   6.917   9.929  0.2059 -0.1903 -0.0349
 7203W        W11267   7.530  10.344   3.380 -0.0430  0.1740  0.1406
 7204W        W11268   6.619   7.383   9.800 -0.0222  0.0062  0.2972
 7205W        W11269   4.219   9.980   2.223 -0.2656 -0.1092  0.0709
 7206W        W11270   8.646   0.522   1.885  0.0679  0.1689 -0.0701
 7207W        W11271   7.864   1.545  10.281 -0.0013 -0.1721  0.0022
 7208W        W11272   2.051   1.218   9.784  0.1706  0.2740  0.0820
 7209W        W11273   9.928   3.356   0.826  0.1146  0.0747  0.2607
 7210W        W11274   5.598   1.829  11.134  0.3409 -0.3964  0.5118
 7211W        W11275   1.959   7.720   7.654 -0.1108 -0.0752 -0.1190
 7212W        W11276   1.232   0.304   0.371 -0.0588 -0.1785  0.0858
 7213W        W11277   6.834   0.424  10.293  0.2064 -0.1330  0.0565
 7214W        W11278   5.040   1.231  10.682 -0.2542  0.1952  0.1914
 7215W        W11279   1.655   5.277   0.337 -0.0563  0.1075 -0.0493
 7216W        W11280   3.316   5.531   9.616  0.4066  0.1118  0.0729
 7217W        W11281   0.066   1.450   8.940  0.1274 -0.0513 -0.1066
 7218W        W11282   7.536   9.778   1.387  0.0814 -0.1427  0.0300
 7219W        W11283   6.256   8.418   1.355  0.1468  0.2124  0.1223
 7220W        W11284  10.391   0.423  11.502 -0.2051  0.1066  0.1569
 7221W        W11285   0.212   8.463   9.711 -0.1917 -0.0984  0.3170
 7222W        W11286   1.083   8.601   0.540  0.0585  0.0376 -0.1929
 7223W        W11287   5.861   1.255   0.521  0.1860 -0.1273  0.1938
 7224W        W11288   5.952   5.157   4.543 -0.2135  0.0818  0.2502
 7225W        W11289   6.073   1.638   9.447  0.0522  0.4373  0.0483
 7226W        W11290   1.111   5.691  10.074  0.0111 -0.0218  0.2030
 7227W        W11291   8.844   3.558  10.636 -0.1205  0.1957 -0.3440
 7228W        W11292   4.467   7.308   1.392  0.1463  0.1278 -0.0016
 7229W        W11293   5.396  10.556   1.204 -0.2892 -0.1051 -0.2007
 7230W        W11294   7.215   4.764   3.982 -0.0237 -0.0862 -0.1209
 7231W        W11295   1.062  10.557   9.011 -0.0716  0.5680 -0.0142
 7232W        W11296   2.270   6.402  11.612  0.0260  0.3840  0.2335
 7233W        W11297   8.392   8.104  10.477 -0.2918 -0.3128  0.0260
 7234W        W11298   7.965   0.564   1.239  0.0310  0.2192  0.2511
 7235W        W11299   8.304   0.189   1.668 -0.0607  0.1683  0.1645
 7236W        W11300  10.267  10.312   9.240  0.2838 -0.1971 -0.1231
 7237W        W11301   8.153   8.110   3.312  0.1454  0.1121 -0.1483
 7238W        W11302  10.158   5.156   2.953 -0.2162 -0.1292 -0.0796
 7239W        W11303   1.544  10.354  10.760  0.2109  0.3402  0.2363
 7240W        W11304   1.853   6.284   9.797 -0.0558 -0.2237 -0.3188
 7241W        W11305   2.556   0.979   8.929  0.0404 -0.1701 -0.4158
 7242W        W11306   6.705  10.205   1.240  0.0356  0.0130  0.0483
 7243W        W11307   3.673  10.537   8.682 -0.2195 -0.0458 -0.3041
 7244W        W11308  10.017   2.212   2.062  0.1609 -0.1529  0.4123
 7245W        W11309   5.965   3.779  11.006  0.0809 -0.0110  0.3062
 7246W        W11310   5.324   5.932   3.450 -0.0585  0.1768 -0.0659
 7247W        W11311   4.046   2.671  11.092 -0.4644 -0.2290  0.2094
 7248W        W11312   3.994   3.781   8.865 -0.1395 -0.1838  0.5724
 7249W        W11313   3.919   4.048  10.897  0.2651 -0.0913  0.2203
 7250W        W11314   2.667   8.696   7.216 -0.0759  0.2068  0.0772
 7251W        W11315   3.428  10.441   1.963  0.0505 -0.1034  0.0350
 7252W        W11316   1.282   1.947   3.288 -0.0117  0.2510  0.1798
 7253W        W11317   9.917   1.404   0.227  0.0377 -0.1156  0.3492
 7254W        W11318  10.520   5.816   0.274  0.2326 -0.6373 -0.1590
 7255W        W11319   4.200   6.739   4.089  0.1713 -0.0890 -0.0171
 7256W        W11320  10.377  10.419   2.600 -0.1567 -0.3220 -0.3316
 7257W        W11321   5.168  10.129  10.830 -0.1174 -0.0633 -0.0603
 7258W        W11322   5.543   9.602   0.384 -0.2977 -0.1838 -0.0525
 7259W        W11323   2.487   5.494   9.530 -0.2185  0.0799 -0.2865
 7260W        W11324   8.945   3.399   2.226 -0.2388 -0.2792 -0.1218
 7261W        W11325   9.157   9.707   9.954 -0.4660 -0.0003 -0.0070
 7262W        W11326   9.549   5.190   8.738  0.0038 -0.3335 -0.3962
 7263W        W11327  10.312   5.554  10.682  0.0036 -0.0808  0.2880
 7264W        W11328   6.591   1.768   9.955  0.1965  0.0457  0.1087
 7265W        W11329   8.289   2.552   1.277 -0.2034  0.0150 -0.1533
 7266W        W11330   1.481   5.803   1.195 -0.0913  0.0948  0.0082
 7267W        W11331   4.722   7.691  11.592 -0.0753  0.2328 -0.0252
 7268W        W11332   9.673   4.494   9.920  0.3452  0.3034  0.0640
 7269W        W11333   7.123   9.074   2.502  0.0360 -0.1638  0.1331
 7270W        W11334   3.080   8.717  10.142  0.0330 -0.0111  0.2195
 7271W        W11335   8.301   8.462   0.469 -0.0419  0.1496  0.1441
 7272W        W11336   1.837   3.235  10.413  0.1669  0.0346 -0.2397
 7273W        W11337   3.244   0.827   2.426  0.0326 -0.3185  0.1641
 7274W        W11338   7.654   2.277   0.131  0.0393  0.4940  0.2025
 7275W        W11339   4.440   3.894   7.767 -0.1525  0.0302 -0.0956
 7276W        W11340   8.118   8.614   3.374 -0.0415 -0.1480  0.0167
 7277W        W11341   2.981   5.899  11.557  0.1159 -0.0275  0.3075
 7278W        W11342  10.391   6.068   0.935 -0.0890 -0.1611 -0.1537
 7279W        W11343   3.364   9.675   2.400  0.0451  0.2898 -0.1302
 7280W        W11344   6.369   3.780  11.308 -0.2525 -0.0784  0.2628
 7281W        W11345   1.468   7.584   2.036 -0.0512 -0.1045  0.2419
 7282W        W11346   5.792   2.026   2.948 -0.0122 -0.3767 -0.3946
 7283W        W11347   6.737   2.086   8.769  0.1359 -0.0994 -0.2294
 7284W        W11348   3.568   8.543   0.541  0.0373 -0.2380  0.0021
 7285W        W11349   4.937   9.605   8.381 -0.0124  0.4543 -0.2569
 7286W        W11350   1.033   4.550   1.726  0.0244  0.0189  0.1045
 7287W        W11351   2.115   0.287  11.423  0.0689  0.1336 -0.2071
 7288W        W11352   9.187   8.148   1.593  0.1906  0.1483  0.2551
 7289W        W11353   5.484  10.073   7.781  0.0017 -0.0117  0.0244
 7290W        W11354   8.602   5.974   9.356  0.1658 -0.1175  0.1143
 7291W        W11355   7.486   9.425   2.231  0.1918 -0.0499 -0.1919
 7292W        W11356   4.940   6.788   3.833  0.0141  0.0459 -0.1117
 7293W        W11357   9.444   6.184   1.932 -0.2763  0.1300 -0.0872
 7294W        W11358   0.893   0.658   1.235 -0.0323  0.0589 -0.1357
 7295W        W11359   4.306   6.898  10.042  0.0401 -0.1294  0.2741
 7296W        W11360   1.934   4.751   0.338  0.1908 -0.5177  0.2621
 7297W        W11361   4.643   6.188   8.589  0.0825  0.1232 -0.1133
 7298W        W11362   2.747   8.350   2.859 -0.0552 -0.0080 -0.2891
 7299W        W11363   4.718   0.931   3.832 -0.1528  0.2739  0.0253
 7300W        W11364   1.071   1.787   2.049  0.1760  0.0910  0.1145
 7301W        W11365   8.432   4.124   1.040 -0.0209 -0.1454  0.3399
 7302W        W11366   0.822   7.501   0.793  0.0656  0.0165  0.0376
 7303W        W11367   4.337   4.191   0.545  0.1014 -0.1721 -0.0637
 7304W        W11368   4.067   5.578   2.872  0.0711  0.0062 -0.0798
 7305W        W11369   4.280   4.261  11.686 -0.0815 -0.0930  0.1039
 7306W        W11370   1.130   9.372  10.186  0.0709 -0.1466  0.2651
 7307W        W11371   1.365   8.131   2.249 -0.1029  0.0069  0.2778
 7308W        W11372   8.410   1.235   2.568  0.3500  0.1631 -0.0971
 7309W        W11373   8.018   2.342   3.289 -0.0060 -0.0264 -0.1106
 7310W        W11374   3.871   7.257   2.592  0.0975 -0.2314  0.3393
 7311W        W11375   6.126   0.264   7.860 -0.0263  0.0240 -0.0200
 7312W        W11376   3.461   1.997   2.276  0.0623 -0.0153 -0.2825
 7313ION    NA+11377   3.486   6.474   7.753  0.0624  0.0228  0.2467
 7314ION    NA+11378   2.418  10.258   8.102  0.2695  0.0940  0.2460
 7315ION    NA+11379  10.036   7.632   3.975 -0.3923  0.1062  0.0731
 7316ION    NA+11380   5.386   6.362   9.269  0.1250  0.1602 -0.1097
 7317ION    NA+11381   3.117   9.373   2.801  0.1079  0.3714 -0.1477
 7318ION    NA+11382   7.394   4.657   9.303  0.0211 -0.2250  0.1444
 7319ION    NA+11383   0.316   4.273  10.563  0.1655  0.1434  0.0227
 7320ION    NA+11384   7.862   3.783   4.256  0.1115 -0.2736  0.4077
 7321ION    NA+11385   8.886   1.182   3.886 -0.2077 -0.3366  0.1135
 7322ION    NA+11386   4.520   3.001   7.932 -0.1651  0.3225 -0.2744
 7323ION    NA+11387   2.779   5.639   0.837 -0.2144 -0.0194 -0.1497
 7324ION    NA+11388   5.255   5.693   2.495  0.2147  0.0178  0.0955
 7325ION    NA+11389  10.290   7.892  10.659  0.0392  0.1229 -0.0420
 7326ION    NA+11390   2.177   7.520   1.240 -0.3014 -0.4211  0.1642
 7327ION    NA+11391   2.092   1.395   2.755 -0.0802 -0.2339  0.0784
 7328ION    NA+11392   0.401   2.060  10.729 -0.0871  0.2749  0.2361
 7329ION    NA+11393   4.623   6.406   0.068 -0.0982  0.3980  0.0286
 7330ION    NA+11394   5.857   5.964   0.747 -0.3485  0.0628 -0.1519
 7331ION    NA+11395   3.312  10.085   4.020  0.2323 -0.1233 -0.0606
 7332ION    NA+11396   8.304   4.892  11.132  0.0170 -0.4389  0.0732
 7333ION    NA+11397   0.777   9.120   3.887 -0.1587  0.1599 -0.3913
 7334ION    NA+11398   9.906   7.286  10.069 -0.2608 -0.0130  0.1340
 7335ION    NA+11399   2.701   5.168   1.564  0.2602  0.2397  0.0263
 7336ION    NA+11400   2.774   7.990   8.663  0.1344 -0.0207 -0.3851
 7337ION    NA+11401   0.702   8.811   0.901 -0.0405 -0.2339 -0.0312
 7338ION    NA+11402   9.333   2.029  10.177 -0.0644  0.1136 -0.0755
 7339ION    NA+11403   3.477   5.681   1.399  0.4032 -0.0765 -0.1829
 7340ION    NA+11404   2.690   3.650   8.377  0.1869 -0.0159  0.0414
 7341ION    NA+11405   0.064   9.380   0.763  0.0519 -0.1237  0.2669
 7342ION    NA+11406   5.807   1.915   8.550  0.0515  0.1601 -0.1467
 7343ION    NA+11407   2.786   4.353   0.947 -0.1008 -0.0053  0.1738
 7344ION    NA+11408   6.661   8.995  11.451  0.2187  0.1027 -0.0333
 7345ION    NA+11409   1.263   6.491   2.385  0.2465 -0.3232 -0.1284
 7346ION    NA+11410   0.247   9.506   7.534 -0.0109  0.0964  0.1243
 7347ION    NA+11411   3.161   5.105   0.244 -0.0557 -0.3994  0.3168
 7348ION    NA+11412   2.843   6.362   9.559  0.0659 -0.4196  0.1304
 7349ION    NA+11413   1.385   6.815   1.074 -0.2078 -0.2594  0.1383
 7350ION    NA+11414   0.140   7.195  11.121 -0.0898 -0.1403  0.1410
 7351ION    NA+11415   2.560   1.423   8.744  0.0856  0.3226  0.1529
 7352ION    NA+11416   9.740   2.365   1.235  0.1259 -0.1979  0.1186
 7353ION    NA+11417   4.352   3.086   1.294  0.1481 -0.0404  0.0893
 7354ION    NA+11418   1.683   4.838   7.991  0.0846  0.1426 -0.0518
 7355ION    NA+11419   5.287   4.769   1.515  0.1094 -0.1676  0.3296
 7356ION    NA+11420   3.962   3.790   2.427  0.0597  0.0531 -0.1264
 7357ION    NA+11421   2.437   4.024  10.558  0.0926  0.1426  0.3365
 7358ION    NA+11422   4.952   5.269   0.795 -0.0431 -0.1757  0.0219
 7359ION    NA+11423   4.031   9.929   2.821  0.1089 -0.0314 -0.2381
 7360ION    NA+11424   2.135  10.126   2.340  0.2206  0.0559  0.1025
 7361ION    NA+11425   9.714   6.449   9.675  0.0742 -0.3122  0.1616
 7362ION    NA+11426   8.333   3.653   7.999 -0.2776 -0.4455  0.1290
 7363ION    NA+11427   2.897   4.531  11.017 -0.0450 -0.0461 -0.0625
 7364ION    NA+11428   1.939   4.513   0.787  0.2964  0.2744  0.0345
 7365ION    NA+11429   9.798   0.062   3.788  0.2502  0.2560 -0.1040
 7366ION    NA+11430   2.843   8.952   7.669 -0.2432  0.2707 -0.2658
 7367ION    NA+11431   2.350   7.884   3.149  0.1682 -0.2822 -0.1166
 7368ION    NA+11432   5.895   8.260   0.922  0.3867 -0.2848 -0.0781
 7369ION    NA+11433  10.275   8.589   9.849 -0.0234 -0.3859 -0.3503
 7370ION    NA+11434   7.562   8.761   3.894 -0.1115  0.1841  0.0051
 7371ION    NA+11435   6.055   9.245  10.104  0.0847  0.0687 -0.1839
 7372ION    NA+11436   4.216   1.717   0.895  0.5962  0.0886  0.0116
 7373ION    NA+11437  10.574   5.242   4.357 -0.2057  0.2773 -0.1337
 7374ION    NA+11438   4.161   6.739   2.647  0.2598  0.3647 -0.1933
 7375ION    NA+11439   4.238   8.067   4.380 -0.1146  0.0279 -0.0735
 7376ION    NA+11440   6.134   4.780   1.705  0.0361  0.0141  0.0931
 7377ION    NA+11441   5.987   0.318  10.601  0.2617  0.0637  0.0494
 7378ION    NA+11442   1.918   9.284   7.453 -0.1658  0.1185 -0.0786
 7379ION    NA+11443   3.790  10.514   7.773 -0.0041  0.0360 -0.0710
 7380ION    NA+11444   8.470   1.568  10.148 -0.0358 -0.1219  0.1129
 7381ION    NA+11445   0.114   9.636   9.214 -0.0889 -0.0614  0.1260
 7382ION    NA+11446   5.789   3.200   4.130  0.2256  0.0035 -0.4170
 7383ION    NA+11447   6.432   0.328   1.344 -0.0744  0.0605  0.1132
 7384ION    NA+11448   9.008   7.015  11.620  0.0578 -0.2083  0.2842
 7385ION    NA+11449   6.744   5.267   7.817 -0.0152 -0.0656 -0.0369
 7386ION    NA+11450   6.309  10.458   0.597 -0.4542 -0.2383  0.0808
 7387ION    NA+11451   9.577   3.212   2.056  0.0553 -0.1130 -0.2473
 7388ION    NA+11452   0.480   0.746   0.132  0.1184 -0.2619  0.2510
 7389ION    NA+11453   7.098   3.978   8.051 -0.0619  0.0576 -0.0267
 7390ION    CL-11454   7.884   0.580   9.820 -0.0396 -0.1344 -0.2780
 7391ION    CL-11455   4.221   6.905   0.139 -0.0014 -0.2972 -0.0930
 7392ION    CL-11456   4.084   6.529   3.095  0.1602  0.1561 -0.4265
 7393ION    CL-11457   6.285   2.152   2.797  0.3717 -0.0837 -0.1959
 7394ION    CL-11458   6.180   5.161   8.622 -0.5338  0.1766  0.1707
 7395ION    CL-11459   4.968   4.842   1.096 -0.0916 -0.0972  0.1098
 7396ION    CL-11460  10.557   9.960   8.828 -0.2196 -0.1058 -0.2181
 7397ION    CL-11461   9.935   7.734  10.268  0.2307 -0.1000 -0.0600
 7398ION    CL-11462   6.212  10.505  10.783 -0.0115  0.0397 -0.0468
 7399ION    CL-11463   5.429   4.194   3.459 -0.0181 -0.0539 -0.0215
 7400ION    CL-11464   9.721   8.385   8.522 -0.0312 -0.0192  0.2090
 7401ION    CL-11465   9.370   0.989   9.247  0.0380  0.2102 -0.2409
 7402ION    CL-11466  10.320   1.840   1.919  0.0915 -0.1889  0.1051
 7403ION    CL-11467   0.748  10.151   2.895 -0.1691  0.2156 -0.1267
 7404ION    CL-11468   3.696   0.993   3.430  0.0293  0.2248  0.3686
 7405ION    CL-11469   2.135   3.008   2.352  0.2933  0.0470  0.0329
 7406ION    CL-11470   1.774   7.949   3.218 -0.0887 -0.2177 -0.1466
 7407ION    CL-11471   0.071   5.974   2.213  0.2722 -0.0300  0.1015
 7408ION    CL-11472   9.647   8.438   3.288  0.1090 -0.1893  0.0179
 7409ION    CL-11473   9.395   0.243   8.730  0.0049  0.1673 -0.0688
 7410ION    CL-11474   6.412   9.054  11.015  0.0850 -0.0355  0.0537
 7411ION    CL-11475   2.306   5.141   2.031 -0.0179 -0.3295  0.0917
 7412ION    CL-11476   5.909   7.683  10.897 -0.1143  0.1188  0.1978
 7413ION    CL-11477   6.601   0.135   0.935  0.0642 -0.0134  0.1293
 7414ION    CL-11478   0.368   2.533   9.168 -0.1244  0.0013  0.0852
 7415ION    CL-11479   2.494   4.139  11.065 -0.1000  0.0078 -0.0343
 7416ION    CL-11480   2.669   9.440   8.530 -0.0374 -0.2810  0.0203
 7417ION    CL-11481   9.667   2.748   1.972  0.0505 -0.1115 -0.0257
 7418ION    CL-11482   6.635   4.719   1.999 -0.0132  0.0878  0.2449
 7419ION    CL-11483   8.146   5.122  11.580  0.1946  0.0705  0.2587
 7420ION    CL-11484   9.627   6.791  10.068  0.1516  0.5841  0.0231
 7421ION    CL-11485   5.711   0.755  10.580 -0.0994  0.1190  0.0934
 7422ION    CL-11486   4.676   5.306   8.896  0.0051  0.2759 -0.0435
 7423ION    CL-11487   1.905   4.539   1.369  0.1426 -0.1324 -0.3597
 7424ION    CL-11488   9.638   3.192   9.707  0.1299  0.3052 -0.0354
 7425ION    CL-11489   1.029   0.752   2.849  0.3022  0.0190  0.0751
 7426ION    CL-11490   4.366   7.186   8.313 -0.1776  0.0384  0.3084
 7427ION    CL-11491   7.703   4.382   8.965  0.0431 -0.3298  0.3476
 7428ION    CL-11492   5.913   5.491   1.125 -0.2689  0.2015 -0.1123
 7429ION    CL-11493   4.536   9.903   9.534 -0.0804 -0.1077  0.1236
 7430ION    CL-11494   4.593   1.936   0.659 -0.0406  0.1440 -0.3413
 7431ION    CL-11495   2.955   5.622   0.337 -0.0421  0.0290 -0.0101
 7432ION    CL-11496   4.929   8.078   8.369 -0.0000  0.1039 -0.0965
 7433ION    CL-11497   0.067   9.326   0.259  0.0906  0.2203 -0.0891
 7434ION    CL-11498   9.350   2.151   9.669  0.0182 -0.1555  0.0889
 7435ION    CL-11499   0.933   0.942   0.326  0.0149 -0.0154 -0.0380
 7436ION    CL-11500   6.019   9.619   3.705 -0.0203  0.0427  0.1907
 7437ION    CL-11501   0.456   9.663   0.786 -0.0891  0.0165  0.0878
 7438ION    CL-11502   0.120   7.697  10.955  0.1298  0.0952 -0.0746
 7439ION    CL-11503   5.611   6.619   8.892  0.0948 -0.1099  0.1999
 7440ION    CL-11504   4.414   6.420   9.024  0.2295 -0.5307  0.1298
 7441ION    CL-11505   5.782   8.733   0.961  0.1031 -0.1798  0.2309
 7442ION    CL-11506   3.844   6.739   9.952 -0.4396 -0.1017 -0.3469
 7443ION    CL-11507   4.196   6.962   2.202  0.1319  0.1863  0.1201
 7444ION    CL-11508   1.739   7.123   1.259 -0.0436 -0.3731 -0.2726
 7445ION    CL-11509   0.102   8.998  10.212 -0.0732 -0.2864  0.2458
 7446ION    CL-11510   6.606   6.179   1.197  0.0105 -0.0600  0.1811
 7447ION    CL-11511   5.085   8.997   3.343  0.1231 -0.3174 -0.1897
 7448ION    CL-11512   5.704   5.948   2.424 -0.3704  0.2386 -0.2375
 7449ION    CL-11513   4.181   9.312   0.001 -0.2444 -0.3901 -0.0125
 7450ION    CL-11514   2.822   8.938   2.944  0.4489 -0.0715 -0.0566
 7451ION    CL-11515   5.129   2.786   2.155 -0.0961  0.0407 -0.0274
 7452ION    CL-11516   3.169   4.573   0.261  0.2110  0.0819 -0.0633
 7453ION    CL-11517   9.388   7.064  11.244 -0.0666  0.3473 -0.1289
 7454ION    CL-11518   4.138   1.229   8.277  0.5286 -0.0868 -0.0439
 7455ION    CL-11519   6.258   2.005   3.641  0.3151  0.1451  0.1709
 7456ION    CL-11520   3.258   4.505   1.224  0.1306 -0.0263  0.0728
 7457ION    CL-11521   2.970   5.411   1.228 -0.1456 -0.0908 -0.1386
 7458ION    CL-11522   5.657   4.940   1.927 -0.1250 -0.3536 -0.0403
 7459ION    CL-11523   6.984   7.383   3.246 -0.5606  0.0300 -0.0222
 7460ION    CL-11524   7.045   5.236   8.724  0.1110 -0.1599 -0.1197
 7461ION    CL-11525   9.546   0.707   2.288  0.2060 -0.1226  0.1703
 7462ION    CL-11526   4.422   9.004   8.543 -0.4478  0.0272 -0.0681
 7463ION    CL-11527   3.591   5.279  11.321 -0.0141 -0.2695 -0.2505
 7464ION    CL-11528   4.242   3.289   2.300 -0.0513 -0.0451  0.0104
 7465ION    CL-11529   1.655   1.229   2.949  0.1487 -0.0736  0.5915
 7466ION    CL-11530   3.702   5.676   8.803 -0.0471  0.1215 -0.2203
  10.59828  10.59828  11.68569
