Protein in INSANE! Membrane UpperLeaflet>POPC=1.0 LowerLeaflet>POPC=1.0
12914
    1AU     AUC    1   5.746   5.815   6.011
    1AU     AUC    2   6.024   5.811   5.842
    1AU     AUC    3   6.007   5.805   6.177
    1AU     AUC    4   5.468   5.811   5.850
    1AU     AUC    5   5.495   5.856   6.205
    1AU     AUC    6   5.581   6.088   6.015
    1AU     AUC    7   5.930   6.083   5.992
    1AU     AUC    8   5.553   5.558   6.021
    1AU     AUC    9   5.903   5.527   6.015
    1AU     AUC   10   5.747   5.646   6.290
    1AU     AUC   11   5.749   6.003   6.272
    1AU     AUC   12   5.731   5.648   5.744
    1AU     AUC   13   5.765   5.966   5.724
    1AU     AUC   14   6.347   5.799   5.684
    1AU     AUC   15   6.356   5.781   6.024
    1AU     AUC   16   6.303   5.783   6.370
    1AU     AUC   17   5.150   5.822   5.685
    1AU     AUC   18   5.141   5.865   6.048
    1AU     AUC   19   5.199   5.892   6.405
    1AU     AUC   20   5.427   6.405   5.996
    1AU     AUC   21   5.782   6.427   5.939
    1AU     AUC   22   6.110   6.369   5.969
    1AU     AUC   23   5.331   5.280   6.029
    1AU     AUC   24   5.690   5.218   6.001
    1AU     AUC   25   6.063   5.215   6.003
    1AU     AUC   26   5.730   5.464   6.587
    1AU     AUC   27   5.766   5.823   6.614
    1AU     AUC   28   5.789   6.178   6.559
    1AU     AUC   29   5.751   5.467   5.468
    1AU     AUC   30   5.742   5.801   5.396
    1AU     AUC   31   5.752   6.119   5.410
    1AU     AUC   32   6.026   5.591   6.504
    1AU     AUC   33   6.064   5.984   6.489
    1AU     AUC   34   6.063   5.635   5.524
    1AU     AUC   35   6.067   5.988   5.535
    1AU     AUC   36   5.446   5.689   6.534
    1AU     AUC   37   5.486   6.050   6.519
    1AU     AUC   38   5.430   5.630   5.560
    1AU     AUC   39   5.413   5.955   5.509
    1AU     AUC   40   6.284   6.084   5.834
    1AU     AUC   41   6.227   6.078   6.190
    1AU     AUC   42   5.268   6.123   5.849
    1AU     AUC   43   5.288   6.180   6.216
    1AU     AUC   44   6.230   5.495   5.850
    1AU     AUC   45   6.189   5.462   6.188
    1AU     AUC   46   5.214   5.520   5.870
    1AU     AUC   47   5.277   5.576   6.224
    1AU     AUC   48   5.599   6.342   6.274
    1AU     AUC   49   5.947   6.299   6.264
    1AU     AUC   50   5.524   5.358   6.310
    1AU     AUC   51   5.861   5.291   6.288
    1AU     AUC   52   5.580   6.235   5.687
    1AU     AUC   53   5.971   6.259   5.660
    1AU     AUC   54   5.531   5.345   5.726
    1AU     AUC   55   5.930   5.353   5.728
    1AU    AUSL   56   6.331   5.734   6.722
    1AU    AUSL   57   6.025   5.272   6.693
    1AU     AUL   58   6.332   5.342   6.847
    1AU       S   59   6.321   4.897   6.690
    1AU     LIG   60   6.268   4.469   6.820
    1AU     LIG   61   6.436   4.177   7.149
    1AU     LIG   62   6.689   4.158   7.537
    1AU     LIG   63   6.856   3.951   7.917
    1AU     LIG   64   6.890   3.630   8.259
    1AU       S   65   6.594   5.738   6.852
    1AU     LIG   66   6.762   5.889   7.261
    1AU     LIG   67   6.864   5.732   7.693
    1AU     LIG   68   7.054   5.541   8.087
    1AU     LIG   69   7.287   5.525   8.502
    1AU     LIG   70   7.556   5.671   8.856
    1AU    AUSL   71   5.939   5.637   6.907
    1AU    AUSL   72   5.658   5.994   6.953
    1AU     AUL   73   5.895   5.897   7.211
    1AU       S   74   6.288   5.638   7.198
    1AU     LIG   75   5.982   5.313   7.454
    1AU     LIG   76   5.966   5.104   7.877
    1AU     LIG   77   6.255   4.974   8.238
    1AU     LIG   78   6.438   4.823   8.651
    1AU     LIG   79   6.471   4.880   9.117
    1AU       S   80   5.468   5.739   7.197
    1AU     LIG   81   5.518   5.602   7.657
    1AU     LIG   82   5.248   5.612   8.046
    1AU     LIG   83   5.123   5.767   8.471
    1AU     LIG   84   5.168   6.057   8.856
    1AU     LIG   85   5.049   6.096   9.306
    1AU    AUSL   86   5.972   6.014   6.666
    1AU    AUSL   87   6.411   6.143   6.598
    1AU     AUL   88   6.238   6.038   6.925
    1AU       S   89   5.887   6.367   7.093
    1AU     LIG   90   6.162   6.549   7.391
    1AU     LIG   91   6.409   6.563   7.798
    1AU     LIG   92   6.364   6.551   8.289
    1AU     LIG   93   6.387   6.701   8.740
    1AU     LIG   94   6.645   6.779   9.116
    1AU       S   95   6.581   6.314   6.765
    1AU     LIG   96   6.975   6.214   6.907
    1AU     LIG   97   7.245   6.432   7.211
    1AU     LIG   98   7.448   6.665   7.568
    1AU     LIG   99   7.785   6.728   7.904
    1AU     LIG  100   8.224   6.852   8.054
    1AU    AUSL  101   6.213   5.846   5.396
    1AU    AUSL  102   6.148   6.281   5.356
    1AU     AUL  103   6.322   6.165   5.118
    1AU       S  104   6.174   5.896   4.791
    1AU     LIG  105   6.501   5.873   4.452
    1AU     LIG  106   6.753   5.636   4.124
    1AU     LIG  107   6.907   5.420   3.724
    1AU     LIG  108   7.265   5.335   3.396
    1AU     LIG  109   7.679   5.377   3.139
    1AU       S  110   6.548   6.501   5.367
    1AU     LIG  111   6.751   6.680   4.978
    1AU     LIG  112   7.023   6.875   4.609
    1AU     LIG  113   7.205   6.922   4.155
    1AU     LIG  114   7.476   7.071   3.775
    1AU     LIG  115   7.763   7.361   3.517
    1AU    AUSL  116   6.030   5.578   5.097
    1AU    AUSL  117   6.460   5.501   5.417
    1AU     AUL  118   6.418   5.699   5.161
    1AU       S  119   6.543   5.236   5.185
    1AU     LIG  120   6.711   4.898   4.881
    1AU     LIG  121   6.912   4.479   4.804
    1AU     LIG  122   7.229   4.228   4.560
    1AU     LIG  123   7.573   4.277   4.224
    1AU     LIG  124   8.021   4.408   4.085
    1AU       S  125   6.168   5.669   4.766
    1AU     LIG  126   6.404   5.363   4.538
    1AU     LIG  127   6.459   5.218   4.089
    1AU     LIG  128   6.434   5.214   3.617
    1AU     LIG  129   6.567   5.070   3.182
    1AU     LIG  130   6.751   4.881   2.772
    1AU    AUSL  131   5.868   5.995   5.182
    1AU    AUSL  132   5.628   5.613   5.259
    1AU     AUL  133   5.750   5.632   4.947
    1AU       S  134   5.298   5.631   4.813
    1AU     LIG  135   5.231   5.329   4.485
    1AU     LIG  136   5.109   5.111   4.097
    1AU     LIG  137   4.974   5.146   3.664
    1AU     LIG  138   4.941   4.980   3.221
    1AU     LIG  139   4.838   5.024   2.759
    1AU       S  140   5.944   6.043   4.852
    1AU     LIG  141   5.961   5.895   4.355
    1AU     LIG  142   6.250   5.698   4.019
    1AU     LIG  143   6.478   5.727   3.595
    1AU     LIG  144   6.490   5.838   3.124
    1AU     LIG  145   6.457   6.120   2.746
    1AU    AUSL  146   5.249   5.945   6.800
    1AU    AUSL  147   5.537   6.297   6.670
    1AU     AUL  148   5.415   6.226   7.003
    1AU       S  149   5.294   5.848   7.263
    1AU     LIG  150   5.012   5.630   7.559
    1AU     LIG  151   4.747   5.488   7.932
    1AU     LIG  152   4.462   5.319   8.285
    1AU     LIG  153   4.037   5.342   8.532
    1AU     LIG  154   3.837   5.576   8.896
    1AU       S  155   5.149   6.550   6.792
    1AU     LIG  156   5.003   6.741   7.186
    1AU     LIG  157   4.839   6.967   7.577
    1AU     LIG  158   4.754   7.209   7.987
    1AU     LIG  159   4.611   7.364   8.426
    1AU     LIG  160   4.533   7.681   8.789
    1AU    AUSL  161   5.553   5.640   6.707
    1AU    AUSL  162   5.084   5.579   6.628
    1AU     AUL  163   5.116   5.657   6.885
    1AU       S  164   4.900   5.236   6.765
    1AU     LIG  165   4.481   5.044   6.704
    1AU     LIG  166   4.164   4.753   6.883
    1AU     LIG  167   3.938   4.542   7.237
    1AU     LIG  168   3.755   4.325   7.612
    1AU     LIG  169   3.406   4.303   7.944
    1AU       S  170   5.518   5.548   7.101
    1AU     LIG  171   5.309   5.244   7.376
    1AU     LIG  172   5.151   5.171   7.804
    1AU     LIG  173   4.985   5.156   8.248
    1AU     LIG  174   4.883   4.937   8.655
    1AU     LIG  175   4.901   4.927   9.125
    1AU    AUSL  176   5.206   5.719   5.301
    1AU    AUSL  177   5.385   5.320   5.457
    1AU     AUL  178   5.424   5.340   5.145
    1AU       S  179   5.089   5.582   4.931
    1AU     LIG  180   4.779   5.540   4.628
    1AU     LIG  181   4.707   5.436   4.179
    1AU     LIG  182   4.612   5.531   3.719
    1AU     LIG  183   4.329   5.573   3.317
    1AU     LIG  184   3.944   5.617   3.006
    1AU       S  185   5.011   5.208   5.299
    1AU     LIG  186   4.794   4.861   5.084
    1AU     LIG  187   4.525   4.512   4.892
    1AU     LIG  188   4.330   4.255   4.547
    1AU     LIG  189   4.195   4.074   4.133
    1AU     LIG  190   4.280   3.872   3.711
    1AU    AUSL  191   5.458   6.001   5.067
    1AU    AUSL  192   5.024   6.103   5.441
    1AU     AUL  193   5.088   5.995   5.124
    1AU       S  194   4.783   6.301   5.285
    1AU     LIG  195   4.701   6.588   4.962
    1AU     LIG  196   4.599   6.795   4.561
    1AU     LIG  197   4.285   6.801   4.196
    1AU     LIG  198   3.900   6.868   3.913
    1AU     LIG  199   3.620   7.188   3.715
    1AU       S  200   5.374   5.873   4.772
    1AU     LIG  201   5.137   5.819   4.368
    1AU     LIG  202   5.124   5.609   3.944
    1AU     LIG  203   5.067   5.626   3.487
    1AU     LIG  204   5.110   5.815   3.070
    1AU     LIG  205   4.881   6.018   2.726
    1AU    AUSL  206   6.560   6.300   6.008
    1AU    AUSL  207   6.497   6.096   5.599
    1AU     AUL  208   6.814   6.415   5.783
    1AU       S  209   6.616   6.175   5.464
    1AU     LIG  210   6.964   6.229   5.151
    1AU     LIG  211   7.123   6.379   4.734
    1AU     LIG  212   7.456   6.592   4.472
    1AU     LIG  213   7.724   6.827   4.165
    1AU     LIG  214   7.989   7.132   3.924
    1AU       S  215   6.948   6.213   6.196
    1AU     LIG  216   7.384   6.438   6.125
    1AU     LIG  217   7.862   6.493   6.001
    1AU     LIG  218   8.318   6.658   5.999
    1AU     LIG  219   8.597   6.967   6.180
    1AU     LIG  220   8.821   7.295   6.443
    1AU    AUSL  221   6.736   5.889   5.896
    1AU    AUSL  222   6.653   5.564   6.223
    1AU     AUL  223   6.980   5.649   6.204
    1AU       S  224   6.983   6.039   5.983
    1AU     LIG  225   7.479   5.978   5.946
    1AU     LIG  226   7.983   6.004   5.895
    1AU     LIG  227   8.414   6.205   5.765
    1AU     LIG  228   8.851   6.303   5.553
    1AU     LIG  229   9.134   6.408   5.198
    1AU       S  230   6.894   5.191   6.136
    1AU     LIG  231   7.266   5.006   6.299
    1AU     LIG  232   7.720   4.836   6.291
    1AU     LIG  233   8.193   4.692   6.292
    1AU     LIG  234   8.683   4.810   6.319
    1AU     LIG  235   9.177   4.781   6.426
    1AU    AUSL  236   6.449   5.940   6.230
    1AU    AUSL  237   6.209   6.347   6.264
    1AU     AUL  238   6.532   6.394   6.304
    1AU       S  239   6.532   6.603   6.714
    1AU     LIG  240   6.912   6.733   6.942
    1AU     LIG  241   7.228   6.985   7.204
    1AU     LIG  242   7.397   7.408   7.404
    1AU     LIG  243   7.587   7.873   7.426
    1AU     LIG  244   7.921   8.186   7.589
    1AU       S  245   6.817   6.038   6.373
    1AU     LIG  246   7.307   6.117   6.516
    1AU     LIG  247   7.770   6.133   6.359
    1AU     LIG  248   8.249   6.248   6.293
    1AU     LIG  249   8.601   6.546   6.494
    1AU     LIG  250   9.057   6.595   6.666
    1AU    AUSL  251   5.114   6.404   6.054
    1AU    AUSL  252   5.171   6.176   6.445
    1AU     AUL  253   4.872   6.518   6.303
    1AU       S  254   5.031   6.334   6.693
    1AU     LIG  255   4.728   6.323   7.010
    1AU     LIG  256   4.583   6.531   7.419
    1AU     LIG  257   4.420   6.754   7.815
    1AU     LIG  258   4.096   6.824   8.157
    1AU     LIG  259   3.730   6.977   8.413
    1AU       S  260   5.106   6.785   5.982
    1AU     LIG  261   4.728   7.004   5.827
    1AU     LIG  262   4.281   7.189   5.903
    1AU     LIG  263   3.824   7.371   5.943
    1AU     LIG  264   3.362   7.543   5.926
    1AU     LIG  265   2.947   7.794   5.965
    1AU    AUSL  266   5.059   6.017   5.851
    1AU    AUSL  267   5.191   6.472   5.637
    1AU     AUL  268   4.892   6.369   5.741
    1AU       S  269   4.685   5.805   5.464
    1AU     LIG  270   4.305   6.058   5.362
    1AU     LIG  271   3.827   6.166   5.334
    1AU     LIG  272   3.344   6.193   5.452
    1AU     LIG  273   2.963   6.501   5.380
    1AU     LIG  274   2.595   6.691   5.133
    1AU       S  275   5.003   6.715   5.411
    1AU     LIG  276   4.971   7.017   5.044
    1AU     LIG  277   4.935   7.421   4.778
    1AU     LIG  278   4.821   7.891   4.678
    1AU     LIG  279   4.506   8.240   4.552
    1AU     LIG  280   4.158   8.579   4.526
    1AU    AUSL  281   4.817   6.074   6.227
    1AU    AUSL  282   4.765   5.712   5.909
    1AU     AUL  283   4.654   6.020   5.924
    1AU       S  284   4.470   5.618   6.114
    1AU     LIG  285   4.102   5.445   5.852
    1AU     LIG  286   3.722   5.205   5.756
    1AU     LIG  287   3.299   5.117   5.636
    1AU     LIG  288   2.855   5.113   5.711
    1AU     LIG  289   2.431   5.018   5.560
    1AU       S  290   4.704   6.039   6.450
    1AU     LIG  291   4.229   6.080   6.548
    1AU     LIG  292   3.760   6.160   6.716
    1AU     LIG  293   3.367   6.433   6.805
    1AU     LIG  294   2.900   6.411   6.655
    1AU     LIG  295   2.416   6.501   6.621
    1AU    AUSL  296   6.427   5.223   6.051
    1AU    AUSL  297   6.259   5.487   6.385
    1AU     AUL  298   6.592   5.382   6.442
    1AU       S  299   6.624   5.072   6.063
    1AU     LIG  300   6.897   4.704   6.067
    1AU     LIG  301   7.348   4.552   6.044
    1AU     LIG  302   7.798   4.380   6.059
    1AU     LIG  303   8.188   4.151   6.206
    1AU     LIG  304   8.454   3.794   6.398
    1AU       S  305   6.470   4.962   6.547
    1AU     LIG  306   6.774   4.687   6.755
    1AU     LIG  307   6.897   4.410   7.111
    1AU     LIG  308   7.181   4.157   7.394
    1AU     LIG  309   7.485   4.154   7.756
    1AU     LIG  310   7.873   4.137   8.032
    1AU    AUSL  311   6.429   5.600   5.832
    1AU    AUSL  312   6.338   5.139   5.636
    1AU     AUL  313   6.613   5.334   5.660
    1AU       S  314   6.936   5.267   5.951
    1AU     LIG  315   7.263   4.997   5.784
    1AU     LIG  316   7.718   4.812   5.773
    1AU     LIG  317   8.179   4.618   5.786
    1AU     LIG  318   8.667   4.646   5.733
    1AU     LIG  319   9.027   4.667   5.406
    1AU       S  320   6.521   4.987   5.334
    1AU     LIG  321   6.470   4.509   5.267
    1AU     LIG  322   6.709   4.114   5.108
    1AU     LIG  323   6.961   3.821   4.846
    1AU     LIG  324   7.284   3.468   4.784
    1AU     LIG  325   7.665   3.169   4.680
    1AU    AUSL  326   4.932   5.336   6.080
    1AU    AUSL  327   5.092   5.558   5.680
    1AU     AUL  328   4.741   5.424   5.784
    1AU       S  329   4.913   5.361   5.365
    1AU     LIG  330   4.519   5.290   5.184
    1AU     LIG  331   4.255   4.929   5.050
    1AU     LIG  332   4.022   4.619   4.772
    1AU     LIG  333   3.818   4.314   4.460
    1AU     LIG  334   3.458   4.121   4.200
    1AU       S  335   4.499   5.343   6.184
    1AU     LIG  336   4.296   4.974   6.017
    1AU     LIG  337   3.867   4.768   5.981
    1AU     LIG  338   3.382   4.784   6.044
    1AU     LIG  339   3.026   4.558   6.282
    1AU     LIG  340   2.613   4.323   6.374
    1AU    AUSL  341   5.068   5.735   6.232
    1AU    AUSL  342   5.276   5.334   6.329
    1AU     AUL  343   4.868   5.522   6.399
    1AU       S  344   4.958   5.094   6.532
    1AU     LIG  345   4.745   4.749   6.380
    1AU     LIG  346   4.503   4.443   6.628
    1AU     LIG  347   4.172   4.222   6.903
    1AU     LIG  348   3.852   4.008   7.194
    1AU     LIG  349   3.538   3.636   7.261
    1AU       S  350   4.459   5.668   6.265
    1AU     LIG  351   3.995   5.779   6.212
    1AU     LIG  352   3.606   5.612   6.036
    1AU     LIG  353   3.311   5.299   6.112
    1AU     LIG  354   2.935   5.060   6.225
    1AU     LIG  355   2.607   4.843   6.457
    1AU    AUSL  356   5.789   6.504   6.387
    1AU    AUSL  357   5.349   6.570   6.377
    1AU     AUL  358   5.620   6.621   6.701
    1AU       S  359   5.231   6.767   6.486
    1AU     LIG  360   5.007   7.045   6.769
    1AU     LIG  361   4.879   7.288   7.160
    1AU     LIG  362   4.757   7.716   7.347
    1AU     LIG  363   4.462   8.106   7.401
    1AU     LIG  364   4.063   8.366   7.515
    1AU       S  365   5.796   6.968   6.441
    1AU     LIG  366   5.907   7.206   6.816
    1AU     LIG  367   5.942   7.647   6.983
    1AU     LIG  368   5.911   7.915   7.392
    1AU     LIG  369   5.970   8.139   7.829
    1AU     LIG  370   5.926   8.499   8.155
    1AU    AUSL  371   5.587   6.750   6.071
    1AU    AUSL  372   5.937   6.703   5.664
    1AU     AUL  373   5.638   6.945   5.793
    1AU       S  374   5.644   6.970   6.268
    1AU     LIG  375   5.588   7.424   6.468
    1AU     LIG  376   5.518   7.852   6.719
    1AU     LIG  377   5.419   8.326   6.837
    1AU     LIG  378   5.360   8.816   6.865
    1AU     LIG  379   5.403   9.268   6.718
    1AU       S  380   5.938   7.010   5.430
    1AU     LIG  381   6.215   7.382   5.328
    1AU     LIG  382   6.402   7.831   5.205
    1AU     LIG  383   6.699   8.257   5.204
    1AU     LIG  384   6.762   8.757   5.193
    1AU     LIG  385   6.622   9.205   5.016
    1AU    AUSL  386   6.042   6.696   6.084
    1AU    AUSL  387   6.079   6.427   6.687
    1AU     AUL  388   6.153   6.675   6.441
    1AU       S  389   6.314   6.524   6.885
    1AU     LIG  390   6.636   6.436   7.248
    1AU     LIG  391   6.912   6.692   7.513
    1AU     LIG  392   7.137   7.060   7.710
    1AU     LIG  393   7.224   7.417   8.005
    1AU     LIG  394   7.172   7.606   8.444
    1AU       S  395   5.986   7.006   6.142
    1AU     LIG  396   6.117   7.390   6.390
    1AU     LIG  397   6.376   7.757   6.605
    1AU     LIG  398   6.728   8.121   6.652
    1AU     LIG  399   6.885   8.577   6.744
    1AU     LIG  400   6.848   8.981   6.949
    1AU    AUSL  401   5.682   5.170   6.447
    1AU    AUSL  402   6.102   5.088   6.298
    1AU     AUL  403   5.872   4.988   6.667
    1AU       S  404   5.667   4.605   6.512
    1AU     LIG  405   5.629   4.222   6.711
    1AU     LIG  406   5.501   3.787   6.722
    1AU     LIG  407   5.505   3.403   6.978
    1AU     LIG  408   5.545   3.245   7.427
    1AU     LIG  409   5.567   3.229   7.908
    1AU       S  410   6.246   4.898   6.368
    1AU     LIG  411   6.497   4.501   6.356
    1AU     LIG  412   6.672   4.178   6.686
    1AU     LIG  413   6.888   3.899   7.027
    1AU     LIG  414   6.994   3.450   7.188
    1AU     LIG  415   7.313   3.090   7.342
    1AU    AUSL  416   5.346   4.943   6.193
    1AU    AUSL  417   5.391   5.253   6.751
    1AU     AUL  418   5.397   4.982   6.536
    1AU       S  419   5.459   4.553   6.349
    1AU     LIG  420   5.110   4.386   6.572
    1AU     LIG  421   4.989   3.944   6.644
    1AU     LIG  422   5.071   3.472   6.641
    1AU     LIG  423   4.918   3.013   6.655
    1AU     LIG  424   4.890   2.665   6.962
    1AU       S  425   5.120   5.151   6.879
    1AU     LIG  426   4.865   4.740   6.897
    1AU     LIG  427   4.533   4.502   7.147
    1AU     LIG  428   4.277   4.212   7.430
    1AU     LIG  429   4.126   4.037   7.845
    1AU     LIG  430   4.194   3.862   8.287
    1AU    AUSL  431   5.776   4.867   6.137
    1AU    AUSL  432   5.541   5.116   5.841
    1AU     AUL  433   5.431   4.774   5.939
    1AU       S  434   5.804   4.666   5.701
    1AU     LIG  435   5.556   4.270   5.524
    1AU     LIG  436   5.368   3.843   5.410
    1AU     LIG  437   5.159   3.399   5.354
    1AU     LIG  438   4.905   2.963   5.356
    1AU     LIG  439   4.762   2.577   5.094
    1AU       S  440   5.790   4.677   6.267
    1AU     LIG  441   6.033   4.284   6.383
    1AU     LIG  442   6.080   3.874   6.638
    1AU     LIG  443   6.084   3.399   6.773
    1AU     LIG  444   6.191   2.926   6.783
    1AU     LIG  445   6.124   2.431   6.730
    1AU    AUSL  446   5.751   6.454   5.338
    1AU    AUSL  447   6.220   6.399   5.765
    1AU     AUL  448   6.084   6.581   5.352
    1AU       S  449   5.727   6.772   5.120
    1AU     LIG  450   5.994   7.115   4.937
    1AU     LIG  451   6.055   7.570   4.868
    1AU     LIG  452   6.172   7.822   4.492
    1AU     LIG  453   6.148   8.075   4.111
    1AU     LIG  454   6.012   8.511   4.077
    1AU       S  455   6.424   6.598   5.649
    1AU     LIG  456   6.577   6.995   5.386
    1AU     LIG  457   6.835   7.191   5.015
    1AU     LIG  458   7.184   7.386   4.738
    1AU     LIG  459   7.522   7.726   4.654
    1AU     LIG  460   7.689   8.178   4.673
    1AU    AUSL  461   5.596   6.459   5.767
    1AU    AUSL  462   5.457   6.171   5.454
    1AU     AUL  463   5.452   6.604   5.473
    1AU       S  464   5.702   6.954   5.328
    1AU     LIG  465   5.689   7.435   5.240
    1AU     LIG  466   5.665   7.932   5.224
    1AU     LIG  467   5.391   8.348   5.240
    1AU     LIG  468   5.287   8.837   5.342
    1AU     LIG  469   5.266   9.339   5.262
    1AU       S  470   5.151   6.458   5.157
    1AU     LIG  471   5.278   6.681   4.811
    1AU     LIG  472   5.089   6.983   4.491
    1AU     LIG  473   5.070   7.133   4.022
    1AU     LIG  474   4.955   7.371   3.611
    1AU     LIG  475   4.614   7.676   3.457
    1AU    AUSL  476   5.739   5.072   5.445
    1AU    AUSL  477   5.126   5.117   5.758
    1AU     AUL  478   5.386   4.958   5.500
    1AU       S  479   4.929   5.077   5.534
    1AU     LIG  480   4.511   4.869   5.518
    1AU     LIG  481   4.265   4.501   5.340
    1AU     LIG  482   4.108   4.179   5.020
    1AU     LIG  483   3.777   3.913   4.793
    1AU     LIG  484   3.417   3.587   4.744
    1AU       S  485   5.787   4.704   5.535
    1AU     LIG  486   5.951   4.405   5.214
    1AU     LIG  487   5.789   3.983   5.078
    1AU     LIG  488   5.550   3.579   5.007
    1AU     LIG  489   5.499   3.215   4.717
    1AU     LIG  490   5.629   2.973   4.330
    1AU    AUSL  491   5.972   5.093   5.834
    1AU    AUSL  492   6.014   5.400   5.480
    1AU     AUL  493   6.071   5.045   5.427
    1AU       S  494   6.061   4.742   5.786
    1AU     LIG  495   6.099   4.268   5.685
    1AU     LIG  496   5.868   3.872   5.566
    1AU     LIG  497   5.989   3.510   5.277
    1AU     LIG  498   6.254   3.147   5.116
    1AU     LIG  499   6.571   2.781   5.175
    1AU       S  500   6.311   5.199   5.073
    1AU     LIG  501   6.221   4.770   4.883
    1AU     LIG  502   6.403   4.354   4.768
    1AU     LIG  503   6.714   4.114   4.490
    1AU     LIG  504   7.012   4.122   4.107
    1AU     LIG  505   7.156   3.922   3.704
    2POPC   NC3  506   1.979   8.015   8.265
    2POPC   PO4  507   2.456   8.398   8.274
    2POPC   GL1  508   2.333   8.297   7.814
    2POPC   GL2  509   2.201   7.932   7.775
    2POPC   C1A  510   2.268   8.231   7.340
    2POPC   D2A  511   2.185   8.405   6.904
    2POPC   C3A  512   2.222   8.301   6.446
    2POPC   C4A  513   2.376   8.466   6.023
    2POPC   C1B  514   1.856   7.894   7.430
    2POPC   C2B  515   1.689   7.797   7.014
    2POPC   C3B  516   1.723   7.834   6.568
    2POPC   C4B  517   1.705   8.168   6.264
    3POPC   NC3  518   1.918   2.638   8.320
    3POPC   PO4  519   1.640   3.195   7.973
    3POPC   GL1  520   1.831   3.024   7.616
    3POPC   GL2  521   2.086   2.951   7.846
    3POPC   C1A  522   1.759   2.744   7.226
    3POPC   D2A  523   1.783   2.545   6.796
    3POPC   C3A  524   1.644   2.860   6.483
    3POPC   C4A  525   1.747   3.013   6.084
    3POPC   C1B  526   2.250   2.792   7.427
    3POPC   C2B  527   2.382   2.801   7.023
    3POPC   C3B  528   2.272   2.612   6.668
    3POPC   C4B  529   2.145   2.825   6.346
    4POPC   NC3  530   8.142   9.764   8.015
    4POPC   PO4  531   8.093   9.162   8.190
    4POPC   GL1  532   8.386   9.334   7.831
    4POPC   GL2  533   8.125   9.519   7.588
    4POPC   C1A  534   8.515   9.294   7.387
    4POPC   D2A  535   8.268   9.542   7.065
    4POPC   C3A  536   8.367   9.620   6.636
    4POPC   C4A  537   8.403   9.416   6.192
    4POPC   C1B  538   7.858   9.774   7.333
    4POPC   C2B  539   7.731   9.899   6.922
    4POPC   C3B  540   7.651   9.743   6.540
    4POPC   C4B  541   7.987   9.690   6.301
    5POPC   NC3  542   1.932   0.532   7.959
    5POPC   PO4  543   1.519   0.020   8.076
    5POPC   GL1  544   1.636   0.127   7.642
    5POPC   GL2  545   1.965   0.299   7.527
    5POPC   C1A  546   1.706   0.061   7.193
    5POPC   D2A  547   1.841   0.336   6.883
    5POPC   C3A  548   1.876   0.171   6.501
    5POPC   C4A  549   1.706   0.194   6.115
    5POPC   C1B  550   1.913   0.687   7.259
    5POPC   C2B  551   1.815   0.841   6.808
    5POPC   C3B  552   1.999   0.697   6.373
    5POPC   C4B  553   1.918   0.582   5.904
    6POPC   NC3  554   7.329   9.320   8.130
    6POPC   PO4  555   7.562   9.947   8.056
    6POPC   GL1  556   7.535   9.626   7.744
    6POPC   GL2  557   7.198   9.738   7.675
    6POPC   C1A  558   7.630   9.319   7.414
    6POPC   D2A  559   7.774   9.378   6.937
    6POPC   C3A  560   7.609   9.256   6.488
    6POPC   C4A  561   7.717   9.371   6.012
    6POPC   C1B  562   7.354   9.699   7.254
    6POPC   C2B  563   7.248   9.690   6.871
    6POPC   C3B  564   7.175   9.512   6.488
    6POPC   C4B  565   7.226   9.686   6.098
    7POPC   NC3  566  10.882   0.423   7.997
    7POPC   PO4  567   0.068   0.726   8.080
    7POPC   GL1  568   0.121   0.540   7.705
    7POPC   GL2  569  11.284   0.461   7.645
    7POPC   C1A  570   0.130   0.664   7.296
    7POPC   D2A  571  11.288   0.651   7.016
    7POPC   C3A  572  11.436   0.511   6.632
    7POPC   C4A  573  11.259   0.536   6.241
    7POPC   C1B  574  10.928   0.413   7.345
    7POPC   C2B  575  10.813   0.481   6.915
    7POPC   C3B  576  10.912   0.291   6.536
    7POPC   C4B  577  10.648   0.100   6.207
    8POPC   NC3  578  10.543   7.266   8.099
    8POPC   PO4  579  10.575   7.927   8.115
    8POPC   GL1  580  10.643   7.639   7.734
    8POPC   GL2  581  10.356   7.419   7.668
    8POPC   C1A  582  10.668   7.505   7.270
    8POPC   D2A  583  10.647   7.676   6.852
    8POPC   C3A  584  10.471   7.443   6.499
    8POPC   C4A  585  10.644   7.462   6.095
    8POPC   C1B  586  10.135   7.507   7.307
    8POPC   C2B  587  10.266   7.294   6.948
    8POPC   C3B  588  10.118   7.070   6.597
    8POPC   C4B  589   9.972   7.380   6.298
    9POPC   NC3  590   1.913   8.922   7.971
    9POPC   PO4  591   1.831   8.295   7.932
    9POPC   GL1  592   1.945   8.562   7.590
    9POPC   GL2  593   2.276   8.781   7.625
    9POPC   C1A  594   1.777   8.373   7.209
    9POPC   D2A  595   1.712   8.295   6.777
    9POPC   C3A  596   1.812   8.620   6.458
    9POPC   C4A  597   1.839   8.664   6.004
    9POPC   C1B  598   2.144   8.832   7.184
    9POPC   C2B  599   2.200   8.877   6.714
    9POPC   C3B  600   2.156   8.961   6.269
    9POPC   C4B  601   1.945   9.275   5.997
   10POPC   NC3  602   9.378   1.735   8.067
   10POPC   PO4  603   8.742   1.962   8.011
   10POPC   GL1  604   8.869   1.953   7.594
   10POPC   GL2  605   8.992   2.309   7.629
   10POPC   C1A  606   8.938   1.731   7.167
   10POPC   D2A  607   9.207   1.983   6.807
   10POPC   C3A  608   9.363   1.818   6.420
   10POPC   C4A  609   9.036   1.958   6.139
   10POPC   C1B  610   8.991   2.234   7.198
   10POPC   C2B  611   8.721   2.080   6.867
   10POPC   C3B  612   8.622   1.947   6.465
   10POPC   C4B  613   8.571   2.207   6.080
   11POPC   NC3  614  11.258   5.967   8.096
   11POPC   PO4  615  10.671   6.322   8.051
   11POPC   GL1  616  10.919   6.137   7.701
   11POPC   GL2  617  11.003   5.768   7.679
   11POPC   C1A  618  11.044   6.026   7.256
   11POPC   D2A  619  11.280   5.777   6.925
   11POPC   C3A  620  11.166   5.837   6.491
   11POPC   C4A  621  11.056   6.258   6.335
   11POPC   C1B  622  11.304   5.550   7.404
   11POPC   C2B  623  11.425   5.282   7.033
   11POPC   C3B  624  11.464   5.409   6.589
   11POPC   C4B  625  11.239   5.422   6.165
   12POPC   NC3  626   0.391   0.270   8.058
   12POPC   PO4  627   0.844   0.777   7.955
   12POPC   GL1  628   0.632   0.569   7.677
   12POPC   GL2  629   0.758   0.270   7.604
   12POPC   C1A  630   0.659   0.674   7.263
   12POPC   D2A  631   0.455   0.562   6.877
   12POPC   C3A  632   0.620   0.745   6.507
   12POPC   C4A  633   0.779   0.687   6.071
   12POPC   C1B  634   0.427   0.212   7.299
   12POPC   C2B  635   0.260   0.081   6.883
   12POPC   C3B  636   0.392   0.226   6.472
   12POPC   C4B  637   0.264   0.564   6.204
   13POPC   NC3  638   2.955   2.866   8.151
   13POPC   PO4  639   2.362   2.742   8.244
   13POPC   GL1  640   2.577   2.840   7.810
   13POPC   GL2  641   2.803   2.610   7.710
   13POPC   C1A  642   2.725   2.965   7.358
   13POPC   D2A  643   2.750   3.171   6.958
   13POPC   C3A  644   2.663   2.953   6.598
   13POPC   C4A  645   2.883   2.674   6.356
   13POPC   C1B  646   2.653   2.444   7.316
   13POPC   C2B  647   2.729   2.450   6.865
   13POPC   C3B  648   2.586   2.263   6.487
   13POPC   C4B  649   2.468   2.470   6.130
   14POPC   NC3  650  11.274   8.773   8.024
   14POPC   PO4  651  10.621   8.885   7.855
   14POPC   GL1  652  10.866   8.631   7.585
   14POPC   GL2  653  11.193   8.761   7.532
   14POPC   C1A  654  10.899   8.685   7.132
   14POPC   D2A  655  11.238   8.728   6.839
   14POPC   C3A  656  11.005   8.850   6.491
   14POPC   C4A  657  10.895   8.763   6.074
   14POPC   C1B  658  11.371   9.084   7.258
   14POPC   C2B  659  11.287   9.264   6.844
   14POPC   C3B  660  11.480   9.096   6.508
   14POPC   C4B  661  11.381   8.829   6.145
   15POPC   NC3  662   8.594  11.371   8.005
   15POPC   PO4  663   9.060  10.979   8.300
   15POPC   GL1  664   8.915  11.040   7.790
   15POPC   GL2  665   8.997  11.272   7.550
   15POPC   C1A  666   8.753  10.877   7.331
   15POPC   D2A  667   8.868  11.061   6.882
   15POPC   C3A  668   8.941  10.850   6.442
   15POPC   C4A  669   8.930  10.939   5.982
   15POPC   C1B  670   8.589  11.366   7.322
   15POPC   C2B  671   8.486  11.408   6.889
   15POPC   C3B  672   8.736  11.425   6.507
   15POPC   C4B  673   9.157  11.356   6.369
   16POPC   NC3  674   7.026  11.231   7.873
   16POPC   PO4  675   6.875  10.647   8.108
   16POPC   GL1  676   6.695  10.840   7.694
   16POPC   GL2  677   6.718  11.169   7.496
   16POPC   C1A  678   6.841  10.742   7.263
   16POPC   D2A  679   6.774  11.011   6.886
   16POPC   C3A  680   6.717  10.820   6.448
   16POPC   C4A  681   6.487  11.038   6.076
   16POPC   C1B  682   6.421  11.346   7.225
   16POPC   C2B  683   6.300  11.236   6.810
   16POPC   C3B  684   6.608  11.331   6.514
   16POPC   C4B  685   6.523   0.063   6.191
   17POPC   NC3  686   0.497   8.092   8.139
   17POPC   PO4  687   0.007   7.678   7.852
   17POPC   GL1  688   0.218   8.039   7.683
   17POPC   GL2  689   0.585   8.120   7.649
   17POPC   C1A  690   0.219   8.129   7.259
   17POPC   D2A  691   0.467   8.065   6.913
   17POPC   C3A  692   0.220   8.076   6.535
   17POPC   C4A  693   0.191   8.230   6.120
   17POPC   C1B  694   0.646   8.418   7.335
   17POPC   C2B  695   0.749   8.513   6.913
   17POPC   C3B  696   0.867   8.204   6.617
   17POPC   C4B  697   0.680   7.986   6.292
   18POPC   NC3  698   4.022  11.071   7.897
   18POPC   PO4  699   4.652  11.452   8.024
   18POPC   GL1  700   4.423  11.469   7.653
   18POPC   GL2  701   4.422  11.134   7.599
   18POPC   C1A  702   4.424  11.436   7.167
   18POPC   D2A  703   4.254   0.072   6.759
   18POPC   C3A  704   4.214  11.314   6.387
   18POPC   C4A  705   4.218  11.379   5.935
   18POPC   C1B  706   4.301  10.934   7.233
   18POPC   C2B  707   4.360  11.037   6.809
   18POPC   C3B  708   4.619  10.904   6.469
   18POPC   C4B  709   4.431  10.920   6.083
   19POPC   NC3  710   5.856  11.170   7.987
   19POPC   PO4  711   6.573  11.182   8.036
   19POPC   GL1  712   6.253  11.109   7.670
   19POPC   GL2  713   6.105  11.453   7.638
   19POPC   C1A  714   6.114  10.941   7.214
   19POPC   D2A  715   5.759  10.764   6.972
   19POPC   C3A  716   5.747  10.862   6.521
   19POPC   C4A  717   5.988  11.085   6.196
   19POPC   C1B  718   5.823  11.365   7.309
   19POPC   C2B  719   5.772  11.254   6.883
   19POPC   C3B  720   5.654  11.359   6.492
   19POPC   C4B  721   5.461   0.121   6.246
   20POPC   NC3  722   6.421   1.018   8.167
   20POPC   PO4  723   6.252   1.631   7.999
   20POPC   GL1  724   6.463   1.323   7.700
   20POPC   GL2  725   6.604   0.977   7.703
   20POPC   C1A  726   6.578   1.385   7.267
   20POPC   D2A  727   6.539   1.618   6.878
   20POPC   C3A  728   6.420   1.408   6.496
   20POPC   C4A  729   6.325   1.372   6.049
   20POPC   C1B  730   6.841   0.948   7.341
   20POPC   C2B  731   6.688   1.004   6.935
   20POPC   C3B  732   6.838   0.972   6.548
   20POPC   C4B  733   6.768   1.151   6.182
   21POPC   NC3  734   0.401   6.320   8.141
   21POPC   PO4  735   0.618   7.011   8.016
   21POPC   GL1  736   0.339   6.792   7.734
   21POPC   GL2  737   0.485   6.471   7.658
   21POPC   C1A  738   0.126   6.710   7.322
   21POPC   D2A  739   0.234   6.512   6.925
   21POPC   C3A  740   0.055   6.738   6.587
   21POPC   C4A  741   0.204   6.885   6.172
   21POPC   C1B  742   0.614   6.585   7.258
   21POPC   C2B  743   0.744   6.427   6.842
   21POPC   C3B  744   0.543   6.554   6.444
   21POPC   C4B  745   0.517   6.456   5.993
   22POPC   NC3  746   2.390   6.237   8.163
   22POPC   PO4  747   2.235   6.851   8.098
   22POPC   GL1  748   1.919   6.857   7.802
   22POPC   GL2  749   1.898   6.516   7.714
   22POPC   C1A  750   1.886   6.970   7.392
   22POPC   D2A  751   1.891   6.779   6.975
   22POPC   C3A  752   2.078   6.941   6.596
   22POPC   C4A  753   2.203   6.735   6.193
   22POPC   C1B  754   2.058   6.274   7.332
   22POPC   C2B  755   1.898   6.263   6.893
   22POPC   C3B  756   1.879   6.463   6.488
   22POPC   C4B  757   1.784   6.352   6.054
   23POPC   NC3  758  11.073   7.727   8.030
   23POPC   PO4  759  10.935   8.446   8.130
   23POPC   GL1  760  10.902   8.147   7.759
   23POPC   GL2  761  11.239   8.248   7.689
   23POPC   C1A  762  11.044   7.873   7.372
   23POPC   D2A  763  11.144   7.606   6.991
   23POPC   C3A  764  11.063   7.793   6.558
   23POPC   C4A  765  11.049   7.962   6.137
   23POPC   C1B  766  11.249   8.333   7.243
   23POPC   C2B  767  11.291   8.201   6.814
   23POPC   C3B  768  11.258   8.374   6.389
   23POPC   C4B  769  11.247   8.369   5.924
   24POPC   NC3  770   0.109   4.254   8.301
   24POPC   PO4  771   0.746   4.406   8.293
   24POPC   GL1  772   0.419   4.281   7.883
   24POPC   GL2  773   0.307   4.553   7.668
   24POPC   C1A  774   0.340   4.120   7.401
   24POPC   D2A  775   0.514   4.166   6.948
   24POPC   C3A  776   0.308   4.030   6.552
   24POPC   C4A  777   0.373   4.095   6.083
   24POPC   C1B  778   0.588   4.555   7.296
   24POPC   C2B  779   0.597   4.664   6.840
   24POPC   C3B  780   0.415   4.529   6.437
   24POPC   C4B  781   0.075   4.515   6.132
   25POPC   NC3  782   1.139   1.130   8.070
   25POPC   PO4  783   1.542   1.588   8.071
   25POPC   GL1  784   1.239   1.504   7.712
   25POPC   GL2  785   1.202   1.151   7.583
   25POPC   C1A  786   1.239   1.555   7.250
   25POPC   D2A  787   1.027   1.428   6.853
   25POPC   C3A  788   1.227   1.571   6.502
   25POPC   C4A  789   1.357   1.450   6.116
   25POPC   C1B  790   1.139   0.999   7.175
   25POPC   C2B  791   1.203   0.945   6.762
   25POPC   C3B  792   1.082   1.061   6.373
   25POPC   C4B  793   1.183   1.001   5.952
   26POPC   NC3  794   1.221   9.626   8.134
   26POPC   PO4  795   1.657   9.271   7.802
   26POPC   GL1  796   1.451   9.668   7.609
   26POPC   GL2  797   1.159   9.860   7.706
   26POPC   C1A  798   1.406   9.765   7.181
   26POPC   D2A  799   1.230   9.426   6.954
   26POPC   C3A  800   1.319   9.399   6.537
   26POPC   C4A  801   1.246   9.549   6.166
   26POPC   C1B  802   0.943   9.700   7.381
   26POPC   C2B  803   0.933   9.850   6.977
   26POPC   C3B  804   1.119   9.857   6.600
   26POPC   C4B  805   0.858   9.850   6.243
   27POPC   NC3  806   5.289   2.548   8.222
   27POPC   PO4  807   5.456   1.959   8.069
   27POPC   GL1  808   5.380   1.726   7.679
   27POPC   GL2  809   5.747   1.723   7.546
   27POPC   C1A  810   5.298   1.859   7.231
   27POPC   D2A  811   5.600   2.035   6.929
   27POPC   C3A  812   5.487   2.082   6.487
   27POPC   C4A  813   5.732   2.141   6.098
   27POPC   C1B  814   5.664   1.523   7.160
   27POPC   C2B  815   5.538   1.573   6.716
   27POPC   C3B  816   5.866   1.734   6.437
   27POPC   C4B  817   6.145   1.825   6.091
   28POPC   NC3  818   7.680   0.275   7.974
   28POPC   PO4  819   7.161  11.435   8.276
   28POPC   GL1  820   7.102   0.232   7.838
   28POPC   GL2  821   7.249   0.587   7.845
   28POPC   C1A  822   7.149   0.144   7.331
   28POPC   D2A  823   6.936   0.003   6.940
   28POPC   C3A  824   7.120   0.001   6.523
   28POPC   C4A  825   7.022   0.159   6.093
   28POPC   C1B  826   7.267   0.637   7.391
   28POPC   C2B  827   7.398   0.491   6.974
   28POPC   C3B  828   7.455   0.385   6.530
   28POPC   C4B  829   7.296   0.582   6.139
   29POPC   NC3  830   7.948   8.740   8.111
   29POPC   PO4  831   8.575   8.629   8.125
   29POPC   GL1  832   8.343   8.818   7.734
   29POPC   GL2  833   8.002   9.022   7.696
   29POPC   C1A  834   8.084   8.634   7.365
   29POPC   D2A  835   7.903   8.783   6.948
   29POPC   C3A  836   8.147   8.656   6.594
   29POPC   C4A  837   8.022   8.535   6.189
   29POPC   C1B  838   8.065   9.121   7.282
   29POPC   C2B  839   8.371   9.015   6.987
   29POPC   C3B  840   8.379   9.108   6.592
   29POPC   C4B  841   8.026   9.070   6.302
   30POPC   NC3  842   6.374   9.609   8.203
   30POPC   PO4  843   6.889   9.202   8.108
   30POPC   GL1  844   6.739   9.524   7.759
   30POPC   GL2  845   6.469   9.796   7.714
   30POPC   C1A  846   6.824   9.655   7.301
   30POPC   D2A  847   6.784   9.505   6.866
   30POPC   C3A  848   6.741   9.764   6.480
   30POPC   C4A  849   6.765   9.435   6.147
   30POPC   C1B  850   6.292   9.715   7.331
   30POPC   C2B  851   6.383   9.813   6.942
   30POPC   C3B  852   6.228   9.694   6.563
   30POPC   C4B  853   6.103   9.831   6.193
   31POPC   NC3  854   2.345   5.382   8.226
   31POPC   PO4  855   3.047   5.315   8.186
   31POPC   GL1  856   2.722   5.481   7.845
   31POPC   GL2  857   2.598   5.829   7.864
   31POPC   C1A  858   2.694   5.556   7.348
   31POPC   D2A  859   2.858   5.559   6.881
   31POPC   C3A  860   2.665   5.472   6.452
   31POPC   C4A  861   2.860   5.516   6.026
   31POPC   C1B  862   2.586   6.042   7.439
   31POPC   C2B  863   2.674   6.031   6.967
   31POPC   C3B  864   2.612   5.991   6.498
   31POPC   C4B  865   2.237   6.149   6.266
   32POPC   NC3  866   8.102   2.055   8.239
   32POPC   PO4  867   7.909   1.556   7.850
   32POPC   GL1  868   8.137   1.774   7.569
   32POPC   GL2  869   8.321   2.030   7.758
   32POPC   C1A  870   8.432   1.613   7.261
   32POPC   D2A  871   8.478   1.554   6.813
   32POPC   C3A  872   8.049   1.615   6.625
   32POPC   C4A  873   7.784   1.584   6.234
   32POPC   C1B  874   8.450   2.119   7.341
   32POPC   C2B  875   8.238   1.985   6.960
   32POPC   C3B  876   8.126   2.145   6.576
   32POPC   C4B  877   8.184   1.886   6.213
   33POPC   NC3  878   4.600  10.979   8.061
   33POPC   PO4  879   4.209  10.395   8.257
   33POPC   GL1  880   4.524  10.283   7.770
   33POPC   GL2  881   4.276  10.354   7.495
   33POPC   C1A  882   4.723  10.305   7.320
   33POPC   D2A  883   4.643  10.624   6.974
   33POPC   C3A  884   4.733  10.409   6.565
   33POPC   C4A  885   4.748  10.515   6.131
   33POPC   C1B  886   4.005  10.120   7.243
   33POPC   C2B  887   3.914   9.961   6.837
   33POPC   C3B  888   3.947  10.125   6.402
   33POPC   C4B  889   4.271  10.419   6.288
   34POPC   NC3  890   7.312   8.133   8.009
   34POPC   PO4  891   6.752   8.311   7.957
   34POPC   GL1  892   7.107   8.490   7.662
   34POPC   GL2  893   7.444   8.374   7.575
   34POPC   C1A  894   7.129   8.462   7.193
   34POPC   D2A  895   7.267   8.222   6.793
   34POPC   C3A  896   7.117   8.344   6.367
   34POPC   C4A  897   6.778   8.175   6.119
   34POPC   C1B  898   7.653   8.366   7.175
   34POPC   C2B  899   7.771   8.325   6.745
   34POPC   C3B  900   7.617   8.251   6.333
   34POPC   C4B  901   7.661   8.318   5.881
   35POPC   NC3  902   0.990   6.781   7.877
   35POPC   PO4  903   0.939   6.149   8.135
   35POPC   GL1  904   1.022   6.312   7.694
   35POPC   GL2  905   1.373   6.446   7.717
   35POPC   C1A  906   1.100   6.525   7.261
   35POPC   D2A  907   0.990   6.861   6.930
   35POPC   C3A  908   1.061   6.666   6.490
   35POPC   C4A  909   1.024   6.517   6.052
   35POPC   C1B  910   1.592   6.482   7.296
   35POPC   C2B  911   1.440   6.589   6.870
   35POPC   C3B  912   1.551   6.850   6.560
   35POPC   C4B  913   1.476   6.758   6.145
   36POPC   NC3  914   3.250   5.728   8.156
   36POPC   PO4  915   3.047   6.307   8.309
   36POPC   GL1  916   3.017   6.155   7.801
   36POPC   GL2  917   3.071   5.814   7.664
   36POPC   C1A  918   3.086   6.160   7.276
   36POPC   D2A  919   3.171   5.970   6.820
   36POPC   C3A  920   3.313   6.167   6.379
   36POPC   C4A  921   3.350   6.390   5.960
   36POPC   C1B  922   3.232   5.667   7.258
   36POPC   C2B  923   3.596   5.712   6.965
   36POPC   C3B  924   3.552   5.727   6.528
   36POPC   C4B  925   3.129   5.697   6.392
   37POPC   NC3  926   8.319   0.611   8.005
   37POPC   PO4  927   8.126   0.020   8.028
   37POPC   GL1  928   8.330   0.206   7.648
   37POPC   GL2  929   8.050   0.438   7.586
   37POPC   C1A  930   8.418   0.354   7.194
   37POPC   D2A  931   8.092   0.330   6.830
   37POPC   C3A  932   8.204   0.392   6.387
   37POPC   C4A  933   8.328   0.119   6.019
   37POPC   C1B  934   7.831   0.656   7.230
   37POPC   C2B  935   7.793   0.758   6.774
   37POPC   C3B  936   7.797   0.685   6.302
   37POPC   C4B  937   7.728   0.670   5.853
   38POPC   NC3  938   1.595   2.717   7.899
   38POPC   PO4  939   1.038   2.963   8.127
   38POPC   GL1  940   1.028   2.779   7.735
   38POPC   GL2  941   1.270   3.030   7.658
   38POPC   C1A  942   1.210   2.594   7.336
   38POPC   D2A  943   1.299   2.671   6.900
   38POPC   C3A  944   1.358   2.455   6.500
   38POPC   C4A  945   1.369   2.638   6.088
   38POPC   C1B  946   1.030   3.112   7.316
   38POPC   C2B  947   0.882   2.966   6.952
   38POPC   C3B  948   1.076   3.015   6.586
   38POPC   C4B  949   0.895   2.897   6.211
   39POPC   NC3  950   0.622   2.742   8.129
   39POPC   PO4  951   0.729   2.108   7.987
   39POPC   GL1  952   0.569   2.456   7.706
   39POPC   GL2  953   0.292   2.705   7.709
   39POPC   C1A  954   0.689   2.671   7.344
   39POPC   D2A  955   0.843   2.419   7.008
   39POPC   C3A  956   0.880   2.552   6.600
   39POPC   C4A  957   0.888   2.392   6.154
   39POPC   C1B  958   0.172   2.749   7.257
   39POPC   C2B  959   0.409   2.684   6.871
   39POPC   C3B  960   0.440   2.743   6.425
   39POPC   C4B  961   0.101   2.755   6.127
   40POPC   NC3  962   4.996   1.811   8.098
   40POPC   PO4  963   4.761   2.482   8.165
   40POPC   GL1  964   4.908   2.245   7.787
   40POPC   GL2  965   4.707   1.984   7.710
   40POPC   C1A  966   4.887   2.201   7.289
   40POPC   D2A  967   5.115   2.214   6.858
   40POPC   C3A  968   5.010   2.297   6.399
   40POPC   C4A  969   5.272   2.417   6.031
   40POPC   C1B  970   4.857   1.661   7.401
   40POPC   C2B  971   4.833   1.804   6.949
   40POPC   C3B  972   5.035   1.809   6.546
   40POPC   C4B  973   4.852   1.679   6.154
   41POPC   NC3  974   8.852  10.624   8.071
   41POPC   PO4  975   8.350  10.129   8.220
   41POPC   GL1  976   8.471  10.416   7.817
   41POPC   GL2  977   8.793  10.352   7.644
   41POPC   C1A  978   8.402  10.451   7.319
   41POPC   D2A  979   8.525  10.209   6.904
   41POPC   C3A  980   8.539  10.471   6.511
   41POPC   C4A  981   8.496  10.663   6.078
   41POPC   C1B  982   8.906  10.190   7.253
   41POPC   C2B  983   9.030  10.324   6.828
   41POPC   C3B  984   8.943  10.189   6.419
   41POPC   C4B  985   8.952  10.444   6.085
   42POPC   NC3  986   7.528   2.220   8.054
   42POPC   PO4  987   7.827   1.701   8.356
   42POPC   GL1  988   7.460   1.732   7.878
   42POPC   GL2  989   7.637   1.964   7.630
   42POPC   C1A  990   7.511   1.596   7.342
   42POPC   D2A  991   7.747   1.854   6.978
   42POPC   C3A  992   7.645   1.974   6.502
   42POPC   C4A  993   7.344   1.858   6.150
   42POPC   C1B  994   7.362   2.071   7.252
   42POPC   C2B  995   7.257   1.938   6.823
   42POPC   C3B  996   7.172   2.215   6.464
   42POPC   C4B  997   6.918   2.152   6.077
   43POPC   NC3  998   7.607   1.226   7.976
   43POPC   PO4  999   6.903   1.232   8.069
   43POPC   GL1 1000   6.987   1.364   7.655
   43POPC   GL2 1001   7.235   1.110   7.646
   43POPC   C1A 1002   7.084   1.375   7.208
   43POPC   D2A 1003   6.993   1.414   6.785
   43POPC   C3A 1004   7.272   1.428   6.436
   43POPC   C4A 1005   7.160   1.423   5.986
   43POPC   C1B 1006   7.490   1.073   7.289
   43POPC   C2B 1007   7.249   0.973   6.927
   43POPC   C3B 1008   7.353   0.910   6.520
   43POPC   C4B 1009   7.481   1.060   6.113
   44POPC   NC3 1010   1.906   9.676   7.821
   44POPC   PO4 1011   2.321   9.163   8.014
   44POPC   GL1 1012   2.307   9.408   7.652
   44POPC   GL2 1013   2.065   9.235   7.493
   44POPC   C1A 1014   2.343   9.614   7.224
   44POPC   D2A 1015   2.319   9.355   6.853
   44POPC   C3A 1016   2.111   9.441   6.475
   44POPC   C4A 1017   2.131   9.735   6.156
   44POPC   C1B 1018   1.862   9.280   7.089
   44POPC   C2B 1019   1.727   9.605   6.799
   44POPC   C3B 1020   1.665   9.749   6.389
   44POPC   C4B 1021   1.698   9.923   5.994
   45POPC   NC3 1022  11.059   3.472   8.010
   45POPC   PO4 1023   0.102   3.225   7.740
   45POPC   GL1 1024  11.194   3.470   7.531
   45POPC   GL2 1025  11.025   3.834   7.668
   45POPC   C1A 1026  10.866   3.647   7.220
   45POPC   D2A 1027  10.743   3.431   6.858
   45POPC   C3A 1028  11.068   3.195   6.652
   45POPC   C4A 1029  11.045   3.180   6.204
   45POPC   C1B 1030  11.296   3.942   7.344
   45POPC   C2B 1031  11.295   3.753   6.934
   45POPC   C3B 1032  11.131   3.694   6.520
   45POPC   C4B 1033  11.455   3.507   6.258
   46POPC   NC3 1034   8.807   8.237   8.015
   46POPC   PO4 1035   8.460   7.777   7.794
   46POPC   GL1 1036   8.830   7.915   7.568
   46POPC   GL2 1037   8.860   8.263   7.504
   46POPC   C1A 1038   8.970   7.845   7.136
   46POPC   D2A 1039   9.131   7.952   6.711
   46POPC   C3A 1040   8.942   7.805   6.307
   46POPC   C4A 1041   8.667   7.770   5.913
   46POPC   C1B 1042   8.852   8.357   7.064
   46POPC   C2B 1043   9.168   8.465   6.773
   46POPC   C3B 1044   9.100   8.334   6.348
   46POPC   C4B 1045   8.959   8.178   5.952
   47POPC   NC3 1046   1.391   8.282   8.055
   47POPC   PO4 1047   0.926   7.891   8.064
   47POPC   GL1 1048   1.093   8.012   7.676
   47POPC   GL2 1049   0.955   7.714   7.554
   47POPC   C1A 1050   1.269   8.237   7.301
   47POPC   D2A 1051   1.273   8.534   6.953
   47POPC   C3A 1052   1.315   8.437   6.497
   47POPC   C4A 1053   1.072   8.334   6.112
   47POPC   C1B 1054   1.193   7.720   7.173
   47POPC   C2B 1055   1.282   8.012   6.821
   47POPC   C3B 1056   1.251   7.944   6.373
   47POPC   C4B 1057   1.490   7.731   6.092
   48POPC   NC3 1058   0.594  10.428   8.113
   48POPC   PO4 1059   0.055  10.058   8.249
   48POPC   GL1 1060   0.280  10.132   7.797
   48POPC   GL2 1061   0.357  10.491   7.676
   48POPC   C1A 1062   0.611  10.122   7.421
   48POPC   D2A 1063   0.468  10.041   6.982
   48POPC   C3A 1064   0.715  10.194   6.629
   48POPC   C4A 1065   0.701  10.400   6.233
   48POPC   C1B 1066   0.220  10.419   7.268
   48POPC   C2B 1067   0.363  10.527   6.877
   48POPC   C3B 1068   0.260  10.440   6.476
   48POPC   C4B 1069   0.227  10.758   6.192
   49POPC   NC3 1070   1.234   3.392   8.092
   49POPC   PO4 1071   0.755   3.898   7.911
   49POPC   GL1 1072   1.161   3.811   7.658
   49POPC   GL2 1073   1.444   3.556   7.661
   49POPC   C1A 1074   1.293   3.725   7.209
   49POPC   D2A 1075   1.099   3.465   6.875
   49POPC   C3A 1076   1.088   3.677   6.453
   49POPC   C4A 1077   1.123   3.622   6.002
   49POPC   C1B 1078   1.531   3.273   7.306
   49POPC   C2B 1079   1.485   3.130   6.921
   49POPC   C3B 1080   1.475   3.341   6.543
   49POPC   C4B 1081   1.300   3.199   6.180
   50POPC   NC3 1082   1.881   7.113   8.232
   50POPC   PO4 1083   1.275   7.043   8.111
   50POPC   GL1 1084   1.420   6.984   7.685
   50POPC   GL2 1085   1.254   7.312   7.673
   50POPC   C1A 1086   1.409   6.963   7.225
   50POPC   D2A 1087   1.327   7.280   6.919
   50POPC   C3A 1088   1.154   7.167   6.533
   50POPC   C4A 1089   1.374   7.256   6.177
   50POPC   C1B 1090   0.992   7.229   7.349
   50POPC   C2B 1091   0.811   7.370   6.982
   50POPC   C3B 1092   0.988   7.625   6.666
   50POPC   C4B 1093   0.961   7.542   6.225
   51POPC   NC3 1094   3.434   9.472   8.279
   51POPC   PO4 1095   3.504  10.149   8.171
   51POPC   GL1 1096   3.483   9.938   7.785
   51POPC   GL2 1097   3.635   9.617   7.767
   51POPC   C1A 1098   3.534   9.935   7.344
   51POPC   D2A 1099   3.239   9.823   7.036
   51POPC   C3A 1100   3.460   9.791   6.673
   51POPC   C4A 1101   3.465   9.986   6.307
   51POPC   C1B 1102   3.460   9.427   7.370
   51POPC   C2B 1103   3.318   9.329   6.921
   51POPC   C3B 1104   3.507   9.326   6.473
   51POPC   C4B 1105   3.792   9.292   6.089
   52POPC   NC3 1106   8.979   3.312   8.233
   52POPC   PO4 1107   9.148   3.879   8.115
   52POPC   GL1 1108   9.229   3.598   7.749
   52POPC   GL2 1109   8.980   3.316   7.729
   52POPC   C1A 1110   9.109   3.572   7.295
   52POPC   D2A 1111   8.836   3.545   6.914
   52POPC   C3A 1112   8.966   3.641   6.481
   52POPC   C4A 1113   8.854   3.836   6.081
   52POPC   C1B 1114   8.848   3.131   7.331
   52POPC   C2B 1115   9.030   3.080   6.937
   52POPC   C3B 1116   8.792   3.139   6.578
   52POPC   C4B 1117   8.659   3.349   6.177
   53POPC   NC3 1118   1.718   5.317   8.000
   53POPC   PO4 1119   2.184   5.819   8.179
   53POPC   GL1 1120   2.138   5.606   7.765
   53POPC   GL2 1121   1.786   5.700   7.662
   53POPC   C1A 1122   2.144   5.732   7.297
   53POPC   D2A 1123   1.913   5.743   6.894
   53POPC   C3A 1124   2.153   5.690   6.500
   53POPC   C4A 1125   1.990   5.480   6.118
   53POPC   C1B 1126   1.631   5.957   7.309
   53POPC   C2B 1127   1.408   6.094   6.940
   53POPC   C3B 1128   1.454   6.183   6.509
   53POPC   C4B 1129   1.733   5.897   6.282
   54POPC   NC3 1130  11.060   9.802   8.130
   54POPC   PO4 1131  -0.000   9.267   8.102
   54POPC   GL1 1132  11.423   9.473   7.673
   54POPC   GL2 1133  11.059   9.595   7.675
   54POPC   C1A 1134  11.268   9.608   7.223
   54POPC   D2A 1135  11.282   9.849   6.825
   54POPC   C3A 1136  11.440   9.621   6.480
   54POPC   C4A 1137  11.476   9.642   6.052
   54POPC   C1B 1138  10.856   9.888   7.369
   54POPC   C2B 1139  10.779   9.742   6.917
   54POPC   C3B 1140  10.918   9.574   6.498
   54POPC   C4B 1141  11.123   9.285   6.220
   55POPC   NC3 1142  10.781   5.089   8.068
   55POPC   PO4 1143  10.170   5.449   8.115
   55POPC   GL1 1144  10.331   5.278   7.713
   55POPC   GL2 1145  10.453   4.946   7.692
   55POPC   C1A 1146  10.392   5.380   7.272
   55POPC   D2A 1147  10.484   5.259   6.832
   55POPC   C3A 1148  10.199   5.251   6.507
   55POPC   C4A 1149  10.179   4.906   6.248
   55POPC   C1B 1150  10.676   4.817   7.325
   55POPC   C2B 1151  10.621   4.757   6.886
   55POPC   C3B 1152  10.655   4.898   6.454
   55POPC   C4B 1153  10.596   4.680   6.052
   56POPC   NC3 1154   5.914   0.528   8.208
   56POPC   PO4 1155   5.277   0.352   8.297
   56POPC   GL1 1156   5.451   0.504   7.808
   56POPC   GL2 1157   5.707   0.746   7.777
   56POPC   C1A 1158   5.761   0.412   7.397
   56POPC   D2A 1159   5.696   0.251   6.949
   56POPC   C3A 1160   6.023   0.205   6.615
   56POPC   C4A 1161   5.982   0.106   6.168
   56POPC   C1B 1162   6.109   0.791   7.522
   56POPC   C2B 1163   6.149   0.842   7.053
   56POPC   C3B 1164   5.865   0.719   6.704
   56POPC   C4B 1165   5.782   0.559   6.297
   57POPC   NC3 1166   9.510  10.993   8.202
   57POPC   PO4 1167   9.213  10.644   7.762
   57POPC   GL1 1168   9.460  10.992   7.641
   57POPC   GL2 1169   9.479  11.355   7.710
   57POPC   C1A 1170   9.462  11.143   7.210
   57POPC   D2A 1171   9.725  11.031   6.849
   57POPC   C3A 1172   9.521  10.967   6.438
   57POPC   C4A 1173   9.762  11.025   6.048
   57POPC   C1B 1174   9.779  11.499   7.374
   57POPC   C2B 1175   9.659   0.055   6.898
   57POPC   C3B 1176   9.683  11.447   6.433
   57POPC   C4B 1177   9.753   0.024   5.977
   58POPC   NC3 1178  10.530   8.330   8.335
   58POPC   PO4 1179   9.958   8.475   7.920
   58POPC   GL1 1180  10.050   8.263   7.572
   58POPC   GL2 1181  10.196   7.933   7.660
   58POPC   C1A 1182  10.132   8.190   7.158
   58POPC   D2A 1183  10.337   8.072   6.806
   58POPC   C3A 1184  10.282   8.309   6.467
   58POPC   C4A 1185  10.291   8.182   6.038
   58POPC   C1B 1186  10.550   7.999   7.367
   58POPC   C2B 1187  10.796   8.187   7.027
   58POPC   C3B 1188  10.790   8.239   6.583
   58POPC   C4B 1189  10.585   7.910   6.340
   59POPC   NC3 1190   4.620   1.219   8.061
   59POPC   PO4 1191   4.128   0.761   8.099
   59POPC   GL1 1192   4.002   1.037   7.757
   59POPC   GL2 1193   4.345   1.037   7.661
   59POPC   C1A 1194   3.885   0.933   7.317
   59POPC   D2A 1195   4.128   0.940   6.941
   59POPC   C3A 1196   3.971   0.950   6.554
   59POPC   C4A 1197   4.296   1.141   6.389
   59POPC   C1B 1198   4.270   1.283   7.295
   59POPC   C2B 1199   4.512   1.414   6.952
   59POPC   C3B 1200   4.565   1.528   6.548
   59POPC   C4B 1201   4.159   1.647   6.358
   60POPC   NC3 1202   1.382   4.871   8.219
   60POPC   PO4 1203   2.045   5.043   8.162
   60POPC   GL1 1204   1.967   4.924   7.746
   60POPC   GL2 1205   1.898   5.207   7.543
   60POPC   C1A 1206   2.039   4.763   7.335
   60POPC   D2A 1207   1.932   5.043   6.991
   60POPC   C3A 1208   1.868   4.809   6.609
   60POPC   C4A 1209   1.805   5.026   6.251
   60POPC   C1B 1210   2.278   5.241   7.339
   60POPC   C2B 1211   2.343   5.380   6.896
   60POPC   C3B 1212   2.235   5.186   6.477
   60POPC   C4B 1213   2.437   5.185   6.052
   61POPC   NC3 1214   9.802   5.162   8.241
   61POPC   PO4 1215   9.760   4.508   8.032
   61POPC   GL1 1216   9.934   4.881   7.750
   61POPC   GL2 1217   9.811   5.249   7.738
   61POPC   C1A 1218  10.072   4.984   7.302
   61POPC   D2A 1219  10.111   4.871   6.839
   61POPC   C3A 1220   9.758   4.966   6.507
   61POPC   C4A 1221   9.643   4.768   6.107
   61POPC   C1B 1222   9.575   5.096   7.377
   61POPC   C2B 1223   9.556   5.178   6.921
   61POPC   C3B 1224   9.334   5.272   6.526
   61POPC   C4B 1225   9.404   5.214   6.084
   62POPC   NC3 1226  11.278  11.130   8.105
   62POPC   PO4 1227  10.733   0.015   8.153
   62POPC   GL1 1228  11.071  11.497   7.801
   62POPC   GL2 1229  10.813  11.439   7.574
   62POPC   C1A 1230  11.290   0.035   7.379
   62POPC   D2A 1231  11.050   0.039   6.994
   62POPC   C3A 1232  11.305  11.484   6.637
   62POPC   C4A 1233  11.226   0.020   6.205
   62POPC   C1B 1234  11.002  11.118   7.325
   62POPC   C2B 1235  11.148  11.047   6.908
   62POPC   C3B 1236  11.233  10.980   6.471
   62POPC   C4B 1237  10.972  10.767   6.124
   63POPC   NC3 1238  10.228   3.366   8.238
   63POPC   PO4 1239  10.678   3.302   7.765
   63POPC   GL1 1240  10.283   3.281   7.594
   63POPC   GL2 1241  10.187   3.598   7.765
   63POPC   C1A 1242  10.289   3.291   7.125
   63POPC   D2A 1243  10.258   3.353   6.672
   63POPC   C3A 1244  10.616   3.498   6.363
   63POPC   C4A 1245  10.626   3.331   5.919
   63POPC   C1B 1246  10.155   3.753   7.351
   63POPC   C2B 1247  10.352   3.770   6.941
   63POPC   C3B 1248  10.204   3.864   6.545
   63POPC   C4B 1249  10.238   3.719   6.115
   64POPC   NC3 1250   6.737   0.072   8.239
   64POPC   PO4 1251   6.372   0.571   8.278
   64POPC   GL1 1252   6.346   0.407   7.810
   64POPC   GL2 1253   6.589   0.115   7.733
   64POPC   C1A 1254   6.287   0.341   7.322
   64POPC   D2A 1255   6.475   0.257   6.889
   64POPC   C3A 1256   6.406   0.588   6.570
   64POPC   C4A 1257   6.276   0.514   6.149
   64POPC   C1B 1258   6.769   0.456   7.477
   64POPC   C2B 1259   6.894   0.535   7.024
   64POPC   C3B 1260   6.924   0.467   6.562
   64POPC   C4B 1261   6.781   0.629   6.147
   65POPC   NC3 1262   4.673  10.391   8.233
   65POPC   PO4 1263   5.004  10.999   8.304
   65POPC   GL1 1264   4.964  10.646   7.890
   65POPC   GL2 1265   4.756  10.743   7.582
   65POPC   C1A 1266   5.178  10.438   7.490
   65POPC   D2A 1267   5.108  10.450   6.981
   65POPC   C3A 1268   5.163  10.128   6.640
   65POPC   C4A 1269   5.048  10.108   6.181
   65POPC   C1B 1270   5.119  10.880   7.267
   65POPC   C2B 1271   5.281  10.914   6.810
   65POPC   C3B 1272   5.179  10.673   6.410
   65POPC   C4B 1273   5.228  10.572   5.939
   66POPC   NC3 1274   0.012   5.437   8.093
   66POPC   PO4 1275   0.027   4.692   8.108
   66POPC   GL1 1276  11.200   4.830   7.839
   66POPC   GL2 1277  11.181   5.204   7.775
   66POPC   C1A 1278  11.176   4.877   7.395
   66POPC   D2A 1279  11.122   4.669   7.012
   66POPC   C3A 1280  11.142   4.894   6.651
   66POPC   C4A 1281  11.137   4.760   6.252
   66POPC   C1B 1282  10.865   5.289   7.451
   66POPC   C2B 1283  10.933   5.163   7.031
   66POPC   C3B 1284  10.945   5.367   6.620
   66POPC   C4B 1285  10.641   5.393   6.298
   67POPC   NC3 1286   7.911  10.285   8.090
   67POPC   PO4 1287   8.451   9.936   7.724
   67POPC   GL1 1288   8.060  10.152   7.621
   67POPC   GL2 1289   8.014  10.540   7.667
   67POPC   C1A 1290   7.875  10.284   7.227
   67POPC   D2A 1291   8.071  10.431   6.852
   67POPC   C3A 1292   8.137  10.124   6.542
   67POPC   C4A 1293   7.750  10.195   6.370
   67POPC   C1B 1294   7.817  10.758   7.366
   67POPC   C2B 1295   7.711  10.800   6.924
   67POPC   C3B 1296   7.965  10.889   6.614
   67POPC   C4B 1297   8.075  10.597   6.332
   68POPC   NC3 1298   4.562   2.831   8.465
   68POPC   PO4 1299   4.000   2.586   8.110
   68POPC   GL1 1300   4.190   2.645   7.698
   68POPC   GL2 1301   3.995   2.942   7.639
   68POPC   C1A 1302   4.494   2.585   7.317
   68POPC   D2A 1303   4.531   2.310   6.932
   68POPC   C3A 1304   4.587   2.548   6.543
   68POPC   C4A 1305   4.480   2.430   6.115
   68POPC   C1B 1306   3.985   2.733   7.227
   68POPC   C2B 1307   4.171   2.763   6.789
   68POPC   C3B 1308   4.170   2.793   6.317
   68POPC   C4B 1309   4.435   2.934   5.963
   69POPC   NC3 1310   1.392   6.211   8.221
   69POPC   PO4 1311   1.242   5.549   8.022
   69POPC   GL1 1312   1.256   5.859   7.705
   69POPC   GL2 1313   1.313   5.589   7.496
   69POPC   C1A 1314   1.049   5.993   7.278
   69POPC   D2A 1315   0.942   5.890   6.804
   69POPC   C3A 1316   0.939   6.143   6.413
   69POPC   C4A 1317   0.826   6.059   5.959
   69POPC   C1B 1318   1.600   5.443   7.198
   69POPC   C2B 1319   1.397   5.585   6.823
   69POPC   C3B 1320   1.259   5.708   6.416
   69POPC   C4B 1321   1.491   5.422   6.210
   70POPC   NC3 1322   3.525   0.101   8.153
   70POPC   PO4 1323   3.328  10.837   8.124
   70POPC   GL1 1324   3.501  10.974   7.718
   70POPC   GL2 1325   3.584  11.329   7.715
   70POPC   C1A 1326   3.753  10.989   7.323
   70POPC   D2A 1327   3.929  11.270   7.012
   70POPC   C3A 1328   3.756  11.208   6.583
   70POPC   C4A 1329   3.746  11.240   6.114
   70POPC   C1B 1330   3.334  11.338   7.328
   70POPC   C2B 1331   3.153  11.388   6.892
   70POPC   C3B 1332   3.282  11.343   6.433
   70POPC   C4B 1333   3.359  10.907   6.283
   71POPC   NC3 1334  11.131   4.460   8.249
   71POPC   PO4 1335  11.424   3.902   8.029
   71POPC   GL1 1336  11.379   4.283   7.799
   71POPC   GL2 1337  11.040   4.341   7.765
   71POPC   C1A 1338  11.430   4.437   7.369
   71POPC   D2A 1339   0.017   4.247   6.979
   71POPC   C3A 1340  11.377   4.331   6.567
   71POPC   C4A 1341  11.388   4.027   6.213
   71POPC   C1B 1342  10.941   4.342   7.359
   71POPC   C2B 1343  11.007   4.179   6.948
   71POPC   C3B 1344  10.887   4.440   6.579
   71POPC   C4B 1345  10.961   4.287   6.175
   72POPC   NC3 1346   9.374   4.273   8.084
   72POPC   PO4 1347  10.000   3.892   8.172
   72POPC   GL1 1348   9.818   3.963   7.742
   72POPC   GL2 1349  10.011   4.196   7.554
   72POPC   C1A 1350   9.580   3.821   7.346
   72POPC   D2A 1351   9.322   3.799   6.905
   72POPC   C3A 1352   9.428   3.881   6.468
   72POPC   C4A 1353   9.800   4.033   6.298
   72POPC   C1B 1354   9.777   4.553   7.359
   72POPC   C2B 1355   9.657   4.668   6.939
   72POPC   C3B 1356   9.631   4.465   6.530
   72POPC   C4B 1357   9.347   4.328   6.202
   73POPC   NC3 1358   2.707   8.059   8.046
   73POPC   PO4 1359   2.137   7.531   8.252
   73POPC   GL1 1360   2.075   7.411   7.836
   73POPC   GL2 1361   1.756   7.361   7.783
   73POPC   C1A 1362   2.122   7.467   7.386
   73POPC   D2A 1363   2.188   7.755   7.033
   73POPC   C3A 1364   2.168   7.555   6.618
   73POPC   C4A 1365   1.998   7.627   6.175
   73POPC   C1B 1366   1.622   7.413   7.347
   73POPC   C2B 1367   1.842   7.302   6.965
   73POPC   C3B 1368   1.720   7.326   6.541
   73POPC   C4B 1369   1.845   7.113   6.163
   74POPC   NC3 1370  10.587   1.286   8.360
   74POPC   PO4 1371  10.103   0.820   8.319
   74POPC   GL1 1372  10.233   1.016   7.910
   74POPC   GL2 1373  10.232   1.405   7.856
   74POPC   C1A 1374  10.318   1.045   7.464
   74POPC   D2A 1375  10.023   0.987   7.122
   74POPC   C3A 1376  10.085   1.057   6.684
   74POPC   C4A 1377  10.462   1.044   6.388
   74POPC   C1B 1378  10.159   1.501   7.373
   74POPC   C2B 1379  10.325   1.407   6.957
   74POPC   C3B 1380  10.261   1.513   6.507
   74POPC   C4B 1381  10.379   1.467   6.044
   75POPC   NC3 1382   0.567   4.745   8.043
   75POPC   PO4 1383   0.479   5.448   7.985
   75POPC   GL1 1384   0.530   5.117   7.687
   75POPC   GL2 1385   0.173   5.046   7.702
   75POPC   C1A 1386   0.643   5.068   7.254
   75POPC   D2A 1387   0.393   5.145   6.865
   75POPC   C3A 1388   0.586   5.061   6.489
   75POPC   C4A 1389   0.871   4.766   6.373
   75POPC   C1B 1390   0.173   4.875   7.265
   75POPC   C2B 1391   0.095   4.736   6.828
   75POPC   C3B 1392   0.099   4.950   6.415
   75POPC   C4B 1393   0.269   5.339   6.177
   76POPC   NC3 1394   0.930   7.396   8.103
   76POPC   PO4 1395   0.385   7.699   8.352
   76POPC   GL1 1396   0.529   7.648   7.856
   76POPC   GL2 1397   0.438   7.345   7.679
   76POPC   C1A 1398   0.497   7.708   7.361
   76POPC   D2A 1399   0.310   7.499   7.028
   76POPC   C3A 1400   0.493   7.633   6.645
   76POPC   C4A 1401   0.450   7.511   6.248
   76POPC   C1B 1402   0.509   7.092   7.344
   76POPC   C2B 1403   0.431   6.978   6.958
   76POPC   C3B 1404   0.384   7.134   6.588
   76POPC   C4B 1405   0.688   7.055   6.290
   77POPC   NC3 1406   2.056   4.376   8.012
   77POPC   PO4 1407   1.519   3.839   8.090
   77POPC   GL1 1408   1.548   4.146   7.739
   77POPC   GL2 1409   1.884   4.147   7.577
   77POPC   C1A 1410   1.478   4.307   7.298
   77POPC   D2A 1411   1.709   4.080   6.947
   77POPC   C3A 1412   1.610   4.171   6.492
   77POPC   C4A 1413   1.697   4.521   6.193
   77POPC   C1B 1414   2.182   4.028   7.213
   77POPC   C2B 1415   2.294   4.102   6.770
   77POPC   C3B 1416   2.106   4.334   6.425
   77POPC   C4B 1417   2.190   4.712   6.168
   78POPC   NC3 1418   7.127  10.245   8.032
   78POPC   PO4 1419   7.556  10.724   8.093
   78POPC   GL1 1420   7.508  10.467   7.675
   78POPC   GL2 1421   7.538  10.135   7.594
   78POPC   C1A 1422   7.344  10.619   7.229
   78POPC   D2A 1423   7.089  10.619   6.834
   78POPC   C3A 1424   7.379  10.533   6.512
   78POPC   C4A 1425   7.613  10.820   6.269
   78POPC   C1B 1426   7.181  10.156   7.324
   78POPC   C2B 1427   7.324  10.190   6.909
   78POPC   C3B 1428   7.240  10.035   6.504
   78POPC   C4B 1429   7.118  10.194   6.150
   79POPC   NC3 1430   1.980   1.110   8.084
   79POPC   PO4 1431   2.288   1.575   7.825
   79POPC   GL1 1432   2.053   1.298   7.569
   79POPC   GL2 1433   1.714   1.294   7.685
   79POPC   C1A 1434   2.107   1.151   7.123
   79POPC   D2A 1435   2.307   0.971   6.731
   79POPC   C3A 1436   2.107   1.201   6.381
   79POPC   C4A 1437   2.241   1.487   6.066
   79POPC   C1B 1438   1.622   1.117   7.297
   79POPC   C2B 1439   1.533   1.289   6.912
   79POPC   C3B 1440   1.588   1.185   6.493
   79POPC   C4B 1441   1.658   0.983   6.124
   80POPC   NC3 1442  10.390   9.112   8.185
   80POPC   PO4 1443  10.629   9.723   8.289
   80POPC   GL1 1444  10.550   9.719   7.807
   80POPC   GL2 1445  10.180   9.790   7.703
   80POPC   C1A 1446  10.485   9.558   7.348
   80POPC   D2A 1447  10.262   9.631   6.939
   80POPC   C3A 1448  10.371   9.588   6.491
   80POPC   C4A 1449  10.593   9.876   6.214
   80POPC   C1B 1450  10.146  10.008   7.291
   80POPC   C2B 1451   9.951  10.038   6.852
   80POPC   C3B 1452  10.136  10.079   6.400
   80POPC   C4B 1453  10.175   9.901   5.934
   81POPC   NC3 1454   1.894   3.577   8.023
   81POPC   PO4 1455   2.432   3.969   8.011
   81POPC   GL1 1456   2.215   3.748   7.649
   81POPC   GL2 1457   2.168   3.400   7.633
   81POPC   C1A 1458   1.839   3.683   7.350
   81POPC   D2A 1459   1.771   3.549   6.920
   81POPC   C3A 1460   1.950   3.785   6.584
   81POPC   C4A 1461   2.276   3.860   6.286
   81POPC   C1B 1462   2.053   3.215   7.221
   81POPC   C2B 1463   1.980   3.041   6.829
   81POPC   C3B 1464   1.976   3.283   6.479
   81POPC   C4B 1465   1.769   3.544   6.175
   82POPC   NC3 1466  10.303   2.111   8.023
   82POPC   PO4 1467   9.812   1.690   8.199
   82POPC   GL1 1468   9.713   1.716   7.688
   82POPC   GL2 1469   9.319   1.619   7.585
   82POPC   C1A 1470   9.923   1.950   7.329
   82POPC   D2A 1471  10.127   1.888   6.920
   82POPC   C3A 1472   9.870   1.849   6.522
   82POPC   C4A 1473   9.914   1.692   6.138
   82POPC   C1B 1474   9.433   1.864   7.240
   82POPC   C2B 1475   9.677   2.092   6.908
   82POPC   C3B 1476   9.614   2.326   6.499
   82POPC   C4B 1477   9.390   2.354   6.092
   83POPC   NC3 1478   0.819   5.697   8.216
   83POPC   PO4 1479   0.203   5.874   8.123
   83POPC   GL1 1480   0.270   5.826   7.694
   83POPC   GL2 1481   0.609   5.976   7.744
   83POPC   C1A 1482   0.318   5.510   7.336
   83POPC   D2A 1483   0.648   5.546   7.037
   83POPC   C3A 1484   0.493   5.577   6.603
   83POPC   C4A 1485   0.750   5.665   6.268
   83POPC   C1B 1486   0.530   6.065   7.290
   83POPC   C2B 1487   0.430   6.031   6.841
   83POPC   C3B 1488   0.432   6.051   6.375
   83POPC   C4B 1489   0.094   5.821   6.225
   84POPC   NC3 1490  10.340  10.108   8.108
   84POPC   PO4 1491  10.013  10.765   8.089
   84POPC   GL1 1492  10.162  10.446   7.728
   84POPC   GL2 1493  10.479  10.210   7.637
   84POPC   C1A 1494  10.312  10.548   7.301
   84POPC   D2A 1495  10.254  10.822   6.956
   84POPC   C3A 1496  10.243  10.655   6.562
   84POPC   C4A 1497  10.213  10.782   6.129
   84POPC   C1B 1498  10.822  10.412   7.410
   84POPC   C2B 1499  10.792  10.709   7.075
   84POPC   C3B 1500  10.797  10.715   6.625
   84POPC   C4B 1501  10.606  10.444   6.281
   85POPC   NC3 1502   4.428   0.452   7.904
   85POPC   PO4 1503   4.022  11.482   8.116
   85POPC   GL1 1504   3.950   0.198   7.690
   85POPC   GL2 1505   4.015   0.547   7.633
   85POPC   C1A 1506   4.036   0.255   7.212
   85POPC   D2A 1507   3.926   0.494   6.812
   85POPC   C3A 1508   4.043   0.336   6.372
   85POPC   C4A 1509   4.127   0.374   5.937
   85POPC   C1B 1510   4.335   0.670   7.316
   85POPC   C2B 1511   4.426   0.505   6.948
   85POPC   C3B 1512   4.395   0.655   6.553
   85POPC   C4B 1513   4.570   0.534   6.198
   86POPC   NC3 1514   1.951   1.799   8.075
   86POPC   PO4 1515   1.980   2.469   7.887
   86POPC   GL1 1516   2.079   2.264   7.566
   86POPC   GL2 1517   1.962   1.898   7.565
   86POPC   C1A 1518   2.145   2.345   7.134
   86POPC   D2A 1519   2.030   2.061   6.816
   86POPC   C3A 1520   2.051   2.206   6.396
   86POPC   C4A 1521   1.850   2.478   6.123
   86POPC   C1B 1522   1.833   1.619   7.209
   86POPC   C2B 1523   1.947   1.533   6.756
   86POPC   C3B 1524   1.811   1.633   6.328
   86POPC   C4B 1525   1.926   1.884   5.976
   87POPC   NC3 1526   9.578   3.722   8.129
   87POPC   PO4 1527   9.821   3.153   8.258
   87POPC   GL1 1528   9.752   3.330   7.828
   87POPC   GL2 1529   9.461   3.153   7.851
   87POPC   C1A 1530   9.830   3.370   7.345
   87POPC   D2A 1531   9.848   3.685   6.928
   87POPC   C3A 1532   9.802   3.537   6.494
   87POPC   C4A 1533   9.814   3.126   6.486
   87POPC   C1B 1534   9.371   3.160   7.417
   87POPC   C2B 1535   9.480   3.305   6.978
   87POPC   C3B 1536   9.323   3.285   6.558
   87POPC   C4B 1537   9.354   3.441   6.161
   88POPC   NC3 1538   8.824   9.048   8.165
   88POPC   PO4 1539   9.216   8.483   8.050
   88POPC   GL1 1540   8.898   8.710   7.747
   88POPC   GL2 1541   8.871   9.072   7.669
   88POPC   C1A 1542   8.686   8.766   7.326
   88POPC   D2A 1543   8.851   8.843   6.898
   88POPC   C3A 1544   8.697   8.681   6.517
   88POPC   C4A 1545   8.448   8.835   6.172
   88POPC   C1B 1546   8.988   9.204   7.241
   88POPC   C2B 1547   8.797   9.329   6.805
   88POPC   C3B 1548   8.844   9.183   6.339
   88POPC   C4B 1549   9.164   9.110   5.962
   89POPC   NC3 1550   2.658   1.362   8.059
   89POPC   PO4 1551   2.286   0.765   8.136
   89POPC   GL1 1552   2.453   0.980   7.711
   89POPC   GL2 1553   2.763   1.198   7.610
   89POPC   C1A 1554   2.584   0.954   7.228
   89POPC   D2A 1555   2.934   0.948   6.929
   89POPC   C3A 1556   2.797   0.840   6.507
   89POPC   C4A 1557   2.468   0.887   6.202
   89POPC   C1B 1558   3.076   1.389   7.376
   89POPC   C2B 1559   3.066   1.453   6.938
   89POPC   C3B 1560   3.054   1.281   6.522
   89POPC   C4B 1561   2.690   1.388   6.266
   90POPC   NC3 1562   9.601   8.234   8.103
   90POPC   PO4 1563   9.421   7.671   8.050
   90POPC   GL1 1564   9.311   8.047   7.706
   90POPC   GL2 1565   9.537   8.328   7.632
   90POPC   C1A 1566   9.299   8.209   7.235
   90POPC   D2A 1567   9.575   8.136   6.926
   90POPC   C3A 1568   9.543   8.203   6.547
   90POPC   C4A 1569   9.450   7.978   6.196
   90POPC   C1B 1570   9.732   7.937   7.363
   90POPC   C2B 1571   9.928   7.772   6.905
   90POPC   C3B 1572   9.953   7.922   6.422
   90POPC   C4B 1573   9.849   8.362   6.195
   91POPC   NC3 1574   6.710   1.646   8.017
   91POPC   PO4 1575   7.065   2.212   7.958
   91POPC   GL1 1576   6.993   1.887   7.625
   91POPC   GL2 1577   6.603   1.811   7.564
   91POPC   C1A 1578   6.900   1.848   7.174
   91POPC   D2A 1579   6.761   2.074   6.817
   91POPC   C3A 1580   6.865   1.813   6.493
   91POPC   C4A 1581   6.738   1.661   6.158
   91POPC   C1B 1582   6.223   1.763   7.296
   91POPC   C2B 1583   6.100   1.896   6.883
   91POPC   C3B 1584   6.346   1.973   6.525
   91POPC   C4B 1585   6.250   2.307   6.228
   92POPC   NC3 1586   6.280   3.392   8.297
   92POPC   PO4 1587   6.611   2.986   8.155
   92POPC   GL1 1588   6.440   3.239   7.766
   92POPC   GL2 1589   6.495   3.585   7.846
   92POPC   C1A 1590   6.385   3.235   7.255
   92POPC   D2A 1591   6.619   3.236   6.837
   92POPC   C3A 1592   6.423   3.231   6.402
   92POPC   C4A 1593   6.519   3.181   5.939
   92POPC   C1B 1594   6.578   3.683   7.408
   92POPC   C2B 1595   6.433   3.695   6.986
   92POPC   C3B 1596   6.588   3.686   6.577
   92POPC   C4B 1597   6.483   3.705   6.144
   93POPC   NC3 1598   8.117   1.346   8.207
   93POPC   PO4 1599   7.788   0.771   7.991
   93POPC   GL1 1600   7.953   1.058   7.644
   93POPC   GL2 1601   8.279   1.235   7.666
   93POPC   C1A 1602   7.956   1.292   7.224
   93POPC   D2A 1603   7.640   1.344   6.859
   93POPC   C3A 1604   7.813   1.165   6.478
   93POPC   C4A 1605   7.976   1.098   6.016
   93POPC   C1B 1606   8.295   0.843   7.352
   93POPC   C2B 1607   8.319   0.786   6.889
   93POPC   C3B 1608   8.243   0.910   6.460
   93POPC   C4B 1609   8.323   1.354   6.278
   94POPC   NC3 1610   6.418  10.728   8.123
   94POPC   PO4 1611   6.569  10.037   8.134
   94POPC   GL1 1612   6.530  10.340   7.788
   94POPC   GL2 1613   6.847  10.371   7.635
   94POPC   C1A 1614   6.401  10.569   7.393
   94POPC   D2A 1615   6.524  10.552   6.910
   94POPC   C3A 1616   6.240  10.690   6.544
   94POPC   C4A 1617   6.242  10.608   6.057
   94POPC   C1B 1618   6.641  10.127   7.316
   94POPC   C2B 1619   6.836  10.050   6.923
   94POPC   C3B 1620   6.802  10.291   6.555
   94POPC   C4B 1621   6.478  10.190   6.311
   95POPC   NC3 1622   6.881   2.631   8.057
   95POPC   PO4 1623   7.563   2.679   8.212
   95POPC   GL1 1624   7.346   2.695   7.782
   95POPC   GL2 1625   7.400   2.415   7.613
   95POPC   C1A 1626   7.036   2.652   7.378
   95POPC   D2A 1627   7.085   2.451   6.936
   95POPC   C3A 1628   7.090   2.718   6.533
   95POPC   C4A 1629   6.915   3.086   6.277
   95POPC   C1B 1630   7.510   2.570   7.208
   95POPC   C2B 1631   7.578   2.343   6.841
   95POPC   C3B 1632   7.604   2.507   6.443
   95POPC   C4B 1633   7.451   2.850   6.170
   96POPC   NC3 1634  11.109   2.103   8.113
   96POPC   PO4 1635  11.432   1.490   8.052
   96POPC   GL1 1636  11.312   1.793   7.748
   96POPC   GL2 1637  11.364   1.549   7.511
   96POPC   C1A 1638  11.096   1.957   7.362
   96POPC   D2A 1639  11.093   1.764   6.951
   96POPC   C3A 1640  11.154   2.012   6.565
   96POPC   C4A 1641  11.167   1.846   6.142
   96POPC   C1B 1642   0.071   1.798   7.203
   96POPC   C2B 1643   0.064   1.793   6.772
   96POPC   C3B 1644   0.139   1.902   6.389
   96POPC   C4B 1645   0.269   1.517   6.281
   97POPC   NC3 1646   5.249   0.797   8.174
   97POPC   PO4 1647   5.066   1.362   8.101
   97POPC   GL1 1648   4.985   1.152   7.715
   97POPC   GL2 1649   5.226   0.911   7.600
   97POPC   C1A 1650   4.760   1.117   7.306
   97POPC   D2A 1651   4.663   0.951   6.872
   97POPC   C3A 1652   4.911   0.835   6.514
   97POPC   C4A 1653   4.757   1.043   6.150
   97POPC   C1B 1654   5.243   1.290   7.312
   97POPC   C2B 1655   5.056   1.348   6.912
   97POPC   C3B 1656   5.043   1.318   6.477
   97POPC   C4B 1657   5.286   1.388   6.118
   98POPC   NC3 1658   0.309   3.653   7.859
   98POPC   PO4 1659   0.318   3.060   8.238
   98POPC   GL1 1660   0.602   3.111   7.769
   98POPC   GL2 1661   0.856   3.382   7.713
   98POPC   C1A 1662   0.506   3.145   7.261
   98POPC   D2A 1663   0.088   3.182   6.983
   98POPC   C3A 1664   0.073   3.083   6.524
   98POPC   C4A 1665   0.389   3.190   6.157
   98POPC   C1B 1666   0.780   3.588   7.271
   98POPC   C2B 1667   0.599   3.626   6.804
   98POPC   C3B 1668   0.587   3.655   6.312
   98POPC   C4B 1669   0.614   3.660   5.826
   99POPC   NC3 1670  10.266   6.565   7.975
   99POPC   PO4 1671  10.740   7.030   7.760
   99POPC   GL1 1672  10.404   6.876   7.588
   99POPC   GL2 1673  10.596   6.558   7.585
   99POPC   C1A 1674  10.391   6.843   7.152
   99POPC   D2A 1675  10.456   6.679   6.738
   99POPC   C3A 1676  10.581   6.936   6.417
   99POPC   C4A 1677  10.337   7.063   6.115
   99POPC   C1B 1678  10.501   6.329   7.241
   99POPC   C2B 1679  10.370   6.192   6.857
   99POPC   C3B 1680  10.423   6.260   6.425
   99POPC   C4B 1681  10.240   6.154   6.028
  100POPC   NC3 1682  10.541   5.816   8.080
  100POPC   PO4 1683   9.945   6.182   7.981
  100POPC   GL1 1684  10.310   6.110   7.701
  100POPC   GL2 1685  10.199   5.773   7.683
  100POPC   C1A 1686  10.594   5.847   7.400
  100POPC   D2A 1687  10.779   5.642   7.049
  100POPC   C3A 1688  10.703   5.843   6.672
  100POPC   C4A 1689  10.714   5.893   6.237
  100POPC   C1B 1690  10.121   5.928   7.252
  100POPC   C2B 1691  10.259   5.705   6.882
  100POPC   C3B 1692  10.253   5.759   6.429
  100POPC   C4B 1693  10.319   5.650   5.972
  101POPC   NC3 1694  11.446   2.864   8.048
  101POPC   PO4 1695  10.820   3.134   8.241
  101POPC   GL1 1696  11.017   2.956   7.772
  101POPC   GL2 1697  11.296   2.832   7.579
  101POPC   C1A 1698  10.972   3.035   7.271
  101POPC   D2A 1699  11.215   2.806   6.988
  101POPC   C3A 1700  10.978   2.662   6.686
  101POPC   C4A 1701  11.116   2.697   6.323
  101POPC   C1B 1702  11.237   2.452   7.356
  101POPC   C2B 1703  11.412   2.266   6.981
  101POPC   C3B 1704   0.022   2.415   6.570
  101POPC   C4B 1705  11.376   2.295   6.164
  102POPC   NC3 1706   3.637   2.941   8.061
  102POPC   PO4 1707   3.146   2.454   8.056
  102POPC   GL1 1708   3.320   2.696   7.720
  102POPC   GL2 1709   3.663   2.550   7.666
  102POPC   C1A 1710   3.246   2.863   7.293
  102POPC   D2A 1711   3.105   2.789   6.847
  102POPC   C3A 1712   3.312   2.933   6.458
  102POPC   C4A 1713   3.284   2.869   5.989
  102POPC   C1B 1714   3.569   2.412   7.221
  102POPC   C2B 1715   3.597   2.551   6.765
  102POPC   C3B 1716   3.695   2.592   6.316
  102POPC   C4B 1717   3.602   2.465   5.895
  103POPC   NC3 1718   9.539   7.236   8.121
  103POPC   PO4 1719  10.162   7.001   8.101
  103POPC   GL1 1720   9.931   7.107   7.723
  103POPC   GL2 1721   9.848   7.474   7.758
  103POPC   C1A 1722   9.896   7.008   7.260
  103POPC   D2A 1723   9.745   7.262   6.879
  103POPC   C3A 1724   9.605   7.073   6.449
  103POPC   C4A 1725   9.791   6.939   6.041
  103POPC   C1B 1726   9.609   7.437   7.375
  103POPC   C2B 1727   9.441   7.655   7.016
  103POPC   C3B 1728   9.533   7.634   6.570
  103POPC   C4B 1729   9.290   7.426   6.259
  104POPC   NC3 1730   5.462  10.377   8.451
  104POPC   PO4 1731   5.920   9.767   8.221
  104POPC   GL1 1732   5.690   9.928   7.876
  104POPC   GL2 1733   5.946   9.740   7.697
  104POPC   C1A 1734   5.607   9.974   7.421
  104POPC   D2A 1735   5.886   9.911   7.033
  104POPC   C3A 1736   5.713   9.910   6.585
  104POPC   C4A 1737   5.541   9.795   6.143
  104POPC   C1B 1738   5.774   9.504   7.314
  104POPC   C2B 1739   5.856   9.450   6.855
  104POPC   C3B 1740   5.799   9.433   6.402
  104POPC   C4B 1741   6.082   9.304   6.080
  105POPC   NC3 1742   1.975  11.385   8.170
  105POPC   PO4 1743   1.730  10.808   8.090
  105POPC   GL1 1744   1.759  11.112   7.737
  105POPC   GL2 1745   2.073  11.302   7.683
  105POPC   C1A 1746   1.868  11.081   7.294
  105POPC   D2A 1747   1.695  11.101   6.913
  105POPC   C3A 1748   1.958  11.082   6.551
  105POPC   C4A 1749   1.945  10.903   6.149
  105POPC   C1B 1750   2.274  11.449   7.307
  105POPC   C2B 1751   2.116  11.396   6.904
  105POPC   C3B 1752   2.340  11.441   6.500
  105POPC   C4B 1753   2.107  11.387   6.140
  106POPC   NC3 1754   4.103  10.075   7.941
  106POPC   PO4 1755   4.678   9.551   7.997
  106POPC   GL1 1756   4.455   9.773   7.726
  106POPC   GL2 1757   4.159   9.587   7.697
  106POPC   C1A 1758   4.439   9.837   7.297
  106POPC   D2A 1759   4.300   9.621   6.909
  106POPC   C3A 1760   4.371   9.882   6.540
  106POPC   C4A 1761   4.609   9.897   6.177
  106POPC   C1B 1762   3.936   9.617   7.303
  106POPC   C2B 1763   3.812   9.451   6.887
  106POPC   C3B 1764   3.928   9.612   6.462
  106POPC   C4B 1765   4.216   9.597   6.102
  107POPC   NC3 1766   2.637   9.520   8.061
  107POPC   PO4 1767   2.276  10.002   7.863
  107POPC   GL1 1768   2.642   9.792   7.627
  107POPC   GL2 1769   3.006   9.693   7.724
  107POPC   C1A 1770   2.796   9.938   7.260
  107POPC   D2A 1771   2.745   9.972   6.835
  107POPC   C3A 1772   2.421   9.825   6.657
  107POPC   C4A 1773   2.579   9.643   6.330
  107POPC   C1B 1774   2.951   9.452   7.329
  107POPC   C2B 1775   2.822   9.478   6.905
  107POPC   C3B 1776   3.031   9.567   6.524
  107POPC   C4B 1777   2.928   9.343   6.113
  108POPC   NC3 1778   6.855   8.747   8.029
  108POPC   PO4 1779   7.537   8.530   8.058
  108POPC   GL1 1780   7.515   8.857   7.742
  108POPC   GL2 1781   7.200   9.016   7.721
  108POPC   C1A 1782   7.502   8.848   7.281
  108POPC   D2A 1783   7.404   8.705   6.851
  108POPC   C3A 1784   7.633   8.751   6.486
  108POPC   C4A 1785   7.408   8.691   6.131
  108POPC   C1B 1786   7.132   9.232   7.328
  108POPC   C2B 1787   7.297   9.195   6.907
  108POPC   C3B 1788   7.162   8.997   6.498
  108POPC   C4B 1789   7.254   9.175   6.080
  109POPC   NC3 1790  10.519   2.884   7.913
  109POPC   PO4 1791  10.738   2.208   7.873
  109POPC   GL1 1792  10.493   2.464   7.602
  109POPC   GL2 1793  10.127   2.405   7.483
  109POPC   C1A 1794  10.739   2.558   7.243
  109POPC   D2A 1795  10.895   2.244   6.958
  109POPC   C3A 1796  10.698   2.246   6.537
  109POPC   C4A 1797  10.471   2.564   6.357
  109POPC   C1B 1798  10.264   2.783   7.246
  109POPC   C2B 1799  10.584   2.916   6.918
  109POPC   C3B 1800  10.618   3.016   6.494
  109POPC   C4B 1801  10.265   3.126   6.224
  110POPC   NC3 1802   9.638   8.791   8.066
  110POPC   PO4 1803   9.281   9.295   7.883
  110POPC   GL1 1804   9.362   8.889   7.645
  110POPC   GL2 1805   9.695   8.804   7.553
  110POPC   C1A 1806   9.280   8.761   7.209
  110POPC   D2A 1807   9.321   9.036   6.829
  110POPC   C3A 1808   9.207   8.853   6.441
  110POPC   C4A 1809   9.416   8.668   6.098
  110POPC   C1B 1810   9.744   8.513   7.220
  110POPC   C2B 1811   9.910   8.490   6.806
  110POPC   C3B 1812   9.696   8.712   6.530
  110POPC   C4B 1813   9.905   8.860   6.175
  111POPC   NC3 1814   3.129  10.406   8.094
  111POPC   PO4 1815   2.551  10.738   8.053
  111POPC   GL1 1816   2.847  10.636   7.742
  111POPC   GL2 1817   2.766  10.277   7.741
  111POPC   C1A 1818   3.017  10.739   7.355
  111POPC   D2A 1819   2.753  10.792   6.980
  111POPC   C3A 1820   2.955  10.728   6.590
  111POPC   C4A 1821   2.779  10.614   6.216
  111POPC   C1B 1822   2.590  10.429   7.349
  111POPC   C2B 1823   2.373  10.410   6.974
  111POPC   C3B 1824   2.539  10.376   6.603
  111POPC   C4B 1825   2.560  10.133   6.247
  112POPC   NC3 1826   7.832  11.134   7.996
  112POPC   PO4 1827   8.449  10.906   7.967
  112POPC   GL1 1828   8.223  11.163   7.636
  112POPC   GL2 1829   7.915  11.407   7.591
  112POPC   C1A 1830   8.220  11.017   7.213
  112POPC   D2A 1831   8.430  10.783   6.916
  112POPC   C3A 1832   8.456  10.981   6.540
  112POPC   C4A 1833   8.499  11.156   6.159
  112POPC   C1B 1834   8.061   0.007   7.235
  112POPC   C2B 1835   8.006  11.321   6.861
  112POPC   C3B 1836   8.147  11.385   6.467
  112POPC   C4B 1837   7.995  11.133   6.138
  113POPC   NC3 1838   2.412   2.330   8.011
  113POPC   PO4 1839   2.506   1.727   8.301
  113POPC   GL1 1840   2.638   1.904   7.830
  113POPC   GL2 1841   2.865   2.111   7.805
  113POPC   C1A 1842   2.438   1.977   7.368
  113POPC   D2A 1843   2.543   1.982   6.923
  113POPC   C3A 1844   2.362   1.784   6.521
  113POPC   C4A 1845   2.413   1.954   6.106
  113POPC   C1B 1846   2.932   1.960   7.372
  113POPC   C2B 1847   3.081   2.051   6.947
  113POPC   C3B 1848   3.096   2.222   6.542
  113POPC   C4B 1849   2.909   1.965   6.213
  114POPC   NC3 1850   4.363   9.212   8.016
  114POPC   PO4 1851   3.744   9.202   8.067
  114POPC   GL1 1852   3.854   9.164   7.627
  114POPC   GL2 1853   4.085   8.907   7.677
  114POPC   C1A 1854   4.105   9.151   7.215
  114POPC   D2A 1855   4.069   8.979   6.785
  114POPC   C3A 1856   4.196   9.166   6.377
  114POPC   C4A 1857   4.269   9.125   5.909
  114POPC   C1B 1858   4.388   8.739   7.372
  114POPC   C2B 1859   4.564   8.782   6.957
  114POPC   C3B 1860   4.573   8.847   6.500
  114POPC   C4B 1861   4.298   8.685   6.159
  115POPC   NC3 1862  11.002   1.394   7.873
  115POPC   PO4 1863  10.542   1.724   8.213
  115POPC   GL1 1864  10.626   1.724   7.740
  115POPC   GL2 1865  10.366   1.897   7.586
  115POPC   C1A 1866  10.682   1.633   7.267
  115POPC   D2A 1867  10.607   1.828   6.827
  115POPC   C3A 1868  10.743   1.716   6.423
  115POPC   C4A 1869  10.681   1.865   5.980
  115POPC   C1B 1870  10.479   2.108   7.239
  115POPC   C2B 1871  10.366   2.381   6.922
  115POPC   C3B 1872  10.128   2.276   6.576
  115POPC   C4B 1873  10.310   1.982   6.296
  116POPC   NC3 1874  10.923   6.740   8.054
  116POPC   PO4 1875  11.454   6.370   8.178
  116POPC   GL1 1876  11.487   6.340   7.754
  116POPC   GL2 1877  11.335   6.677   7.741
  116POPC   C1A 1878   0.017   6.208   7.317
  116POPC   D2A 1879  11.268   6.326   6.924
  116POPC   C3A 1880  11.498   6.207   6.589
  116POPC   C4A 1881   0.054   6.390   6.212
  116POPC   C1B 1882  11.097   6.529   7.403
  116POPC   C2B 1883  10.874   6.654   7.043
  116POPC   C3B 1884  11.005   6.722   6.616
  116POPC   C4B 1885  11.191   6.761   6.216
  117POPC   NC3 1886   2.154  10.439   7.966
  117POPC   PO4 1887   1.557   9.958   8.048
  117POPC   GL1 1888   1.537  10.208   7.660
  117POPC   GL2 1889   1.702  10.531   7.666
  117POPC   C1A 1890   1.698  10.182   7.228
  117POPC   D2A 1891   2.018  10.031   6.913
  117POPC   C3A 1892   2.039  10.113   6.459
  117POPC   C4A 1893   1.802  10.378   6.164
  117POPC   C1B 1894   1.999  10.585   7.326
  117POPC   C2B 1895   1.835  10.580   6.914
  117POPC   C3B 1896   2.035  10.590   6.568
  117POPC   C4B 1897   2.272  10.533   6.201
  118POPC   NC3 1898   2.773   0.514   8.108
  118POPC   PO4 1899   2.240   0.185   7.969
  118POPC   GL1 1900   2.428   0.457   7.718
  118POPC   GL2 1901   2.743   0.310   7.638
  118POPC   C1A 1902   2.388   0.498   7.294
  118POPC   D2A 1903   2.372   0.311   6.912
  118POPC   C3A 1904   2.436   0.477   6.534
  118POPC   C4A 1905   2.320   0.363   6.144
  118POPC   C1B 1906   2.781   0.181   7.206
  118POPC   C2B 1907   2.865   0.294   6.774
  118POPC   C3B 1908   2.830   0.174   6.358
  118POPC   C4B 1909   3.096   0.144   5.993
  119POPC   NC3 1910   2.904  11.030   8.071
  119POPC   PO4 1911   3.051   0.122   8.089
  119POPC   GL1 1912   2.972  11.358   7.698
  119POPC   GL2 1913   2.593  11.275   7.722
  119POPC   C1A 1914   2.832  11.197   7.288
  119POPC   D2A 1915   2.607  11.291   6.920
  119POPC   C3A 1916   2.806  11.214   6.552
  119POPC   C4A 1917   2.924  11.132   6.147
  119POPC   C1B 1918   2.394  10.949   7.414
  119POPC   C2B 1919   2.244  10.906   6.978
  119POPC   C3B 1920   2.437  10.883   6.578
  119POPC   C4B 1921   2.448  11.012   6.167
  120POPC   NC3 1922   1.520  10.407   8.153
  120POPC   PO4 1923   0.932  10.732   8.147
  120POPC   GL1 1924   1.199  10.634   7.806
  120POPC   GL2 1925   1.003  10.351   7.737
  120POPC   C1A 1926   1.114  10.711   7.362
  120POPC   D2A 1927   0.874  10.544   6.989
  120POPC   C3A 1928   1.098  10.594   6.572
  120POPC   C4A 1929   1.533  10.703   6.427
  120POPC   C1B 1930   1.126  10.195   7.330
  120POPC   C2B 1931   1.286  10.243   6.934
  120POPC   C3B 1932   1.557  10.207   6.618
  120POPC   C4B 1933   1.329  10.165   6.248
  121POPC   NC3 1934   9.815   1.210   8.182
  121POPC   PO4 1935   9.142   1.350   8.005
  121POPC   GL1 1936   9.456   1.130   7.740
  121POPC   GL2 1937   9.802   1.211   7.660
  121POPC   C1A 1938   9.568   0.873   7.358
  121POPC   D2A 1939   9.556   1.016   6.911
  121POPC   C3A 1940   9.280   1.099   6.554
  121POPC   C4A 1941   9.541   0.942   6.221
  121POPC   C1B 1942   9.674   1.390   7.282
  121POPC   C2B 1943   9.810   1.488   6.892
  121POPC   C3B 1944   9.716   1.363   6.488
  121POPC   C4B 1945   9.994   1.186   6.184
  122POPC   NC3 1946   9.899   0.368   8.172
  122POPC   PO4 1947   9.478   0.881   8.198
  122POPC   GL1 1948   9.767   0.744   7.864
  122POPC   GL2 1949   9.609   0.438   7.756
  122POPC   C1A 1950  10.009   0.602   7.488
  122POPC   D2A 1951  10.024   0.349   7.094
  122POPC   C3A 1952   9.810   0.551   6.730
  122POPC   C4A 1953  10.001   0.699   6.342
  122POPC   C1B 1954   9.447   0.367   7.350
  122POPC   C2B 1955   9.325   0.521   6.963
  122POPC   C3B 1956   9.314   0.327   6.566
  122POPC   C4B 1957   9.600   0.429   6.241
  123POPC   NC3 1958   5.105  11.436   8.429
  123POPC   PO4 1959   5.602   0.061   7.948
  123POPC   GL1 1960   5.377  11.287   7.621
  123POPC   GL2 1961   5.043  11.136   7.774
  123POPC   C1A 1962   5.317  11.353   7.152
  123POPC   D2A 1963   5.222   0.022   6.740
  123POPC   C3A 1964   5.151  11.232   6.412
  123POPC   C4A 1965   5.434  11.034   6.130
  123POPC   C1B 1966   4.862  11.295   7.396
  123POPC   C2B 1967   4.838  11.179   6.960
  123POPC   C3B 1968   4.704  11.378   6.615
  123POPC   C4B 1969   4.674  11.355   6.185
  124POPC   NC3 1970   0.390   9.100   8.290
  124POPC   PO4 1971   0.558   8.555   8.039
  124POPC   GL1 1972   0.510   8.828   7.689
  124POPC   GL2 1973   0.158   8.960   7.699
  124POPC   C1A 1974   0.547   8.904   7.238
  124POPC   D2A 1975   0.353   9.048   6.873
  124POPC   C3A 1976   0.650   8.898   6.576
  124POPC   C4A 1977   0.654   8.541   6.319
  124POPC   C1B 1978   0.150   8.629   7.367
  124POPC   C2B 1979   0.216   8.527   6.923
  124POPC   C3B 1980   0.198   8.637   6.488
  124POPC   C4B 1981   0.355   9.003   6.179
  125POPC   NC3 1982   4.202   0.357   8.347
  125POPC   PO4 1983   3.596   0.549   8.269
  125POPC   GL1 1984   3.524   0.529   7.795
  125POPC   GL2 1985   3.285   0.278   7.658
  125POPC   C1A 1986   3.604   0.498   7.316
  125POPC   D2A 1987   3.574   0.160   6.990
  125POPC   C3A 1988   3.568   0.246   6.539
  125POPC   C4A 1989   3.605   0.245   6.073
  125POPC   C1B 1990   3.103   0.547   7.307
  125POPC   C2B 1991   3.286   0.584   6.857
  125POPC   C3B 1992   3.191   0.543   6.376
  125POPC   C4B 1993   3.298   0.651   5.939
  126POPC   NC3 1994   0.918   8.861   8.048
  126POPC   PO4 1995   1.486   8.605   8.396
  126POPC   GL1 1996   1.449   8.749   7.862
  126POPC   GL2 1997   1.233   9.023   7.701
  126POPC   C1A 1998   1.548   8.803   7.362
  126POPC   D2A 1999   1.710   8.800   6.923
  126POPC   C3A 2000   1.731   9.107   6.594
  126POPC   C4A 2001   1.530   9.070   6.188
  126POPC   C1B 2002   1.030   8.780   7.373
  126POPC   C2B 2003   0.978   8.974   6.976
  126POPC   C3B 2004   1.196   8.928   6.626
  126POPC   C4B 2005   1.091   8.817   6.252
  127POPC   NC3 2006   9.653  10.523   7.915
  127POPC   PO4 2007   9.166  10.242   8.182
  127POPC   GL1 2008   9.355  10.161   7.686
  127POPC   GL2 2009   9.738  10.204   7.537
  127POPC   C1A 2010   9.408  10.177   7.179
  127POPC   D2A 2011   9.424   9.971   6.783
  127POPC   C3A 2012   9.443  10.245   6.423
  127POPC   C4A 2013   9.393  10.193   5.973
  127POPC   C1B 2014   9.804  10.522   7.210
  127POPC   C2B 2015   9.757  10.523   6.757
  127POPC   C3B 2016   9.804  10.566   6.314
  127POPC   C4B 2017   9.893  10.310   6.002
  128POPC   NC3 2018   3.388   8.968   7.901
  128POPC   PO4 2019   2.938   8.461   7.864
  128POPC   GL1 2020   3.243   8.650   7.520
  128POPC   GL2 2021   3.625   8.685   7.548
  128POPC   C1A 2022   3.130   8.778   7.089
  128POPC   D2A 2023   3.190   8.489   6.725
  128POPC   C3A 2024   3.120   8.698   6.372
  128POPC   C4A 2025   3.069   9.070   6.528
  128POPC   C1B 2026   3.615   8.968   7.190
  128POPC   C2B 2027   3.529   8.898   6.753
  128POPC   C3B 2028   3.748   8.862   6.379
  128POPC   C4B 2029   3.830   8.801   5.963
  129POPC   NC3 2030  10.539   0.690   8.346
  129POPC   PO4 2031  10.288   0.220   7.975
  129POPC   GL1 2032  10.486   0.324   7.623
  129POPC   GL2 2033  10.566   0.655   7.664
  129POPC   C1A 2034  10.510   0.123   7.203
  129POPC   D2A 2035  10.475   0.116   6.751
  129POPC   C3A 2036  10.121   0.191   6.503
  129POPC   C4A 2037  10.182   0.295   6.059
  129POPC   C1B 2038  10.438   0.629   7.215
  129POPC   C2B 2039  10.323   0.623   6.792
  129POPC   C3B 2040  10.478   0.538   6.424
  129POPC   C4B 2041  10.772   0.627   6.176
  130POPC   NC3 2042   2.483   7.231   8.106
  130POPC   PO4 2043   2.861   7.620   7.957
  130POPC   GL1 2044   2.564   7.431   7.628
  130POPC   GL2 2045   2.375   7.076   7.602
  130POPC   C1A 2046   2.599   7.479   7.162
  130POPC   D2A 2047   2.640   7.751   6.775
  130POPC   C3A 2048   2.618   7.543   6.371
  130POPC   C4A 2049   2.329   7.240   6.223
  130POPC   C1B 2050   2.303   7.070   7.112
  130POPC   C2B 2051   2.527   7.152   6.713
  130POPC   C3B 2052   2.671   6.892   6.343
  130POPC   C4B 2053   2.573   6.938   5.867
  131POPC   NC3 2054   1.125   1.860   8.075
  131POPC   PO4 2055   1.682   2.239   8.262
  131POPC   GL1 2056   1.574   2.133   7.830
  131POPC   GL2 2057   1.239   2.279   7.752
  131POPC   C1A 2058   1.596   2.219   7.360
  131POPC   D2A 2059   1.376   2.176   6.961
  131POPC   C3A 2060   1.564   1.993   6.595
  131POPC   C4A 2061   1.500   2.097   6.162
  131POPC   C1B 2062   1.053   2.059   7.370
  131POPC   C2B 2063   0.933   1.922   6.936
  131POPC   C3B 2064   1.043   2.049   6.499
  131POPC   C4B 2065   1.059   1.868   6.056
  132POPC   NC3 2066   5.142   9.621   8.019
  132POPC   PO4 2067   5.099  10.227   8.182
  132POPC   GL1 2068   4.973  10.030   7.719
  132POPC   GL2 2069   4.926   9.676   7.558
  132POPC   C1A 2070   5.133   9.998   7.245
  132POPC   D2A 2071   5.383   9.766   6.967
  132POPC   C3A 2072   5.055   9.631   6.690
  132POPC   C4A 2073   5.090   9.601   6.278
  132POPC   C1B 2074   5.035   9.425   7.169
  132POPC   C2B 2075   4.921   9.127   6.808
  132POPC   C3B 2076   5.041   9.079   6.363
  132POPC   C4B 2077   5.150   9.232   5.911
  133POPC   NC3 2078   5.781   1.635   8.050
  133POPC   PO4 2079   5.940   0.981   8.162
  133POPC   GL1 2080   5.959   1.219   7.790
  133POPC   GL2 2081   5.616   1.250   7.692
  133POPC   C1A 2082   6.073   1.277   7.357
  133POPC   D2A 2083   6.084   1.389   6.912
  133POPC   C3A 2084   5.913   1.225   6.541
  133POPC   C4A 2085   6.108   0.967   6.257
  133POPC   C1B 2086   5.661   0.979   7.314
  133POPC   C2B 2087   5.550   1.091   6.903
  133POPC   C3B 2088   5.449   1.009   6.489
  133POPC   C4B 2089   5.626   1.004   6.075
  134POPC   NC3 2090   9.446   9.608   8.179
  134POPC   PO4 2091   9.873  10.091   8.007
  134POPC   GL1 2092   9.657   9.743   7.728
  134POPC   GL2 2093   9.741   9.383   7.697
  134POPC   C1A 2094   9.712   9.726   7.279
  134POPC   D2A 2095   9.781   9.490   6.928
  134POPC   C3A 2096   9.750   9.655   6.539
  134POPC   C4A 2097   9.731   9.866   6.177
  134POPC   C1B 2098   9.561   9.207   7.294
  134POPC   C2B 2099   9.805   8.972   6.983
  134POPC   C3B 2100   9.923   9.161   6.581
  134POPC   C4B 2101   9.556   9.223   6.302
  135POPC   NC3 2102   8.746   1.523   7.838
  135POPC   PO4 2103   8.489   1.018   8.140
  135POPC   GL1 2104   8.661   0.903   7.719
  135POPC   GL2 2105   8.942   1.069   7.668
  135POPC   C1A 2106   8.670   1.155   7.277
  135POPC   D2A 2107   8.889   1.172   6.914
  135POPC   C3A 2108   8.688   1.145   6.568
  135POPC   C4A 2109   8.675   0.935   6.203
  135POPC   C1B 2110   9.195   1.223   7.304
  135POPC   C2B 2111   9.297   1.475   6.921
  135POPC   C3B 2112   8.966   1.585   6.635
  135POPC   C4B 2113   8.979   1.444   6.254
  136POPC   NC3 2114   9.013   0.905   8.149
  136POPC   PO4 2115   8.696   0.351   7.973
  136POPC   GL1 2116   9.055   0.545   7.790
  136POPC   GL2 2117   9.148   0.226   7.752
  136POPC   C1A 2118   9.082   0.717   7.376
  136POPC   D2A 2119   8.793   0.691   7.065
  136POPC   C3A 2120   8.957   0.717   6.652
  136POPC   C4A 2121   9.120   0.686   6.250
  136POPC   C1B 2122   8.931   0.241   7.360
  136POPC   C2B 2123   8.904   0.202   6.940
  136POPC   C3B 2124   8.599   0.376   6.687
  136POPC   C4B 2125   8.697   0.398   6.244
  137POPC   NC3 2126   3.605   1.049   8.123
  137POPC   PO4 2127   2.896   0.956   8.036
  137POPC   GL1 2128   3.237   0.961   7.694
  137POPC   GL2 2129   3.505   1.233   7.646
  137POPC   C1A 2130   3.363   0.973   7.243
  137POPC   D2A 2131   3.578   1.114   6.907
  137POPC   C3A 2132   3.459   0.949   6.530
  137POPC   C4A 2133   3.452   1.149   6.166
  137POPC   C1B 2134   3.761   1.420   7.304
  137POPC   C2B 2135   3.988   1.429   6.871
  137POPC   C3B 2136   3.746   1.403   6.493
  137POPC   C4B 2137   3.676   1.663   6.143
  138POPC   NC3 2138   3.739  10.523   8.287
  138POPC   PO4 2139   4.279  10.698   7.857
  138POPC   GL1 2140   3.850  10.541   7.712
  138POPC   GL2 2141   3.494  10.459   7.760
  138POPC   C1A 2142   3.631  10.474   7.286
  138POPC   D2A 2143   3.502  10.253   6.905
  138POPC   C3A 2144   3.576  10.473   6.511
  138POPC   C4A 2145   3.868  10.749   6.256
  138POPC   C1B 2146   3.173  10.268   7.433
  138POPC   C2B 2147   3.014  10.351   6.994
  138POPC   C3B 2148   3.063  10.232   6.523
  138POPC   C4B 2149   3.256  10.409   6.128
  139POPC   NC3 2150  11.209  10.229   8.533
  139POPC   PO4 2151  10.821  10.179   8.030
  139POPC   GL1 2152  11.192  10.103   7.727
  139POPC   GL2 2153  11.343  10.421   7.694
  139POPC   C1A 2154  11.278  10.144   7.258
  139POPC   D2A 2155  10.949  10.241   6.932
  139POPC   C3A 2156  10.939  10.092   6.501
  139POPC   C4A 2157  10.972  10.208   6.024
  139POPC   C1B 2158  11.270  10.668   7.300
  139POPC   C2B 2159  11.333  10.579   6.864
  139POPC   C3B 2160  11.255  10.476   6.444
  139POPC   C4B 2161  11.397  10.101   6.268
  140POPC   NC3 2162   3.370   2.061   8.115
  140POPC   PO4 2163   3.457   1.503   8.081
  140POPC   GL1 2164   3.295   1.761   7.696
  140POPC   GL2 2165   3.328   2.161   7.620
  140POPC   C1A 2166   3.386   1.777   7.249
  140POPC   D2A 2167   3.516   1.633   6.874
  140POPC   C3A 2168   3.292   1.725   6.497
  140POPC   C4A 2169   3.157   1.542   6.080
  140POPC   C1B 2170   3.729   2.011   7.527
  140POPC   C2B 2171   3.887   1.871   7.113
  140POPC   C3B 2172   3.803   1.943   6.611
  140POPC   C4B 2173   3.512   2.119   6.261
  141POPC   NC3 2174   2.868   3.802   8.016
  141POPC   PO4 2175   3.234   3.224   8.086
  141POPC   GL1 2176   3.005   3.157   7.723
  141POPC   GL2 2177   2.682   3.356   7.704
  141POPC   C1A 2178   3.059   3.361   7.327
  141POPC   D2A 2179   3.267   3.277   6.931
  141POPC   C3A 2180   3.015   3.363   6.561
  141POPC   C4A 2181   2.969   3.235   6.151
  141POPC   C1B 2182   2.505   3.483   7.276
  141POPC   C2B 2183   2.317   3.440   6.838
  141POPC   C3B 2184   2.504   3.419   6.415
  141POPC   C4B 2185   2.786   3.782   6.277
  142POPC   NC3 2186   8.778  10.039   8.041
  142POPC   PO4 2187   9.052   9.427   8.341
  142POPC   GL1 2188   9.088   9.728   7.852
  142POPC   GL2 2189   8.824   9.592   7.657
  142POPC   C1A 2190   9.217   9.761   7.397
  142POPC   D2A 2191   9.285   9.531   7.013
  142POPC   C3A 2192   9.233   9.491   6.587
  142POPC   C4A 2193   9.263   9.789   6.309
  142POPC   C1B 2194   8.763   9.692   7.188
  142POPC   C2B 2195   8.905   9.828   6.794
  142POPC   C3B 2196   8.781   9.707   6.380
  142POPC   C4B 2197   8.464   9.919   6.133
  143POPC   NC3 2198   7.202  10.958   8.298
  143POPC   PO4 2199   7.467  11.383   7.835
  143POPC   GL1 2200   7.491  11.036   7.616
  143POPC   GL2 2201   7.190  10.839   7.643
  143POPC   C1A 2202   7.647  11.205   7.216
  143POPC   D2A 2203   7.549   0.020   6.915
  143POPC   C3A 2204   7.626  11.330   6.517
  143POPC   C4A 2205   7.456  11.304   6.136
  143POPC   C1B 2206   7.156  11.123   7.246
  143POPC   C2B 2207   7.291  11.093   6.855
  143POPC   C3B 2208   7.189  11.008   6.483
  143POPC   C4B 2209   6.963  11.168   6.144
  144POPC   NC3 2210   8.642   2.411   8.031
  144POPC   PO4 2211   9.110   2.881   8.154
  144POPC   GL1 2212   9.096   2.811   7.730
  144POPC   GL2 2213   8.760   2.810   7.717
  144POPC   C1A 2214   9.138   2.719   7.294
  144POPC   D2A 2215   8.880   2.612   6.885
  144POPC   C3A 2216   9.029   2.665   6.462
  144POPC   C4A 2217   9.037   3.023   6.172
  144POPC   C1B 2218   8.641   2.596   7.342
  144POPC   C2B 2219   8.406   2.460   6.963
  144POPC   C3B 2220   8.538   2.462   6.535
  144POPC   C4B 2221   8.584   2.762   6.206
  145POPC   NC3 2222  11.325   1.041   8.352
  145POPC   PO4 2223  10.739   1.005   8.014
  145POPC   GL1 2224  11.034   0.902   7.701
  145POPC   GL2 2225  11.389   1.052   7.729
  145POPC   C1A 2226  10.850   0.915   7.289
  145POPC   D2A 2227  10.673   0.992   6.890
  145POPC   C3A 2228  10.979   0.842   6.595
  145POPC   C4A 2229  11.094   1.017   6.223
  145POPC   C1B 2230  11.316   1.095   7.281
  145POPC   C2B 2231  11.196   1.244   6.858
  145POPC   C3B 2232  11.275   1.455   6.448
  145POPC   C4B 2233  11.395   1.395   5.981
  146POPC   NC3 2234   5.115   0.105   7.939
  146POPC   PO4 2235   4.791   0.710   8.042
  146POPC   GL1 2236   4.752   0.711   7.617
  146POPC   GL2 2237   4.939   0.433   7.630
  146POPC   C1A 2238   4.861   0.621   7.192
  146POPC   D2A 2239   4.850   0.215   7.036
  146POPC   C3A 2240   4.824   0.355   6.636
  146POPC   C4A 2241   4.977   0.235   6.262
  146POPC   C1B 2242   5.265   0.350   7.339
  146POPC   C2B 2243   5.362   0.626   7.015
  146POPC   C3B 2244   5.356   0.504   6.602
  146POPC   C4B 2245   5.287   0.625   6.203
  147POPC   NC3 2246   5.214   7.674   8.529
  147POPC   PO4 2247   5.304   7.814   8.088
  147POPC   GL1 2248   5.188   7.871   7.625
  147POPC   GL2 2249   4.963   8.158   7.535
  147POPC   C1A 2250   5.232   7.932   7.161
  147POPC   D2A 2251   4.997   8.034   6.789
  147POPC   C3A 2252   5.206   8.125   6.394
  147POPC   C4A 2253   5.036   8.091   5.971
  147POPC   C1B 2254   4.989   8.422   7.144
  147POPC   C2B 2255   4.956   8.555   6.706
  147POPC   C3B 2256   4.925   8.533   6.273
  147POPC   C4B 2257   5.143   8.621   5.877
  148POPC   NC3 2258   0.773  11.158   8.205
  148POPC   PO4 2259   0.160  11.367   8.123
  148POPC   GL1 2260   0.210  11.456   7.688
  148POPC   GL2 2261   0.530  11.311   7.725
  148POPC   C1A 2262   0.221  11.233   7.265
  148POPC   D2A 2263   0.144  11.001   6.862
  148POPC   C3A 2264   0.210  11.217   6.485
  148POPC   C4A 2265   0.213  11.438   6.084
  148POPC   C1B 2266   0.593  10.919   7.436
  148POPC   C2B 2267   0.635  10.992   6.980
  148POPC   C3B 2268   0.619  10.842   6.546
  148POPC   C4B 2269   0.587  11.109   6.180
  149POPC   NC3 2270   0.852   5.531   7.724
  149POPC   PO4 2271   0.990   4.938   8.001
  149POPC   GL1 2272   1.093   5.101   7.631
  149POPC   GL2 2273   1.402   5.119   7.687
  149POPC   C1A 2274   1.153   5.193   7.202
  149POPC   D2A 2275   0.974   5.010   6.867
  149POPC   C3A 2276   0.962   5.353   6.642
  149POPC   C4A 2277   1.018   5.248   6.241
  149POPC   C1B 2278   1.548   4.884   7.372
  149POPC   C2B 2279   1.462   4.830   6.965
  149POPC   C3B 2280   1.403   5.065   6.589
  149POPC   C4B 2281   1.341   4.881   6.192
  150POPC   NC3 2282   1.092   4.170   8.090
  150POPC   PO4 2283   1.657   4.600   7.983
  150POPC   GL1 2284   1.278   4.609   7.719
  150POPC   GL2 2285   1.056   4.332   7.626
  150POPC   C1A 2286   1.076   4.705   7.306
  150POPC   D2A 2287   1.048   4.469   6.950
  150POPC   C3A 2288   1.275   4.545   6.588
  150POPC   C4A 2289   1.187   4.404   6.188
  150POPC   C1B 2290   0.905   4.098   7.290
  150POPC   C2B 2291   0.976   3.973   6.870
  150POPC   C3B 2292   0.820   4.179   6.498
  150POPC   C4B 2293   0.868   4.026   6.088
  151POPC   NC3 2294   0.415   0.989   7.906
  151POPC   PO4 2295   0.809   1.505   8.098
  151POPC   GL1 2296   0.707   1.385   7.714
  151POPC   GL2 2297   0.346   1.449   7.662
  151POPC   C1A 2298   0.785   1.323   7.302
  151POPC   D2A 2299   0.687   1.051   6.927
  151POPC   C3A 2300   0.626   1.248   6.544
  151POPC   C4A 2301   0.805   1.424   6.145
  151POPC   C1B 2302   0.309   1.179   7.275
  151POPC   C2B 2303   0.160   0.994   6.877
  151POPC   C3B 2304   0.086   1.008   6.437
  151POPC   C4B 2305   0.405   1.062   6.125
  152POPC   NC3 2306   0.398   1.802   8.071
  152POPC   PO4 2307  11.475   2.390   8.105
  152POPC   GL1 2308   0.074   2.245   7.668
  152POPC   GL2 2309   0.283   1.974   7.630
  152POPC   C1A 2310   0.344   2.287   7.264
  152POPC   D2A 2311   0.444   2.085   6.911
  152POPC   C3A 2312   0.511   2.236   6.530
  152POPC   C4A 2313   0.372   2.326   6.144
  152POPC   C1B 2314   0.578   1.797   7.339
  152POPC   C2B 2315   0.522   1.577   6.938
  152POPC   C3B 2316   0.642   1.747   6.531
  152POPC   C4B 2317   0.566   1.877   6.085
  153POPC   NC3 2318   9.483   6.289   8.061
  153POPC   PO4 2319   9.265   6.882   8.200
  153POPC   GL1 2320   9.479   6.753   7.774
  153POPC   GL2 2321   9.802   6.606   7.739
  153POPC   C1A 2322   9.529   6.600   7.294
  153POPC   D2A 2323   9.594   6.761   6.844
  153POPC   C3A 2324   9.515   6.563   6.410
  153POPC   C4A 2325   9.209   6.247   6.310
  153POPC   C1B 2326  10.016   6.438   7.389
  153POPC   C2B 2327  10.012   6.529   7.008
  153POPC   C3B 2328   9.954   6.409   6.622
  153POPC   C4B 2329  10.102   6.641   6.307
  154POPC   NC3 2330   2.611   8.757   8.039
  154POPC   PO4 2331   3.053   9.284   8.079
  154POPC   GL1 2332   2.760   9.175   7.711
  154POPC   GL2 2333   2.797   8.870   7.583
  154POPC   C1A 2334   2.545   9.146   7.270
  154POPC   D2A 2335   2.687   8.979   6.863
  154POPC   C3A 2336   2.575   9.170   6.450
  154POPC   C4A 2337   2.439   9.317   5.976
  154POPC   C1B 2338   2.618   8.618   7.249
  154POPC   C2B 2339   2.680   8.470   6.822
  154POPC   C3B 2340   2.610   8.661   6.432
  154POPC   C4B 2341   2.688   8.877   6.038
  155POPC   NC3 2342   0.205   7.353   8.116
  155POPC   PO4 2343  11.006   7.264   8.208
  155POPC   GL1 2344  11.266   7.206   7.812
  155POPC   GL2 2345  11.085   7.406   7.591
  155POPC   C1A 2346   0.006   7.210   7.371
  155POPC   D2A 2347  11.437   7.157   6.888
  155POPC   C3A 2348   0.004   7.538   6.613
  155POPC   C4A 2349   0.002   7.743   6.188
  155POPC   C1B 2350  11.024   7.134   7.206
  155POPC   C2B 2351  10.779   7.158   6.842
  155POPC   C3B 2352  10.973   7.277   6.452
  155POPC   C4B 2353  11.358   7.246   6.239
  156POPC   NC3 2354  10.170   4.299   8.025
  156POPC   PO4 2355  10.737   4.626   8.072
  156POPC   GL1 2356  10.529   4.431   7.677
  156POPC   GL2 2357  10.514   4.048   7.729
  156POPC   C1A 2358  10.282   4.511   7.271
  156POPC   D2A 2359  10.020   4.269   6.975
  156POPC   C3A 2360  10.150   4.411   6.565
  156POPC   C4A 2361  10.038   4.443   6.152
  156POPC   C1B 2362  10.535   4.073   7.295
  156POPC   C2B 2363  10.522   4.236   6.886
  156POPC   C3B 2364  10.686   3.987   6.540
  156POPC   C4B 2365  10.469   4.184   6.211
  157POPC   NC3 2366  10.325  11.252   8.075
  157POPC   PO4 2367   9.717  11.411   8.164
  157POPC   GL1 2368   9.935  11.173   7.777
  157POPC   GL2 2369  10.218  11.375   7.594
  157POPC   C1A 2370   9.958  11.018   7.339
  157POPC   D2A 2371  10.125  11.320   7.006
  157POPC   C3A 2372  10.152  11.171   6.566
  157POPC   C4A 2373  10.184  11.299   6.137
  157POPC   C1B 2374  10.474  11.100   7.345
  157POPC   C2B 2375  10.649  11.181   6.949
  157POPC   C3B 2376  10.822  11.271   6.570
  157POPC   C4B 2377  10.605  11.067   6.279
  158POPC   NC3 2378   1.351  11.079   8.059
  158POPC   PO4 2379   0.833   0.082   8.068
  158POPC   GL1 2380   1.127  11.424   7.749
  158POPC   GL2 2381   0.991  11.096   7.703
  158POPC   C1A 2382   1.352  11.225   7.370
  158POPC   D2A 2383   1.139  11.066   6.989
  158POPC   C3A 2384   1.312  11.114   6.602
  158POPC   C4A 2385   1.578  11.231   6.267
  158POPC   C1B 2386   0.840  11.349   7.327
  158POPC   C2B 2387   0.782   0.020   6.930
  158POPC   C3B 2388   0.853  11.305   6.553
  158POPC   C4B 2389   1.079  11.072   6.161
  159POPC   NC3 2390   0.225   9.665   8.065
  159POPC   PO4 2391   0.802   9.315   8.181
  159POPC   GL1 2392   0.501   9.331   7.816
  159POPC   GL2 2393   0.536   9.682   7.677
  159POPC   C1A 2394   0.335   9.326   7.376
  159POPC   D2A 2395   0.678   9.404   7.068
  159POPC   C3A 2396   0.812   9.391   6.643
  159POPC   C4A 2397   0.839   9.244   6.233
  159POPC   C1B 2398   0.207   9.812   7.367
  159POPC   C2B 2399   0.211   9.590   6.939
  159POPC   C3B 2400   0.439   9.733   6.556
  159POPC   C4B 2401   0.375   9.999   6.179
  160POPC   NC3 2402   9.803   5.725   7.998
  160POPC   PO4 2403   9.161   5.969   7.988
  160POPC   GL1 2404   9.510   5.981   7.644
  160POPC   GL2 2405   9.722   5.712   7.520
  160POPC   C1A 2406   9.636   6.092   7.207
  160POPC   D2A 2407   9.469   6.254   6.831
  160POPC   C3A 2408   9.619   6.022   6.489
  160POPC   C4A 2409   9.360   5.726   6.233
  160POPC   C1B 2410   9.887   5.475   7.218
  160POPC   C2B 2411   9.770   5.635   6.841
  160POPC   C3B 2412   9.773   5.518   6.441
  160POPC   C4B 2413   9.859   5.788   6.115
  161POPC   NC3 2414   6.134  10.135   8.064
  161POPC   PO4 2415   5.956  10.741   8.134
  161POPC   GL1 2416   6.046  10.554   7.757
  161POPC   GL2 2417   5.828  10.825   7.606
  161POPC   C1A 2418   6.089  10.184   7.438
  161POPC   D2A 2419   6.073  10.378   7.054
  161POPC   C3A 2420   6.153  10.196   6.701
  161POPC   C4A 2421   5.982  10.296   6.348
  161POPC   C1B 2422   5.677  10.482   7.397
  161POPC   C2B 2423   5.563  10.283   7.029
  161POPC   C3B 2424   5.581  10.409   6.648
  161POPC   C4B 2425   5.492  10.280   6.265
  162POPC   NC3 2426   4.343   2.281   8.038
  162POPC   PO4 2427   4.533   1.676   8.081
  162POPC   GL1 2428   4.397   1.588   7.673
  162POPC   GL2 2429   4.194   1.895   7.693
  162POPC   C1A 2430   4.402   1.815   7.242
  162POPC   D2A 2431   4.292   1.879   6.807
  162POPC   C3A 2432   4.557   2.028   6.468
  162POPC   C4A 2433   4.428   1.916   6.052
  162POPC   C1B 2434   4.145   2.237   7.371
  162POPC   C2B 2435   4.021   2.311   6.944
  162POPC   C3B 2436   4.131   2.319   6.522
  162POPC   C4B 2437   4.008   2.181   6.138
  163POPC   NC3 2438   8.917   5.593   8.062
  163POPC   PO4 2439   9.468   5.438   8.115
  163POPC   GL1 2440   9.310   5.473   7.683
  163POPC   GL2 2441   9.062   5.716   7.563
  163POPC   C1A 2442   9.370   5.564   7.197
  163POPC   D2A 2443   9.286   5.736   6.763
  163POPC   C3A 2444   8.934   5.614   6.466
  163POPC   C4A 2445   8.950   5.464   6.016
  163POPC   C1B 2446   9.122   6.016   7.193
  163POPC   C2B 2447   8.944   6.102   6.759
  163POPC   C3B 2448   8.740   6.082   6.355
  163POPC   C4B 2449   8.793   6.420   6.046
  164POPC   NC3 2450   7.816   2.965   7.939
  164POPC   PO4 2451   8.186   2.484   8.102
  164POPC   GL1 2452   7.942   2.364   7.708
  164POPC   GL2 2453   7.851   2.649   7.562
  164POPC   C1A 2454   7.959   2.326   7.204
  164POPC   D2A 2455   7.964   2.671   6.833
  164POPC   C3A 2456   8.091   2.634   6.378
  164POPC   C4A 2457   7.995   2.322   6.079
  164POPC   C1B 2458   8.183   2.807   7.286
  164POPC   C2B 2459   8.424   2.958   6.892
  164POPC   C3B 2460   8.292   3.105   6.449
  164POPC   C4B 2461   8.271   3.089   5.957
  165POPC   NC3 2462   1.149   0.404   7.973
  165POPC   PO4 2463   1.585   0.883   7.991
  165POPC   GL1 2464   1.503   0.663   7.581
  165POPC   GL2 2465   1.135   0.629   7.521
  165POPC   C1A 2466   1.433   0.597   7.103
  165POPC   D2A 2467   1.000   0.501   6.904
  165POPC   C3A 2468   1.083   0.553   6.472
  165POPC   C4A 2469   1.517   0.587   6.444
  165POPC   C1B 2470   1.196   0.214   7.315
  165POPC   C2B 2471   1.310   0.059   6.885
  165POPC   C3B 2472   1.272   0.098   6.435
  165POPC   C4B 2473   0.868   0.168   6.197
  166POPC   NC3 2474   9.564   2.771   8.181
  166POPC   PO4 2475  10.140   2.603   7.960
  166POPC   GL1 2476   9.889   2.858   7.676
  166POPC   GL2 2477   9.587   2.660   7.679
  166POPC   C1A 2478   9.727   2.847   7.233
  166POPC   D2A 2479   9.879   2.562   6.956
  166POPC   C3A 2480  10.133   2.784   6.680
  166POPC   C4A 2481   9.981   2.687   6.274
  166POPC   C1B 2482   9.520   2.366   7.333
  166POPC   C2B 2483   9.365   2.474   6.928
  166POPC   C3B 2484   9.463   2.814   6.712
  166POPC   C4B 2485   9.482   2.818   6.269
  167POPC   NC3 2486  10.432   8.468   7.830
  167POPC   PO4 2487  10.038   8.853   8.302
  167POPC   GL1 2488  10.106   8.943   7.799
  167POPC   GL2 2489  10.248   9.272   7.724
  167POPC   C1A 2490  10.170   8.771   7.328
  167POPC   D2A 2491  10.399   8.595   6.943
  167POPC   C3A 2492  10.296   8.805   6.539
  167POPC   C4A 2493  10.392   8.673   6.115
  167POPC   C1B 2494  10.067   9.277   7.315
  167POPC   C2B 2495  10.293   9.123   6.958
  167POPC   C3B 2496  10.637   9.177   6.680
  167POPC   C4B 2497  10.613   9.165   6.229
  168POPC   NC3 2498   1.605   1.188   3.922
  168POPC   PO4 2499   0.966   0.954   3.929
  168POPC   GL1 2500   1.205   1.137   4.215
  168POPC   GL2 2501   1.019   1.379   4.391
  168POPC   C1A 2502   1.462   1.105   4.565
  168POPC   D2A 2503   1.361   1.087   5.003
  168POPC   C3A 2504   1.533   1.333   5.364
  168POPC   C4A 2505   1.664   0.948   5.612
  168POPC   C1B 2506   0.934   0.995   4.637
  168POPC   C2B 2507   0.890   0.870   5.078
  168POPC   C3B 2508   1.123   1.001   5.446
  168POPC   C4B 2509   1.112   1.433   5.663
  169POPC   NC3 2510  10.862   3.429   3.828
  169POPC   PO4 2511  10.192   3.429   3.794
  169POPC   GL1 2512  10.190   3.664   4.187
  169POPC   GL2 2513  10.548   3.673   4.240
  169POPC   C1A 2514  10.098   3.500   4.616
  169POPC   D2A 2515  10.213   3.222   4.990
  169POPC   C3A 2516   9.970   3.222   5.378
  169POPC   C4A 2517  10.132   3.335   5.773
  169POPC   C1B 2518  10.573   3.570   4.706
  169POPC   C2B 2519  10.381   3.701   5.122
  169POPC   C3B 2520  10.414   3.717   5.593
  169POPC   C4B 2521  10.710   3.830   5.945
  170POPC   NC3 2522   9.699   5.695   3.693
  170POPC   PO4 2523   9.316   5.331   3.927
  170POPC   GL1 2524   9.641   5.433   4.189
  170POPC   GL2 2525   9.667   5.781   4.238
  170POPC   C1A 2526   9.659   5.429   4.622
  170POPC   D2A 2527   9.437   5.456   4.991
  170POPC   C3A 2528   9.648   5.624   5.342
  170POPC   C4A 2529   9.550   5.593   5.769
  170POPC   C1B 2530   9.866   5.907   4.688
  170POPC   C2B 2531   9.864   6.060   5.145
  170POPC   C3B 2532   9.592   6.231   5.493
  170POPC   C4B 2533   9.499   6.085   5.909
  171POPC   NC3 2534   3.641  10.276   3.970
  171POPC   PO4 2535   3.946  10.824   4.013
  171POPC   GL1 2536   3.764  10.637   4.346
  171POPC   GL2 2537   3.407  10.611   4.295
  171POPC   C1A 2538   3.887  10.696   4.765
  171POPC   D2A 2539   3.910  10.816   5.168
  171POPC   C3A 2540   3.858  10.503   5.520
  171POPC   C4A 2541   3.769  10.326   5.954
  171POPC   C1B 2542   3.465  10.388   4.691
  171POPC   C2B 2543   3.470  10.523   5.130
  171POPC   C3B 2544   3.351  10.379   5.550
  171POPC   C4B 2545   3.365  10.036   5.801
  172POPC   NC3 2546  10.504   2.102   4.033
  172POPC   PO4 2547   9.874   1.942   4.077
  172POPC   GL1 2548  10.097   2.175   4.371
  172POPC   GL2 2549  10.294   1.888   4.453
  172POPC   C1A 2550  10.331   2.269   4.773
  172POPC   D2A 2551  10.397   2.023   5.146
  172POPC   C3A 2552  10.316   2.316   5.490
  172POPC   C4A 2553  10.443   2.322   5.922
  172POPC   C1B 2554  10.567   1.633   4.724
  172POPC   C2B 2555  10.546   1.471   5.131
  172POPC   C3B 2556  10.510   1.613   5.551
  172POPC   C4B 2557  10.214   1.889   5.764
  173POPC   NC3 2558  10.122  11.208   3.890
  173POPC   PO4 2559  10.691  10.679   3.818
  173POPC   GL1 2560  10.455  10.899   4.197
  173POPC   GL2 2561  10.376  11.262   4.327
  173POPC   C1A 2562  10.345  10.901   4.670
  173POPC   D2A 2563  10.119  10.850   5.069
  173POPC   C3A 2564  10.380  10.742   5.415
  173POPC   C4A 2565  10.563  10.918   5.784
  173POPC   C1B 2566  10.187  11.442   4.709
  173POPC   C2B 2567  10.025  11.365   5.127
  173POPC   C3B 2568  10.155   0.135   5.475
  173POPC   C4B 2569  10.470  11.452   5.743
  174POPC   NC3 2570   6.389  11.391   3.875
  174POPC   PO4 2571   7.079  11.438   4.010
  174POPC   GL1 2572   6.739  11.273   4.231
  174POPC   GL2 2573   6.758  10.917   4.303
  174POPC   C1A 2574   6.483  11.328   4.579
  174POPC   D2A 2575   6.616  11.321   5.026
  174POPC   C3A 2576   6.362  11.489   5.363
  174POPC   C4A 2577   6.211  11.386   5.780
  174POPC   C1B 2578   6.601  10.865   4.738
  174POPC   C2B 2579   6.297  10.892   5.099
  174POPC   C3B 2580   6.458  10.967   5.511
  174POPC   C4B 2581   6.845  10.883   5.720
  175POPC   NC3 2582   2.996   9.879   4.001
  175POPC   PO4 2583   3.622   9.825   3.947
  175POPC   GL1 2584   3.500   9.965   4.345
  175POPC   GL2 2585   3.444   9.643   4.418
  175POPC   C1A 2586   3.710   9.952   4.744
  175POPC   D2A 2587   3.545   9.964   5.178
  175POPC   C3A 2588   3.814   9.964   5.544
  175POPC   C4A 2589   3.789   9.808   5.976
  175POPC   C1B 2590   3.490   9.492   4.833
  175POPC   C2B 2591   3.299   9.464   5.220
  175POPC   C3B 2592   3.472   9.572   5.600
  175POPC   C4B 2593   3.365   9.554   6.028
  176POPC   NC3 2594  10.547   7.883   3.808
  176POPC   PO4 2595  10.695   8.535   3.921
  176POPC   GL1 2596  10.479   8.407   4.296
  176POPC   GL2 2597  10.473   8.031   4.329
  176POPC   C1A 2598  10.440   8.301   4.748
  176POPC   D2A 2599  10.670   8.091   5.086
  176POPC   C3A 2600  10.502   8.358   5.373
  176POPC   C4A 2601  10.215   8.487   5.652
  176POPC   C1B 2602  10.391   7.789   4.744
  176POPC   C2B 2603  10.201   7.884   5.146
  176POPC   C3B 2604  10.246   7.962   5.576
  176POPC   C4B 2605  10.202   7.698   5.979
  177POPC   NC3 2606   9.581   2.239   4.276
  177POPC   PO4 2607   9.588   2.883   3.951
  177POPC   GL1 2608   9.560   2.743   4.305
  177POPC   GL2 2609   9.902   2.649   4.292
  177POPC   C1A 2610   9.447   2.786   4.720
  177POPC   D2A 2611   9.356   3.019   5.068
  177POPC   C3A 2612   9.507   2.920   5.425
  177POPC   C4A 2613   9.297   2.924   5.778
  177POPC   C1B 2614   9.904   2.550   4.722
  177POPC   C2B 2615   9.876   2.809   5.056
  177POPC   C3B 2616   9.965   2.696   5.454
  177POPC   C4B 2617   9.733   2.649   5.833
  178POPC   NC3 2618  10.824   0.402   3.733
  178POPC   PO4 2619  11.280   0.174   4.154
  178POPC   GL1 2620  11.293   0.556   4.384
  178POPC   GL2 2621   0.137   0.613   4.304
  178POPC   C1A 2622  11.045   0.549   4.804
  178POPC   D2A 2623  10.943   0.183   5.099
  178POPC   C3A 2624  11.069   0.266   5.537
  178POPC   C4A 2625  11.054   0.674   5.740
  178POPC   C1B 2626   0.147   0.397   4.704
  178POPC   C2B 2627  11.455   0.439   5.082
  178POPC   C3B 2628   0.053   0.473   5.473
  178POPC   C4B 2629  11.483   0.324   5.850
  179POPC   NC3 2630   6.651   9.547   3.848
  179POPC   PO4 2631   6.179   9.952   3.769
  179POPC   GL1 2632   6.385   9.912   4.185
  179POPC   GL2 2633   6.585   9.635   4.352
  179POPC   C1A 2634   6.358  10.022   4.633
  179POPC   D2A 2635   6.403   9.784   5.014
  179POPC   C3A 2636   6.249   9.846   5.435
  179POPC   C4A 2637   6.390   9.609   5.807
  179POPC   C1B 2638   6.832   9.837   4.709
  179POPC   C2B 2639   6.844  10.033   5.122
  179POPC   C3B 2640   6.750   9.852   5.516
  179POPC   C4B 2641   6.762   9.910   5.962
  180POPC   NC3 2642   9.329   9.002   3.766
  180POPC   PO4 2643  10.048   9.081   3.748
  180POPC   GL1 2644   9.708   9.231   4.094
  180POPC   GL2 2645   9.520   8.929   4.239
  180POPC   C1A 2646   9.575   9.312   4.568
  180POPC   D2A 2647   9.758   9.175   4.980
  180POPC   C3A 2648   9.597   9.224   5.400
  180POPC   C4A 2649   9.675   9.127   5.820
  180POPC   C1B 2650   9.447   8.826   4.684
  180POPC   C2B 2651   9.304   8.866   5.116
  180POPC   C3B 2652   9.372   8.785   5.572
  180POPC   C4B 2653   9.754   8.622   5.735
  181POPC   NC3 2654  11.209   8.371   4.018
  181POPC   PO4 2655  10.981   7.810   3.709
  181POPC   GL1 2656  10.959   7.922   4.155
  181POPC   GL2 2657  11.288   7.863   4.178
  181POPC   C1A 2658  10.927   8.107   4.617
  181POPC   D2A 2659  11.185   8.181   5.036
  181POPC   C3A 2660  10.992   8.320   5.457
  181POPC   C4A 2661  10.731   8.355   5.842
  181POPC   C1B 2662  11.320   7.760   4.619
  181POPC   C2B 2663  11.094   7.633   5.001
  181POPC   C3B 2664  11.041   7.812   5.424
  181POPC   C4B 2665  11.414   7.927   5.702
  182POPC   NC3 2666   5.720  10.954   3.943
  182POPC   PO4 2667   6.321  11.027   3.596
  182POPC   GL1 2668   6.230  10.959   4.105
  182POPC   GL2 2669   6.029  11.281   4.219
  182POPC   C1A 2670   6.127  10.965   4.586
  182POPC   D2A 2671   6.086  11.326   4.923
  182POPC   C3A 2672   5.938  11.209   5.354
  182POPC   C4A 2673   5.990  10.924   5.703
  182POPC   C1B 2674   5.713  11.263   4.580
  182POPC   C2B 2675   5.550  11.299   5.016
  182POPC   C3B 2676   5.471  11.424   5.452
  182POPC   C4B 2677   5.685  11.349   5.838
  183POPC   NC3 2678   1.121   8.086   3.781
  183POPC   PO4 2679   1.680   8.353   3.923
  183POPC   GL1 2680   1.378   8.276   4.233
  183POPC   GL2 2681   1.076   8.148   4.290
  183POPC   C1A 2682   1.440   8.082   4.646
  183POPC   D2A 2683   1.274   8.176   5.072
  183POPC   C3A 2684   1.348   7.907   5.438
  183POPC   C4A 2685   1.456   8.146   5.802
  183POPC   C1B 2686   0.941   8.021   4.708
  183POPC   C2B 2687   0.769   8.178   5.116
  183POPC   C3B 2688   0.927   8.171   5.519
  183POPC   C4B 2689   0.968   7.910   5.875
  184POPC   NC3 2690  10.994  10.971   4.055
  184POPC   PO4 2691  10.617   0.041   3.976
  184POPC   GL1 2692  10.877  11.366   4.350
  184POPC   GL2 2693  11.229  11.236   4.414
  184POPC   C1A 2694  10.779  11.234   4.755
  184POPC   D2A 2695  10.547  11.305   5.145
  184POPC   C3A 2696  10.871  11.296   5.462
  184POPC   C4A 2697  10.915  11.263   5.915
  184POPC   C1B 2698  11.306  11.476   4.803
  184POPC   C2B 2699  11.396  11.460   5.249
  184POPC   C3B 2700  11.372  11.348   5.673
  184POPC   C4B 2701  11.376  11.055   5.995
  185POPC   NC3 2702   2.009  11.049   3.855
  185POPC   PO4 2703   2.513  10.585   3.895
  185POPC   GL1 2704   2.291  10.646   4.295
  185POPC   GL2 2705   2.074  10.931   4.350
  185POPC   C1A 2706   2.429  10.799   4.701
  185POPC   D2A 2707   2.322  11.092   5.011
  185POPC   C3A 2708   2.102  10.981   5.353
  185POPC   C4A 2709   2.202  11.091   5.737
  185POPC   C1B 2710   1.903  11.151   4.717
  185POPC   C2B 2711   1.647  11.067   5.059
  185POPC   C3B 2712   1.617  11.058   5.466
  185POPC   C4B 2713   1.744  11.318   5.779
  186POPC   NC3 2714   3.622   2.894   3.799
  186POPC   PO4 2715   3.004   3.135   4.019
  186POPC   GL1 2716   3.357   2.907   4.262
  186POPC   GL2 2717   3.330   2.554   4.223
  186POPC   C1A 2718   3.364   2.751   4.726
  186POPC   D2A 2719   3.228   2.807   5.185
  186POPC   C3A 2720   3.566   2.819   5.531
  186POPC   C4A 2721   3.782   2.968   5.951
  186POPC   C1B 2722   3.087   2.346   4.597
  186POPC   C2B 2723   3.217   2.289   5.053
  186POPC   C3B 2724   3.218   2.412   5.541
  186POPC   C4B 2725   3.130   2.387   6.033
  187POPC   NC3 2726   9.711   1.519   4.193
  187POPC   PO4 2727   9.303   2.142   3.937
  187POPC   GL1 2728   9.155   1.979   4.368
  187POPC   GL2 2729   9.482   1.817   4.532
  187POPC   C1A 2730   9.068   1.818   4.814
  187POPC   D2A 2731   9.460   1.823   5.077
  187POPC   C3A 2732   9.531   1.749   5.518
  187POPC   C4A 2733   9.505   1.897   5.925
  187POPC   C1B 2734   9.877   1.961   4.795
  187POPC   C2B 2735   9.923   2.237   5.162
  187POPC   C3B 2736   9.820   2.191   5.615
  187POPC   C4B 2737   9.911   2.213   6.075
  188POPC   NC3 2738   2.765   7.378   3.879
  188POPC   PO4 2739   3.039   6.910   3.874
  188POPC   GL1 2740   2.883   7.155   4.336
  188POPC   GL2 2741   2.659   7.477   4.383
  188POPC   C1A 2742   2.845   7.236   4.838
  188POPC   D2A 2743   2.953   7.035   5.257
  188POPC   C3A 2744   2.992   7.263   5.653
  188POPC   C4A 2745   2.953   7.262   6.109
  188POPC   C1B 2746   2.420   7.139   4.587
  188POPC   C2B 2747   2.277   7.107   5.038
  188POPC   C3B 2748   2.498   7.222   5.432
  188POPC   C4B 2749   2.569   7.469   5.838
  189POPC   NC3 2750   8.499  11.348   4.104
  189POPC   PO4 2751   8.396  10.713   3.767
  189POPC   GL1 2752   8.355  10.799   4.210
  189POPC   GL2 2753   8.098  11.025   4.236
  189POPC   C1A 2754   8.363  10.965   4.655
  189POPC   D2A 2755   8.166  11.258   4.944
  189POPC   C3A 2756   8.092  11.126   5.361
  189POPC   C4A 2757   8.316  11.003   5.720
  189POPC   C1B 2758   7.854  11.281   4.526
  189POPC   C2B 2759   7.646  11.309   4.908
  189POPC   C3B 2760   7.582  11.279   5.336
  189POPC   C4B 2761   7.766  11.301   5.726
  190POPC   NC3 2762   5.769   0.185   3.616
  190POPC   PO4 2763   5.272   0.478   3.935
  190POPC   GL1 2764   4.998   0.455   4.322
  190POPC   GL2 2765   4.906   0.103   4.472
  190POPC   C1A 2766   5.118   0.493   4.760
  190POPC   D2A 2767   5.268   0.234   5.063
  190POPC   C3A 2768   5.305   0.426   5.432
  190POPC   C4A 2769   5.092   0.424   5.793
  190POPC   C1B 2770   4.640   0.303   4.701
  190POPC   C2B 2771   4.662   0.510   5.037
  190POPC   C3B 2772   4.746   0.497   5.416
  190POPC   C4B 2773   4.708   0.742   5.755
  191POPC   NC3 2774   4.781   1.754   3.901
  191POPC   PO4 2775   4.792   2.430   3.936
  191POPC   GL1 2776   4.872   2.194   4.312
  191POPC   GL2 2777   5.051   1.873   4.318
  191POPC   C1A 2778   4.682   2.172   4.741
  191POPC   D2A 2779   4.491   2.130   5.162
  191POPC   C3A 2780   4.798   2.228   5.484
  191POPC   C4A 2781   4.850   2.144   5.920
  191POPC   C1B 2782   4.853   1.696   4.698
  191POPC   C2B 2783   4.897   1.824   5.149
  191POPC   C3B 2784   5.079   1.806   5.610
  191POPC   C4B 2785   5.281   1.901   6.040
  192POPC   NC3 2786   4.159   0.211   3.801
  192POPC   PO4 2787   4.680  11.472   4.019
  192POPC   GL1 2788   4.352   0.203   4.305
  192POPC   GL2 2789   4.176   0.528   4.296
  192POPC   C1A 2790   4.145   0.159   4.733
  192POPC   D2A 2791   4.403   0.057   5.099
  192POPC   C3A 2792   4.345   0.169   5.505
  192POPC   C4A 2793   4.638   0.201   5.826
  192POPC   C1B 2794   4.269   0.663   4.735
  192POPC   C2B 2795   4.162   0.528   5.150
  192POPC   C3B 2796   4.245   0.683   5.548
  192POPC   C4B 2797   4.265   0.872   5.966
  193POPC   NC3 2798   1.202   2.100   3.996
  193POPC   PO4 2799   1.684   1.650   3.925
  193POPC   GL1 2800   1.491   1.596   4.341
  193POPC   GL2 2801   1.245   1.860   4.428
  193POPC   C1A 2802   1.335   1.542   4.789
  193POPC   D2A 2803   1.053   1.567   5.141
  193POPC   C3A 2804   1.214   1.883   5.402
  193POPC   C4A 2805   1.466   1.795   5.748
  193POPC   C1B 2806   0.889   1.873   4.727
  193POPC   C2B 2807   0.759   2.082   5.117
  193POPC   C3B 2808   0.970   2.371   5.357
  193POPC   C4B 2809   1.190   2.262   5.754
  194POPC   NC3 2810   5.853   0.512   4.088
  194POPC   PO4 2811   5.597  11.426   3.958
  194POPC   GL1 2812   5.511   0.191   4.363
  194POPC   GL2 2813   5.492   0.563   4.427
  194POPC   C1A 2814   5.706   0.255   4.793
  194POPC   D2A 2815   5.991   0.286   5.153
  194POPC   C3A 2816   5.889   0.235   5.564
  194POPC   C4A 2817   5.596   0.380   5.848
  194POPC   C1B 2818   5.872   0.735   4.668
  194POPC   C2B 2819   6.153   0.733   4.970
  194POPC   C3B 2820   6.082   0.887   5.394
  194POPC   C4B 2821   5.964   0.721   5.805
  195POPC   NC3 2822   4.035   9.679   3.817
  195POPC   PO4 2823   4.678   9.461   4.080
  195POPC   GL1 2824   4.239   9.518   4.237
  195POPC   GL2 2825   4.067   9.871   4.291
  195POPC   C1A 2826   3.939   9.481   4.581
  195POPC   D2A 2827   3.979   9.619   5.022
  195POPC   C3A 2828   4.221   9.369   5.324
  195POPC   C4A 2829   3.979   9.457   5.655
  195POPC   C1B 2830   4.358   9.791   4.682
  195POPC   C2B 2831   4.464   9.767   5.152
  195POPC   C3B 2832   4.493   9.764   5.619
  195POPC   C4B 2833   4.705  10.171   5.768
  196POPC   NC3 2834   2.987   1.804   3.992
  196POPC   PO4 2835   2.449   1.469   3.705
  196POPC   GL1 2836   2.371   1.677   4.217
  196POPC   GL2 2837   2.487   2.007   4.166
  196POPC   C1A 2838   2.258   1.759   4.655
  196POPC   D2A 2839   2.562   1.631   4.973
  196POPC   C3A 2840   2.516   1.775   5.414
  196POPC   C4A 2841   2.722   1.666   5.815
  196POPC   C1B 2842   2.709   1.975   4.566
  196POPC   C2B 2843   2.600   2.133   4.960
  196POPC   C3B 2844   2.813   2.171   5.335
  196POPC   C4B 2845   2.732   2.193   5.765
  197POPC   NC3 2846   7.576  11.432   3.875
  197POPC   PO4 2847   7.241   0.542   3.720
  197POPC   GL1 2848   7.412   0.497   4.191
  197POPC   GL2 2849   7.657   0.230   4.252
  197POPC   C1A 2850   7.228   0.610   4.634
  197POPC   D2A 2851   7.384   0.857   4.997
  197POPC   C3A 2852   7.251   0.724   5.403
  197POPC   C4A 2853   7.028   0.479   5.694
  197POPC   C1B 2854   7.400   0.123   4.586
  197POPC   C2B 2855   7.471   0.290   4.988
  197POPC   C3B 2856   7.362   0.222   5.394
  197POPC   C4B 2857   7.463   0.230   5.815
  198POPC   NC3 2858   1.125   7.565   3.703
  198POPC   PO4 2859   1.568   7.032   3.869
  198POPC   GL1 2860   1.391   7.335   4.175
  198POPC   GL2 2861   1.179   7.152   4.435
  198POPC   C1A 2862   1.478   7.559   4.576
  198POPC   D2A 2863   1.287   7.659   4.986
  198POPC   C3A 2864   1.389   7.333   5.314
  198POPC   C4A 2865   1.486   7.065   5.707
  198POPC   C1B 2866   0.919   7.501   4.619
  198POPC   C2B 2867   0.721   7.662   5.010
  198POPC   C3B 2868   0.888   7.672   5.421
  198POPC   C4B 2869   1.192   7.484   5.747
  199POPC   NC3 2870   0.832   3.660   3.923
  199POPC   PO4 2871   0.542   3.023   3.897
  199POPC   GL1 2872   0.527   3.333   4.234
  199POPC   GL2 2873   0.640   3.671   4.401
  199POPC   C1A 2874   0.450   3.278   4.663
  199POPC   D2A 2875   0.641   3.553   4.951
  199POPC   C3A 2876   0.660   3.373   5.345
  199POPC   C4A 2877   0.398   3.188   5.640
  199POPC   C1B 2878   0.233   3.741   4.631
  199POPC   C2B 2879   0.128   3.534   5.031
  199POPC   C3B 2880   0.252   3.641   5.450
  199POPC   C4B 2881   0.094   3.742   5.828
  200POPC   NC3 2882  10.466   5.773   3.970
  200POPC   PO4 2883  10.005   5.265   3.871
  200POPC   GL1 2884  10.151   5.509   4.267
  200POPC   GL2 2885  10.539   5.533   4.400
  200POPC   C1A 2886  10.155   5.412   4.699
  200POPC   D2A 2887  10.121   5.634   5.071
  200POPC   C3A 2888  10.129   5.513   5.499
  200POPC   C4A 2889   9.964   5.920   5.651
  200POPC   C1B 2890  10.439   5.847   4.701
  200POPC   C2B 2891  10.413   6.036   5.124
  200POPC   C3B 2892  10.465   5.901   5.534
  200POPC   C4B 2893  10.707   6.139   5.806
  201POPC   NC3 2894   8.946   5.593   3.789
  201POPC   PO4 2895   8.468   5.831   4.104
  201POPC   GL1 2896   8.810   5.566   4.319
  201POPC   GL2 2897   9.171   5.568   4.341
  201POPC   C1A 2898   8.937   5.608   4.794
  201POPC   D2A 2899   8.859   5.931   5.142
  201POPC   C3A 2900   8.687   5.795   5.567
  201POPC   C4A 2901   8.518   5.773   6.013
  201POPC   C1B 2902   9.347   5.871   4.633
  201POPC   C2B 2903   9.372   5.972   5.074
  201POPC   C3B 2904   9.209   5.898   5.513
  201POPC   C4B 2905   9.006   5.966   5.927
  202POPC   NC3 2906   6.044   1.482   3.940
  202POPC   PO4 2907   5.696   0.932   4.029
  202POPC   GL1 2908   5.509   1.071   4.391
  202POPC   GL2 2909   5.548   1.395   4.312
  202POPC   C1A 2910   5.435   0.935   4.818
  202POPC   D2A 2911   5.647   0.699   5.153
  202POPC   C3A 2912   5.581   0.942   5.533
  202POPC   C4A 2913   5.393   1.374   5.598
  202POPC   C1B 2914   5.958   1.251   4.546
  202POPC   C2B 2915   5.937   1.186   4.973
  202POPC   C3B 2916   5.850   1.377   5.347
  202POPC   C4B 2917   5.942   1.238   5.759
  203POPC   NC3 2918   7.041   1.408   3.975
  203POPC   PO4 2919   6.951   2.114   3.900
  203POPC   GL1 2920   7.297   1.941   4.185
  203POPC   GL2 2921   7.551   2.175   4.295
  203POPC   C1A 2922   7.473   1.799   4.609
  203POPC   D2A 2923   7.324   1.681   5.015
  203POPC   C3A 2924   7.343   1.724   5.450
  203POPC   C4A 2925   7.025   1.816   5.712
  203POPC   C1B 2926   7.667   2.266   4.745
  203POPC   C2B 2927   7.531   2.148   5.173
  203POPC   C3B 2928   7.336   2.229   5.583
  203POPC   C4B 2929   7.435   2.346   6.001
  204POPC   NC3 2930   8.024   1.454   3.783
  204POPC   PO4 2931   7.977   0.781   3.838
  204POPC   GL1 2932   8.286   0.942   4.122
  204POPC   GL2 2933   8.027   1.176   4.219
  204POPC   C1A 2934   8.470   1.134   4.514
  204POPC   D2A 2935   8.453   0.987   4.963
  204POPC   C3A 2936   8.499   1.229   5.338
  204POPC   C4A 2937   8.513   1.195   5.794
  204POPC   C1B 2938   7.993   1.124   4.655
  204POPC   C2B 2939   8.072   1.347   5.049
  204POPC   C3B 2940   8.031   1.300   5.506
  204POPC   C4B 2941   8.129   1.556   5.837
  205POPC   NC3 2942   8.694   9.222   3.906
  205POPC   PO4 2943   8.997   8.649   3.828
  205POPC   GL1 2944   9.003   8.916   4.216
  205POPC   GL2 2945   8.686   8.988   4.385
  205POPC   C1A 2946   9.074   9.171   4.626
  205POPC   D2A 2947   8.818   9.060   4.988
  205POPC   C3A 2948   8.955   9.068   5.434
  205POPC   C4A 2949   8.677   9.016   5.759
  205POPC   C1B 2950   8.937   8.677   4.669
  205POPC   C2B 2951   8.893   8.555   5.123
  205POPC   C3B 2952   8.908   8.566   5.595
  205POPC   C4B 2953   8.909   8.676   6.039
  206POPC   NC3 2954   4.903  11.169   3.746
  206POPC   PO4 2955   4.235  11.264   3.706
  206POPC   GL1 2956   4.274  11.219   4.191
  206POPC   GL2 2957   4.037  11.083   4.425
  206POPC   C1A 2958   4.468  11.278   4.606
  206POPC   D2A 2959   4.295  11.092   4.951
  206POPC   C3A 2960   4.614  11.091   5.267
  206POPC   C4A 2961   4.635  11.191   5.690
  206POPC   C1B 2962   3.804  11.249   4.751
  206POPC   C2B 2963   3.888  11.407   5.153
  206POPC   C3B 2964   4.132  11.201   5.457
  206POPC   C4B 2965   4.023  10.928   5.788
  207POPC   NC3 2966   0.499  10.820   3.937
  207POPC   PO4 2967   0.728  11.486   4.008
  207POPC   GL1 2968   0.570  11.196   4.272
  207POPC   GL2 2969   0.208  11.143   4.194
  207POPC   C1A 2970   0.684  11.066   4.697
  207POPC   D2A 2971   0.911  11.301   4.999
  207POPC   C3A 2972   0.732  11.176   5.400
  207POPC   C4A 2973   0.796  11.346   5.790
  207POPC   C1B 2974   0.202  11.202   4.629
  207POPC   C2B 2975   0.277  10.969   4.996
  207POPC   C3B 2976   0.221  11.078   5.383
  207POPC   C4B 2977   0.323  11.064   5.757
  208POPC   NC3 2978   8.748  10.474   3.966
  208POPC   PO4 2979   9.374  10.502   3.757
  208POPC   GL1 2980   9.147  10.633   4.271
  208POPC   GL2 2981   8.918  10.408   4.432
  208POPC   C1A 2982   8.834  10.775   4.725
  208POPC   D2A 2983   8.518  10.718   5.083
  208POPC   C3A 2984   8.719  10.752   5.518
  208POPC   C4A 2985   9.113  10.517   5.609
  208POPC   C1B 2986   9.205  10.439   4.764
  208POPC   C2B 2987   8.987  10.439   5.124
  208POPC   C3B 2988   8.635  10.293   5.336
  208POPC   C4B 2989   8.564  10.277   5.767
  209POPC   NC3 2990   5.127   0.041   4.038
  209POPC   PO4 2991   5.327  11.008   3.700
  209POPC   GL1 2992   5.216  11.051   4.174
  209POPC   GL2 2993   4.838  11.063   4.301
  209POPC   C1A 2994   5.197  11.224   4.638
  209POPC   D2A 2995   4.880  11.407   4.957
  209POPC   C3A 2996   4.952   0.007   5.428
  209POPC   C4A 2997   5.132  11.423   5.872
  209POPC   C1B 2998   4.802  10.911   4.777
  209POPC   C2B 2999   5.046  10.812   5.178
  209POPC   C3B 3000   5.194  10.982   5.605
  209POPC   C4B 3001   4.946  10.970   6.027
  210POPC   NC3 3002   0.516  10.156   3.673
  210POPC   PO4 3003  11.416   9.911   3.898
  210POPC   GL1 3004   0.231  10.158   4.175
  210POPC   GL2 3005   0.406  10.421   4.208
  210POPC   C1A 3006   0.250  10.130   4.653
  210POPC   D2A 3007   0.066  10.064   5.084
  210POPC   C3A 3008   0.350  10.182   5.438
  210POPC   C4A 3009   0.344  10.400   5.846
  210POPC   C1B 3010   0.337  10.643   4.591
  210POPC   C2B 3011   0.459  10.491   5.020
  210POPC   C3B 3012   0.554  10.675   5.426
  210POPC   C4B 3013   0.708  10.761   5.839
  211POPC   NC3 3014   2.131   1.778   3.813
  211POPC   PO4 3015   2.328   2.413   3.868
  211POPC   GL1 3016   2.039   2.276   4.185
  211POPC   GL2 3017   1.926   1.937   4.271
  211POPC   C1A 3018   2.118   2.267   4.626
  211POPC   D2A 3019   1.972   2.236   5.037
  211POPC   C3A 3020   2.282   2.249   5.351
  211POPC   C4A 3021   2.202   2.259   5.762
  211POPC   C1B 3022   1.707   1.941   4.670
  211POPC   C2B 3023   1.642   1.811   5.097
  211POPC   C3B 3024   1.865   1.932   5.454
  211POPC   C4B 3025   1.695   2.244   5.695
  212POPC   NC3 3026  10.902   8.890   3.715
  212POPC   PO4 3027  11.461   8.672   3.777
  212POPC   GL1 3028  11.391   8.795   4.218
  212POPC   GL2 3029  11.158   9.011   4.152
  212POPC   C1A 3030  11.276   8.639   4.666
  212POPC   D2A 3031  11.314   8.714   5.101
  212POPC   C3A 3032  11.474   8.442   5.427
  212POPC   C4A 3033  11.219   8.775   5.655
  212POPC   C1B 3034  11.214   9.130   4.599
  212POPC   C2B 3035  11.016   9.128   4.968
  212POPC   C3B 3036  11.100   9.185   5.384
  212POPC   C4B 3037  10.914   9.190   5.780
  213POPC   NC3 3038   7.127  10.945   3.905
  213POPC   PO4 3039   7.839  11.019   3.813
  213POPC   GL1 3040   7.593  10.883   4.165
  213POPC   GL2 3041   7.412  11.172   4.278
  213POPC   C1A 3042   7.557  10.867   4.637
  213POPC   D2A 3043   7.466  10.857   5.073
  213POPC   C3A 3044   7.656  10.784   5.431
  213POPC   C4A 3045   7.466  10.900   5.796
  213POPC   C1B 3046   7.112  11.182   4.609
  213POPC   C2B 3047   7.135  11.354   4.990
  213POPC   C3B 3048   7.077  11.138   5.343
  213POPC   C4B 3049   7.203  11.318   5.705
  214POPC   NC3 3050   4.031   1.399   4.064
  214POPC   PO4 3051   3.387   1.533   3.817
  214POPC   GL1 3052   3.302   1.412   4.232
  214POPC   GL2 3053   3.552   1.161   4.202
  214POPC   C1A 3054   3.578   1.459   4.625
  214POPC   D2A 3055   3.932   1.518   4.931
  214POPC   C3A 3056   3.735   1.489   5.326
  214POPC   C4A 3057   3.500   1.544   5.683
  214POPC   C1B 3058   3.287   0.991   4.541
  214POPC   C2B 3059   3.352   0.861   4.962
  214POPC   C3B 3060   3.334   0.830   5.391
  214POPC   C4B 3061   3.524   1.039   5.693
  215POPC   NC3 3062   9.715   6.623   4.038
  215POPC   PO4 3063  10.068   6.050   3.864
  215POPC   GL1 3064   9.896   6.228   4.289
  215POPC   GL2 3065   9.503   6.297   4.375
  215POPC   C1A 3066   9.846   6.478   4.691
  215POPC   D2A 3067   9.640   6.526   5.089
  215POPC   C3A 3068   9.863   6.692   5.491
  215POPC   C4A 3069   9.834   6.452   5.898
  215POPC   C1B 3070   9.391   6.722   4.657
  215POPC   C2B 3071   9.386   6.950   5.096
  215POPC   C3B 3072   9.359   6.733   5.511
  215POPC   C4B 3073   9.327   6.560   5.916
  216POPC   NC3 3074   4.511   9.035   4.017
  216POPC   PO4 3075   3.952   9.192   3.855
  216POPC   GL1 3076   3.939   9.035   4.286
  216POPC   GL2 3077   4.250   9.069   4.460
  216POPC   C1A 3078   3.806   9.016   4.753
  216POPC   D2A 3079   3.749   9.182   5.193
  216POPC   C3A 3080   4.004   8.948   5.512
  216POPC   C4A 3081   4.139   8.531   5.661
  216POPC   C1B 3082   4.526   8.921   4.777
  216POPC   C2B 3083   4.426   8.884   5.214
  216POPC   C3B 3084   4.566   8.810   5.613
  216POPC   C4B 3085   4.733   8.907   5.995
  217POPC   NC3 3086   1.186   4.390   3.932
  217POPC   PO4 3087   1.718   4.781   4.119
  217POPC   GL1 3088   1.432   4.402   4.357
  217POPC   GL2 3089   1.166   4.046   4.286
  217POPC   C1A 3090   1.135   4.317   4.698
  217POPC   D2A 3091   1.282   4.491   5.033
  217POPC   C3A 3092   1.289   4.351   5.424
  217POPC   C4A 3093   1.427   4.586   5.772
  217POPC   C1B 3094   1.058   3.798   4.679
  217POPC   C2B 3095   0.970   3.904   5.127
  217POPC   C3B 3096   0.972   3.980   5.578
  217POPC   C4B 3097   1.333   4.066   5.856
  218POPC   NC3 3098   1.669   3.651   3.751
  218POPC   PO4 3099   2.211   3.743   3.979
  218POPC   GL1 3100   2.049   3.607   4.335
  218POPC   GL2 3101   2.206   3.300   4.310
  218POPC   C1A 3102   1.961   3.764   4.725
  218POPC   D2A 3103   1.890   3.935   5.122
  218POPC   C3A 3104   1.952   3.676   5.439
  218POPC   C4A 3105   2.130   3.713   5.822
  218POPC   C1B 3106   1.968   3.236   4.715
  218POPC   C2B 3107   2.066   3.235   5.169
  218POPC   C3B 3108   1.962   3.202   5.626
  218POPC   C4B 3109   2.168   3.261   6.017
  219POPC   NC3 3110  10.587   1.123   3.814
  219POPC   PO4 3111   9.959   1.246   3.899
  219POPC   GL1 3112  10.226   1.089   4.269
  219POPC   GL2 3113  10.624   1.090   4.323
  219POPC   C1A 3114  10.312   1.161   4.724
  219POPC   D2A 3115  10.072   1.248   5.105
  219POPC   C3A 3116  10.024   1.643   5.305
  219POPC   C4A 3117   9.933   1.461   5.698
  219POPC   C1B 3118  10.823   1.054   4.738
  219POPC   C2B 3119  10.619   0.959   5.118
  219POPC   C3B 3120  10.433   1.096   5.508
  219POPC   C4B 3121  10.645   1.022   5.899
  220POPC   NC3 3122   8.698   3.563   3.870
  220POPC   PO4 3123   9.289   3.296   3.681
  220POPC   GL1 3124   9.153   3.338   4.158
  220POPC   GL2 3125   8.832   3.399   4.327
  220POPC   C1A 3126   9.248   3.539   4.608
  220POPC   D2A 3127   9.240   3.819   5.006
  220POPC   C3A 3128   9.122   3.599   5.398
  220POPC   C4A 3129   9.000   3.416   5.795
  220POPC   C1B 3130   8.560   3.315   4.689
  220POPC   C2B 3131   8.491   3.212   5.145
  220POPC   C3B 3132   8.523   3.377   5.569
  220POPC   C4B 3133   8.368   3.663   5.903
  221POPC   NC3 3134   0.859   0.514   3.850
  221POPC   PO4 3135   1.418   0.181   3.801
  221POPC   GL1 3136   1.154   0.294   4.181
  221POPC   GL2 3137   1.138   0.625   4.323
  221POPC   C1A 3138   1.049   0.195   4.604
  221POPC   D2A 3139   0.985   0.358   5.006
  221POPC   C3A 3140   0.828   0.172   5.359
  221POPC   C4A 3141   0.988   0.347   5.724
  221POPC   C1B 3142   1.350   0.624   4.739
  221POPC   C2B 3143   1.606   0.566   5.134
  221POPC   C3B 3144   1.587   0.350   5.565
  221POPC   C4B 3145   1.391   0.542   5.950
  222POPC   NC3 3146   1.515   8.786   4.098
  222POPC   PO4 3147   0.852   8.862   3.927
  222POPC   GL1 3148   1.043   8.674   4.268
  222POPC   GL2 3149   1.113   9.000   4.394
  222POPC   C1A 3150   1.224   8.542   4.672
  222POPC   D2A 3151   1.024   8.641   5.074
  222POPC   C3A 3152   1.251   8.544   5.444
  222POPC   C4A 3153   1.354   8.663   5.850
  222POPC   C1B 3154   1.301   9.027   4.801
  222POPC   C2B 3155   1.341   9.027   5.224
  222POPC   C3B 3156   1.010   9.000   5.486
  222POPC   C4B 3157   1.155   9.145   5.852
  223POPC   NC3 3158   9.995   0.629   3.836
  223POPC   PO4 3159   9.700  11.478   3.827
  223POPC   GL1 3160   9.749   0.281   4.176
  223POPC   GL2 3161   9.424   0.304   4.233
  223POPC   C1A 3162   9.675   0.334   4.655
  223POPC   D2A 3163   9.904   0.330   5.003
  223POPC   C3A 3164   9.698   0.384   5.366
  223POPC   C4A 3165   9.811   0.477   5.768
  223POPC   C1B 3166   9.251   0.585   4.526
  223POPC   C2B 3167   9.268   0.471   4.969
  223POPC   C3B 3168   9.253   0.636   5.391
  223POPC   C4B 3169   9.365   0.710   5.791
  224POPC   NC3 3170   8.096   2.934   4.001
  224POPC   PO4 3171   7.889   2.338   3.637
  224POPC   GL1 3172   8.136   2.436   4.055
  224POPC   GL2 3173   7.959   2.456   4.337
  224POPC   C1A 3174   8.449   2.539   4.434
  224POPC   D2A 3175   8.512   2.806   4.826
  224POPC   C3A 3176   8.523   2.720   5.316
  224POPC   C4A 3177   8.386   2.568   5.758
  224POPC   C1B 3178   7.983   2.713   4.688
  224POPC   C2B 3179   8.039   2.943   5.058
  224POPC   C3B 3180   8.071   2.885   5.498
  224POPC   C4B 3181   7.873   2.757   5.880
  225POPC   NC3 3182   7.502   0.888   3.876
  225POPC   PO4 3183   7.599   1.598   3.902
  225POPC   GL1 3184   7.538   1.365   4.312
  225POPC   GL2 3185   7.460   1.001   4.385
  225POPC   C1A 3186   7.544   1.304   4.777
  225POPC   D2A 3187   7.585   1.304   5.224
  225POPC   C3A 3188   7.565   1.088   5.596
  225POPC   C4A 3189   7.619   1.448   5.794
  225POPC   C1B 3190   7.063   1.137   4.674
  225POPC   C2B 3191   6.919   1.360   5.062
  225POPC   C3B 3192   7.102   1.245   5.457
  225POPC   C4B 3193   7.072   0.958   5.826
  226POPC   NC3 3194  10.297   4.887   3.817
  226POPC   PO4 3195  10.812   5.389   3.960
  226POPC   GL1 3196  10.562   5.064   4.222
  226POPC   GL2 3197  10.156   5.004   4.290
  226POPC   C1A 3198  10.591   5.108   4.686
  226POPC   D2A 3199  10.424   5.235   5.087
  226POPC   C3A 3200  10.616   5.292   5.488
  226POPC   C4A 3201  10.410   5.160   5.874
  226POPC   C1B 3202  10.322   4.690   4.552
  226POPC   C2B 3203  10.332   4.739   5.009
  226POPC   C3B 3204  10.231   4.921   5.431
  226POPC   C4B 3205  10.025   4.754   5.763
  227POPC   NC3 3206   2.177   4.208   3.986
  227POPC   PO4 3207   1.507   4.087   3.812
  227POPC   GL1 3208   1.653   3.940   4.267
  227POPC   GL2 3209   1.892   4.136   4.378
  227POPC   C1A 3210   1.588   4.118   4.767
  227POPC   D2A 3211   1.752   4.399   5.177
  227POPC   C3A 3212   1.753   4.145   5.583
  227POPC   C4A 3213   1.833   4.056   6.037
  227POPC   C1B 3214   2.108   4.257   4.733
  227POPC   C2B 3215   2.262   4.261   5.138
  227POPC   C3B 3216   2.257   4.091   5.516
  227POPC   C4B 3217   2.321   4.238   5.946
  228POPC   NC3 3218  11.047   4.261   3.889
  228POPC   PO4 3219  11.495   4.737   3.886
  228POPC   GL1 3220   0.017   4.538   4.266
  228POPC   GL2 3221  11.161   4.555   4.317
  228POPC   C1A 3222   0.199   4.421   4.670
  228POPC   D2A 3223   0.189   4.456   5.122
  228POPC   C3A 3224  11.369   4.342   5.407
  228POPC   C4A 3225  11.181   4.548   5.784
  228POPC   C1B 3226  11.270   4.144   4.538
  228POPC   C2B 3227  11.406   3.993   4.956
  228POPC   C3B 3228  11.291   3.834   5.371
  228POPC   C4B 3229  11.147   4.030   5.753
  229POPC   NC3 3230   3.455   5.740   4.015
  229POPC   PO4 3231   3.870   5.531   4.300
  229POPC   GL1 3232   3.595   5.790   4.571
  229POPC   GL2 3233   3.352   6.027   4.434
  229POPC   C1A 3234   3.506   5.883   5.035
  229POPC   D2A 3235   3.590   5.729   5.498
  229POPC   C3A 3236   3.719   6.047   5.818
  229POPC   C4A 3237   3.806   6.257   6.215
  229POPC   C1B 3238   3.103   5.728   4.714
  229POPC   C2B 3239   3.103   5.592   5.162
  229POPC   C3B 3240   3.114   5.597   5.602
  229POPC   C4B 3241   3.206   5.902   5.911
  230POPC   NC3 3242   9.118   2.900   3.836
  230POPC   PO4 3243   8.518   3.131   3.969
  230POPC   GL1 3244   8.804   2.885   4.249
  230POPC   GL2 3245   8.899   2.512   4.134
  230POPC   C1A 3246   9.011   3.040   4.634
  230POPC   D2A 3247   8.977   3.326   4.984
  230POPC   C3A 3248   8.949   3.105   5.381
  230POPC   C4A 3249   8.739   2.957   5.752
  230POPC   C1B 3250   8.972   2.524   4.595
  230POPC   C2B 3251   8.970   2.689   5.032
  230POPC   C3B 3252   9.031   2.604   5.478
  230POPC   C4B 3253   8.945   2.527   5.928
  231POPC   NC3 3254   9.960   3.143   4.079
  231POPC   PO4 3255  10.247   2.471   3.957
  231POPC   GL1 3256  10.420   2.575   4.326
  231POPC   GL2 3257  10.763   2.561   4.275
  231POPC   C1A 3258  10.319   2.828   4.680
  231POPC   D2A 3259  10.386   2.723   5.118
  231POPC   C3A 3260  10.414   2.990   5.488
  231POPC   C4A 3261  10.248   2.795   5.854
  231POPC   C1B 3262  10.749   2.563   4.741
  231POPC   C2B 3263  10.779   2.406   5.153
  231POPC   C3B 3264  10.727   2.597   5.592
  231POPC   C4B 3265  10.728   2.814   6.007
  232POPC   NC3 3266   1.814   7.473   3.917
  232POPC   PO4 3267   2.445   7.711   3.950
  232POPC   GL1 3268   2.153   7.530   4.286
  232POPC   GL2 3269   2.038   7.163   4.232
  232POPC   C1A 3270   1.993   7.374   4.685
  232POPC   D2A 3271   1.788   7.464   5.021
  232POPC   C3A 3272   2.101   7.539   5.317
  232POPC   C4A 3273   2.186   7.747   5.715
  232POPC   C1B 3274   1.658   7.045   4.525
  232POPC   C2B 3275   1.648   6.943   4.976
  232POPC   C3B 3276   1.858   7.086   5.366
  232POPC   C4B 3277   2.102   7.233   5.746
  233POPC   NC3 3278   0.370   8.824   3.957
  233POPC   PO4 3279   0.103   8.286   4.257
  233POPC   GL1 3280   0.292   8.672   4.495
  233POPC   GL2 3281   0.590   8.892   4.402
  233POPC   C1A 3282   0.217   9.055   4.735
  233POPC   D2A 3283   0.035   9.197   5.111
  233POPC   C3A 3284   0.177   8.908   5.427
  233POPC   C4A 3285   0.229   8.663   5.818
  233POPC   C1B 3286   0.762   9.041   4.800
  233POPC   C2B 3287   0.570   9.168   5.207
  233POPC   C3B 3288   0.545   9.164   5.676
  233POPC   C4B 3289   0.740   8.828   5.900
  234POPC   NC3 3290   3.521   9.037   3.881
  234POPC   PO4 3291   3.266   8.495   4.061
  234POPC   GL1 3292   3.448   8.760   4.387
  234POPC   GL2 3293   3.440   9.127   4.399
  234POPC   C1A 3294   3.479   8.627   4.828
  234POPC   D2A 3295   3.738   8.658   5.196
  234POPC   C3A 3296   3.542   8.560   5.598
  234POPC   C4A 3297   3.436   8.464   6.043
  234POPC   C1B 3298   3.226   9.060   4.817
  234POPC   C2B 3299   3.290   8.934   5.265
  234POPC   C3B 3300   3.517   9.067   5.654
  234POPC   C4B 3301   3.356   9.037   6.077
  235POPC   NC3 3302   2.779   2.765   3.809
  235POPC   PO4 3303   3.221   2.186   3.866
  235POPC   GL1 3304   2.835   2.398   4.154
  235POPC   GL2 3305   2.885   2.770   4.349
  235POPC   C1A 3306   2.578   2.467   4.563
  235POPC   D2A 3307   2.809   2.593   4.965
  235POPC   C3A 3308   2.643   2.637   5.389
  235POPC   C4A 3309   2.836   2.710   5.782
  235POPC   C1B 3310   2.906   3.037   4.758
  235POPC   C2B 3311   2.585   3.096   5.141
  235POPC   C3B 3312   2.493   3.067   5.620
  235POPC   C4B 3313   2.556   2.978   6.094
  236POPC   NC3 3314   1.844   0.344   3.870
  236POPC   PO4 3315   1.691  11.243   4.116
  236POPC   GL1 3316   1.611   0.152   4.326
  236POPC   GL2 3317   1.673   0.540   4.317
  236POPC   C1A 3318   1.732   0.237   4.742
  236POPC   D2A 3319   2.110   0.086   4.942
  236POPC   C3A 3320   2.005  11.484   5.347
  236POPC   C4A 3321   2.171   0.142   5.709
  236POPC   C1B 3322   2.105   0.514   4.527
  236POPC   C2B 3323   2.172   0.607   4.977
  236POPC   C3B 3324   2.064   0.534   5.397
  236POPC   C4B 3325   2.389   0.629   5.709
  237POPC   NC3 3326   1.982   2.705   3.844
  237POPC   PO4 3327   2.426   3.080   3.778
  237POPC   GL1 3328   2.416   2.853   4.184
  237POPC   GL2 3329   2.092   2.767   4.339
  237POPC   C1A 3330   2.417   2.953   4.659
  237POPC   D2A 3331   2.307   2.641   4.987
  237POPC   C3A 3332   2.123   2.754   5.382
  237POPC   C4A 3333   2.166   2.762   5.839
  237POPC   C1B 3334   1.865   2.711   4.737
  237POPC   C2B 3335   1.529   2.520   4.984
  237POPC   C3B 3336   1.417   2.595   5.398
  237POPC   C4B 3337   1.695   2.734   5.679
  238POPC   NC3 3338   0.253   0.123   4.068
  238POPC   PO4 3339   0.418   0.751   3.832
  238POPC   GL1 3340   0.634   0.700   4.263
  238POPC   GL2 3341   0.641   0.368   4.308
  238POPC   C1A 3342   0.628   0.597   4.733
  238POPC   D2A 3343   0.474   0.451   5.114
  238POPC   C3A 3344   0.637   0.635   5.461
  238POPC   C4A 3345   0.387   0.746   5.737
  238POPC   C1B 3346   0.560   0.081   4.678
  238POPC   C2B 3347   0.397  11.456   5.075
  238POPC   C3B 3348   0.348   0.051   5.522
  238POPC   C4B 3349   0.506   0.276   5.855
  239POPC   NC3 3350   1.926   9.574   3.854
  239POPC   PO4 3351   2.576   9.494   4.089
  239POPC   GL1 3352   2.178   9.696   4.291
  239POPC   GL2 3353   1.792   9.621   4.317
  239POPC   C1A 3354   2.046   9.692   4.729
  239POPC   D2A 3355   2.202   9.561   5.099
  239POPC   C3A 3356   2.250   9.916   5.354
  239POPC   C4A 3357   2.059   9.668   5.676
  239POPC   C1B 3358   1.652   9.353   4.629
  239POPC   C2B 3359   1.516   9.462   5.014
  239POPC   C3B 3360   1.675   9.491   5.388
  239POPC   C4B 3361   1.540   9.506   5.777
  240POPC   NC3 3362   0.355   1.910   4.180
  240POPC   PO4 3363  11.483   2.344   3.825
  240POPC   GL1 3364   0.202   2.372   4.310
  240POPC   GL2 3365   0.551   2.234   4.513
  240POPC   C1A 3366   0.185   2.409   4.790
  240POPC   D2A 3367   0.304   2.377   5.225
  240POPC   C3A 3368   0.269   1.979   5.443
  240POPC   C4A 3369   0.093   1.880   5.867
  240POPC   C1B 3370   0.355   1.917   4.854
  240POPC   C2B 3371   0.518   1.618   5.192
  240POPC   C3B 3372   0.736   1.801   5.577
  240POPC   C4B 3373   0.641   2.242   5.716
  241POPC   NC3 3374   9.149   7.444   3.954
  241POPC   PO4 3375   8.680   7.824   4.073
  241POPC   GL1 3376   8.884   7.555   4.379
  241POPC   GL2 3377   9.037   7.208   4.413
  241POPC   C1A 3378   8.918   7.635   4.779
  241POPC   D2A 3379   8.825   7.539   5.199
  241POPC   C3A 3380   9.090   7.360   5.507
  241POPC   C4A 3381   8.901   7.313   5.936
  241POPC   C1B 3382   8.963   7.128   4.881
  241POPC   C2B 3383   8.914   6.909   5.311
  241POPC   C3B 3384   8.914   6.831   5.776
  241POPC   C4B 3385   9.092   6.877   6.238
  242POPC   NC3 3386   2.897  10.870   3.912
  242POPC   PO4 3387   2.371  11.380   3.839
  242POPC   GL1 3388   2.543  11.138   4.203
  242POPC   GL2 3389   2.907  11.201   4.294
  242POPC   C1A 3390   2.568  11.316   4.635
  242POPC   D2A 3391   2.788  11.427   5.027
  242POPC   C3A 3392   2.541  11.322   5.401
  242POPC   C4A 3393   2.718  11.079   5.684
  242POPC   C1B 3394   2.919  10.904   4.599
  242POPC   C2B 3395   2.943  10.923   5.043
  242POPC   C3B 3396   3.143  10.851   5.437
  242POPC   C4B 3397   3.050  10.739   5.820
  243POPC   NC3 3398   6.459   2.053   3.920
  243POPC   PO4 3399   6.488   1.349   3.843
  243POPC   GL1 3400   6.475   1.598   4.202
  243POPC   GL2 3401   6.785   1.781   4.269
  243POPC   C1A 3402   6.329   1.660   4.618
  243POPC   D2A 3403   6.284   1.580   5.062
  243POPC   C3A 3404   6.602   1.745   5.361
  243POPC   C4A 3405   6.533   1.910   5.783
  243POPC   C1B 3406   6.964   1.883   4.698
  243POPC   C2B 3407   7.001   2.034   5.164
  243POPC   C3B 3408   6.811   2.238   5.515
  243POPC   C4B 3409   6.557   2.441   5.837
  244POPC   NC3 3410   9.514   1.392   3.750
  244POPC   PO4 3411   9.547   0.733   3.866
  244POPC   GL1 3412   9.702   0.951   4.238
  244POPC   GL2 3413   9.404   1.109   4.393
  244POPC   C1A 3414   9.804   1.054   4.685
  244POPC   D2A 3415   9.638   0.801   4.988
  244POPC   C3A 3416   9.737   0.894   5.381
  244POPC   C4A 3417   9.791   0.984   5.782
  244POPC   C1B 3418   9.401   1.370   4.786
  244POPC   C2B 3419   9.559   1.331   5.187
  244POPC   C3B 3420   9.420   1.252   5.586
  244POPC   C4B 3421   9.495   1.398   6.017
  245POPC   NC3 3422   8.070   8.695   3.728
  245POPC   PO4 3423   8.199   9.245   3.739
  245POPC   GL1 3424   8.140   8.982   4.189
  245POPC   GL2 3425   7.922   9.176   4.392
  245POPC   C1A 3426   8.276   9.016   4.699
  245POPC   D2A 3427   7.989   9.016   5.034
  245POPC   C3A 3428   8.263   8.999   5.407
  245POPC   C4A 3429   8.194   9.143   5.831
  245POPC   C1B 3430   7.882   8.712   4.611
  245POPC   C2B 3431   7.768   8.537   5.037
  245POPC   C3B 3432   7.922   8.486   5.464
  245POPC   C4B 3433   8.260   8.624   5.741
  246POPC   NC3 3434   7.595   8.095   4.030
  246POPC   PO4 3435   7.131   7.685   3.871
  246POPC   GL1 3436   7.184   7.937   4.318
  246POPC   GL2 3437   7.274   8.323   4.345
  246POPC   C1A 3438   7.189   8.085   4.793
  246POPC   D2A 3439   7.501   8.108   5.158
  246POPC   C3A 3440   7.364   8.001   5.589
  246POPC   C4A 3441   7.283   7.961   6.055
  246POPC   C1B 3442   7.364   8.577   4.698
  246POPC   C2B 3443   7.209   8.520   5.093
  246POPC   C3B 3444   7.397   8.528   5.486
  246POPC   C4B 3445   7.139   8.399   5.826
  247POPC   NC3 3446   4.331   2.331   3.922
  247POPC   PO4 3447   4.145   1.702   3.708
  247POPC   GL1 3448   4.115   1.902   4.116
  247POPC   GL2 3449   4.426   1.923   4.338
  247POPC   C1A 3450   3.941   1.884   4.537
  247POPC   D2A 3451   4.021   2.140   4.917
  247POPC   C3A 3452   4.037   1.909   5.314
  247POPC   C4A 3453   4.078   1.639   5.702
  247POPC   C1B 3454   4.364   1.768   4.804
  247POPC   C2B 3455   4.425   1.569   5.220
  247POPC   C3B 3456   4.558   1.775   5.578
  247POPC   C4B 3457   4.318   2.177   5.654
  248POPC   NC3 3458  10.858   0.354   4.231
  248POPC   PO4 3459  10.451   0.671   3.751
  248POPC   GL1 3460  10.436   0.627   4.194
  248POPC   GL2 3461  10.273   0.314   4.281
  248POPC   C1A 3462  10.526   0.640   4.678
  248POPC   D2A 3463  10.439   0.341   5.022
  248POPC   C3A 3464  10.655   0.511   5.365
  248POPC   C4A 3465  10.584   0.438   5.765
  248POPC   C1B 3466  10.053   0.641   4.545
  248POPC   C2B 3467  10.145   0.765   5.003
  248POPC   C3B 3468  10.176   0.650   5.446
  248POPC   C4B 3469  10.224   0.774   5.897
  249POPC   NC3 3470   9.196   0.446   3.825
  249POPC   PO4 3471   8.671   0.068   3.739
  249POPC   GL1 3472   9.022   0.004   4.100
  249POPC   GL2 3473   8.884   0.263   4.266
  249POPC   C1A 3474   9.180   0.074   4.627
  249POPC   D2A 3475   8.994   0.075   5.127
  249POPC   C3A 3476   9.244   0.150   5.530
  249POPC   C4A 3477   9.214   0.263   5.976
  249POPC   C1B 3478   8.778   0.373   4.713
  249POPC   C2B 3479   8.799   0.567   5.134
  249POPC   C3B 3480   8.792   0.388   5.520
  249POPC   C4B 3481   8.838   0.648   5.821
  250POPC   NC3 3482   7.852   1.992   3.942
  250POPC   PO4 3483   8.447   1.647   3.829
  250POPC   GL1 3484   8.213   1.674   4.228
  250POPC   GL2 3485   8.197   2.002   4.330
  250POPC   C1A 3486   7.985   1.686   4.659
  250POPC   D2A 3487   8.094   1.875   5.089
  250POPC   C3A 3488   7.851   1.788   5.442
  250POPC   C4A 3489   7.742   1.946   5.845
  250POPC   C1B 3490   8.177   2.213   4.723
  250POPC   C2B 3491   8.082   2.428   5.116
  250POPC   C3B 3492   7.973   2.320   5.537
  250POPC   C4B 3493   8.251   2.034   5.720
  251POPC   NC3 3494   2.928   8.362   3.798
  251POPC   PO4 3495   2.294   8.545   3.951
  251POPC   GL1 3496   2.360   8.375   4.405
  251POPC   GL2 3497   2.345   7.993   4.431
  251POPC   C1A 3498   2.506   8.315   4.883
  251POPC   D2A 3499   2.848   8.186   5.224
  251POPC   C3A 3500   3.068   8.228   5.660
  251POPC   C4A 3501   2.878   8.339   6.073
  251POPC   C1B 3502   2.363   7.775   4.853
  251POPC   C2B 3503   2.367   7.981   5.278
  251POPC   C3B 3504   2.570   8.078   5.694
  251POPC   C4B 3505   2.450   7.955   6.119
  252POPC   NC3 3506   6.537   3.606   4.017
  252POPC   PO4 3507   6.932   3.437   4.206
  252POPC   GL1 3508   6.633   3.592   4.522
  252POPC   GL2 3509   6.343   3.385   4.479
  252POPC   C1A 3510   6.447   3.638   4.958
  252POPC   D2A 3511   6.277   3.937   5.285
  252POPC   C3A 3512   6.543   3.912   5.655
  252POPC   C4A 3513   6.850   3.561   5.811
  252POPC   C1B 3514   6.644   3.152   4.768
  252POPC   C2B 3515   6.769   3.262   5.186
  252POPC   C3B 3516   6.482   3.443   5.468
  252POPC   C4B 3517   6.177   3.540   5.774
  253POPC   NC3 3518   8.169   9.665   3.950
  253POPC   PO4 3519   7.660  10.055   4.009
  253POPC   GL1 3520   7.903   9.869   4.344
  253POPC   GL2 3521   8.271   9.835   4.424
  253POPC   C1A 3522   7.944  10.039   4.766
  253POPC   D2A 3523   7.914   9.802   5.138
  253POPC   C3A 3524   7.684   9.822   5.515
  253POPC   C4A 3525   7.656   9.902   5.962
  253POPC   C1B 3526   8.165   9.561   4.759
  253POPC   C2B 3527   8.259   9.426   5.127
  253POPC   C3B 3528   7.992   9.426   5.473
  253POPC   C4B 3529   8.104   9.676   5.820
  254POPC   NC3 3530   9.284   9.995   3.675
  254POPC   PO4 3531   9.142   9.356   4.001
  254POPC   GL1 3532   9.291   9.678   4.277
  254POPC   GL2 3533   9.681   9.752   4.342
  254POPC   C1A 3534   9.202   9.672   4.704
  254POPC   D2A 3535   9.227   9.382   5.066
  254POPC   C3A 3536   9.194   9.529   5.500
  254POPC   C4A 3537   9.414   9.566   5.887
  254POPC   C1B 3538   9.877   9.663   4.794
  254POPC   C2B 3539   9.888   9.629   5.262
  254POPC   C3B 3540  10.008   9.485   5.664
  254POPC   C4B 3541  10.006   9.438   6.135
  255POPC   NC3 3542   5.230   0.945   3.980
  255POPC   PO4 3543   5.133   1.562   3.641
  255POPC   GL1 3544   5.039   1.386   4.135
  255POPC   GL2 3545   4.790   1.086   4.230
  255POPC   C1A 3546   5.087   1.264   4.593
  255POPC   D2A 3547   5.205   1.374   5.009
  255POPC   C3A 3548   4.896   1.357   5.330
  255POPC   C4A 3549   4.902   1.364   5.770
  255POPC   C1B 3550   4.757   0.840   4.611
  255POPC   C2B 3551   4.950   0.926   5.013
  255POPC   C3B 3552   5.080   0.895   5.428
  255POPC   C4B 3553   5.173   0.951   5.851
  256POPC   NC3 3554   0.236   7.970   3.955
  256POPC   PO4 3555   0.859   7.769   4.011
  256POPC   GL1 3556   0.586   8.004   4.319
  256POPC   GL2 3557   0.613   8.369   4.228
  256POPC   C1A 3558   0.431   8.063   4.754
  256POPC   D2A 3559   0.190   7.910   5.101
  256POPC   C3A 3560   0.387   8.065   5.479
  256POPC   C4A 3561   0.434   7.845   5.865
  256POPC   C1B 3562   0.723   8.482   4.663
  256POPC   C2B 3563   0.500   8.645   5.031
  256POPC   C3B 3564   0.610   8.586   5.466
  256POPC   C4B 3565   0.616   8.327   5.867
  257POPC   NC3 3566  10.206   7.312   4.218
  257POPC   PO4 3567   9.612   7.495   3.919
  257POPC   GL1 3568   9.736   7.510   4.355
  257POPC   GL2 3569   9.412   7.551   4.383
  257POPC   C1A 3570   9.935   7.446   4.806
  257POPC   D2A 3571  10.091   7.386   5.242
  257POPC   C3A 3572   9.853   7.644   5.516
  257POPC   C4A 3573   9.662   7.543   5.928
  257POPC   C1B 3574   9.389   7.430   4.789
  257POPC   C2B 3575   9.520   7.443   5.192
  257POPC   C3B 3576   9.609   7.182   5.532
  257POPC   C4B 3577   9.354   7.101   5.871
  258POPC   NC3 3578   8.280  11.150   3.678
  258POPC   PO4 3579   8.807  10.985   4.063
  258POPC   GL1 3580   8.828  11.179   4.438
  258POPC   GL2 3581   9.134  11.114   4.442
  258POPC   C1A 3582   8.666  11.362   4.798
  258POPC   D2A 3583   8.629  11.189   5.214
  258POPC   C3A 3584   8.575  11.423   5.585
  258POPC   C4A 3585   8.827  11.466   5.953
  258POPC   C1B 3586   9.131  11.150   4.887
  258POPC   C2B 3587   9.099  10.930   5.218
  258POPC   C3B 3588   9.044  11.179   5.555
  258POPC   C4B 3589   9.323  11.264   5.901
  259POPC   NC3 3590   1.729   6.607   3.728
  259POPC   PO4 3591   2.218   6.252   3.770
  259POPC   GL1 3592   1.916   6.358   4.140
  259POPC   GL2 3593   1.869   6.689   4.214
  259POPC   C1A 3594   1.820   6.310   4.625
  259POPC   D2A 3595   1.704   6.190   5.077
  259POPC   C3A 3596   1.904   6.315   5.499
  259POPC   C4A 3597   2.269   6.387   5.815
  259POPC   C1B 3598   2.059   6.770   4.648
  259POPC   C2B 3599   2.082   6.612   5.078
  259POPC   C3B 3600   2.222   6.764   5.484
  259POPC   C4B 3601   1.892   6.765   5.789
  260POPC   NC3 3602  11.195   5.646   3.912
  260POPC   PO4 3603  10.762   6.185   3.981
  260POPC   GL1 3604  10.911   5.883   4.274
  260POPC   GL2 3605  11.277   5.888   4.346
  260POPC   C1A 3606  10.943   5.718   4.697
  260POPC   D2A 3607  10.731   5.634   5.087
  260POPC   C3A 3608  10.929   5.745   5.467
  260POPC   C4A 3609  10.810   5.584   5.856
  260POPC   C1B 3610  11.459   5.921   4.759
  260POPC   C2B 3611  11.371   5.931   5.195
  260POPC   C3B 3612  11.422   5.740   5.595
  260POPC   C4B 3613  11.177   5.913   5.953
  261POPC   NC3 3614   5.127   9.275   4.006
  261POPC   PO4 3615   5.240  10.021   3.838
  261POPC   GL1 3616   5.109   9.793   4.190
  261POPC   GL2 3617   5.242   9.521   4.424
  261POPC   C1A 3618   4.973   9.917   4.602
  261POPC   D2A 3619   4.963   9.748   5.005
  261POPC   C3A 3620   4.921   9.922   5.389
  261POPC   C4A 3621   4.982   9.734   5.801
  261POPC   C1B 3622   4.917   9.335   4.713
  261POPC   C2B 3623   4.730   9.307   5.153
  261POPC   C3B 3624   4.706   9.302   5.620
  261POPC   C4B 3625   4.676   9.396   6.079
  262POPC   NC3 3626  10.894   6.636   3.952
  262POPC   PO4 3627  11.372   6.977   3.981
  262POPC   GL1 3628  11.226   6.769   4.323
  262POPC   GL2 3629  11.225   6.407   4.264
  262POPC   C1A 3630  11.324   6.707   4.721
  262POPC   D2A 3631  11.166   6.552   5.071
  262POPC   C3A 3632  11.203   6.771   5.445
  262POPC   C4A 3633  11.313   7.023   5.787
  262POPC   C1B 3634  11.047   6.247   4.641
  262POPC   C2B 3635  10.918   6.108   5.043
  262POPC   C3B 3636  11.063   6.239   5.463
  262POPC   C4B 3637  11.168   6.416   5.848
  263POPC   NC3 3638  11.135   7.387   3.855
  263POPC   PO4 3639  10.549   6.921   3.771
  263POPC   GL1 3640  10.860   7.098   4.166
  263POPC   GL2 3641  11.072   7.401   4.337
  263POPC   C1A 3642  10.950   7.053   4.675
  263POPC   D2A 3643  10.844   6.983   5.127
  263POPC   C3A 3644  10.885   7.185   5.521
  263POPC   C4A 3645  10.839   7.033   5.959
  263POPC   C1B 3646  11.417   7.236   4.615
  263POPC   C2B 3647  11.343   7.134   5.064
  263POPC   C3B 3648  11.345   7.405   5.444
  263POPC   C4B 3649  11.118   7.514   5.860
  264POPC   NC3 3650   5.293  10.553   3.780
  264POPC   PO4 3651   5.923  10.537   3.986
  264POPC   GL1 3652   5.889  10.531   4.390
  264POPC   GL2 3653   5.988  10.185   4.341
  264POPC   C1A 3654   5.735  10.695   4.810
  264POPC   D2A 3655   5.571  10.818   5.240
  264POPC   C3A 3656   5.640  10.566   5.614
  264POPC   C4A 3657   5.741  10.647   6.049
  264POPC   C1B 3658   5.836  10.174   4.754
  264POPC   C2B 3659   5.670  10.287   5.136
  264POPC   C3B 3660   5.790  10.089   5.496
  264POPC   C4B 3661   5.824  10.162   5.899
  265POPC   NC3 3662   0.124   3.446   3.953
  265POPC   PO4 3663  11.113   3.813   3.862
  265POPC   GL1 3664  11.208   3.528   4.212
  265POPC   GL2 3665  10.946   3.357   4.342
  265POPC   C1A 3666  11.415   3.340   4.586
  265POPC   D2A 3667  11.223   3.215   4.996
  265POPC   C3A 3668  11.370   3.307   5.436
  265POPC   C4A 3669  11.446   3.162   5.871
  265POPC   C1B 3670  11.063   3.679   4.680
  265POPC   C2B 3671  10.914   3.629   5.086
  265POPC   C3B 3672  10.882   3.550   5.503
  265POPC   C4B 3673  11.119   3.543   5.866
  266POPC   NC3 3674   1.234  11.318   4.017
  266POPC   PO4 3675   1.286  10.691   3.770
  266POPC   GL1 3676   1.348  10.831   4.259
  266POPC   GL2 3677   1.083  11.057   4.406
  266POPC   C1A 3678   1.306  10.795   4.771
  266POPC   D2A 3679   1.024  10.818   5.167
  266POPC   C3A 3680   1.147  10.926   5.621
  266POPC   C4A 3681   1.501  10.866   5.917
  266POPC   C1B 3682   1.374  11.318   4.694
  266POPC   C2B 3683   1.401   0.043   5.097
  266POPC   C3B 3684   1.251  11.425   5.500
  266POPC   C4B 3685   1.280  11.483   5.932
  267POPC   NC3 3686   1.562   5.007   3.767
  267POPC   PO4 3687   0.959   5.361   3.738
  267POPC   GL1 3688   1.113   5.338   4.164
  267POPC   GL2 3689   1.256   5.013   4.180
  267POPC   C1A 3690   1.298   5.373   4.596
  267POPC   D2A 3691   1.143   5.380   5.037
  267POPC   C3A 3692   1.347   5.422   5.429
  267POPC   C4A 3693   1.450   5.153   5.779
  267POPC   C1B 3694   1.211   4.834   4.606
  267POPC   C2B 3695   0.999   4.895   4.996
  267POPC   C3B 3696   1.162   4.878   5.413
  267POPC   C4B 3697   0.980   4.897   5.841
  268POPC   NC3 3698   1.181   6.757   4.033
  268POPC   PO4 3699   1.499   6.200   3.809
  268POPC   GL1 3700   1.423   6.253   4.276
  268POPC   GL2 3701   1.427   6.581   4.438
  268POPC   C1A 3702   1.162   6.224   4.696
  268POPC   D2A 3703   1.226   6.386   5.132
  268POPC   C3A 3704   1.006   6.327   5.535
  268POPC   C4A 3705   1.414   6.510   5.713
  268POPC   C1B 3706   1.138   6.747   4.750
  268POPC   C2B 3707   1.135   6.907   5.160
  268POPC   C3B 3708   1.032   6.829   5.570
  268POPC   C4B 3709   1.026   7.013   5.936
  269POPC   NC3 3710   0.611   5.275   4.049
  269POPC   PO4 3711   0.767   4.580   3.930
  269POPC   GL1 3712   0.483   4.783   4.234
  269POPC   GL2 3713   0.785   4.909   4.351
  269POPC   C1A 3714   0.407   4.949   4.697
  269POPC   D2A 3715   0.528   4.816   5.159
  269POPC   C3A 3716   0.437   5.001   5.564
  269POPC   C4A 3717   0.451   4.891   6.023
  269POPC   C1B 3718   0.816   5.241   4.657
  269POPC   C2B 3719   0.646   5.292   5.068
  269POPC   C3B 3720   0.852   5.281   5.464
  269POPC   C4B 3721   0.696   5.318   5.873
  270POPC   NC3 3722   6.496   0.880   3.768
  270POPC   PO4 3723   7.059   0.939   4.064
  270POPC   GL1 3724   6.662   0.807   4.276
  270POPC   GL2 3725   6.353   1.045   4.245
  270POPC   C1A 3726   6.656   0.683   4.716
  270POPC   D2A 3727   6.878   0.845   5.075
  270POPC   C3A 3728   6.702   0.858   5.487
  270POPC   C4A 3729   6.442   0.910   5.845
  270POPC   C1B 3730   6.493   1.172   4.667
  270POPC   C2B 3731   6.449   1.112   5.108
  270POPC   C3B 3732   6.376   1.300   5.496
  270POPC   C4B 3733   6.714   1.390   5.731
  271POPC   NC3 3734  10.243   7.304   3.673
  271POPC   PO4 3735  10.583   7.568   4.148
  271POPC   GL1 3736  10.590   7.354   4.525
  271POPC   GL2 3737  10.486   6.991   4.479
  271POPC   C1A 3738  10.485   7.296   4.915
  271POPC   D2A 3739  10.617   7.563   5.201
  271POPC   C3A 3740  10.515   7.540   5.593
  271POPC   C4A 3741  10.683   7.865   5.810
  271POPC   C1B 3742  10.235   6.857   4.796
  271POPC   C2B 3743  10.344   6.904   5.228
  271POPC   C3B 3744  10.395   7.054   5.595
  271POPC   C4B 3745  10.063   7.263   5.760
  272POPC   NC3 3746   9.563   7.980   3.959
  272POPC   PO4 3747  10.103   7.770   3.640
  272POPC   GL1 3748  10.049   7.841   4.109
  272POPC   GL2 3749   9.984   8.218   4.185
  272POPC   C1A 3750   9.917   7.920   4.585
  272POPC   D2A 3751   9.709   7.889   5.002
  272POPC   C3A 3752   9.787   8.145   5.400
  272POPC   C4A 3753   9.827   8.023   5.846
  272POPC   C1B 3754   9.624   8.353   4.511
  272POPC   C2B 3755   9.336   8.374   4.899
  272POPC   C3B 3756   9.297   8.327   5.340
  272POPC   C4B 3757   9.398   8.268   5.763
  273POPC   NC3 3758   0.955   9.338   3.842
  273POPC   PO4 3759   1.597   9.227   3.992
  273POPC   GL1 3760   1.292   9.466   4.254
  273POPC   GL2 3761   1.320   9.854   4.293
  273POPC   C1A 3762   1.144   9.496   4.655
  273POPC   D2A 3763   0.938   9.493   5.040
  273POPC   C3A 3764   1.141   9.513   5.436
  273POPC   C4A 3765   0.868   9.559   5.801
  273POPC   C1B 3766   1.534   9.865   4.677
  273POPC   C2B 3767   1.259   9.900   5.011
  273POPC   C3B 3768   1.308  10.032   5.405
  273POPC   C4B 3769   1.214   9.925   5.814
  274POPC   NC3 3770   0.584   6.085   3.787
  274POPC   PO4 3771   0.714   6.778   3.966
  274POPC   GL1 3772   0.455   6.438   4.156
  274POPC   GL2 3773   0.675   6.186   4.306
  274POPC   C1A 3774   0.182   6.355   4.535
  274POPC   D2A 3775   0.242   6.535   4.966
  274POPC   C3A 3776   0.067   6.398   5.364
  274POPC   C4A 3777   0.115   6.629   5.739
  274POPC   C1B 3778   0.691   6.467   4.658
  274POPC   C2B 3779   0.725   6.412   5.100
  274POPC   C3B 3780   0.560   6.621   5.460
  274POPC   C4B 3781   0.536   6.928   5.791
  275POPC   NC3 3782   4.732  10.034   3.923
  275POPC   PO4 3783   4.885  10.726   3.907
  275POPC   GL1 3784   5.052  10.392   4.198
  275POPC   GL2 3785   5.451  10.332   4.193
  275POPC   C1A 3786   4.842  10.410   4.600
  275POPC   D2A 3787   4.639  10.179   4.920
  275POPC   C3A 3788   4.716  10.389   5.299
  275POPC   C4A 3789   4.794  10.676   5.635
  275POPC   C1B 3790   5.360  10.308   4.624
  275POPC   C2B 3791   5.148  10.258   5.010
  275POPC   C3B 3792   5.209  10.365   5.432
  275POPC   C4B 3793   5.335  10.118   5.762
  276POPC   NC3 3794   4.609   2.863   3.955
  276POPC   PO4 3795   4.018   3.061   3.983
  276POPC   GL1 3796   4.219   2.709   4.269
  276POPC   GL2 3797   4.110   2.360   4.379
  276POPC   C1A 3798   4.396   2.601   4.708
  276POPC   D2A 3799   4.224   2.567   5.139
  276POPC   C3A 3800   4.485   2.646   5.520
  276POPC   C4A 3801   4.847   2.649   5.805
  276POPC   C1B 3802   3.876   2.602   4.685
  276POPC   C2B 3803   3.681   2.496   5.090
  276POPC   C3B 3804   3.877   2.392   5.471
  276POPC   C4B 3805   4.083   2.585   5.833
  277POPC   NC3 3806   8.710   4.624   3.861
  277POPC   PO4 3807   8.770   4.013   3.849
  277POPC   GL1 3808   8.973   3.889   4.251
  277POPC   GL2 3809   9.095   4.182   4.426
  277POPC   C1A 3810   8.830   3.812   4.705
  277POPC   D2A 3811   8.682   3.699   5.147
  277POPC   C3A 3812   8.730   3.850   5.587
  277POPC   C4A 3813   8.521   4.162   5.823
  277POPC   C1B 3814   9.015   4.302   4.863
  277POPC   C2B 3815   8.974   4.166   5.292
  277POPC   C3B 3816   9.042   4.264   5.741
  277POPC   C4B 3817   8.848   4.361   6.154
  278POPC   NC3 3818   1.035   2.924   4.039
  278POPC   PO4 3819   1.249   3.520   3.820
  278POPC   GL1 3820   1.282   3.557   4.229
  278POPC   GL2 3821   1.033   3.357   4.312
  278POPC   C1A 3822   1.504   3.544   4.615
  278POPC   D2A 3823   1.634   3.524   5.039
  278POPC   C3A 3824   1.446   3.803   5.341
  278POPC   C4A 3825   1.556   3.630   5.737
  278POPC   C1B 3826   0.983   3.233   4.722
  278POPC   C2B 3827   1.141   3.407   5.092
  278POPC   C3B 3828   1.103   3.481   5.519
  278POPC   C4B 3829   0.876   3.217   5.821
  279POPC   NC3 3830   3.127   1.140   3.724
  279POPC   PO4 3831   2.771   1.416   4.151
  279POPC   GL1 3832   2.794   1.118   4.439
  279POPC   GL2 3833   2.497   0.882   4.379
  279POPC   C1A 3834   2.905   1.213   4.893
  279POPC   D2A 3835   3.230   1.315   5.220
  279POPC   C3A 3836   3.065   1.257   5.652
  279POPC   C4A 3837   2.979   1.030   6.052
  279POPC   C1B 3838   2.324   1.236   4.597
  279POPC   C2B 3839   2.359   1.169   4.994
  279POPC   C3B 3840   2.628   1.277   5.356
  279POPC   C4B 3841   2.574   1.175   5.782
  280POPC   NC3 3842   3.818  11.259   3.936
  280POPC   PO4 3843   3.102  11.325   3.837
  280POPC   GL1 3844   3.360  11.403   4.198
  280POPC   GL2 3845   3.516  11.108   4.319
  280POPC   C1A 3846   3.240  11.389   4.669
  280POPC   D2A 3847   3.330   0.045   5.106
  280POPC   C3A 3848   3.112  11.360   5.464
  280POPC   C4A 3849   3.306  11.214   5.848
  280POPC   C1B 3850   3.417  10.902   4.711
  280POPC   C2B 3851   3.461  11.061   5.099
  280POPC   C3B 3852   3.619  11.049   5.498
  280POPC   C4B 3853   3.550  10.765   5.839
  281POPC   NC3 3854   5.157   8.283   3.884
  281POPC   PO4 3855   4.841   8.738   3.911
  281POPC   GL1 3856   4.889   8.487   4.305
  281POPC   GL2 3857   5.168   8.241   4.384
  281POPC   C1A 3858   4.924   8.435   4.780
  281POPC   D2A 3859   4.938   8.141   5.121
  281POPC   C3A 3860   4.918   8.334   5.524
  281POPC   C4A 3861   4.623   8.386   5.883
  281POPC   C1B 3862   5.315   8.013   4.765
  281POPC   C2B 3863   5.224   7.716   5.096
  281POPC   C3B 3864   5.227   7.898   5.511
  281POPC   C4B 3865   5.465   8.226   5.735
  282POPC   NC3 3866   6.943   0.415   4.036
  282POPC   PO4 3867   6.263   0.374   3.851
  282POPC   GL1 3868   6.464   0.257   4.281
  282POPC   GL2 3869   6.119   0.230   4.458
  282POPC   C1A 3870   6.843   0.186   4.628
  282POPC   D2A 3871   6.980   0.348   5.031
  282POPC   C3A 3872   6.858   0.110   5.391
  282POPC   C4A 3873   6.711  11.367   5.739
  282POPC   C1B 3874   6.375   0.261   4.822
  282POPC   C2B 3875   6.513   0.461   5.177
  282POPC   C3B 3876   6.339   0.483   5.531
  282POPC   C4B 3877   6.561   0.338   5.783
  283POPC   NC3 3878   7.984  10.564   3.892
  283POPC   PO4 3879   8.501  10.043   3.924
  283POPC   GL1 3880   8.429  10.295   4.301
  283POPC   GL2 3881   8.106  10.325   4.314
  283POPC   C1A 3882   8.411  10.290   4.757
  283POPC   D2A 3883   8.408   9.931   5.072
  283POPC   C3A 3884   8.180  10.061   5.489
  283POPC   C4A 3885   8.077  10.205   5.946
  283POPC   C1B 3886   7.997  10.614   4.598
  283POPC   C2B 3887   7.993  10.745   5.020
  283POPC   C3B 3888   8.138  10.590   5.447
  283POPC   C4B 3889   7.942  10.696   5.856
  284POPC   NC3 3890   2.511   5.901   3.784
  284POPC   PO4 3891   3.196   5.940   3.685
  284POPC   GL1 3892   2.953   5.939   4.123
  284POPC   GL2 3893   2.609   5.845   4.274
  284POPC   C1A 3894   2.872   6.156   4.571
  284POPC   D2A 3895   2.708   6.176   5.034
  284POPC   C3A 3896   2.838   6.014   5.472
  284POPC   C4A 3897   2.718   6.092   5.917
  284POPC   C1B 3898   2.541   5.770   4.725
  284POPC   C2B 3899   2.609   5.682   5.167
  284POPC   C3B 3900   2.591   5.553   5.609
  284POPC   C4B 3901   2.414   5.711   6.032
  285POPC   NC3 3902   1.879   5.930   3.841
  285POPC   PO4 3903   2.335   5.528   3.984
  285POPC   GL1 3904   2.068   5.610   4.297
  285POPC   GL2 3905   2.006   5.912   4.348
  285POPC   C1A 3906   1.795   5.440   4.598
  285POPC   D2A 3907   1.648   5.476   5.011
  285POPC   C3A 3908   1.773   5.758   5.353
  285POPC   C4A 3909   1.628   5.651   5.787
  285POPC   C1B 3910   2.030   5.851   4.790
  285POPC   C2B 3911   2.211   6.041   5.131
  285POPC   C3B 3912   2.301   5.956   5.533
  285POPC   C4B 3913   2.013   5.944   5.851
  286POPC   NC3 3914   7.269   9.968   4.259
  286POPC   PO4 3915   7.104  10.479   3.889
  286POPC   GL1 3916   7.160  10.576   4.367
  286POPC   GL2 3917   7.167  10.266   4.631
  286POPC   C1A 3918   7.078  10.704   4.819
  286POPC   D2A 3919   7.210  10.406   5.190
  286POPC   C3A 3920   7.173  10.509   5.642
  286POPC   C4A 3921   7.123  10.691   6.099
  286POPC   C1B 3922   7.558  10.388   4.801
  286POPC   C2B 3923   7.764  10.303   5.185
  286POPC   C3B 3924   7.693  10.310   5.608
  286POPC   C4B 3925   7.536  10.410   5.982
  287POPC   NC3 3926   2.046   5.155   4.077
  287POPC   PO4 3927   2.344   4.629   3.876
  287POPC   GL1 3928   2.131   4.605   4.340
  287POPC   GL2 3929   2.180   4.907   4.516
  287POPC   C1A 3930   1.760   4.637   4.720
  287POPC   D2A 3931   1.529   4.947   5.013
  287POPC   C3A 3932   1.694   4.855   5.430
  287POPC   C4A 3933   1.984   4.575   5.708
  287POPC   C1B 3934   2.264   5.321   4.742
  287POPC   C2B 3935   2.151   5.500   5.154
  287POPC   C3B 3936   2.096   5.459   5.609
  287POPC   C4B 3937   1.982   5.080   5.797
  288POPC   NC3 3938   0.337   4.427   3.862
  288POPC   PO4 3939   0.412   3.831   3.972
  288POPC   GL1 3940   0.439   4.140   4.308
  288POPC   GL2 3941   0.734   4.318   4.340
  288POPC   C1A 3942   0.609   4.063   4.751
  288POPC   D2A 3943   0.402   3.981   5.117
  288POPC   C3A 3944   0.455   4.131   5.538
  288POPC   C4A 3945   0.284   4.524   5.675
  288POPC   C1B 3946   0.705   4.556   4.719
  288POPC   C2B 3947   0.784   4.383   5.130
  288POPC   C3B 3948   0.801   4.521   5.542
  288POPC   C4B 3949   0.708   4.474   5.978
  289POPC   NC3 3950   1.950   8.600   3.646
  289POPC   PO4 3951   2.204   9.183   3.734
  289POPC   GL1 3952   2.035   9.176   4.213
  289POPC   GL2 3953   2.007   8.806   4.299
  289POPC   C1A 3954   2.127   9.176   4.675
  289POPC   D2A 3955   1.888   9.111   5.088
  289POPC   C3A 3956   2.112   9.190   5.479
  289POPC   C4A 3957   2.239   8.884   5.761
  289POPC   C1B 3958   1.754   8.805   4.690
  289POPC   C2B 3959   1.603   8.595   5.056
  289POPC   C3B 3960   1.749   8.653   5.478
  289POPC   C4B 3961   1.649   9.030   5.661
  290POPC   NC3 3962   0.637   1.125   3.678
  290POPC   PO4 3963   0.148   1.509   3.963
  290POPC   GL1 3964   0.293   1.408   4.333
  290POPC   GL2 3965   0.554   1.192   4.209
  290POPC   C1A 3966   0.123   1.442   4.762
  290POPC   D2A 3967  11.451   1.673   5.120
  290POPC   C3A 3968   0.052   1.497   5.501
  290POPC   C4A 3969   0.396   1.473   5.789
  290POPC   C1B 3970   0.348   0.987   4.596
  290POPC   C2B 3971   0.271   0.922   5.043
  290POPC   C3B 3972   0.471   1.132   5.393
  290POPC   C4B 3973   0.737   1.102   5.749
  291POPC   NC3 3974   8.378   0.519   3.768
  291POPC   PO4 3975   8.068  11.481   3.954
  291POPC   GL1 3976   8.139   0.416   4.208
  291POPC   GL2 3977   7.885   0.671   4.360
  291POPC   C1A 3978   8.335   0.625   4.595
  291POPC   D2A 3979   8.310   0.482   5.053
  291POPC   C3A 3980   8.402   0.731   5.473
  291POPC   C4A 3981   8.298   0.675   5.947
  291POPC   C1B 3982   7.915   0.296   4.710
  291POPC   C2B 3983   7.926   0.151   5.199
  291POPC   C3B 3984   7.975   0.258   5.671
  291POPC   C4B 3985   7.829   0.164   6.142
  292POPC   NC3 3986   8.919   1.925   3.737
  292POPC   PO4 3987   9.250   1.522   4.131
  292POPC   GL1 3988   8.760   1.672   4.285
  292POPC   GL2 3989   8.667   2.014   4.159
  292POPC   C1A 3990   8.501   1.635   4.699
  292POPC   D2A 3991   8.615   1.828   5.115
  292POPC   C3A 3992   8.597   1.681   5.552
  292POPC   C4A 3993   8.609   1.688   6.001
  292POPC   C1B 3994   8.674   2.102   4.602
  292POPC   C2B 3995   8.594   2.322   5.002
  292POPC   C3B 3996   8.673   2.227   5.463
  292POPC   C4B 3997   9.086   2.094   5.648
  293POPC   NC3 3998   9.733  10.304   3.979
  293POPC   PO4 3999   9.099  10.155   4.061
  293POPC   GL1 4000   9.396  10.180   4.366
  293POPC   GL2 4001   9.619  10.449   4.435
  293POPC   C1A 4002   9.538  10.057   4.762
  293POPC   D2A 4003   9.453   9.839   5.117
  293POPC   C3A 4004   9.338  10.025   5.486
  293POPC   C4A 4005   9.721   9.922   5.675
  293POPC   C1B 4006   9.784  10.512   4.841
  293POPC   C2B 4007   9.507  10.438   5.186
  293POPC   C3B 4008   9.632  10.428   5.580
  293POPC   C4B 4009   9.950  10.692   5.695
  294POPC   NC3 4010   2.584   1.064   3.906
  294POPC   PO4 4011   1.948   0.790   3.920
  294POPC   GL1 4012   1.944   1.020   4.294
  294POPC   GL2 4013   1.952   1.383   4.280
  294POPC   C1A 4014   1.914   0.945   4.716
  294POPC   D2A 4015   1.870   1.041   5.128
  294POPC   C3A 4016   2.178   1.020   5.446
  294POPC   C4A 4017   2.109   1.035   5.884
  294POPC   C1B 4018   1.854   1.448   4.739
  294POPC   C2B 4019   2.081   1.564   5.136
  294POPC   C3B 4020   2.112   1.500   5.576
  294POPC   C4B 4021   1.775   1.404   5.846
  295POPC   NC3 4022   3.596   1.944   3.707
  295POPC   PO4 4023   3.899   2.491   3.907
  295POPC   GL1 4024   3.677   2.195   4.181
  295POPC   GL2 4025   3.507   1.882   4.213
  295POPC   C1A 4026   3.568   2.207   4.635
  295POPC   D2A 4027   3.569   1.887   4.965
  295POPC   C3A 4028   3.524   2.011   5.377
  295POPC   C4A 4029   3.735   1.998   5.760
  295POPC   C1B 4030   3.219   1.834   4.587
  295POPC   C2B 4031   3.042   1.799   5.004
  295POPC   C3B 4032   3.071   1.748   5.448
  295POPC   C4B 4033   3.225   1.959   5.804
  296POPC   NC3 4034   1.188   5.774   3.845
  296POPC   PO4 4035   1.752   5.434   3.842
  296POPC   GL1 4036   1.539   5.714   4.226
  296POPC   GL2 4037   1.171   5.819   4.346
  296POPC   C1A 4038   1.527   5.868   4.692
  296POPC   D2A 4039   1.292   5.865   5.113
  296POPC   C3A 4040   1.403   6.029   5.536
  296POPC   C4A 4041   1.335   6.074   6.002
  296POPC   C1B 4042   0.948   5.747   4.728
  296POPC   C2B 4043   0.781   5.778   5.135
  296POPC   C3B 4044   0.925   5.788   5.540
  296POPC   C4B 4045   1.126   5.608   5.892
  297POPC   NC3 4046   0.230   9.674   4.148
  297POPC   PO4 4047   0.816   9.808   3.764
  297POPC   GL1 4048   0.823   9.721   4.218
  297POPC   GL2 4049   0.728   9.395   4.359
  297POPC   C1A 4050   0.849   9.908   4.648
  297POPC   D2A 4051   0.606   9.978   5.010
  297POPC   C3A 4052   0.802   9.912   5.401
  297POPC   C4A 4053   0.729  10.076   5.810
  297POPC   C1B 4054   0.487   9.510   4.776
  297POPC   C2B 4055   0.307   9.622   5.216
  297POPC   C3B 4056   0.375   9.702   5.675
  297POPC   C4B 4057   0.447   9.504   6.084
  298POPC   NC3 4058   0.126   2.787   3.891
  298POPC   PO4 4059   0.655   2.247   3.989
  298POPC   GL1 4060   0.628   2.657   4.237
  298POPC   GL2 4061   0.320   2.870   4.342
  298POPC   C1A 4062   0.668   2.749   4.679
  298POPC   D2A 4063   0.607   2.974   5.049
  298POPC   C3A 4064   0.604   2.738   5.436
  298POPC   C4A 4065   0.540   2.737   5.883
  298POPC   C1B 4066   0.089   2.894   4.720
  298POPC   C2B 4067   0.116   2.933   5.172
  298POPC   C3B 4068   0.120   2.778   5.570
  298POPC   C4B 4069   0.110   2.378   5.718
  299POPC   NC3 4070   7.337   2.354   3.844
  299POPC   PO4 4071   7.675   2.777   4.092
  299POPC   GL1 4072   7.443   2.658   4.441
  299POPC   GL2 4073   7.137   2.461   4.322
  299POPC   C1A 4074   7.496   2.734   4.895
  299POPC   D2A 4075   7.648   2.634   5.301
  299POPC   C3A 4076   7.406   2.746   5.657
  299POPC   C4A 4077   7.151   3.113   5.813
  299POPC   C1B 4078   7.161   2.360   4.781
  299POPC   C2B 4079   7.126   2.542   5.214
  299POPC   C3B 4080   6.907   2.731   5.572
  299POPC   C4B 4081   7.005   2.649   6.010
  300POPC   NC3 4082   1.354  10.291   3.979
  300POPC   PO4 4083   0.768  10.536   3.700
  300POPC   GL1 4084   0.903  10.585   4.160
  300POPC   GL2 4085   0.925  10.239   4.265
  300POPC   C1A 4086   0.845  10.569   4.665
  300POPC   D2A 4087   0.980  10.321   5.079
  300POPC   C3A 4088   1.007  10.430   5.559
  300POPC   C4A 4089   1.118  10.569   6.032
  300POPC   C1B 4090   1.257  10.282   4.618
  300POPC   C2B 4091   1.517  10.364   4.988
  300POPC   C3B 4092   1.500  10.551   5.385
  300POPC   C4B 4093   1.484  10.364   5.779
  301POPC   NC3 4094   8.861   1.386   3.889
  301POPC   PO4 4095   8.792   0.668   3.887
  301POPC   GL1 4096   8.762   0.760   4.311
  301POPC   GL2 4097   8.914   1.069   4.272
  301POPC   C1A 4098   8.890   0.864   4.739
  301POPC   D2A 4099   9.164   0.999   5.060
  301POPC   C3A 4100   8.957   1.050   5.475
  301POPC   C4A 4101   9.068   1.093   5.918
  301POPC   C1B 4102   8.919   1.344   4.630
  301POPC   C2B 4103   8.852   1.387   5.020
  301POPC   C3B 4104   9.071   1.567   5.336
  301POPC   C4B 4105   9.078   1.594   5.775
  302POPC   NC3 4106   0.065   1.021   3.995
  302POPC   PO4 4107  10.925   0.818   3.967
  302POPC   GL1 4108  11.157   1.048   4.319
  302POPC   GL2 4109  11.272   1.411   4.342
  302POPC   C1A 4110  11.339   0.984   4.736
  302POPC   D2A 4111  11.190   0.879   5.170
  302POPC   C3A 4112  11.479   0.978   5.495
  302POPC   C4A 4113  11.466   0.893   5.928
  302POPC   C1B 4114  11.092   1.496   4.777
  302POPC   C2B 4115  11.043   1.365   5.225
  302POPC   C3B 4116  11.044   1.197   5.650
  302POPC   C4B 4117  10.895   1.423   6.041
  303POPC   NC3 4118   2.099   8.108   3.985
  303POPC   PO4 4119   1.515   7.800   3.808
  303POPC   GL1 4120   1.729   7.892   4.243
  303POPC   GL2 4121   1.853   8.269   4.390
  303POPC   C1A 4122   1.902   7.857   4.660
  303POPC   D2A 4123   1.739   7.983   5.042
  303POPC   C3A 4124   1.843   7.965   5.430
  303POPC   C4A 4125   1.708   7.569   5.665
  303POPC   C1B 4126   1.993   8.359   4.792
  303POPC   C2B 4127   2.144   8.622   5.131
  303POPC   C3B 4128   2.214   8.420   5.527
  303POPC   C4B 4129   1.992   8.192   5.856
  304POPC   NC3 4130   0.595   5.516   3.498
  304POPC   PO4 4131   0.767   5.753   4.050
  304POPC   GL1 4132   0.593   5.654   4.378
  304POPC   GL2 4133   0.290   5.835   4.317
  304POPC   C1A 4134   0.350   5.473   4.689
  304POPC   D2A 4135   0.201   5.563   5.089
  304POPC   C3A 4136   0.424   5.568   5.467
  304POPC   C4A 4137   0.440   5.738   5.872
  304POPC   C1B 4138   0.478   5.983   4.733
  304POPC   C2B 4139   0.362   6.054   5.123
  304POPC   C3B 4140   0.491   6.112   5.526
  304POPC   C4B 4141   0.144   6.133   5.806
  305POPC   NC3 4142  10.386   6.409   3.829
  305POPC   PO4 4143  10.067   6.891   4.114
  305POPC   GL1 4144  10.297   6.544   4.316
  305POPC   GL2 4145  10.664   6.513   4.374
  305POPC   C1A 4146  10.317   6.332   4.712
  305POPC   D2A 4147  10.147   6.464   5.109
  305POPC   C3A 4148  10.252   6.358   5.522
  305POPC   C4A 4149  10.291   6.635   5.845
  305POPC   C1B 4150  10.719   6.615   4.802
  305POPC   C2B 4151  10.662   6.503   5.233
  305POPC   C3B 4152  10.747   6.642   5.640
  305POPC   C4B 4153  10.715   6.555   6.109
  306POPC   NC3 4154   9.240  10.949   3.876
  306POPC   PO4 4155   9.945  10.736   3.982
  306POPC   GL1 4156   9.608  10.921   4.244
  306POPC   GL2 4157   9.567  11.285   4.267
  306POPC   C1A 4158   9.479  10.864   4.691
  306POPC   D2A 4159   9.624  10.986   5.132
  306POPC   C3A 4160   9.481  10.903   5.575
  306POPC   C4A 4161   9.396  10.698   5.997
  306POPC   C1B 4162   9.655  11.336   4.708
  306POPC   C2B 4163   9.500  11.491   5.091
  306POPC   C3B 4164   9.671  11.376   5.499
  306POPC   C4B 4165  10.058  11.169   5.641
  307POPC   NC3 4166   7.380   9.057   3.861
  307POPC   PO4 4167   7.685   8.521   3.911
  307POPC   GL1 4168   7.532   8.831   4.281
  307POPC   GL2 4169   7.184   8.938   4.349
  307POPC   C1A 4170   7.546   9.072   4.718
  307POPC   D2A 4171   7.478   8.930   5.140
  307POPC   C3A 4172   7.743   8.966   5.477
  307POPC   C4A 4173   7.790   8.859   5.878
  307POPC   C1B 4174   7.054   8.977   4.814
  307POPC   C2B 4175   7.072   9.184   5.251
  307POPC   C3B 4176   7.122   8.931   5.650
  307POPC   C4B 4177   6.910   8.787   6.073
  308POPC   NC3 4178   9.642   4.977   3.934
  308POPC   PO4 4179   9.131   4.543   4.046
  308POPC   GL1 4180   9.410   4.621   4.398
  308POPC   GL2 4181   9.609   4.946   4.426
  308POPC   C1A 4182   9.460   4.711   4.848
  308POPC   D2A 4183   9.455   4.945   5.226
  308POPC   C3A 4184   9.493   4.705   5.613
  308POPC   C4A 4185   9.155   4.738   5.923
  308POPC   C1B 4186   9.908   4.970   4.759
  308POPC   C2B 4187   9.897   5.185   5.143
  308POPC   C3B 4188   9.766   5.159   5.589
  308POPC   C4B 4189   9.918   5.276   6.008
  309POPC   NC3 4190  11.166   9.517   3.805
  309POPC   PO4 4191   0.133   9.233   4.062
  309POPC   GL1 4192  11.297   9.507   4.306
  309POPC   GL2 4193  10.922   9.444   4.258
  309POPC   C1A 4194  11.440   9.593   4.755
  309POPC   D2A 4195  11.241   9.639   5.143
  309POPC   C3A 4196  11.394   9.562   5.549
  309POPC   C4A 4197   0.002   9.197   5.811
  309POPC   C1B 4198  10.917   9.578   4.689
  309POPC   C2B 4199  10.730   9.545   5.089
  309POPC   C3B 4200  10.864   9.616   5.499
  309POPC   C4B 4201  10.994   9.698   5.930
  310POPC   NC3 4202   9.754   3.312   3.595
  310POPC   PO4 4203   9.752   3.869   3.972
  310POPC   GL1 4204   9.677   3.632   4.342
  310POPC   GL2 4205   9.599   3.255   4.393
  310POPC   C1A 4206   9.698   3.762   4.771
  310POPC   D2A 4207   9.861   3.989   5.118
  310POPC   C3A 4208   9.898   3.766   5.523
  310POPC   C4A 4209   9.775   3.671   5.956
  310POPC   C1B 4210   9.711   3.253   4.819
  310POPC   C2B 4211   9.577   3.480   5.196
  310POPC   C3B 4212   9.518   3.384   5.640
  310POPC   C4B 4213   9.728   3.143   5.979
  311POPC   NC3 4214   3.168   0.282   3.687
  311POPC   PO4 4215   3.720   0.217   3.924
  311POPC   GL1 4216   3.464   0.402   4.299
  311POPC   GL2 4217   3.673   0.686   4.394
  311POPC   C1A 4218   3.279   0.410   4.744
  311POPC   D2A 4219   3.026   0.452   5.160
  311POPC   C3A 4220   3.255   0.341   5.539
  311POPC   C4A 4221   3.628   0.058   5.591
  311POPC   C1B 4222   3.770   0.529   4.802
  311POPC   C2B 4223   3.648   0.450   5.221
  311POPC   C3B 4224   3.739   0.578   5.659
  311POPC   C4B 4225   3.780   0.742   6.110
  312POPC   NC3 4226   4.400  10.842   3.888
  312POPC   PO4 4227   4.245  10.117   3.813
  312POPC   GL1 4228   4.182  10.371   4.162
  312POPC   GL2 4229   4.526  10.453   4.190
  312POPC   C1A 4230   4.133  10.266   4.625
  312POPC   D2A 4231   3.971  10.262   5.071
  312POPC   C3A 4232   4.263  10.179   5.427
  312POPC   C4A 4233   4.208  10.066   5.902
  312POPC   C1B 4234   4.388  10.708   4.550
  312POPC   C2B 4235   4.361  10.599   4.988
  312POPC   C3B 4236   4.328  10.707   5.418
  312POPC   C4B 4237   4.328  10.528   5.797
  313POPC   NC3 4238  11.482   1.880   3.718
  313POPC   PO4 4239  10.851   2.007   3.763
  313POPC   GL1 4240  11.001   2.108   4.214
  313POPC   GL2 4241  11.340   2.010   4.211
  313POPC   C1A 4242  10.866   2.066   4.690
  313POPC   D2A 4243  10.901   1.861   5.121
  313POPC   C3A 4244  10.759   2.066   5.518
  313POPC   C4A 4245  10.973   2.246   5.868
  313POPC   C1B 4246  11.371   1.940   4.661
  313POPC   C2B 4247  11.327   2.160   5.060
  313POPC   C3B 4248  11.270   2.042   5.478
  313POPC   C4B 4249  11.087   1.700   5.656
  314POPC   NC3 4250  11.147   5.043   3.918
  314POPC   PO4 4251   0.144   5.493   3.875
  314POPC   GL1 4252   0.008   5.184   4.247
  314POPC   GL2 4253  11.137   5.286   4.362
  314POPC   C1A 4254  11.414   4.910   4.635
  314POPC   D2A 4255   0.076   5.052   5.070
  314POPC   C3A 4256  11.450   4.870   5.466
  314POPC   C4A 4257  11.457   4.987   5.914
  314POPC   C1B 4258  11.343   5.409   4.740
  314POPC   C2B 4259  11.216   5.432   5.182
  314POPC   C3B 4260  11.159   5.292   5.618
  314POPC   C4B 4261  10.910   5.084   5.946
  315POPC   NC3 4262  11.087  10.411   3.939
  315POPC   PO4 4263   0.082  10.846   3.733
  315POPC   GL1 4264  11.434  10.724   4.212
  315POPC   GL2 4265  11.363  10.414   4.391
  315POPC   C1A 4266  11.362  10.828   4.698
  315POPC   D2A 4267  11.287  10.935   5.162
  315POPC   C3A 4268   0.009  10.632   5.495
  315POPC   C4A 4269  11.362  10.522   5.922
  315POPC   C1B 4270  11.182  10.044   4.629
  315POPC   C2B 4271  10.930  10.019   5.026
  315POPC   C3B 4272  11.097  10.061   5.471
  315POPC   C4B 4273  11.459  10.048   5.750
  316POPC   NC3 4274   6.346  10.360   3.910
  316POPC   PO4 4275   6.876   9.913   4.029
  316POPC   GL1 4276   6.736  10.264   4.324
  316POPC   GL2 4277   6.430  10.512   4.372
  316POPC   C1A 4278   6.703  10.361   4.774
  316POPC   D2A 4279   6.702  10.583   5.166
  316POPC   C3A 4280   6.689  10.355   5.526
  316POPC   C4A 4281   6.715  10.445   5.951
  316POPC   C1B 4282   6.223  10.500   4.765
  316POPC   C2B 4283   6.212  10.292   5.135
  316POPC   C3B 4284   6.173  10.434   5.553
  316POPC   C4B 4285   6.319  10.137   5.840
  317POPC   NC3 4286   5.726   9.924   3.889
  317POPC   PO4 4287   5.582   9.261   4.079
  317POPC   GL1 4288   5.753   9.613   4.297
  317POPC   GL2 4289   5.579   9.892   4.387
  317POPC   C1A 4290   5.975   9.692   4.667
  317POPC   D2A 4291   5.883   9.786   5.094
  317POPC   C3A 4292   5.816   9.410   5.349
  317POPC   C4A 4293   5.655   9.197   5.751
  317POPC   C1B 4294   5.446   9.828   4.812
  317POPC   C2B 4295   5.397   9.863   5.257
  317POPC   C3B 4296   5.472   9.661   5.630
  317POPC   C4B 4297   5.883   9.667   5.779
  318POPC   NC3 4298   2.634   3.459   3.932
  318POPC   PO4 4299   2.643   4.065   3.958
  318POPC   GL1 4300   2.556   3.732   4.357
  318POPC   GL2 4301   2.721   3.354   4.400
  318POPC   C1A 4302   2.398   3.509   4.741
  318POPC   D2A 4303   2.317   3.694   5.097
  318POPC   C3A 4304   2.461   3.533   5.460
  318POPC   C4A 4305   2.593   3.501   5.902
  318POPC   C1B 4306   2.897   3.565   4.756
  318POPC   C2B 4307   3.013   3.375   5.152
  318POPC   C3B 4308   2.959   3.306   5.598
  318POPC   C4B 4309   3.090   3.653   5.884
  319POPC   NC3 4310  11.010   2.441   3.797
  319POPC   PO4 4311  11.236   3.101   3.868
  319POPC   GL1 4312  11.307   2.961   4.252
  319POPC   GL2 4313  11.265   2.615   4.205
  319POPC   C1A 4314  11.060   2.936   4.590
  319POPC   D2A 4315  10.735   3.081   4.864
  319POPC   C3A 4316  10.867   2.943   5.250
  319POPC   C4A 4317  10.973   3.077   5.651
  319POPC   C1B 4318  11.224   2.439   4.583
  319POPC   C2B 4319  11.214   2.648   4.986
  319POPC   C3B 4320  11.203   2.548   5.411
  319POPC   C4B 4321  11.202   2.682   5.833
  320POPC   NC3 4322   9.369   4.143   3.991
  320POPC   PO4 4323   9.949   4.559   3.861
  320POPC   GL1 4324   9.900   4.524   4.308
  320POPC   GL2 4325   9.754   4.196   4.366
  320POPC   C1A 4326   9.934   4.456   4.785
  320POPC   D2A 4327   9.865   4.638   5.191
  320POPC   C3A 4328   9.829   4.338   5.491
  320POPC   C4A 4329   9.682   4.245   5.850
  320POPC   C1B 4330   9.497   4.216   4.729
  320POPC   C2B 4331   9.446   4.305   5.163
  320POPC   C3B 4332   9.432   3.993   5.483
  320POPC   C4B 4333   9.322   3.876   5.905
  321POPC   NC3 4334   7.255  10.044   3.760
  321POPC   PO4 4335   7.085   9.396   3.868
  321POPC   GL1 4336   7.102   9.470   4.325
  321POPC   GL2 4337   7.455   9.389   4.314
  321POPC   C1A 4338   7.200   9.464   4.813
  321POPC   D2A 4339   7.577   9.416   5.141
  321POPC   C3A 4340   7.440   9.365   5.575
  321POPC   C4A 4341   7.013   9.453   5.699
  321POPC   C1B 4342   7.661   9.596   4.671
  321POPC   C2B 4343   7.449   9.897   4.951
  321POPC   C3B 4344   7.225   9.762   5.310
  321POPC   C4B 4345   7.217  10.000   5.689
  322POPC   NC3 4346  10.300  10.432   3.900
  322POPC   PO4 4347  10.882  10.606   4.306
  322POPC   GL1 4348  10.479  10.440   4.454
  322POPC   GL2 4349  10.135  10.502   4.392
  322POPC   C1A 4350  10.353  10.405   4.907
  322POPC   D2A 4351  10.552  10.251   5.294
  322POPC   C3A 4352  10.822  10.487   5.598
  322POPC   C4A 4353  11.073  10.860   5.631
  322POPC   C1B 4354  10.034  10.122   4.632
  322POPC   C2B 4355   9.920  10.111   5.113
  322POPC   C3B 4356  10.100  10.220   5.516
  322POPC   C4B 4357  10.369  10.409   5.826
  323POPC   NC3 4358   2.356  10.179   4.065
  323POPC   PO4 4359   1.727  10.015   3.996
  323POPC   GL1 4360   1.849  10.371   4.185
  323POPC   GL2 4361   2.022  10.182   4.437
  323POPC   C1A 4362   1.746  10.593   4.572
  323POPC   D2A 4363   1.986  10.689   4.940
  323POPC   C3A 4364   2.022  10.467   5.323
  323POPC   C4A 4365   1.933  10.631   5.723
  323POPC   C1B 4366   1.995  10.179   4.862
  323POPC   C2B 4367   1.774   9.933   5.139
  323POPC   C3B 4368   1.798  10.070   5.532
  323POPC   C4B 4369   2.151  10.175   5.832
  324POPC   NC3 4370   2.651   9.313   3.661
  324POPC   PO4 4371   2.626   9.989   3.753
  324POPC   GL1 4372   2.651   9.917   4.347
  324POPC   GL2 4373   2.931   9.685   4.460
  324POPC   C1A 4374   2.586   9.800   4.812
  324POPC   D2A 4375   2.753   9.486   5.122
  324POPC   C3A 4376   2.544   9.540   5.514
  324POPC   C4A 4377   2.525   9.831   5.843
  324POPC   C1B 4378   3.149   9.912   4.802
  324POPC   C2B 4379   3.037   9.920   5.256
  324POPC   C3B 4380   2.987   9.742   5.673
  324POPC   C4B 4381   2.989   9.874   6.128
  325POPC   NC3 4382  10.269   8.683   3.875
  325POPC   PO4 4383  10.673   9.287   3.785
  325POPC   GL1 4384  10.638   9.007   4.149
  325POPC   GL2 4385  10.329   8.938   4.300
  325POPC   C1A 4386  10.795   8.825   4.544
  325POPC   D2A 4387  10.835   8.569   4.930
  325POPC   C3A 4388  10.816   8.778   5.302
  325POPC   C4A 4389  10.600   8.812   5.655
  325POPC   C1B 4390  10.328   8.956   4.736
  325POPC   C2B 4391  10.314   8.816   5.163
  325POPC   C3B 4392  10.067   8.973   5.491
  325POPC   C4B 4393  10.231   9.079   5.872
  326POPC   NC3 4394  10.125   4.104   3.856
  326POPC   PO4 4395  10.656   4.508   3.833
  326POPC   GL1 4396  10.582   4.171   4.125
  326POPC   GL2 4397  10.279   4.178   4.321
  326POPC   C1A 4398  10.708   4.049   4.562
  326POPC   D2A 4399  10.911   4.128   4.961
  326POPC   C3A 4400  10.747   4.043   5.375
  326POPC   C4A 4401  10.702   4.293   5.742
  326POPC   C1B 4402  10.189   4.001   4.699
  326POPC   C2B 4403  10.342   4.218   5.049
  326POPC   C3B 4404  10.317   4.403   5.440
  326POPC   C4B 4405  10.191   4.128   5.789
  327POPC   NC3 4406   2.481   9.027   4.090
  327POPC   PO4 4407   3.069   9.101   3.742
  327POPC   GL1 4408   2.971   8.978   4.227
  327POPC   GL2 4409   2.795   8.647   4.233
  327POPC   C1A 4410   2.725   9.091   4.687
  327POPC   D2A 4411   2.430   9.073   5.083
  327POPC   C3A 4412   2.651   9.060   5.490
  327POPC   C4A 4413   3.041   9.236   5.631
  327POPC   C1B 4414   2.938   8.622   4.683
  327POPC   C2B 4415   2.779   8.696   5.125
  327POPC   C3B 4416   2.713   8.576   5.577
  327POPC   C4B 4417   3.088   8.732   5.781
  328POPC   NC3 4418   0.662   2.613   3.708
  328POPC   PO4 4419   1.312   2.555   3.954
  328POPC   GL1 4420   1.085   2.428   4.348
  328POPC   GL2 4421   1.435   2.339   4.465
  328POPC   C1A 4422   1.039   2.407   4.802
  328POPC   D2A 4423   1.089   2.807   5.005
  328POPC   C3A 4424   1.044   2.976   5.377
  328POPC   C4A 4425   1.030   2.740   5.737
  328POPC   C1B 4426   1.373   2.787   4.575
  328POPC   C2B 4427   1.495   3.073   4.864
  328POPC   C3B 4428   1.566   3.083   5.296
  328POPC   C4B 4429   1.406   3.131   5.705
  329POPC   NC3 4430   5.373   2.222   3.990
  329POPC   PO4 4431   6.001   1.946   3.957
  329POPC   GL1 4432   5.902   1.765   4.348
  329POPC   GL2 4433   5.571   1.907   4.373
  329POPC   C1A 4434   5.826   1.668   4.797
  329POPC   D2A 4435   5.897   1.889   5.175
  329POPC   C3A 4436   6.097   1.771   5.556
  329POPC   C4A 4437   6.103   2.189   5.742
  329POPC   C1B 4438   5.339   1.828   4.769
  329POPC   C2B 4439   5.410   1.780   5.223
  329POPC   C3B 4440   5.598   1.890   5.619
  329POPC   C4B 4441   5.705   1.631   5.955
  330POPC   NC3 4442  10.269   9.370   4.030
  330POPC   PO4 4443  10.019   9.939   3.785
  330POPC   GL1 4444  10.210   9.831   4.243
  330POPC   GL2 4445  10.569   9.808   4.168
  330POPC   C1A 4446  10.369   9.513   4.639
  330POPC   D2A 4447  10.251   9.339   5.072
  330POPC   C3A 4448  10.490   9.272   5.457
  330POPC   C4A 4449  10.504   9.507   5.863
  330POPC   C1B 4450  10.577   9.974   4.613
  330POPC   C2B 4451  10.345   9.873   4.994
  330POPC   C3B 4452  10.366   9.780   5.424
  330POPC   C4B 4453  10.628   9.995   5.721
  331POPC   NC3 4454   2.668  10.368   3.521
  331POPC   PO4 4455   3.149  10.321   3.982
  331POPC   GL1 4456   3.046  10.242   4.391
  331POPC   GL2 4457   2.761  10.443   4.330
  331POPC   C1A 4458   2.966  10.423   4.803
  331POPC   D2A 4459   2.949  10.431   5.226
  331POPC   C3A 4460   2.664  10.212   5.482
  331POPC   C4A 4461   2.854  10.257   5.845
  331POPC   C1B 4462   2.492  10.289   4.666
  331POPC   C2B 4463   2.447  10.406   5.052
  331POPC   C3B 4464   2.538  10.722   5.341
  331POPC   C4B 4465   2.490  10.634   5.768
  332POPC   NC3 4466   8.810   8.228   3.915
  332POPC   PO4 4467   9.240   7.812   3.691
  332POPC   GL1 4468   9.145   7.955   4.199
  332POPC   GL2 4469   9.125   8.320   4.316
  332POPC   C1A 4470   9.322   7.944   4.643
  332POPC   D2A 4471   9.219   7.874   5.099
  332POPC   C3A 4472   9.039   7.911   5.512
  332POPC   C4A 4473   9.191   7.725   5.855
  332POPC   C1B 4474   8.877   8.165   4.709
  332POPC   C2B 4475   8.724   8.067   5.148
  332POPC   C3B 4476   8.568   8.186   5.603
  332POPC   C4B 4477   8.497   8.322   6.077
  333POPC   NC3 4478   2.781   4.491   3.940
  333POPC   PO4 4479   3.196   4.792   4.295
  333POPC   GL1 4480   2.690   4.682   4.398
  333POPC   GL2 4481   2.538   4.304   4.387
  333POPC   C1A 4482   2.513   4.576   4.807
  333POPC   D2A 4483   2.745   4.381   5.169
  333POPC   C3A 4484   2.574   4.491   5.572
  333POPC   C4A 4485   2.649   4.701   5.960
  333POPC   C1B 4486   2.576   4.026   4.779
  333POPC   C2B 4487   2.775   3.863   5.183
  333POPC   C3B 4488   2.726   3.934   5.632
  333POPC   C4B 4489   2.853   4.206   5.943
  334POPC   NC3 4490   8.895   9.759   3.942
  334POPC   PO4 4491   8.412   9.391   4.216
  334POPC   GL1 4492   8.769   9.530   4.389
  334POPC   GL2 4493   8.780   9.901   4.399
  334POPC   C1A 4494   8.706   9.561   4.823
  334POPC   D2A 4495   8.746   9.485   5.241
  334POPC   C3A 4496   8.515   9.474   5.590
  334POPC   C4A 4497   8.823   9.482   5.915
  334POPC   C1B 4498   8.862  10.053   4.781
  334POPC   C2B 4499   8.959   9.923   5.150
  334POPC   C3B 4500   8.825   9.881   5.559
  334POPC   C4B 4501   8.952   9.961   5.947
  335POPC   NC3 4502   0.326   7.031   3.980
  335POPC   PO4 4503   0.049   7.588   3.797
  335POPC   GL1 4504   0.167   7.512   4.224
  335POPC   GL2 4505   0.512   7.468   4.249
  335POPC   C1A 4506   0.301   7.581   4.679
  335POPC   D2A 4507   0.319   7.341   5.050
  335POPC   C3A 4508   0.348   7.540   5.450
  335POPC   C4A 4509   0.178   7.376   5.847
  335POPC   C1B 4510   0.559   7.122   4.589
  335POPC   C2B 4511   0.640   6.927   5.004
  335POPC   C3B 4512   0.724   7.185   5.385
  335POPC   C4B 4513   0.698   7.402   5.811
  336POPC   NC3 4514   4.429   1.452   3.455
  336POPC   PO4 4515   4.486   1.468   4.083
  336POPC   GL1 4516   4.419   1.399   4.465
  336POPC   GL2 4517   4.267   1.080   4.440
  336POPC   C1A 4518   4.591   1.265   4.846
  336POPC   D2A 4519   4.455   0.982   5.175
  336POPC   C3A 4520   4.486   1.170   5.584
  336POPC   C4A 4521   4.435   1.406   5.978
  336POPC   C1B 4522   3.896   1.032   4.739
  336POPC   C2B 4523   3.831   0.954   5.201
  336POPC   C3B 4524   3.995   1.130   5.593
  336POPC   C4B 4525   3.935   1.248   6.030
  337POPC   NC3 4526   2.761   0.084   3.992
  337POPC   PO4 4527   2.933   0.704   3.773
  337POPC   GL1 4528   2.962   0.620   4.274
  337POPC   GL2 4529   2.910   0.265   4.440
  337POPC   C1A 4530   2.871   0.723   4.743
  337POPC   D2A 4531   2.650   0.797   5.171
  337POPC   C3A 4532   2.870   0.755   5.594
  337POPC   C4A 4533   2.796   0.554   6.019
  337POPC   C1B 4534   2.565   0.322   4.775
  337POPC   C2B 4535   2.505   0.311   5.239
  337POPC   C3B 4536   2.732   0.238   5.616
  337POPC   C4B 4537   2.590  11.476   5.960
  338W        W 4538   4.585   7.138   1.912
  339W        W 4539   5.154   6.009   0.012
  340W        W 4540   7.844   4.660  10.381
  341W        W 4541  10.027   0.228  10.583
  342W        W 4542   0.211   4.699   3.412
  343W        W 4543   7.479   3.854  10.485
  344W        W 4544  10.869   8.805  11.764
  345W        W 4545   8.573   3.207   8.922
  346W        W 4546   1.428   0.916   0.896
  347W        W 4547   1.248   6.502  10.842
  348W        W 4548   4.308   9.024   2.257
  349W        W 4549   7.670   6.524   2.733
  350W        W 4550  11.339   1.006   2.124
  351W        W 4551  10.036   2.848   3.671
  352W        W 4552   0.473  11.398   3.241
  353W        W 4553   2.247  10.421  10.444
  354W        W 4554  10.694   5.799  11.463
  355W        W 4555   3.829   7.620   0.883
  356W        W 4556  11.500   8.167  11.802
  357W        W 4557  11.110   7.998   2.204
  358W        W 4558   5.982   3.632   7.949
  359W        W 4559   5.926   4.080   3.944
  360W        W 4560   2.542   3.027   0.100
  361W        W 4561   9.177   5.295   2.902
  362W        W 4562   2.418  10.291   0.441
  363W        W 4563   2.598  10.885   3.479
  364W        W 4564   4.642   0.372   0.451
  365W        W 4565   6.231   0.340   2.856
  366W        W 4566   2.321   5.758   0.947
  367W        W 4567   9.312  11.135  10.311
  368W        W 4568   7.259   6.162  10.514
  369W        W 4569   5.808   6.866  11.455
  370W        W 4570  11.282  10.558  11.315
  371W        W 4571   2.184  10.916   3.185
  372W        W 4572   7.955   8.404   1.885
  373W        W 4573   7.009   4.736   1.423
  374W        W 4574   0.918   1.426  10.443
  375W        W 4575   5.655   0.500   0.012
  376W        W 4576  10.427   2.784   3.156
  377W        W 4577   2.672   8.791   3.696
  378W        W 4578   3.269   8.573   0.823
  379W        W 4579   5.250   2.421  10.768
  380W        W 4580   2.707   2.561   9.904
  381W        W 4581   2.656   4.717   3.412
  382W        W 4582   3.814   9.001   3.026
  383W        W 4583   6.081   0.500   9.287
  384W        W 4584   6.740   6.481   1.976
  385W        W 4585   5.835   4.123   8.151
  386W        W 4586   0.610   2.470  11.831
  387W        W 4587   1.757   5.371  10.370
  388W        W 4588   0.574   2.814   0.687
  389W        W 4589   3.245   1.509   0.041
  390W        W 4590   6.607   1.008   0.878
  391W        W 4591   6.040   7.393  10.289
  392W        W 4592   4.453   8.936   0.766
  393W        W 4593   2.654   4.145   9.771
  394W        W 4594   3.705   4.739  11.653
  395W        W 4595  10.804   6.736  11.085
  396W        W 4596   0.944  10.507   2.764
  397W        W 4597   9.615   0.333   1.974
  398W        W 4598   8.944   2.460  10.966
  399W        W 4599   9.191   8.933   3.031
  400W        W 4600   9.148  10.824   9.948
  401W        W 4601   8.995  11.295   1.702
  402W        W 4602   9.057   9.549   9.919
  403W        W 4603   5.233   9.280   1.326
  404W        W 4604   9.359  10.413  11.447
  405W        W 4605   7.681   5.226   0.732
  406W        W 4606   1.490   2.801   1.466
  407W        W 4607   3.850   4.657   2.727
  408W        W 4608   5.680  10.334  11.320
  409W        W 4609  10.472   3.274   9.047
  410W        W 4610   9.836  10.568  11.436
  411W        W 4611   4.250   1.772  10.592
  412W        W 4612   3.197   8.202   9.581
  413W        W 4613  10.511   4.640   1.465
  414W        W 4614   1.105   8.337   8.853
  415W        W 4615  11.354   4.362   0.550
  416W        W 4616  10.452   7.398   1.668
  417W        W 4617   6.578   7.581  11.481
  418W        W 4618   5.536   6.162   0.321
  419W        W 4619   4.202   2.813   0.450
  420W        W 4620   4.722   6.225   0.166
  421W        W 4621   8.039   9.979  10.880
  422W        W 4622   9.467  11.333   1.919
  423W        W 4623   4.311   0.166   9.735
  424W        W 4624   7.091   4.297   0.082
  425W        W 4625   9.152   7.320   3.452
  426W        W 4626   9.444   4.228  11.536
  427W        W 4627   5.414   3.553   9.140
  428W        W 4628  10.601   8.825   0.308
  429W        W 4629   5.547  11.209   2.174
  430W        W 4630   5.695   4.501   2.958
  431W        W 4631   5.111  11.466  10.601
  432W        W 4632   5.760   3.279  10.298
  433W        W 4633  10.930   8.059  11.116
  434W        W 4634   1.797   3.260   3.113
  435W        W 4635  11.224   0.374  10.808
  436W        W 4636   5.992  10.069  11.705
  437W        W 4637   3.597   5.214   8.135
  438W        W 4638   4.759   8.925   8.159
  439W        W 4639   2.262  10.251   9.919
  440W        W 4640   1.746   9.806   0.033
  441W        W 4641   6.968   2.677   1.605
  442W        W 4642  10.044   2.375  10.873
  443W        W 4643   0.344   0.412   9.019
  444W        W 4644   6.469   0.180  11.028
  445W        W 4645   6.479   3.818   9.850
  446W        W 4646   1.017   6.281   3.937
  447W        W 4647   9.299   9.393   8.927
  448W        W 4648   5.201   7.390   1.784
  449W        W 4649  10.230   7.675   0.851
  450W        W 4650   9.120   5.040  11.957
  451W        W 4651   4.979  10.536  10.644
  452W        W 4652   1.352   3.405  10.634
  453W        W 4653   2.695   4.041  11.959
  454W        W 4654   4.463   0.342   8.818
  455W        W 4655   4.759   3.147   2.759
  456W        W 4656   4.031   4.287  11.433
  457W        W 4657   2.637  10.310   0.921
  458W        W 4658  10.800   1.758  10.939
  459W        W 4659   6.975   9.713   3.484
  460W        W 4660  10.900   0.925   0.250
  461W        W 4661   9.849   1.244   9.793
  462W        W 4662   8.460   9.152   9.011
  463W        W 4663   2.471   5.360   1.679
  464W        W 4664   7.722   3.836   4.026
  465W        W 4665   1.071   6.611   8.370
  466W        W 4666   7.401   7.502  10.720
  467W        W 4667   2.154   6.541   3.323
  468W        W 4668   8.779   9.461   1.810
  469W        W 4669   9.507   0.595   9.803
  470W        W 4670   8.133   4.641  10.791
  471W        W 4671   2.116   2.301   0.235
  472W        W 4672  11.153   4.968  11.113
  473W        W 4673   8.377   5.602   0.336
  474W        W 4674   1.355   3.392  11.626
  475W        W 4675   2.390   3.771  10.055
  476W        W 4676   6.220   1.042   9.898
  477W        W 4677   6.579   6.914   2.223
  478W        W 4678  11.043  11.271   2.212
  479W        W 4679   3.511   6.180   1.722
  480W        W 4680   4.674   2.214  11.292
  481W        W 4681   9.555   0.291  11.316
  482W        W 4682   9.459   9.132  10.284
  483W        W 4683  10.434   8.686  11.436
  484W        W 4684   6.002   6.935   0.831
  485W        W 4685   2.500   8.187   9.115
  486W        W 4686   2.897  10.597   3.143
  487W        W 4687   5.750   3.658  11.378
  488W        W 4688   9.649   7.195   9.501
  489W        W 4689  10.572   7.022  11.895
  490W        W 4690   3.308   6.949  11.440
  491W        W 4691  11.302  11.147   0.072
  492W        W 4692   2.744   4.549   0.062
  493W        W 4693   6.551   4.070   9.387
  494W        W 4694   4.009   8.324   3.499
  495W        W 4695   1.258   9.935  10.753
  496W        W 4696   7.629  11.063   1.689
  497W        W 4697   9.999   3.763  11.621
  498W        W 4698  11.120   5.457  10.853
  499W        W 4699   7.214   3.987   2.466
  500W        W 4700   1.856   6.117  11.344
  501W        W 4701   9.755   9.040   0.891
  502W        W 4702   8.438   1.627  10.835
  503W        W 4703   9.657  11.222   2.777
  504W        W 4704   1.358   1.752   0.690
  505W        W 4705   4.293   9.152   1.229
  506W        W 4706   0.331   4.750  11.709
  507W        W 4707   0.596   4.198   0.732
  508W        W 4708  10.500  10.227   0.679
  509W        W 4709   0.807   0.338  11.823
  510W        W 4710   8.459   5.453   3.743
  511W        W 4711   0.852  10.779   9.873
  512W        W 4712   4.677   0.894   2.137
  513W        W 4713   3.612   8.567  11.734
  514W        W 4714   3.413   8.062   3.144
  515W        W 4715   4.280   3.346   2.806
  516W        W 4716   1.177   7.830   1.077
  517W        W 4717   8.762   1.530   3.006
  518W        W 4718   5.285   8.682   8.637
  519W        W 4719   8.091   1.165   9.293
  520W        W 4720   0.918  11.265   0.948
  521W        W 4721   6.705   5.578   2.478
  522W        W 4722   4.359   1.351   9.484
  523W        W 4723   2.167   6.583   1.302
  524W        W 4724   0.879   7.933   9.108
  525W        W 4725   3.535   0.438   2.332
  526W        W 4726   1.633   3.501   8.478
  527W        W 4727   7.153   1.403  11.423
  528W        W 4728   3.687   6.588   3.109
  529W        W 4729   0.824   6.605  10.026
  530W        W 4730   1.596   5.327   0.817
  531W        W 4731   1.602   2.701  11.675
  532W        W 4732   6.419   8.866  10.273
  533W        W 4733   3.091  11.044   3.407
  534W        W 4734  10.619   0.327   1.758
  535W        W 4735  10.012   8.612   9.675
  536W        W 4736   5.251   3.558  11.336
  537W        W 4737  10.573   3.093  11.571
  538W        W 4738   1.754   0.512   2.602
  539W        W 4739   5.524   3.482   4.258
  540W        W 4740   2.483   8.590  10.773
  541W        W 4741   1.736   7.930   2.998
  542W        W 4742   7.990   3.456   2.105
  543W        W 4743   9.678   9.632   0.085
  544W        W 4744   7.921  11.318   2.970
  545W        W 4745  10.015   7.423   0.471
  546W        W 4746   5.590   8.560  10.697
  547W        W 4747   2.132   0.950   9.385
  548W        W 4748   7.254   1.273   2.265
  549W        W 4749   7.144  10.391  10.877
  550W        W 4750   0.694   6.472   2.761
  551W        W 4751   2.305   1.713   2.469
  552W        W 4752   5.692   4.208   0.115
  553W        W 4753   2.028   5.228  11.713
  554W        W 4754   0.540   5.098   2.792
  555W        W 4755   4.167   8.503  10.498
  556W        W 4756   3.339   9.420   1.927
  557W        W 4757   5.244   8.275   2.970
  558W        W 4758  10.029   3.525   0.058
  559W        W 4759   0.683   3.595   2.775
  560W        W 4760   9.606   1.453  10.595
  561W        W 4761   4.332   6.559   1.711
  562W        W 4762  11.135   9.514   9.531
  563W        W 4763   9.262   9.424   3.099
  564W        W 4764   3.997  10.980   3.189
  565W        W 4765   7.041  11.071   1.538
  566W        W 4766   2.181   9.734  10.813
  567W        W 4767   4.082   2.639   2.324
  568W        W 4768   6.229   4.101   8.660
  569W        W 4769   3.251   0.005   2.205
  570W        W 4770   6.055   7.158   3.939
  571W        W 4771  10.487   6.481   2.828
  572W        W 4772   3.419   8.964   3.368
  573W        W 4773   6.743  11.069   0.545
  574W        W 4774   6.140   3.006   8.624
  575W        W 4775   5.557   5.558  10.015
  576W        W 4776   1.344   4.214   2.916
  577W        W 4777   7.623   0.506  11.593
  578W        W 4778   6.911   6.517   0.699
  579W        W 4779   2.323   4.814  10.952
  580W        W 4780   0.493   1.294   9.893
  581W        W 4781   5.934   0.596   9.829
  582W        W 4782   7.589   2.479   1.203
  583W        W 4783   3.799   2.326  11.762
  584W        W 4784   8.191   1.320   1.768
  585W        W 4785   0.745   9.063   3.027
  586W        W 4786   9.958  11.399   9.860
  587W        W 4787   4.905   1.836   3.292
  588W        W 4788   3.645   1.622   9.033
  589W        W 4789   7.378   7.134  11.491
  590W        W 4790   3.143   4.233   2.760
  591W        W 4791   5.614   7.568  10.539
  592W        W 4792  10.461   4.709   1.956
  593W        W 4793   5.155   5.597   0.321
  594W        W 4794   9.450   7.692   9.424
  595W        W 4795   4.961   1.419  11.554
  596W        W 4796   4.963   3.056   8.704
  597W        W 4797   0.316   9.053   9.272
  598W        W 4798   3.742   5.187   2.672
  599W        W 4799  10.333   4.736   2.431
  600W        W 4800   4.356   1.706  11.509
  601W        W 4801   2.228   3.612   1.743
  602W        W 4802  10.892   8.458  11.412
  603W        W 4803   3.736  11.327  10.882
  604W        W 4804   5.716   0.122   1.872
  605W        W 4805   1.646   1.878   1.786
  606W        W 4806   6.212   3.405   0.028
  607W        W 4807   5.058   8.107  11.281
  608W        W 4808   2.855   7.394   0.680
  609W        W 4809   3.530   2.863  11.261
  610W        W 4810   4.231   9.563   8.935
  611W        W 4811   5.579   6.657   1.114
  612W        W 4812  10.707   9.452  11.113
  613W        W 4813   3.720   7.519   3.076
  614W        W 4814   1.309   8.667  11.895
  615W        W 4815   0.195   3.013   9.309
  616W        W 4816   2.706   3.607   1.524
  617W        W 4817   3.150   2.981   2.339
  618W        W 4818   1.927   8.549   9.931
  619W        W 4819   4.653   2.904  11.831
  620W        W 4820   1.880   9.475   2.582
  621W        W 4821   4.060  10.287  11.843
  622W        W 4822   3.632   6.268  11.886
  623W        W 4823   1.267   9.051   0.711
  624W        W 4824   5.167   1.040   9.955
  625W        W 4825   9.075   8.080   2.952
  626W        W 4826   2.742   8.353   1.506
  627W        W 4827   0.863   3.020  11.039
  628W        W 4828   9.163   0.975   8.659
  629W        W 4829   4.293   8.043   0.001
  630W        W 4830   6.107   8.704   3.618
  631W        W 4831   7.796   2.056  11.860
  632W        W 4832   1.307   9.862   3.031
  633W        W 4833   3.271   0.393   1.870
  634W        W 4834   4.141   6.086   8.294
  635W        W 4835   3.168   6.166   0.723
  636W        W 4836   7.620   6.870   9.988
  637W        W 4837  11.219   5.684   2.766
  638W        W 4838   1.440   9.508  10.502
  639W        W 4839   7.432  11.162  11.858
  640W        W 4840   2.058   2.311  10.492
  641W        W 4841   9.285   9.914  11.388
  642W        W 4842   2.344  11.034   9.144
  643W        W 4843   8.365   6.128   3.133
  644W        W 4844   3.434   3.409   4.193
  645W        W 4845   6.527   1.828   0.435
  646W        W 4846   5.326   7.640   0.795
  647W        W 4847  10.843   6.388   3.514
  648W        W 4848   9.433   0.840   9.085
  649W        W 4849   3.604   4.987  10.774
  650W        W 4850   6.051   9.917  11.207
  651W        W 4851   1.706   4.114   9.430
  652W        W 4852   1.642   7.119   0.991
  653W        W 4853   8.152   3.393   2.609
  654W        W 4854   7.342   0.925  11.395
  655W        W 4855   7.030   1.883   1.639
  656W        W 4856   5.230   2.670  11.809
  657W        W 4857   7.937   8.948   0.843
  658W        W 4858  10.076   4.320   9.386
  659W        W 4859   9.880   3.927   3.005
  660W        W 4860   7.418   5.990   9.872
  661W        W 4861   8.501   1.403  11.438
  662W        W 4862   1.456   8.186   1.313
  663W        W 4863   8.015  10.784   0.565
  664W        W 4864   5.232   0.634   0.919
  665W        W 4865   8.232   6.110   0.369
  666W        W 4866   9.063   8.078  10.739
  667W        W 4867   5.467   6.535   9.172
  668W        W 4868   6.238   9.933   8.588
  669W        W 4869   9.969   5.728   8.972
  670W        W 4870  11.194   3.821   2.672
  671W        W 4871   7.521   4.720   1.640
  672W        W 4872   8.539   8.973  11.984
  673W        W 4873   2.728   6.157   2.006
  674W        W 4874   1.235   6.567  10.327
  675W        W 4875   4.741   9.417   1.194
  676W        W 4876   5.194   9.395   9.985
  677W        W 4877   5.190   8.571   2.061
  678W        W 4878  11.410   2.943   8.888
  679W        W 4879   0.803   9.083   0.501
  680W        W 4880   6.038   2.077   2.762
  681W        W 4881   4.078   2.885  11.094
  682W        W 4882   7.036   0.086   9.235
  683W        W 4883   1.742   7.948   0.382
  684W        W 4884  10.895   6.368   9.310
  685W        W 4885   1.282   6.492   9.787
  686W        W 4886   9.005  10.864   2.036
  687W        W 4887   8.055   7.175   0.676
  688W        W 4888   1.218  10.880   9.520
  689W        W 4889   1.383   6.959  10.998
  690W        W 4890   8.603   9.802   9.807
  691W        W 4891   8.854   4.062  11.768
  692W        W 4892   6.254   2.167   3.226
  693W        W 4893   6.052   9.455   0.823
  694W        W 4894   1.123   0.291  10.880
  695W        W 4895   4.736   5.644   0.639
  696W        W 4896   4.216   7.544  10.511
  697W        W 4897   8.981   8.674   8.483
  698W        W 4898   2.960   5.304   1.575
  699W        W 4899   6.309   3.313   1.339
  700W        W 4900   6.522   8.368  11.037
  701W        W 4901   4.055   7.259   2.764
  702W        W 4902  10.765   4.155  10.069
  703W        W 4903   2.671   1.209  10.838
  704W        W 4904   9.202   5.888  10.775
  705W        W 4905   6.980   0.609  11.208
  706W        W 4906   7.162   6.223   2.233
  707W        W 4907   3.075   3.113   9.526
  708W        W 4908   4.941   5.225  11.484
  709W        W 4909   4.113   0.270   1.516
  710W        W 4910   0.879   1.277   1.504
  711W        W 4911   4.656   2.814   3.448
  712W        W 4912  10.417   6.484   9.043
  713W        W 4913   2.633   6.153   2.852
  714W        W 4914   9.973   8.878  11.575
  715W        W 4915   8.264   0.301  10.489
  716W        W 4916   8.818   0.248   1.841
  717W        W 4917   6.571   8.178   1.969
  718W        W 4918   4.147   6.093   0.828
  719W        W 4919   6.304   1.443  11.610
  720W        W 4920   8.016   6.467   0.015
  721W        W 4921   2.654   3.287   0.545
  722W        W 4922   1.260   0.772   9.973
  723W        W 4923   4.688   5.681  11.520
  724W        W 4924   2.996   3.741   2.830
  725W        W 4925  11.053   1.617   2.837
  726W        W 4926   6.936   7.501  11.861
  727W        W 4927   3.772  10.874   8.999
  728W        W 4928   4.947  10.772   3.409
  729W        W 4929   4.402   0.717  11.648
  730W        W 4930  10.501   6.911  10.689
  731W        W 4931   6.632   1.569   0.859
  732W        W 4932   0.209   3.498   9.914
  733W        W 4933   5.004  10.366  11.970
  734W        W 4934   0.819   7.177   0.511
  735W        W 4935   6.107   2.683   1.208
  736W        W 4936   8.922   1.468   1.729
  737W        W 4937   1.206  10.085   3.516
  738W        W 4938  10.933   1.298  10.670
  739W        W 4939   1.650  11.445  10.127
  740W        W 4940   1.137   7.316   1.036
  741W        W 4941   2.096   6.214   0.905
  742W        W 4942   4.502   3.187   2.266
  743W        W 4943  10.025  10.833  10.904
  744W        W 4944  10.327   8.841  10.919
  745W        W 4945   8.113  10.154  10.419
  746W        W 4946  10.002   7.198   1.878
  747W        W 4947   5.456   8.409   9.050
  748W        W 4948   3.808  10.448   1.416
  749W        W 4949   4.807   1.001  11.788
  750W        W 4950   1.278  10.674   1.934
  751W        W 4951   1.786   2.428   2.819
  752W        W 4952   6.674   5.235   1.374
  753W        W 4953  10.034   8.418   9.203
  754W        W 4954   3.351   4.679   2.604
  755W        W 4955   4.590   3.747   1.982
  756W        W 4956   4.304   2.442  10.973
  757W        W 4957   8.566   1.944   9.363
  758W        W 4958  11.300   4.243   9.394
  759W        W 4959   9.383   5.451   9.942
  760W        W 4960   8.383   8.081  10.008
  761W        W 4961   6.937   4.180   0.581
  762W        W 4962   1.278   5.343   1.256
  763W        W 4963   3.453   3.277  10.399
  764W        W 4964   4.701   0.371   9.389
  765W        W 4965   9.751   6.709   8.238
  766W        W 4966   8.192   0.436   9.975
  767W        W 4967   6.316   6.113  11.490
  768W        W 4968   5.180   4.841  11.739
  769W        W 4969   2.320   3.867   9.015
  770W        W 4970  11.488  11.225   0.986
  771W        W 4971   9.963   6.229   9.005
  772W        W 4972   1.137   9.531   9.024
  773W        W 4973   6.278   5.303   1.736
  774W        W 4974   7.936   9.793  11.793
  775W        W 4975   4.546   2.305  10.019
  776W        W 4976   0.414   0.326   1.946
  777W        W 4977   7.498   1.027   3.016
  778W        W 4978   7.461   1.471  10.481
  779W        W 4979   0.074   7.290   0.333
  780W        W 4980  10.685   2.966   9.424
  781W        W 4981   8.496   2.384  11.233
  782W        W 4982   5.754   3.676   2.288
  783W        W 4983   7.232   8.455  11.950
  784W        W 4984   7.800   4.242   1.581
  785W        W 4985   0.149   6.143   9.887
  786W        W 4986   4.764   4.105   9.611
  787W        W 4987   7.677   9.553   9.777
  788W        W 4988   5.569   0.289  11.541
  789W        W 4989   5.563   9.900   8.568
  790W        W 4990  11.256   2.213  10.625
  791W        W 4991   7.801   7.927   0.603
  792W        W 4992  11.062   7.009  11.940
  793W        W 4993   7.953   4.291   2.820
  794W        W 4994   6.772   8.067   0.273
  795W        W 4995  11.261   0.278   9.908
  796W        W 4996   7.557  10.595   2.623
  797W        W 4997   4.540   0.837  10.327
  798W        W 4998   7.455   5.209  11.763
  799W        W 4999   7.214   0.887   9.784
  800W        W 5000   6.620  11.347   9.056
  801W        W 5001   7.947   6.167   8.738
  802W        W 5002   4.606   3.081   0.304
  803W        W 5003   3.046   9.050  11.468
  804W        W 5004   7.554   1.706  11.080
  805W        W 5005   8.849   7.991   2.014
  806W        W 5006  11.303  10.795   0.747
  807W        W 5007   0.793   7.514  11.756
  808W        W 5008   4.726   7.495  11.325
  809W        W 5009   1.045   7.960   9.596
  810W        W 5010   9.843   6.549  11.779
  811W        W 5011   0.090  11.457  11.766
  812W        W 5012  10.530   0.339   9.264
  813W        W 5013   5.363   6.596   2.060
  814W        W 5014   2.909  10.122   1.779
  815W        W 5015   5.341   6.747  11.626
  816W        W 5016  10.232   5.664   9.415
  817W        W 5017  11.071   4.480  10.368
  818W        W 5018   6.451   3.747   8.973
  819W        W 5019   4.187   6.535   2.200
  820W        W 5020   4.021   6.706  10.038
  821W        W 5021   8.846   9.890  11.167
  822W        W 5022   8.946   1.095  11.397
  823W        W 5023   9.720   8.151   1.751
  824W        W 5024   3.773   9.514   2.274
  825W        W 5025   0.266   7.513   1.924
  826W        W 5026   4.704   9.802   8.830
  827W        W 5027   7.081   9.355  11.697
  828W        W 5028   5.440  10.349  10.322
  829W        W 5029   5.472   3.760   8.664
  830W        W 5030  10.462  11.355   9.840
  831W        W 5031  11.479   8.478  10.817
  832W        W 5032   1.329  10.885   3.047
  833W        W 5033   8.882   1.437  10.680
  834W        W 5034   7.262   0.082   9.697
  835W        W 5035  10.324   5.651   0.402
  836W        W 5036   8.642   3.715   8.181
  837W        W 5037  10.307   7.312  10.347
  838W        W 5038  10.326   2.916   9.781
  839W        W 5039   0.449   2.215  10.783
  840W        W 5040  10.930   0.076   0.802
  841W        W 5041   7.870   5.741   0.311
  842W        W 5042  10.875   0.721   9.880
  843W        W 5043   4.069   5.542  11.794
  844W        W 5044   3.753   8.932  10.101
  845W        W 5045   9.542  10.569  11.896
  846W        W 5046   4.695   0.484   0.949
  847W        W 5047   1.005   2.684   2.124
  848W        W 5048   1.968   0.439  11.051
  849W        W 5049  10.906   6.171  11.796
  850W        W 5050   9.354   5.669   0.662
  851W        W 5051   5.913   3.634   8.961
  852W        W 5052   1.634   9.372   2.121
  853W        W 5053   0.040   7.137   3.513
  854W        W 5054   8.018   7.214   2.560
  855W        W 5055   0.864   3.288  11.467
  856W        W 5056   6.567   0.288   1.994
  857W        W 5057   8.066   0.525   3.332
  858W        W 5058  10.697   9.782  11.514
  859W        W 5059   7.716   2.236   2.157
  860W        W 5060   5.111   6.997  10.458
  861W        W 5061   9.649   2.065   1.803
  862W        W 5062   6.629  11.271  10.769
  863W        W 5063   4.420   9.758   0.930
  864W        W 5064   5.924   6.611  10.398
  865W        W 5065   1.248   7.578   9.238
  866W        W 5066   1.901  10.606   9.860
  867W        W 5067  10.743   8.336   0.357
  868W        W 5068   8.864   9.978   1.041
  869W        W 5069   0.675   5.976   2.836
  870W        W 5070  10.784   9.584  10.058
  871W        W 5071   9.992  10.090   1.684
  872W        W 5072   2.771   2.273   3.620
  873W        W 5073   5.620  11.483   3.166
  874W        W 5074  11.012  11.173   8.988
  875W        W 5075   7.985   1.852   1.928
  876W        W 5076   2.967   0.660   9.550
  877W        W 5077  10.858   9.149   9.768
  878W        W 5078   4.627   1.935   2.513
  879W        W 5079   5.442   7.166  11.912
  880W        W 5080   8.578   3.229  11.295
  881W        W 5081   9.966  10.001   9.222
  882W        W 5082   0.331   6.097   9.418
  883W        W 5083   4.122   1.610  11.949
  884W        W 5084   8.486   1.729   8.905
  885W        W 5085  10.510   9.792   0.414
  886W        W 5086   4.201   7.225  10.903
  887W        W 5087   5.518   9.893   2.486
  888W        W 5088   4.981   6.899  11.947
  889W        W 5089   5.045   4.532   1.227
  890W        W 5090   4.360  11.287   2.993
  891W        W 5091   7.118   7.505   2.639
  892W        W 5092  11.150  10.291   2.340
  893W        W 5093   0.518   9.996   1.875
  894W        W 5094   0.819   0.684   9.108
  895W        W 5095   5.655   0.891  11.673
  896W        W 5096   7.848  10.394   0.280
  897W        W 5097   6.663   7.197   1.778
  898W        W 5098   9.420   7.335   1.860
  899W        W 5099   6.449   3.196   9.557
  900W        W 5100   6.153   6.994   3.058
  901W        W 5101   6.189   3.556  10.288
  902W        W 5102   3.398   9.334   0.270
  903W        W 5103   3.869   1.662  10.936
  904W        W 5104   2.005   0.455   9.524
  905W        W 5105   1.915   1.554   2.760
  906W        W 5106   5.165   6.955   9.261
  907W        W 5107  10.623   5.038  10.333
  908W        W 5108   8.961   9.317   9.324
  909W        W 5109   1.361   3.149   9.794
  910W        W 5110   3.809   3.733   2.168
  911W        W 5111   5.888   7.459   9.317
  912W        W 5112   6.720   7.812   3.227
  913W        W 5113   6.405   9.998   2.911
  914W        W 5114   0.908   3.653   9.332
  915W        W 5115   5.710  10.395  10.789
  916W        W 5116   3.525   0.795  10.465
  917W        W 5117   7.132   6.931   9.824
  918W        W 5118   9.727  11.425  10.321
  919W        W 5119   4.951   8.363   0.258
  920W        W 5120   7.062   0.482   2.696
  921W        W 5121   0.299   7.352  10.345
  922W        W 5122   3.594  10.365   2.504
  923W        W 5123   6.969   7.424   9.824
  924W        W 5124   9.082   6.432   8.403
  925W        W 5125   3.958   9.843  11.572
  926W        W 5126  10.424   7.661  11.529
  927W        W 5127   9.868   6.667  10.773
  928W        W 5128   2.823   1.423   3.341
  929W        W 5129   2.973   9.852   9.498
  930W        W 5130   7.640   6.684   0.319
  931W        W 5131   9.362  10.575   0.371
  932W        W 5132   0.259   4.603   0.771
  933W        W 5133  11.073   2.657  10.800
  934W        W 5134   1.810  10.405   2.604
  935W        W 5135   2.444   0.704   1.620
  936W        W 5136   9.814   4.170  11.908
  937W        W 5137  10.023   3.689  11.132
  938W        W 5138   1.403   7.619   3.297
  939W        W 5139   5.031   3.635  10.075
  940W        W 5140   8.674  10.498   0.907
  941W        W 5141   1.893   8.375   1.523
  942W        W 5142   9.342   2.895   1.573
  943W        W 5143   9.257   5.755   8.472
  944W        W 5144   6.778   7.578   0.790
  945W        W 5145   3.129   7.458   0.210
  946W        W 5146   4.840   9.493   3.235
  947W        W 5147   4.493   1.204  11.445
  948W        W 5148   7.622   3.340   2.448
  949W        W 5149   3.139  10.357  11.763
  950W        W 5150   6.679   8.977   9.841
  951W        W 5151   0.305   2.601   9.989
  952W        W 5152   2.317   7.195   9.065
  953W        W 5153   6.250   3.759  11.447
  954W        W 5154   0.700   7.320   2.659
  955W        W 5155   3.641   9.398   0.747
  956W        W 5156   0.527   1.710   9.080
  957W        W 5157  11.452   0.037   8.875
  958W        W 5158   6.746   9.804   0.383
  959W        W 5159   5.891   7.292  11.723
  960W        W 5160   4.947   7.984  10.661
  961W        W 5161   3.268   2.146   9.213
  962W        W 5162   3.684   1.982  11.324
  963W        W 5163   7.237   3.107  10.150
  964W        W 5164   7.730   9.554   0.238
  965W        W 5165   9.966   4.960   9.230
  966W        W 5166   4.455  11.000   0.924
  967W        W 5167   9.777   2.403  11.308
  968W        W 5168  10.811   9.408   9.104
  969W        W 5169   5.298   5.108   0.335
  970W        W 5170   9.140   5.950  10.248
  971W        W 5171   6.107   9.523   2.988
  972W        W 5172  11.291   6.521  11.886
  973W        W 5173   1.003   0.256   9.589
  974W        W 5174   1.015   0.520  10.422
  975W        W 5175   7.333   7.942  10.450
  976W        W 5176   0.209   0.790   2.845
  977W        W 5177   6.095   7.533  11.293
  978W        W 5178   4.550   4.544   1.324
  979W        W 5179  10.353  10.835   1.966
  980W        W 5180   3.077   0.829   1.223
  981W        W 5181   8.633   4.703   1.738
  982W        W 5182   4.702   7.588  10.322
  983W        W 5183   8.596   4.816  11.997
  984W        W 5184   3.222   7.383  11.710
  985W        W 5185   7.263   2.321   1.828
  986W        W 5186   8.451   2.750   3.558
  987W        W 5187   5.711  10.826   9.465
  988W        W 5188  11.382   8.657  11.632
  989W        W 5189   9.023   4.532   8.369
  990W        W 5190   9.271   0.339   1.049
  991W        W 5191   7.056   5.510  11.997
  992W        W 5192   3.933   2.122   2.899
  993W        W 5193   8.119   6.532   1.373
  994W        W 5194   3.895   6.655   8.986
  995W        W 5195   5.265  11.473   9.703
  996W        W 5196   6.910   8.617   1.311
  997W        W 5197  10.931  10.096  11.872
  998W        W 5198   1.886   5.006  10.716
  999W        W 5199   4.283   8.173   1.400
 1000W        W 5200   0.996   5.007   2.578
 1001W        W 5201  10.387   8.962  11.860
 1002W        W 5202   2.684   1.192  10.329
 1003W        W 5203   8.880   2.785   1.800
 1004W        W 5204   7.960   9.026   2.633
 1005W        W 5205   7.131   3.089  10.671
 1006W        W 5206  11.017   5.667  11.836
 1007W        W 5207   2.702   3.112   9.875
 1008W        W 5208   3.938   0.743   1.606
 1009W        W 5209   7.252   8.976  11.254
 1010W        W 5210   7.621   3.628  10.948
 1011W        W 5211   2.672   4.121   1.504
 1012W        W 5212   1.385   3.886   3.350
 1013W        W 5213  10.936  10.631   1.678
 1014W        W 5214   0.761   6.067   2.344
 1015W        W 5215  10.178   8.055   8.832
 1016W        W 5216   3.757  10.469   1.946
 1017W        W 5217  10.767   2.311   9.278
 1018W        W 5218   0.550   0.481   9.501
 1019W        W 5219   6.176  11.478   3.347
 1020W        W 5220   5.243   7.267   2.770
 1021W        W 5221   9.514  10.681   3.273
 1022W        W 5222   0.065   5.912   3.609
 1023W        W 5223   5.989   9.972   3.243
 1024W        W 5224   5.175   6.547   9.605
 1025W        W 5225   6.750  10.959  10.326
 1026W        W 5226   7.865   2.208  10.208
 1027W        W 5227   0.200  10.922   1.765
 1028W        W 5228   9.087   5.072   8.149
 1029W        W 5229   5.636   3.720   0.260
 1030W        W 5230   0.875   2.818   3.122
 1031W        W 5231   1.261   2.574  10.406
 1032W        W 5232   9.068   2.088   9.478
 1033W        W 5233   6.879   8.104  10.709
 1034W        W 5234   2.912   8.044   0.006
 1035W        W 5235   4.044   0.213   2.337
 1036W        W 5236   9.437   3.716   8.975
 1037W        W 5237  10.798   6.587   0.092
 1038W        W 5238   8.214   4.884   0.534
 1039W        W 5239   0.912  11.156   8.996
 1040W        W 5240  10.958   9.778   8.722
 1041W        W 5241   8.868   7.638   3.151
 1042W        W 5242   0.938   2.043   8.697
 1043W        W 5243   5.926   1.277   1.213
 1044W        W 5244   5.751   5.796   2.493
 1045W        W 5245   7.456   8.568   9.649
 1046W        W 5246  11.199   0.727   2.536
 1047W        W 5247   9.013   9.001  10.725
 1048W        W 5248   5.594   4.543  11.202
 1049W        W 5249   2.873   0.440   0.743
 1050W        W 5250   4.194  10.088   8.767
 1051W        W 5251   3.188   6.744  10.788
 1052W        W 5252   0.466  11.473   8.725
 1053W        W 5253   7.101   0.753   1.825
 1054W        W 5254   5.255   0.034   3.536
 1055W        W 5255   1.572   7.211  10.228
 1056W        W 5256   4.767   8.630   8.590
 1057W        W 5257   3.497   0.257   3.233
 1058W        W 5258   3.188   5.757   1.534
 1059W        W 5259   7.284   6.075   1.419
 1060W        W 5260   6.122   2.152   1.279
 1061W        W 5261   3.656   8.534   3.175
 1062W        W 5262   7.587   9.722   2.315
 1063W        W 5263   4.838   9.633  10.255
 1064W        W 5264   5.491   7.600   1.249
 1065W        W 5265   7.420   4.949   9.492
 1066W        W 5266  11.353   0.773   9.998
 1067W        W 5267   3.200   9.396   3.169
 1068W        W 5268   5.680   7.512   1.691
 1069W        W 5269   2.785   4.578  11.175
 1070W        W 5270   9.798   1.881  11.380
 1071W        W 5271   0.188   1.323   8.919
 1072W        W 5272   9.521   3.146  11.054
 1073W        W 5273   1.439   3.928  10.443
 1074W        W 5274   4.315   4.157   0.641
 1075W        W 5275   5.722  10.326   2.260
 1076W        W 5276   9.147   3.170   2.574
 1077W        W 5277   5.819  11.122   1.732
 1078W        W 5278   1.192   2.792   3.515
 1079W        W 5279  10.929  11.421  10.883
 1080W        W 5280   7.666  11.324   2.155
 1081W        W 5281   7.075   1.000   2.666
 1082W        W 5282   2.526   4.376  11.589
 1083W        W 5283   1.006   4.610  10.934
 1084W        W 5284   2.016   1.466   8.480
 1085W        W 5285   7.315   2.214  11.884
 1086W        W 5286   0.779   3.791   1.317
 1087W        W 5287   9.743   9.519   2.003
 1088W        W 5288   7.772   3.899  11.388
 1089W        W 5289   6.394   7.429   3.139
 1090W        W 5290   8.633   5.126   0.420
 1091W        W 5291   4.806   9.107   3.568
 1092W        W 5292   4.284   6.513   9.518
 1093W        W 5293   4.173   4.159   1.211
 1094W        W 5294   8.097   5.141   3.930
 1095W        W 5295   7.069   3.962   9.522
 1096W        W 5296   2.867   1.266   9.277
 1097W        W 5297   5.501   3.245   3.050
 1098W        W 5298   6.931   0.982   9.351
 1099W        W 5299   7.958   9.420   2.978
 1100W        W 5300   4.517   6.511   9.968
 1101W        W 5301   5.120   2.376   1.333
 1102W        W 5302   4.535   6.549  11.465
 1103W        W 5303   7.678   7.491   0.872
 1104W        W 5304   5.454  10.387   0.271
 1105W        W 5305  10.909   2.279  11.986
 1106W        W 5306   5.106   2.023  10.442
 1107W        W 5307   4.659   5.592  11.013
 1108W        W 5308   2.895   0.857   2.637
 1109W        W 5309   1.193   0.451   0.210
 1110W        W 5310  10.480   0.804   1.902
 1111W        W 5311   6.050   7.866  10.519
 1112W        W 5312   5.186   4.423   3.408
 1113W        W 5313   0.513   6.192   8.887
 1114W        W 5314   3.813   4.076   0.857
 1115W        W 5315   4.864   2.712   9.059
 1116W        W 5316   3.325   9.132  10.565
 1117W        W 5317   6.643   9.039  11.701
 1118W        W 5318   5.834   3.259  11.679
 1119W        W 5319   5.076   4.666   2.156
 1120W        W 5320   5.330   6.104  10.004
 1121W        W 5321   4.602   5.107  10.702
 1122W        W 5322   5.239   0.319   1.812
 1123W        W 5323   2.587  11.048   1.530
 1124W        W 5324   1.787   7.783  10.920
 1125W        W 5325   3.645   0.719   0.181
 1126W        W 5326   9.381   0.392  11.797
 1127W        W 5327   4.963   0.224   8.853
 1128W        W 5328   8.165   8.925  11.234
 1129W        W 5329   7.458   0.150  11.939
 1130W        W 5330  10.333  10.351   3.221
 1131W        W 5331   0.601   8.781   1.300
 1132W        W 5332   7.462   9.405   3.316
 1133W        W 5333   0.477   8.201   2.110
 1134W        W 5334  10.448   6.923   1.858
 1135W        W 5335   6.426   0.044  11.906
 1136W        W 5336   5.743   7.562   2.193
 1137W        W 5337   6.993   6.510  11.808
 1138W        W 5338   9.895   8.102   1.283
 1139W        W 5339   6.065   9.610   9.166
 1140W        W 5340   7.183  10.869   3.325
 1141W        W 5341   5.254  11.277   0.450
 1142W        W 5342   4.598  11.399  10.604
 1143W        W 5343  10.453   0.989   8.782
 1144W        W 5344   6.179   2.964   1.716
 1145W        W 5345  11.237   2.718   1.412
 1146W        W 5346   0.908   7.068  11.993
 1147W        W 5347   9.463  10.751   2.773
 1148W        W 5348  10.891   1.124  10.186
 1149W        W 5349   3.431   0.827   1.645
 1150W        W 5350   8.846   2.472   0.928
 1151W        W 5351   8.478  10.243   1.319
 1152W        W 5352   0.981   7.082   9.272
 1153W        W 5353   7.385   1.141   0.727
 1154W        W 5354   6.654   7.576   0.288
 1155W        W 5355   5.071   9.844  11.803
 1156W        W 5356  11.057   3.218   1.336
 1157W        W 5357   1.431   1.460  10.640
 1158W        W 5358   5.011   1.694   2.289
 1159W        W 5359   0.112   6.464   0.512
 1160W        W 5360   0.386   6.626  11.520
 1161W        W 5361   4.822   3.297  11.461
 1162W        W 5362   4.797  11.323  11.574
 1163W        W 5363   7.956   4.421   2.055
 1164W        W 5364   5.125   0.885   2.487
 1165W        W 5365   9.816   0.896   1.098
 1166W        W 5366   8.778   3.577   8.648
 1167W        W 5367   4.088   2.394   9.814
 1168W        W 5368   2.477   1.890   0.968
 1169W        W 5369   0.482  10.850   3.399
 1170W        W 5370   0.114   8.209  10.415
 1171W        W 5371   2.239   9.643   8.936
 1172W        W 5372   5.017   5.649   1.387
 1173W        W 5373   9.318   4.210   9.051
 1174W        W 5374  11.286   5.220   0.542
 1175W        W 5375   1.756   1.015   8.813
 1176W        W 5376   3.574   7.229   1.034
 1177W        W 5377   3.630   4.926   9.458
 1178W        W 5378   7.380  10.900   1.208
 1179W        W 5379   3.129   1.170  11.082
 1180W        W 5380   9.874   9.017  11.089
 1181W        W 5381   3.451   7.455   9.832
 1182W        W 5382  11.226   1.885  11.884
 1183W        W 5383  11.458   1.263   9.814
 1184W        W 5384   7.869   4.620   1.252
 1185W        W 5385   7.878  10.680  10.501
 1186W        W 5386  10.001   5.234   2.933
 1187W        W 5387   7.475   4.110  10.937
 1188W        W 5388   0.082   0.853  11.724
 1189W        W 5389   5.848   1.329  11.853
 1190W        W 5390   2.791   4.063  11.005
 1191W        W 5391   6.771   8.215  11.566
 1192W        W 5392   9.213   1.163  10.428
 1193W        W 5393   4.808   0.170   9.866
 1194W        W 5394   7.987   5.223   1.440
 1195W        W 5395   5.050  10.876   1.722
 1196W        W 5396   8.316  10.996   0.929
 1197W        W 5397  10.277   8.946   0.994
 1198W        W 5398  11.369   5.076   3.459
 1199W        W 5399   1.736   5.180   8.973
 1200W        W 5400   2.564   7.984   0.935
 1201W        W 5401   6.143   6.681   3.744
 1202W        W 5402   7.025   5.647   1.454
 1203W        W 5403   8.727   4.075   2.288
 1204W        W 5404   0.032   1.866   9.078
 1205W        W 5405   9.056   2.380   2.984
 1206W        W 5406   1.442   1.742   0.188
 1207W        W 5407   1.768   2.375   1.804
 1208W        W 5408   0.822   9.799   9.874
 1209W        W 5409   6.889   9.937  10.920
 1210W        W 5410   4.551   4.803   8.290
 1211W        W 5411   7.927   8.928  10.395
 1212W        W 5412   4.641   3.804   0.865
 1213W        W 5413   8.964   9.866  10.615
 1214W        W 5414   1.974   7.567  11.353
 1215W        W 5415   6.023   3.574   4.099
 1216W        W 5416   0.007   0.426  10.388
 1217W        W 5417   7.997  10.792  11.543
 1218W        W 5418   5.826   3.090   1.376
 1219W        W 5419   2.283   4.123  10.591
 1220W        W 5420   0.683   8.730   9.036
 1221W        W 5421   6.218   4.535   9.397
 1222W        W 5422  11.380   9.791   1.632
 1223W        W 5423   1.814  10.095  11.603
 1224W        W 5424   0.950   1.914   9.356
 1225W        W 5425   8.436   9.509   2.780
 1226W        W 5426   5.481   0.838   9.583
 1227W        W 5427   5.419   3.317   1.097
 1228W        W 5428   9.218   2.025   0.411
 1229W        W 5429   5.600   8.984   1.994
 1230W        W 5430   9.999   9.923   2.707
 1231W        W 5431   6.639   4.177   3.144
 1232W        W 5432   9.898   9.894   1.215
 1233W        W 5433   9.235   0.637  10.409
 1234W        W 5434   3.801   8.037  10.019
 1235W        W 5435   8.718   2.179   0.246
 1236W        W 5436   9.096   9.473   1.374
 1237W        W 5437   1.845   2.638  10.129
 1238W        W 5438   8.928   7.197   9.986
 1239W        W 5439   5.624   9.554   8.927
 1240W        W 5440   3.144   2.370  10.116
 1241W        W 5441   1.263   4.716   0.162
 1242W        W 5442  11.409   1.882   2.007
 1243W        W 5443   9.498   5.066   9.048
 1244W        W 5444  11.241  11.272   0.547
 1245W        W 5445   2.581  10.753   9.565
 1246W        W 5446   8.552   9.533   0.793
 1247W        W 5447   3.866   0.422   9.683
 1248W        W 5448   5.927   4.746  11.828
 1249W        W 5449   0.788   0.097   0.269
 1250W        W 5450   7.215   2.293   9.351
 1251W        W 5451   2.586   2.329   0.416
 1252W        W 5452   3.201   1.754   2.492
 1253W        W 5453  10.849   7.985  11.610
 1254W        W 5454   8.498   1.753   1.836
 1255W        W 5455   9.361   7.630   3.072
 1256W        W 5456   8.523   5.751  11.838
 1257W        W 5457   5.642   2.123  10.892
 1258W        W 5458   2.150   6.577   8.519
 1259W        W 5459  10.875   4.131   9.108
 1260W        W 5460   4.832  10.222   9.155
 1261W        W 5461   3.342   6.111  10.199
 1262W        W 5462  11.247   2.337   2.904
 1263W        W 5463   1.223   1.813  10.304
 1264W        W 5464   8.887   9.955   2.028
 1265W        W 5465   3.216   1.580   9.602
 1266W        W 5466   0.758  10.692   8.801
 1267W        W 5467  10.522   1.333  11.045
 1268W        W 5468  11.374   8.835  11.152
 1269W        W 5469   8.775   3.191   3.518
 1270W        W 5470   2.185  11.383   1.387
 1271W        W 5471   3.452  11.116   2.530
 1272W        W 5472   5.897   4.164  11.444
 1273W        W 5473   2.235   9.081   0.999
 1274W        W 5474   0.902   0.451   2.649
 1275W        W 5475   7.637  11.098   2.603
 1276W        W 5476   3.794   8.163   8.728
 1277W        W 5477   6.107   6.498   0.292
 1278W        W 5478  11.360   7.419  11.905
 1279W        W 5479   1.565   4.323   8.971
 1280W        W 5480   5.547  11.403   2.650
 1281W        W 5481  11.432   7.581   1.092
 1282W        W 5482   6.125   4.833   0.842
 1283W        W 5483   4.673   3.579  10.987
 1284W        W 5484   8.518   2.488   1.363
 1285W        W 5485   1.957  10.883  10.968
 1286W        W 5486   7.698   4.384   3.268
 1287W        W 5487   6.689   8.355   9.004
 1288W        W 5488   7.726   2.254   2.669
 1289W        W 5489   1.573   7.035  11.548
 1290W        W 5490   7.103   1.896  11.295
 1291W        W 5491   5.575   6.613   2.619
 1292W        W 5492   9.031   3.326   1.137
 1293W        W 5493   9.382   7.447   0.410
 1294W        W 5494   8.008   2.935  11.863
 1295W        W 5495   0.496   7.110  11.726
 1296W        W 5496  10.952  10.913   2.615
 1297W        W 5497   5.437   2.365   3.512
 1298W        W 5498   1.115   2.448  11.711
 1299W        W 5499   9.921   9.470   2.477
 1300W        W 5500   0.950   8.359   8.332
 1301W        W 5501   9.170   4.224   2.110
 1302W        W 5502   6.189  10.419   1.985
 1303W        W 5503   5.664   4.149   3.511
 1304W        W 5504   3.766   9.818   8.908
 1305W        W 5505  11.039  11.030  10.494
 1306W        W 5506   3.791   9.816  10.611
 1307W        W 5507   2.532   7.507   1.134
 1308W        W 5508  10.893  10.007   0.881
 1309W        W 5509   0.939   3.674   1.809
 1310W        W 5510   2.145   0.860   9.885
 1311W        W 5511   7.009   1.285   1.023
 1312W        W 5512   6.685   4.324  11.760
 1313W        W 5513  10.928   8.527   1.879
 1314W        W 5514   1.043   0.827  10.865
 1315W        W 5515   3.597  11.242  10.391
 1316W        W 5516   9.332   1.054   2.565
 1317W        W 5517   9.534   2.433   0.123
 1318W        W 5518   1.765  10.811   0.146
 1319W        W 5519  10.034   6.105  11.976
 1320W        W 5520   6.564   4.782   1.120
 1321W        W 5521   2.774   7.376   8.914
 1322W        W 5522   8.931  -0.001   3.175
 1323W        W 5523  10.965   9.974   3.659
 1324W        W 5524   1.101   5.607   3.334
 1325W        W 5525   2.403   7.908   1.452
 1326W        W 5526   0.439   3.131   2.798
 1327W        W 5527   6.415   6.690   0.646
 1328W        W 5528   3.131  10.120   3.289
 1329W        W 5529   3.594   0.356   1.438
 1330W        W 5530   2.558   1.107   9.669
 1331W        W 5531   3.333   7.159   0.564
 1332W        W 5532  11.039   1.667   9.347
 1333W        W 5533   2.618   3.500  11.799
 1334W        W 5534   5.725   5.268   1.204
 1335W        W 5535   6.167   2.894  11.801
 1336W        W 5536   6.008   1.315  10.295
 1337W        W 5537   4.632   7.955  11.552
 1338W        W 5538  11.324   9.297   9.111
 1339W        W 5539  11.314   9.778   0.713
 1340W        W 5540   7.485   6.821   9.454
 1341W        W 5541   3.320  10.615   9.126
 1342W        W 5542   2.239   6.921   2.295
 1343W        W 5543   8.732   4.723  10.618
 1344W        W 5544   8.960   3.288   3.044
 1345W        W 5545   7.494   7.011   2.666
 1346W        W 5546   9.098   6.490   0.949
 1347W        W 5547   5.324   0.020   9.178
 1348W        W 5548   0.880   9.789  11.828
 1349W        W 5549  10.731  11.117   1.776
 1350W        W 5550   5.780  10.472   2.805
 1351W        W 5551   3.925   1.590   2.073
 1352W        W 5552   3.225   4.665  11.861
 1353W        W 5553   7.032   9.509   3.012
 1354W        W 5554   4.044   1.304  10.615
 1355W        W 5555   3.589  10.728  10.344
 1356W        W 5556   5.387   4.038  11.422
 1357W        W 5557   6.957   9.035   1.052
 1358W        W 5558   8.911   1.439  10.134
 1359W        W 5559   1.941   3.877  10.281
 1360W        W 5560   0.244   5.011   9.413
 1361W        W 5561   3.338   7.648  11.292
 1362W        W 5562   6.496   2.588   1.823
 1363W        W 5563   4.144  11.265   9.422
 1364W        W 5564   1.266   4.395   3.426
 1365W        W 5565   4.074   8.191   2.279
 1366W        W 5566   5.624   1.205  10.895
 1367W        W 5567   1.834   7.106   9.799
 1368W        W 5568   1.813   3.608  11.714
 1369W        W 5569   3.088   8.695   1.313
 1370W        W 5570   8.169   7.659   0.841
 1371W        W 5571   4.569   1.856   9.412
 1372W        W 5572   7.742   1.462   2.171
 1373W        W 5573   7.665   1.419   9.247
 1374W        W 5574   9.345   0.376   8.212
 1375W        W 5575   3.286   2.570   3.554
 1376W        W 5576   2.956   9.625   1.652
 1377W        W 5577   1.285   0.278  10.058
 1378W        W 5578   3.992   4.055  10.560
 1379W        W 5579   2.164   5.307   1.133
 1380W        W 5580   5.107   3.604   3.921
 1381W        W 5581   3.742   8.796  11.126
 1382W        W 5582   7.112   8.926   9.552
 1383W        W 5583   9.056  10.341   9.286
 1384W        W 5584   6.635   1.356   3.365
 1385W        W 5585   2.131  10.039   3.162
 1386W        W 5586   4.166   6.213  10.766
 1387W        W 5587   4.155   9.357   0.765
 1388W        W 5588   4.552   0.113   2.316
 1389W        W 5589   1.438   1.135  11.042
 1390W        W 5590   2.681  11.123  11.749
 1391W        W 5591   8.492   0.993   1.118
 1392W        W 5592   5.087   3.270  10.961
 1393W        W 5593   9.333   0.804   2.997
 1394W        W 5594   3.298   2.634   2.934
 1395W        W 5595  11.225   2.198   3.417
 1396W        W 5596   8.540   9.605   3.613
 1397W        W 5597   5.991   7.286   8.622
 1398W        W 5598   3.086   2.367   0.459
 1399W        W 5599   3.613  10.599  11.737
 1400W        W 5600   2.336   4.144   0.863
 1401W        W 5601   8.428   0.745  10.712
 1402W        W 5602  10.296  10.480   9.738
 1403W        W 5603   2.749   7.858   0.460
 1404W        W 5604   8.481   8.846   8.584
 1405W        W 5605   8.198   5.999   8.308
 1406W        W 5606   5.755  10.305   1.726
 1407W        W 5607   6.603   8.097   0.730
 1408W        W 5608   5.639   2.370   8.669
 1409W        W 5609   3.506   1.912   2.115
 1410W        W 5610   3.315   5.722  10.548
 1411W        W 5611  11.307   2.731   3.484
 1412W        W 5612   6.012   2.815   3.616
 1413W        W 5613   6.192  10.549   1.502
 1414W        W 5614   9.675   1.450  11.111
 1415W        W 5615  10.434   0.718   0.473
 1416W        W 5616   2.577   5.633   2.595
 1417W        W 5617   6.080   8.863   2.772
 1418W        W 5618   5.586   8.633   9.926
 1419W        W 5619  10.997   9.926   0.351
 1420W        W 5620   6.538   4.375   8.972
 1421W        W 5621   8.692   8.102   0.070
 1422W        W 5622   7.435   4.328  10.316
 1423W        W 5623   4.628   5.643  10.503
 1424W        W 5624   8.830   4.820   0.817
 1425W        W 5625   4.937   9.627   3.697
 1426W        W 5626   2.393   7.053   1.433
 1427W        W 5627   9.939   2.844  11.110
 1428W        W 5628   1.377   1.627   9.322
 1429W        W 5629   9.702   9.171   0.407
 1430W        W 5630  10.425   1.668   0.231
 1431W        W 5631   4.165   4.691   9.358
 1432W        W 5632   2.213   6.375   9.387
 1433W        W 5633   9.565   6.545   9.079
 1434W        W 5634   7.718   9.405  10.279
 1435W        W 5635   2.382   8.167   1.886
 1436W        W 5636   8.109   8.626   8.920
 1437W        W 5637   9.698   2.069   0.690
 1438W        W 5638   8.984   7.509  11.499
 1439W        W 5639   8.477   4.751   2.667
 1440W        W 5640   8.588   6.480   9.703
 1441W        W 5641   1.691  10.978   1.867
 1442W        W 5642   8.147   6.404   9.471
 1443W        W 5643  11.335   6.029   3.162
 1444W        W 5644   8.035   0.282  11.326
 1445W        W 5645   7.577   7.172   0.486
 1446W        W 5646   0.307   5.846   2.246
 1447W        W 5647   5.206  10.812  10.260
 1448W        W 5648   7.384   7.831   2.310
 1449W        W 5649   6.020   2.035   8.860
 1450W        W 5650   6.328   6.087  10.136
 1451W        W 5651   8.682   4.063   3.336
 1452W        W 5652   5.609   9.295  11.335
 1453W        W 5653   7.256   9.745   0.049
 1454W        W 5654   8.669   3.709   0.425
 1455W        W 5655   8.884  11.188  11.914
 1456W        W 5656   4.975  11.164   0.881
 1457W        W 5657   4.871   3.238   9.192
 1458W        W 5658   1.913   4.718   8.869
 1459W        W 5659   5.428   6.598  10.359
 1460W        W 5660   1.245   1.238   0.048
 1461W        W 5661   6.233   8.014   0.241
 1462W        W 5662   9.773   8.631   0.579
 1463W        W 5663  10.771   2.773   1.208
 1464W        W 5664   0.300  10.349  11.310
 1465W        W 5665   6.017   0.873   0.046
 1466W        W 5666   1.374   9.097  11.632
 1467W        W 5667   2.297   1.453  10.610
 1468W        W 5668   2.092   9.351   9.371
 1469W        W 5669   5.273   9.263   3.275
 1470W        W 5670   6.513   9.501   2.252
 1471W        W 5671   5.972   5.510  10.362
 1472W        W 5672   8.442   3.068   3.081
 1473W        W 5673   3.912   0.437  10.942
 1474W        W 5674   7.244   5.073   9.973
 1475W        W 5675   7.586   5.892  11.215
 1476W        W 5676   2.959   1.255   0.431
 1477W        W 5677   8.414   9.755   1.256
 1478W        W 5678  10.683   5.274  11.758
 1479W        W 5679   3.185   4.589   3.454
 1480W        W 5680   0.578   0.802  11.741
 1481W        W 5681   8.598   6.935  10.268
 1482W        W 5682   0.685   8.163  10.042
 1483W        W 5683   0.368   0.751  11.274
 1484W        W 5684   5.927   8.996   0.998
 1485W        W 5685   4.742   0.488   1.811
 1486W        W 5686   2.850   0.443   8.947
 1487W        W 5687   7.814   3.082   2.863
 1488W        W 5688   9.091   3.349   9.447
 1489W        W 5689   2.838   4.227   3.511
 1490W        W 5690   1.724   2.694  10.627
 1491W        W 5691  10.876   9.893   9.231
 1492W        W 5692   0.275   7.640  10.824
 1493W        W 5693   9.147   6.240   2.286
 1494W        W 5694   7.483   5.744  11.731
 1495W        W 5695   5.939   5.178  11.394
 1496W        W 5696   1.461   6.194   1.654
 1497W        W 5697   1.913   6.141   1.408
 1498W        W 5698  10.938   4.062   0.588
 1499W        W 5699   9.446   5.941   9.779
 1500W        W 5700   2.567   5.261  11.810
 1501W        W 5701   7.901   1.390   3.129
 1502W        W 5702   2.391   0.980  11.996
 1503W        W 5703   6.123   1.254  10.793
 1504W        W 5704   5.260   1.541  10.603
 1505W        W 5705   0.055   0.351   9.490
 1506W        W 5706   0.378   8.426   0.981
 1507W        W 5707   2.062   4.031  11.401
 1508W        W 5708   2.865   0.325   9.928
 1509W        W 5709   0.291   5.596   2.705
 1510W        W 5710   6.466   2.074  11.868
 1511W        W 5711   4.256   2.551  11.873
 1512W        W 5712   3.586   2.078   9.999
 1513W        W 5713   1.027   2.056   0.096
 1514W        W 5714   6.576   8.138   9.498
 1515W        W 5715   0.133  10.416   2.416
 1516W        W 5716   1.309   3.999   1.956
 1517W        W 5717   4.342  10.975   9.013
 1518W        W 5718  10.958   6.721   9.753
 1519W        W 5719   1.650  10.368   3.550
 1520W        W 5720   2.501   5.783  10.000
 1521W        W 5721   4.891   2.341   3.423
 1522W        W 5722   3.282   5.033  10.078
 1523W        W 5723   2.102   4.583  11.408
 1524W        W 5724  11.330   3.328  10.573
 1525W        W 5725   1.671   7.469   1.725
 1526W        W 5726   6.570   0.766   8.889
 1527W        W 5727   7.812   9.865  11.303
 1528W        W 5728  10.667   4.291  11.761
 1529W        W 5729   6.813   0.998  11.516
 1530W        W 5730   3.169   9.756   0.467
 1531W        W 5731   3.742   2.782   1.176
 1532W        W 5732   7.349   5.610  10.823
 1533W        W 5733   7.155   4.873  11.176
 1534W        W 5734   8.523   8.688   4.009
 1535W        W 5735   7.990   5.733  10.040
 1536W        W 5736  10.549   5.977   2.744
 1537W        W 5737   6.460   4.726  10.195
 1538W        W 5738   2.517   0.569   8.568
 1539W        W 5739   3.326   2.754  10.430
 1540W        W 5740   5.683   1.826   8.531
 1541W        W 5741   5.811   6.144   1.330
 1542W        W 5742   1.847   7.457   9.078
 1543W        W 5743   9.983   9.851  11.722
 1544W        W 5744   1.483   3.306   2.693
 1545W        W 5745   7.750   0.072   0.364
 1546W        W 5746   8.496  11.419   2.125
 1547W        W 5747   5.198   3.921   3.532
 1548W        W 5748   3.785   8.501   0.712
 1549W        W 5749   7.942   1.469   2.643
 1550W        W 5750   3.729   0.727   0.731
 1551W        W 5751   8.053   8.512   2.390
 1552W        W 5752  10.464   2.303   2.967
 1553W        W 5753   2.226   8.118   9.941
 1554W        W 5754  10.982   7.194  10.983
 1555W        W 5755   4.555   3.511   8.632
 1556W        W 5756   5.024   3.553   8.818
 1557W        W 5757   3.836   1.244   1.678
 1558W        W 5758  11.030   0.392   2.898
 1559W        W 5759  10.561   5.198   2.253
 1560W        W 5760   7.191   5.269  10.451
 1561W        W 5761   4.795   3.566   2.433
 1562W        W 5762   8.922   1.998   8.984
 1563W        W 5763   8.631   3.322   0.784
 1564W        W 5764   5.708   2.714   0.014
 1565W        W 5765   4.580  10.780   9.437
 1566W        W 5766   0.841   4.708  10.451
 1567W        W 5767   2.848   1.353   2.823
 1568W        W 5768   5.284   5.089   1.976
 1569W        W 5769   3.280   7.472   8.991
 1570W        W 5770   5.520   2.687   1.435
 1571W        W 5771   4.231   0.736   9.074
 1572W        W 5772   5.529   4.963  10.884
 1573W        W 5773  10.347   4.770  10.721
 1574W        W 5774  10.888   9.837   2.182
 1575W        W 5775   7.951   6.552   2.294
 1576W        W 5776   0.353   5.648   1.057
 1577W        W 5777   8.608   0.736   9.878
 1578W        W 5778  10.518   2.391  11.050
 1579W        W 5779   8.010   7.894   1.780
 1580W        W 5780   5.539   3.804   1.100
 1581W        W 5781   9.112   8.400   0.031
 1582W        W 5782   9.714   5.069  10.023
 1583W        W 5783   9.947   9.122   9.601
 1584W        W 5784  11.299   7.209   0.768
 1585W        W 5785   4.668  10.681  11.035
 1586W        W 5786   9.531  10.088   0.351
 1587W        W 5787   0.725   0.644   0.219
 1588W        W 5788   2.779   6.639   1.797
 1589W        W 5789   3.172   0.428  10.516
 1590W        W 5790   4.821   5.128   0.517
 1591W        W 5791   0.833   4.526   9.908
 1592W        W 5792   1.531   1.864   1.145
 1593W        W 5793   3.980   2.636   9.084
 1594W        W 5794   4.421   6.634   9.053
 1595W        W 5795   9.485   0.093   9.903
 1596W        W 5796  10.565   8.553   0.797
 1597W        W 5797  10.805   2.717   0.707
 1598W        W 5798   0.909  11.088   3.271
 1599W        W 5799   9.010  11.361   2.236
 1600W        W 5800  10.410   3.828  10.851
 1601W        W 5801   1.707   7.259  10.722
 1602W        W 5802   0.859  11.390   2.465
 1603W        W 5803   4.021   1.072   1.209
 1604W        W 5804   0.110   4.578   9.173
 1605W        W 5805  11.385  10.848   1.325
 1606W        W 5806   1.296   8.652  11.362
 1607W        W 5807   1.826   3.292   8.907
 1608W        W 5808   4.347   2.282  10.497
 1609W        W 5809   0.708   3.290   3.181
 1610W        W 5810   2.979   9.528   2.722
 1611W        W 5811   7.604   7.203  11.970
 1612W        W 5812   1.647   0.172  10.740
 1613W        W 5813   7.395   9.824  11.562
 1614W        W 5814  11.406   4.544  11.479
 1615W        W 5815  11.058   2.029   8.962
 1616W        W 5816   8.589   6.431  10.262
 1617W        W 5817   0.257  11.007  11.950
 1618W        W 5818   2.698   6.361   3.959
 1619W        W 5819   4.619   7.048  11.599
 1620W        W 5820   9.846   1.220   1.677
 1621W        W 5821   5.206   1.334   2.774
 1622W        W 5822   1.716   4.898   1.859
 1623W        W 5823   3.759   9.882   2.640
 1624W        W 5824   8.834   2.821   2.314
 1625W        W 5825   4.474   8.211   9.080
 1626W        W 5826   6.727   3.592   9.434
 1627W        W 5827   9.828   6.987   9.077
 1628W        W 5828   4.424   2.768   9.282
 1629W        W 5829   8.626   8.869   2.452
 1630W        W 5830   2.212   0.984  10.363
 1631W        W 5831   2.528   4.499   0.542
 1632W        W 5832   6.077   7.939   9.531
 1633W        W 5833   1.544   1.309   2.224
 1634W        W 5834   4.322   1.445   1.742
 1635W        W 5835   1.475   8.665   1.509
 1636W        W 5836   2.890   2.346  11.605
 1637W        W 5837   8.366   1.382   3.379
 1638W        W 5838   5.000   7.243   9.646
 1639W        W 5839   2.532   3.534   2.590
 1640W        W 5840  10.333   7.949   0.432
 1641W        W 5841   3.829   5.961   0.471
 1642W        W 5842   3.804   0.929  10.879
 1643W        W 5843   5.435   3.317   1.611
 1644W        W 5844   7.279   3.803  11.353
 1645W        W 5845   3.592   0.886   3.379
 1646W        W 5846   2.206   1.762  11.039
 1647W        W 5847   2.224   5.214   0.184
 1648W        W 5848   0.027   4.243  10.242
 1649W        W 5849   2.798   5.058   2.543
 1650W        W 5850   7.927   5.051   9.545
 1651W        W 5851   2.875   9.849   0.879
 1652W        W 5852   4.030   9.850   0.076
 1653W        W 5853   9.077   3.952  11.255
 1654W        W 5854  10.771  10.771   9.159
 1655W        W 5855  11.488   0.054   3.562
 1656W        W 5856   0.538   7.474   0.203
 1657W        W 5857   4.712   2.101  10.794
 1658W        W 5858   8.110   3.192   1.166
 1659W        W 5859   9.159   6.261   2.808
 1660W        W 5860   1.639   8.232   8.757
 1661W        W 5861  10.897   5.755   9.969
 1662W        W 5862   5.530   0.262   0.459
 1663W        W 5863   2.206   8.131   2.795
 1664W        W 5864   0.386  11.261   3.713
 1665W        W 5865   1.048   2.235   2.334
 1666W        W 5866   8.019   7.560   2.155
 1667W        W 5867   9.077   1.992   2.650
 1668W        W 5868   2.318   5.578  11.431
 1669W        W 5869   6.307   8.309  10.339
 1670W        W 5870   8.088   8.001  11.577
 1671W        W 5871   0.339   4.203   3.376
 1672W        W 5872  11.484   5.212   2.797
 1673W        W 5873   2.923  10.198   0.444
 1674W        W 5874   6.100   3.015   2.343
 1675W        W 5875   2.024   4.785   2.760
 1676W        W 5876   9.029  11.159  11.274
 1677W        W 5877   4.745   9.913   2.968
 1678W        W 5878   8.363   7.625  10.739
 1679W        W 5879   4.735   9.394   9.753
 1680W        W 5880   8.101   0.661  11.666
 1681W        W 5881   1.670   9.555   9.643
 1682W        W 5882   7.559   2.004   3.467
 1683W        W 5883   8.941   1.457   8.829
 1684W        W 5884   1.988   7.642   9.931
 1685W        W 5885   0.042  10.926  10.661
 1686W        W 5886   0.219   0.263  11.010
 1687W        W 5887   4.352  10.445   9.105
 1688W        W 5888   6.626   4.378   8.451
 1689W        W 5889   8.620  11.393  11.459
 1690W        W 5890   4.697   2.062   8.467
 1691W        W 5891   9.430   4.132   3.125
 1692W        W 5892   9.029   8.782   9.376
 1693W        W 5893   2.085   7.197   1.877
 1694W        W 5894   9.566   2.611  10.866
 1695W        W 5895   3.267   2.914   1.351
 1696W        W 5896   7.069   1.818   9.462
 1697W        W 5897   3.551   3.848  11.814
 1698W        W 5898  11.109   4.989  10.485
 1699W        W 5899   8.919   9.125   3.438
 1700W        W 5900  11.215   9.347   2.438
 1701W        W 5901   4.206   2.505   3.138
 1702W        W 5902   0.305   7.520   0.729
 1703W        W 5903   3.049   6.139   9.344
 1704W        W 5904   1.323   0.313  11.730
 1705W        W 5905  10.474   9.369   1.270
 1706W        W 5906   9.016   3.777  10.781
 1707W        W 5907   6.012   2.308  10.101
 1708W        W 5908  11.262   3.308  10.068
 1709W        W 5909   8.816   7.111   2.573
 1710W        W 5910   8.339   9.863  11.309
 1711W        W 5911   2.756  11.387   0.697
 1712W        W 5912   7.524   2.719   2.663
 1713W        W 5913  10.473   9.527   8.735
 1714W        W 5914   4.610   8.630   3.327
 1715W        W 5915   0.393   1.932   3.320
 1716W        W 5916   2.354   2.833   1.325
 1717W        W 5917   6.065   9.360  11.069
 1718W        W 5918   7.329   7.826   1.453
 1719W        W 5919   6.113   0.539   8.738
 1720W        W 5920   6.451  10.867   8.832
 1721W        W 5921   7.943   0.457   8.841
 1722W        W 5922   7.111   7.225   9.372
 1723W        W 5923   5.952   7.572   0.239
 1724W        W 5924   1.713   7.407   2.971
 1725W        W 5925  10.462   3.154   2.393
 1726W        W 5926   1.371   9.701   3.818
 1727W        W 5927  10.677   6.969   1.382
 1728W        W 5928   8.365   6.859   9.361
 1729W        W 5929   7.080  10.035   9.091
 1730W        W 5930   4.429   8.154   3.228
 1731W        W 5931   4.583   7.096  10.524
 1732W        W 5932   2.858   9.398  10.921
 1733W        W 5933   3.061   9.987  11.044
 1734W        W 5934   8.138   6.674  10.404
 1735W        W 5935  11.289   1.418   1.810
 1736W        W 5936   4.222   7.671   3.110
 1737W        W 5937   2.149   7.138   0.982
 1738W        W 5938   0.333   1.325   9.419
 1739W        W 5939  11.039  11.246   1.294
 1740W        W 5940   4.483   5.269   0.978
 1741W        W 5941   5.236   7.853   1.627
 1742W        W 5942   9.748   5.434   9.331
 1743W        W 5943   9.125   4.884   8.729
 1744W        W 5944  11.333   5.460  10.385
 1745W        W 5945  10.708   0.570   2.499
 1746W        W 5946   8.274   1.518   2.231
 1747W        W 5947   9.626   7.140  11.791
 1748W        W 5948   1.785   0.566  11.517
 1749W        W 5949   8.559   0.420   2.269
 1750W        W 5950  10.938   7.196   3.113
 1751W        W 5951  10.866   9.160   2.740
 1752W        W 5952   1.725   2.682  11.151
 1753W        W 5953   2.595   7.217   2.799
 1754W        W 5954   6.491   0.166   0.971
 1755W        W 5955   8.606   1.059   1.628
 1756W        W 5956   7.081   8.902  10.762
 1757W        W 5957   9.004   7.431   9.066
 1758W        W 5958   4.879   3.225   3.658
 1759W        W 5959   0.375   8.592  11.847
 1760W        W 5960   5.619   2.756   2.356
 1761W        W 5961  11.410   5.960   0.553
 1762W        W 5962   1.441   2.745   2.507
 1763W        W 5963   1.479   7.197   8.550
 1764W        W 5964   7.226   3.329  11.119
 1765W        W 5965  10.838   7.465  11.803
 1766W        W 5966   6.675   0.544   0.676
 1767W        W 5967   4.371   2.059  11.929
 1768W        W 5968  10.091   6.852  10.346
 1769W        W 5969   1.738  11.284  11.949
 1770W        W 5970   2.226   5.646   0.469
 1771W        W 5971   3.091  11.428  10.129
 1772W        W 5972   3.196   6.478   1.163
 1773W        W 5973  10.887   3.852   3.128
 1774W        W 5974   3.668   9.804   0.416
 1775W        W 5975   3.316   3.747   2.041
 1776W        W 5976   3.400  11.162  11.539
 1777W        W 5977   3.368   4.237   1.783
 1778W        W 5978   3.609   4.812   0.161
 1779W        W 5979   2.967   4.243   0.435
 1780W        W 5980   2.449  11.441   1.856
 1781W        W 5981   8.388   3.125   2.182
 1782W        W 5982   6.269  10.934   1.833
 1783W        W 5983   3.272  11.026   2.047
 1784W        W 5984   0.874   3.198   9.966
 1785W        W 5985   8.000  10.477  10.049
 1786W        W 5986   7.414   8.987  10.382
 1787W        W 5987   8.163   5.165   2.722
 1788W        W 5988   5.708  10.334   9.379
 1789W        W 5989   6.632   7.301   9.182
 1790W        W 5990   2.089   5.614   2.431
 1791W        W 5991   5.424   5.136  11.352
 1792W        W 5992   6.264   0.855   1.418
 1793W        W 5993   7.869   4.543   0.714
 1794W        W 5994   4.130   5.141  10.048
 1795W        W 5995   6.195   3.297  11.225
 1796W        W 5996  10.402   0.228   2.257
 1797W        W 5997   4.265  10.575   0.545
 1798W        W 5998   2.820   5.056   9.874
 1799W        W 5999   7.645   7.577   2.757
 1800W        W 6000   0.525   1.497  10.834
 1801W        W 6001   2.483   9.826   9.337
 1802W        W 6002   9.068   0.388   9.957
 1803W        W 6003   8.961  10.510  10.316
 1804W        W 6004   9.411   1.507   9.594
 1805W        W 6005  11.280   0.984   8.875
 1806W        W 6006   8.570   3.310   9.435
 1807W        W 6007   0.275   5.766  11.328
 1808W        W 6008   4.365   8.333  10.039
 1809W        W 6009   1.531   7.818  11.455
 1810W        W 6010   6.878   3.312   0.479
 1811W        W 6011   8.062   0.637   1.016
 1812W        W 6012   9.937  10.991   9.462
 1813W        W 6013   2.829   3.934   1.967
 1814W        W 6014   5.471   5.286   0.766
 1815W        W 6015   9.527   7.067   4.224
 1816W        W 6016   8.117  10.579   9.189
 1817W        W 6017   5.607   5.725  11.977
 1818W        W 6018  10.021   9.997   0.217
 1819W        W 6019   3.735  11.335   2.180
 1820W        W 6020   3.786   1.222  11.967
 1821W        W 6021   6.330   4.338   1.758
 1822W        W 6022   1.910   2.649   2.273
 1823W        W 6023   3.731   0.201   0.806
 1824W        W 6024  11.457   2.128   0.313
 1825W        W 6025   0.799   9.581   0.318
 1826W        W 6026   9.348   5.507  10.458
 1827W        W 6027   4.245   9.604   1.487
 1828W        W 6028   7.910   4.940  11.870
 1829W        W 6029   7.762   8.654   1.280
 1830W        W 6030   0.390   5.237   2.326
 1831W        W 6031   5.021   0.984   9.443
 1832W        W 6032   2.094   7.460   1.400
 1833W        W 6033   5.073   8.503   3.444
 1834W        W 6034   0.581   8.385  10.512
 1835W        W 6035   6.113   4.053  10.141
 1836W        W 6036   9.998   4.633  11.075
 1837W        W 6037   5.991   3.279   0.929
 1838W        W 6038   7.602  10.492   0.722
 1839W        W 6039   5.305   6.958   0.362
 1840W        W 6040   6.025   2.380  11.754
 1841W        W 6041   4.672   4.791  11.567
 1842W        W 6042   1.568   0.836  11.911
 1843W        W 6043   3.610   5.090  11.286
 1844W        W 6044   5.409   5.733   9.191
 1845W        W 6045  10.236   0.378  11.020
 1846W        W 6046   6.299   6.560   3.268
 1847W        W 6047   6.480   5.559  11.024
 1848W        W 6048   8.040   0.570   2.435
 1849W        W 6049   8.695   2.430   9.363
 1850W        W 6050  11.280   7.027  10.231
 1851W        W 6051   9.546   3.281   1.316
 1852W        W 6052   9.114   5.994   4.067
 1853W        W 6053  11.375  10.375   1.521
 1854W        W 6054   7.168   6.862   0.431
 1855W        W 6055   1.943   5.523  10.812
 1856W        W 6056   8.680   3.238  10.776
 1857W        W 6057   9.075   3.691   2.475
 1858W        W 6058   4.112   0.355  11.455
 1859W        W 6059   3.343   2.380   1.298
 1860W        W 6060   0.393   4.191   2.017
 1861W        W 6061   5.207   6.685   1.584
 1862W        W 6062   6.749   6.745   1.536
 1863W        W 6063  10.087   8.185   0.801
 1864W        W 6064   3.116   1.240   8.816
 1865W        W 6065   4.527   9.452   8.475
 1866W        W 6066   6.156   2.185   0.271
 1867W        W 6067  10.741   0.419  10.942
 1868W        W 6068   8.593   9.983   8.857
 1869W        W 6069   1.169   5.231   9.039
 1870W        W 6070   3.733   9.309   8.978
 1871W        W 6071   5.018  11.280   0.014
 1872W        W 6072  10.316   3.097   0.029
 1873W        W 6073   6.888   2.241  11.629
 1874W        W 6074   2.288   1.260  11.198
 1875W        W 6075   7.143   2.698  11.746
 1876W        W 6076   4.156   3.325   0.377
 1877W        W 6077   4.481   3.517   1.260
 1878W        W 6078   5.321   2.090   3.102
 1879W        W 6079   3.499   2.845   9.471
 1880W        W 6080   9.641   6.241   1.888
 1881W        W 6081   3.109   8.766   8.698
 1882W        W 6082   2.711   9.437  11.442
 1883W        W 6083  10.272  10.064  10.476
 1884W        W 6084   0.327   6.721  10.994
 1885W        W 6085   2.363   9.885   0.887
 1886W        W 6086  10.078   9.522   0.410
 1887W        W 6087   0.349   2.328   0.612
 1888W        W 6088   1.944   0.152   0.411
 1889W        W 6089   9.456   9.406   2.637
 1890W        W 6090  11.415   6.610   9.968
 1891W        W 6091   3.091   8.384   2.373
 1892W        W 6092   3.112   8.485  11.849
 1893W        W 6093   5.638   1.666   0.229
 1894W        W 6094   3.013   4.955   3.829
 1895W        W 6095   4.722   6.127  10.278
 1896W        W 6096   1.626   6.776  10.585
 1897W        W 6097   2.311   6.228   1.731
 1898W        W 6098   1.162   3.670   2.944
 1899W        W 6099   4.319   3.161  11.489
 1900W        W 6100   7.442   6.160   8.665
 1901W        W 6101   9.931  10.930  10.383
 1902W        W 6102   5.832   7.046   3.448
 1903W        W 6103   2.311   8.611   1.665
 1904W        W 6104   1.865   6.078   2.460
 1905W        W 6105   1.319   0.949   1.495
 1906W        W 6106   6.970   4.242  11.331
 1907W        W 6107   6.112   1.278   2.612
 1908W        W 6108   8.638   5.346   1.470
 1909W        W 6109   5.808   3.816  10.529
 1910W        W 6110   3.179   0.728  11.451
 1911W        W 6111   4.724   3.698   3.485
 1912W        W 6112   5.907   4.592   3.423
 1913W        W 6113   0.456   1.451   1.239
 1914W        W 6114   9.535  10.063  11.815
 1915W        W 6115   2.777   8.119  10.792
 1916W        W 6116   2.248   3.505  11.434
 1917W        W 6117   3.635   5.244  11.827
 1918W        W 6118   2.492   4.725  10.106
 1919W        W 6119   7.961   9.594   3.470
 1920W        W 6120   1.117   2.227  10.026
 1921W        W 6121   1.630   9.419   9.147
 1922W        W 6122   7.173   4.194   3.260
 1923W        W 6123   2.246   1.466   9.459
 1924W        W 6124   7.344  11.325   3.041
 1925W        W 6125   3.250   5.246   9.622
 1926W        W 6126   2.514   7.697   9.896
 1927W        W 6127   1.401   8.307   2.776
 1928W        W 6128   2.016   5.617   9.975
 1929W        W 6129   2.377   2.325   1.208
 1930W        W 6130   2.174   6.663   9.949
 1931W        W 6131   0.747   9.961  10.525
 1932W        W 6132   4.706   7.952   2.382
 1933W        W 6133   2.096   6.156  10.019
 1934W        W 6134  10.729   5.881   9.444
 1935W        W 6135   0.257   8.416   3.471
 1936W        W 6136   1.452   2.308   1.385
 1937W        W 6137   3.075   5.077   3.335
 1938W        W 6138   0.682   8.586   2.729
 1939W        W 6139   1.398   4.877   1.436
 1940W        W 6140   9.078   8.473   8.963
 1941W        W 6141   3.184   4.031   3.224
 1942W        W 6142   5.633   8.084   3.955
 1943W        W 6143  10.062   4.534   8.931
 1944W        W 6144   8.158   9.758   9.565
 1945W        W 6145  10.752  11.392   9.411
 1946W        W 6146   0.321   6.585   1.627
 1947W        W 6147   7.405   2.185   9.888
 1948W        W 6148   9.519   9.140   8.464
 1949W        W 6149   8.101   5.236   9.998
 1950W        W 6150   3.946   9.478   2.887
 1951W        W 6151   0.361   6.550   0.959
 1952W        W 6152  10.906   9.033   3.225
 1953W        W 6153   0.423   2.757   8.906
 1954W        W 6154   3.299  11.433   0.396
 1955W        W 6155   0.772   5.877  11.280
 1956W        W 6156   6.458   8.461   0.416
 1957W        W 6157   6.462   1.710   2.546
 1958W        W 6158   6.592   2.751  11.104
 1959W        W 6159   2.820   8.435  10.397
 1960W        W 6160   6.034   5.514   2.160
 1961W        W 6161   0.945   2.194  10.526
 1962W        W 6162   4.768  10.423   3.008
 1963W        W 6163   4.683   9.384   0.683
 1964W        W 6164   8.903  10.402   9.777
 1965W        W 6165   2.021   2.166   2.444
 1966W        W 6166   8.656  10.736  10.791
 1967W        W 6167   1.253   0.468   1.351
 1968W        W 6168   5.672   0.927   3.243
 1969W        W 6169   8.387  10.307   2.115
 1970W        W 6170   4.386   1.347   0.358
 1971W        W 6171   0.399   1.275   2.978
 1972W        W 6172   1.229   5.802   8.517
 1973W        W 6173   4.162   3.684   0.731
 1974W        W 6174   7.459   5.089   8.977
 1975W        W 6175   4.751   4.423  11.912
 1976W        W 6176   2.680   3.510  10.892
 1977W        W 6177   3.176   9.559  11.293
 1978W        W 6178   5.630   8.502   1.251
 1979W        W 6179  10.575   0.038  11.774
 1980W        W 6180   9.006   4.416   3.121
 1981W        W 6181  11.109   4.592   9.064
 1982W        W 6182  11.125   0.557   0.883
 1983W        W 6183   1.511   0.634  10.934
 1984W        W 6184   2.764   5.381  10.273
 1985W        W 6185   3.112   5.106   1.133
 1986W        W 6186   8.243   5.243   1.870
 1987W        W 6187   9.827   0.971   3.467
 1988W        W 6188   1.907   7.994   9.131
 1989W        W 6189   2.216   4.339  11.995
 1990W        W 6190   2.827   2.269   0.895
 1991W        W 6191   4.366   9.518  10.099
 1992W        W 6192   8.531   9.864   2.372
 1993W        W 6193   0.046  10.430   1.025
 1994W        W 6194   5.170   7.666  11.082
 1995W        W 6195   1.883   1.376  10.886
 1996W        W 6196   4.119   3.151   1.413
 1997W        W 6197   7.275   9.259   0.175
 1998W        W 6198   6.743   1.398   9.578
 1999W        W 6199  10.194   1.802  11.735
 2000W        W 6200  10.509  10.928   9.564
 2001W        W 6201   1.877   1.377  10.349
 2002W        W 6202   4.751   6.717   0.402
 2003W        W 6203   0.254   6.966   0.694
 2004W        W 6204  11.275   4.580   2.396
 2005W        W 6205  10.063   8.127   2.154
 2006W        W 6206   3.354   5.123   2.340
 2007W        W 6207  10.088   8.715   1.533
 2008W        W 6208   5.649  10.964   2.941
 2009W        W 6209  10.977  11.395   2.780
 2010W        W 6210  10.873  10.285   1.323
 2011W        W 6211   5.012  10.962  11.289
 2012W        W 6212   8.173   8.950   1.306
 2013W        W 6213   8.714   8.143   9.136
 2014W        W 6214   6.049   8.220   1.214
 2015W        W 6215   8.851   3.774   0.922
 2016W        W 6216   2.293   3.805  11.006
 2017W        W 6217   9.791   2.562   1.816
 2018W        W 6218   1.167   4.741   3.061
 2019W        W 6219   4.259   4.585   0.904
 2020W        W 6220   7.119  10.949   0.194
 2021W        W 6221   8.991  11.358   9.990
 2022W        W 6222  11.312   2.361   9.936
 2023W        W 6223   7.245   4.113   1.540
 2024W        W 6224   1.214   6.947   9.996
 2025W        W 6225   3.254   8.979   2.853
 2026W        W 6226   2.435   0.180   0.962
 2027W        W 6227   3.755   5.750   1.941
 2028W        W 6228  10.016   3.604   9.078
 2029W        W 6229   6.077   0.877   1.925
 2030W        W 6230  10.017   3.667  10.028
 2031W        W 6231   8.439  10.033   0.786
 2032W        W 6232   4.834   2.085   0.153
 2033W        W 6233   6.688   8.647   9.429
 2034W        W 6234   1.710   8.855   0.281
 2035W        W 6235   4.400   5.879   2.508
 2036W        W 6236  10.850   1.208   9.084
 2037W        W 6237  11.042   7.384   0.307
 2038W        W 6238  11.102   5.529   9.546
 2039W        W 6239   9.090   7.942  11.233
 2040W        W 6240   5.817   4.864   9.587
 2041W        W 6241   5.739   3.830   9.400
 2042W        W 6242   0.238   5.568   0.557
 2043W        W 6243   9.601   8.864   9.880
 2044W        W 6244   1.779   6.265   0.517
 2045W        W 6245   3.869   7.525  10.123
 2046W        W 6246   7.184   1.711   9.949
 2047W        W 6247   0.132   5.123   0.056
 2048W        W 6248   3.481   0.776   9.539
 2049W        W 6249   3.629   3.290   1.347
 2050W        W 6250  10.469  10.606   8.740
 2051W        W 6251   6.906   4.926  10.732
 2052W        W 6252   9.114   8.580   1.346
 2053W        W 6253   9.624   3.237   8.965
 2054W        W 6254   1.453   5.242  10.921
 2055W        W 6255   4.660   3.684   2.929
 2056W        W 6256   0.590   5.971  11.756
 2057W        W 6257   2.351   4.308  11.067
 2058W        W 6258   1.835   4.639   2.306
 2059W        W 6259   6.532   8.852   8.926
 2060W        W 6260   8.188   3.314  10.933
 2061W        W 6261   9.226   5.542  11.745
 2062W        W 6262   8.295   4.412   1.474
 2063W        W 6263   3.266   4.683  11.342
 2064W        W 6264   9.578   5.032  10.514
 2065W        W 6265   8.523   0.572   0.792
 2066W        W 6266   8.307   8.029   0.461
 2067W        W 6267   5.443   3.285   2.114
 2068W        W 6268   8.178  10.467   0.942
 2069W        W 6269   6.858   0.736  10.731
 2070W        W 6270   8.268   3.778   3.475
 2071W        W 6271   7.574  10.242   2.166
 2072W        W 6272   9.127   5.207   0.996
 2073W        W 6273   8.789  10.025   3.490
 2074W        W 6274   0.096   8.024   8.654
 2075W        W 6275   3.728   7.661   8.845
 2076W        W 6276   9.907   5.244   8.790
 2077W        W 6277   3.514  11.350   3.540
 2078W        W 6278   8.032   3.097  11.368
 2079W        W 6279  10.116   0.425   1.852
 2080W        W 6280   1.049   4.137   1.022
 2081W        W 6281   7.764  11.165  10.523
 2082W        W 6282   9.984   3.705  10.569
 2083W        W 6283   6.625   3.175   8.666
 2084W        W 6284   7.602   8.106   2.738
 2085W        W 6285   4.470   1.369  10.335
 2086W        W 6286   8.358   2.396   0.876
 2087W        W 6287   3.336  10.462   2.946
 2088W        W 6288   4.064   8.630  11.494
 2089W        W 6289  11.203   6.967   1.312
 2090W        W 6290  10.842   2.077   2.704
 2091W        W 6291   5.812   6.577   3.088
 2092W        W 6292   6.161   9.476   4.025
 2093W        W 6293   6.292  10.506   2.957
 2094W        W 6294   2.326   9.700   2.820
 2095W        W 6295   8.902   4.060   8.525
 2096W        W 6296   3.256   8.955  11.949
 2097W        W 6297   4.759   4.789  10.310
 2098W        W 6298   0.313   6.258   3.315
 2099W        W 6299   1.638   3.049   3.563
 2100W        W 6300   9.595   8.017  11.781
 2101W        W 6301   2.153   9.405   2.177
 2102W        W 6302   8.614   8.042  10.993
 2103W        W 6303   2.737   8.185   9.961
 2104W        W 6304   2.933   9.427   1.174
 2105W        W 6305   6.108   1.665   1.542
 2106W        W 6306   6.585   1.860   3.470
 2107W        W 6307  10.344   2.708   2.628
 2108W        W 6308   3.141   3.415   1.246
 2109W        W 6309   7.996   2.581  11.323
 2110W        W 6310   5.979   6.215  11.084
 2111W        W 6311   2.769   3.317   3.014
 2112W        W 6312   0.485  10.461   9.652
 2113W        W 6313  11.380   9.518   1.189
 2114W        W 6314   6.333   7.119  11.529
 2115W        W 6315   0.326   2.636   0.218
 2116W        W 6316   9.409   6.064   0.998
 2117W        W 6317   2.611   8.510   0.027
 2118W        W 6318   4.600   8.079   1.002
 2119W        W 6319   6.844   3.488   0.002
 2120W        W 6320   1.972   5.587   8.747
 2121W        W 6321  10.929   0.332  11.417
 2122W        W 6322   9.088   7.599  10.656
 2123W        W 6323   5.320   0.833   0.390
 2124W        W 6324   7.341  10.495   0.271
 2125W        W 6325  10.697   1.828  11.826
 2126W        W 6326   5.668   6.730   0.064
 2127W        W 6327   9.833   4.066   8.868
 2128W        W 6328   7.707   6.423   9.740
 2129W        W 6329   9.394   2.954   0.379
 2130W        W 6330   7.958   7.236  10.063
 2131W        W 6331   1.794   8.100   2.511
 2132W        W 6332   5.577   3.527  10.909
 2133W        W 6333   9.809   1.738   1.052
 2134W        W 6334   1.355   6.243   0.223
 2135W        W 6335   5.301   8.655   9.485
 2136W        W 6336   3.403   0.531   8.779
 2137W        W 6337   3.396   9.528   1.390
 2138W        W 6338   8.017   2.629   2.852
 2139W        W 6339   2.346   1.568   1.964
 2140W        W 6340   9.863   9.393  11.512
 2141W        W 6341   4.994   3.758   8.339
 2142W        W 6342   0.264   1.328   0.421
 2143W        W 6343   2.562   4.252   9.269
 2144W        W 6344   3.686   5.253   9.867
 2145W        W 6345   5.926   5.804  10.778
 2146W        W 6346   5.629   6.236   2.279
 2147W        W 6347   2.167   0.744   2.337
 2148W        W 6348   8.919   6.734   2.201
 2149W        W 6349   3.696   5.580  11.391
 2150W        W 6350   5.777   1.656  10.666
 2151W        W 6351   0.803   7.918   0.239
 2152W        W 6352  11.294   1.941   2.510
 2153W        W 6353   7.001   5.061   1.027
 2154W        W 6354  11.183   2.414  11.541
 2155W        W 6355   7.042   7.999   2.833
 2156W        W 6356   9.480   6.430   1.366
 2157W        W 6357   1.187   3.631   9.940
 2158W        W 6358   7.703   5.629   2.075
 2159W        W 6359   3.388   9.068   1.075
 2160W        W 6360   2.933   3.884   1.136
 2161W        W 6361   9.503   9.966   0.859
 2162W        W 6362   5.255   8.786   3.083
 2163W        W 6363   8.783   8.208   0.563
 2164W        W 6364   6.945   9.371   1.985
 2165W        W 6365   5.651   1.515   0.745
 2166W        W 6366   7.456   8.057   9.554
 2167W        W 6367   2.139  10.556   3.554
 2168W        W 6368   8.353   1.227   2.889
 2169W        W 6369   9.272   5.607   9.408
 2170W        W 6370  10.486   9.325   0.710
 2171W        W 6371   8.590   5.935   3.591
 2172W        W 6372   2.272   6.333  10.868
 2173W        W 6373   7.982   4.762   3.045
 2174W        W 6374   5.319   2.404   0.328
 2175W        W 6375   9.547   6.505   3.075
 2176W        W 6376  11.294   3.968   0.217
 2177W        W 6377  10.804   3.641   1.475
 2178W        W 6378   6.516   7.383  10.553
 2179W        W 6379   9.528  10.774  11.076
 2180W        W 6380   5.656   0.514   8.990
 2181W        W 6381   1.870   5.873  10.386
 2182W        W 6382   6.944   9.713  10.001
 2183W        W 6383   3.698   1.928   1.156
 2184W        W 6384   6.414   4.229  11.341
 2185W        W 6385   2.476  10.732   2.267
 2186W        W 6386   1.907   8.975   9.048
 2187W        W 6387   5.361   4.169   1.435
 2188W        W 6388   6.157   5.451   3.119
 2189W        W 6389  10.797  10.039  10.467
 2190W        W 6390   4.521   0.862   9.478
 2191W        W 6391   5.776   2.383   3.119
 2192W        W 6392   1.672   6.689  10.084
 2193W        W 6393   4.604   5.722   9.982
 2194W        W 6394   3.109   7.980   2.723
 2195W        W 6395   1.421  10.241   1.705
 2196W        W 6396   0.828   3.172   1.905
 2197W        W 6397   7.817   8.582   2.834
 2198W        W 6398   8.998   3.135  11.605
 2199W        W 6399  10.491   4.197   0.394
 2200W        W 6400   9.087   7.961  11.753
 2201W        W 6401  10.023   1.568   2.908
 2202W        W 6402   0.681   8.828   9.558
 2203W        W 6403   9.314   9.924   1.320
 2204W        W 6404   6.251   2.363   9.178
 2205W        W 6405   8.854   5.559   0.627
 2206W        W 6406  10.520   1.523   8.797
 2207W        W 6407   3.613  10.249   3.455
 2208W        W 6408   3.715   8.570   1.729
 2209W        W 6409   8.702   1.013  10.301
 2210W        W 6410   5.237   7.710   2.168
 2211W        W 6411   7.189  10.055  10.497
 2212W        W 6412  10.283   6.184   9.461
 2213W        W 6413   2.836   1.496   9.937
 2214W        W 6414  10.347   6.035   1.687
 2215W        W 6415  10.052   2.473   3.311
 2216W        W 6416   5.594   2.171  10.382
 2217W        W 6417   0.808   2.689  10.178
 2218W        W 6418   5.666   8.966   1.470
 2219W        W 6419   9.099   6.281   0.375
 2220W        W 6420  11.026   8.344  11.922
 2221W        W 6421  10.873   1.614  10.049
 2222W        W 6422  10.988   8.056   8.831
 2223W        W 6423   3.647   1.638  11.714
 2224W        W 6424  10.044  10.299  11.049
 2225W        W 6425  10.861   4.758   1.129
 2226W        W 6426   9.964   0.884   2.042
 2227W        W 6427   7.436   4.822   3.266
 2228W        W 6428   1.611   7.581   1.207
 2229W        W 6429   7.161   2.844   9.342
 2230W        W 6430  10.518  11.300   1.365
 2231W        W 6431   1.268   9.090   0.186
 2232W        W 6432   1.295   2.921  10.794
 2233W        W 6433   5.682   9.698  11.947
 2234W        W 6434   2.405  10.032   1.814
 2235W        W 6435   5.657  11.036  11.838
 2236W        W 6436   8.881   1.958  10.852
 2237W        W 6437   3.816   6.249   9.977
 2238W        W 6438   7.455   1.519   3.315
 2239W        W 6439   7.256   1.435   1.775
 2240W        W 6440  10.077   3.205   8.723
 2241W        W 6441   3.233   8.146  11.107
 2242W        W 6442   6.572   0.768   1.818
 2243W        W 6443   7.627   1.371   0.318
 2244W        W 6444   6.392   3.189   0.496
 2245W        W 6445   6.157   5.535   1.242
 2246W        W 6446   3.340   0.707  10.962
 2247W        W 6447   4.167   2.406   1.883
 2248W        W 6448   9.861   3.087   0.933
 2249W        W 6449   4.064   9.940   3.338
 2250W        W 6450   3.455   6.067  11.446
 2251W        W 6451   4.876   4.039   4.067
 2252W        W 6452   0.601   6.495   0.460
 2253W        W 6453   9.899   7.549   8.653
 2254W        W 6454   4.748   8.945   2.530
 2255W        W 6455   8.162   9.162  10.782
 2256W        W 6456   3.703   2.380   9.475
 2257W        W 6457   3.953   3.857   9.292
 2258W        W 6458   5.256   2.127   2.301
 2259W        W 6459   9.958   4.728   9.698
 2260W        W 6460   9.382  11.499   9.008
 2261W        W 6461   4.809  10.724   9.004
 2262W        W 6462   3.710   1.235  10.263
 2263W        W 6463   5.932   3.674   9.848
 2264W        W 6464   9.704   4.184   3.565
 2265W        W 6465   0.397   8.159  10.920
 2266W        W 6466   0.166   4.179  10.745
 2267W        W 6467   0.112   8.823   1.426
 2268W        W 6468   3.777   8.126   1.314
 2269W        W 6469   8.185  11.244   0.342
 2270W        W 6470   5.727  11.337   9.481
 2271W        W 6471   2.645   9.989   3.163
 2272W        W 6472  10.275   5.492  11.495
 2273W        W 6473   6.011   0.916   3.640
 2274W        W 6474   1.519   0.555  10.427
 2275W        W 6475   8.244  10.344   8.703
 2276W        W 6476   1.880   6.015   3.331
 2277W        W 6477   5.628   7.939   0.452
 2278W        W 6478   0.642   6.998  11.263
 2279W        W 6479   5.862   5.313   2.668
 2280W        W 6480   6.687   4.123  10.907
 2281W        W 6481   2.167   2.789  10.895
 2282W        W 6482   9.303  10.878   0.787
 2283W        W 6483   8.972   7.061   1.806
 2284W        W 6484   6.472   0.625  11.282
 2285W        W 6485   5.201   0.925  10.903
 2286W        W 6486   3.201   0.855   2.111
 2287W        W 6487   8.083   5.972  11.050
 2288W        W 6488   3.620   2.605   9.936
 2289W        W 6489   5.492   0.425   2.268
 2290W        W 6490   6.076   1.908  11.507
 2291W        W 6491   0.975   1.727   1.060
 2292W        W 6492  10.729   6.275  11.272
 2293W        W 6493   0.776   7.519   9.474
 2294W        W 6494   0.202   8.561   2.969
 2295W        W 6495   3.858   9.434   1.204
 2296W        W 6496   2.258   2.326  10.023
 2297W        W 6497   4.894   4.319   1.691
 2298W        W 6498   6.032   4.568   0.346
 2299W        W 6499  10.230   6.999   0.265
 2300W        W 6500   3.143   4.229   9.628
 2301W        W 6501   0.821   7.652   0.733
 2302W        W 6502   1.098   7.505   0.213
 2303W        W 6503   0.200   4.807   2.551
 2304W        W 6504   6.967   6.599  10.424
 2305W        W 6505   8.363   1.906   1.003
 2306W        W 6506   2.261   0.214   2.958
 2307W        W 6507   9.788   5.766   0.250
 2308W        W 6508   9.999  11.450   0.642
 2309W        W 6509   5.086   0.215  11.722
 2310W        W 6510   1.474   3.015  10.292
 2311W        W 6511   7.666  11.228   3.407
 2312W        W 6512   3.142   9.992   1.328
 2313W        W 6513  10.510  11.079   2.867
 2314W        W 6514   4.011   5.021   1.022
 2315W        W 6515   9.425  11.044   2.337
 2316W        W 6516   2.815   6.775  11.354
 2317W        W 6517   4.411   0.720   1.368
 2318W        W 6518   9.983   5.681  10.796
 2319W        W 6519   0.752   6.571   2.268
 2320W        W 6520   5.661   8.520   2.299
 2321W        W 6521   4.138   9.403  11.859
 2322W        W 6522   2.840   1.875  10.811
 2323W        W 6523   1.915   2.584   1.336
 2324W        W 6524   2.849   2.615   1.285
 2325W        W 6525   2.822   2.836  10.314
 2326W        W 6526  11.368   5.655   9.115
 2327W        W 6527  10.333  10.988   0.949
 2328W        W 6528   1.831   4.624   9.397
 2329W        W 6529  10.842   1.387   0.510
 2330W        W 6530   4.443   7.148   3.094
 2331W        W 6531   4.166   0.257   9.250
 2332W        W 6532   9.051   4.915   3.237
 2333W        W 6533  10.499   8.941   2.427
 2334W        W 6534   8.483   0.757   2.668
 2335W        W 6535   8.186   5.638   2.210
 2336W        W 6536  10.674   0.805   2.959
 2337W        W 6537  10.381   6.132   1.146
 2338W        W 6538   0.986   7.944  10.421
 2339W        W 6539   8.603   6.485  11.164
 2340W        W 6540   0.541   1.013  10.876
 2341W        W 6541   6.004   2.369   9.607
 2342W        W 6542   6.462   8.609  11.510
 2343W        W 6543   3.185  10.670   2.451
 2344W        W 6544  10.823   6.567  10.226
 2345W        W 6545   6.077   7.842   2.743
 2346W        W 6546   0.871   4.049  10.091
 2347W        W 6547   9.429   5.264   8.586
 2348W        W 6548   7.722  11.286   1.244
 2349W        W 6549   6.354  10.760   0.313
 2350W        W 6550   7.846   5.047   3.487
 2351W        W 6551   2.940   7.293  11.288
 2352W        W 6552   9.153   1.827   9.906
 2353W        W 6553   3.645  10.410  10.848
 2354W        W 6554   0.461  10.271   2.810
 2355W        W 6555   0.110   3.739  10.375
 2356W        W 6556   4.666  10.899  10.339
 2357W        W 6557   1.817   1.815  10.603
 2358W        W 6558   1.980   1.845   0.919
 2359W        W 6559   9.240   7.029   0.090
 2360W        W 6560   3.244   9.105  10.049
 2361W        W 6561   5.177   8.884   1.660
 2362W        W 6562   3.148  10.325   9.535
 2363W        W 6563   1.186   6.321   1.238
 2364W        W 6564  11.228   3.446   3.472
 2365W        W 6565   3.382   3.891   0.374
 2366W        W 6566   0.001   2.437   9.025
 2367W        W 6567   0.211   9.765  10.394
 2368W        W 6568   2.125   1.330   8.976
 2369W        W 6569   7.765  10.498   8.804
 2370W        W 6570   7.852   4.031   0.639
 2371W        W 6571  11.172   6.165  10.053
 2372W        W 6572   5.244   1.264   2.178
 2373W        W 6573   9.741   7.580   0.062
 2374W        W 6574   2.676   5.491   0.267
 2375W        W 6575   7.346   3.258   2.860
 2376W        W 6576   5.175   9.072   2.252
 2377W        W 6577   2.865   5.427   4.041
 2378W        W 6578   7.150   8.600   3.941
 2379W        W 6579   3.874   4.206   1.694
 2380W        W 6580  10.331   8.556   2.144
 2381W        W 6581   0.361   9.282   0.318
 2382W        W 6582  11.438   2.244   1.388
 2383W        W 6583   7.585   4.314   0.282
 2384W        W 6584   2.281   1.318   1.513
 2385W        W 6585   3.667   6.733   1.143
 2386W        W 6586   1.152  10.987   8.554
 2387W        W 6587   9.470   2.971   9.406
 2388W        W 6588   1.413  10.423   0.020
 2389W        W 6589   4.273   3.634   2.387
 2390W        W 6590   0.466   5.045  10.586
 2391W        W 6591   3.230   7.336  10.427
 2392W        W 6592   4.104   5.590   9.763
 2393W        W 6593  10.385   5.891   9.860
 2394W        W 6594   2.605   5.081   1.260
 2395W        W 6595   0.847   6.641   9.001
 2396W        W 6596   4.438   3.658  11.439
 2397W        W 6597   2.365   6.647   2.749
 2398W        W 6598   1.622   7.466   0.273
 2399W        W 6599   2.348   9.394   0.226
 2400W        W 6600   0.876   3.531   2.302
 2401W        W 6601   8.171   6.065   2.493
 2402W        W 6602   7.651  10.097   2.668
 2403W        W 6603   6.413   5.166   2.216
 2404W        W 6604   7.139   4.879   1.953
 2405W        W 6605   1.581   7.007   2.716
 2406W        W 6606   4.193   1.728   2.684
 2407W        W 6607   3.658  10.779  11.237
 2408W        W 6608   1.551   2.285   2.271
 2409W        W 6609   6.461   0.671  10.189
 2410W        W 6610   4.646   9.905   1.368
 2411W        W 6611   5.491   9.184   8.610
 2412W        W 6612   0.864   6.648   9.523
 2413W        W 6613   9.539  10.171   3.296
 2414W        W 6614   1.358   4.398  11.742
 2415W        W 6615   1.061   5.904  11.968
 2416W        W 6616   0.544   1.402   2.490
 2417W        W 6617   8.530   9.620   9.231
 2418W        W 6618   7.178   4.537   2.348
 2419W        W 6619   0.966   1.182   9.995
 2420W        W 6620   5.120   2.916   1.199
 2421W        W 6621   0.403   7.886   1.115
 2422W        W 6622   9.453   9.700  10.356
 2423W        W 6623   9.145  11.295   2.745
 2424W        W 6624  10.648   8.081   1.990
 2425W        W 6625   9.431   7.643   2.278
 2426W        W 6626   9.567   8.349   8.992
 2427W        W 6627  10.786  10.177   2.665
 2428W        W 6628   3.364   0.489   1.008
 2429W        W 6629   7.217   8.034  11.446
 2430W        W 6630   7.548   2.745   3.572
 2431W        W 6631   8.377  10.675  10.365
 2432W        W 6632   9.523   2.434   1.369
 2433W        W 6633   5.459  10.675   3.325
 2434W        W 6634  11.373   2.869   9.849
 2435W        W 6635   5.195   2.895   1.830
 2436W        W 6636   7.076   9.029   3.216
 2437W        W 6637  11.400   3.309  11.082
 2438W        W 6638   4.658   2.725   2.491
 2439W        W 6639   6.429   0.866   9.382
 2440W        W 6640   0.758  10.243   1.412
 2441W        W 6641   8.651   4.851   8.544
 2442W        W 6642   2.328   1.174   3.299
 2443W        W 6643  10.277   3.381   0.985
 2444W        W 6644   2.606   8.879   0.402
 2445W        W 6645   5.518   8.956  10.368
 2446W        W 6646   6.620   4.299   1.292
 2447W        W 6647  10.901   6.242   3.014
 2448W        W 6648   8.435   3.784  11.958
 2449W        W 6649   9.022   0.529   0.145
 2450W        W 6650   4.601   3.018   1.195
 2451W        W 6651   9.288   2.215   0.950
 2452W        W 6652   1.974   9.544   1.738
 2453W        W 6653   1.025   9.061   9.242
 2454W        W 6654   4.802   8.057  10.155
 2455W        W 6655   2.371   5.024  11.399
 2456W        W 6656   0.993   2.761   1.617
 2457W        W 6657   4.286   6.073   9.775
 2458W        W 6658   0.554   2.672   1.908
 2459W        W 6659   9.496   3.987   2.639
 2460W        W 6660   3.868   3.789  11.423
 2461W        W 6661   2.236   7.958   2.313
 2462W        W 6662   0.282   4.925  11.195
 2463W        W 6663   8.386   6.990  11.517
 2464W        W 6664   3.423   3.905   9.328
 2465W        W 6665   0.975   3.717  11.734
 2466W        W 6666   8.129   8.180  11.044
 2467W        W 6667   6.550   9.922  11.325
 2468W        W 6668   1.106   1.841   2.712
 2469W        W 6669  10.154  10.944   9.931
 2470W        W 6670   2.729   4.121   8.808
 2471W        W 6671   0.630   8.069   8.661
 2472W        W 6672   4.962   3.350   1.424
 2473W        W 6673   9.771   3.601   8.587
 2474W        W 6674   5.988   8.500  11.364
 2475W        W 6675   5.178   9.325  10.503
 2476W        W 6676  11.077   5.923  10.498
 2477W        W 6677  10.879  10.238  11.367
 2478W        W 6678   4.361   4.317   1.718
 2479W        W 6679   1.316   1.405   1.254
 2480W        W 6680   6.503   3.438   2.709
 2481W        W 6681   7.467  10.077   1.680
 2482W        W 6682  10.008   7.453   9.160
 2483W        W 6683   4.154   3.427   1.925
 2484W        W 6684   6.907   2.057   0.160
 2485W        W 6685   6.260   2.681   0.253
 2486W        W 6686  11.333   6.078  10.904
 2487W        W 6687   2.599   3.884  11.447
 2488W        W 6688   1.724   1.249   9.295
 2489W        W 6689   8.917   2.837   1.290
 2490W        W 6690   6.568   1.821   1.369
 2491W        W 6691   2.909   6.592   2.684
 2492W        W 6692   8.453   4.528  11.574
 2493W        W 6693   0.307   4.669   0.272
 2494W        W 6694   1.852  11.193   9.092
 2495W        W 6695   0.493   4.332  11.947
 2496W        W 6696  10.697   2.251  11.517
 2497W        W 6697   8.364   7.275  11.974
 2498W        W 6698   2.718   1.737   9.488
 2499W        W 6699   6.233   3.026  10.322
 2500W        W 6700  10.035   8.111   3.243
 2501W        W 6701   2.874   2.297  11.098
 2502W        W 6702   9.196  11.413   9.515
 2503W        W 6703   2.679   3.812   3.234
 2504W        W 6704   6.675   8.642   2.136
 2505W        W 6705   1.892   1.620   1.396
 2506W        W 6706   7.131  11.150  10.905
 2507W        W 6707   4.197   3.041  11.974
 2508W        W 6708   1.627  10.727   1.414
 2509W        W 6709   4.793   8.846  11.004
 2510W        W 6710   3.205   5.125  11.584
 2511W        W 6711   5.699  10.499   0.697
 2512W        W 6712   6.485   3.845  11.885
 2513W        W 6713   3.498   4.977   3.628
 2514W        W 6714   2.217  10.719   2.706
 2515W        W 6715   4.763   2.415  11.760
 2516W        W 6716   3.076   8.391   0.366
 2517W        W 6717   0.756   6.604   1.302
 2518W        W 6718  10.032  11.329   1.199
 2519W        W 6719   7.590   2.848  10.532
 2520W        W 6720   7.959  10.267   1.829
 2521W        W 6721   5.446   1.415   1.205
 2522W        W 6722   0.990   6.879   2.604
 2523W        W 6723   3.141   2.747  10.938
 2524W        W 6724   3.077   4.239  10.595
 2525W        W 6725   5.578   1.863   3.633
 2526W        W 6726  10.034   6.657   2.704
 2527W        W 6727   6.648   9.940   1.314
 2528W        W 6728   8.234   7.648  10.230
 2529W        W 6729   4.324  10.154  11.318
 2530W        W 6730   3.556   0.927   1.174
 2531W        W 6731  10.783   1.427   1.930
 2532W        W 6732   3.312   5.746   9.570
 2533W        W 6733   0.976   3.672   0.263
 2534W        W 6734   2.966   1.780   1.018
 2535W        W 6735  10.042   2.821  10.612
 2536W        W 6736   7.076   9.017   2.713
 2537W        W 6737   8.503   6.265  11.927
 2538W        W 6738   2.455   0.240   0.434
 2539W        W 6739  11.249   3.610   1.782
 2540W        W 6740  10.285   9.421   9.835
 2541W        W 6741   7.483   6.668  11.825
 2542W        W 6742   5.480   7.216   8.521
 2543W        W 6743   3.625   4.455  10.702
 2544W        W 6744   0.931   3.308   1.427
 2545W        W 6745   6.271   3.269   3.716
 2546W        W 6746   1.418   1.383  10.126
 2547W        W 6747  10.205   7.118  11.282
 2548W        W 6748   6.696   9.154   9.353
 2549W        W 6749   3.123  10.475  10.840
 2550W        W 6750   2.675   1.932   3.232
 2551W        W 6751   3.706   2.625  10.761
 2552W        W 6752   9.479   4.606  10.043
 2553W        W 6753   8.119   0.874   1.476
 2554W        W 6754   2.418   6.600  10.389
 2555W        W 6755   5.836   6.094   9.167
 2556W        W 6756   0.891   6.017   1.527
 2557W        W 6757   6.971   5.246  11.555
 2558W        W 6758  10.018   2.236   9.957
 2559W        W 6759   3.346   6.982   2.383
 2560W        W 6760   4.614   0.241   1.376
 2561W        W 6761  11.017   0.558   2.001
 2562W        W 6762  10.443   9.956   1.911
 2563W        W 6763   6.451   5.232  11.459
 2564W        W 6764   5.931  11.472  11.750
 2565W        W 6765   9.529   0.135  10.787
 2566W        W 6766   1.251   8.419   1.908
 2567W        W 6767   6.403   4.891   9.714
 2568W        W 6768   5.035   9.063   0.227
 2569W        W 6769  11.226   3.996   1.415
 2570W        W 6770  10.040   6.295   3.092
 2571W        W 6771   1.099   7.128  11.405
 2572W        W 6772   8.688  10.026   0.233
 2573W        W 6773   7.611   2.992   1.194
 2574W        W 6774   2.602   4.632   9.620
 2575W        W 6775   8.293  11.010   9.646
 2576W        W 6776   0.414   6.659   8.673
 2577W        W 6777   7.485   1.208  10.919
 2578W        W 6778   5.324  10.612  11.615
 2579W        W 6779  10.946   0.982   1.724
 2580W        W 6780  10.566   3.505  11.225
 2581W        W 6781   6.898   3.697   0.793
 2582W        W 6782   8.146   2.997   8.713
 2583W        W 6783   1.916   8.826   1.296
 2584W        W 6784   1.707   0.676   1.236
 2585W        W 6785   2.571   9.404   2.452
 2586W        W 6786  10.836   2.740   8.984
 2587W        W 6787   1.224   5.729  11.483
 2588W        W 6788   4.993   5.309   0.984
 2589W        W 6789  10.757   6.250   9.783
 2590W        W 6790  10.727   5.140  10.829
 2591W        W 6791   0.607   9.471  11.484
 2592W        W 6792   7.662   6.109   2.394
 2593W        W 6793   1.406   7.131   1.445
 2594W        W 6794   5.638   2.194  11.426
 2595W        W 6795   5.792  11.139   9.942
 2596W        W 6796   0.309   0.985   2.334
 2597W        W 6797   6.055   5.701  11.251
 2598W        W 6798   0.752   1.508   3.322
 2599W        W 6799   6.712   1.708   3.000
 2600W        W 6800   8.670   6.101   2.741
 2601W        W 6801   4.086   5.138   9.548
 2602W        W 6802   0.005   2.395  11.053
 2603W        W 6803  11.463   4.599  10.975
 2604W        W 6804   1.399   3.251   1.216
 2605W        W 6805   9.417  10.623   9.546
 2606W        W 6806   1.923   4.430   0.922
 2607W        W 6807   8.518   0.295   3.313
 2608W        W 6808   4.919   7.654   9.342
 2609W        W 6809   5.293   2.800   9.828
 2610W        W 6810   8.589   2.335  11.749
 2611W        W 6811   5.808   8.768   8.616
 2612W        W 6812   6.947   2.640   2.128
 2613W        W 6813   4.729   9.410   2.748
 2614W        W 6814   8.954   6.346   3.712
 2615W        W 6815   2.696   9.098  11.860
 2616W        W 6816  10.537   7.473   0.385
 2617W        W 6817   3.056   6.509   9.942
 2618W        W 6818  10.772   4.766   3.112
 2619W        W 6819   0.380  10.140  11.773
 2620W        W 6820   7.540   4.208   8.771
 2621W        W 6821   1.373   3.641   1.544
 2622W        W 6822  10.954   4.391   0.192
 2623W        W 6823   1.150  10.562   1.421
 2624W        W 6824   6.544   6.150   9.685
 2625W        W 6825   3.621   1.187   8.704
 2626W        W 6826   3.351   1.010  11.835
 2627W        W 6827  10.415   6.692   0.993
 2628W        W 6828   2.094   3.214   0.402
 2629W        W 6829   9.009   4.777   2.745
 2630W        W 6830   2.501   9.433   9.657
 2631W        W 6831   1.720   8.357   0.067
 2632W        W 6832   1.200   7.364   9.703
 2633W        W 6833   0.315   5.772   3.173
 2634W        W 6834  10.923   4.829   2.122
 2635W        W 6835   3.514  10.718   0.683
 2636W        W 6836   6.629   6.251   8.780
 2637W        W 6837   1.523   2.231  11.981
 2638W        W 6838   3.839   2.316   1.470
 2639W        W 6839   8.431   5.565  11.319
 2640W        W 6840   7.916   3.602  11.834
 2641W        W 6841   7.989  11.489  10.191
 2642W        W 6842   0.245   0.922   3.357
 2643W        W 6843   6.744   3.094   0.922
 2644W        W 6844   9.875  10.395   3.001
 2645W        W 6845  10.999   0.365   9.477
 2646W        W 6846   2.076   6.963   3.666
 2647W        W 6847   6.434   9.081   0.901
 2648W        W 6848   5.607   5.587  11.479
 2649W        W 6849   8.140   1.782   1.458
 2650W        W 6850   4.677   4.573   9.441
 2651W        W 6851   7.599   9.396  11.777
 2652W        W 6852   8.762   6.822   3.565
 2653W        W 6853   5.702   0.441   0.901
 2654W        W 6854  10.476   5.065   2.784
 2655W        W 6855   0.517   2.107   0.172
 2656W        W 6856   1.464   6.168  10.532
 2657W        W 6857   0.389   0.817   1.866
 2658W        W 6858   5.462   2.885   0.444
 2659W        W 6859   6.184   1.336   0.235
 2660W        W 6860   7.091   3.531  10.405
 2661W        W 6861   6.049   6.112   3.193
 2662W        W 6862   5.002   2.784   0.247
 2663W        W 6863  10.884   0.467  11.918
 2664W        W 6864  10.376   5.182   0.153
 2665W        W 6865   6.365   6.025   0.365
 2666W        W 6866  11.139   3.956  10.409
 2667W        W 6867   5.598   8.072   2.620
 2668W        W 6868   5.946   8.065   2.244
 2669W        W 6869   4.039   5.994   0.013
 2670W        W 6870   1.835   6.906  11.970
 2671W        W 6871  11.153   6.366   0.365
 2672W        W 6872   6.781   2.181   1.975
 2673W        W 6873   1.067   0.798  11.845
 2674W        W 6874   8.224   7.180  10.506
 2675W        W 6875   1.732   2.243  10.862
 2676W        W 6876   6.217   9.953   2.234
 2677W        W 6877   9.089   0.897   9.989
 2678W        W 6878   6.894   9.121  10.321
 2679W        W 6879   6.791   0.736   2.282
 2680W        W 6880   9.952   4.210  11.383
 2681W        W 6881   9.933   6.696   1.725
 2682W        W 6882   8.538  10.908  11.261
 2683W        W 6883   7.245   4.647   4.128
 2684W        W 6884  10.908   2.136  10.178
 2685W        W 6885   9.291   4.120  10.134
 2686W        W 6886   3.817   6.637   1.643
 2687W        W 6887   5.626   1.794  11.741
 2688W        W 6888   4.341   6.954   9.752
 2689W        W 6889   2.971  11.427   1.726
 2690W        W 6890   8.500   8.897  10.428
 2691W        W 6891   3.885  11.078  11.673
 2692W        W 6892   6.553   7.890  11.868
 2693W        W 6893   4.201   2.209  11.476
 2694W        W 6894   8.101   3.819  10.913
 2695W        W 6895   5.704   2.912   1.867
 2696W        W 6896   6.420   7.799   1.080
 2697W        W 6897   8.707   5.129  11.129
 2698W        W 6898   0.753   5.561   2.506
 2699W        W 6899   3.636   0.520  11.357
 2700W        W 6900   4.937  11.028  10.769
 2701W        W 6901   2.866   8.946   0.891
 2702W        W 6902   8.035   2.689  10.296
 2703W        W 6903   7.104   0.785   0.942
 2704W        W 6904   4.750   7.143   2.677
 2705W        W 6905   6.722   3.682   2.221
 2706W        W 6906  10.089   1.500  10.768
 2707W        W 6907   4.579   9.922   3.445
 2708W        W 6908   8.877   5.620   2.637
 2709W        W 6909   8.221   4.254   3.242
 2710W        W 6910   1.756   6.529  11.026
 2711W        W 6911   0.778   1.821   2.339
 2712W        W 6912   1.300   7.544  10.528
 2713W        W 6913   8.817   7.096  11.793
 2714W        W 6914   0.009   3.748   2.234
 2715W        W 6915   4.711   6.666   1.415
 2716W        W 6916   7.484   4.093   2.880
 2717W        W 6917   7.792  10.682  11.093
 2718W        W 6918   7.899   7.708   1.286
 2719W        W 6919   0.777   6.440  10.542
 2720W        W 6920   7.544   4.672   9.962
 2721W        W 6921   6.510   0.855   3.251
 2722W        W 6922   6.101   5.588   0.268
 2723W        W 6923   9.074   6.687   3.157
 2724W        W 6924   5.432   8.914   1.004
 2725W        W 6925   5.516  10.915  11.246
 2726W        W 6926   6.549  10.947   1.419
 2727W        W 6927   9.050   9.950   9.613
 2728W        W 6928   2.876   6.071   3.311
 2729W        W 6929   3.205   5.552  10.064
 2730W        W 6930   8.444   5.957   9.615
 2731W        W 6931   2.177   5.602   3.487
 2732W        W 6932   5.048   3.786   1.171
 2733W        W 6933   5.591   9.311   9.379
 2734W        W 6934   7.567  10.002   0.400
 2735W        W 6935  10.599   4.519   8.916
 2736W        W 6936   2.732   8.898   1.727
 2737W        W 6937   2.807   7.682  11.667
 2738W        W 6938  11.280  11.465  10.311
 2739W        W 6939   7.566  10.568   1.717
 2740W        W 6940   0.439   9.155   2.228
 2741W        W 6941   4.791  10.194  11.006
 2742W        W 6942   1.878   0.060  11.528
 2743W        W 6943   9.022   6.714  10.979
 2744W        W 6944   3.804   2.722   0.115
 2745W        W 6945   7.880   9.775   1.741
 2746W        W 6946  10.240   5.013  11.673
 2747W        W 6947  10.993   2.963   3.157
 2748W        W 6948   7.099   8.716  10.045
 2749W        W 6949  10.343   7.683   2.085
 2750W        W 6950   6.954   1.272  10.034
 2751W        W 6951   9.154   0.366   2.181
 2752W        W 6952   4.775  11.368   3.289
 2753W        W 6953   8.891   3.549  10.348
 2754W        W 6954  11.498   8.023   1.380
 2755W        W 6955   7.427   7.257   3.111
 2756W        W 6956   5.256  10.784   0.622
 2757W        W 6957  10.686   7.127  11.414
 2758W        W 6958   1.689   9.866   0.535
 2759W        W 6959   2.199   1.870  10.271
 2760W        W 6960   8.465   7.653   1.853
 2761W        W 6961   8.420   4.206  10.752
 2762W        W 6962   2.134   9.866   1.381
 2763W        W 6963   5.056   7.767   0.405
 2764W        W 6964   3.154  11.412  10.630
 2765W        W 6965   5.285   6.923   9.959
 2766W        W 6966   8.649   5.860   1.374
 2767W        W 6967   1.854   8.610  11.328
 2768W        W 6968   1.888   9.398   1.241
 2769W        W 6969   7.540   9.188   9.452
 2770W        W 6970   2.358   7.004   3.198
 2771W        W 6971   1.910   9.014   3.310
 2772W        W 6972   0.866   9.059   2.532
 2773W        W 6973   2.627  11.367  10.887
 2774W        W 6974   6.208  10.427  11.355
 2775W        W 6975   1.243  11.465   1.308
 2776W        W 6976   8.007   7.608   8.858
 2777W        W 6977   6.532   6.699  11.721
 2778W        W 6978   4.222   3.879   8.812
 2779W        W 6979   2.684  10.155  11.982
 2780W        W 6980   6.870   6.565   2.463
 2781W        W 6981   1.107   7.118   1.869
 2782W        W 6982   0.731   8.337   9.381
 2783W        W 6983   7.513   2.548   0.691
 2784W        W 6984   3.530  10.006   9.673
 2785W        W 6985   9.788   1.502   3.351
 2786W        W 6986   9.042   6.171   1.361
 2787W        W 6987   7.646   4.270   2.422
 2788W        W 6988   5.645   5.677   0.488
 2789W        W 6989   2.647   5.077   8.891
 2790W        W 6990  10.137  11.290   2.568
 2791W        W 6991   4.770   0.669   9.893
 2792W        W 6992   1.308   4.403  10.211
 2793W        W 6993   1.306   1.790   9.792
 2794W        W 6994   3.922   8.112   3.025
 2795W        W 6995   3.967   6.463   2.667
 2796W        W 6996  11.286   8.566   9.514
 2797W        W 6997   2.207   7.684   1.875
 2798W        W 6998   5.676   4.298  10.256
 2799W        W 6999   5.214  10.747   8.711
 2800W        W 7000  11.286   2.836  11.236
 2801W        W 7001  10.927   8.476   9.145
 2802W        W 7002   2.484   5.534   8.706
 2803W        W 7003   0.176   9.142  10.837
 2804W        W 7004   8.962   5.613   8.974
 2805W        W 7005   2.666   9.471   3.167
 2806W        W 7006   5.800   8.888  11.019
 2807W        W 7007   0.387   8.935   0.812
 2808W        W 7008   8.554   9.791  10.307
 2809W        W 7009   4.549   3.973  11.817
 2810W        W 7010   6.839   2.298  11.117
 2811W        W 7011   0.343   4.017   9.896
 2812W        W 7012   4.204   0.431   0.031
 2813W        W 7013   4.920   2.800  11.424
 2814W        W 7014   1.779   0.948  10.652
 2815W        W 7015   6.018   5.118  10.001
 2816W        W 7016   9.550   9.875   2.414
 2817W        W 7017  11.475   0.369   1.659
 2818W        W 7018   8.893   1.762   2.177
 2819W        W 7019  11.054   0.045   1.733
 2820W        W 7020   2.871   8.525  11.087
 2821W        W 7021   6.519   3.628  10.890
 2822W        W 7022  10.320   9.175  11.329
 2823W        W 7023   3.858   1.393   3.412
 2824W        W 7024   5.190   4.117  11.908
 2825W        W 7025   1.889   1.987   3.056
 2826W        W 7026   3.283   8.604  11.364
 2827W        W 7027   6.688   6.678   3.595
 2828W        W 7028   2.738   0.022   2.278
 2829W        W 7029   1.105   5.417   0.759
 2830W        W 7030   9.975   1.197  10.322
 2831W        W 7031   2.870   5.884  10.358
 2832W        W 7032   4.863   9.551   0.208
 2833W        W 7033   6.237   5.821   9.406
 2834W        W 7034   5.549   1.936   9.547
 2835W        W 7035   0.456   0.957   1.363
 2836W        W 7036   9.104   5.029   4.270
 2837W        W 7037   6.756   2.589   3.991
 2838W        W 7038   3.243   0.487   2.820
 2839W        W 7039   0.236   2.152   2.819
 2840W        W 7040   6.452  11.171   0.964
 2841W        W 7041   4.515   8.615   0.236
 2842W        W 7042   8.134  10.042   9.127
 2843W        W 7043   0.890  11.051   3.770
 2844W        W 7044  10.043  10.349  11.834
 2845W        W 7045   2.691   8.155   2.927
 2846W        W 7046   9.940   6.237   1.462
 2847W        W 7047   3.249   9.211   2.380
 2848W        W 7048   8.311   0.786   8.987
 2849W        W 7049   0.031   0.662   1.191
 2850W        W 7050   5.262  10.147  10.797
 2851W        W 7051   8.914   9.517   0.405
 2852W        W 7052   9.340   2.271  10.109
 2853W        W 7053   5.631   7.059   9.030
 2854W        W 7054   6.571   9.515   2.774
 2855W        W 7055   8.468   9.017   1.737
 2856W        W 7056   4.549   9.750  10.985
 2857W        W 7057   4.366   9.553  11.434
 2858W        W 7058   4.170  10.057   0.528
 2859W        W 7059   7.937  10.085   0.731
 2860W        W 7060   4.322   1.437  11.027
 2861W        W 7061   8.977   0.657   9.513
 2862W        W 7062   7.575  10.400   1.237
 2863W        W 7063   0.445   9.908   9.509
 2864W        W 7064  10.804   0.217   1.287
 2865W        W 7065   2.770   7.374  10.203
 2866W        W 7066   9.909   6.518   0.286
 2867W        W 7067  10.361   1.308   9.234
 2868W        W 7068   8.378   5.043  11.510
 2869W        W 7069   7.408   0.964   9.169
 2870W        W 7070   8.752   7.559  11.055
 2871W        W 7071   0.755   2.281   9.654
 2872W        W 7072   2.196   9.213   2.902
 2873W        W 7073   8.499   3.203   8.391
 2874W        W 7074   0.300   1.731  10.063
 2875W        W 7075   8.338   4.110   0.492
 2876W        W 7076   6.265   5.733   0.779
 2877W        W 7077   6.077   1.004   8.984
 2878W        W 7078   6.052   7.458   9.792
 2879W        W 7079   2.322   0.240  11.357
 2880W        W 7080   4.327   6.826   2.675
 2881W        W 7081   2.080   7.871   1.061
 2882W        W 7082   8.042   9.256   9.568
 2883W        W 7083   7.621   6.707  11.331
 2884W        W 7084  10.850  11.442   0.229
 2885W        W 7085   2.201   7.501   3.081
 2886W        W 7086   2.418   5.276   2.183
 2887W        W 7087   3.292   4.729   8.977
 2888W        W 7088   2.171   2.895   9.305
 2889W        W 7089  10.496   9.904   3.465
 2890W        W 7090   8.874   0.623   8.980
 2891W        W 7091   3.434  10.906   3.841
 2892W        W 7092   0.120   1.450   2.212
 2893W        W 7093   6.796   7.935  11.169
 2894W        W 7094   2.691  10.669  10.440
 2895W        W 7095   4.580   4.030   2.538
 2896W        W 7096   8.157   3.644   0.354
 2897W        W 7097   2.365   7.574   0.670
 2898W        W 7098   6.464   9.394  10.411
 2899W        W 7099   4.095   6.416  11.237
 2900W        W 7100  10.896   5.362  11.303
 2901W        W 7101   0.887   6.710  11.613
 2902W        W 7102   0.268   0.419   9.951
 2903W        W 7103   7.176  11.331   3.530
 2904W        W 7104   5.999   8.134  10.978
 2905W        W 7105   7.414   9.590   1.847
 2906W        W 7106   5.679  11.354   1.312
 2907W        W 7107   7.945   3.663  10.450
 2908W        W 7108   2.263   1.162   2.781
 2909W        W 7109   0.069   4.172   2.539
 2910W        W 7110   4.080   3.383   8.840
 2911W        W 7111   9.414   6.554   3.573
 2912W        W 7112   5.330  11.314   1.699
 2913W        W 7113   9.024   2.316   1.379
 2914W        W 7114   8.955   9.022   1.555
 2915W        W 7115   9.945   0.466   2.348
 2916W        W 7116   0.351   9.247   1.214
 2917W        W 7117   0.690   9.521   1.959
 2918W        W 7118   5.131   9.598   8.561
 2919W        W 7119   0.310   8.069   3.108
 2920W        W 7120   8.032   9.498   2.463
 2921W        W 7121  11.432  11.377   2.527
 2922W        W 7122   7.131   2.943   4.076
 2923W        W 7123   4.848  10.835   9.866
 2924W        W 7124   6.436   2.370  10.817
 2925W        W 7125   5.248   6.909   3.558
 2926W        W 7126   4.085  11.065  11.182
 2927W        W 7127   2.754  11.061   2.003
 2928W        W 7128  10.614   0.482   0.894
 2929W        W 7129   5.231   2.616   0.810
 2930W        W 7130   0.224   6.959   1.254
 2931W        W 7131   0.586   1.760   2.864
 2932W        W 7132   0.866   7.680   9.988
 2933W        W 7133   1.582   2.190  10.320
 2934W        W 7134   0.156   9.570   2.052
 2935W        W 7135   2.886   2.120   0.059
 2936W        W 7136   8.427   6.771  11.988
 2937W        W 7137  10.614   8.586  10.486
 2938W        W 7138   1.804   9.294  11.864
 2939W        W 7139   6.296  10.480  11.876
 2940W        W 7140   0.360   3.393   2.367
 2941W        W 7141   7.286   2.407  11.350
 2942W        W 7142   3.410   5.674   2.832
 2943W        W 7143   3.560   4.342   3.034
 2944W        W 7144  11.108   0.873  10.950
 2945W        W 7145   3.219   5.173   2.841
 2946W        W 7146   0.812   9.500  10.296
 2947W        W 7147  10.380   0.445   0.025
 2948W        W 7148   5.070  10.124   2.618
 2949W        W 7149   9.544   5.036   2.653
 2950W        W 7150   9.499   6.934   8.677
 2951W        W 7151   2.667   1.979   1.859
 2952W        W 7152   3.863   1.443   9.466
 2953W        W 7153  10.894   5.676   0.727
 2954W        W 7154   3.952  11.302   9.991
 2955W        W 7155   2.662  10.222  10.765
 2956W        W 7156   0.304   5.207   3.224
 2957W        W 7157   7.558   3.346  10.505
 2958W        W 7158   9.888   9.631   9.560
 2959W        W 7159   5.174   9.329   9.019
 2960W        W 7160   5.525   6.318  11.838
 2961W        W 7161   1.220   3.235   0.183
 2962W        W 7162   5.978   1.741   2.387
 2963W        W 7163   0.904  10.343   1.882
 2964W        W 7164   3.808   1.236   2.424
 2965W        W 7165   9.400   2.812   1.053
 2966W        W 7166   7.398   5.009   3.766
 2967W        W 7167   5.066   6.090   0.524
 2968W        W 7168   4.907  10.125   1.741
 2969W        W 7169   9.377   8.131   1.364
 2970W        W 7170   7.943   9.077   9.101
 2971W        W 7171   3.862   5.507   0.251
 2972W        W 7172   1.713   3.150  10.939
 2973W        W 7173   8.949   8.831   0.272
 2974W        W 7174   2.907  10.299   9.091
 2975W        W 7175   9.079   1.496   2.593
 2976W        W 7176   5.130   7.330   8.897
 2977W        W 7177  10.788   3.271   0.908
 2978W        W 7178   2.751   1.863   2.703
 2979W        W 7179   5.837   3.289   9.380
 2980W        W 7180  10.028   9.480   0.911
 2981W        W 7181   8.985   2.940   0.771
 2982W        W 7182   0.178   4.039  11.668
 2983W        W 7183   5.204   1.434  11.094
 2984W        W 7184   2.172   4.277   9.594
 2985W        W 7185   6.776   2.117   2.493
 2986W        W 7186   0.509   0.449  10.397
 2987W        W 7187  10.167   7.097   9.515
 2988W        W 7188   3.539   6.709   9.837
 2989W        W 7189   6.133   6.535   9.942
 2990W        W 7190   2.709   6.731   8.249
 2991W        W 7191   0.322   0.092   1.147
 2992W        W 7192   2.074   4.290   9.082
 2993W        W 7193  11.413   3.896   0.749
 2994W        W 7194   3.704   0.846   9.076
 2995W        W 7195   6.527   4.580  10.723
 2996W        W 7196   8.635  10.480   9.020
 2997W        W 7197   0.169   0.403   3.206
 2998W        W 7198   8.857   4.871  11.535
 2999W        W 7199   9.772  11.331  11.730
 3000W        W 7200   0.477   3.268   8.956
 3001W        W 7201   2.199   0.005  11.987
 3002W        W 7202  10.915   0.443   0.432
 3003W        W 7203   4.872   1.471   9.577
 3004W        W 7204   0.918   1.377   2.849
 3005W        W 7205   4.328   2.337   2.641
 3006W        W 7206   7.264   2.801   3.101
 3007W        W 7207   3.481   9.454   2.748
 3008W        W 7208   4.377   3.699  10.576
 3009W        W 7209  10.778   0.804  10.574
 3010W        W 7210   9.898   7.692   2.985
 3011W        W 7211   1.227   5.791   1.864
 3012W        W 7212   0.779   8.516  11.217
 3013W        W 7213   2.968   6.000   9.860
 3014W        W 7214   1.303   3.163   1.741
 3015W        W 7215   7.412   2.093   0.930
 3016W        W 7216   1.375   8.589   0.950
 3017W        W 7217   4.126   9.173  10.449
 3018W        W 7218   0.711   8.398   3.726
 3019W        W 7219   3.754   4.891  10.284
 3020W        W 7220   9.586   5.113  11.739
 3021W        W 7221  10.001   8.122   2.705
 3022W        W 7222   2.270   1.958   9.248
 3023W        W 7223   5.639   9.001   2.512
 3024W        W 7224   5.137   3.815  10.921
 3025W        W 7225   6.708   2.651   8.561
 3026W        W 7226   4.275   1.127  11.904
 3027W        W 7227   6.555   1.668   8.738
 3028W        W 7228   3.213   5.300  11.056
 3029W        W 7229   2.636   0.608   1.169
 3030W        W 7230   3.840   5.843   1.462
 3031W        W 7231   3.626   4.328   1.259
 3032W        W 7232   5.071   5.710  10.211
 3033W        W 7233   0.689   7.998  11.348
 3034W        W 7234   8.682   7.439  10.372
 3035W        W 7235   4.620   7.963  11.047
 3036W        W 7236  11.220  11.043   1.793
 3037W        W 7237  10.057   5.176   2.440
 3038W        W 7238   6.261   3.258   9.070
 3039W        W 7239   1.394   5.726  10.200
 3040W        W 7240   2.655   1.700  10.365
 3041W        W 7241  10.138   9.602   1.625
 3042W        W 7242   2.642   0.172  11.824
 3043W        W 7243   0.162   2.579   1.024
 3044W        W 7244   3.143   7.547   1.675
 3045W        W 7245   3.595   9.775   3.167
 3046W        W 7246   0.940  10.798  11.961
 3047W        W 7247   6.291   7.675   0.612
 3048W        W 7248   6.060   1.413   8.453
 3049W        W 7249   9.874   5.163  11.322
 3050W        W 7250   9.203   7.937   9.031
 3051W        W 7251   7.964   4.709   2.522
 3052W        W 7252   6.772   8.822  11.151
 3053W        W 7253   7.719   3.655   2.808
 3054W        W 7254   3.142  10.880  11.891
 3055W        W 7255   7.746   7.597  10.364
 3056W        W 7256  11.030  11.494   3.296
 3057W        W 7257   7.059   0.574   9.080
 3058W        W 7258   0.533  10.853  11.575
 3059W        W 7259   9.919   7.598   9.639
 3060W        W 7260   0.903   0.482   0.671
 3061W        W 7261   2.326   7.212   9.945
 3062W        W 7262   1.190   1.161   9.180
 3063W        W 7263   4.431   2.669  11.408
 3064W        W 7264   3.715  11.379   9.098
 3065W        W 7265  10.413   8.181  11.470
 3066W        W 7266  10.934   2.745   0.211
 3067W        W 7267   9.928   4.865   3.449
 3068W        W 7268   8.865   7.251   0.311
 3069W        W 7269   2.784   1.815  11.647
 3070W        W 7270   7.477  10.385   9.799
 3071W        W 7271   9.471   8.873   8.942
 3072W        W 7272   7.461   6.747   3.180
 3073W        W 7273   5.520  10.754   1.897
 3074W        W 7274   1.452   5.256  11.474
 3075W        W 7275   0.025  10.095   2.008
 3076W        W 7276   5.536   0.620  10.151
 3077W        W 7277   5.833   7.564   0.797
 3078W        W 7278   5.239   3.748   2.237
 3079W        W 7279  10.544   1.439   2.905
 3080W        W 7280   8.182   5.048  10.474
 3081W        W 7281   6.659  10.479   1.226
 3082W        W 7282   6.756   3.756  11.333
 3083W        W 7283   6.058  11.016   1.267
 3084W        W 7284   9.860   4.683  11.572
 3085W        W 7285  11.350   9.236   3.430
 3086W        W 7286   0.519   5.919  10.842
 3087W        W 7287   7.446   8.514  11.471
 3088W        W 7288   5.184   5.730   9.683
 3089W        W 7289   8.077   0.035   3.432
 3090W        W 7290   2.676  10.181  10.265
 3091W        W 7291   8.313   0.773  11.209
 3092W        W 7292   9.432   7.374   1.045
 3093W        W 7293   8.954   1.598   9.333
 3094W        W 7294   5.611   4.490   1.080
 3095W        W 7295   2.915   4.643   8.622
 3096W        W 7296   5.337  10.982   9.789
 3097W        W 7297   1.849   6.566   2.777
 3098W        W 7298   4.154  11.429   8.839
 3099W        W 7299   6.583   9.854   8.954
 3100W        W 7300   5.814   6.048  11.544
 3101W        W 7301   0.842   2.648  10.709
 3102W        W 7302   4.557   5.463   1.458
 3103W        W 7303   4.282   7.836  10.081
 3104W        W 7304   2.833   7.522   2.090
 3105W        W 7305   1.461   8.107  10.535
 3106W        W 7306   7.496   2.760   1.640
 3107W        W 7307  11.389   1.227   0.061
 3108W        W 7308   8.034   0.822   1.982
 3109W        W 7309   6.138   0.454  11.770
 3110W        W 7310   5.268  10.522   1.062
 3111W        W 7311   8.124   2.442  11.922
 3112W        W 7312   7.048   4.083   1.077
 3113W        W 7313   3.247   8.670   9.379
 3114W        W 7314   3.587   5.762  11.872
 3115W        W 7315   5.813  10.778   0.266
 3116W        W 7316   4.038   0.789  10.426
 3117W        W 7317  11.410   5.195   9.743
 3118W        W 7318   6.443   4.778  11.714
 3119W        W 7319   1.202   8.575   9.316
 3120W        W 7320   3.267   7.922   0.372
 3121W        W 7321   3.270   8.214   1.269
 3122W        W 7322   1.806  11.216  10.573
 3123W        W 7323   4.576   0.000   0.899
 3124W        W 7324   8.626  11.290   2.610
 3125W        W 7325   6.163   1.286   0.747
 3126W        W 7326   0.900   7.243   4.031
 3127W        W 7327   0.367   3.806   1.003
 3128W        W 7328   3.730   3.199  11.889
 3129W        W 7329   1.632  10.308   9.018
 3130W        W 7330   3.545  11.248   3.039
 3131W        W 7331  11.033   8.732   0.562
 3132W        W 7332   5.703   2.301   9.197
 3133W        W 7333   2.517   5.092   3.775
 3134W        W 7334   6.755  10.532   9.086
 3135W        W 7335   5.754   2.826  10.030
 3136W        W 7336   3.967   4.680   9.826
 3137W        W 7337   4.525   9.125   0.265
 3138W        W 7338   7.766   8.323   9.233
 3139W        W 7339   0.267   0.869  10.253
 3140W        W 7340  11.462   1.286   1.311
 3141W        W 7341  11.118  10.766   3.547
 3142W        W 7342   1.289  11.360  10.501
 3143W        W 7343   6.872   7.882   2.340
 3144W        W 7344   6.493   4.463   2.599
 3145W        W 7345   1.026   4.523   1.346
 3146W        W 7346   4.247  10.338   2.030
 3147W        W 7347   0.624  10.057   0.199
 3148W        W 7348   1.423   9.533  11.024
 3149W        W 7349   8.975   1.079   9.186
 3150W        W 7350   2.930   0.285   0.243
 3151W        W 7351  11.323   8.748   3.295
 3152W        W 7352  11.183   4.611   3.424
 3153W        W 7353  11.202   4.347   9.877
 3154W        W 7354   1.915   1.869   0.045
 3155W        W 7355   6.974   9.799   0.923
 3156W        W 7356   5.296   8.943  10.999
 3157W        W 7357   1.886   3.882   0.874
 3158W        W 7358  10.506   8.443  11.911
 3159W        W 7359   4.400   9.933   9.245
 3160W        W 7360   2.562   1.232   2.386
 3161W        W 7361   8.438   5.568   9.023
 3162W        W 7362   1.540  10.408   0.998
 3163W        W 7363   3.738   1.753  10.431
 3164W        W 7364   5.606   1.672   1.620
 3165W        W 7365   8.155   1.067   2.431
 3166W        W 7366  10.525   9.327   0.188
 3167W        W 7367   6.246   5.082  10.480
 3168W        W 7368   3.600  10.975   9.467
 3169W        W 7369   8.491   2.675  10.007
 3170W        W 7370   2.305   8.664   9.112
 3171W        W 7371  10.910   9.537   3.358
 3172W        W 7372   9.338   4.287   9.637
 3173W        W 7373   5.748   7.987   9.100
 3174W        W 7374   3.159   6.954   1.029
 3175W        W 7375   9.994   4.549  10.181
 3176W        W 7376   2.826   2.803   0.479
 3177W        W 7377   5.553   2.854   3.381
 3178W        W 7378   6.964   0.786  10.233
 3179W        W 7379  11.482  10.958   2.260
 3180W        W 7380   2.112   6.115  11.773
 3181W        W 7381  11.340   7.612   1.624
 3182W        W 7382   1.666   0.688   9.185
 3183W        W 7383  10.579   8.851   1.397
 3184W        W 7384   3.204   8.870   1.987
 3185W        W 7385   6.078   8.307   1.760
 3186W        W 7386   0.365  11.088   1.304
 3187W        W 7387   5.993  10.903  11.442
 3188W        W 7388   9.873   2.226  11.777
 3189W        W 7389   8.924   0.872  10.724
 3190W        W 7390   8.602   3.777   2.671
 3191W        W 7391   1.235   6.546   3.525
 3192W        W 7392   8.868   1.225   9.677
 3193W        W 7393   3.804   7.781  11.447
 3194W        W 7394   8.303   9.542   2.020
 3195W        W 7395   9.317   7.847   1.841
 3196W        W 7396   0.954   9.881   9.382
 3197W        W 7397   8.770   4.541   1.255
 3198W        W 7398   1.110  11.312  11.946
 3199W        W 7399   1.187   0.984   2.656
 3200W        W 7400   5.772   3.257   8.373
 3201W        W 7401   9.918   6.167   9.857
 3202W        W 7402   5.639   0.932   2.205
 3203W        W 7403   2.700   7.180  11.735
 3204W        W 7404   5.762  11.278   0.419
 3205W        W 7405   2.642   2.827   9.465
 3206W        W 7406   3.743   2.727   3.298
 3207W        W 7407  10.931   8.953   9.299
 3208W        W 7408   2.214  11.235   2.765
 3209W        W 7409   9.076   4.720   9.695
 3210W        W 7410   8.139   9.382   1.565
 3211W        W 7411   7.542   9.051   2.930
 3212W        W 7412   2.004   7.639   2.627
 3213W        W 7413   8.702  11.320   0.400
 3214W        W 7414   0.790   1.594  11.346
 3215W        W 7415   8.451   0.577   1.743
 3216W        W 7416   7.506   7.994   1.010
 3217W        W 7417   3.993   2.838   9.562
 3218W        W 7418   0.834   8.799   0.062
 3219W        W 7419  10.769   4.870  11.442
 3220W        W 7420  11.280   8.178   0.370
 3221W        W 7421   2.734   1.544  11.213
 3222W        W 7422   6.614   0.738   2.767
 3223W        W 7423   4.167   0.979   3.399
 3224W        W 7424  10.808  10.807  10.902
 3225W        W 7425   7.262   1.350   9.570
 3226W        W 7426  10.919   2.552   9.693
 3227W        W 7427   9.433   6.633   0.317
 3228W        W 7428   1.871   2.916   2.722
 3229W        W 7429   3.477   4.401   0.453
 3230W        W 7430   9.572   6.551   0.808
 3231W        W 7431  10.261   1.291   3.335
 3232W        W 7432   7.512   9.414  11.291
 3233W        W 7433   9.871   9.476  10.522
 3234W        W 7434   3.925  10.069   9.334
 3235W        W 7435   3.444   7.971   1.738
 3236W        W 7436  10.589   1.830   9.193
 3237W        W 7437  10.827   0.828   3.447
 3238W        W 7438   3.595   8.948   0.555
 3239W        W 7439   6.985   4.318   2.776
 3240W        W 7440   3.138   3.215   0.458
 3241W        W 7441   6.514   9.199   8.486
 3242W        W 7442   6.122   5.207  11.895
 3243W        W 7443   4.324   8.612   2.569
 3244W        W 7444   6.287  11.300   0.382
 3245W        W 7445   3.655   6.499   2.133
 3246W        W 7446   2.810   4.330   0.932
 3247W        W 7447   1.234  10.073   1.268
 3248W        W 7448  11.302  10.296   9.950
 3249W        W 7449   8.076  10.305  11.283
 3250W        W 7450   0.922   5.648   9.963
 3251W        W 7451   8.425   7.113   9.828
 3252W        W 7452   0.772   7.790  10.869
 3253W        W 7453   3.947   3.209   0.902
 3254W        W 7454   6.386   5.758  10.555
 3255W        W 7455  10.433   9.784   0.934
 3256W        W 7456   0.764   9.967   0.678
 3257W        W 7457   0.403  11.034   9.955
 3258W        W 7458   4.644   4.391  10.011
 3259W        W 7459   0.850   1.259  11.721
 3260W        W 7460  11.495   0.173   0.715
 3261W        W 7461  10.901   1.253   3.202
 3262W        W 7462   1.890  10.498   3.094
 3263W        W 7463   6.291   6.025   1.209
 3264W        W 7464   0.317  11.470  10.241
 3265W        W 7465  10.254   0.559   2.757
 3266W        W 7466   5.376  10.117   0.751
 3267W        W 7467   5.999  11.347   2.880
 3268W        W 7468   2.792   9.390   9.243
 3269W        W 7469   8.368   9.284   3.252
 3270W        W 7470   9.912   2.838   0.468
 3271W        W 7471   9.392   0.032   1.450
 3272W        W 7472   5.075  11.497   2.475
 3273W        W 7473   9.660   0.071   0.150
 3274W        W 7474   8.412   8.612   2.056
 3275W        W 7475   3.325   8.456   2.814
 3276W        W 7476   0.368   6.074   0.749
 3277W        W 7477   4.199   6.537   8.581
 3278W        W 7478   5.052   2.378   9.977
 3279W        W 7479   1.139   8.741   2.906
 3280W        W 7480   2.597   8.444   3.340
 3281W        W 7481   0.372  11.002   8.456
 3282W        W 7482   7.494   1.427   1.178
 3283W        W 7483   1.427   2.202   3.211
 3284W        W 7484   9.955   7.181   9.961
 3285W        W 7485   1.305   0.601   2.364
 3286W        W 7486   2.680   3.470   1.019
 3287W        W 7487  11.290   6.863   0.364
 3288W        W 7488   7.469   8.193   0.314
 3289W        W 7489   6.970  10.176   0.070
 3290W        W 7490   0.468   0.461   1.465
 3291W        W 7491   5.511   3.243   0.085
 3292W        W 7492   8.633   5.952  10.097
 3293W        W 7493   2.209   4.123   1.745
 3294W        W 7494   0.403   2.977  11.837
 3295W        W 7495   7.679   0.072   1.687
 3296W        W 7496   1.931   5.130   2.340
 3297W        W 7497   7.466   2.675   2.155
 3298W        W 7498   1.418   6.934   9.526
 3299W        W 7499   8.480   0.254   2.802
 3300W        W 7500   1.562   9.444   0.840
 3301W        W 7501  11.327   1.608   0.434
 3302W        W 7502   6.620   7.095   9.668
 3303W        W 7503   9.048   8.915  11.234
 3304W        W 7504   3.750   4.614   0.838
 3305W        W 7505   1.805   0.465  10.016
 3306W        W 7506   8.380   8.884   9.433
 3307W        W 7507   1.038   7.943  11.750
 3308W        W 7508   0.444   5.553  10.476
 3309W        W 7509   2.953   9.513   9.886
 3310W        W 7510  10.839   0.673   8.948
 3311W        W 7511   3.248   8.204  10.094
 3312W        W 7512   7.483   0.534   0.248
 3313W        W 7513  11.309   6.429  10.459
 3314W        W 7514   3.181   1.265   1.558
 3315W        W 7515   3.192   7.692  10.801
 3316W        W 7516   6.682   9.062   2.406
 3317W        W 7517   8.059   0.514   0.297
 3318W        W 7518   1.882   3.078   1.272
 3319W        W 7519   4.977  10.356   0.496
 3320W        W 7520  10.280   3.701   8.644
 3321W        W 7521   3.882   2.339   0.911
 3322W        W 7522   7.543   5.623   1.558
 3323W        W 7523   1.385   8.913   1.969
 3324W        W 7524   6.208  10.139   1.195
 3325W        W 7525  10.592   6.091   0.673
 3326W        W 7526   4.023   2.193   3.510
 3327W        W 7527   9.760   3.066   1.860
 3328W        W 7528   0.179   4.501   2.951
 3329W        W 7529   0.563   3.883  10.591
 3330W        W 7530   6.060  10.586   1.022
 3331W        W 7531  10.480  11.213   0.499
 3332W        W 7532  10.365  10.466   9.221
 3333W        W 7533   4.362   5.996  11.182
 3334W        W 7534   9.352   1.015   9.560
 3335W        W 7535   3.057   1.458  10.572
 3336W        W 7536   4.736   6.794   9.496
 3337W        W 7537   4.652   1.093   2.903
 3338W        W 7538  10.715   3.629   2.667
 3339W        W 7539   0.604   9.048  10.519
 3340W        W 7540   8.545   1.438   8.476
 3341W        W 7541   0.824   0.470   3.189
 3342W        W 7542   0.433   2.246   8.772
 3343W        W 7543   6.182  11.482   9.870
 3344W        W 7544   4.078   1.602   1.311
 3345W        W 7545   9.941   6.675  11.290
 3346W        W 7546   4.059   5.050   0.056
 3347W        W 7547   8.052  10.545   1.427
 3348W        W 7548   7.270   5.485   1.043
 3349W        W 7549  11.360   6.025   2.403
 3350W        W 7550   9.485   8.406   2.782
 3351W        W 7551   0.573   7.501  11.255
 3352W        W 7552   7.473   6.036   1.892
 3353W        W 7553   2.985   9.683   3.527
 3354W        W 7554   6.788   4.205   2.262
 3355W        W 7555   3.441   6.560   2.651
 3356W        W 7556   4.995   7.536   1.300
 3357W        W 7557   0.875   8.424  11.709
 3358W        W 7558   7.414   9.907  10.042
 3359W        W 7559   0.945   5.671  10.478
 3360W        W 7560   8.003   8.930   3.183
 3361W        W 7561   5.713   3.119  11.181
 3362W        W 7562  11.472   2.823   2.964
 3363W        W 7563   5.200  10.535  11.110
 3364W        W 7564   2.272   8.614   0.792
 3365W        W 7565   0.372   1.758  11.597
 3366W        W 7566   2.887   7.171  10.799
 3367W        W 7567   8.353   5.653   2.742
 3368W        W 7568   0.954   8.038   1.489
 3369W        W 7569   6.728   9.132   4.151
 3370W        W 7570   1.096  11.243   0.475
 3371W        W 7571   6.585   3.053   0.049
 3372W        W 7572   9.177   6.433   1.802
 3373W        W 7573   2.837   2.960   1.918
 3374W        W 7574   6.500   4.358   9.825
 3375W        W 7575   3.203   3.511   3.234
 3376W        W 7576   4.760   0.771  11.293
 3377W        W 7577   9.368   4.109  10.635
 3378W        W 7578   7.772   3.368   8.761
 3379W        W 7579   3.790   6.466   9.465
 3380W        W 7580  10.329   9.502  11.745
 3381W        W 7581   3.820   4.125   2.644
 3382W        W 7582   4.519   7.297   9.433
 3383W        W 7583   6.937   0.486   9.596
 3384W        W 7584   1.033   6.223   8.765
 3385W        W 7585   1.277   2.435  10.906
 3386W        W 7586   4.897   6.554  10.610
 3387W        W 7587   9.371   2.316  11.632
 3388W        W 7588  10.937   6.743   2.660
 3389W        W 7589   4.271   5.291   1.861
 3390W        W 7590   5.032   2.377   1.855
 3391W        W 7591   5.490   4.963   2.768
 3392W        W 7592   9.773   9.951  11.281
 3393W        W 7593   4.415   7.069   0.623
 3394W        W 7594   8.266   6.957   3.352
 3395W        W 7595  10.853  11.042  11.846
 3396W        W 7596  10.498   6.084   3.272
 3397W        W 7597   5.244   2.227   8.970
 3398W        W 7598   7.018   1.027   8.826
 3399W        W 7599   7.061   2.859  11.255
 3400W        W 7600   6.791   7.053  10.196
 3401W        W 7601   5.255   5.732   0.839
 3402W        W 7602  10.050   7.154  10.799
 3403W        W 7603   9.013   6.212   9.790
 3404W        W 7604   4.178   1.935   1.702
 3405W        W 7605   2.963   8.643   9.918
 3406W        W 7606   0.404   9.551   8.534
 3407W        W 7607   9.914   8.660   8.757
 3408W        W 7608   6.513   9.640   9.425
 3409W        W 7609   3.113   1.682   1.885
 3410W        W 7610   8.473   2.578   8.536
 3411W        W 7611   5.229   1.425   9.199
 3412W        W 7612   4.134   3.178   9.908
 3413W        W 7613   9.524  10.281  10.969
 3414W        W 7614   3.014   3.173  10.648
 3415W        W 7615   3.537   8.568   0.234
 3416W        W 7616   1.387   2.640   9.907
 3417W        W 7617   1.783   7.650  10.412
 3418W        W 7618   4.100   6.736  10.838
 3419W        W 7619   7.855   6.920   1.541
 3420W        W 7620   1.947   2.850   1.779
 3421W        W 7621   8.419   6.308   0.818
 3422W        W 7622   6.683  11.272   2.352
 3423W        W 7623   2.766   2.553   9.058
 3424W        W 7624   2.323   6.890   9.516
 3425W        W 7625   4.309   0.373  10.601
 3426W        W 7626   3.113  10.828   9.561
 3427W        W 7627   7.114   5.008   0.090
 3428W        W 7628  10.821   8.998   0.968
 3429W        W 7629   9.592   1.483   2.616
 3430W        W 7630   4.240   9.953   2.824
 3431W        W 7631   0.678   0.929   2.696
 3432W        W 7632   6.741  10.609   3.197
 3433W        W 7633  10.944  10.915   0.339
 3434W        W 7634  10.938   8.086   2.726
 3435W        W 7635   5.835   6.682  10.910
 3436W        W 7636   8.953   4.406  11.392
 3437W        W 7637   2.203   8.378   9.507
 3438W        W 7638   4.137   3.055   3.212
 3439W        W 7639   2.518   2.168   2.324
 3440W        W 7640   4.156   3.643  10.130
 3441W        W 7641   6.545  10.500  10.176
 3442W        W 7642   3.465   8.752   2.414
 3443W        W 7643   6.634   5.192  11.989
 3444W        W 7644   9.882   2.696   9.607
 3445W        W 7645  10.833   8.944  11.240
 3446W        W 7646   1.337   5.199   0.364
 3447W        W 7647   7.209   6.984   0.936
 3448W        W 7648   2.313   1.059   1.952
 3449W        W 7649   8.670   7.794   0.878
 3450W        W 7650   6.996   3.915  11.764
 3451W        W 7651   7.102   8.556   3.428
 3452W        W 7652   9.804   4.568   1.031
 3453W        W 7653   8.636  11.224   1.281
 3454W        W 7654   1.683   0.835   9.660
 3455W        W 7655   8.032   1.013   3.407
 3456W        W 7656   8.198  10.471  10.818
 3457W        W 7657  10.851   5.727   3.117
 3458W        W 7658   2.043   4.963   3.601
 3459W        W 7659   5.274   7.868  10.283
 3460W        W 7660   1.781   2.709   9.594
 3461W        W 7661   0.103   1.755  10.568
 3462W        W 7662   9.415   2.716   3.007
 3463W        W 7663   3.411   1.234   9.277
 3464W        W 7664   7.124   3.929   1.983
 3465W        W 7665   8.745   5.142   8.956
 3466W        W 7666   0.269   8.285   0.241
 3467W        W 7667   7.693   8.044  11.263
 3468W        W 7668   5.150   6.858   2.484
 3469W        W 7669   2.451   9.471  10.171
 3470W        W 7670   6.693   6.926  10.706
 3471W        W 7671   5.053   4.214   2.372
 3472W        W 7672   0.039   9.644  10.917
 3473W        W 7673   5.879   7.490   3.137
 3474W        W 7674  11.381   8.791   9.065
 3475W        W 7675   7.738   8.557  11.925
 3476W        W 7676   5.158   9.406   1.870
 3477W        W 7677   1.767   9.491   3.067
 3478W        W 7678   3.029   5.256   0.630
 3479W        W 7679   5.969   6.064   0.056
 3480W        W 7680  10.857   4.511   9.506
 3481W        W 7681   9.010   6.710   1.407
 3482W        W 7682   0.779  10.800   1.182
 3483W        W 7683   5.984   0.810  10.328
 3484W        W 7684  11.484   1.279  10.804
 3485W        W 7685   9.560   5.416  10.933
 3486W        W 7686   4.298   9.448   9.462
 3487W        W 7687  10.295   2.783   8.967
 3488W        W 7688   4.021   5.550   2.380
 3489W        W 7689  10.811   8.192  10.145
 3490W        W 7690   4.670   0.823   3.328
 3491W        W 7691   1.381   6.104  11.147
 3492W        W 7692   6.026   6.480  11.778
 3493W        W 7693   9.770   4.087  10.310
 3494W        W 7694   8.333   1.429   0.856
 3495W        W 7695   5.756   5.756   0.989
 3496W        W 7696   3.562   8.311   2.145
 3497W        W 7697   8.542   4.689   3.183
 3498W        W 7698   1.215   8.640   0.430
 3499W        W 7699   8.875  10.457   0.453
 3500W        W 7700   0.820   4.722   2.167
 3501W        W 7701   0.535  10.594  10.905
 3502W        W 7702  10.043   1.695   9.574
 3503W        W 7703   4.312   3.710   9.644
 3504W        W 7704   2.423   3.034   3.279
 3505W        W 7705   3.326   9.560   8.796
 3506W        W 7706   2.385   5.327  10.975
 3507W        W 7707   9.392   7.018   0.672
 3508W        W 7708   7.504   4.595   2.798
 3509W        W 7709  11.091  11.393   8.520
 3510W        W 7710   1.588   8.626   3.155
 3511W        W 7711  10.846   8.362   1.289
 3512W        W 7712   6.786   5.258   1.869
 3513W        W 7713  11.311   5.764   1.921
 3514W        W 7714   8.304  11.197  10.499
 3515W        W 7715   2.791   5.038  10.880
 3516W        W 7716   2.261   6.628  11.294
 3517W        W 7717   1.600   8.534   2.298
 3518W        W 7718   3.038  10.569   0.759
 3519W        W 7719   3.252   5.618   9.057
 3520W        W 7720   1.033  10.721  11.004
 3521W        W 7721   1.814   6.584  11.551
 3522W        W 7722   8.134   8.430   3.214
 3523W        W 7723   4.598   9.030   9.383
 3524W        W 7724  11.350   3.308   9.552
 3525W        W 7725   3.195   4.176  11.987
 3526W        W 7726   9.042   2.275   2.228
 3527W        W 7727   1.303   0.729  11.387
 3528W        W 7728   3.128   4.751   9.511
 3529W        W 7729   5.262   1.401   0.426
 3530W        W 7730   9.329   4.680   2.326
 3531W        W 7731   0.490   0.221   2.847
 3532W        W 7732   0.752   6.404  11.133
 3533W        W 7733   3.789   2.588   2.778
 3534W        W 7734   1.044  10.404   0.897
 3535W        W 7735   6.144   7.675   8.924
 3536W        W 7736   0.726   3.338  11.977
 3537W        W 7737   1.734   9.826   8.850
 3538W        W 7738   4.305   1.858   0.390
 3539W        W 7739   3.317   4.622  10.353
 3540W        W 7740  10.434  10.889   0.096
 3541W        W 7741   6.576   9.299  11.193
 3542W        W 7742   8.171   2.137  11.528
 3543W        W 7743   0.940   3.760  11.234
 3544W        W 7744   4.629   1.511  11.936
 3545W        W 7745   5.247  10.620   9.299
 3546W        W 7746   8.861  10.411   2.275
 3547W        W 7747  11.127   5.182  11.995
 3548W        W 7748   8.076  10.367   2.944
 3549W        W 7749   9.378   5.533   2.465
 3550W        W 7750   1.626   1.861  11.616
 3551W        W 7751   6.442   9.355   8.962
 3552W        W 7752   6.004  10.426  10.352
 3553W        W 7753   7.893   8.916   1.730
 3554W        W 7754  10.961   7.427   1.347
 3555W        W 7755   1.879   8.974   2.343
 3556W        W 7756   4.950   8.305  11.748
 3557W        W 7757  10.170  11.413   0.110
 3558W        W 7758   6.693  11.297   1.837
 3559W        W 7759   4.779   9.885   9.570
 3560W        W 7760   8.576  10.319  11.109
 3561W        W 7761   5.391   7.327   3.284
 3562W        W 7762   6.312   3.873   1.367
 3563W        W 7763   2.721   3.046  11.071
 3564W        W 7764  11.359   5.570   0.907
 3565W        W 7765   7.932   3.216   9.596
 3566W        W 7766   5.247  11.121   3.221
 3567W        W 7767   1.308   0.097   2.319
 3568W        W 7768   1.337   9.154   3.137
 3569W        W 7769   7.144   7.403   2.095
 3570W        W 7770   4.090   6.476  11.767
 3571W        W 7771  10.985   1.868   1.699
 3572W        W 7772   9.233  11.484   3.614
 3573W        W 7773   6.166   2.483   8.645
 3574W        W 7774   6.699   9.925   2.488
 3575W        W 7775   3.630   3.584   8.993
 3576W        W 7776   3.115  10.047   9.993
 3577W        W 7777   8.133   0.212   0.709
 3578W        W 7778  10.012  10.338   8.842
 3579W        W 7779   8.695   2.398   2.577
 3580W        W 7780   0.439   2.273   1.370
 3581W        W 7781   3.654   0.371   9.232
 3582W        W 7782  11.433  11.047   8.703
 3583W        W 7783  11.026   2.339   2.308
 3584W        W 7784   1.845   6.035  10.856
 3585W        W 7785   3.454   8.605   9.843
 3586W        W 7786   2.581   7.097   1.937
 3587W        W 7787   9.944   4.842   0.633
 3588W        W 7788   7.716   8.839   2.210
 3589W        W 7789  11.352  10.574   1.975
 3590W        W 7790   0.931   5.440   1.619
 3591W        W 7791   6.983   1.888   0.654
 3592W        W 7792   1.981   2.296  11.756
 3593W        W 7793   6.541   5.703   1.525
 3594W        W 7794   9.102   3.456  11.199
 3595W        W 7795   3.511   7.504   2.606
 3596W        W 7796   3.603   7.081  10.186
 3597W        W 7797   7.260   6.215  11.025
 3598W        W 7798   3.999   9.330   8.521
 3599W        W 7799   6.151   2.817   0.732
 3600W        W 7800   9.548   9.051  11.765
 3601W        W 7801   2.404   9.156   8.992
 3602W        W 7802   9.190   5.801   3.035
 3603W        W 7803   4.993   6.660  11.243
 3604W        W 7804   4.243   4.725  11.253
 3605W        W 7805   5.337   8.833  11.895
 3606W        W 7806   3.229   7.909   2.223
 3607W        W 7807   8.453   1.806   0.514
 3608W        W 7808  11.376   7.826   3.040
 3609W        W 7809   1.008   8.271  10.818
 3610W        W 7810   1.131   4.269  11.290
 3611W        W 7811   6.084   5.296   9.496
 3612W        W 7812   6.676  10.209   0.807
 3613W        W 7813   6.809   0.297  10.072
 3614W        W 7814   5.621   4.070   9.821
 3615W        W 7815   4.617   1.603   2.944
 3616W        W 7816   8.075   8.138   0.996
 3617W        W 7817   1.893  10.295   0.233
 3618W        W 7818   1.332   2.734   9.332
 3619W        W 7819   6.487   2.620   2.333
 3620W        W 7820   4.096   7.566   9.651
 3621W        W 7821   2.296   5.565  10.432
 3622W        W 7822   9.531   8.254  10.727
 3623W        W 7823   1.884   6.989   9.272
 3624W        W 7824   9.960   0.873   0.592
 3625W        W 7825   6.184   8.525   2.216
 3626W        W 7826  11.294   1.098   0.556
 3627W        W 7827   7.486   7.676   0.224
 3628W        W 7828  11.069   6.171   0.865
 3629W        W 7829   2.139   9.027   0.508
 3630W        W 7830   8.386   6.883   2.327
 3631W        W 7831   3.241   4.695   2.090
 3632W        W 7832  10.953   1.408   1.438
 3633W        W 7833   4.678   1.916   0.924
 3634W        W 7834   5.642   0.637   1.786
 3635W        W 7835   3.203   7.570   3.033
 3636W        W 7836   1.058   7.640  11.335
 3637W        W 7837  10.012   9.948   3.242
 3638W        W 7838   5.760   2.208   2.349
 3639W        W 7839   9.039  10.818   1.537
 3640W        W 7840   6.529   8.172   2.909
 3641W        W 7841   1.832  10.410  10.738
 3642W        W 7842   9.937   8.755   0.080
 3643W        W 7843   1.746   4.254   9.933
 3644W        W 7844   4.251   8.509   0.941
 3645W        W 7845   9.845   5.689  11.283
 3646W        W 7846   0.169   1.706   0.059
 3647W        W 7847   3.656  10.467   9.479
 3648W        W 7848   8.519  10.848   0.442
 3649W        W 7849   5.018   3.878   9.222
 3650W        W 7850   8.056   0.042   2.453
 3651W        W 7851   5.451   7.450   0.348
 3652W        W 7852  10.438   0.832  10.950
 3653W        W 7853   8.232   1.904   0.068
 3654W        W 7854   0.690   0.055  11.062
 3655W        W 7855   8.116  10.310   3.456
 3656W        W 7856   8.564   6.600   3.126
 3657W        W 7857  10.981   8.569  10.906
 3658W        W 7858   1.347   0.282   2.810
 3659W        W 7859   5.033   5.247  10.445
 3660W        W 7860   8.546   4.632  11.092
 3661W        W 7861   2.307   5.211   2.680
 3662W        W 7862   9.336   2.347   9.122
 3663W        W 7863   4.055   1.222   9.049
 3664W        W 7864   2.605   6.562   2.280
 3665W        W 7865   7.292   7.943  10.959
 3666W        W 7866   5.093   3.873   2.727
 3667W        W 7867   4.478   9.894   1.876
 3668W        W 7868   8.346  11.446   9.244
 3669W        W 7869   8.457   0.312   8.913
 3670W        W 7870   0.938   2.284   1.419
 3671W        W 7871   2.859  10.515   9.924
 3672W        W 7872   5.107   3.247   0.461
 3673W        W 7873   9.639   3.488   9.415
 3674W        W 7874  10.066   7.179   2.819
 3675W        W 7875  10.598   2.670  11.844
 3676W        W 7876   5.057   3.053   3.195
 3677W        W 7877   6.335   6.585  10.850
 3678W        W 7878   0.349  10.818   0.880
 3679W        W 7879  11.405   3.063   0.071
 3680W        W 7880   1.252   0.354   9.114
 3681W        W 7881  11.217   2.342   1.837
 3682W        W 7882   3.781   5.234   2.054
 3683W        W 7883   2.375   3.116   1.758
 3684W        W 7884   4.292   9.256  10.961
 3685W        W 7885   6.011   5.309  10.881
 3686W        W 7886   5.710   1.359   3.538
 3687W        W 7887   3.319   8.659  10.854
 3688W        W 7888   8.727   5.142   1.948
 3689W        W 7889   6.284   3.984  10.614
 3690W        W 7890   2.329  10.362   1.334
 3691W        W 7891   4.909   4.097   3.128
 3692W        W 7892   8.149  10.745   0.072
 3693W        W 7893   7.294   2.125  10.897
 3694W        W 7894   2.836  11.021   9.944
 3695W        W 7895   6.501   5.674   2.022
 3696W        W 7896   7.078   7.544  11.331
 3697W        W 7897   4.357   5.964   1.533
 3698W        W 7898   9.713   0.074   3.318
 3699W        W 7899   4.189   9.030   1.748
 3700W        W 7900   9.493   4.530   2.803
 3701W        W 7901   3.392   2.283  10.994
 3702W        W 7902   6.134   5.639   9.898
 3703W        W 7903   2.392   7.980  11.518
 3704W        W 7904   2.260   5.670  11.959
 3705W        W 7905   0.374   6.579   9.196
 3706W        W 7906   9.973   1.039  11.009
 3707W        W 7907   0.441  11.366   1.765
 3708W        W 7908  11.376   2.660  10.351
 3709W        W 7909   7.957   6.648   3.709
 3710W        W 7910   2.680   6.663  10.827
 3711W        W 7911   3.193   5.905   2.021
 3712W        W 7912   5.746   6.694   1.617
 3713W        W 7913  11.383   9.073   2.897
 3714W        W 7914   1.122   2.960  11.763
 3715W        W 7915  11.051   7.960   9.349
 3716W        W 7916   5.651   9.424   1.717
 3717W        W 7917   3.838   2.453  11.226
 3718W        W 7918   9.578   5.219   0.740
 3719W        W 7919   8.526   7.426   1.386
 3720W        W 7920   9.529   3.274  11.557
 3721W        W 7921   2.298   3.585  10.532
 3722W        W 7922   9.635   9.662   3.461
 3723W        W 7923   8.594  11.302  10.924
 3724W        W 7924   7.107   2.651  10.318
 3725W        W 7925   3.160   6.172   2.890
 3726W        W 7926   1.122   0.907   0.436
 3727W        W 7927   8.542   5.660   1.844
 3728W        W 7928  10.071   6.138   2.605
 3729W        W 7929   4.162   7.739  10.987
 3730W        W 7930  10.430   0.007   0.925
 3731W        W 7931   0.138   2.642   8.511
 3732W        W 7932   6.119   2.777  11.308
 3733W        W 7933   4.255   0.059   0.452
 3734W        W 7934   6.304   6.939   1.311
 3735W        W 7935   6.075   4.821   1.780
 3736W        W 7936   7.776   5.572   1.108
 3737W        W 7937   7.307   9.384   0.988
 3738W        W 7938   5.160   9.199   0.695
 3739W        W 7939   1.894  10.040   1.832
 3740W        W 7940   5.282   4.657  10.281
 3741W        W 7941   4.301   3.798   0.236
 3742W        W 7942   3.085   2.556   9.485
 3743W        W 7943   6.892   4.709   9.872
 3744W        W 7944   5.091   9.691   0.699
 3745W        W 7945   5.167   0.882   3.011
 3746W        W 7946   9.379   3.561   2.900
 3747W        W 7947   0.266   6.329  10.667
 3748W        W 7948   0.806  11.264   1.438
 3749W        W 7949   3.272   4.249  11.055
 3750W        W 7950   4.043   0.301  10.164
 3751W        W 7951   0.454   5.751   1.563
 3752W        W 7952  10.827   3.225   0.012
 3753W        W 7953   8.154   8.189   2.766
 3754W        W 7954   6.222   8.299  11.820
 3755W        W 7955   9.097   6.509   9.379
 3756W        W 7956   2.155   3.880   2.631
 3757W        W 7957   3.538  10.867   1.236
 3758W        W 7958   9.643   1.913   9.812
 3759W        W 7959   8.297   4.321   2.438
 3760W        W 7960   9.480  10.790   1.854
 3761W        W 7961   9.540   8.532  11.781
 3762W        W 7962   3.310   1.943   0.297
 3763W        W 7963   3.863   9.081   2.528
 3764W        W 7964   9.258   1.372   3.069
 3765W        W 7965   6.109   0.317  10.249
 3766W        W 7966   7.628   4.601  10.967
 3767W        W 7967  10.850  11.066   0.835
 3768W        W 7968   6.054   8.113   0.713
 3769W        W 7969   6.675   4.666  11.233
 3770W        W 7970   2.225   4.269  10.100
 3771W        W 7971   8.516   3.633   9.981
 3772W        W 7972   0.750   9.789   1.167
 3773W        W 7973   3.026   0.439   2.356
 3774W        W 7974   8.434   3.612  10.543
 3775W        W 7975   2.924   5.147   2.060
 3776W        W 7976   6.080   4.100   9.136
 3777W        W 7977   9.257   5.367   3.416
 3778W        W 7978   2.561   5.690   3.101
 3779W        W 7979   6.895  10.674   8.617
 3780W        W 7980   4.156   5.641  10.262
 3781W        W 7981   6.683   3.131   2.327
 3782W        W 7982   0.814  11.236   9.504
 3783W        W 7983   0.376   7.621   8.847
 3784W        W 7984   8.015   1.911   2.424
 3785W        W 7985   9.804   7.893   0.471
 3786W        W 7986   9.805   5.954   9.408
 3787W        W 7987   3.361   3.336  11.567
 3788W        W 7988   5.603   0.886   2.724
 3789W        W 7989  10.967   9.985   3.105
 3790W        W 7990   2.172   8.204   8.719
 3791W        W 7991   8.597  10.097   9.383
 3792W        W 7992   1.814   5.980   9.106
 3793W        W 7993  11.277   7.499   2.118
 3794W        W 7994  10.090   5.354   1.512
 3795W        W 7995   7.950   8.176   9.702
 3796W        W 7996   8.006   1.935   8.891
 3797W        W 7997   9.827   0.928   2.539
 3798W        W 7998   5.699   9.893   0.434
 3799W        W 7999  10.798   2.731  11.288
 3800W        W 8000   9.774   1.535  11.791
 3801W        W 8001   9.006   2.974  11.095
 3802W        W 8002   3.384   5.677   0.574
 3803W        W 8003   0.684   1.197   9.073
 3804W        W 8004   2.567   2.227  10.440
 3805W        W 8005   1.837   3.592   1.312
 3806W        W 8006   3.643   7.872   9.579
 3807W        W 8007   7.899   7.403  10.822
 3808W        W 8008   5.249   3.507  10.531
 3809W        W 8009   4.679  10.024  10.535
 3810W        W 8010   7.966   3.814   9.082
 3811W        W 8011   3.609   8.606   1.212
 3812W        W 8012   6.689   7.403   2.295
 3813W        W 8013   7.583   7.550  11.211
 3814W        W 8014   3.134  10.464  10.339
 3815W        W 8015   0.618   2.796   1.236
 3816W        W 8016   9.800   2.372  10.423
 3817W        W 8017   8.491   9.377  11.136
 3818W        W 8018   8.511  10.575   9.514
 3819W        W 8019   4.454  11.356  10.122
 3820W        W 8020  11.212   9.149  11.530
 3821W        W 8021   1.604   9.363   3.516
 3822W        W 8022   8.108   5.472   8.254
 3823W        W 8023   2.010   8.867   9.544
 3824W        W 8024   8.752   5.307   3.365
 3825W        W 8025   8.436   8.181   1.789
 3826W        W 8026  10.946   1.231   9.665
 3827W        W 8027   9.100   8.106   2.446
 3828W        W 8028   3.985  10.015   1.734
 3829W        W 8029   8.180   5.508   9.497
 3830W        W 8030  10.699   2.282   1.890
 3831W        W 8031   7.389   4.470   1.222
 3832W        W 8032   9.445   6.965  10.815
 3833W        W 8033   0.455   6.872   2.566
 3834W        W 8034  10.374   6.555   0.483
 3835W        W 8035   1.777   4.109  11.829
 3836W        W 8036   4.669   4.097  10.903
 3837W        W 8037   0.546   4.976   3.662
 3838W        W 8038   1.821  10.256   1.376
 3839W        W 8039   7.224  11.421   0.352
 3840W        W 8040   6.302   6.996  10.062
 3841W        W 8041  10.000   9.756   8.769
 3842W        W 8042   2.503  10.551   1.780
 3843W        W 8043   8.929   2.962   0.157
 3844W        W 8044   9.402   0.387   9.349
 3845W        W 8045  10.279   1.298   1.981
 3846W        W 8046   0.804   3.476  10.832
 3847W        W 8047   6.940   1.507   2.596
 3848W        W 8048   8.430  10.515  11.569
 3849W        W 8049  11.000  10.332  10.861
 3850W        W 8050   9.502   1.928  11.970
 3851W        W 8051   3.502   3.343   2.341
 3852W        W 8052   9.994   0.401   0.363
 3853W        W 8053   3.780   8.982   0.002
 3854W        W 8054   8.994  10.355   1.359
 3855W        W 8055   3.783   0.240   0.298
 3856W        W 8056   2.312   1.412  10.035
 3857W        W 8057   9.418   3.627  10.322
 3858W        W 8058   7.003   9.471   9.574
 3859W        W 8059   8.619   5.122   4.103
 3860W        W 8060  10.151   0.805   1.488
 3861W        W 8061   1.421   1.438   2.688
 3862W        W 8062   0.808   9.387   1.481
 3863W        W 8063   7.280  10.959   0.691
 3864W        W 8064   6.458   2.386   2.797
 3865W        W 8065   9.562   1.808   3.005
 3866W        W 8066   4.972   3.390   1.933
 3867W        W 8067   2.489   1.385  11.659
 3868W        W 8068   7.198   3.474   2.203
 3869W        W 8069   8.498  10.960   9.172
 3870W        W 8070  10.424  10.960  10.597
 3871W        W 8071   9.810   3.567   1.821
 3872W        W 8072  11.430   6.675   8.930
 3873W        W 8073   0.241   9.563   3.647
 3874W        W 8074   3.537   5.405   1.376
 3875W        W 8075   6.009   1.870   9.338
 3876W        W 8076   4.724   4.297   0.914
 3877W        W 8077   6.051   1.737   0.520
 3878W        W 8078   3.137   3.442   9.137
 3879W        W 8079   6.047   7.428  10.794
 3880W        W 8080   4.507   8.883  10.584
 3881W        W 8081  10.938   9.438   0.497
 3882W        W 8082   5.139   4.665   0.701
 3883W        W 8083   4.486   8.708   9.004
 3884W        W 8084   5.779   1.867   3.152
 3885W        W 8085  10.334  10.147  11.448
 3886W        W 8086   5.732   4.375   9.421
 3887W        W 8087   9.517   7.389   9.012
 3888W        W 8088   4.771   0.693  10.759
 3889W        W 8089   4.266   4.223   9.542
 3890W        W 8090   7.212   1.829   2.949
 3891W        W 8091   1.334  10.438  11.508
 3892W        W 8092   4.471   1.261   1.277
 3893W        W 8093   4.798   3.611   9.591
 3894W        W 8094   3.380   7.130   3.266
 3895W        W 8095   9.032  10.734  11.732
 3896W        W 8096  11.222   5.777  11.343
 3897W        W 8097   4.810  10.652   0.870
 3898W        W 8098  11.317   0.170   0.204
 3899W        W 8099   4.156   9.854   9.751
 3900W        W 8100   3.592   8.072   2.609
 3901W        W 8101   3.128   9.902  11.997
 3902W        W 8102   2.710   9.077   9.940
 3903W        W 8103   9.447   9.288  10.756
 3904W        W 8104   5.536   4.697   0.160
 3905W        W 8105   8.490   0.519  11.956
 3906W        W 8106  10.893  11.249  11.374
 3907W        W 8107   8.856   5.858  11.460
 3908W        W 8108   9.544   3.634  10.842
 3909W        W 8109   6.353   5.181   2.721
 3910W        W 8110   5.237  10.130   9.462
 3911W        W 8111   0.465   3.311   0.875
 3912W        W 8112  11.401   1.336   3.112
 3913W        W 8113   8.338   1.241  10.557
 3914W        W 8114   4.910  10.851  11.776
 3915W        W 8115   1.754   0.180   9.159
 3916W        W 8116   4.637   8.419  10.745
 3917W        W 8117   5.598  11.283  10.782
 3918W        W 8118   8.568   1.758   2.574
 3919W        W 8119   6.354   7.299   0.950
 3920W        W 8120   0.238   9.027   8.775
 3921W        W 8121  10.511   2.273   2.366
 3922W        W 8122   4.216   9.475   2.002
 3923W        W 8123  10.378   8.490   2.666
 3924W        W 8124  11.328   3.840   9.960
 3925W        W 8125   7.154   0.323  11.577
 3926W        W 8126   2.281   5.763   1.972
 3927W        W 8127   0.440   3.660   1.933
 3928W        W 8128   8.043   2.230   1.243
 3929W        W 8129   7.236   7.830   9.960
 3930W        W 8130   2.742   7.982   2.334
 3931W        W 8131   7.414   5.239   2.272
 3932W        W 8132   8.416   6.422   3.576
 3933W        W 8133   7.654   5.084   2.709
 3934W        W 8134   9.660  10.261   2.042
 3935W        W 8135   6.072   7.781   1.835
 3936W        W 8136  10.440  11.472  10.758
 3937W        W 8137   5.666   1.714  11.184
 3938W        W 8138   7.204   5.192   1.556
 3939W        W 8139   8.568   1.836  11.717
 3940W        W 8140   3.270   2.706   1.840
 3941W        W 8141   0.512   4.335  10.344
 3942W        W 8142   1.235  11.039   1.590
 3943W        W 8143   3.891   4.100   0.362
 3944W        W 8144   9.467   4.789   8.344
 3945W        W 8145   9.045   4.761  11.052
 3946W        W 8146   7.658   1.033   2.492
 3947W        W 8147   4.574  10.815   8.552
 3948W        W 8148   7.195   8.423   0.890
 3949W        W 8149   7.588   8.363   3.236
 3950W        W 8150   5.417   7.802   3.091
 3951W        W 8151   6.284  11.335  11.402
 3952W        W 8152   3.776   2.795   1.677
 3953W        W 8153   7.522   3.098  11.832
 3954W        W 8154   3.259   1.809   1.411
 3955W        W 8155   7.936   3.174   1.632
 3956W        W 8156   1.973   9.424  10.356
 3957W        W 8157   1.052   5.571  10.989
 3958W        W 8158   9.307   2.886   2.085
 3959W        W 8159   2.708   7.554   3.186
 3960W        W 8160   8.458   4.300   0.018
 3961W        W 8161   7.139   7.357   1.598
 3962W        W 8162   7.150   4.556   3.627
 3963W        W 8163   6.655   3.093   1.810
 3964W        W 8164   4.181   3.843   2.851
 3965W        W 8165   4.278   8.848  10.094
 3966W        W 8166   7.884   4.440  11.706
 3967W        W 8167   2.173   7.424  10.861
 3968W        W 8168   9.518   4.617  11.939
 3969W        W 8169   2.124   6.157   2.889
 3970W        W 8170   1.353   8.627  10.626
 3971W        W 8171   8.319   5.094   9.202
 3972W        W 8172   4.797  10.420   1.338
 3973W        W 8173   6.062   3.207   9.872
 3974W        W 8174   9.060   5.603   1.608
 3975W        W 8175   8.462   7.130   1.878
 3976W        W 8176   9.049   4.698   0.355
 3977W        W 8177   5.862   2.618  10.483
 3978W        W 8178   2.072   5.640   2.955
 3979W        W 8179   1.790   8.794  11.780
 3980W        W 8180  11.431   9.020   0.453
 3981W        W 8181   0.693   7.732   2.976
 3982W        W 8182   5.139   9.958   9.938
 3983W        W 8183   8.640   9.302  10.124
 3984W        W 8184   4.782   0.732   9.009
 3985W        W 8185   7.709   2.188   9.232
 3986W        W 8186   4.851   0.823   0.612
 3987W        W 8187   7.650  11.190  11.066
 3988W        W 8188   2.368   3.822   2.177
 3989W        W 8189   8.089   7.227   1.184
 3990W        W 8190   6.748   4.972   0.577
 3991W        W 8191   6.626  10.888   2.754
 3992W        W 8192   1.311   3.788   2.463
 3993W        W 8193   0.710   5.706   0.666
 3994W        W 8194   4.712   1.717   8.932
 3995W        W 8195   8.962   9.545   2.704
 3996W        W 8196   2.034   0.497  10.529
 3997W        W 8197   6.567   1.259   9.075
 3998W        W 8198   6.147   6.938  11.996
 3999W        W 8199   8.929   7.745   0.423
 4000W        W 8200   5.277   8.034   0.045
 4001W        W 8201   2.198   0.900   1.198
 4002W        W 8202   9.469   4.605   3.343
 4003W        W 8203  10.406   0.556   9.703
 4004W        W 8204   7.467   9.229   2.418
 4005W        W 8205  11.275   1.771   1.253
 4006W        W 8206   7.608   8.466  10.988
 4007W        W 8207   1.938  10.797   2.282
 4008W        W 8208   4.368   9.546   3.122
 4009W        W 8209   4.243   2.851   2.755
 4010W        W 8210   9.622   5.990   2.356
 4011W        W 8211   7.964   3.753   9.949
 4012W        W 8212   3.337   5.419   1.897
 4013W        W 8213   4.633   4.374   2.139
 4014W        W 8214   5.923   4.043   3.064
 4015W        W 8215   7.155  10.933   2.785
 4016W        W 8216   9.319   4.611   1.345
 4017W        W 8217   2.645   7.609  10.713
 4018W        W 8218  10.722   2.173  10.642
 4019W        W 8219   1.311   2.276   0.463
 4020W        W 8220   6.059   6.438   0.953
 4021W        W 8221   3.348   1.383   3.311
 4022W        W 8222   6.579   7.027   3.968
 4023W        W 8223   5.729   8.215  10.342
 4024W        W 8224   1.347   5.163   3.337
 4025W        W 8225   2.893   9.268   8.746
 4026W        W 8226   8.231   5.651   3.314
 4027W        W 8227   0.387   2.891   3.355
 4028W        W 8228   2.923   0.805   1.694
 4029W        W 8229   5.700  10.838   8.575
 4030W        W 8230   5.937   1.294  11.291
 4031W        W 8231   6.431   6.140   1.772
 4032W        W 8232   1.272   0.797   8.836
 4033W        W 8233   9.523   4.153   0.853
 4034W        W 8234   3.872   6.888   2.405
 4035W        W 8235   4.332   8.536   9.488
 4036W        W 8236   4.613   8.032   0.496
 4037W        W 8237   3.001   5.111   0.048
 4038W        W 8238   9.379   1.375   9.093
 4039W        W 8239   6.893  10.587   0.500
 4040W        W 8240   5.689   1.150   1.672
 4041W        W 8241  11.317   6.647   1.787
 4042W        W 8242   4.046  10.568   3.570
 4043W        W 8243   3.750   0.286  11.797
 4044W        W 8244   4.031   8.514   0.035
 4045W        W 8245   2.482   0.565   9.644
 4046W        W 8246   2.748  11.378   9.035
 4047W        W 8247   1.785   3.612  11.199
 4048W        W 8248   3.651   6.382   8.612
 4049W        W 8249   1.208   1.863   1.522
 4050W        W 8250  11.300   7.505  10.066
 4051W        W 8251   6.744   7.877   8.270
 4052W        W 8252   0.420  11.267  10.726
 4053W        W 8253   8.773   7.597  11.952
 4054W        W 8254   5.537   3.028  10.685
 4055W        W 8255   6.646   1.887  10.855
 4056W        W 8256  11.273   5.137   9.227
 4057W        W 8257   8.100   9.311  11.933
 4058W        W 8258   7.443   0.531   9.483
 4059W        W 8259   3.242   4.629   0.924
 4060W        W 8260   7.688   9.996   9.525
 4061W        W 8261   4.026   8.473   9.077
 4062W        W 8262   1.768  11.168   0.494
 4063W        W 8263   9.444  11.060   8.720
 4064W        W 8264   0.545   6.187   1.881
 4065W        W 8265   5.037   3.829   1.690
 4066W        W 8266   5.547   5.201  11.854
 4067W        W 8267   2.157   8.418  11.747
 4068W        W 8268   2.185   3.553   8.622
 4069W        W 8269  10.796   5.514  10.435
 4070W        W 8270   3.986   0.933   9.516
 4071W        W 8271   7.621   3.761   1.656
 4072W        W 8272   4.741   9.123  10.197
 4073W        W 8273  10.811   3.902   0.064
 4074W        W 8274   7.953  11.189  11.884
 4075W        W 8275   5.637   0.224  10.488
 4076W        W 8276   3.058   5.140   9.181
 4077W        W 8277   6.763  10.631   0.011
 4078W        W 8278   2.228   9.898  11.879
 4079W        W 8279   4.002   3.165   2.367
 4080W        W 8280   3.237   6.367   3.978
 4081W        W 8281   7.511   0.092   2.641
 4082W        W 8282   3.095  10.012  10.545
 4083W        W 8283   2.980  10.607   1.960
 4084W        W 8284   6.796   2.020   8.390
 4085W        W 8285   8.467   7.502  11.514
 4086W        W 8286   9.557   4.587   8.805
 4087W        W 8287   6.315   8.034  11.381
 4088W        W 8288   1.034   6.274   1.938
 4089W        W 8289  11.006   1.796  11.422
 4090W        W 8290   2.652   7.477   9.411
 4091W        W 8291   8.316   7.779  11.969
 4092W        W 8292   9.528   4.909   0.343
 4093W        W 8293   0.040   2.895  10.788
 4094W        W 8294   6.715  10.288  10.591
 4095W        W 8295   3.754   3.856   8.575
 4096W        W 8296   5.776   8.842   9.481
 4097W        W 8297   3.524   5.345   3.232
 4098W        W 8298   6.629   6.820  11.204
 4099W        W 8299   0.555   9.472   0.784
 4100W        W 8300   3.652   1.738   3.086
 4101W        W 8301   0.553   3.837   0.003
 4102W        W 8302   9.769   1.937  10.853
 4103W        W 8303   5.690   2.166   0.088
 4104W        W 8304   6.478   6.625   2.785
 4105W        W 8305   2.318   4.811  11.865
 4106W        W 8306   0.770   8.541   1.754
 4107W        W 8307  11.091  10.583  11.811
 4108W        W 8308   5.005   4.729   9.844
 4109W        W 8309   2.996   0.785   8.553
 4110W        W 8310   4.473   4.837   9.829
 4111W        W 8311   0.547   7.455   3.724
 4112W        W 8312  10.897   9.511   0.989
 4113W        W 8313   9.818   9.519  11.019
 4114W        W 8314   3.960  11.495   3.259
 4115W        W 8315   9.625   5.959  10.482
 4116W        W 8316   1.953   0.817   1.680
 4117W        W 8317  11.240   2.771   2.459
 4118W        W 8318   3.182   6.663   3.111
 4119W        W 8319   9.938   7.660  10.130
 4120W        W 8320   6.823  11.183   8.589
 4121W        W 8321   2.197   1.379   0.998
 4122W        W 8322   5.288   0.960   1.365
 4123W        W 8323   0.362  10.588   1.409
 4124W        W 8324   8.475   6.165   8.703
 4125W        W 8325  10.836  10.312   8.977
 4126W        W 8326   1.755   8.497   9.252
 4127W        W 8327  10.859   7.868   0.472
 4128W        W 8328   0.053   6.223   1.958
 4129W        W 8329  11.436   7.637   9.597
 4130W        W 8330  10.002   8.498  11.225
 4131W        W 8331  11.353   4.101  11.247
 4132W        W 8332  11.466  10.059   2.850
 4133W        W 8333   6.038   3.771  10.991
 4134W        W 8334   9.813   4.095  10.898
 4135W        W 8335  11.023   6.829  10.625
 4136W        W 8336   2.438  10.515   9.138
 4137W        W 8337   4.328   4.307   0.150
 4138W        W 8338   2.782   0.746  10.999
 4139W        W 8339   6.556   1.235   2.871
 4140W        W 8340   9.426   4.037   8.549
 4141W        W 8341   6.742   2.707   3.140
 4142W        W 8342   6.591  11.047   9.847
 4143W        W 8343   8.811  11.001   0.837
 4144W        W 8344   0.155   2.646  11.541
 4145W        W 8345   6.814   0.826   0.259
 4146W        W 8346   0.312   4.353  11.265
 4147W        W 8347   1.073   4.958   1.800
 4148W        W 8348   6.707  10.344  11.601
 4149W        W 8349   4.023   4.607   0.403
 4150W        W 8350   0.970   3.368   8.892
 4151W        W 8351   0.838  10.831   0.672
 4152W        W 8352   8.199   6.655   1.855
 4153W        W 8353   1.736   9.876   1.043
 4154W        W 8354   7.733   9.617   0.787
 4155W        W 8355  10.088   1.742   0.629
 4156W        W 8356   7.599   4.004   1.158
 4157W        W 8357   9.527   6.213   0.029
 4158W        W 8358   2.829  10.846   9.121
 4159W        W 8359   1.649   4.325  11.312
 4160W        W 8360   7.044   3.228   3.285
 4161W        W 8361   3.670   6.112   2.880
 4162W        W 8362   9.386  11.194   3.217
 4163W        W 8363  10.701   7.110   9.500
 4164W        W 8364   8.156  10.974  10.917
 4165W        W 8365   5.656   7.725   3.547
 4166W        W 8366   2.970   6.518   3.559
 4167W        W 8367  10.514   6.155   0.170
 4168W        W 8368   2.678   3.446   2.004
 4169W        W 8369   6.585   1.870  11.389
 4170W        W 8370  11.273   8.934  10.610
 4171W        W 8371   8.773   6.956   9.070
 4172W        W 8372  10.676  10.329   2.170
 4173W        W 8373  10.086   9.031   3.231
 4174W        W 8374   2.784   6.132  10.846
 4175W        W 8375   9.826   1.048  11.641
 4176W        W 8376   9.652  10.597   8.512
 4177W        W 8377   9.161  10.373   0.875
 4178W        W 8378  10.443   2.167   1.446
 4179W        W 8379   3.494   1.508  11.227
 4180W        W 8380   5.630   1.361   2.488
 4181W        W 8381   3.947   0.721   2.496
 4182W        W 8382  10.803   4.193   8.579
 4183W        W 8383   7.646  10.698  11.907
 4184W        W 8384   7.731   9.030   0.105
 4185W        W 8385  10.674  10.175   8.521
 4186W        W 8386   6.060   4.295  10.961
 4187W        W 8387   9.000   2.781   3.326
 4188W        W 8388   9.897   8.568   2.458
 4189W        W 8389   3.141   3.708  10.850
 4190W        W 8390   2.365   4.660   8.295
 4191W        W 8391   1.895   7.048  11.150
 4192W        W 8392   2.051   1.272   2.326
 4193W        W 8393   2.763   0.461  11.409
 4194W        W 8394   9.926  11.088   1.826
 4195W        W 8395   1.808  10.249  10.223
 4196W        W 8396   9.604   8.577   1.476
 4197W        W 8397  10.720  10.322  10.000
 4198W        W 8398   9.487   6.977   3.289
 4199W        W 8399   5.540   5.258  10.460
 4200W        W 8400   5.713   7.694   8.396
 4201W        W 8401  11.405   6.765  11.417
 4202W        W 8402   9.729   8.303   0.192
 4203W        W 8403   3.763  11.491  11.363
 4204W        W 8404  10.306   8.171  10.589
 4205W        W 8405  10.802   0.953   0.772
 4206W        W 8406   0.801   7.431  10.455
 4207W        W 8407   8.179   6.540   8.458
 4208W        W 8408  10.866   5.175   0.832
 4209W        W 8409   7.620   2.558  10.973
 4210W        W 8410   4.639   7.510  10.824
 4211W        W 8411  10.374   6.437  10.505
 4212W        W 8412   6.066   0.371  10.762
 4213W        W 8413   3.943  11.237   2.685
 4214W        W 8414   2.823   4.545   2.498
 4215W        W 8415   5.000  11.191   8.865
 4216W        W 8416   1.694  11.237   1.429
 4217W        W 8417   2.919   6.025   2.452
 4218W        W 8418   9.883   1.658   2.035
 4219W        W 8419   4.708   1.239   9.127
 4220W        W 8420   4.222   2.760   0.956
 4221W        W 8421   6.602   0.286   2.505
 4222W        W 8422   7.440   0.708   8.720
 4223W        W 8423   7.935   8.189   3.605
 4224W        W 8424   9.483   0.054   2.421
 4225W        W 8425   6.728   5.672   1.029
 4226W        W 8426   9.622   3.438   0.380
 4227W        W 8427  10.835   2.641   2.766
 4228W        W 8428   2.836   9.770   2.148
 4229W        W 8429   8.022   9.403  11.400
 4230W        W 8430   8.336   9.860   3.212
 4231W        W 8431  10.002   3.088   9.278
 4232W        W 8432   4.931  11.471   1.997
 4233W        W 8433  -0.000   8.071   0.856
 4234W        W 8434   8.805   6.895   0.969
 4235W        W 8435   3.679   4.464   3.530
 4236W        W 8436  10.293   2.232   9.042
 4237W        W 8437   2.849   7.795  11.169
 4238W        W 8438   3.697   8.439  10.292
 4239W        W 8439   9.122   4.157   1.215
 4240W        W 8440   1.704   5.711   1.641
 4241W        W 8441   8.262   8.388   9.341
 4242W        W 8442  10.902   1.850   0.295
 4243W        W 8443   9.524   7.881   9.897
 4244W        W 8444   7.805   6.105   1.512
 4245W        W 8445   9.715   7.194   1.445
 4246W        W 8446   1.226   4.951   0.944
 4247W        W 8447  10.807   4.993   9.034
 4248W        W 8448   5.049   6.977   2.004
 4249W        W 8449   4.050  10.909   1.378
 4250W        W 8450   4.274   9.629  10.589
 4251W        W 8451  11.149   4.248  10.814
 4252W        W 8452   9.108   0.930   0.443
 4253W        W 8453   0.965   3.115  10.460
 4254W        W 8454   6.828   6.205  11.378
 4255W        W 8455   4.294   1.101   2.549
 4256W        W 8456   8.073   1.163  11.637
 4257W        W 8457   8.360   6.100  11.467
 4258W        W 8458   0.931  10.433   0.366
 4259W        W 8459   0.352   4.683   8.500
 4260W        W 8460   3.886   8.840   8.729
 4261W        W 8461   5.343   9.860   1.657
 4262W        W 8462   0.811   8.159   0.967
 4263W        W 8463   3.462   1.324   2.025
 4264W        W 8464   9.126   1.445   0.478
 4265W        W 8465   8.435   4.309   1.955
 4266W        W 8466  10.273   9.568   9.210
 4267W        W 8467   0.994   8.488   9.789
 4268W        W 8468   7.256   2.325   2.861
 4269W        W 8469   9.467   4.419   0.428
 4270W        W 8470  10.420   6.679  11.481
 4271W        W 8471   2.918   8.977   3.273
 4272W        W 8472   6.031   4.777   2.648
 4273W        W 8473   5.332   3.108   9.377
 4274W        W 8474   0.781   0.140   9.132
 4275W        W 8475   7.223   1.927  10.406
 4276W        W 8476   1.437   7.123   9.049
 4277W        W 8477   4.209   7.428  11.415
 4278W        W 8478  10.963   5.715   2.301
 4279W        W 8479   9.188   9.794   0.096
 4280W        W 8480   8.001   4.062   0.075
 4281W        W 8481  11.049   8.049   1.660
 4282W        W 8482  11.001   5.219   3.012
 4283W        W 8483   1.351   6.618  11.864
 4284W        W 8484   7.950   4.335   9.077
 4285W        W 8485   0.248   8.522   2.460
 4286W        W 8486   0.301   1.839  11.094
 4287W        W 8487   8.948   0.825   0.915
 4288W        W 8488   6.286   2.148   2.281
 4289W        W 8489  10.203   1.064   2.866
 4290W        W 8490   0.020   3.800   9.503
 4291W        W 8491   7.980   7.753   3.868
 4292W        W 8492   9.531   9.107   2.227
 4293W        W 8493  11.251   7.002   2.182
 4294W        W 8494   7.095  10.339   1.921
 4295W        W 8495   7.108  10.129   0.555
 4296W        W 8496   0.930   7.989   1.990
 4297W        W 8497   4.257   8.448   8.621
 4298W        W 8498  10.066   9.027   2.703
 4299W        W 8499   2.420   9.003   3.302
 4300W        W 8500   0.471   0.273   3.612
 4301W        W 8501   8.264   3.244   3.548
 4302W        W 8502   4.093   7.179   1.016
 4303W        W 8503   4.768   6.081   3.524
 4304W        W 8504  10.791   8.492   3.046
 4305W        W 8505   8.177   9.516  10.012
 4306W        W 8506   3.126   6.518   2.187
 4307W        W 8507   0.296   6.500   0.022
 4308W        W 8508   1.689   1.418   0.923
 4309W        W 8509   2.774   8.450   0.987
 4310W        W 8510   7.669   5.128  10.260
 4311W        W 8511   8.133   7.709   2.639
 4312W        W 8512   4.638   0.291  11.474
 4313W        W 8513   6.539   6.234  11.933
 4314W        W 8514   7.040   1.193  10.537
 4315W        W 8515  10.931   1.143   2.698
 4316W        W 8516   0.612   4.651   9.444
 4317W        W 8517   9.469  10.936  11.546
 4318W        W 8518   9.370   9.860   1.848
 4319W        W 8519   9.049   3.651   9.884
 4320W        W 8520   9.962   4.768   2.791
 4321W        W 8521   3.817   5.957   9.527
 4322W        W 8522   8.956   8.996   8.896
 4323W        W 8523   6.816   2.184   3.077
 4324W        W 8524   7.700   6.199   0.476
 4325W        W 8525   4.560   3.432  11.930
 4326W        W 8526   6.477   3.178   3.195
 4327W        W 8527   4.508   2.023   3.549
 4328W        W 8528   7.509   1.908   1.404
 4329W        W 8529   9.829   3.576   2.637
 4330W        W 8530  11.137   9.437   1.936
 4331W        W 8531   9.145   8.565   9.874
 4332W        W 8532   4.520  10.274   0.211
 4333W        W 8533   2.784   4.253   7.767
 4334W        W 8534   2.711  10.622  11.672
 4335W        W 8535  10.451   5.919  10.692
 4336W        W 8536   6.050   3.708   3.598
 4337W        W 8537   6.217   3.649   9.419
 4338W        W 8538   1.173   7.044  10.512
 4339W        W 8539   6.161   0.925  11.563
 4340W        W 8540   7.191  10.509  11.735
 4341W        W 8541   4.673   2.475   1.106
 4342W        W 8542   3.162  11.286  11.111
 4343W        W 8543  10.225   4.217   8.537
 4344W        W 8544   8.418  10.026  11.798
 4345W        W 8545   9.172   3.137  10.233
 4346W        W 8546   6.481   9.801   3.380
 4347W        W 8547   6.334  10.303   3.403
 4348W        W 8548   1.239   5.336   2.876
 4349W        W 8549   9.349   4.735  11.472
 4350W        W 8550   1.750   2.555   0.470
 4351W        W 8551   8.921   4.289  10.875
 4352W        W 8552   2.755   0.366   1.906
 4353W        W 8553   0.662   8.685   2.230
 4354W        W 8554   4.467   0.836   0.272
 4355W        W 8555  10.364   7.927  10.154
 4356W        W 8556   6.989  11.304  10.017
 4357W        W 8557   6.694   0.155  11.475
 4358W        W 8558  10.022   8.388  11.731
 4359W        W 8559   4.081   8.852   0.424
 4360W        W 8560  10.913   6.553   1.179
 4361W        W 8561   8.875   0.514   8.448
 4362W        W 8562   5.036   3.229   9.784
 4363W        W 8563   1.161  10.527   9.123
 4364W        W 8564   3.875  10.339   0.888
 4365W        W 8565   2.989   3.160  11.880
 4366W        W 8566   5.939   6.635   8.973
 4367W        W 8567   8.753   6.852   8.197
 4368W        W 8568   9.842   1.310   9.285
 4369W        W 8569  11.309  10.292   3.378
 4370W        W 8570   2.403   1.994  11.950
 4371W        W 8571   6.149  10.045   9.427
 4372W        W 8572  10.280   2.619   1.275
 4373W        W 8573   5.206   2.581   3.111
 4374W        W 8574   7.624   3.407  11.434
 4375W        W 8575   4.072   7.050  10.417
 4376W        W 8576   4.527   6.638  11.953
 4377W        W 8577   3.784   2.227   2.421
 4378W        W 8578   3.239   0.984   3.009
 4379W        W 8579   6.117   9.015  11.566
 4380W        W 8580   0.776   1.002   3.193
 4381W        W 8581   8.254   6.031   9.138
 4382W        W 8582   2.722  10.525   2.669
 4383W        W 8583   8.118   3.312   9.134
 4384W        W 8584  11.265   9.570   2.924
 4385W        W 8585  11.364   8.465   1.145
 4386W        W 8586   4.453   0.052   1.826
 4387W        W 8587   8.060   7.415   3.063
 4388W        W 8588  11.451   3.233   2.648
 4389W        W 8589   4.812   2.584  10.975
 4390W        W 8590  10.371   7.615   3.228
 4391W        W 8591   9.412   2.695  10.398
 4392W        W 8592  10.965   7.110   1.770
 4393W        W 8593   9.325   8.813   1.838
 4394W        W 8594   0.884   4.129   3.174
 4395W        W 8595   6.066   2.260  11.139
 4396W        W 8596   7.843  10.825   1.051
 4397W        W 8597   7.223  11.346  11.390
 4398W        W 8598   3.273   4.173  10.120
 4399W        W 8599   7.534   7.083  10.985
 4400W        W 8600   9.864   0.050   1.623
 4401W        W 8601  11.408   5.038  11.594
 4402W        W 8602   9.560   6.158   3.875
 4403W        W 8603   3.695   6.778  11.911
 4404W        W 8604  10.889  10.788   2.144
 4405W        W 8605   9.912   6.687   9.871
 4406W        W 8606   4.664   9.424   1.711
 4407W        W 8607   0.577   6.027  10.326
 4408W        W 8608   4.574   2.518   0.264
 4409W        W 8609   4.950   0.391   3.266
 4410W        W 8610   7.747   4.549   9.523
 4411W        W 8611   3.121   1.298   1.042
 4412W        W 8612   8.448   2.232   8.938
 4413W        W 8613   0.807   2.861   0.154
 4414W        W 8614   4.313   9.066   2.823
 4415W        W 8615   7.995   2.847   3.316
 4416W        W 8616   0.332   3.130   1.946
 4417W        W 8617   3.455   6.723   3.577
 4418W        W 8618   0.104   2.555   9.519
 4419W        W 8619   8.886   2.510   8.887
 4420W        W 8620   9.228   8.331   1.824
 4421W        W 8621   9.827   9.952  10.708
 4422W        W 8622  10.371   9.033  10.410
 4423W        W 8623   6.426   7.941   3.684
 4424W        W 8624   5.592   3.350   0.615
 4425W        W 8625   9.927   4.414   3.162
 4426W        W 8626  11.011   3.601   2.245
 4427W        W 8627  10.874   2.004   9.696
 4428W        W 8628   3.470   7.695   1.286
 4429W        W 8629   3.266   1.959  11.747
 4430W        W 8630   9.003   6.138  11.871
 4431W        W 8631   0.689   1.224   1.995
 4432W        W 8632   3.789   9.532   1.724
 4433W        W 8633   5.749   1.368   2.978
 4434W        W 8634  10.722   2.742   2.249
 4435W        W 8635   8.734   9.111   2.897
 4436W        W 8636   1.176   1.543   8.468
 4437W        W 8637  10.299  10.979   9.087
 4438W        W 8638   6.682  11.499   3.474
 4439W        W 8639   1.436   4.789   9.131
 4440W        W 8640   4.601  11.357   8.566
 4441W        W 8641   9.800   3.618   0.839
 4442W        W 8642   2.783   2.472   1.793
 4443W        W 8643   6.814   6.310   9.271
 4444W        W 8644   2.365   8.437  11.257
 4445W        W 8645   3.192   0.046   0.881
 4446W        W 8646   3.055   3.740  11.745
 4447W        W 8647   7.630   0.330   2.205
 4448W        W 8648   0.235   2.852   2.423
 4449W        W 8649   5.150   8.205   2.437
 4450W        W 8650  11.325   0.511   9.068
 4451W        W 8651   1.324   1.803   2.221
 4452W        W 8652   1.240   3.242   9.312
 4453W        W 8653   9.985   4.346   0.402
 4454W        W 8654   9.453   1.573   1.764
 4455W        W 8655   2.602   8.343   0.515
 4456W        W 8656   9.801  10.589   9.911
 4457W        W 8657   1.294   3.313   0.713
 4458W        W 8658   1.623   1.428   3.475
 4459W        W 8659   1.967   9.854   9.328
 4460W        W 8660   2.358   5.826  10.896
 4461W        W 8661   1.034   5.017   9.559
 4462W        W 8662   7.567   3.154   9.195
 4463W        W 8663   0.072   5.943  10.369
 4464W        W 8664   9.247   4.626  10.598
 4465W        W 8665   3.116   0.602   3.306
 4466W        W 8666   9.255   1.179  10.978
 4467W        W 8667  10.407   6.775   2.384
 4468W        W 8668   8.996   1.177   1.308
 4469W        W 8669   4.758   1.711  11.188
 4470W        W 8670   9.417   6.367  10.095
 4471W        W 8671   1.887   3.754   3.295
 4472W        W 8672   9.522   4.998   9.561
 4473W        W 8673  10.916   4.392  11.303
 4474W        W 8674   6.120   9.208   1.498
 4475W        W 8675   4.432   7.789   9.344
 4476W        W 8676   7.033   8.936   9.036
 4477W        W 8677   8.197   0.849  10.264
 4478W        W 8678   8.642   6.647   8.664
 4479W        W 8679   2.859   9.267   2.047
 4480W        W 8680   6.045   6.814   2.606
 4481W        W 8681   3.400   6.233   9.692
 4482W        W 8682   6.764   9.364   0.111
 4483W        W 8683   7.055   3.236  11.605
 4484W        W 8684   1.507   6.107  11.727
 4485W        W 8685   1.143   8.457   3.390
 4486W        W 8686   8.916   6.626   0.019
 4487W        W 8687   3.164   6.117   8.797
 4488W        W 8688   8.053   2.818  10.815
 4489W        W 8689  11.372  10.845   9.176
 4490W        W 8690   1.293   2.258   9.533
 4491W        W 8691   2.553   6.789   3.641
 4492W        W 8692   2.279   3.361   9.107
 4493W        W 8693   0.960   1.646   1.899
 4494W        W 8694   4.055   5.096  11.540
 4495W        W 8695   3.761   0.798   9.997
 4496W        W 8696  10.955   3.952   9.640
 4497W        W 8697   5.690   0.145   9.967
 4498W        W 8698   8.651   1.774   9.843
 4499W        W 8699   7.464   1.860   1.937
 4500W        W 8700  10.780   4.309   3.334
 4501W        W 8701   0.930   2.860   9.017
 4502W        W 8702   4.778   8.050   1.488
 4503W        W 8703   9.070   1.214   2.150
 4504W        W 8704   9.977   5.119  10.821
 4505W        W 8705   5.879   4.106   1.285
 4506W        W 8706   2.152   8.506   0.297
 4507W        W 8707   8.839   3.078   9.810
 4508W        W 8708  10.855   1.870   2.211
 4509W        W 8709   4.243   4.653  10.257
 4510W        W 8710   5.522   5.467  10.938
 4511W        W 8711   1.748   4.260   3.252
 4512W        W 8712   0.444   2.675  11.044
 4513W        W 8713   4.372   0.888   0.844
 4514W        W 8714   4.495  10.565  11.817
 4515W        W 8715  10.528   0.055  11.258
 4516W        W 8716   4.846   6.162   1.517
 4517W        W 8717   8.858   0.677   1.397
 4518W        W 8718  10.789   0.833  11.340
 4519W        W 8719   8.112   2.462   2.365
 4520W        W 8720   7.608  10.867   3.057
 4521W        W 8721   5.698   7.726  11.026
 4522W        W 8722   8.402   2.832   2.600
 4523W        W 8723   4.252   0.750   2.945
 4524W        W 8724   8.544   9.322   9.636
 4525W        W 8725   3.098   1.926  10.347
 4526W        W 8726   8.880   2.921   9.228
 4527W        W 8727   3.381   6.075   0.271
 4528W        W 8728   1.902   9.344   8.693
 4529W        W 8729   3.556   9.043  11.542
 4530W        W 8730   6.109   4.504   8.377
 4531W        W 8731   9.409   5.751   1.965
 4532W        W 8732   4.735  11.336   0.438
 4533W        W 8733   6.302   1.655  10.528
 4534W        W 8734   3.588   1.029  11.359
 4535W        W 8735   0.001   3.155  11.575
 4536W        W 8736   3.921   4.360   8.573
 4537W        W 8737   6.515   2.349   9.844
 4538W        W 8738   5.200   9.172   2.757
 4539W        W 8739   1.878   0.933  11.174
 4540W        W 8740   3.960   0.492   3.392
 4541W        W 8741   6.976   3.640   9.912
 4542W        W 8742   2.136   2.032   1.951
 4543W        W 8743   3.472   4.593   9.854
 4544W        W 8744   6.552   7.314  11.060
 4545W        W 8745   7.166   6.426   9.634
 4546W        W 8746   2.192   3.304  10.971
 4547W        W 8747   6.985   4.728   8.235
 4548W        W 8748   8.560   4.125  11.244
 4549W        W 8749  10.749   9.513  10.589
 4550W        W 8750   4.138   7.064  11.813
 4551W        W 8751   6.867   2.259  10.578
 4552W        W 8752  10.515   1.761  11.354
 4553W        W 8753   3.911   9.353   0.315
 4554W        W 8754   6.508   7.459  10.055
 4555W        W 8755   7.155   0.358   0.630
 4556W        W 8756   4.591   4.148   9.103
 4557W        W 8757   6.954   3.516   1.747
 4558W        W 8758   9.674   4.009   9.350
 4559W        W 8759   8.872  11.125   3.553
 4560W        W 8760   3.583   3.799   3.013
 4561W        W 8761   7.817   3.525   0.704
 4562W        W 8762   4.169   9.914   2.297
 4563W        W 8763   7.219   0.439  10.536
 4564W        W 8764   9.437   6.848   1.678
 4565W        W 8765   2.893   6.522   9.048
 4566W        W 8766   0.061   0.675   0.635
 4567W        W 8767   2.675  10.264   2.216
 4568W        W 8768   3.129   8.507   3.305
 4569W        W 8769   8.611   8.646   9.058
 4570W        W 8770  11.355   7.530  11.099
 4571W        W 8771   4.186   3.351  10.929
 4572W        W 8772   7.120   2.274   1.310
 4573W        W 8773   5.263   3.116   3.997
 4574W        W 8774   6.574   8.793   3.356
 4575W        W 8775   8.863   1.938   0.811
 4576W        W 8776  10.085   7.944  11.968
 4577W        W 8777  11.311   6.826   3.144
 4578W        W 8778   3.304   9.517   9.318
 4579W        W 8779   0.074   6.979   9.336
 4580W        W 8780   4.630  11.262  11.104
 4581W        W 8781   9.999   9.911   2.181
 4582W        W 8782  10.881   3.135  10.412
 4583W        W 8783  10.297  10.329   2.694
 4584W        W 8784   2.429   9.486   1.227
 4585W        W 8785   2.330   7.395   3.560
 4586W        W 8786  10.803   6.728   3.147
 4587W        W 8787  11.220   7.515   3.382
 4588W        W 8788   6.572   4.250  10.309
 4589W        W 8789   9.526   9.472   1.026
 4590W        W 8790   2.142   7.384   9.500
 4591W        W 8791   8.979   1.701   8.386
 4592W        W 8792   0.350   3.146   0.338
 4593W        W 8793   9.064  10.006   2.511
 4594W        W 8794   0.477   3.438   3.606
 4595W        W 8795   8.892   2.953   8.620
 4596W        W 8796  11.349   7.438  10.574
 4597W        W 8797  10.320   2.871   0.822
 4598W        W 8798   5.076   4.797  11.218
 4599W        W 8799   2.834   5.536   9.684
 4600W        W 8800   1.483   2.754   1.989
 4601W        W 8801   6.414   3.552   1.779
 4602W        W 8802   5.191   1.662   8.732
 4603W        W 8803   3.405   3.836   2.529
 4604W        W 8804   9.640  10.450   0.780
 4605W        W 8805   5.633   6.260  10.701
 4606W        W 8806   8.712   8.465  10.159
 4607W        W 8807   1.754   2.250   9.283
 4608W        W 8808  10.508   3.778   9.819
 4609W        W 8809   3.792   4.692   8.987
 4610W        W 8810   5.378   7.415   9.324
 4611W        W 8811   5.528   2.437   1.950
 4612W        W 8812   5.568   0.717  11.210
 4613W        W 8813   6.693   8.474  11.975
 4614W        W 8814   1.846   6.674   0.832
 4615W        W 8815   2.875   9.300  10.389
 4616W        W 8816  10.465   1.163   0.242
 4617W        W 8817   6.995   7.804   9.473
 4618W        W 8818   1.389  10.375  10.994
 4619W        W 8819   3.446   0.894   2.555
 4620W        W 8820  10.793   5.452   0.272
 4621W        W 8821   8.166   3.156   0.670
 4622W        W 8822   3.116   1.415  11.553
 4623W        W 8823   8.305   3.157   9.926
 4624W        W 8824   1.837  10.569  11.732
 4625W        W 8825  10.869   7.520   0.830
 4626W        W 8826   0.037  10.473  10.872
 4627W        W 8827  11.012   2.216  11.093
 4628W        W 8828  11.159   4.146  11.730
 4629W        W 8829   1.482   2.299  11.376
 4630W        W 8830   8.875   0.185  11.803
 4631W        W 8831  10.805   5.761   1.805
 4632W        W 8832   9.228   0.132  10.372
 4633W        W 8833   5.147   7.749   2.657
 4634W        W 8834   9.036   6.756  10.473
 4635W        W 8835   3.561   9.073   9.633
 4636W        W 8836   4.221   6.151  10.270
 4637W        W 8837   2.339   2.586   2.586
 4638W        W 8838   6.647   9.319   3.336
 4639W        W 8839   6.139   8.847   9.841
 4640W        W 8840   8.209   4.062  11.600
 4641W        W 8841   1.287  10.882   1.011
 4642W        W 8842   3.164   2.921   9.070
 4643W        W 8843   6.991   0.140  10.993
 4644W        W 8844   3.784   1.954   0.118
 4645W        W 8845   5.740   2.624  10.979
 4646W        W 8846   3.604   4.948   8.585
 4647W        W 8847  10.330   3.367   9.546
 4648W        W 8848  10.495   7.389   1.162
 4649W        W 8849   2.678   9.643  11.909
 4650W        W 8850  10.474   3.335  10.042
 4651W        W 8851   9.874   2.564   0.961
 4652W        W 8852   6.450   6.589  10.352
 4653W        W 8853  10.785  10.577  10.436
 4654W        W 8854   3.590  10.123  11.992
 4655W        W 8855   4.759   4.065   0.333
 4656W        W 8856  11.253   7.683   2.588
 4657W        W 8857   7.267   9.621   0.540
 4658W        W 8858  10.721   3.411   3.333
 4659W        W 8859  10.281   9.348  10.825
 4660W        W 8860   1.879   6.069   1.938
 4661W        W 8861   8.981   3.763   1.959
 4662W        W 8862  10.226  10.874   1.440
 4663W        W 8863   0.306   6.367   2.394
 4664W        W 8864   5.213   0.687  11.868
 4665W        W 8865   5.753   5.262   1.778
 4666W        W 8866   3.469   1.174   0.354
 4667W        W 8867   9.522   7.775  10.949
 4668W        W 8868  10.002   6.604   9.365
 4669W        W 8869   9.943   0.629  11.378
 4670W        W 8870   2.227   8.931   0.017
 4671W        W 8871  10.013   5.261   1.005
 4672W        W 8872  10.107   6.101   0.496
 4673W        W 8873   9.516   9.883   8.980
 4674W        W 8874   7.733   0.269   9.830
 4675W        W 8875   7.993   0.855   2.900
 4676W        W 8876   4.329   5.362   2.744
 4677W        W 8877   1.338   4.789  10.590
 4678W        W 8878   2.692   4.292   3.012
 4679W        W 8879   1.155   4.883  10.097
 4680W        W 8880   4.784   1.373   1.949
 4681W        W 8881  11.016   9.089   0.146
 4682W        W 8882   9.693   7.152  11.259
 4683W        W 8883   2.635   6.393   8.625
 4684W        W 8884   6.227   7.696   8.373
 4685W        W 8885  10.494   6.645   9.526
 4686W        W 8886   4.821   8.803  11.840
 4687W        W 8887   5.162   2.656   4.200
 4688W        W 8888   5.665   2.741   9.491
 4689W        W 8889   5.952   9.981   2.710
 4690W        W 8890   9.622   6.915   2.798
 4691W        W 8891   5.025   3.223  11.954
 4692W        W 8892   8.916   0.328  10.772
 4693W        W 8893  11.361   8.375   9.983
 4694W        W 8894   1.024   9.296  10.711
 4695W        W 8895   2.619   7.442   0.201
 4696W        W 8896   4.037   3.334   9.357
 4697W        W 8897   5.626   7.550   8.877
 4698W        W 8898   2.536   3.050  11.572
 4699W        W 8899   6.641  11.113   0.049
 4700W        W 8900   8.131   9.611  10.514
 4701W        W 8901  10.211   7.987   1.680
 4702W        W 8902   0.745   0.969   9.536
 4703W        W 8903   7.621   4.865   0.348
 4704W        W 8904   6.486   1.049  11.938
 4705W        W 8905   4.609   3.059  11.067
 4706W        W 8906  10.521   4.152   9.484
 4707W        W 8907   1.457  10.854  11.246
 4708W        W 8908   5.175   0.810   3.503
 4709W        W 8909   9.102  10.290   0.008
 4710W        W 8910   9.989   3.831   2.230
 4711W        W 8911   0.259   6.626   2.975
 4712W        W 8912   3.517   3.365   9.451
 4713W        W 8913   3.702   3.347   3.289
 4714W        W 8914   8.371   4.635   8.934
 4715W        W 8915   3.757   4.108  11.045
 4716W        W 8916   6.869   3.103   2.830
 4717W        W 8917   1.012   1.597   8.960
 4718W        W 8918   8.467   6.386   2.209
 4719W        W 8919   5.244   4.241   9.526
 4720W        W 8920   3.341  10.076   8.671
 4721W        W 8921   5.677   6.614   0.576
 4722W        W 8922   0.254   8.654   1.933
 4723W        W 8923   8.182   8.420   8.444
 4724W        W 8924   1.421   4.322  10.826
 4725W        W 8925   3.562   1.214   9.784
 4726W        W 8926   5.274   8.924   3.650
 4727W        W 8927  10.893   4.414   1.805
 4728W        W 8928  10.455   4.993   9.850
 4729W        W 8929  11.286   7.759  11.545
 4730W        W 8930   0.814   0.790   2.225
 4731W        W 8931   5.549   4.487  10.699
 4732W        W 8932   8.185  11.481   1.157
 4733W        W 8933  11.272   0.901  10.474
 4734W        W 8934   6.995   1.110  11.044
 4735W        W 8935   0.785   0.197  10.053
 4736W        W 8936   1.964  11.357   3.173
 4737W        W 8937   9.020   1.700   1.277
 4738W        W 8938   4.722   2.348   9.534
 4739W        W 8939   9.850   2.933   3.213
 4740W        W 8940   3.807   3.637   0.200
 4741W        W 8941   7.676   0.288   1.179
 4742W        W 8942   8.225   9.007   9.983
 4743W        W 8943  10.042   9.208   8.692
 4744W        W 8944   7.414  10.874   9.543
 4745W        W 8945  11.436   1.166   2.629
 4746W        W 8946  10.947   5.923   0.285
 4747W        W 8947   5.556   2.170   1.508
 4748W        W 8948   4.604   3.273   3.216
 4749W        W 8949   8.576   5.241   0.953
 4750W        W 8950   8.316   7.043   8.847
 4751W        W 8951   3.284  10.487   0.238
 4752W        W 8952  10.363   6.540   1.477
 4753W        W 8953   7.935   2.940   2.386
 4754W        W 8954   3.194   3.858   8.841
 4755W        W 8955   5.525   5.779  10.477
 4756W        W 8956   3.222   8.083   8.673
 4757W        W 8957   9.027   0.201  11.282
 4758W        W 8958   4.201   6.744   1.254
 4759W        W 8959   0.804   0.057  10.554
 4760W        W 8960  10.815   4.696   2.608
 4761W        W 8961  11.076   6.845   9.271
 4762W        W 8962  11.475   3.971   9.004
 4763W        W 8963  10.927   5.381   1.484
 4764W        W 8964  11.414   6.499   9.460
 4765W        W 8965   9.994   1.369   0.262
 4766W        W 8966   4.113   6.991   9.300
 4767W        W 8967   1.795   3.332   1.756
 4768W        W 8968  10.116  10.554   0.746
 4769W        W 8969   8.384   2.236   9.747
 4770W        W 8970   6.733   4.547   9.421
 4771W        W 8971  10.561   2.756   1.701
 4772W        W 8972   4.974   7.024   3.132
 4773W        W 8973   0.235   2.141   9.774
 4774W        W 8974   7.859   8.036   2.283
 4775W        W 8975   3.965   6.006  11.521
 4776W        W 8976  11.346   4.626   1.869
 4777W        W 8977   4.583   7.542   0.362
 4778W        W 8978   5.588   4.573   2.452
 4779W        W 8979  10.475   7.542   9.354
 4780W        W 8980   7.472   4.331  11.401
 4781W        W 8981   8.319   8.706   2.816
 4782W        W 8982   3.671   3.260   1.869
 4783W        W 8983   2.025   7.007  10.309
 4784W        W 8984  10.292   1.771   1.152
 4785W        W 8985  11.381   8.718   8.544
 4786W        W 8986  10.159   2.201   1.896
 4787W        W 8987   7.153   9.933   2.721
 4788W        W 8988   0.239   6.252  11.164
 4789W        W 8989   1.208   1.000   1.997
 4790W        W 8990  10.452   9.865   2.953
 4791W        W 8991   8.716   0.008  10.436
 4792W        W 8992   9.362   2.185  11.130
 4793W        W 8993   8.536   3.480   1.269
 4794W        W 8994   9.138   5.169  10.781
 4795W        W 8995   4.779   7.909   0.026
 4796W        W 8996  11.435  11.407  10.790
 4797W        W 8997   0.660   9.416   3.394
 4798W        W 8998   0.458   0.011   9.720
 4799W        W 8999   1.953   7.930  11.798
 4800W        W 9000  10.427   8.519   8.878
 4801W        W 9001   3.816   2.919  10.336
 4802W        W 9002   4.868   5.008   1.387
 4803W        W 9003   1.133   2.817   0.589
 4804W        W 9004   7.387   3.780   0.741
 4805W        W 9005   8.534   6.782  10.750
 4806W        W 9006   2.129   4.740   0.355
 4807W        W 9007   4.755   1.603  10.696
 4808W        W 9008   1.539   2.858   0.921
 4809W        W 9009   9.035  10.955   0.354
 4810W        W 9010   0.693   7.111   2.179
 4811W        W 9011   1.236   2.782  11.298
 4812W        W 9012  11.017  10.141   1.807
 4813W        W 9013   4.792   1.279   2.464
 4814W        W 9014   9.587   9.787   2.954
 4815W        W 9015  10.812   4.564   0.657
 4816W        W 9016   5.973   6.105   9.738
 4817W        W 9017   9.947   5.300   0.412
 4818W        W 9018   9.187   4.673   9.190
 4819W        W 9019   9.102   7.667  10.141
 4820W        W 9020   0.237   2.252   1.856
 4821W        W 9021   9.957  11.055  11.353
 4822W        W 9022   9.510  10.126   9.447
 4823W        W 9023   9.437   6.614  11.253
 4824W        W 9024   1.142   9.557   3.399
 4825W        W 9025   9.793   8.601   1.968
 4826W        W 9026   8.041   4.555   0.199
 4827W        W 9027   9.968   1.899   0.168
 4828W        W 9028   6.587   7.500   8.697
 4829W        W 9029   7.144   4.569   8.701
 4830W        W 9030   0.505   7.929   9.614
 4831W        W 9031   3.444   6.052   1.219
 4832W        W 9032   1.585   6.169  10.036
 4833W        W 9033   1.702   0.829   2.126
 4834W        W 9034   5.956   1.362   2.060
 4835W        W 9035   1.105   8.534   2.412
 4836W        W 9036   1.851   4.038  10.902
 4837W        W 9037   6.680   2.364   3.532
 4838W        W 9038   6.521   8.568   1.653
 4839W        W 9039   0.903   3.659   0.815
 4840W        W 9040   6.835  11.170   3.126
 4841W        W 9041   1.180   5.544   9.443
 4842W        W 9042   6.851   1.184   1.949
 4843W        W 9043  10.444   9.977  11.929
 4844W        W 9044   6.709   4.684   0.150
 4845W        W 9045   1.620   7.983   0.870
 4846W        W 9046   0.281   3.487  10.787
 4847W        W 9047  10.009   7.566  11.117
 4848W        W 9048   7.105  10.174  11.328
 4849W        W 9049   7.979   5.239   0.302
 4850W        W 9050   5.632   1.369   8.792
 4851W        W 9051   8.977   6.116   8.844
 4852W        W 9052   2.252   4.131   8.546
 4853W        W 9053   5.132   5.646  11.245
 4854W        W 9054   4.748   8.568  10.258
 4855W        W 9055   7.741   1.855   2.982
 4856W        W 9056   0.157   9.462   9.511
 4857W        W 9057   7.671   1.319  11.381
 4858W        W 9058   6.310   4.028   2.245
 4859W        W 9059   0.614   2.206  10.131
 4860W        W 9060   7.602   6.188  11.962
 4861W        W 9061   0.786   5.221  10.236
 4862W        W 9062   7.993   2.486   8.843
 4863W        W 9063   7.408   4.288   0.753
 4864W        W 9064   8.363   3.289  11.767
 4865W        W 9065   8.588   4.574   9.813
 4866W        W 9066   0.385   0.298  11.508
 4867W        W 9067   3.009   3.494   2.383
 4868W        W 9068   8.988   0.388   0.627
 4869W        W 9069   0.330   8.352  11.408
 4870W        W 9070   3.066   5.597   3.191
 4871W        W 9071   2.003   1.020  11.679
 4872W        W 9072  10.514   8.381  11.011
 4873W        W 9073   5.878  10.044   8.955
 4874W        W 9074   2.574   5.988   9.515
 4875W        W 9075   4.149   0.537   0.538
 4876W        W 9076   4.332   8.114   2.714
 4877W        W 9077   8.760   7.103   3.139
 4878W        W 9078   8.041   1.922  10.999
 4879W        W 9079   3.936   8.674   2.209
 4880W        W 9080   2.626  10.972   2.941
 4881W        W 9081   9.657   4.256   2.241
 4882W        W 9082   5.570   1.823   9.044
 4883W        W 9083   3.752   4.620  11.153
 4884W        W 9084   0.407   5.256  11.572
 4885W        W 9085   5.643   4.805   0.659
 4886W        W 9086   7.907   8.748   9.518
 4887W        W 9087   0.735   3.021   8.562
 4888W        W 9088   2.887   7.034   1.478
 4889W        W 9089   5.767  10.874  10.402
 4890W        W 9090   1.279  11.383   9.320
 4891W        W 9091   2.432   2.548   3.094
 4892W        W 9092   0.572   2.668   9.374
 4893W        W 9093   9.760   9.069   1.756
 4894W        W 9094   1.454   6.176   2.186
 4895W        W 9095   9.362   2.831  11.833
 4896W        W 9096   6.150  11.042   9.607
 4897W        W 9097   1.816   3.588  10.685
 4898W        W 9098   1.752   9.904  10.594
 4899W        W 9099   4.378  10.493  10.086
 4900W        W 9100   7.723   0.873  11.944
 4901W        W 9101   5.148   8.490   1.061
 4902W        W 9102   3.215   2.183   1.755
 4903W        W 9103   0.660   9.153  11.071
 4904W        W 9104   9.493   2.360   9.619
 4905W        W 9105   9.949   2.173   1.325
 4906W        W 9106   9.277  11.411  11.653
 4907W        W 9107   7.911   5.504  10.514
 4908W        W 9108  10.607   3.118   0.462
 4909W        W 9109   5.653   8.504   0.735
 4910W        W 9110   5.084   6.349   2.406
 4911W        W 9111   7.462   1.327   8.781
 4912W        W 9112   6.537   1.155  10.338
 4913W        W 9113   7.586   6.517   1.310
 4914W        W 9114   0.546  10.345   0.965
 4915W        W 9115   3.992   7.641   1.361
 4916W        W 9116   5.793   9.951  10.307
 4917W        W 9117   8.486   2.653  10.535
 4918W        W 9118   9.346   7.947   0.222
 4919W        W 9119   3.140   9.134   1.552
 4920W        W 9120   1.843   4.500   3.695
 4921W        W 9121   1.680   0.178   1.187
 4922W        W 9122   7.464   0.912  10.438
 4923W        W 9123   7.373   7.323  10.150
 4924W        W 9124   1.841   1.169   3.095
 4925W        W 9125   9.499   7.625  11.453
 4926W        W 9126   6.607   3.946   2.680
 4927W        W 9127   1.121   5.115  11.862
 4928W        W 9128   0.006   7.242   8.899
 4929W        W 9129   2.052   5.933   9.572
 4930W        W 9130   9.383   9.787  10.895
 4931W        W 9131   1.782   4.912   1.045
 4932W        W 9132   2.866  11.072   2.495
 4933W        W 9133   0.516   1.771   9.590
 4934W        W 9134  10.369   2.226  11.949
 4935W        W 9135   7.021   9.579  11.248
 4936W        W 9136  11.301   6.698   0.851
 4937W        W 9137   6.939   6.101  10.060
 4938W        W 9138   4.619   4.526   3.146
 4939W        W 9139   3.351   3.333   3.691
 4940W        W 9140   5.149   8.882  10.000
 4941W        W 9141   3.880  10.871  10.737
 4942W        W 9142   4.340   0.951  10.821
 4943W        W 9143   4.730   2.802   0.715
 4944W        W 9144   9.831   7.681   1.907
 4945W        W 9145   2.769  11.458  11.375
 4946W        W 9146   7.238  11.390   1.873
 4947W        W 9147  10.865   2.621  10.297
 4948W        W 9148   9.887   6.384  10.317
 4949W        W 9149   2.639   3.085   2.367
 4950W        W 9150   6.414   8.733   8.278
 4951W        W 9151  10.940   9.583  11.969
 4952W        W 9152   0.822   2.436   0.418
 4953W        W 9153   5.463   4.100   9.069
 4954W        W 9154   2.891  10.936  10.818
 4955W        W 9155   8.609   6.419   1.272
 4956W        W 9156   5.117   9.558   2.406
 4957W        W 9157   5.856   6.694   2.153
 4958W        W 9158   9.976   1.983   3.456
 4959W        W 9159   0.803   6.257   0.914
 4960W        W 9160   0.741  10.829   1.730
 4961W        W 9161   5.733   9.180  11.865
 4962W        W 9162   2.662   2.253   9.500
 4963W        W 9163   0.248   1.444   3.465
 4964W        W 9164   9.940   4.287   2.658
 4965W        W 9165   3.822   8.113  11.818
 4966W        W 9166   2.975   5.645   8.610
 4967W        W 9167  10.011   6.181  10.774
 4968W        W 9168   5.497   0.982   9.100
 4969W        W 9169  11.400   2.643   0.533
 4970W        W 9170   9.806  10.927   0.939
 4971W        W 9171  10.017  10.815   2.737
 4972W        W 9172   2.745   7.973   9.507
 4973W        W 9173  10.777   7.643   2.385
 4974W        W 9174   4.739   7.611   1.764
 4975W        W 9175  10.773   4.939   3.591
 4976W        W 9176  10.310   1.932  10.930
 4977W        W 9177   1.605   6.153   0.995
 4978W        W 9178  10.353   7.005   9.058
 4979W        W 9179   8.106   9.938   0.260
 4980W        W 9180   6.933   4.420   1.820
 4981W        W 9181   4.681   4.722   3.611
 4982W        W 9182   6.564   5.461   0.454
 4983W        W 9183   7.920   9.965   9.993
 4984W        W 9184   5.044   4.514   3.912
 4985W        W 9185   2.204   3.322   2.195
 4986W        W 9186   5.686   9.069   3.037
 4987W        W 9187   5.523   4.089   2.553
 4988W        W 9188   2.537   2.676   0.873
 4989W        W 9189  10.246   7.262   2.340
 4990W        W 9190   5.648   3.176   8.878
 4991W        W 9191   8.436  11.003  11.753
 4992W        W 9192   1.043   4.085   0.518
 4993W        W 9193   3.378   6.616  10.324
 4994W        W 9194  10.310   6.574  11.971
 4995W        W 9195   4.162   9.079   9.101
 4996W        W 9196   9.881   5.661   9.859
 4997W        W 9197   3.484   8.504   8.944
 4998W        W 9198   4.369  10.983  10.759
 4999W        W 9199   9.998   1.652  10.081
 5000W        W 9200  10.035   1.286   8.789
 5001W        W 9201  10.058   0.863   0.077
 5002W        W 9202   6.065   5.787   1.694
 5003W        W 9203   1.261   9.439  10.023
 5004W        W 9204   2.516   7.720   2.718
 5005W        W 9205   9.924   0.773   8.847
 5006W        W 9206   3.990   1.339  11.478
 5007W        W 9207   2.069   1.614   3.341
 5008W        W 9208   8.655   3.088  10.291
 5009W        W 9209  10.554  10.853   3.355
 5010W        W 9210   2.289   9.360  11.169
 5011W        W 9211   8.443   2.639   2.026
 5012W        W 9212   7.309  11.332   8.799
 5013W        W 9213   8.144   0.832   8.477
 5014W        W 9214   0.192   6.091   2.798
 5015W        W 9215   8.682   9.960   2.851
 5016W        W 9216   4.558   5.316   9.672
 5017W        W 9217   5.966   6.253   2.683
 5018W        W 9218   3.723  10.770   2.810
 5019W        W 9219   1.599   5.601   3.182
 5020W        W 9220   4.712   4.526   2.625
 5021W        W 9221   8.110   4.621   3.555
 5022W        W 9222   6.838   9.373   0.673
 5023W        W 9223   0.085   5.652  10.818
 5024W        W 9224   0.620   1.473   0.750
 5025W        W 9225   2.346   0.661   0.759
 5026W        W 9226   8.355   2.132   3.730
 5027W        W 9227   4.876   6.014   1.010
 5028W        W 9228  10.221  11.423   9.393
 5029W        W 9229   7.105   2.626   9.796
 5030W        W 9230  10.899   7.554   9.658
 5031W        W 9231   5.547   6.432  11.277
 5032W        W 9232   0.929   2.366   9.141
 5033W        W 9233   5.490   0.003   0.014
 5034W        W 9234   1.617   3.495  10.195
 5035W        W 9235   4.715   2.807   2.007
 5036W        W 9236   4.967   8.102   1.971
 5037W        W 9237   8.518   5.507   9.869
 5038W        W 9238   0.710   4.164  11.004
 5039W        W 9239  11.275   2.176   9.429
 5040W        W 9240   9.620   8.370   9.911
 5041W        W 9241   5.755   9.868   2.002
 5042W        W 9242   6.969   4.562   0.918
 5043W        W 9243   4.793   1.661   0.431
 5044W        W 9244   2.287  11.248  11.435
 5045W        W 9245   1.280   0.493   1.872
 5046W        W 9246   4.083   2.324   0.302
 5047W        W 9247   7.234   4.459   9.568
 5048W        W 9248   9.886  10.486   9.387
 5049W        W 9249   1.940   6.392  10.457
 5050W        W 9250   7.013   8.296   9.727
 5051W        W 9251   0.750   8.401   0.403
 5052W        W 9252   9.389   3.908   1.664
 5053W        W 9253   9.879   2.613   2.824
 5054W        W 9254   6.749  10.763   1.867
 5055W        W 9255   5.486   8.119   2.017
 5056W        W 9256   9.350   0.931  11.903
 5057W        W 9257   5.504  11.038   9.046
 5058W        W 9258   6.233   2.746   9.884
 5059W        W 9259   2.286   7.093   0.063
 5060W        W 9260  11.276  11.427   9.351
 5061W        W 9261   5.662   0.699  10.708
 5062W        W 9262  10.857   8.339   9.643
 5063W        W 9263  10.290   5.986  11.177
 5064W        W 9264   6.981   3.164   1.381
 5065W        W 9265   2.734   8.492   9.480
 5066W        W 9266  10.856   7.621   1.865
 5067W        W 9267   9.413   4.394  11.059
 5068W        W 9268   7.478  11.339   9.306
 5069W        W 9269  10.813   3.915   1.897
 5070W        W 9270   2.581   6.304   9.994
 5071W        W 9271  10.590   7.867   0.015
 5072W        W 9272   0.454  11.330   0.716
 5073W        W 9273  11.433   5.029   2.163
 5074W        W 9274   4.602  11.424   9.121
 5075W        W 9275   8.934   5.351   8.536
 5076W        W 9276   8.875   2.833   2.829
 5077W        W 9277   0.486   3.617  11.535
 5078W        W 9278   8.442   2.956   1.547
 5079W        W 9279   8.062   3.932   1.920
 5080W        W 9280   0.507   5.393  11.010
 5081W        W 9281   2.451   2.521  11.874
 5082W        W 9282   2.775   3.110   1.426
 5083W        W 9283   6.186  10.571   9.402
 5084W        W 9284   4.585  10.875   1.421
 5085W        W 9285   1.036   9.504   0.787
 5086W        W 9286   4.658   6.808   2.291
 5087W        W 9287   5.209   9.857   9.024
 5088W        W 9288   0.271   9.892   0.942
 5089W        W 9289   5.812   7.095   0.379
 5090W        W 9290   7.889   6.939   2.978
 5091W        W 9291   3.846  10.790   9.887
 5092W        W 9292   2.595   6.209  11.899
 5093W        W 9293   1.360   2.029   9.005
 5094W        W 9294   0.824   1.900  10.935
 5095W        W 9295   4.097   0.873  11.278
 5096W        W 9296   2.031  11.114  10.103
 5097W        W 9297   1.304   7.830   8.788
 5098W        W 9298   2.171   4.953   1.505
 5099W        W 9299   2.650   9.739  10.575
 5100W        W 9300  10.544  11.219   2.272
 5101W        W 9301   6.131   0.504   3.347
 5102W        W 9302   3.868   7.353   2.228
 5103W        W 9303   3.835   8.522   2.690
 5104W        W 9304  10.043   3.300   1.440
 5105W        W 9305   3.484   2.216  10.493
 5106W        W 9306   0.368   9.618   1.562
 5107W        W 9307   8.870   4.137   9.867
 5108W        W 9308   0.186   3.678   2.736
 5109W        W 9309   0.511   3.059  10.678
 5110W        W 9310   4.163  10.820   1.876
 5111W        W 9311   4.136  10.918  10.302
 5112W        W 9312   5.367   9.468   0.301
 5113W        W 9313   0.150  10.569   3.092
 5114W        W 9314  10.574   0.884  11.835
 5115W        W 9315   2.860   8.628   2.881
 5116W        W 9316   9.521   2.701   3.502
 5117W        W 9317   5.737   7.760  10.069
 5118W        W 9318   8.543   1.481   1.338
 5119W        W 9319   8.115   9.400   1.047
 5120W        W 9320   9.382   2.731  11.327
 5121W        W 9321   6.733   7.894   9.918
 5122W        W 9322   5.781   4.815  10.356
 5123W        W 9323   7.648  10.292  10.804
 5124W        W 9324   5.093   5.714  10.740
 5125W        W 9325   9.146   3.744   0.193
 5126W        W 9326   2.201   0.799   8.903
 5127W        W 9327   0.261   7.564   3.291
 5128W        W 9328   6.850   8.579   2.979
 5129W        W 9329   0.660  10.343   2.340
 5130W        W 9330   2.942   0.262  10.965
 5131W        W 9331   2.976   4.580   9.970
 5132W        W 9332   6.491   4.034   0.815
 5133W        W 9333   3.745   4.677   8.180
 5134W        W 9334   4.801   2.721   1.536
 5135W        W 9335   8.160   1.823   9.961
 5136W        W 9336   3.359   2.374   0.012
 5137W        W 9337   8.500   1.885  11.234
 5138W        W 9338   3.740  10.347   8.945
 5139W        W 9339   9.542   0.603   0.246
 5140W        W 9340   8.596   5.002  10.165
 5141W        W 9341   6.656  10.372  11.095
 5142W        W 9342   9.550   2.355   2.217
 5143W        W 9343  10.696   1.318  11.546
 5144W        W 9344   1.423   3.887  11.480
 5145W        W 9345   8.053   2.773   0.362
 5146W        W 9346   0.418   5.711   9.957
 5147W        W 9347   4.140   7.456   9.091
 5148W        W 9348  10.358   4.558  11.449
 5149W        W 9349   4.695   3.554   0.435
 5150W        W 9350   6.785   3.141   9.172
 5151W        W 9351   7.708   5.798   8.374
 5152W        W 9352   4.554   6.366   2.514
 5153W        W 9353   5.566   8.975   0.385
 5154W        W 9354   2.751   3.421  10.286
 5155W        W 9355   2.818   2.358   2.760
 5156W        W 9356   5.464   2.403   2.704
 5157W        W 9357   6.719   2.804   0.470
 5158W        W 9358   3.154   0.825   9.114
 5159W        W 9359   8.987  10.018  10.128
 5160W        W 9360  11.369   5.576   0.209
 5161W        W 9361   4.501   3.206   9.542
 5162W        W 9362   8.044   1.824   3.443
 5163W        W 9363   8.480   6.969   0.472
 5164W        W 9364  10.468   8.065   2.970
 5165W        W 9365   7.594   0.710   3.388
 5166W        W 9366   4.087  11.394  10.507
 5167W        W 9367   1.905   5.171  11.209
 5168W        W 9368   4.536   5.436   2.268
 5169W        W 9369   5.594   3.696   3.804
 5170W        W 9370   7.375   4.793  10.543
 5171W        W 9371  11.317   6.420   2.798
 5172W        W 9372   1.700   2.318   0.933
 5173W        W 9373   5.186   9.970   2.125
 5174W        W 9374  11.490  11.466   2.018
 5175W        W 9375   9.158   9.544   2.233
 5176W        W 9376   0.769   7.178   9.964
 5177W        W 9377   6.956   1.245  11.940
 5178W        W 9378   0.772   7.501   1.807
 5179W        W 9379   0.872   9.122   1.053
 5180W        W 9380   5.168   5.575  11.761
 5181W        W 9381  10.115   5.011  10.323
 5182W        W 9382  10.122   1.960  10.466
 5183W        W 9383   4.989   1.517  10.125
 5184W        W 9384   8.844   6.911   9.564
 5185W        W 9385   0.807   2.034  11.626
 5186W        W 9386   0.735   5.511   3.006
 5187W        W 9387   6.282   5.031   0.373
 5188W        W 9388   1.264   5.273  10.431
 5189W        W 9389   5.337   6.715  10.851
 5190W        W 9390   1.626   5.066  11.976
 5191W        W 9391   0.272  11.441   0.243
 5192W        W 9392   0.490   4.593  10.833
 5193W        W 9393  11.300   8.903   1.885
 5194W        W 9394   8.710  11.267   9.565
 5195W        W 9395  10.505   7.371  10.954
 5196W        W 9396   9.104   9.052   2.524
 5197W        W 9397  11.268   4.786   0.817
 5198W        W 9398   3.271   2.647   0.854
 5199W        W 9399   8.540   0.930   9.415
 5200W        W 9400   7.066   8.337   1.983
 5201W        W 9401   5.156   0.034   2.976
 5202W        W 9402   3.024   3.723   4.156
 5203W        W 9403   1.196   8.144   0.630
 5204W        W 9404   1.324   9.545   0.399
 5205W        W 9405   0.745   0.947  10.420
 5206W        W 9406  10.343   2.567   9.426
 5207W        W 9407  10.551   1.582   9.642
 5208W        W 9408  10.230   8.456   0.376
 5209W        W 9409   2.279  10.201   2.685
 5210W        W 9410   9.961   8.065  10.954
 5211W        W 9411   2.280  11.255   0.471
 5212W        W 9412   7.652   2.443   3.163
 5213W        W 9413  10.177   0.306  10.091
 5214W        W 9414   8.439  11.302   3.129
 5215W        W 9415   9.440   6.685   2.161
 5216W        W 9416   4.134   8.089   9.639
 5217W        W 9417   9.817   0.816   9.443
 5218W        W 9418   7.171  10.373   3.399
 5219W        W 9419   0.654   6.926  10.390
 5220W        W 9420  11.302   1.775  10.977
 5221W        W 9421   2.186   2.929   8.777
 5222W        W 9422   7.728   7.725   9.863
 5223W        W 9423   8.598   6.001  11.023
 5224W        W 9424   7.499   7.068   1.873
 5225W        W 9425   1.778  10.978   2.829
 5226W        W 9426   1.818  10.474  11.245
 5227W        W 9427   2.967   7.858  10.383
 5228W        W 9428   1.823   3.697   2.282
 5229W        W 9429   9.443   8.777   0.213
 5230W        W 9430   0.388   6.039   0.242
 5231W        W 9431   0.505   3.890   2.397
 5232W        W 9432   4.692   2.652   2.984
 5233W        W 9433   0.720   0.700   9.971
 5234W        W 9434  10.397   7.463   9.860
 5235W        W 9435   3.216   0.144   9.140
 5236W        W 9436   3.737   0.596   2.939
 5237W        W 9437   1.198   5.757   2.374
 5238W        W 9438   7.560   1.047   1.917
 5239W        W 9439   7.476   8.381   2.313
 5240W        W 9440   8.606   6.463   0.384
 5241W        W 9441  10.193   2.185   0.863
 5242W        W 9442   6.658   9.897   1.984
 5243W        W 9443   3.673  11.456   9.592
 5244W        W 9444   4.657   4.623  10.955
 5245W        W 9445   4.793   9.011   3.052
 5246W        W 9446   2.681   1.122   1.293
 5247W        W 9447   4.768   6.992  10.042
 5248W        W 9448   1.345   9.523  11.908
 5249W        W 9449   2.374   3.793   9.521
 5250W        W 9450   4.657   4.758   1.787
 5251W        W 9451   2.888   9.948  11.534
 5252W        W 9452   9.236   7.353  11.079
 5253W        W 9453   8.819   8.676   0.759
 5254W        W 9454   8.082   1.422   8.748
 5255W        W 9455   9.633   9.551   1.509
 5256W        W 9456   0.705   4.657  11.339
 5257W        W 9457   8.132   8.829  11.748
 5258W        W 9458   1.824   7.409  11.815
 5259W        W 9459   4.725   8.493   0.719
 5260W        W 9460   6.348   7.444   1.463
 5261W        W 9461   3.757   8.852  10.609
 5262W        W 9462  10.358   5.035  11.174
 5263W        W 9463   1.443   5.251   2.407
 5264W        W 9464   1.892   0.464   0.812
 5265W        W 9465   2.820   7.029   2.382
 5266W        W 9466   7.907   5.219  11.428
 5267W        W 9467   1.772   5.218   2.854
 5268W        W 9468   6.378   1.256   1.743
 5269W        W 9469   1.623   3.040   0.445
 5270W        W 9470  11.078   0.945   1.223
 5271W        W 9471   1.462   0.040   0.294
 5272W        W 9472   4.092   3.521  11.792
 5273W        W 9473   5.174   0.813   1.942
 5274W        W 9474  10.048   8.942   9.149
 5275W        W 9475   2.022  10.389   9.406
 5276W        W 9476   2.737   4.617   1.351
 5277W        W 9477   4.533   5.135  11.208
 5278W        W 9478   8.969   5.717   9.789
 5279W        W 9479   4.639   4.016   1.366
 5280W        W 9480   7.811   9.517  10.900
 5281W        W 9481   4.201   1.321   3.011
 5282W        W 9482   9.388   8.625   2.324
 5283W        W 9483   1.420   5.538  11.927
 5284W        W 9484   3.769   1.093   2.936
 5285W        W 9485   9.955   2.752  10.111
 5286W        W 9486   1.176   7.320   2.868
 5287W        W 9487   5.909   5.585   9.077
 5288W        W 9488   6.523   2.846   3.594
 5289W        W 9489   9.712   1.149   2.990
 5290W        W 9490   4.087  11.346   0.877
 5291W        W 9491   0.901  11.050  10.652
 5292W        W 9492   8.291   6.798   0.949
 5293W        W 9493   7.128   7.013  11.949
 5294W        W 9494   9.959  10.873  11.880
 5295W        W 9495   3.733   6.927  11.156
 5296W        W 9496   2.184   8.066   0.591
 5297W        W 9497   9.644   4.203   1.339
 5298W        W 9498  10.644   0.701   1.381
 5299W        W 9499   7.589   7.343   2.304
 5300W        W 9500   1.990   5.344   1.873
 5301W        W 9501  10.572  10.485  11.774
 5302W        W 9502   1.599   7.004   1.910
 5303W        W 9503   8.294   4.019  10.286
 5304W        W 9504   5.668   3.221   2.551
 5305W        W 9505   6.070   0.319   2.259
 5306W        W 9506   9.569   7.677   1.443
 5307W        W 9507   9.905   3.199   9.793
 5308W        W 9508   9.614   4.896   1.719
 5309W        W 9509   8.212   3.660   9.521
 5310W        W 9510   6.698   3.974   1.706
 5311W        W 9511   9.965   8.521  10.712
 5312W        W 9512   8.480  10.263  10.039
 5313W        W 9513   0.303  11.458   9.242
 5314W        W 9514   3.657   3.609  10.988
 5315W        W 9515  11.459  10.728   9.687
 5316W        W 9516   0.172   7.204  11.351
 5317W        W 9517   8.940   9.382  11.426
 5318W        W 9518   2.618   0.829   9.217
 5319W        W 9519   0.545   3.436  10.312
 5320W        W 9520  10.218   2.731   2.103
 5321W        W 9521   5.626   8.539   1.765
 5322W        W 9522   3.966   7.995   1.778
 5323W        W 9523   8.260   3.837   3.981
 5324W        W 9524   1.220   4.055   9.248
 5325W        W 9525   2.268   1.887   9.759
 5326W        W 9526   9.867  10.790   2.235
 5327W        W 9527   5.225   9.831   3.346
 5328W        W 9528   1.968   2.158  11.285
 5329W        W 9529   7.999  10.441   2.417
 5330W        W 9530   1.997   3.150   8.339
 5331W        W 9531   0.396  10.015  10.926
 5332W        W 9532   8.562   3.567   3.137
 5333W        W 9533   9.932   7.696   2.418
 5334W        W 9534   6.565  10.931   9.339
 5335W        W 9535   2.787   5.303  11.342
 5336W        W 9536   4.962   2.515   8.626
 5337W        W 9537   6.726   8.639   0.820
 5338W        W 9538   1.855   6.921   8.764
 5339W        W 9539   3.647   0.141   2.724
 5340W        W 9540   4.976   8.301   8.930
 5341W        W 9541   7.030   9.349   8.588
 5342W        W 9542   1.250   7.586   2.062
 5343W        W 9543   7.997   5.914   0.780
 5344W        W 9544   5.632  10.956   0.943
 5345W        W 9545   0.660   8.772  10.086
 5346W        W 9546   4.004   6.199   1.834
 5347W        W 9547  10.725   7.398   3.545
 5348W        W 9548   1.616   6.682   8.319
 5349W        W 9549   0.315  11.006   9.467
 5350W        W 9550   5.217   4.710   1.654
 5351W        W 9551   2.793   4.826  11.625
 5352W        W 9552   3.156   3.332   1.759
 5353W        W 9553   0.144   7.912  10.001
 5354W        W 9554   6.316   6.476   2.311
 5355W        W 9555   2.209  10.982   1.864
 5356W        W 9556   0.440   0.516   2.437
 5357W        W 9557   9.725   7.050   0.280
 5358W        W 9558   0.887   7.090   1.417
 5359W        W 9559   5.214   1.360   1.684
 5360W        W 9560   1.718   4.794  10.263
 5361W        W 9561   5.794   5.165   0.302
 5362W        W 9562   1.773   8.104   9.622
 5363W        W 9563   1.195   1.899  11.288
 5364W        W 9564  10.963   9.963   9.732
 5365W        W 9565   3.936   9.392   3.385
 5366W        W 9566   6.905   2.623   2.647
 5367W        W 9567   6.383   2.529  10.337
 5368W        W 9568   2.223   1.469   0.078
 5369W        W 9569   1.149   1.311   3.628
 5370W        W 9570   7.760   0.356   3.720
 5371W        W 9571   2.279   5.779   9.134
 5372W        W 9572   8.946   7.479   2.154
 5373W        W 9573  11.238   5.137   1.187
 5374W        W 9574   1.409  10.364   2.947
 5375W        W 9575   2.866   3.216   3.518
 5376W        W 9576  10.487   8.895   2.943
 5377W        W 9577   8.635   7.361   9.442
 5378W        W 9578   1.910   4.530  10.910
 5379W        W 9579  10.092   1.308   1.220
 5380W        W 9580   7.571   1.794   9.587
 5381W        W 9581   3.143   5.616   0.097
 5382W        W 9582   4.043   5.158  11.029
 5383W        W 9583   2.673   3.064   8.998
 5384W        W 9584   0.187   1.807   1.528
 5385W        W 9585   9.789   1.320   0.777
 5386W        W 9586   8.943   0.765   1.902
 5387W        W 9587   7.564   5.069   1.229
 5388W        W 9588   6.711  10.384   2.708
 5389W        W 9589   0.839  10.287  10.086
 5390W        W 9590   0.082   9.369   0.758
 5391W        W 9591   7.665   1.026   9.593
 5392W        W 9592   7.696   6.519   1.832
 5393W        W 9593   8.143   6.698   9.904
 5394W        W 9594   3.703   9.072   2.013
 5395W        W 9595   1.643   8.872  10.945
 5396W        W 9596   7.006   5.994  11.835
 5397W        W 9597   6.245   0.795   2.411
 5398W        W 9598   8.045  10.842   2.791
 5399W        W 9599   0.210   5.456   1.898
 5400W        W 9600   8.107   3.753   1.420
 5401W        W 9601  10.900   1.393   0.007
 5402W        W 9602   8.986   8.567   2.719
 5403W        W 9603   8.445   1.458   9.496
 5404W        W 9604   0.290   7.593  11.709
 5405W        W 9605   7.105   6.677  11.335
 5406W        W 9606   2.321   7.928  10.992
 5407W        W 9607   0.352   1.278  11.840
 5408W        W 9608   3.957   6.295   1.281
 5409W        W 9609   6.671   7.468   3.639
 5410W        W 9610  11.326   8.461   2.192
 5411W        W 9611   9.123  11.394   0.722
 5412W        W 9612   0.161   5.160   0.920
 5413W        W 9613   9.899   0.404  11.839
 5414W        W 9614   5.081   0.250   0.227
 5415W        W 9615   6.245   3.495   2.257
 5416W        W 9616  10.803  10.385   3.402
 5417W        W 9617  11.179   5.296   8.751
 5418W        W 9618   5.705   8.629   3.306
 5419W        W 9619   8.989   3.657   3.439
 5420W        W 9620  11.194   1.518   8.855
 5421W        W 9621   2.734  11.284   0.215
 5422W        W 9622   5.707   2.384   1.035
 5423W        W 9623   5.099   7.731  11.645
 5424W        W 9624   1.192   8.239   0.127
 5425W        W 9625  10.622   7.845   1.415
 5426W        W 9626   7.663   3.048   0.692
 5427W        W 9627  11.413   3.787   3.126
 5428W        W 9628   4.359   5.004   1.419
 5429W        W 9629   0.178   9.236  10.322
 5430W        W 9630   8.729   7.963  10.373
 5431W        W 9631   1.721  10.831   9.424
 5432W        W 9632   9.361   6.639  11.785
 5433W        W 9633   9.147   7.321   9.557
 5434W        W 9634  11.495  11.331   9.798
 5435W        W 9635  10.742   0.245   9.934
 5436W        W 9636   1.975  10.698   8.980
 5437W        W 9637   7.761   6.305   8.265
 5438W        W 9638   0.200   5.545   9.504
 5439W        W 9639  10.827   7.168   8.945
 5440W        W 9640   6.447   2.788   8.982
 5441W        W 9641  10.102   0.739  10.535
 5442W        W 9642   6.778   6.118   1.332
 5443W        W 9643   9.513   3.313   2.271
 5444W        W 9644   5.255   5.826   2.359
 5445W        W 9645   7.307   0.460  10.036
 5446W        W 9646   8.938   0.770   2.421
 5447W        W 9647   3.660   3.601   0.713
 5448W        W 9648   0.189   3.063  10.256
 5449W        W 9649   0.424   8.699  10.894
 5450W        W 9650   7.590   6.354   3.473
 5451W        W 9651   1.285   7.843  10.936
 5452W        W 9652   4.001   1.016   0.410
 5453W        W 9653   9.470   2.799   9.908
 5454W        W 9654   7.290   1.004   0.257
 5455W        W 9655   6.832   0.793   8.401
 5456W        W 9656   5.540   3.786   1.806
 5457W        W 9657   9.528   1.370   1.290
 5458W        W 9658   0.503   7.061   9.012
 5459W        W 9659   0.207   8.721  10.394
 5460W        W 9660   0.300   3.858  11.133
 5461W        W 9661   1.418  10.880  11.786
 5462W        W 9662  10.741   9.353   2.256
 5463W        W 9663   2.021   8.335   3.218
 5464W        W 9664   1.645  10.380   2.135
 5465W        W 9665   4.659   8.118   9.657
 5466W        W 9666   9.422   6.881   9.844
 5467W        W 9667   3.674   5.404  10.357
 5468W        W 9668  11.380   6.041   0.037
 5469W        W 9669   3.353   7.218  10.964
 5470W        W 9670  10.894   8.551   8.642
 5471W        W 9671  10.739   6.989   0.397
 5472W        W 9672   3.346   9.131  11.068
 5473W        W 9673   1.630   9.626  11.490
 5474W        W 9674   5.887   1.522   9.795
 5475W        W 9675   4.888  10.393  10.176
 5476W        W 9676   1.328   5.733   0.390
 5477W        W 9677   2.133   1.748  11.580
 5478W        W 9678   9.822   0.644   3.029
 5479W        W 9679   7.709   9.045   9.913
 5480W        W 9680   7.156   7.094  10.549
 5481W        W 9681  11.480   9.834   8.713
 5482W        W 9682   1.366  10.446   9.979
 5483W        W 9683   5.468  10.742   2.448
 5484W        W 9684   5.000   7.992   3.363
 5485W        W 9685   3.239   0.190  11.451
 5486W        W 9686   2.271   7.523  10.351
 5487W        W 9687   1.474   4.271   2.363
 5488W        W 9688  10.493   2.450   9.943
 5489W        W 9689   4.958   6.407  11.728
 5490W        W 9690   7.056   1.775   1.143
 5491W        W 9691   0.427   0.350   0.515
 5492W        W 9692   8.359   7.198  11.024
 5493W        W 9693   2.358   3.066   2.785
 5494W        W 9694  10.568   6.007   2.196
 5495W        W 9695   4.292  11.385  11.527
 5496W        W 9696   2.417  10.201  11.513
 5497W        W 9697   0.966  11.471   8.574
 5498W        W 9698   9.428   0.790   2.116
 5499W        W 9699   7.722   6.627   8.692
 5500W        W 9700   6.590   8.582   3.831
 5501W        W 9701   2.373   0.385   9.153
 5502W        W 9702   8.455   5.046   9.674
 5503W        W 9703   3.713   0.848   2.065
 5504W        W 9704   1.721   0.364   1.647
 5505W        W 9705   4.270   2.267   9.287
 5506W        W 9706   0.365   8.059   9.124
 5507W        W 9707  10.006  10.034   0.724
 5508W        W 9708   0.426   3.389   1.484
 5509W        W 9709   4.215   0.031  11.004
 5510W        W 9710  11.123   1.452   2.327
 5511W        W 9711   5.105   6.963   1.058
 5512W        W 9712  11.461   5.580   1.429
 5513W        W 9713   1.384   7.071   0.103
 5514W        W 9714   1.401   3.741   1.028
 5515W        W 9715   3.304   7.619   0.794
 5516W        W 9716   6.112   1.700   3.493
 5517W        W 9717   8.495   8.415   3.569
 5518W        W 9718   9.922  10.411   3.530
 5519W        W 9719   9.528   7.745  10.428
 5520W        W 9720   8.049  10.987  10.096
 5521W        W 9721  10.859   8.690  10.020
 5522W        W 9722   2.504   4.326   2.136
 5523W        W 9723   8.677   8.528  11.762
 5524W        W 9724   2.394   6.078  10.437
 5525W        W 9725   2.896   8.902  10.720
 5526W        W 9726   7.122   5.748  11.367
 5527W        W 9727   2.880   9.336   0.274
 5528W        W 9728   5.087   9.075  11.466
 5529W        W 9729   3.441   0.213  10.982
 5530W        W 9730   4.625   4.558   0.493
 5531W        W 9731   0.641   0.520  10.867
 5532W        W 9732   8.395   7.872   3.109
 5533W        W 9733  10.397   5.620   0.904
 5534W        W 9734   1.829   5.693  11.655
 5535W        W 9735   2.040   4.697   9.872
 5536W        W 9736  11.041   5.311   1.978
 5537W        W 9737   4.835  10.438  11.464
 5538W        W 9738   4.427   4.048   3.240
 5539W        W 9739   7.277   2.270   8.799
 5540W        W 9740   3.695   1.771   1.656
 5541W        W 9741   8.399   4.152   9.279
 5542W        W 9742   7.855   3.253   0.238
 5543W        W 9743   4.365   3.240   3.656
 5544W        W 9744   8.988   4.988   1.448
 5545W        W 9745   4.238   7.031   8.783
 5546W        W 9746   7.774   0.909   0.460
 5547W        W 9747   6.136   4.540   1.310
 5548W        W 9748  10.334   6.419   9.997
 5549W        W 9749   5.874   9.406   0.338
 5550W        W 9750   4.181   1.369   0.824
 5551W        W 9751  11.197   9.855  10.196
 5552W        W 9752   7.229   9.549  10.384
 5553W        W 9753   6.007   4.266   2.606
 5554W        W 9754   4.944   2.320   2.688
 5555W        W 9755  10.330   9.544  10.326
 5556W        W 9756   2.585   9.829  11.118
 5557W        W 9757   1.441   1.712   3.101
 5558W        W 9758   5.547   5.397   2.259
 5559W        W 9759   4.900   7.103   1.515
 5560W        W 9760   0.386   1.294  11.311
 5561W        W 9761   5.570   4.616   9.015
 5562W        W 9762   5.913   6.524   9.466
 5563W        W 9763   0.238   6.801   2.097
 5564W        W 9764   9.910  10.452   1.236
 5565W        W 9765   2.299   3.350   1.321
 5566W        W 9766   4.976   9.109   8.582
 5567W        W 9767   8.537   3.875   1.724
 5568W        W 9768   1.512   4.789   2.689
 5569W        W 9769   6.246  11.455   1.414
 5570W        W 9770   1.860   6.918   3.151
 5571W        W 9771   3.155   3.606   0.769
 5572W        W 9772   7.704   9.202   1.294
 5573W        W 9773   7.884   8.070  10.203
 5574W        W 9774   9.573  11.395   0.990
 5575W        W 9775   6.759   6.582   9.941
 5576W        W 9776   3.050   5.512   2.485
 5577W        W 9777   7.319   8.562   2.790
 5578W        W 9778   3.392  10.929  10.809
 5579W        W 9779   8.032   1.320   1.258
 5580W        W 9780   5.929   3.066   0.324
 5581W        W 9781  11.278   1.064   3.554
 5582W        W 9782  10.311   3.698   1.702
 5583W        W 9783   4.596   3.359  10.036
 5584W        W 9784   8.507   7.671   9.059
 5585W        W 9785   7.764   5.263   8.590
 5586W        W 9786   1.723   3.144   2.252
 5587W        W 9787   3.144   7.038   9.928
 5588W        W 9788   2.276   2.439   1.683
 5589W        W 9789   9.490   7.384   9.960
 5590W        W 9790   7.497   0.252  11.159
 5591W        W 9791   6.612   2.345   1.382
 5592W        W 9792   8.648   7.635   9.891
 5593W        W 9793  10.972   3.579   0.449
 5594W        W 9794   3.597   2.352   0.461
 5595W        W 9795   8.128   6.609  11.287
 5596W        W 9796   6.940   0.344   1.113
 5597W        W 9797   0.928   5.712   9.004
 5598W        W 9798  10.295   5.644   2.440
 5599W        W 9799   4.203   6.912  11.327
 5600W        W 9800   0.117   0.735  10.811
 5601W        W 9801   1.451  11.363   0.844
 5602W        W 9802  10.001   0.322   9.129
 5603W        W 9803   2.216   1.911   8.718
 5604W        W 9804   1.389   1.419   1.750
 5605W        W 9805   9.122   9.942   3.106
 5606W        W 9806   8.613   1.150  11.007
 5607W        W 9807   9.267   2.647   2.535
 5608W        W 9808   9.158   0.018   0.218
 5609W        W 9809   7.519   8.775   9.159
 5610W        W 9810   2.780   1.590   1.489
 5611W        W 9811  10.679  10.598   2.930
 5612W        W 9812  10.488   8.275   3.467
 5613W        W 9813   8.370   7.911   1.360
 5614W        W 9814   2.147   0.689   2.853
 5615W        W 9815   6.439   1.143  11.192
 5616W        W 9816   7.192   6.463   1.729
 5617W        W 9817   5.431   5.285   9.549
 5618W        W 9818   0.119   1.620   2.718
 5619W        W 9819   3.166   2.828   9.924
 5620W        W 9820   3.010   4.706   2.981
 5621W        W 9821   2.047   5.152   0.658
 5622W        W 9822   6.051   9.347   9.616
 5623W        W 9823   9.048   5.130   2.383
 5624W        W 9824   8.466   0.401   1.249
 5625W        W 9825  10.343   6.498  11.007
 5626W        W 9826   7.077   8.413  11.095
 5627W        W 9827   4.056   4.748  10.721
 5628W        W 9828   2.340   7.712   8.986
 5629W        W 9829   6.558   3.068   4.120
 5630W        W 9830  11.231  11.025  11.064
 5631W        W 9831   0.010   3.445   9.075
 5632W        W 9832   3.000   8.354   9.058
 5633W        W 9833   6.237   9.307  11.988
 5634W        W 9834   2.257   2.818   9.826
 5635W        W 9835   9.906   6.170  11.456
 5636W        W 9836   8.688   6.585   1.773
 5637W        W 9837  10.427  10.473  10.782
 5638W        W 9838  10.037   4.091   0.891
 5639W        W 9839   7.022   0.766   3.142
 5640W        W 9840  10.395   4.500   2.878
 5641W        W 9841   8.747   2.288   1.816
 5642W        W 9842   9.209   3.842   9.429
 5643W        W 9843   5.491   5.039   9.990
 5644W        W 9844   6.925  10.782   2.356
 5645W        W 9845   3.512   7.730  11.947
 5646W        W 9846   0.221   2.705   1.532
 5647W        W 9847   1.849   8.190   1.989
 5648W        W 9848   9.147   9.081   9.774
 5649W        W 9849   1.184   4.790  11.452
 5650W        W 9850  11.384   9.826   9.229
 5651W        W 9851   8.599   9.353  10.628
 5652W        W 9852   7.976   2.334  10.684
 5653W        W 9853   0.509   8.053  11.831
 5654W        W 9854   4.499   2.814  10.645
 5655W        W 9855   8.915   1.569  11.186
 5656W        W 9856   3.481   3.796   1.171
 5657W        W 9857   6.438   3.517   0.877
 5658W        W 9858   6.560   2.864   1.360
 5659W        W 9859  10.449   3.296  10.635
 5660W        W 9860   3.709   8.284  11.299
 5661W        W 9861   4.164   6.605   0.760
 5662W        W 9862   4.745   0.315  10.354
 5663W        W 9863  10.053   0.114  11.427
 5664W        W 9864  10.990  11.284   9.928
 5665W        W 9865   0.831   5.080   3.250
 5666W        W 9866  10.073   1.381   2.440
 5667W        W 9867   8.879   4.176   0.280
 5668W        W 9868   0.792   9.934   3.241
 5669W        W 9869  10.849   9.671   2.667
 5670W        W 9870   3.432   3.149   0.885
 5671W        W 9871  11.032   6.964   3.569
 5672W        W 9872   1.280   2.335   2.764
 5673W        W 9873   2.140  10.849   1.369
 5674W        W 9874   7.145  10.335   2.422
 5675W        W 9875   3.418  11.071   9.937
 5676W        W 9876   2.226   3.306   9.625
 5677W        W 9877   3.504   3.965  10.623
 5678W        W 9878   1.859   5.524   9.333
 5679W        W 9879   8.674   5.187   2.870
 5680W        W 9880   5.537   7.361   9.803
 5681W        W 9881   4.334   7.574   0.816
 5682W        W 9882   0.938   2.681   2.634
 5683W        W 9883   0.161   6.833  10.509
 5684W        W 9884   5.384   4.127   3.967
 5685W        W 9885   8.208   8.092   8.940
 5686W        W 9886   8.887   5.481  10.236
 5687W        W 9887   7.476   2.363  10.489
 5688W        W 9888   7.707  11.242   9.781
 5689W        W 9889   0.188   5.278   8.960
 5690W        W 9890   1.887   6.987   1.455
 5691W        W 9891   1.009   5.307   2.150
 5692W        W 9892   7.640   0.577   1.753
 5693W        W 9893  11.407   5.685   9.932
 5694W        W 9894   2.627  11.246   9.523
 5695W        W 9895  10.844   7.175  10.003
 5696W        W 9896   3.735   4.765   2.245
 5697W        W 9897   4.688   9.931   0.530
 5698W        W 9898   7.888   1.546  11.919
 5699W        W 9899   0.740   0.424   8.668
 5700W        W 9900  11.327   0.027  11.294
 5701W        W 9901   0.453   8.004   0.615
 5702W        W 9902  10.242  11.337  10.300
 5703W        W 9903   1.445   4.229   0.231
 5704W        W 9904   4.933   1.298   3.253
 5705W        W 9905   7.693   8.983  10.931
 5706W        W 9906   6.893   8.859   8.536
 5707W        W 9907   3.671   5.493  10.868
 5708W        W 9908   4.940   4.346  10.511
 5709W        W 9909   0.382   8.777   0.324
 5710W        W 9910   6.952   4.581  10.357
 5711W        W 9911   8.235   9.594   8.812
 5712W        W 9912   5.033   2.891  10.624
 5713W        W 9913   9.750   4.545  10.634
 5714W        W 9914  11.142   8.478  10.423
 5715W        W 9915   4.464   8.031   1.904
 5716W        W 9916   6.422   1.315   1.237
 5717W        W 9917   1.433   9.076   1.197
 5718W        W 9918   9.925   6.474   3.589
 5719W        W 9919   1.307   7.169   2.333
 5720W        W 9920   8.078   4.168   1.077
 5721W        W 9921   4.810   5.237   1.859
 5722W        W 9922   0.389   3.480   9.431
 5723W        W 9923   6.955   1.707   2.123
 5724W        W 9924   4.449  10.285   0.918
 5725W        W 9925  10.030   8.082   9.819
 5726W        W 9926  10.296   3.976  11.979
 5727W        W 9927   8.392   6.168   1.699
 5728W        W 9928  11.297   3.407   0.860
 5729W        W 9929   4.469   6.303   1.164
 5730W        W 9930   0.018   8.552   0.647
 5731W        W 9931   8.825   1.155   3.381
 5732W        W 9932   3.881   7.122   1.479
 5733W        W 9933   9.029   4.334   0.744
 5734W        W 9934   7.733   1.499   1.640
 5735W        W 9935  11.374  10.128  11.634
 5736W        W 9936   4.154   5.056   2.351
 5737W        W 9937   8.934   7.583   1.657
 5738W        W 9938   3.182   7.704   9.430
 5739W        W 9939   2.290   4.796   0.957
 5740W        W 9940   1.422  11.427   8.822
 5741W        W 9941   1.428  11.314  11.531
 5742W        W 9942   7.140   2.923   8.822
 5743W        W 9943  11.176   9.278  10.996
 5744W        W 9944   0.438   3.731   3.205
 5745W        W 9945   1.016   8.471  10.307
 5746W        W 9946   8.825   5.992   8.371
 5747W        W 9947   6.362   0.804  10.687
 5748W        W 9948   5.515   3.699   8.152
 5749W        W 9949   9.530   8.628   3.257
 5750W        W 9950   5.908   3.386   1.878
 5751W        W 9951   2.276   8.448  10.331
 5752W        W 9952   5.741   9.112   3.560
 5753W        W 9953   3.606   1.881   9.503
 5754W        W 9954   1.342   4.779   2.206
 5755W        W 9955   6.055   8.346   2.677
 5756W        W 9956  10.378   6.583   3.358
 5757W        W 9957   0.300  10.567   9.170
 5758W        W 9958   9.555   5.553   1.129
 5759W        W 9959   8.520   0.924   2.119
 5760W        W 9960   2.898   7.876   1.321
 5761W        W 9961   0.101  10.583  11.725
 5762W        W 9962   5.191   0.971  11.431
 5763W        W 9963   9.069   7.596   2.650
 5764W        W 9964   2.271   0.861  10.851
 5765W        W 9965   6.279  10.516  10.783
 5766W        W 9966   3.535   3.801   3.533
 5767W        W 9967  10.565   9.999  10.984
 5768W        W 9968   6.170   1.733  11.027
 5769W        W 9969   8.102   7.673  11.192
 5770W        W 9970   2.153   8.902  11.018
 5771W        W 9971   8.914   6.055   0.784
 5772W        W 9972  10.189   4.247  10.585
 5773W        W 9973   3.280   9.081   9.069
 5774W        W 9974  10.506   9.030   8.910
 5775W        W 9975  10.042   9.017   2.188
 5776W        W 9976  10.332   5.391  10.584
 5777W        W 9977   1.675   3.798   2.828
 5778W        W 9978  11.266  10.281   0.615
 5779W        W 9979   1.940  11.437   1.842
 5780W        W 9980   4.514  10.916  11.450
 5781W        W 9981   2.761   2.043   9.047
 5782W        W 9982   6.138   9.054   2.291
 5783W        W 9983   8.965   0.276   2.640
 5784W        W 9984   9.555   6.421   9.588
 5785W        W 9985   1.370   3.824  10.952
 5786W        W 9986   7.435   7.616  11.704
 5787W        W 9987   0.992   3.669  10.403
 5788W        W 9988   4.927   7.213   0.585
 5789W        W 9989  10.465  10.744   2.460
 5790W        W 9990   3.332   3.766   9.802
 5791W        W 9991   1.764  11.399   3.611
 5792W        W 9992   7.195   7.503   1.073
 5793W        W 9993   3.133  10.800  11.295
 5794W        W 9994   0.273  10.086   1.410
 5795W        W 9995   8.629   1.993   1.417
 5796W        W 9996   5.169   1.932  10.942
 5797W        W 9997   4.706   6.066  10.788
 5798W        W 9998  10.068   7.593   1.366
 5799W        W 9999   2.357   9.857   2.310
 5800W        W10000  10.336   4.958   8.843
 5801W        W10001   4.674  10.571   1.843
 5802W        W10002   7.003   0.372   0.129
 5803W        W10003   0.602  11.355  11.793
 5804W        W10004   9.208   5.215  11.312
 5805W        W10005   8.055   5.681   8.725
 5806W        W10006   8.560  11.029   1.774
 5807W        W10007   2.517   4.771   2.880
 5808W        W10008   3.699   3.066   9.047
 5809W        W10009   3.474   9.465   3.602
 5810W        W10010   2.590   9.370   0.724
 5811W        W10011   2.703   4.274  10.256
 5812W        W10012   3.685   4.257   2.177
 5813W        W10013   8.461   9.574   0.165
 5814W        W10014   7.725   6.418   9.173
 5815W        W10015   1.923   0.986   0.747
 5816W        W10016   8.988  10.858   2.540
 5817W        W10017   2.834   5.559  10.772
 5818W        W10018  10.890  10.529   0.878
 5819W        W10019   5.647  10.132   9.845
 5820W        W10020   5.659   9.587   3.230
 5821W        W10021   6.549   1.228   2.348
 5822W        W10022   6.107   1.527   8.967
 5823W        W10023   0.861   4.858   8.520
 5824W        W10024   8.708   4.768   9.316
 5825W        W10025   6.208   1.644   2.984
 5826W        W10026   6.677   0.575  11.769
 5827W        W10027   4.699   1.310   0.791
 5828W        W10028   9.460   8.766  10.834
 5829W        W10029   2.638   8.985  11.154
 5830W        W10030   3.654   2.377   1.955
 5831W        W10031  11.498   8.941   2.358
 5832W        W10032   1.857   8.723   1.887
 5833W        W10033   8.943   8.467  11.034
 5834W        W10034   8.035   4.793   1.722
 5835W        W10035   7.085   6.503   1.186
 5836W        W10036   5.969   8.475   0.327
 5837W        W10037   9.880   1.878   2.492
 5838W        W10038   8.648   6.427   9.155
 5839W        W10039   6.239   3.640   3.136
 5840W        W10040   2.556   8.807   1.268
 5841W        W10041   3.659   9.960   1.330
 5842W        W10042   0.881   4.628  11.823
 5843W        W10043  11.419   3.649  11.466
 5844W        W10044  10.471   5.713  11.921
 5845W        W10045   7.491   4.065   9.824
 5846W        W10046   7.888   7.926   3.136
 5847W        W10047   1.461   9.890   9.293
 5848W        W10048  10.496   0.104   2.806
 5849W        W10049   2.235  10.656   0.884
 5850W        W10050   2.883   3.436  11.366
 5851W        W10051  11.440   1.062  11.285
 5852W        W10052   8.287   3.719   0.866
 5853W        W10053   5.333   9.779   1.151
 5854W        W10054   0.300   7.449   9.310
 5855W        W10055  10.411   4.213   1.780
 5856W        W10056   8.922   0.125   8.781
 5857W        W10057   0.362   8.364   1.496
 5858W        W10058  10.781   1.835   1.220
 5859W        W10059   1.175  10.337   2.328
 5860W        W10060  10.082   3.262  11.458
 5861W        W10061   6.396   7.792  10.903
 5862W        W10062   6.046   4.322   0.829
 5863W        W10063   6.650   1.286   0.430
 5864W        W10064   8.015   4.263  11.130
 5865W        W10065   8.727   5.818  10.575
 5866W        W10066   7.413   8.292  10.083
 5867W        W10067   8.928   8.078   9.888
 5868W        W10068   6.747  11.424   1.338
 5869W        W10069   1.612   6.184   9.522
 5870W        W10070   1.706   0.950  10.151
 5871W        W10071   1.625   2.515   3.539
 5872W        W10072   6.843   1.413   1.491
 5873W        W10073   5.240   2.160  11.835
 5874W        W10074  11.360   0.404  11.729
 5875W        W10075   2.314   8.957   2.024
 5876W        W10076   8.919   8.518   2.190
 5877W        W10077   3.913   7.052   3.240
 5878W        W10078  10.855   5.874   3.601
 5879W        W10079   2.476   7.092  10.529
 5880W        W10080  10.501   5.647   1.401
 5881W        W10081   3.190   5.629  11.532
 5882W        W10082   7.939   7.030   9.594
 5883W        W10083   6.695   0.314   3.049
 5884W        W10084   9.379   3.187   8.516
 5885W        W10085   4.713   7.058   9.033
 5886W        W10086   5.125   7.156  11.008
 5887W        W10087   8.329   4.813   2.163
 5888W        W10088  11.302   4.787   0.284
 5889W        W10089   2.346   8.643   2.940
 5890W        W10090   6.476   8.009   8.683
 5891W        W10091  11.043   2.848   1.867
 5892W        W10092   6.535   8.470   9.906
 5893W        W10093   5.555   3.276   9.815
 5894W        W10094  10.479   5.534  11.040
 5895W        W10095  10.274   0.291   1.353
 5896W        W10096   3.418  10.196   0.640
 5897W        W10097   4.918   1.153  10.504
 5898W        W10098   2.661  10.961  11.262
 5899W        W10099   7.531  10.164  11.919
 5900W        W10100   2.107   6.656   0.363
 5901W        W10101  10.360   1.066   9.685
 5902W        W10102   7.326   8.346   1.391
 5903W        W10103   2.547   8.880  10.355
 5904W        W10104   2.682   5.837   1.612
 5905W        W10105   7.509   9.580   2.809
 5906W        W10106   8.654   3.277   2.619
 5907W        W10107   6.488  11.385   2.823
 5908W        W10108   5.312   4.775   9.427
 5909W        W10109   1.668   9.759  10.111
 5910W        W10110   0.258   7.618   2.748
 5911W        W10111   2.881  10.437   1.392
 5912W        W10112  10.395   3.823   1.209
 5913W        W10113   6.223   8.161   9.096
 5914W        W10114   9.520   0.226   0.606
 5915W        W10115   6.020   7.132   1.702
 5916W        W10116   4.477  10.496  10.594
 5917W        W10117   0.394  11.028   8.970
 5918W        W10118  11.074   1.889   0.789
 5919W        W10119   3.378   9.775   0.937
 5920W        W10120   5.431   1.057  10.426
 5921W        W10121   6.556   9.518   1.651
 5922W        W10122   6.246   1.943   8.413
 5923W        W10123   0.290   8.488   8.798
 5924W        W10124   1.659   3.146  11.946
 5925W        W10125   9.005   8.538   3.286
 5926W        W10126   4.683   8.773   9.799
 5927W        W10127   9.305   2.832   8.921
 5928W        W10128   7.264  11.493   1.331
 5929W        W10129   6.301   8.796   0.026
 5930W        W10130   9.483   6.170   8.710
 5931W        W10131  10.007   4.566   1.778
 5932W        W10132   1.749   1.998   3.551
 5933W        W10133   1.058   2.305   3.560
 5934W        W10134  11.263   9.463  10.520
 5935W        W10135   2.612   1.097   8.776
 5936W        W10136  10.877   4.736   9.972
 5937W        W10137   2.121   6.806  10.769
 5938W        W10138   7.132   7.959  11.949
 5939W        W10139   1.440  10.887  10.739
 5940W        W10140   9.269   7.504  11.913
 5941W        W10141   4.227   8.480   1.843
 5942W        W10142  10.014   5.773   1.227
 5943W        W10143   4.464  10.722   2.295
 5944W        W10144  10.068   2.650  11.983
 5945W        W10145   2.743   8.490   2.022
 5946W        W10146  10.521   4.541  10.306
 5947W        W10147   7.398   9.859  10.983
 5948W        W10148   4.228  11.202   2.252
 5949W        W10149   8.272   8.562   0.766
 5950W        W10150   8.978   6.783   0.505
 5951W        W10151   6.708   1.860   9.807
 5952W        W10152   1.609   0.686   0.428
 5953W        W10153   9.179   6.737   2.645
 5954W        W10154   9.002   7.379   0.789
 5955W        W10155   7.111   5.568   9.973
 5956W        W10156   2.642   9.944   1.348
 5957W        W10157  11.322   0.679   0.160
 5958W        W10158   7.123   2.529   0.262
 5959W        W10159   5.307   5.237   1.497
 5960W        W10160   5.220   0.220  10.183
 5961W        W10161  10.995   8.892   2.299
 5962W        W10162   0.690   9.251   8.883
 5963W        W10163   7.497   1.837   2.457
 5964W        W10164  10.984   5.975   8.993
 5965W        W10165   2.664  11.467   2.782
 5966W        W10166   0.694   4.115  11.533
 5967W        W10167   8.886   5.576  11.016
 5968W        W10168  11.178   7.218  11.476
 5969W        W10169   5.795   6.977  10.040
 5970W        W10170   9.190   2.327   3.490
 5971W        W10171   1.783  11.286   2.302
 5972W        W10172   6.941   2.217  10.082
 5973W        W10173  10.411   7.542   8.845
 5974W        W10174   0.895   0.220   1.650
 5975W        W10175   8.604   8.986  11.484
 5976W        W10176   1.418   9.834   2.009
 5977W        W10177   4.263   4.333   2.828
 5978W        W10178  10.069   5.071   1.941
 5979W        W10179  10.398  11.079  11.612
 5980W        W10180  10.613   3.171   2.888
 5981W        W10181  10.967   7.675  10.794
 5982W        W10182   7.033   7.117  11.051
 5983W        W10183   9.360   9.525  11.697
 5984W        W10184  10.600   8.019   0.902
 5985W        W10185   5.044   5.237  10.964
 5986W        W10186   1.596   1.943   2.648
 5987W        W10187   1.455   4.507   1.095
 5988W        W10188   9.240   7.052  11.498
 5989W        W10189   0.183   9.453   2.590
 5990W        W10190   1.057   6.699   0.320
 5991W        W10191  11.419   1.491  11.584
 5992W        W10192   6.249   8.954   9.345
 5993W        W10193   3.860  10.828   2.314
 5994W        W10194   6.139   5.690  11.749
 5995W        W10195   5.550   1.849   2.676
 5996W        W10196   2.503   8.963   9.485
 5997W        W10197  10.033  10.965   0.435
 5998W        W10198   9.998   8.573   3.472
 5999W        W10199   7.073   7.020   3.450
 6000W        W10200   4.181  10.015  10.280
 6001W        W10201   3.330  10.343  11.291
 6002W        W10202   3.015   6.237   1.592
 6003W        W10203   2.741   0.425   3.011
 6004W        W10204   6.155  11.027  11.923
 6005W        W10205   7.994   6.104   2.005
 6006W        W10206   4.536   4.315  11.388
 6007W        W10207   5.047   0.176   0.732
 6008W        W10208   4.044   9.711  11.068
 6009W        W10209   9.965   8.582   2.965
 6010W        W10210   5.116   3.581   3.161
 6011W        W10211  10.449   1.923  10.059
 6012W        W10212   2.717   5.494   3.547
 6013W        W10213   7.669   9.859  10.512
 6014W        W10214   8.267   5.564   1.217
 6015W        W10215   3.892   0.780  11.736
 6016W        W10216   1.034   7.007   3.609
 6017W        W10217   2.378   7.953   3.282
 6018W        W10218   0.508   7.942   3.550
 6019W        W10219   7.934   1.428   9.735
 6020W        W10220   1.331   2.527   8.836
 6021W        W10221   8.249   8.070  10.556
 6022W        W10222  10.836   0.997   2.225
 6023W        W10223   0.499   1.913   1.012
 6024W        W10224   9.388   9.620   9.417
 6025W        W10225   7.934   5.176   2.267
 6026W        W10226   8.799   4.601   2.265
 6027W        W10227   5.130   3.692   0.201
 6028W        W10228   9.289   7.146   2.358
 6029W        W10229   8.347   0.446   9.433
 6030W        W10230   7.900  11.251   0.761
 6031W        W10231   1.004   7.327  10.929
 6032W        W10232   8.939   5.196   9.815
 6033W        W10233   6.512  10.271   0.318
 6034W        W10234   6.997   3.580   2.671
 6035W        W10235   6.198  11.435   1.918
 6036W        W10236   6.086   9.503   3.516
 6037W        W10237   1.480   8.863   3.595
 6038W        W10238   5.558   9.502   0.759
 6039W        W10239  11.005   3.225   9.112
 6040W        W10240   0.729   6.509   3.508
 6041W        W10241  11.492   5.357  11.222
 6042W        W10242   2.719   4.024   2.506
 6043W        W10243   9.775   3.087   0.031
 6044W        W10244   7.093   4.456  10.858
 6045W        W10245   3.807   6.965   0.634
 6046W        W10246   7.413   6.686   2.251
 6047W        W10247  11.039  10.983   9.531
 6048W        W10248   6.974   8.672  11.578
 6049W        W10249   4.659   7.224   1.045
 6050W        W10250   1.727   0.304   2.145
 6051W        W10251   5.503   4.554   9.846
 6052W        W10252  10.401   3.043  11.093
 6053W        W10253  10.188   7.044   1.402
 6054W        W10254   2.444   8.628   9.887
 6055W        W10255   8.439   0.299  10.983
 6056W        W10256  10.976   5.392   3.490
 6057W        W10257  10.594   1.422   2.405
 6058W        W10258   9.588   8.243   0.890
 6059W        W10259   3.672   9.488  11.336
 6060W        W10260   6.580   0.327  10.553
 6061W        W10261   3.665   5.762   9.981
 6062W        W10262   6.989   1.748  11.766
 6063W        W10263   9.854   8.146  10.324
 6064W        W10264  10.336   3.976   2.591
 6065W        W10265   8.248   2.189   2.756
 6066W        W10266  10.214   2.169  11.387
 6067W        W10267   2.410  10.469   3.102
 6068W        W10268   3.762   9.809  10.085
 6069W        W10269   8.652   0.945   8.623
 6070W        W10270   2.596   4.864   1.794
 6071W        W10271   6.057   3.247   2.854
 6072W        W10272   2.681   3.388   9.405
 6073W        W10273  10.018   7.682  10.623
 6074W        W10274   6.899   5.868  10.921
 6075W        W10275   5.920  10.823   2.203
 6076W        W10276   4.495   7.663   1.299
 6077W        W10277   9.624  11.078   1.422
 6078W        W10278   5.910   5.027   2.229
 6079W        W10279   9.924   2.203   9.403
 6080W        W10280   4.541   4.442   4.034
 6081W        W10281   9.078   8.224   0.971
 6082W        W10282   6.128   8.567  10.743
 6083W        W10283  10.180  10.379   2.146
 6084W        W10284   6.270   8.484   8.692
 6085W        W10285   7.704   3.501   1.196
 6086W        W10286   1.838   1.727   2.241
 6087W        W10287   3.129  11.339   9.600
 6088W        W10288   8.960   0.662  11.658
 6089W        W10289   0.777   9.260   9.847
 6090W        W10290   9.353   4.751   0.819
 6091W        W10291   2.201   5.724   1.460
 6092W        W10292   0.768   4.289   9.100
 6093W        W10293   8.912   3.912   9.018
 6094W        W10294   0.289   9.774   0.450
 6095W        W10295   1.851   7.748   8.672
 6096W        W10296   4.894   8.934   1.033
 6097W        W10297  10.878   5.038   9.543
 6098W        W10298   7.381   9.656   9.298
 6099W        W10299   4.267   9.469   2.513
 6100W        W10300  11.087   4.304   1.014
 6101W        W10301   0.895   4.182   2.183
 6102W        W10302   5.799   6.137  10.220
 6103W        W10303   3.449   9.524   9.812
 6104W        W10304   9.941   1.707   1.540
 6105W        W10305   9.487   5.376   0.164
 6106W        W10306   2.834   5.727   0.710
 6107W        W10307   6.996   4.724  11.660
 6108W        W10308   8.773   8.568   1.713
 6109W        W10309   3.895   9.821   0.878
 6110W        W10310   9.556   3.757  11.347
 6111W        W10311   3.677   0.251  10.530
 6112W        W10312   4.638   7.014  11.064
 6113W        W10313   7.817   0.841  11.238
 6114W        W10314   8.483  11.283  10.040
 6115W        W10315   2.767  10.632   0.184
 6116W        W10316   8.965   2.825  10.612
 6117W        W10317   4.458  10.921   3.387
 6118W        W10318  10.328  10.642  11.314
 6119W        W10319   3.742   8.106   0.329
 6120W        W10320   2.858   8.193  11.491
 6121W        W10321   4.751   3.314  10.537
 6122W        W10322   1.170   8.965   9.751
 6123W        W10323  10.111   1.457  11.347
 6124W        W10324   6.244   1.376   9.468
 6125W        W10325   0.483   7.848  10.405
 6126W        W10326   3.113   8.898   0.435
 6127W        W10327   3.351   0.431   0.506
 6128W        W10328   5.194   8.150   9.428
 6129W        W10329  11.200   2.813   9.353
 6130W        W10330   9.348  10.532   2.327
 6131W        W10331   9.060  10.431   3.338
 6132W        W10332   0.353   8.859  11.381
 6133W        W10333   2.180   2.397   9.528
 6134W        W10334   8.042   0.372   1.502
 6135W        W10335   9.695  11.455   9.429
 6136W        W10336   1.684   4.800  11.557
 6137W        W10337   1.972  10.546   1.768
 6138W        W10338   8.148   8.898   0.348
 6139W        W10339   6.287   6.724   1.856
 6140W        W10340   4.211   4.632  11.771
 6141W        W10341   7.104   8.961   0.568
 6142W        W10342   4.193   2.741   3.606
 6143W        W10343   2.989   3.734   3.645
 6144W        W10344   3.726   8.848   9.228
 6145W        W10345   6.440   0.462   0.206
 6146W        W10346   6.156  11.287   2.395
 6147W        W10347   5.163   6.592   0.683
 6148W        W10348   5.170  11.053   2.723
 6149W        W10349   2.725   0.188  10.442
 6150W        W10350   7.700  10.790   2.165
 6151W        W10351   8.148  11.046   1.427
 6152W        W10352   5.448   8.050  10.736
 6153W        W10353  10.296   1.288   0.690
 6154W        W10354   5.605   8.569   3.793
 6155W        W10355   9.515   2.533   0.620
 6156W        W10356   5.190   4.465   2.826
 6157W        W10357   0.922   3.197   3.622
 6158W        W10358   2.372  11.150   0.976
 6159W        W10359   3.646   6.912  10.659
 6160W        W10360   6.612   5.652  10.102
 6161W        W10361   6.443   2.396  11.454
 6162W        W10362   2.007   8.438  10.876
 6163W        W10363   1.186   9.451   9.527
 6164W        W10364   6.310   7.188   0.435
 6165W        W10365   8.808   1.674   0.164
 6166W        W10366   9.764   2.824   2.342
 6167W        W10367   4.026   4.622   1.388
 6168W        W10368   5.510  10.062   2.984
 6169W        W10369   6.315  10.305   8.971
 6170W        W10370   7.023  10.974   9.044
 6171W        W10371   5.732   2.836   2.895
 6172W        W10372   1.161   1.670  11.758
 6173W        W10373  11.484   9.101  11.953
 6174W        W10374   7.888   5.467  11.879
 6175W        W10375   5.651   7.180  11.048
 6176W        W10376   4.301   2.040   8.800
 6177W        W10377   6.191   6.462   1.445
 6178W        W10378   3.273   9.968   2.799
 6179W        W10379   0.721   1.159   0.194
 6180W        W10380   0.283  10.066   9.044
 6181W        W10381   7.138   9.988   9.605
 6182W        W10382  10.907   6.253   2.497
 6183W        W10383   6.652  10.359   2.204
 6184W        W10384  10.853   3.428   9.632
 6185W        W10385   7.933   1.315  10.253
 6186W        W10386   9.819   4.235   9.813
 6187W        W10387   7.309   0.721   2.289
 6188W        W10388   0.926   8.055   2.515
 6189W        W10389  10.384   9.925   9.978
 6190W        W10390   3.739   6.478   0.351
 6191W        W10391   5.373   5.492   2.738
 6192W        W10392   1.848   4.103   1.338
 6193W        W10393   9.100  10.739   8.955
 6194W        W10394  10.094   1.730   9.071
 6195W        W10395  10.277   0.769   3.283
 6196W        W10396   1.331   6.593  11.349
 6197W        W10397   6.519   1.756   9.259
 6198W        W10398   9.322   0.467   8.741
 6199W        W10399   6.625  10.541   9.679
 6200W        W10400   1.783   8.501  10.422
 6201W        W10401   6.563   4.201   0.245
 6202W        W10402   0.733   4.561   3.416
 6203W        W10403   9.317   4.159   0.011
 6204W        W10404   6.691   9.453   1.161
 6205W        W10405   9.936  10.587   1.742
 6206W        W10406   2.108   7.602   0.240
 6207W        W10407   8.883   1.032   2.879
 6208W        W10408   8.551  10.350   3.151
 6209W        W10409   6.979  11.442  11.871
 6210W        W10410   3.385   9.904   1.772
 6211W        W10411   6.200   8.585   0.845
 6212W        W10412  11.201   7.917  10.368
 6213W        W10413  11.222   0.860   3.046
 6214W        W10414   7.733   0.764  10.022
 6215W        W10415   8.143   5.426   0.742
 6216W        W10416   9.054   5.694   1.108
 6217W        W10417   6.127   7.535   3.584
 6218W        W10418   8.836   1.409   0.892
 6219W        W10419   5.975  11.345  10.379
 6220W        W10420   5.964   8.079   8.637
 6221W        W10421   8.468   7.419   2.334
 6222W        W10422   4.582   0.066  11.992
 6223W        W10423  10.009   3.299   2.259
 6224W        W10424   8.718   8.415   9.570
 6225W        W10425  11.346   3.208   2.148
 6226W        W10426   0.689   1.655   0.005
 6227W        W10427   4.883   2.293   0.620
 6228W        W10428   9.320   8.312   3.634
 6229W        W10429  10.282   2.669  11.448
 6230W        W10430  10.580   8.110   9.182
 6231W        W10431   8.547   8.802   3.262
 6232W        W10432   0.921  10.298  11.851
 6233W        W10433   8.195   5.974  10.480
 6234W        W10434   2.109  10.033   3.656
 6235W        W10435   3.608   7.237   0.082
 6236W        W10436   4.748   9.892  11.427
 6237W        W10437   0.361  10.303  10.496
 6238W        W10438   9.295   0.606  10.951
 6239W        W10439   5.047   1.819   2.784
 6240W        W10440   1.994  10.220   0.755
 6241W        W10441   1.011   6.056  10.796
 6242W        W10442   4.904   7.532   3.064
 6243W        W10443   5.457   0.458   3.225
 6244W        W10444   7.933   0.487  10.869
 6245W        W10445   4.560   3.199   1.693
 6246W        W10446   2.270   6.725   1.799
 6247W        W10447   9.323   1.441   0.015
 6248W        W10448   3.789   0.316   1.909
 6249W        W10449   7.483   3.550  10.007
 6250W        W10450   4.524   7.516  11.820
 6251W        W10451   4.598   3.885  10.051
 6252W        W10452   5.748   5.689   9.560
 6253W        W10453   8.876  10.278  11.531
 6254W        W10454   5.478   1.371  11.512
 6255W        W10455   5.205   0.475   9.753
 6256W        W10456  11.452   6.895   2.645
 6257W        W10457   1.938   8.107  11.300
 6258W        W10458   5.979   5.322   0.748
 6259W        W10459  10.826   7.284  10.498
 6260W        W10460   5.676   8.065   1.535
 6261W        W10461   0.883  11.005   2.777
 6262W        W10462   0.815   6.375  11.999
 6263W        W10463   1.332  11.243   2.677
 6264W        W10464   7.272   6.897   1.447
 6265W        W10465   4.753   9.331  11.188
 6266W        W10466   8.908   9.016   2.052
 6267W        W10467   8.577   4.554   0.459
 6268W        W10468   8.897   4.240   1.675
 6269W        W10469   7.845   3.529   3.629
 6270W        W10470   5.622   8.033   0.988
 6271W        W10471   0.881   9.680  11.021
 6272W        W10472   9.929  11.482   2.153
 6273W        W10473   1.803   0.366   3.137
 6274W        W10474   9.068   6.224  11.149
 6275W        W10475   9.884  10.458  10.599
 6276W        W10476   7.834   5.607   2.588
 6277W        W10477  11.321   6.522   2.301
 6278W        W10478   0.142   2.189  10.297
 6279W        W10479   3.526   4.260  11.502
 6280W        W10480  10.504   0.391  10.470
 6281W        W10481   9.682   0.724   1.645
 6282W        W10482   3.974   3.653   1.202
 6283W        W10483   2.592   6.177   0.743
 6284W        W10484  11.085   4.698  11.818
 6285W        W10485   1.641   4.800   0.542
 6286W        W10486   4.156  10.558  11.016
 6287W        W10487   1.631   1.811   8.538
 6288W        W10488   3.679   8.362   9.431
 6289W        W10489   1.409  10.739   2.538
 6290W        W10490   4.292  10.331   9.604
 6291W        W10491   7.298   3.682   3.147
 6292W        W10492   1.191   4.552   0.644
 6293W        W10493   7.587  10.344  11.435
 6294W        W10494   9.010   9.825   9.123
 6295W        W10495   3.314   2.115   0.847
 6296W        W10496   4.199   2.008   2.228
 6297W        W10497   3.374   1.807  10.799
 6298W        W10498   1.364   8.060   2.271
 6299W        W10499   3.109   4.277   9.120
 6300W        W10500   7.140   3.050   1.913
 6301W        W10501   2.707   9.100   2.832
 6302W        W10502   7.671   3.652   9.511
 6303W        W10503  11.004  10.996   3.111
 6304W        W10504   7.728   0.400  10.393
 6305W        W10505   2.332   4.362   2.628
 6306W        W10506   8.428   2.836   9.525
 6307W        W10507   3.401   4.467   8.533
 6308W        W10508   9.198   6.925   3.853
 6309W        W10509   6.703   2.836  10.063
 6310W        W10510   7.843   0.985   8.884
 6311W        W10511   3.852   6.473  10.454
 6312W        W10512   5.691   1.864   1.122
 6313W        W10513   9.532   1.888   9.287
 6314W        W10514   8.945  11.219   9.098
 6315W        W10515   1.482   0.744   3.004
 6316W        W10516   2.718   8.674  11.560
 6317W        W10517   6.853  10.077   3.123
 6318W        W10518   6.927   1.947   8.993
 6319W        W10519   3.690   9.380  10.333
 6320W        W10520   9.460   0.514   3.394
 6321W        W10521   5.047   4.615   8.187
 6322W        W10522  10.008   2.346   0.396
 6323W        W10523   2.145   4.609   1.890
 6324W        W10524   6.755   8.378   8.471
 6325W        W10525  10.650   6.083  10.262
 6326W        W10526   7.483   1.257  10.021
 6327W        W10527   4.101   1.914   9.620
 6328W        W10528   5.936   9.129   8.996
 6329W        W10529   1.421   3.619   8.997
 6330W        W10530   9.583   6.122  11.044
 6331W        W10531   1.073   4.509   2.574
 6332W        W10532   1.834   3.890   8.822
 6333W        W10533   1.926   2.105   1.387
 6334W        W10534   3.711   3.128  10.824
 6335W        W10535   5.662   1.000   0.846
 6336W        W10536   9.415   0.791  11.409
 6337W        W10537   5.442   7.108   1.423
 6338W        W10538   3.636   9.566  11.882
 6339W        W10539  10.417   7.087   3.234
 6340W        W10540   0.151   2.417   3.261
 6341W        W10541  10.374   4.067   3.141
 6342W        W10542   9.405   3.163   3.225
 6343W        W10543   0.920   4.038   2.668
 6344W        W10544   8.190   3.859   2.931
 6345W        W10545   7.899   7.986   0.116
 6346W        W10546   0.762   4.682   0.918
 6347W        W10547   8.168   2.382   9.327
 6348W        W10548   5.609   4.713   1.978
 6349W        W10549   3.907   8.948   0.962
 6350W        W10550   8.890   6.027   1.853
 6351W        W10551   6.700   0.901   9.805
 6352W        W10552   8.807   3.440  11.976
 6353W        W10553   6.571   2.594   0.925
 6354W        W10554   6.928   6.001   1.822
 6355W        W10555   9.546   8.628   9.427
 6356W        W10556   1.305  10.798   0.370
 6357W        W10557   3.733   8.377  10.797
 6358W        W10558   0.826   1.721   9.990
 6359W        W10559   1.798   9.377   0.358
 6360W        W10560   2.332   5.210   9.997
 6361W        W10561   9.337   1.701   0.870
 6362W        W10562   9.865   0.192   2.776
 6363W        W10563   9.441  11.035   9.248
 6364W        W10564   1.961   2.759   3.219
 6365W        W10565   9.315   1.083   1.703
 6366W        W10566  10.446   5.961   9.023
 6367W        W10567   3.081   1.107   9.702
 6368W        W10568   8.456   7.526   0.427
 6369W        W10569   5.587  10.207   3.484
 6370W        W10570   9.093   1.909   3.195
 6371W        W10571   9.417   3.304   9.836
 6372W        W10572   9.321   5.734  11.270
 6373W        W10573   0.534   6.989   3.500
 6374W        W10574  10.245   3.229   3.336
 6375W        W10575   3.625   3.125   9.896
 6376W        W10576   1.399   8.092   9.232
 6377W        W10577   0.466   9.771   2.872
 6378W        W10578   1.321   0.352   3.328
 6379W        W10579   6.568   7.131   2.696
 6380W        W10580   7.357   3.568  11.876
 6381W        W10581   7.647  11.051   0.317
 6382W        W10582   4.757   8.929   2.003
 6383W        W10583   4.255   4.380   3.597
 6384W        W10584   5.467   8.466   0.237
 6385W        W10585   1.753   2.230   9.812
 6386W        W10586   8.617   5.904   2.284
 6387W        W10587   1.190   9.924  10.253
 6388W        W10588   3.039   7.415   1.178
 6389W        W10589   9.827   2.844   1.389
 6390W        W10590   6.084   0.385   1.211
 6391W        W10591   4.335  11.326   1.337
 6392W        W10592   5.950   6.282   1.862
 6393W        W10593   0.818  10.487  11.390
 6394W        W10594   7.138   2.758   1.110
 6395W        W10595   5.330   4.153   8.315
 6396W        W10596   1.402  10.957   9.028
 6397W        W10597   4.612   9.199   8.903
 6398W        W10598   1.144   9.984   0.236
 6399W        W10599   4.920   3.351   0.916
 6400W        W10600  11.127   1.619   3.473
 6401W        W10601   4.897   2.829   9.531
 6402W        W10602  10.139   7.932   9.336
 6403W        W10603   5.209  10.095  11.345
 6404W        W10604   2.730   3.862  10.534
 6405W        W10605   7.185   3.016   2.428
 6406W        W10606   2.854   6.032   0.300
 6407W        W10607   9.472   5.646   8.934
 6408W        W10608   8.444   4.094   8.773
 6409W        W10609  11.005   2.307   0.491
 6410W        W10610   5.236   2.410   9.461
 6411W        W10611   2.174   9.056  10.013
 6412W        W10612   4.106  10.385   2.539
 6413W        W10613   0.457   6.945   0.222
 6414W        W10614   9.582   5.038   1.222
 6415W        W10615   3.340  10.413   1.639
 6416W        W10616   3.377   6.660   0.672
 6417W        W10617   3.296   1.583   0.655
 6418W        W10618   4.611   8.426  11.263
 6419W        W10619   7.962   2.833   9.246
 6420W        W10620  10.366   1.824   3.188
 6421W        W10621   3.682   1.254   0.803
 6422W        W10622   1.664   9.094   9.890
 6423W        W10623   4.588   5.249  10.190
 6424W        W10624   5.146   0.433  11.256
 6425W        W10625   8.148  10.744   1.901
 6426W        W10626   2.411   9.268  10.674
 6427W        W10627  10.427   3.984  11.403
 6428W        W10628   6.148   2.838   9.394
 6429W        W10629   1.343   7.592   0.664
 6430W        W10630   4.043   2.887   8.620
 6431W        W10631  10.117   3.828   0.462
 6432W        W10632  11.343   1.383  10.299
 6433W        W10633   8.014   6.999   0.203
 6434W        W10634   1.113   9.503  11.451
 6435W        W10635  11.349   9.825   2.415
 6436W        W10636   9.604  11.121  10.721
 6437W        W10637   4.181   8.127  11.441
 6438W        W10638   9.411   6.887   1.160
 6439W        W10639   4.741   5.741   1.837
 6440W        W10640   3.137  10.967  10.360
 6441W        W10641   7.176   2.914   0.619
 6442W        W10642   6.677   0.022   9.637
 6443W        W10643   7.136  10.487   0.942
 6444W        W10644   9.606   1.257   2.156
 6445W        W10645   3.824  11.252   0.435
 6446W        W10646   6.726   7.975   4.091
 6447W        W10647   1.255   9.393   1.750
 6448W        W10648   4.205   6.632   3.127
 6449W        W10649   9.523   8.737  11.332
 6450W        W10650   1.181   5.922   0.840
 6451W        W10651  11.497   0.499   2.179
 6452W        W10652   2.886   7.980   1.832
 6453W        W10653   4.740   4.418   8.590
 6454W        W10654  10.451   3.745  10.353
 6455W        W10655   6.062   4.560   8.897
 6456W        W10656   3.458   0.033   8.674
 6457W        W10657   0.936   5.104  10.794
 6458W        W10658   0.224  10.565  10.086
 6459W        W10659   9.165  10.808  10.713
 6460W        W10660   7.590   6.066   1.031
 6461W        W10661   9.607   9.145   3.353
 6462W        W10662   7.703   2.137  11.325
 6463W        W10663   0.456   9.099  11.822
 6464W        W10664  10.307   5.439  10.089
 6465W        W10665   8.891   3.297   2.138
 6466W        W10666   0.359   8.986   2.717
 6467W        W10667   9.172   3.298  10.712
 6468W        W10668   4.821   8.513   9.374
 6469W        W10669  11.246   4.772   2.893
 6470W        W10670   7.204  11.223   2.354
 6471W        W10671   6.101   4.040   0.385
 6472W        W10672   1.909   3.693   9.797
 6473W        W10673  11.209   8.627   2.696
 6474W        W10674   1.554   8.292  11.610
 6475W        W10675   7.875  11.429   8.896
 6476W        W10676   0.700   5.300   8.760
 6477W        W10677   3.783   9.315  10.846
 6478W        W10678   2.760   6.975   9.263
 6479W        W10679   8.067   5.968  11.905
 6480W        W10680   3.898   2.398  10.307
 6481W        W10681   8.402   1.320  10.005
 6482W        W10682   0.489  11.049   2.180
 6483W        W10683   0.885   2.364  11.207
 6484W        W10684   9.633   6.111   3.372
 6485W        W10685   2.715   5.221   3.020
 6486W        W10686   1.757   8.918   0.814
 6487W        W10687   7.003  10.710  11.259
 6488W        W10688  11.057   7.231   2.601
 6489W        W10689   9.848   5.460  10.350
 6490W        W10690   1.257   3.247   3.226
 6491W        W10691   7.544   2.827   0.249
 6492W        W10692   4.397   0.512  11.076
 6493W        W10693   0.895   9.997   2.698
 6494W        W10694  10.328   0.889   1.004
 6495W        W10695   5.583   6.915   9.538
 6496W        W10696   0.237   6.608   3.701
 6497W        W10697   6.426   8.103   2.433
 6498W        W10698   5.630   3.671   2.802
 6499W        W10699   5.274   3.123  10.222
 6500W        W10700   1.330   5.834   1.322
 6501W        W10701   8.423   7.935   9.510
 6502W        W10702   5.710   0.874   8.613
 6503W        W10703   7.455   0.020  10.707
 6504W        W10704   9.023   2.009  11.862
 6505W        W10705   8.841   9.897   1.536
 6506W        W10706   4.193   8.240  10.945
 6507W        W10707  10.049   8.639  10.204
 6508W        W10708   6.413   0.454   9.720
 6509W        W10709   5.064  11.011   2.216
 6510W        W10710   2.875   6.972   0.370
 6511W        W10711   1.816   1.774   9.539
 6512W        W10712   7.877   0.180   9.341
 6513W        W10713   9.309   1.720  10.907
 6514W        W10714   4.018  11.306   1.761
 6515W        W10715   0.477   0.588   0.965
 6516W        W10716  11.386   9.514   0.268
 6517W        W10717   2.194  10.985  11.892
 6518W        W10718  10.455   0.825  10.162
 6519W        W10719   8.791   9.486   8.796
 6520W        W10720   0.034   8.126   9.536
 6521W        W10721   9.593   1.648   0.417
 6522W        W10722   5.243   4.257   0.396
 6523W        W10723   0.643   5.036   0.034
 6524W        W10724   3.475   7.796  10.344
 6525W        W10725  10.094   6.984  11.755
 6526W        W10726   4.085  11.416  12.000
 6527W        W10727   4.196   0.349   1.017
 6528W        W10728   1.760   8.082  10.126
 6529W        W10729   7.544   8.851   3.418
 6530W        W10730  10.438   9.888   2.426
 6531W        W10731   6.116   7.147   2.202
 6532W        W10732  10.343   4.697   0.950
 6533W        W10733  10.491   5.146   1.201
 6534W        W10734   7.839   9.913   3.103
 6535W        W10735  11.477   7.129   1.728
 6536W        W10736   6.150  10.332   9.865
 6537W        W10737   7.639   0.214   3.225
 6538W        W10738   2.877   6.610   0.761
 6539W        W10739   2.792  10.400  11.226
 6540W        W10740   4.187   3.579   3.286
 6541W        W10741  10.482   8.433   1.678
 6542W        W10742   0.199   0.868   9.212
 6543W        W10743   5.565   8.800  11.447
 6544W        W10744   5.991   8.318   9.919
 6545W        W10745   7.365   2.102   0.418
 6546W        W10746   3.134   1.752   3.010
 6547W        W10747   1.426   5.318   1.827
 6548W        W10748   5.938   8.593   9.072
 6549W        W10749   0.321   1.825   0.533
 6550W        W10750   0.325   4.718   2.055
 6551W        W10751   1.681   9.865   3.417
 6552W        W10752   1.243   6.684   2.159
 6553W        W10753   0.530   4.414   2.466
 6554W        W10754   5.768   0.788   1.305
 6555W        W10755   1.574   6.132   2.887
 6556W        W10756   0.447   8.087   2.630
 6557W        W10757   9.015   7.218   1.307
 6558W        W10758   1.725  10.886   3.404
 6559W        W10759   9.771   5.650   8.498
 6560W        W10760   0.622   7.672   2.288
 6561W        W10761   6.215   7.910   3.226
 6562W        W10762   4.402   5.383   0.260
 6563W        W10763   4.918   5.211   0.014
 6564W        W10764   6.587   0.366   9.230
 6565W        W10765   0.866   6.831  10.855
 6566W        W10766   6.495   9.084   1.915
 6567W        W10767   2.712   2.033   9.979
 6568W        W10768   5.035   8.403   9.852
 6569W        W10769   9.296   3.296   0.013
 6570W        W10770   8.409   7.916   3.622
 6571W        W10771   1.232   6.808   1.101
 6572W        W10772   8.920   2.122  11.378
 6573W        W10773   8.561   4.039   1.241
 6574W        W10774  10.119   5.913  10.300
 6575W        W10775   1.727   1.019   2.623
 6576W        W10776   4.216   4.332  10.938
 6577W        W10777   6.009  11.441   0.906
 6578W        W10778   1.036   6.220  11.550
 6579W        W10779   8.944   6.624  11.502
 6580W        W10780   5.487   6.208   0.837
 6581W        W10781   0.848   0.494  11.333
 6582W        W10782   2.574   0.211   1.463
 6583W        W10783   6.881   2.525   9.036
 6584W        W10784   7.824   9.340   2.024
 6585W        W10785   9.524   7.914   2.696
 6586W        W10786   5.597   5.674   1.496
 6587W        W10787   4.192   8.306   0.472
 6588W        W10788   7.727   6.912   0.991
 6589W        W10789   1.270   1.811   3.576
 6590W        W10790   6.152   6.209  10.589
 6591W        W10791   9.462   1.924   1.355
 6592W        W10792   2.307   3.132   0.873
 6593W        W10793   2.237   9.125   1.546
 6594W        W10794   7.115   3.804   0.290
 6595W        W10795   4.091   4.294   9.060
 6596W        W10796   2.798   0.665  11.864
 6597W        W10797   4.264  10.460   3.109
 6598W        W10798   9.543   4.894  11.013
 6599W        W10799   8.991   9.459  10.935
 6600W        W10800  11.436   2.143   8.589
 6601W        W10801   8.033  11.481  10.860
 6602W        W10802   8.644   1.811  10.381
 6603W        W10803   4.734   8.493   1.753
 6604W        W10804   8.627   0.216   9.800
 6605W        W10805   4.064   5.119   9.036
 6606W        W10806   3.188   7.207   9.445
 6607W        W10807   3.717   7.264  11.582
 6608W        W10808   5.519   7.141   0.817
 6609W        W10809   4.945   1.396   1.260
 6610W        W10810   9.728   7.032   3.728
 6611W        W10811   0.951   0.044   3.538
 6612W        W10812   3.802   9.579   9.420
 6613W        W10813  11.304   0.188   1.189
 6614W        W10814   0.921   8.785  10.806
 6615W        W10815   1.486  10.390   9.493
 6616W        W10816   6.197  10.393   2.487
 6617W        W10817   9.419  11.069   0.032
 6618W        W10818   0.403   2.183   9.282
 6619W        W10819   7.375   3.353   0.398
 6620W        W10820   2.434   4.561   8.783
 6621W        W10821   9.934   7.254   0.981
 6622W        W10822   0.486   3.807   9.042
 6623W        W10823   9.554   3.802   9.825
 6624W        W10824   8.622   1.287   0.440
 6625W        W10825   0.292   9.047   9.837
 6626W        W10826   8.000  10.322  11.793
 6627W        W10827   6.230   7.887  10.020
 6628W        W10828   2.757   0.957   0.808
 6629W        W10829   2.895   4.437   1.827
 6630W        W10830   6.091  10.056  10.728
 6631W        W10831  10.463   1.692   1.639
 6632W        W10832   0.392  11.224   2.763
 6633W        W10833   2.121   6.434   2.190
 6634W        W10834   5.412   4.074   3.071
 6635W        W10835   3.124   0.803   0.244
 6636W        W10836   7.572  10.654   3.579
 6637W        W10837   4.555   7.108   0.126
 6638W        W10838  10.829   6.596   1.682
 6639W        W10839   2.447  10.793   8.697
 6640W        W10840   7.034   6.900   1.944
 6641W        W10841   0.295   1.937   2.361
 6642W        W10842   2.663   7.035   0.994
 6643W        W10843   1.549   6.186   8.723
 6644W        W10844   6.063   9.265  10.129
 6645W        W10845   6.127   0.805   0.923
 6646W        W10846   6.146  10.202   0.682
 6647W        W10847   3.654   7.886  10.929
 6648W        W10848   7.447   4.645  11.912
 6649W        W10849   9.788   0.551  10.906
 6650W        W10850   7.151   7.888   0.589
 6651W        W10851   1.386   3.052   8.867
 6652W        W10852  10.792   9.023   1.846
 6653W        W10853   8.584   8.884  10.952
 6654W        W10854   9.062   8.889  11.766
 6655W        W10855   1.731   6.727   2.310
 6656W        W10856   7.463  10.871  11.441
 6657W        W10857   1.773   3.855   1.793
 6658W        W10858   1.483   5.622   8.937
 6659W        W10859   5.465   8.189   3.463
 6660W        W10860   9.426   9.591   0.525
 6661W        W10861   0.833   1.964   0.608
 6662W        W10862   4.873   3.937  11.331
 6663W        W10863  10.158   4.313   2.201
 6664W        W10864   8.532   0.941  11.665
 6665W        W10865   2.178   4.622  10.484
 6666W        W10866   1.085   9.005  10.279
 6667W        W10867   7.973   2.716   0.909
 6668W        W10868   2.230  11.500  10.423
 6669W        W10869   7.052   1.445   9.115
 6670W        W10870   1.025   8.496   1.299
 6671W        W10871   7.420   0.703  10.923
 6672W        W10872   6.495   8.606   2.616
 6673W        W10873  10.243   4.118  10.089
 6674W        W10874   1.493   1.440   8.859
 6675W        W10875   2.253  10.694  11.426
 6676W        W10876   0.975   0.013  11.469
 6677W        W10877   1.263   8.133  10.028
 6678W        W10878   2.346   4.247   3.525
 6679W        W10879   1.642   6.570   1.291
 6680W        W10880   1.376   6.677   8.784
 6681W        W10881   9.269   2.443   1.807
 6682W        W10882   8.371   4.106   9.794
 6683W        W10883   5.033   5.272   9.918
 6684W        W10884   0.264   4.113   0.355
 6685W        W10885   4.155   1.869   0.873
 6686W        W10886   7.040   4.273   9.109
 6687W        W10887   2.367   6.645   0.828
 6688W        W10888   7.018   4.081  10.496
 6689W        W10889   8.902   2.635  11.470
 6690W        W10890   8.986   2.684  10.120
 6691W        W10891  10.496   3.558   0.247
 6692W        W10892   4.035   4.015  11.858
 6693W        W10893   9.861   5.564   2.159
 6694W        W10894   7.928   7.166  11.300
 6695W        W10895   8.259   8.231   4.006
 6696W        W10896   8.715   5.462   9.416
 6697W        W10897   7.583   9.188   0.571
 6698W        W10898   8.021   6.513   3.217
 6699W        W10899   5.450   8.129   8.618
 6700W        W10900   0.087   4.240   1.116
 6701W        W10901   1.189   2.182   0.948
 6702W        W10902   9.977   9.196   1.327
 6703W        W10903   1.366   8.984   2.467
 6704W        W10904   3.715   1.897   0.637
 6705W        W10905   5.101   8.597  11.361
 6706W        W10906  10.869  10.416   0.286
 6707W        W10907   6.167   7.099   9.074
 6708W        W10908   0.916   6.099   0.428
 6709W        W10909   6.196   8.498   3.150
 6710W        W10910  11.265   0.807   9.501
 6711W        W10911   0.931   0.821   1.121
 6712W        W10912   7.513   8.085   1.868
 6713W        W10913   7.612  10.031   9.010
 6714W        W10914   5.297   8.782   4.150
 6715W        W10915  11.194   0.475   3.384
 6716W        W10916   6.049   3.550   0.489
 6717W        W10917   5.274  10.426   1.569
 6718W        W10918   8.497  11.308   8.768
 6719W        W10919   6.721   3.243  11.157
 6720W        W10920  10.880   3.769  11.563
 6721W        W10921   9.793  10.154  10.214
 6722W        W10922   0.413   5.720   9.066
 6723W        W10923   8.596   9.290   1.309
 6724W        W10924   7.581   2.579   9.552
 6725W        W10925   0.783   4.165   1.675
 6726W        W10926   8.678   3.667  11.518
 6727W        W10927   3.972   7.744   2.655
 6728W        W10928   5.761  11.355  11.285
 6729W        W10929   7.102   7.367   0.374
 6730W        W10930   7.418   1.816   9.055
 6731W        W10931   8.817   0.204   9.295
 6732W        W10932   7.433   9.269   8.954
 6733W        W10933   4.264  10.842   2.747
 6734W        W10934  11.167   2.413   0.969
 6735W        W10935   3.071   2.250   3.192
 6736W        W10936  10.986   9.282   1.441
 6737W        W10937   1.412   3.768  11.992
 6738W        W10938   1.556   1.203   8.394
 6739W        W10939   2.788   0.211   9.424
 6740W        W10940   8.432   2.731   9.031
 6741W        W10941   7.047  10.774   9.914
 6742W        W10942   2.381   2.729   2.087
 6743W        W10943   9.118   1.952   1.748
 6744W        W10944   1.584   5.712   9.722
 6745W        W10945   2.032   8.054  10.561
 6746W        W10946   1.058   6.118  10.181
 6747W        W10947  11.226   4.106   3.451
 6748W        W10948   7.491   5.690  10.298
 6749W        W10949   7.895   6.083   2.927
 6750W        W10950   7.652   4.725   8.644
 6751W        W10951   9.438   9.057   1.341
 6752W        W10952   4.041   4.611   3.193
 6753W        W10953   3.163   6.686   9.475
 6754W        W10954   7.825   1.852   0.381
 6755W        W10955   9.290   3.740   0.674
 6756W        W10956  10.551   1.667  10.503
 6757W        W10957   4.144   4.771   1.894
 6758W        W10958   8.107  11.054   2.333
 6759W        W10959   4.576   2.126   3.031
 6760W        W10960   1.774  10.662   0.621
 6761W        W10961   1.994   2.767   0.023
 6762W        W10962  10.650   9.517   1.760
 6763W        W10963  10.840   5.490   9.117
 6764W        W10964   9.845   5.629   2.669
 6765W        W10965   2.810   4.685   8.040
 6766W        W10966  10.058   5.230   9.671
 6767W        W10967   4.340   7.321  10.075
 6768W        W10968   4.220   3.827   1.621
 6769W        W10969   7.938   2.695   1.928
 6770W        W10970   6.157   4.550   2.201
 6771W        W10971   2.879   4.876  10.389
 6772W        W10972   0.675   6.155   9.817
 6773W        W10973   5.223   8.182   0.656
 6774W        W10974   5.200   9.616   9.507
 6775W        W10975   3.736   4.136   9.724
 6776W        W10976  11.034   9.797  10.882
 6777W        W10977   7.055   6.839   2.885
 6778W        W10978   3.352   7.430   2.134
 6779W        W10979   3.745   5.737   0.953
 6780W        W10980   8.730   5.953   0.292
 6781W        W10981   0.278  10.305   0.521
 6782W        W10982   0.144   6.179  11.646
 6783W        W10983   1.660   7.594   9.541
 6784W        W10984   5.125   8.436  10.877
 6785W        W10985   7.524   5.714   0.673
 6786W        W10986  10.815   8.138  10.643
 6787W        W10987   5.662   2.884   0.924
 6788W        W10988  10.656   4.340   2.262
 6789W        W10989  11.043   1.351  11.167
 6790W        W10990   3.718   7.424  10.608
 6791W        W10991   1.318   1.945  10.777
 6792W        W10992   6.761  11.189  11.263
 6793W        W10993   4.125   1.203   9.946
 6794W        W10994   5.811   2.528   0.489
 6795W        W10995   0.011   0.343   2.698
 6796W        W10996   4.304  10.452   1.522
 6797W        W10997   6.961   7.567  10.320
 6798W        W10998   5.752   5.745   2.990
 6799W        W10999   6.798   1.645  10.359
 6800W        W11000   8.812  11.014  10.382
 6801W        W11001   8.447   9.032   0.892
 6802W        W11002  10.953   3.174   2.510
 6803W        W11003   1.817   3.152  11.448
 6804W        W11004   6.229   0.003   9.366
 6805W        W11005   0.902   5.455   0.245
 6806W        W11006   9.966   7.950  11.449
 6807W        W11007   9.638   5.611   3.155
 6808W        W11008   5.577   7.666  11.901
 6809W        W11009   5.187   9.666   2.885
 6810W        W11010   5.236   0.651   8.716
 6811W        W11011   4.092   8.973   9.600
 6812W        W11012   5.199   9.952   0.275
 6813W        W11013  10.777   6.150   1.465
 6814W        W11014   9.638   3.948   0.364
 6815W        W11015   9.895   5.792   1.715
 6816W        W11016   9.120   4.695   1.856
 6817W        W11017   5.365   3.314   3.538
 6818W        W11018   4.083   5.457   1.258
 6819W        W11019   1.767   2.733   9.044
 6820W        W11020   7.849   1.305   0.787
 6821W        W11021  11.091   0.239   2.397
 6822W        W11022   0.377  10.483   1.932
 6823W        W11023   2.070   8.908  10.523
 6824W        W11024   9.959   9.157  10.116
 6825W        W11025   0.858   8.211   3.014
 6826W        W11026   2.362   4.792   2.346
 6827W        W11027   6.947   5.346  11.043
 6828W        W11028   5.796   8.156   3.082
 6829W        W11029   1.832   4.303   2.738
 6830W        W11030   9.866   8.985  10.582
 6831W        W11031  10.923   2.308   1.410
 6832W        W11032   8.811   0.661  11.162
 6833W        W11033   2.209   6.215   8.879
 6834W        W11034   0.651   0.951   0.651
 6835W        W11035  10.051   3.243  10.306
 6836W        W11036   8.010   2.705   1.422
 6837W        W11037   0.134   9.321  11.320
 6838W        W11038   5.246   9.126   8.151
 6839W        W11039   6.197   2.839  10.799
 6840W        W11040   8.379   2.236  10.252
 6841W        W11041   8.428  11.484  11.950
 6842W        W11042   6.631  10.302   1.688
 6843W        W11043   6.489   7.610   9.567
 6844W        W11044   8.484   2.881   1.020
 6845W        W11045   7.439   1.429   2.737
 6846W        W11046   9.665   5.793  11.752
 6847W        W11047   3.163   3.828   1.573
 6848W        W11048   4.524   9.821  11.897
 6849W        W11049   2.276   4.406   1.314
 6850W        W11050   8.871   7.154  10.750
 6851W        W11051   5.374   1.446   9.702
 6852W        W11052   4.260   0.698   9.906
 6853W        W11053   6.097   0.844   2.919
 6854W        W11054   1.888   8.554   2.732
 6855W        W11055   7.050   1.314   3.071
 6856W        W11056   8.456   2.109   2.210
 6857W        W11057   7.267   6.686  10.840
 6858W        W11058  11.339  10.338   9.026
 6859W        W11059   4.375   2.320   0.718
 6860W        W11060   8.865   5.977   9.336
 6861W        W11061   1.457   3.660   9.515
 6862W        W11062  11.381   5.740   8.550
 6863W        W11063   7.453  10.018   0.912
 6864W        W11064   0.002   1.717   9.576
 6865W        W11065   1.659   5.656   2.152
 6866W        W11066   0.991   8.976   3.457
 6867W        W11067  11.340   1.267   9.301
 6868W        W11068  10.863   7.587  11.287
 6869W        W11069   0.699   5.730   9.505
 6870W        W11070   4.466   6.106  11.725
 6871W        W11071   9.310   1.180   0.872
 6872W        W11072   1.533   8.318  11.012
 6873W        W11073   1.296   1.198   3.145
 6874W        W11074   9.935  11.059   8.517
 6875W        W11075   0.844   7.455   8.945
 6876W        W11076   8.997   3.893   2.967
 6877W        W11077  10.455   3.550  11.740
 6878W        W11078   7.152   4.643   0.444
 6879W        W11079  10.852   6.668   2.168
 6880W        W11080   1.326  11.155   3.550
 6881W        W11081   8.402   4.921   1.359
 6882W        W11082   8.711   3.801   9.515
 6883W        W11083   1.828   1.780   9.030
 6884W        W11084   8.082  10.951   8.840
 6885W        W11085   7.867   9.581   9.191
 6886W        W11086   5.935   6.089   0.612
 6887W        W11087   9.360  10.183  10.484
 6888W        W11088   0.850   7.366   3.293
 6889W        W11089   2.823   8.857   9.114
 6890W        W11090   9.546   8.207  11.275
 6891W        W11091   1.201   7.577   1.538
 6892W        W11092   1.267   3.337  11.132
 6893W        W11093   6.139   8.700   1.348
 6894W        W11094   1.459  11.397   3.140
 6895W        W11095   8.718   0.506  10.323
 6896W        W11096  10.500   2.152   0.436
 6897W        W11097   9.468   5.921   1.485
 6898W        W11098  10.914   6.674  11.583
 6899W        W11099   1.744   3.193   9.414
 6900W        W11100   5.899  10.864  10.911
 6901W        W11101   2.160  10.327   2.195
 6902W        W11102   2.307   2.733  10.343
 6903W        W11103   8.500   9.808  10.820
 6904W        W11104   6.395   1.516  10.009
 6905W        W11105  11.442   0.893   1.637
 6906W        W11106   0.417   2.252  11.365
 6907W        W11107   8.126   1.251  11.124
 6908W        W11108   9.629   6.038   2.871
 6909W        W11109   7.031   2.790   3.588
 6910W        W11110   9.634   1.901  10.336
 6911W        W11111   1.886   7.092   0.498
 6912W        W11112   5.117   2.756   3.653
 6913W        W11113   4.850   6.145   9.773
 6914W        W11114   8.034   3.878   2.442
 6915W        W11115   4.647   1.154   9.905
 6916W        W11116   8.414   2.798  11.536
 6917W        W11117   2.774   5.793  11.233
 6918W        W11118   8.422   0.038   1.617
 6919W        W11119   3.815  11.392   1.302
 6920W        W11120  11.400  10.604   0.225
 6921W        W11121   5.825   0.687   0.472
 6922W        W11122   1.775   4.321  10.452
 6923W        W11123   5.078   4.795  10.715
 6924W        W11124  10.585   1.756   0.738
 6925W        W11125   3.580  11.214   0.871
 6926W        W11126   0.103   4.677  10.499
 6927W        W11127   6.220   9.640   1.267
 6928W        W11128  11.436   7.754   9.085
 6929W        W11129   4.542   6.509  10.970
 6930W        W11130   5.145  10.485   2.095
 6931W        W11131   1.487   7.610   2.553
 6932W        W11132   5.972   7.733   1.297
 6933W        W11133   7.328   5.877   0.237
 6934W        W11134   0.186   7.275   2.370
 6935W        W11135   6.147   7.025  11.079
 6936W        W11136   9.569   0.963  10.135
 6937W        W11137   9.916   9.687  10.067
 6938W        W11138   0.969   3.886   8.832
 6939W        W11139   0.752  10.766   9.325
 6940W        W11140   8.659   7.904   2.668
 6941W        W11141  11.170   9.652  11.351
 6942W        W11142   3.331   3.807  11.325
 6943W        W11143  10.430   2.652   0.344
 6944W        W11144   5.667   7.049   2.941
 6945W        W11145   7.239   2.268   2.352
 6946W        W11146   2.467   5.027   7.870
 6947W        W11147  10.017   2.356   2.406
 6948W        W11148   9.593   5.146   2.171
 6949W        W11149   5.256  11.011   1.282
 6950W        W11150   4.411   2.529   8.829
 6951W        W11151  11.484   4.407  11.997
 6952W        W11152   9.032   3.343   0.467
 6953W        W11153   7.561  10.815  10.080
 6954W        W11154   8.889   4.288   9.379
 6955W        W11155  10.307   3.195   1.869
 6956W        W11156   7.423   6.517   0.781
 6957W        W11157  11.019   5.791   1.213
 6958W        W11158   3.207   5.225  10.547
 6959W        W11159  10.721   5.495   2.680
 6960W        W11160  11.390   9.353   8.596
 6961W        W11161   5.227   4.194   0.913
 6962W        W11162   8.996   7.048   8.621
 6963W        W11163   7.436   4.791   0.837
 6964W        W11164   3.142   1.887  11.259
 6965W        W11165  11.057   5.158   2.496
 6966W        W11166   3.640   4.672   1.743
 6967W        W11167   0.723   2.380   0.943
 6968W        W11168   2.697   6.595   1.271
 6969W        W11169   2.284   3.524   3.054
 6970W        W11170   5.706   1.068   9.962
 6971W        W11171   9.567   8.152   2.240
 6972W        W11172   8.045   1.661  11.448
 6973W        W11173  10.417   8.405   9.919
 6974W        W11174   0.368   7.471   9.834
 6975W        W11175   7.235   8.455  10.569
 6976W        W11176  11.497   9.278   1.616
 6977W        W11177  10.488  11.439   8.937
 6978W        W11178   5.146   1.665  11.979
 6979W        W11179  10.842   2.492   3.283
 6980W        W11180   7.881  10.734   9.643
 6981W        W11181   7.428   5.331  11.262
 6982W        W11182   1.725   9.977  11.095
 6983W        W11183  10.477   3.628   2.189
 6984W        W11184  11.243   6.021   9.538
 6985W        W11185   4.191   4.075   2.138
 6986W        W11186   8.277   5.192   8.693
 6987W        W11187   3.262   5.819  11.045
 6988W        W11188   6.053  11.071   9.114
 6989W        W11189   7.339   6.243  11.525
 6990W        W11190   3.212   5.613   1.041
 6991W        W11191   0.698   1.827   1.492
 6992W        W11192   7.465   4.582   9.110
 6993W        W11193   1.143   0.804   3.474
 6994W        W11194   6.941   8.374   2.488
 6995W        W11195   5.627   9.129   9.877
 6996W        W11196   3.020   2.851  11.446
 6997W        W11197   8.637   8.328   8.654
 6998W        W11198   6.034   3.325  10.731
 6999W        W11199  11.472   9.842   9.770
 7000W        W11200   8.475   3.680   9.082
 7001W        W11201   2.332   0.755  11.351
 7002W        W11202   0.298  11.325  11.320
 7003W        W11203   5.358   2.625  10.313
 7004W        W11204   7.965   8.419   0.372
 7005W        W11205   8.865   8.068   3.427
 7006W        W11206   0.011   5.123  10.771
 7007W        W11207   0.535   7.044   9.534
 7008W        W11208   0.830   6.192   9.294
 7009W        W11209   9.340   2.213  10.631
 7010W        W11210   8.633  10.540   0.022
 7011W        W11211   4.174   5.677  10.796
 7012W        W11212   4.861   1.173   0.253
 7013W        W11213  11.006   8.407   3.531
 7014W        W11214   1.526   8.979   9.389
 7015W        W11215   6.111   4.448  10.465
 7016W        W11216  10.425  10.005   8.954
 7017W        W11217  10.424   9.982   1.397
 7018W        W11218   0.395   3.173  11.217
 7019W        W11219   7.636   0.908   1.131
 7020W        W11220   3.410   2.133   2.782
 7021W        W11221   0.602   1.826  10.460
 7022W        W11222   4.752   4.209   3.603
 7023W        W11223   3.090  11.431  11.872
 7024W        W11224   1.150   6.279   2.586
 7025W        W11225   4.704   6.743   8.631
 7026W        W11226   2.570   8.429   2.510
 7027W        W11227   2.339   5.514   9.569
 7028W        W11228   1.353   4.148   1.463
 7029W        W11229  11.443   4.847   8.766
 7030W        W11230   2.396   3.570   0.230
 7031W        W11231   7.064   3.753  10.882
 7032W        W11232   2.633   7.490   1.623
 7033W        W11233   4.597   2.259   1.624
 7034W        W11234   3.699   9.045   1.496
 7035W        W11235   3.949   8.531   9.837
 7036W        W11236  11.448   6.503   1.291
 7037W        W11237   6.976   0.274   1.674
 7038W        W11238   7.231   3.661   1.300
 7039W        W11239  11.068   1.764  10.503
 7040W        W11240   9.695   0.459  10.272
 7041W        W11241   5.457   4.833   3.282
 7042W        W11242   5.736   0.368   2.785
 7043W        W11243   4.129   7.783   0.406
 7044W        W11244   7.982   0.322   2.874
 7045W        W11245   9.367   8.704   0.926
 7046W        W11246   6.047   9.530   2.464
 7047W        W11247   9.246   7.208  10.380
 7048W        W11248   4.574  10.441   3.572
 7049W        W11249   3.079   1.271   2.368
 7050W        W11250  10.909   9.789   1.415
 7051W        W11251   8.460   7.442   3.399
 7052W        W11252  10.687   2.254   0.933
 7053W        W11253   8.132   1.424   0.366
 7054W        W11254   8.539  10.804   2.263
 7055W        W11255   0.213   9.427   3.127
 7056W        W11256   8.858   3.263   1.621
 7057W        W11257   5.953   2.473   1.631
 7058W        W11258   4.295   1.943  11.060
 7059W        W11259   6.721   6.629   0.230
 7060W        W11260   1.416   0.690   3.899
 7061W        W11261   2.530   5.300   0.762
 7062W        W11262   3.929   4.076   3.273
 7063W        W11263   3.869   3.547  10.538
 7064W        W11264   5.261  10.481   9.832
 7065W        W11265   0.707   9.988  11.392
 7066W        W11266   8.993  10.665  11.202
 7067W        W11267   7.953   7.501  11.706
 7068W        W11268   8.227   8.340  11.925
 7069W        W11269  10.848   1.962   3.196
 7070W        W11270  11.461   7.066  10.908
 7071W        W11271   4.286   8.921  11.869
 7072W        W11272   4.969  11.264  10.127
 7073W        W11273   5.217   0.439  10.728
 7074W        W11274   3.706   5.462   9.403
 7075W        W11275   6.868   8.171   1.539
 7076W        W11276   2.926   8.020   3.361
 7077W        W11277   1.846   9.916   2.319
 7078W        W11278   2.922   6.027   1.142
 7079W        W11279   1.885   1.344   1.840
 7080W        W11280   6.060   9.069  10.614
 7081W        W11281   6.080   1.769  11.994
 7082W        W11282   7.601   3.808   2.170
 7083W        W11283   7.565   2.649  10.059
 7084W        W11284   2.003   4.175   2.230
 7085W        W11285  11.019   3.297  11.432
 7086W        W11286  10.753  11.441  10.357
 7087W        W11287   2.596   6.520   0.337
 7088W        W11288  10.525   7.709  10.573
 7089W        W11289   2.278   3.618   0.725
 7090W        W11290   5.938   3.737   8.463
 7091W        W11291   5.275   2.124   0.911
 7092W        W11292   6.945   9.498   9.067
 7093W        W11293  10.589   3.707   9.286
 7094W        W11294   3.426   6.111   2.419
 7095W        W11295   7.230   6.391   0.255
 7096W        W11296   2.896   6.392  10.414
 7097W        W11297   2.659   6.561   3.165
 7098W        W11298   6.759   3.643   3.125
 7099W        W11299   5.138   4.171  10.038
 7100W        W11300   9.610   0.937  10.645
 7101W        W11301   9.022  10.316  10.844
 7102W        W11302   0.984   4.147   0.004
 7103W        W11303   8.019   6.084   3.497
 7104W        W11304   9.281   6.971   9.200
 7105W        W11305   9.470   0.544   2.571
 7106W        W11306   4.983   8.847   9.036
 7107W        W11307   3.254   0.909   0.732
 7108W        W11308   6.693   6.160  10.512
 7109W        W11309   5.728   9.421   1.220
 7110W        W11310   3.823  10.278  11.344
 7111W        W11311   2.549   0.456   2.544
 7112W        W11312   9.517  11.301  11.193
 7113W        W11313   9.573   5.073   3.157
 7114W        W11314   7.589   7.310   1.358
 7115W        W11315   6.588   9.017   1.409
 7116W        W11316   1.365   9.903   2.511
 7117W        W11317  11.357   9.055   9.571
 7118W        W11318   6.579   1.583   0.006
 7119W        W11319   0.359   9.934   2.387
 7120W        W11320   3.344   8.080  11.611
 7121W        W11321   2.736   5.544   9.170
 7122W        W11322  10.117   3.300   0.509
 7123W        W11323   3.515   4.840   3.110
 7124W        W11324   7.886   2.210   0.752
 7125W        W11325   2.233  11.471   8.863
 7126W        W11326   1.129   4.514   9.465
 7127W        W11327   1.856   1.312   9.802
 7128W        W11328   8.196   6.206   9.991
 7129W        W11329   4.102   8.682   1.385
 7130W        W11330   1.507   4.709   9.780
 7131W        W11331   6.102   4.107   9.642
 7132W        W11332   7.210   5.162   0.574
 7133W        W11333   9.910   7.290   3.294
 7134W        W11334   3.055   8.073   0.815
 7135W        W11335   8.474   8.489  11.280
 7136W        W11336   3.679   6.292   0.838
 7137W        W11337   8.375   6.973   2.833
 7138W        W11338  10.807   8.424   2.370
 7139W        W11339   0.481   7.895   1.652
 7140W        W11340  10.252   1.307  11.817
 7141W        W11341   5.291   2.823  11.096
 7142W        W11342  11.436   3.138   1.647
 7143W        W11343   7.626   7.386   9.180
 7144W        W11344   7.568  10.917   9.034
 7145W        W11345   4.634   1.864   1.957
 7146W        W11346   2.382  10.748  10.041
 7147W        W11347   2.850   6.255  11.455
 7148W        W11348  11.342   3.768  10.853
 7149W        W11349   8.503   2.563   3.032
 7150W        W11350   8.634   8.742   1.259
 7151W        W11351   5.636   8.578   2.811
 7152W        W11352   1.771   0.348  11.982
 7153W        W11353   2.361   7.421   2.312
 7154W        W11354   2.258   8.900  11.514
 7155W        W11355   5.661   7.045  10.547
 7156W        W11356   1.000   1.360  10.941
 7157W        W11357   0.298   8.958   3.317
 7158W        W11358   1.302   9.946   9.765
 7159W        W11359   2.157   9.851   0.384
 7160W        W11360  10.549   7.939   9.682
 7161W        W11361   2.642   2.647  10.762
 7162W        W11362   6.107   6.208   8.722
 7163W        W11363   0.038   2.367   2.350
 7164W        W11364  11.344   4.646   1.334
 7165W        W11365   9.894  11.311   8.983
 7166W        W11366   6.200   9.832   0.312
 7167W        W11367   6.085   7.002   9.582
 7168W        W11368   4.636   4.915   2.278
 7169W        W11369   7.944  11.131   9.314
 7170W        W11370   8.944   1.509  11.694
 7171W        W11371   5.264  10.536   2.889
 7172W        W11372   3.854   5.075   0.532
 7173W        W11373   3.029   0.029   3.225
 7174W        W11374   6.949   8.866   1.770
 7175W        W11375  10.433   2.893  10.266
 7176W        W11376   4.447   7.997  10.545
 7177W        W11377  11.042  10.704   8.722
 7178W        W11378   9.472   3.795   2.152
 7179W        W11379   0.125   3.310   3.163
 7180W        W11380   0.444   6.181   1.300
 7181W        W11381   4.324  10.946   9.836
 7182W        W11382   2.869   1.162  11.934
 7183W        W11383   7.343   9.921   3.200
 7184W        W11384   5.253   7.857   9.018
 7185W        W11385   6.711   8.571  10.583
 7186W        W11386   9.014  10.884   3.064
 7187W        W11387   2.185   9.548   3.367
 7188W        W11388  10.058   4.867   1.368
 7189W        W11389  10.464   8.037   2.459
 7190W        W11390   6.109   4.665  11.334
 7191W        W11391   6.561  10.009   9.840
 7192W        W11392   4.669   6.723   0.912
 7193W        W11393   3.120   1.839   3.500
 7194W        W11394   1.667   1.786  11.104
 7195W        W11395   3.809  10.259   2.978
 7196W        W11396   1.308   7.438  11.745
 7197W        W11397   3.933   6.067   2.329
 7198W        W11398   8.487   2.765   0.034
 7199W        W11399   9.050   9.408  10.412
 7200W        W11400   8.515   8.548   0.298
 7201W        W11401   0.268   8.546   9.314
 7202W        W11402   0.821   3.244   0.498
 7203W        W11403   9.075   2.645   9.614
 7204W        W11404   9.370   0.218   2.963
 7205W        W11405   6.501   9.460   9.901
 7206W        W11406   9.312   1.019   3.466
 7207W        W11407   7.010   8.482   0.414
 7208W        W11408   5.630   9.472   2.739
 7209W        W11409  11.407   8.041   3.541
 7210W        W11410   1.458   5.698  10.702
 7211W        W11411   6.980  11.483   2.730
 7212W        W11412   0.465  10.748   2.611
 7213W        W11413   8.705   2.316   3.413
 7214W        W11414  11.385   7.980  10.848
 7215W        W11415   9.147  11.174   1.191
 7216W        W11416   5.272   3.330   8.413
 7217W        W11417  10.406   4.500   9.816
 7218W        W11418   4.668   6.685   3.376
 7219W        W11419   8.511   7.288   0.889
 7220W        W11420   5.681   4.833   1.464
 7221W        W11421   2.825   2.110   1.391
 7222W        W11422   9.559   9.372   9.850
 7223W        W11423   3.281   0.451  11.901
 7224W        W11424   9.407   3.262   0.808
 7225W        W11425   7.790   3.121  10.095
 7226W        W11426   6.977   7.998   1.069
 7227W        W11427   9.476   0.715   0.749
 7228W        W11428   5.887  10.606   8.987
 7229W        W11429  10.739   4.161   1.388
 7230W        W11430   9.909   6.204   0.952
 7231W        W11431   5.329   4.927   1.096
 7232W        W11432   1.343   1.217  11.547
 7233W        W11433   9.815  10.361   2.505
 7234W        W11434   3.665   6.537  11.459
 7235W        W11435  10.158   4.290   1.341
 7236W        W11436   3.158  11.488   2.717
 7237W        W11437   0.670   9.442   9.371
 7238W        W11438   2.124  11.445  10.944
 7239W        W11439  10.422   1.364  10.094
 7240W        W11440   5.234   8.391  10.340
 7241W        W11441   6.184  10.841  10.077
 7242W        W11442   7.623  10.455   9.307
 7243W        W11443   0.470   9.080   1.715
 7244W        W11444  10.376   1.859   2.658
 7245W        W11445   8.567   2.032   8.486
 7246W        W11446   4.742   0.533  11.967
 7247W        W11447  10.275   9.486   2.116
 7248W        W11448   4.824   0.925   1.120
 7249W        W11449   8.473   3.221   0.282
 7250W        W11450   8.360   7.962   2.247
 7251W        W11451   0.671   8.614   3.250
 7252W        W11452   3.816   8.626   3.974
 7253W        W11453   5.921   4.988   3.089
 7254W        W11454   2.336   2.114   2.845
 7255W        W11455   5.280  10.841   0.119
 7256W        W11456  10.410   6.928   9.947
 7257W        W11457   3.221   6.526  11.713
 7258W        W11458   3.603   7.005   1.938
 7259W        W11459   6.457   5.242   0.910
 7260W        W11460   4.652   7.618   9.803
 7261W        W11461   2.019   2.733   0.874
 7262W        W11462   1.694   9.139   1.639
 7263W        W11463   5.143   4.326  10.995
 7264W        W11464   6.348   7.084   3.521
 7265W        W11465   0.483   7.182  10.810
 7266W        W11466   5.684   2.057   0.617
 7267W        W11467   5.485   8.916   9.060
 7268W        W11468   8.630   0.790   0.351
 7269W        W11469   0.830   6.769   0.811
 7270W        W11470   1.300   7.050   0.622
 7271W        W11471   9.683   8.138   9.458
 7272W        W11472   0.130   3.074   1.178
 7273W        W11473   2.763   1.670   2.244
 7274W        W11474   8.518   5.634   8.525
 7275W        W11475   8.588   8.440  10.668
 7276W        W11476   0.612   7.202   0.995
 7277W        W11477   2.119   9.711   9.838
 7278W        W11478   7.760   6.369  10.991
 7279W        W11479   5.151   0.044   1.226
 7280W        W11480   2.390   6.062   2.397
 7281W        W11481   9.999   9.481   2.998
 7282W        W11482   5.564   7.064   1.935
 7283W        W11483   3.602   6.917   9.349
 7284W        W11484   7.143   0.272   3.273
 7285W        W11485   4.742   2.211   9.039
 7286W        W11486   2.302   3.851   1.271
 7287W        W11487  10.968   3.779   1.016
 7288W        W11488   0.421   5.103   0.492
 7289W        W11489   4.095  10.659  11.511
 7290W        W11490   0.843   1.005  11.298
 7291W        W11491   6.381   2.504   8.183
 7292W        W11492   3.677   7.509   1.751
 7293W        W11493   0.901   5.198  11.325
 7294W        W11494   3.120  10.957   0.417
 7295W        W11495   4.340   4.980   0.580
 7296W        W11496   1.553  10.965   9.913
 7297W        W11497   3.919   2.814  11.594
 7298W        W11498   5.336   4.026  10.508
 7299W        W11499   6.668   4.710   2.162
 7300W        W11500   6.590   7.673   2.730
 7301W        W11501   8.978   6.673   9.987
 7302W        W11502   8.137  11.257  11.351
 7303W        W11503   7.581   3.206   3.313
 7304W        W11504   9.359   1.802   8.792
 7305W        W11505   3.055   0.941  10.613
 7306W        W11506   1.752   5.246   1.429
 7307W        W11507   8.779   5.356  11.617
 7308W        W11508   6.209   1.937   9.789
 7309W        W11509   2.902   7.854   9.032
 7310W        W11510   9.533   2.232   2.705
 7311W        W11511   8.574   6.378   8.184
 7312W        W11512   7.904   4.841   9.077
 7313W        W11513   4.727   8.472   2.282
 7314W        W11514   9.506   3.718   3.415
 7315W        W11515   0.370  10.078  10.003
 7316W        W11516   4.787   1.176   3.728
 7317W        W11517   6.421   2.906   2.741
 7318W        W11518   1.991   3.402   2.654
 7319W        W11519   1.434   7.962   1.772
 7320W        W11520   3.110   6.507   0.243
 7321W        W11521   4.254   0.544   1.977
 7322W        W11522   7.022   2.396   0.760
 7323W        W11523   1.674   8.426   0.562
 7324W        W11524   0.032   2.072   0.905
 7325W        W11525   5.578   2.709   3.883
 7326W        W11526   6.527   3.361  11.622
 7327W        W11527   5.602   4.592   8.274
 7328W        W11528   7.440   8.869   0.937
 7329W        W11529   0.409   9.633  11.947
 7330W        W11530   5.734   1.411   9.314
 7331W        W11531   5.560   2.362   9.870
 7332W        W11532   0.824   5.513  11.727
 7333W        W11533   3.592  10.880   0.181
 7334W        W11534   5.295   9.827  10.407
 7335W        W11535   8.861   9.351  11.924
 7336W        W11536  10.783   3.692   8.816
 7337W        W11537   4.269   7.714   2.254
 7338W        W11538   9.591   6.444   2.572
 7339W        W11539   4.464   8.446  11.747
 7340W        W11540   4.139   5.527   0.695
 7341W        W11541  11.355   8.967   0.987
 7342W        W11542   3.000   9.722   8.414
 7343W        W11543   4.178   1.807   3.198
 7344W        W11544  11.422   1.860   3.115
 7345W        W11545   0.487   3.655   0.484
 7346W        W11546   8.952   3.737   1.446
 7347W        W11547   0.887  10.519  10.539
 7348W        W11548   7.675   1.919  10.624
 7349W        W11549   3.115  11.032   0.946
 7350W        W11550   0.769   4.118   3.692
 7351W        W11551   1.715  11.338   9.590
 7352W        W11552   1.072   1.263   0.827
 7353W        W11553   4.473   4.657   8.953
 7354W        W11554   3.659   3.187   0.399
 7355W        W11555   8.174   7.542   9.716
 7356W        W11556   2.213  10.206  11.035
 7357W        W11557   1.911   3.773   0.239
 7358W        W11558  10.865   3.603  10.665
 7359W        W11559   3.544  10.789   3.310
 7360W        W11560   9.410   1.836   2.241
 7361W        W11561   3.272   0.643  10.020
 7362W        W11562  11.498  11.357   1.511
 7363W        W11563   2.286   2.743   0.440
 7364W        W11564  11.340   8.883  10.071
 7365W        W11565   4.732   5.937   4.035
 7366W        W11566   6.377  10.915  11.083
 7367W        W11567   6.635   5.712  11.501
 7368W        W11568   7.881   2.197   9.713
 7369W        W11569  11.101   3.697   9.240
 7370W        W11570  10.826   4.961   0.357
 7371W        W11571   2.270   9.389  11.699
 7372W        W11572   1.543   5.346   8.491
 7373W        W11573   0.926   9.524   2.930
 7374W        W11574   1.876   7.890   1.534
 7375W        W11575   1.802   5.686   1.143
 7376W        W11576   1.858   7.541   0.737
 7377W        W11577   3.829   3.555   2.654
 7378W        W11578   6.112   9.489   1.937
 7379W        W11579   7.645   4.559   3.757
 7380W        W11580   1.270   6.672   1.629
 7381W        W11581   9.860  10.494   0.299
 7382W        W11582   1.821   4.594   1.448
 7383W        W11583   1.636   5.656  11.187
 7384W        W11584   9.361  10.336   9.969
 7385W        W11585   2.720   5.558   1.191
 7386W        W11586   5.641   7.565   2.691
 7387W        W11587   0.986   4.205  10.572
 7388W        W11588   9.517   4.400   1.782
 7389W        W11589   2.634  10.258   9.542
 7390W        W11590   5.343   4.253   1.951
 7391W        W11591   0.460   1.721   1.942
 7392W        W11592   3.710   1.738   2.558
 7393W        W11593   0.864   0.755   1.667
 7394W        W11594   2.299   7.084   8.564
 7395W        W11595   8.367   5.270  11.957
 7396W        W11596  10.382   2.086   9.581
 7397W        W11597   1.160   5.838   2.886
 7398W        W11598   6.036   2.570   2.101
 7399W        W11599   3.539   5.180   9.018
 7400W        W11600   8.029   5.700   3.835
 7401W        W11601   2.380   6.094   3.322
 7402W        W11602  11.026   8.283   0.797
 7403W        W11603   4.435   0.306   3.248
 7404W        W11604   9.248   0.465   1.642
 7405W        W11605   5.604   4.048  10.966
 7406W        W11606   9.610   7.399   2.681
 7407W        W11607   0.043  10.255   9.489
 7408W        W11608   5.958  10.278   0.201
 7409W        W11609   2.759   9.986   2.644
 7410W        W11610   1.825   7.249   2.322
 7411W        W11611   1.433   8.643  10.067
 7412W        W11612   9.085   5.139   9.332
 7413W        W11613   4.068  10.756   9.410
 7414W        W11614   6.397   7.992   1.529
 7415W        W11615  10.374   4.703   0.388
 7416W        W11616   7.305   5.733   2.412
 7417W        W11617   3.281   8.208  10.604
 7418W        W11618   2.745   0.935   3.134
 7419W        W11619  10.485   9.365   3.154
 7420W        W11620   6.651   3.756  10.335
 7421W        W11621   3.216   6.952   9.000
 7422W        W11622   8.426   0.237   8.402
 7423W        W11623   3.749   2.779   0.672
 7424W        W11624   2.496  11.359   3.273
 7425W        W11625  11.136   7.951   9.852
 7426W        W11626   5.013   3.094   2.323
 7427W        W11627   6.751   9.801  10.450
 7428W        W11628   3.541   4.438   9.364
 7429W        W11629  11.088   8.793   1.427
 7430W        W11630   3.100  10.917   1.542
 7431W        W11631   6.998  11.149   9.523
 7432W        W11632   6.387   9.392   0.462
 7433W        W11633   8.373   9.960   1.741
 7434W        W11634   4.957   3.688  11.742
 7435W        W11635   7.671   1.752  10.106
 7436W        W11636   3.661  10.928   1.731
 7437W        W11637   0.337   4.284   8.813
 7438W        W11638   4.721   5.716   0.037
 7439W        W11639  10.745   0.828   9.412
 7440W        W11640   1.204  11.328   9.834
 7441W        W11641   2.358   8.914   2.515
 7442W        W11642  10.548   4.219   0.920
 7443W        W11643   0.165   2.194  11.826
 7444W        W11644   2.934   2.661   0.003
 7445W        W11645  10.706   5.238   8.556
 7446W        W11646   7.593   8.108  11.758
 7447W        W11647   0.600   5.133   1.873
 7448W        W11648   2.240   3.850  11.839
 7449W        W11649  10.303   0.991  11.414
 7450W        W11650  11.369  10.081  11.135
 7451W        W11651  10.524  11.377   3.301
 7452W        W11652   7.078   1.848   3.453
 7453W        W11653   3.018   2.132   2.219
 7454W        W11654   8.159   9.933   2.710
 7455W        W11655   3.261   9.625  10.275
 7456W        W11656  10.661   0.379   3.248
 7457W        W11657   3.284   4.121   0.839
 7458W        W11658   4.108   6.977   1.931
 7459W        W11659  11.037  10.732   9.985
 7460W        W11660   5.102   7.207  11.528
 7461W        W11661   8.031  10.830   3.348
 7462W        W11662   2.207   5.072   8.637
 7463W        W11663  10.889   0.372   8.526
 7464W        W11664   5.541   7.274   3.798
 7465W        W11665  10.385   5.469   8.875
 7466W        W11666   2.864   2.727   3.291
 7467W        W11667  10.742   9.274  11.616
 7468W        W11668  10.340   5.596   3.024
 7469W        W11669   8.122  10.264   9.604
 7470W        W11670   1.791  10.088   9.745
 7471W        W11671   5.532   4.586   3.767
 7472W        W11672   4.694   9.311  11.768
 7473W        W11673   7.606   4.775   2.162
 7474W        W11674   7.138   8.441   9.255
 7475W        W11675   1.086   4.855   3.655
 7476W        W11676   1.569   8.168   3.443
 7477W        W11677   4.012   7.597  11.899
 7478W        W11678   9.159   3.656  11.669
 7479W        W11679   5.628   0.339   9.482
 7480W        W11680   8.616   8.017  11.536
 7481W        W11681  11.305  10.016   1.170
 7482W        W11682  11.393   8.277   9.067
 7483W        W11683   3.381  10.392   1.113
 7484W        W11684   1.857   8.398   1.022
 7485W        W11685   1.193   9.090  11.141
 7486W        W11686   2.652   9.781   0.410
 7487W        W11687   5.034   5.332   2.348
 7488W        W11688   7.752   2.366   0.260
 7489W        W11689  10.298   9.127   1.744
 7490W        W11690   8.945  10.424   2.816
 7491W        W11691   1.093   4.405   8.708
 7492W        W11692   2.869   8.859   2.395
 7493W        W11693   1.711   1.414  11.893
 7494W        W11694   3.498   2.547   9.011
 7495W        W11695   7.168   8.798   2.250
 7496W        W11696   6.799   7.669   1.406
 7497W        W11697   2.682   0.295   3.516
 7498W        W11698   1.231   9.551   1.244
 7499W        W11699   7.824   8.572  10.008
 7500W        W11700   6.094   7.331   2.684
 7501W        W11701   2.641   0.722   0.354
 7502W        W11702   3.121   1.670   9.108
 7503W        W11703   8.047   4.730  11.297
 7504W        W11704   4.663   8.515   1.249
 7505W        W11705   5.091   6.089   1.964
 7506W        W11706   4.719   4.828   0.931
 7507W        W11707   1.208   0.735   9.461
 7508W        W11708   7.520   2.632   9.058
 7509W        W11709   6.565   9.031  10.737
 7510W        W11710   1.815   6.622   9.602
 7511W        W11711  10.458   0.210   0.467
 7512W        W11712   8.215   8.499  10.311
 7513W        W11713   4.490   5.257  11.743
 7514W        W11714   0.926   3.102   0.973
 7515W        W11715   9.978   6.830   0.692
 7516W        W11716   2.387   8.028   0.085
 7517W        W11717   0.723   5.698   1.995
 7518W        W11718   8.673   2.061   2.961
 7519W        W11719   5.036   4.393  11.501
 7520W        W11720   9.276   8.390   0.514
 7521W        W11721   8.868   2.295  10.447
 7522W        W11722   3.945   2.381   8.618
 7523W        W11723  10.986   5.247  10.022
 7524W        W11724   6.761   5.142  10.139
 7525W        W11725   9.040   2.531   0.459
 7526W        W11726   8.852   4.443   8.876
 7527W        W11727   3.195   8.415   1.759
 7528W        W11728   3.562   4.865   1.254
 7529W        W11729  10.549   3.733   0.721
 7530W        W11730   6.572   3.332  10.030
 7531W        W11731   0.942   4.777   9.056
 7532W        W11732   5.449   8.360  11.686
 7533W        W11733   1.915   3.667   9.280
 7534W        W11734   3.902   2.148  10.786
 7535W        W11735  10.427   1.167  10.564
 7536W        W11736   3.392   5.237   4.110
 7537W        W11737   6.191   2.710   3.145
 7538W        W11738   4.052   9.137  11.403
 7539W        W11739   6.008   4.788  10.839
 7540W        W11740   8.230   8.446   1.407
 7541W        W11741   9.310   1.800  11.476
 7542W        W11742   1.653   6.463   3.255
 7543W        W11743   8.158   7.333   9.254
 7544W        W11744   8.258   1.731   2.982
 7545W        W11745   8.555  10.814   2.804
 7546W        W11746   2.213   4.092   3.072
 7547W        W11747  11.434   9.600  11.771
 7548W        W11748   0.447   2.627   2.849
 7549W        W11749   6.170   5.040   1.318
 7550W        W11750   6.579   9.025   2.909
 7551W        W11751   7.697  11.453  11.525
 7552W        W11752   6.322   0.884   0.456
 7553W        W11753   0.866   8.933  11.526
 7554W        W11754   2.131   9.788  11.366
 7555W        W11755   4.997   7.405   0.048
 7556W        W11756  10.725  10.835   1.275
 7557W        W11757   3.968   7.962   9.180
 7558W        W11758   5.058   4.059   8.749
 7559W        W11759   9.099   3.316   8.943
 7560W        W11760   4.358   9.594   0.348
 7561W        W11761   2.361   6.692   9.005
 7562W        W11762   6.144   6.003   2.233
 7563W        W11763   6.221   4.486   3.035
 7564W        W11764   0.856   5.658   1.162
 7565W        W11765   0.373   9.555   9.959
 7566W        W11766   8.566   5.226   8.200
 7567W        W11767   3.332   2.494   2.414
 7568W        W11768  10.385   0.466   8.787
 7569W        W11769   8.584   3.673  11.024
 7570W        W11770  11.352   8.266  11.289
 7571W        W11771  10.168   0.275   3.194
 7572W        W11772   6.209   6.586  11.332
 7573W        W11773  10.811   3.307   1.870
 7574W        W11774   5.129   7.393  10.115
 7575W        W11775   0.493  10.838  10.425
 7576W        W11776   5.198   8.683   2.577
 7577W        W11777   9.981  11.388  10.963
 7578W        W11778   7.086   9.324   1.482
 7579W        W11779   9.184   8.252   9.444
 7580W        W11780   5.235   1.919   0.425
 7581W        W11781   4.205   4.542   2.363
 7582W        W11782   8.989   8.923  10.228
 7583W        W11783   0.654   2.376   3.251
 7584W        W11784   7.609   6.358   3.994
 7585W        W11785   9.027   6.488   7.899
 7586W        W11786   7.983   6.855  10.862
 7587W        W11787   2.813  11.356   1.202
 7588W        W11788   9.649   4.552   9.315
 7589W        W11789   6.911   7.587  10.823
 7590W        W11790   5.645   9.818  10.871
 7591W        W11791   0.380   6.569   9.698
 7592W        W11792   2.130   0.404   1.320
 7593W        W11793   3.025   2.357  10.617
 7594W        W11794  10.816  10.757  11.408
 7595W        W11795   1.200   7.848   2.901
 7596W        W11796   0.393   7.131   3.025
 7597W        W11797   5.046   8.839  10.552
 7598W        W11798   7.452   1.650   0.709
 7599W        W11799   5.602   0.251  11.005
 7600W        W11800   7.923   7.808   9.342
 7601W        W11801   6.439   9.684  10.866
 7602W        W11802   5.248   2.888   2.720
 7603W        W11803   5.182   6.155  10.477
 7604W        W11804   5.215   2.103   8.482
 7605W        W11805   1.470   0.235  11.246
 7606W        W11806   2.719   1.615   0.126
 7607W        W11807   0.872   6.852   3.113
 7608W        W11808   8.243   3.574   8.650
 7609W        W11809   0.905   9.064   2.004
 7610W        W11810   6.107  11.347  10.892
 7611W        W11811   5.623   9.454  10.291
 7612W        W11812   3.550   0.156  10.049
 7613W        W11813  11.177  10.487   2.865
 7614W        W11814   6.609   8.946   0.425
 7615W        W11815   0.335   4.174   9.371
 7616W        W11816   1.497   7.412  11.170
 7617W        W11817   8.522   2.821  11.010
 7618W        W11818   2.909   9.801   8.966
 7619W        W11819   4.829   2.458  10.440
 7620W        W11820   3.512   1.308  10.730
 7621W        W11821   4.824   7.663   0.836
 7622W        W11822   1.539   5.152   9.469
 7623W        W11823   3.468   5.468   8.565
 7624W        W11824  10.330   5.577   1.930
 7625W        W11825   2.731   5.735  11.749
 7626W        W11826   9.209   5.196   1.872
 7627W        W11827   2.717   3.589   8.900
 7628W        W11828   5.969  10.363   8.529
 7629W        W11829   6.664  10.134   9.372
 7630W        W11830   2.226   2.440   9.018
 7631W        W11831   6.319   8.203   8.240
 7632W        W11832   6.979  11.498  10.484
 7633W        W11833   8.642  10.804   9.949
 7634W        W11834   6.025   4.545   9.939
 7635W        W11835   5.646   2.703  11.496
 7636W        W11836   4.101  10.629   8.692
 7637W        W11837   5.761   3.206   3.845
 7638W        W11838   5.063   0.703  10.321
 7639W        W11839   2.653   4.526  10.690
 7640W        W11840  11.082  11.492  11.771
 7641W        W11841   7.444   1.275  11.833
 7642W        W11842   5.553   5.937  11.099
 7643W        W11843   1.804   6.405   0.030
 7644W        W11844   5.456  11.271  10.283
 7645W        W11845   2.960   8.402   8.369
 7646W        W11846   4.220   5.537  11.313
 7647W        W11847   4.801   7.452   2.265
 7648W        W11848   6.065   2.117  10.600
 7649W        W11849   9.280   8.165  10.258
 7650W        W11850   2.794   1.260   1.912
 7651W        W11851   8.878   1.112   0.012
 7652W        W11852   4.702   9.346  10.671
 7653W        W11853   0.913  11.291   1.952
 7654W        W11854   1.123   2.659   1.123
 7655W        W11855   8.209   6.064   1.215
 7656W        W11856   9.934   0.354   9.636
 7657W        W11857   0.273   6.979   9.995
 7658W        W11858   2.631   8.541   8.742
 7659W        W11859   2.681   5.042   8.391
 7660W        W11860   2.722   4.262   8.315
 7661W        W11861  11.388   4.804  10.065
 7662W        W11862   4.270   2.722  10.215
 7663W        W11863   5.038   4.430   9.102
 7664W        W11864   5.646   9.833   9.360
 7665W        W11865   5.874   3.599   1.416
 7666W        W11866   9.505  10.413   9.022
 7667W        W11867   6.222   5.685   2.645
 7668W        W11868  10.423   5.201   9.303
 7669W        W11869   9.327   7.445   8.543
 7670W        W11870  11.275   8.302   3.098
 7671W        W11871  11.498   6.024   1.094
 7672W        W11872  11.302   4.740   9.551
 7673W        W11873  11.318   1.858  10.043
 7674W        W11874   2.934   6.897  10.371
 7675W        W11875   6.847   7.119  11.539
 7676W        W11876   6.437   6.634   9.546
 7677W        W11877   5.168   2.356  11.315
 7678W        W11878   7.746   5.067  10.778
 7679W        W11879   6.734   3.618   1.287
 7680W        W11880   2.658   1.456   0.783
 7681W        W11881   2.820   2.597   2.308
 7682W        W11882   7.169  10.441   2.913
 7683W        W11883   9.787   9.414   9.106
 7684W        W11884  10.610   4.778  11.933
 7685W        W11885   7.617  10.369   3.145
 7686W        W11886   0.904   1.445   9.526
 7687W        W11887   3.691   3.866  10.166
 7688W        W11888  10.535   5.155   1.719
 7689W        W11889   0.687   9.543   2.473
 7690W        W11890   1.787   5.160   9.918
 7691W        W11891   3.834   3.277  11.352
 7692W        W11892   9.946  10.104   9.735
 7693W        W11893  10.320  11.419   1.826
 7694W        W11894   7.141   2.607  10.830
 7695W        W11895   4.764   9.513   9.249
 7696W        W11896   5.164   9.577  11.360
 7697W        W11897   9.996   2.105   2.934
 7698W        W11898   7.980   5.729  11.473
 7699W        W11899   9.952   4.896   0.079
 7700W        W11900   1.207  10.851  10.275
 7701W        W11901   7.670   0.470   0.712
 7702W        W11902   6.791   7.173   1.223
 7703W        W11903  10.276   0.785   9.226
 7704W        W11904   0.058   6.950  11.885
 7705W        W11905   6.505   4.529   0.644
 7706W        W11906   8.162  11.495   9.711
 7707W        W11907   0.698   3.021   2.360
 7708W        W11908   5.131   7.991   1.130
 7709W        W11909  10.346   0.933   2.390
 7710W        W11910   0.222   9.818  11.394
 7711W        W11911   8.468   9.496  11.641
 7712W        W11912   2.351   0.648   3.318
 7713W        W11913   2.291  10.473  11.943
 7714W        W11914   0.086   1.562   0.888
 7715W        W11915   2.316   8.345   1.221
 7716W        W11916   3.752   3.086   2.843
 7717W        W11917   4.437   9.450   3.629
 7718W        W11918   2.325  11.215   2.290
 7719W        W11919   3.655   7.589   0.421
 7720W        W11920   2.626   4.970   0.361
 7721W        W11921   1.341   9.995  11.758
 7722W        W11922   7.902   1.483  10.748
 7723W        W11923  10.497   1.180   1.535
 7724W        W11924   0.754   3.151   9.393
 7725W        W11925   7.103   1.621  10.835
 7726W        W11926   6.248   7.643   2.297
 7727W        W11927   6.570   6.542   1.107
 7728W        W11928   1.762   2.034   0.500
 7729W        W11929   9.394   1.300  11.513
 7730W        W11930   3.683   3.729   1.651
 7731W        W11931   7.448   4.319   1.959
 7732W        W11932   1.913   1.539   0.480
 7733W        W11933   1.143   9.445   2.260
 7734W        W11934   9.967   6.656   8.718
 7735W        W11935   5.958  10.642   3.313
 7736W        W11936   0.265   9.521   9.021
 7737W        W11937   7.855   5.512  11.014
 7738W        W11938   8.217   9.061   2.193
 7739W        W11939   0.990   3.185   2.759
 7740W        W11940   3.007   4.220  11.505
 7741W        W11941  10.206   4.481  11.936
 7742W        W11942   7.574  10.327  10.296
 7743W        W11943   1.719   9.028   2.829
 7744W        W11944  10.828   6.573   0.675
 7745W        W11945   6.714   0.077   0.433
 7746W        W11946  11.275   6.101   1.546
 7747W        W11947   9.587   3.707  11.910
 7748W        W11948   1.988  11.454   0.871
 7749W        W11949   3.725   7.820   2.185
 7750W        W11950   1.769   5.789   0.657
 7751W        W11951   8.864   8.106   1.483
 7752W        W11952   4.930   6.537   9.086
 7753W        W11953   0.016   2.727   1.988
 7754W        W11954  10.433  11.090  11.099
 7755W        W11955   6.705   2.207   9.397
 7756W        W11956   4.394   1.519   2.259
 7757W        W11957   3.595   4.186   8.932
 7758W        W11958   4.791   0.220  10.949
 7759W        W11959   2.863   7.045   3.298
 7760W        W11960   5.729  10.630   9.946
 7761W        W11961  10.943   4.774   8.593
 7762W        W11962   9.237   9.103   0.619
 7763W        W11963  10.587   2.768  10.720
 7764W        W11964   6.175   1.727   1.016
 7765W        W11965   6.495  10.687   0.796
 7766W        W11966   3.155   4.212   2.253
 7767W        W11967   5.226   6.826   8.770
 7768W        W11968   0.417   5.551   0.056
 7769W        W11969  11.480   6.167   9.058
 7770W        W11970  10.863   5.874  10.981
 7771W        W11971   4.212  10.104  10.795
 7772W        W11972   8.988   9.060   1.055
 7773W        W11973   5.052  11.092   9.365
 7774W        W11974   8.531   5.302   2.382
 7775W        W11975   3.163   3.323   9.986
 7776W        W11976   8.208   0.968   0.107
 7777W        W11977   1.378  10.379  10.485
 7778W        W11978   1.918   4.268   0.433
 7779W        W11979   6.543   3.700   0.389
 7780W        W11980   6.424  10.817   2.294
 7781W        W11981   0.695   9.781   8.944
 7782W        W11982   6.180   4.293  11.885
 7783W        W11983   9.560  11.080   9.808
 7784W        W11984   2.411   5.073  10.511
 7785W        W11985   8.217   5.119  10.999
 7786W        W11986   9.401   3.737   1.170
 7787W        W11987   7.039   7.045   2.429
 7788W        W11988   1.769   7.724   2.150
 7789W        W11989  11.320   9.392   9.988
 7790W        W11990   2.492   3.116  10.609
 7791W        W11991   8.876   9.810  11.701
 7792W        W11992   5.147   1.875   1.830
 7793W        W11993   4.829  11.303   1.524
 7794W        W11994   2.909   3.656   0.245
 7795W        W11995   5.377   2.718   9.043
 7796W        W11996   7.972   0.216  11.882
 7797W        W11997   6.392   9.111   3.732
 7798W        W11998   8.370   3.409   1.754
 7799W        W11999   5.995   0.189   0.209
 7800W        W12000   6.508  10.842  11.577
 7801W        W12001  10.457   2.236   3.515
 7802W        W12002   0.795   6.709   1.797
 7803W        W12003   8.430   1.400  11.947
 7804W        W12004   1.752   1.773  10.054
 7805W        W12005   3.262   8.682  10.341
 7806W        W12006   6.591   6.132   0.808
 7807W        W12007   9.523   8.099   3.206
 7808W        W12008   1.411   3.524   2.053
 7809W        W12009   6.280   8.871  11.114
 7810W        W12010   8.882   6.196   3.234
 7811W        W12011   8.772   9.569   3.169
 7812W        W12012   5.705   5.107   9.150
 7813W        W12013   9.323   3.389   1.791
 7814W        W12014   7.627   5.410   9.825
 7815W        W12015   3.138   2.073   9.700
 7816W        W12016   0.959   1.960   3.184
 7817W        W12017   8.920   0.529   3.098
 7818W        W12018  10.408   6.439   1.986
 7819W        W12019   7.910   4.267  10.047
 7820W        W12020   6.680   2.537  11.995
 7821W        W12021   4.444   5.769   1.061
 7822W        W12022  10.852   7.018   0.915
 7823W        W12023   4.442   3.244   0.779
 7824W        W12024  10.648   9.590   9.560
 7825W        W12025  11.382   5.524   3.223
 7826W        W12026   6.662   2.724   9.497
 7827W        W12027   5.480  10.156  11.811
 7828W        W12028   2.786   4.841   0.836
 7829W        W12029   2.482   9.516   1.785
 7830W        W12030   5.084   6.454   1.150
 7831W        W12031   1.806   3.355   0.836
 7832W        W12032  10.454   9.131   9.421
 7833W        W12033   4.313   8.666   3.738
 7834W        W12034   0.832   0.247   1.135
 7835W        W12035   5.974   8.205   3.577
 7836W        W12036   7.644   6.562  10.524
 7837W        W12037   4.455   4.216  10.457
 7838W        W12038   8.957  10.834   9.456
 7839W        W12039   7.870   6.924   9.100
 7840W        W12040   8.503   6.914   1.408
 7841W        W12041   2.692  10.792   1.109
 7842W        W12042  10.069  11.286   3.073
 7843W        W12043   3.089   7.044   1.940
 7844W        W12044   3.792   5.968  11.035
 7845W        W12045   4.819   6.139  11.311
 7846W        W12046   9.554   8.621  10.349
 7847W        W12047   3.373  10.025   9.182
 7848W        W12048   2.245   7.870   9.486
 7849W        W12049   3.346   3.464   0.076
 7850W        W12050   1.484   7.856  11.967
 7851W        W12051   4.468   2.752   9.773
 7852W        W12052   8.592   9.145   0.442
 7853W        W12053   9.103  11.324  10.777
 7854W        W12054   7.185   2.358   3.368
 7855W        W12055   2.546   2.623  11.287
 7856W        W12056   0.339   4.797   1.226
 7857W        W12057   4.685   0.126   2.812
 7858W        W12058   5.796   4.374   1.679
 7859W        W12059   6.663   6.081   2.282
 7860W        W12060   5.885   2.731   8.980
 7861W        W12061   8.281   5.151   3.218
 7862W        W12062   6.920   5.123   2.356
 7863W        W12063   9.117   8.421  11.506
 7864W        W12064   2.237   5.276   9.097
 7865W        W12065   1.283   4.116   9.765
 7866W        W12066   0.871   0.294   2.154
 7867W        W12067   7.461  11.488  10.185
 7868W        W12068   0.746   2.161   1.910
 7869W        W12069   7.174   0.762  11.839
 7870W        W12070   8.359   4.531  10.311
 7871W        W12071  11.107   4.115   2.274
 7872W        W12072   9.900   3.773   1.334
 7873W        W12073   3.134   9.335   0.721
 7874W        W12074   3.827   1.625   9.939
 7875W        W12075  10.841   4.645  10.817
 7876W        W12076   8.254   6.370  10.801
 7877W        W12077  10.095   3.827   9.541
 7878W        W12078  10.703   4.149  10.586
 7879W        W12079   5.114   7.490  10.613
 7880W        W12080  11.446  10.934   2.784
 7881W        W12081   0.418   5.268   1.406
 7882W        W12082  10.059   3.778   3.454
 7883W        W12083   6.341   3.942   8.189
 7884W        W12084   3.224   5.428   3.664
 7885W        W12085   8.475   0.813   3.186
 7886W        W12086   1.795   6.503   9.083
 7887W        W12087   2.325   1.852   0.453
 7888W        W12088  10.864   3.922  11.076
 7889W        W12089   5.230   1.840  11.431
 7890W        W12090   5.467   8.155   9.905
 7891W        W12091   5.874   2.011   1.901
 7892W        W12092   2.320   7.546  11.785
 7893W        W12093   3.064   0.328   1.395
 7894W        W12094   7.676   3.122  10.962
 7895W        W12095   2.437  10.660  10.913
 7896W        W12096   4.247   3.210  10.419
 7897W        W12097   8.586   4.261   2.856
 7898W        W12098   1.378   0.393   0.830
 7899W        W12099   0.299   0.402   0.006
 7900W        W12100   7.056   0.232   2.231
 7901W        W12101   9.109   6.609   8.875
 7902W        W12102   4.198   7.492   1.811
 7903W        W12103   8.581   1.826   3.380
 7904W        W12104   1.511   0.326   9.593
 7905W        W12105   1.496   2.933   8.384
 7906W        W12106   7.334   6.464  10.106
 7907W        W12107  10.575   7.126   2.739
 7908W        W12108  11.363   9.773   3.383
 7909W        W12109   6.448   9.767   0.817
 7910W        W12110   1.927   7.778   3.477
 7911W        W12111   2.852   1.890   0.537
 7912W        W12112   7.027   4.836   9.136
 7913W        W12113   3.293   6.220  10.704
 7914W        W12114   9.616   3.107   2.750
 7915W        W12115   6.451   6.080  10.991
 7916W        W12116  10.354  10.392   0.231
 7917W        W12117   3.120   6.054  11.842
 7918W        W12118   5.345   1.914  10.006
 7919W        W12119   7.708   5.952  10.701
 7920W        W12120   7.499   5.390   0.237
 7921W        W12121   9.420  10.241   2.795
 7922W        W12122   1.001   9.847   1.669
 7923W        W12123   4.605   1.766   1.429
 7924W        W12124   6.155   2.267   0.778
 7925W        W12125   1.796   2.263   8.769
 7926W        W12126   2.187   7.087  11.562
 7927W        W12127   9.467   9.124   9.386
 7928W        W12128   4.644   1.891  10.291
 7929W        W12129   1.372   7.026   3.238
 7930W        W12130   9.985   3.277  10.852
 7931W        W12131   8.979   5.032   3.735
 7932W        W12132   6.468   9.977  11.896
 7933W        W12133   5.198   8.357   1.557
 7934W        W12134   6.600   2.323   0.474
 7935W        W12135  11.298  10.539  10.412
 7936W        W12136   4.805   0.984   1.620
 7937W        W12137   7.729   8.971  11.463
 7938W        W12138   5.521   7.497  11.434
 7939W        W12139   7.623   3.120   2.011
 7940W        W12140   7.936   6.877  11.717
 7941W        W12141   4.687   9.379   2.220
 7942W        W12142   2.238   6.141   0.289
 7943W        W12143   3.918   0.403   8.790
 7944W        W12144   5.940   0.970   9.473
 7945W        W12145   7.511   4.101   9.284
 7946W        W12146   9.490   1.890   3.542
 7947W        W12147   4.614  11.072   1.940
 7948W        W12148   5.716   1.173   0.350
 7949W        W12149   5.401  10.813  10.741
 7950W        W12150   6.986   4.191   9.981
 7951W        W12151   7.687   7.075  10.481
 7952W        W12152   3.676   6.460  10.936
 7953W        W12153  10.022   8.313   8.402
 7954W        W12154  11.005   0.428  10.331
 7955W        W12155  10.786   4.177   2.737
 7956W        W12156   1.326   6.630   2.909
 7957W        W12157   2.298   4.742   9.225
 7958W        W12158   2.404   1.601   2.968
 7959W        W12159   2.982   7.510   2.566
 7960W        W12160   5.494  11.448   0.858
 7961W        W12161   9.587   5.403   1.618
 7962W        W12162   1.002   7.031   8.703
 7963W        W12163   7.088   3.035   0.111
 7964W        W12164   1.782   5.425   0.301
 7965W        W12165   6.807   3.262   3.725
 7966W        W12166   6.681   5.355  10.593
 7967W        W12167   3.583   1.432   1.270
 7968W        W12168   4.096   8.035   0.901
 7969W        W12169   4.336   4.842   2.792
 7970W        W12170   2.196   0.392   1.934
 7971W        W12171   8.337  10.377   0.431
 7972W        W12172   5.251   9.367  11.831
 7973W        W12173   7.654   2.568  11.771
 7974W        W12174   2.853   2.866   2.781
 7975W        W12175   4.827   2.871  10.125
 7976W        W12176   0.771   7.593   1.283
 7977W        W12177   8.549  10.832   3.306
 7978W        W12178   0.796   4.110   9.581
 7979W        W12179   6.121   0.412   1.722
 7980W        W12180  10.545  10.722   0.569
 7981W        W12181   4.905  10.633   2.538
 7982W        W12182   5.613   9.631   9.818
 7983W        W12183   8.051   7.383   1.669
 7984W        W12184   3.047   9.096   9.562
 7985W        W12185  10.299   3.595   2.970
 7986W        W12186   5.123   1.647   0.850
 7987W        W12187   5.108   1.142   8.788
 7988W        W12188  10.044  10.816   3.257
 7989W        W12189   8.524   0.390  11.480
 7990W        W12190   8.526   7.448   2.840
 7991W        W12191   4.430   0.580   2.468
 7992W        W12192   7.465   3.046   9.705
 7993W        W12193   7.238  10.868   1.966
 7994W        W12194   0.007   5.547  11.720
 7995W        W12195   5.051  10.285   3.416
 7996W        W12196   8.664   9.364   2.333
 7997W        W12197   9.562   1.120   0.357
 7998W        W12198   6.547   9.525  11.649
 7999W        W12199   1.780   5.903   0.134
 8000W        W12200   5.628   3.681   3.303
 8001W        W12201   8.653   1.252   2.475
 8002W        W12202   9.005   4.532  11.881
 8003W        W12203  11.016   9.036   8.783
 8004W        W12204   2.460   7.051  11.079
 8005W        W12205   0.925   9.914   2.189
 8006W        W12206   9.695  11.005   3.620
 8007W        W12207   8.803   7.082  11.254
 8008W        W12208   6.540   2.194   8.800
 8009W        W12209   3.228   6.458  11.194
 8010W        W12210   0.691   3.647   9.812
 8011W        W12211   8.133   6.218   3.973
 8012W        W12212  10.479   8.612   9.411
 8013W        W12213  10.773   9.029  10.748
 8014W        W12214   6.564   4.811   1.657
 8015W        W12215   7.946   4.134   3.668
 8016W        W12216   7.550   2.873  11.382
 8017W        W12217   3.342   2.784   0.322
 8018W        W12218   2.690   6.505   9.530
 8019W        W12219   7.214   6.609   3.729
 8020W        W12220   1.448   2.784   3.045
 8021W        W12221   1.360   6.034   3.359
 8022W        W12222   0.669   5.220   0.931
 8023W        W12223   8.336   5.588  10.826
 8024W        W12224   8.686  10.503   1.767
 8025W        W12225   2.661   8.037   8.610
 8026W        W12226   6.915   9.860  11.682
 8027W        W12227   9.153   1.788  10.419
 8028W        W12228   2.694   6.029   8.986
 8029W        W12229   2.254   6.614  11.846
 8030W        W12230   5.277   6.038  11.514
 8031W        W12231   5.842   2.713   8.314
 8032W        W12232   0.301   7.456   1.412
 8033W        W12233  10.804   7.669  10.147
 8034W        W12234   3.422   5.245   0.313
 8035W        W12235   9.296   9.317   1.810
 8036W        W12236   7.009   9.801   1.651
 8037W        W12237   5.939   8.686  10.287
 8038W        W12238   5.838   0.042   9.025
 8039W        W12239  10.897   7.985   3.246
 8040W        W12240   3.205  10.204   2.194
 8041W        W12241   6.498  11.400  10.264
 8042W        W12242   5.446   9.540   3.690
 8043W        W12243   4.451   1.638   9.890
 8044W        W12244   2.442   2.150  11.453
 8045W        W12245   6.058   8.827   1.830
 8046W        W12246   0.270  10.050   3.252
 8047W        W12247   3.403  10.522   9.918
 8048W        W12248   9.070  10.224   8.777
 8049W        W12249   6.990  10.975  11.686
 8050W        W12250   8.697   5.731   3.113
 8051W        W12251  10.325   2.421  10.423
 8052W        W12252   5.008   6.517  10.100
 8053W        W12253   6.896   8.974   3.688
 8054W        W12254   9.908   4.064   1.778
 8055W        W12255   9.353   6.086   9.216
 8056W        W12256   0.371   1.340  10.389
 8057W        W12257  11.231   4.257   2.964
 8058W        W12258   7.250  11.077  10.396
 8059W        W12259  10.355   1.798   2.148
 8060W        W12260   8.658   5.232  10.634
 8061W        W12261   7.576   4.828  11.451
 8062W        W12262   3.112   4.764   0.414
 8063W        W12263   3.441   8.013   9.124
 8064W        W12264   7.790   3.881   3.254
 8065W        W12265   2.468   7.500  11.300
 8066W        W12266   4.197   3.844  11.030
 8067W        W12267   0.431   0.858   8.755
 8068W        W12268   7.907   0.687   9.309
 8069W        W12269   9.810   2.830  11.593
 8070W        W12270  11.394   8.626   0.140
 8071W        W12271   3.421   9.916  11.560
 8072W        W12272   1.763   4.584   0.030
 8073W        W12273   0.949   0.002   2.975
 8074W        W12274   5.225   5.584   1.877
 8075W        W12275   6.745   0.495   3.546
 8076W        W12276   2.411   7.073   0.547
 8077W        W12277   9.563  11.202   0.502
 8078W        W12278   2.752   6.899   8.736
 8079W        W12279  10.386   5.074   3.285
 8080W        W12280   1.460   3.730   0.496
 8081W        W12281  10.385   5.148   0.663
 8082W        W12282  11.377   8.437   1.663
 8083W        W12283   4.162   4.153  10.034
 8084W        W12284   4.771   0.616   2.834
 8085W        W12285   9.598   2.278   3.209
 8086W        W12286   7.583   7.576   1.833
 8087W        W12287   6.605   2.078   0.935
 8088W        W12288  10.159   8.990   0.491
 8089W        W12289   6.548   0.412   1.437
 8090W        W12290   3.298   6.658   1.667
 8091W        W12291   3.565   8.062   0.836
 8092W        W12292   3.247   3.240   2.796
 8093W        W12293   0.764   2.221   2.772
 8094W        W12294   5.950   3.823  11.862
 8095W        W12295   0.418   3.046   9.770
 8096W        W12296  10.417  10.031   9.479
 8097W        W12297   9.118   5.025  10.277
 8098W        W12298   5.582   9.438   2.226
 8099W        W12299   3.111   5.134   8.683
 8100W        W12300   3.577   9.931  11.069
 8101W        W12301   4.279   2.660   1.455
 8102W        W12302   8.470  10.353   2.612
 8103W        W12303   2.189   2.277   0.737
 8104W        W12304   4.749   0.321   8.371
 8105W        W12305   9.801   7.018   2.333
 8106W        W12306   0.445   4.798  10.112
 8107W        W12307   3.782   5.943  10.490
 8108W        W12308  11.066   2.876  11.718
 8109W        W12309   2.778   0.811  10.021
 8110W        W12310   0.510   9.517  10.720
 8111W        W12311   6.955  11.402   0.861
 8112W        W12312   6.860   6.070   0.353
 8113W        W12313   0.828  11.204  10.173
 8114W        W12314   7.358   8.927  11.782
 8115W        W12315  10.494   8.791   3.437
 8116W        W12316   3.825   2.114   9.060
 8117W        W12317   4.139   1.978  10.134
 8118W        W12318   6.303   6.300   9.194
 8119W        W12319   5.186   1.143   0.850
 8120W        W12320   0.675   5.266   9.270
 8121W        W12321   8.055   5.691   1.678
 8122W        W12322   9.081   8.536  10.537
 8123W        W12323  10.925   9.135  10.275
 8124W        W12324   6.325  10.025  10.286
 8125W        W12325   8.196   6.549   8.968
 8126W        W12326   2.094   7.116   2.742
 8127W        W12327   7.092  10.580   1.483
 8128W        W12328   6.087   9.794   9.889
 8129W        W12329  10.973   4.892   1.614
 8130W        W12330   0.377   2.612  10.487
 8131W        W12331   9.996   0.771   9.947
 8132W        W12332   1.849  11.021  11.502
 8133W        W12333   0.207   4.502   9.755
 8134W        W12334   2.449   6.144   1.258
 8135W        W12335   7.506   9.705   1.334
 8136W        W12336  11.117   7.843   0.031
 8137W        W12337   4.366   8.957   8.526
 8138W        W12338   8.162   3.173  10.443
 8139W        W12339   1.230   9.972  11.271
 8140W        W12340   3.963  10.851   0.871
 8141W        W12341   6.279  10.969  10.558
 8142W        W12342   5.049   9.688  10.864
 8143W        W12343   5.130   2.610   2.293
 8144W        W12344   3.680   4.349  11.978
 8145W        W12345   2.678  11.183  10.411
 8146W        W12346   7.521   4.056  11.834
 8147W        W12347   9.054   9.541   0.880
 8148W        W12348   7.953   8.479  11.424
 8149W        W12349   2.242  10.942  10.532
 8150W        W12350   2.825   3.659   9.818
 8151W        W12351   7.444  10.781  10.750
 8152W        W12352   1.268   1.008  10.445
 8153W        W12353   6.024   3.804   0.918
 8154W        W12354   5.725   4.234   8.652
 8155W        W12355   2.926   3.029   0.935
 8156W        W12356  10.443   7.873  11.050
 8157W        W12357   1.428  10.315   0.510
 8158W        W12358   6.090   8.959   0.494
 8159W        W12359   2.686   0.792   2.164
 8160W        W12360   1.041   1.370   2.339
 8161W        W12361   5.538   1.492  10.190
 8162W        W12362   2.546  11.440   9.996
 8163W        W12363   7.258  10.505   8.953
 8164W        W12364  10.387   8.919   9.894
 8165W        W12365   1.595   9.030  10.405
 8166W        W12366   9.580   6.132   0.526
 8167W        W12367   3.608   7.022   2.824
 8168W        W12368   7.900   5.357   9.089
 8169W        W12369   8.514   1.248   9.014
 8170W        W12370  11.318   6.576  10.953
 8171W        W12371   3.636   2.848   2.191
 8172W        W12372  11.362   2.554   0.007
 8173W        W12373   3.554  10.192  10.341
 8174W        W12374  10.818   7.623   2.899
 8175W        W12375  10.241   9.681  11.257
 8176W        W12376   3.678   7.429   9.340
 8177W        W12377  11.438  10.990  10.166
 8178W        W12378   3.197   6.959  11.980
 8179W        W12379   5.524   4.455  11.697
 8180W        W12380   4.748  10.933   2.972
 8181W        W12381   4.608   6.282   0.666
 8182W        W12382   5.885   7.243   1.216
 8183W        W12383   5.653   6.579   3.597
 8184W        W12384   2.081   0.071   9.870
 8185W        W12385   3.886   5.096   1.574
 8186W        W12386   6.637   8.296   3.390
 8187W        W12387   8.927   7.789   9.458
 8188W        W12388   3.400   1.386   2.763
 8189W        W12389  10.615   5.450   9.690
 8190W        W12390   1.267   6.440   0.720
 8191W        W12391   8.120   6.601   0.497
 8192W        W12392   6.759  10.179   3.625
 8193W        W12393   3.501   8.373   3.627
 8194W        W12394   6.194   6.992  10.571
 8195W        W12395   0.190  10.848  11.191
 8196W        W12396   7.485   0.282   9.026
 8197W        W12397  11.211   2.913   0.946
 8198W        W12398   8.107   0.278   1.997
 8199W        W12399   0.340   8.471   9.814
 8200W        W12400   1.487   1.259   0.489
 8201W        W12401   7.706   8.438   0.808
 8202W        W12402   8.246   2.248   1.734
 8203W        W12403  11.107   1.387   0.941
 8204W        W12404   6.894  10.923   1.045
 8205W        W12405  11.445   0.535   3.825
 8206W        W12406   1.870   9.321  10.846
 8207W        W12407   9.949   6.524   2.214
 8208W        W12408   8.010   2.714   9.783
 8209W        W12409   2.209   9.911  10.316
 8210W        W12410   6.635   1.376  10.791
 8211W        W12411   8.697   6.597   2.638
 8212W        W12412   2.213   5.148   3.167
 8213W        W12413   8.118   8.640  10.808
 8214W        W12414   7.478   8.595   1.822
 8215W        W12415   5.168   6.241  10.970
 8216W        W12416   6.087  10.876   2.686
 8217W        W12417   5.318   6.028   1.272
 8218W        W12418   9.983   5.415  11.910
 8219W        W12419   7.114  10.578  10.396
 8220W        W12420   3.153  10.957   2.904
 8221W        W12421   4.487   3.594   9.160
 8222W        W12422   2.130  10.160   8.945
 8223W        W12423   7.253   3.306   0.932
 8224W        W12424   7.394   9.094   1.889
 8225W        W12425   2.149  11.022   9.623
 8226W        W12426   7.563   0.592   2.742
 8227W        W12427   8.953   4.544  10.177
 8228W        W12428   3.328   9.592  10.787
 8229W        W12429   7.194   5.567   1.937
 8230W        W12430   0.463   4.099   2.871
 8231W        W12431  10.344   7.610   2.710
 8232W        W12432   0.670  11.048  11.117
 8233W        W12433   2.338   2.268  10.935
 8234W        W12434   7.111   1.486   0.364
 8235W        W12435   2.216  10.755   0.368
 8236W        W12436   3.305   9.726   2.345
 8237W        W12437  11.055   7.909   1.142
 8238W        W12438   6.558   7.866  10.407
 8239W        W12439   0.092   3.796   3.591
 8240W        W12440  10.906   3.144  10.942
 8241W        W12441  10.949   0.171   8.998
 8242W        W12442   5.459   3.662  11.791
 8243W        W12443   6.211   4.173   3.469
 8244W        W12444   2.372   4.044   0.365
 8245W        W12445   2.106   2.729  11.508
 8246W        W12446  10.340   4.065   9.014
 8247W        W12447   1.359   2.703   0.139
 8248W        W12448   8.241   0.973   0.641
 8249W        W12449   7.945   4.092   9.541
 8250W        W12450   5.848   7.627   4.028
 8251W        W12451   8.087   4.731   9.919
 8252W        W12452   4.122   5.219  10.540
 8253W        W12453   1.164   4.470   1.837
 8254W        W12454  11.380  10.066  10.618
 8255W        W12455  11.223   6.288  11.382
 8256W        W12456   7.098   6.375   4.183
 8257W        W12457   5.021   4.712   0.210
 8258W        W12458   9.982   9.241  11.990
 8259W        W12459   0.922   3.679   3.420
 8260W        W12460   5.246   4.533   8.647
 8261W        W12461  11.482   3.511   0.389
 8262W        W12462   1.406  11.479   1.817
 8263W        W12463   1.317  11.108   2.185
 8264W        W12464   9.564   6.789  10.343
 8265W        W12465   5.618   6.513   9.887
 8266W        W12466   3.379   7.136   1.490
 8267W        W12467   1.295   6.017   9.172
 8268W        W12468   1.270   9.935   0.794
 8269W        W12469   0.383   0.025   2.347
 8270W        W12470   6.466   2.034  10.247
 8271W        W12471  10.283  10.549  10.261
 8272W        W12472   7.918   0.970  10.710
 8273W        W12473   6.613   7.813   9.118
 8274W        W12474   1.756   7.296   3.459
 8275W        W12475   4.075  10.763   0.053
 8276W        W12476   8.549  10.738   1.333
 8277W        W12477   6.584   5.722   0.015
 8278W        W12478   6.760   7.072   0.670
 8279W        W12479   6.637   3.280  10.542
 8280W        W12480   7.922   6.421   0.918
 8281W        W12481  10.069   5.864   3.381
 8282W        W12482   4.594  10.015  10.007
 8283W        W12483   9.419  10.661   1.222
 8284W        W12484   9.068   4.277   2.616
 8285W        W12485   8.963   5.569   2.129
 8286W        W12486   9.958   6.802   3.188
 8287W        W12487  11.081   0.948  11.746
 8288W        W12488   3.757   4.379  10.220
 8289W        W12489   9.241   5.819   0.194
 8290W        W12490   5.476   6.251   1.696
 8291W        W12491  11.416   7.308   2.960
 8292W        W12492  10.401   9.415   2.648
 8293W        W12493   6.531   8.326   1.174
 8294W        W12494   9.749   7.271  10.418
 8295W        W12495   4.341   7.215   2.346
 8296W        W12496  11.214   6.252   8.617
 8297W        W12497   4.119   4.834   8.597
 8298W        W12498  11.125   3.107   0.490
 8299W        W12499   1.574   6.697   0.379
 8300W        W12500   8.120   9.377   0.524
 8301W        W12501   8.032   9.949   2.214
 8302W        W12502   4.756  10.793   0.297
 8303W        W12503   8.697   8.862   9.824
 8304W        W12504   3.808  10.412   0.353
 8305W        W12505   9.582   8.905   2.717
 8306W        W12506   6.108   3.770   2.659
 8307W        W12507   0.721  10.274   9.166
 8308W        W12508   1.797   6.553   1.783
 8309W        W12509  11.477   5.075   1.639
 8310W        W12510   3.938   9.367   9.876
 8311W        W12511   1.668  11.288  11.080
 8312W        W12512   3.522   5.606   2.350
 8313W        W12513   2.165   0.205   3.487
 8314W        W12514   9.429   9.256  11.264
 8315W        W12515   6.400   1.683   2.034
 8316W        W12516  10.475   5.527   3.523
 8317W        W12517   1.958   3.129  10.485
 8318W        W12518   1.774   0.021   2.742
 8319W        W12519   6.907   8.250  10.225
 8320W        W12520   9.291   9.268   0.141
 8321W        W12521   2.489   7.984  10.368
 8322W        W12522   2.348   1.856   1.481
 8323W        W12523   4.794   8.012   2.893
 8324W        W12524  11.467  10.055   0.145
 8325W        W12525   7.659   5.180   1.821
 8326W        W12526   2.622   0.693  10.504
 8327W        W12527   3.416   6.470   9.088
 8328W        W12528   5.796  11.112   3.457
 8329W        W12529   4.646   9.818   2.478
 8330W        W12530   2.152   3.261  11.876
 8331W        W12531   3.857   7.126   9.748
 8332W        W12532   3.784   7.422  11.106
 8333W        W12533   7.737   8.449  10.501
 8334W        W12534   0.128   7.797   0.174
 8335W        W12535   1.618   5.669   2.668
 8336W        W12536  10.406   4.705   9.348
 8337W        W12537   6.149   1.226   3.265
 8338W        W12538   1.824   9.152  11.355
 8339W        W12539   8.559   2.742   0.534
 8340W        W12540   3.892  10.287   9.938
 8341W        W12541   9.069   9.978   0.568
 8342W        W12542   2.297   3.251  10.136
 8343W        W12543   8.633   0.050   0.870
 8344W        W12544   7.776   7.930  10.754
 8345W        W12545   1.583   9.776   1.521
 8346W        W12546  10.351   4.566   3.410
 8347W        W12547   6.161   9.065   3.244
 8348W        W12548   7.963  10.039   1.279
 8349W        W12549   8.862   5.469   0.116
 8350W        W12550  11.021   6.203   1.989
 8351W        W12551  11.327   7.693   0.583
 8352W        W12552   5.517   3.696  10.135
 8353W        W12553   8.445   2.170  10.762
 8354W        W12554   3.157   4.817   1.582
 8355W        W12555   1.508   4.771  11.074
 8356W        W12556   3.096   7.082   2.826
 8357W        W12557  10.843   6.339  10.734
 8358W        W12558   3.169  10.561   3.556
 8359W        W12559   6.239   9.965   1.701
 8360W        W12560   1.807   1.396  11.391
 8361W        W12561  10.893   6.616   8.848
 8362W        W12562   6.931   4.647   3.171
 8363W        W12563  10.339   8.343   1.214
 8364W        W12564   2.354   1.146   0.496
 8365W        W12565   0.554   2.424   2.354
 8366W        W12566   6.663   2.860  11.588
 8367W        W12567  10.795   2.913   3.631
 8368W        W12568   2.608   9.877   9.876
 8369W        W12569   2.241   0.513  11.801
 8370W        W12570   7.790   8.174   1.430
 8371W        W12571   0.276   1.302   1.714
 8372W        W12572  11.043  10.441   9.484
 8373W        W12573   5.495   6.147   9.530
 8374W        W12574   3.575   2.236   3.263
 8375W        W12575   0.475   7.082   1.712
 8376W        W12576   3.886   1.506   0.390
 8377W        W12577   5.582   7.814   9.553
 8378W        W12578   9.085   7.733   1.191
 8379W        W12579   7.499   8.692   0.398
 8380W        W12580  10.449  10.424   1.669
 8381W        W12581   4.168   8.602   3.076
 8382W        W12582   4.324   9.050   3.336
 8383W        W12583   8.615   8.326   3.020
 8384W        W12584   5.542   0.337   1.385
 8385W        W12585  11.096   3.412   2.962
 8386W        W12586   5.807  10.555  11.783
 8387W        W12587   4.538   4.872   0.098
 8388W        W12588   1.689   4.798   3.204
 8389W        W12589   8.068   1.823   9.410
 8390W        W12590   9.825   3.441   3.122
 8391W        W12591   7.857   1.771   1.020
 8392W        W12592  11.341  11.029  11.571
 8393W        W12593   5.180   6.496   0.182
 8394W        W12594   2.187  11.476   9.382
 8395W        W12595   0.650  11.089   0.265
 8396W        W12596   5.178   1.847   1.329
 8397W        W12597   6.453   5.045  10.966
 8398W        W12598   3.134   4.310   1.339
 8399W        W12599   1.775   9.943   2.826
 8400W        W12600   4.671   8.271   3.690
 8401W        W12601   6.961   8.881   0.076
 8402W        W12602   5.075   1.903   9.327
 8403W        W12603   1.997  11.067   8.600
 8404W        W12604   7.432   3.288   1.577
 8405W        W12605   0.225   1.076   0.907
 8406W        W12606   1.020  10.990  11.483
 8407W        W12607   4.478  11.076  11.939
 8408W        W12608   1.151  10.052   8.920
 8409W        W12609   5.612   9.809  11.441
 8410W        W12610   5.241   0.451   2.724
 8411W        W12611   3.267   3.258  11.074
 8412W        W12612  10.072   6.035   2.114
 8413W        W12613   0.484  10.563   0.097
 8414W        W12614   2.165   4.605   3.221
 8415W        W12615   3.376   2.413  11.482
 8416W        W12616   4.275   2.176   1.241
 8417W        W12617   5.836   8.656  11.861
 8418W        W12618   6.035   0.311  11.287
 8419W        W12619   4.150   0.252   2.827
 8420W        W12620   0.788   4.508   0.335
 8421W        W12621   9.912   8.592   1.071
 8422W        W12622   6.035   0.818  11.070
 8423W        W12623   5.200   0.532   9.237
 8424W        W12624   9.012   2.502  11.959
 8425W        W12625   7.745   6.158  10.232
 8426W        W12626   2.078   5.076   9.527
 8427W        W12627   2.440   0.359  10.857
 8428W        W12628   9.994   5.371   3.400
 8429W        W12629   5.100   9.115   9.502
 8430W        W12630   4.383   7.173   1.458
 8431W        W12631   8.529   0.278   0.385
 8432W        W12632   0.883  10.214  10.959
 8433W        W12633   2.071   9.500   0.763
 8434W        W12634   4.851   3.840  10.499
 8435W        W12635   3.533   5.247   0.872
 8436W        W12636   1.199   3.128   2.279
 8437W        W12637   7.298   0.561   1.381
 8438W        W12638   0.289   3.940   1.516
 8439W        W12639   8.850   2.246   9.923
 8440W        W12640   0.165  10.985   0.444
 8441W        W12641   9.482   9.864   9.877
 8442W        W12642  10.404   6.182  11.649
 8443W        W12643   1.291   6.515   9.261
 8444W        W12644   8.814   4.081  10.396
 8445W        W12645   7.966   7.506   0.285
 8446W        W12646   0.719   2.790  11.466
 8447W        W12647   6.354   7.581   4.044
 8448W        W12648   0.467   4.857   8.959
 8449W        W12649   4.945   0.453   2.282
 8450W        W12650   6.992  10.249  10.024
 8451W        W12651   3.889   8.834   3.507
 8452W        W12652   4.530   8.921  11.427
 8453W        W12653   4.611   2.331   2.172
 8454W        W12654   0.577   4.299   1.231
 8455W        W12655   3.732   7.143   8.910
 8456W        W12656   0.365   6.485  10.200
 8457W        W12657   0.270   0.867   9.713
 8458W        W12658   5.783   8.126  11.996
 8459W        W12659   5.612   9.306  10.789
 8460W        W12660   1.905   1.080   0.225
 8461W        W12661   2.802   4.677   9.135
 8462W        W12662  10.732   7.168   2.215
 8463W        W12663  10.380   7.143   0.739
 8464W        W12664  10.611   1.349   1.069
 8465W        W12665   6.173   0.369   0.649
 8466W        W12666  11.435   8.163   2.633
 8467W        W12667   2.566   1.579   9.003
 8468W        W12668   4.398   6.603  10.452
 8469W        W12669   8.597  10.246  10.565
 8470W        W12670   3.310   0.306   9.625
 8471W        W12671   3.179   3.712  10.319
 8472W        W12672   7.098   6.052   0.892
 8473W        W12673   7.052   7.577   8.987
 8474W        W12674   8.142   1.833  10.469
 8475W        W12675  11.412   4.115   1.867
 8476W        W12676   4.798   1.909  11.674
 8477W        W12677   6.987   5.738  10.442
 8478W        W12678   6.020   9.576  10.583
 8479W        W12679   5.122   7.798   9.796
 8480W        W12680   3.826   3.611   9.748
 8481W        W12681   1.051   8.948   1.533
 8482W        W12682   5.174   8.702   0.591
 8483W        W12683   7.964   7.049   2.070
 8484W        W12684   9.134   5.181   0.481
 8485W        W12685   4.798  10.373   9.660
 8486W        W12686   8.378   5.519  10.332
 8487W        W12687   2.644  10.889   0.612
 8488W        W12688   9.346   0.807   1.257
 8489W        W12689   9.785   2.632   9.104
 8490W        W12690  10.850   3.000   9.921
 8491W        W12691  11.379   0.559  11.258
 8492W        W12692   2.764   1.027  11.432
 8493W        W12693   2.238   2.149   3.413
 8494W        W12694   9.477   1.470  10.099
 8495W        W12695   5.936   1.819  10.202
 8496W        W12696   4.505   7.592   2.699
 8497W        W12697   5.442   6.118   2.757
 8498W        W12698   4.775   8.521   2.839
 8499W        W12699   4.204   2.920   1.920
 8500W        W12700   6.066  10.961   0.690
 8501W        W12701   7.892   4.190  10.599
 8502W        W12702   4.297  11.060   0.426
 8503W        W12703   5.190  11.419  11.103
 8504W        W12704   7.247   9.253   9.957
 8505W        W12705   9.392   6.178  11.536
 8506W        W12706  10.634   3.892   3.625
 8507W        W12707   3.939   7.989  10.511
 8508W        W12708   6.784  10.769  10.792
 8509W        W12709   4.919  10.093   0.967
 8510W        W12710   1.655   0.883   3.481
 8511W        W12711   7.095  10.479   9.460
 8512W        W12712   9.827  10.804   8.975
 8513W        W12713   2.144   0.178   2.424
 8514W        W12714   2.375   6.109  11.335
 8515W        W12715   4.158   1.715   9.151
 8516W        W12716  10.468   4.328  11.011
 8517W        W12717   9.745   0.390   1.250
 8518W        W12718   0.912   4.979   0.510
 8519W        W12719   1.304   5.317   9.902
 8520W        W12720   8.481   5.805   0.832
 8521W        W12721   1.157   8.164  11.311
 8522W        W12722   0.212   3.465  11.934
 8523W        W12723   2.726   3.860   0.674
 8524W        W12724   2.609   5.105   9.418
 8525W        W12725   9.876   5.701   0.744
 8526W        W12726   8.581   8.274   1.054
 8527W        W12727   6.042   9.451   8.615
 8528W        W12728   9.611   3.146  10.526
 8529W        W12729   6.335   2.107   1.743
 8530W        W12730   5.808   9.858   1.470
 8531W        W12731   7.130   9.885   2.170
 8532W        W12732   4.645  11.268   9.617
 8533W        W12733   5.707   8.326   9.486
 8534W        W12734   5.653   5.834   1.984
 8535ION    NA+12735   2.763   6.694  11.880
 8536ION    NA+12736   4.175   1.064   2.053
 8537ION    NA+12737   1.096  10.570   3.368
 8538ION    NA+12738   6.813   0.893   1.369
 8539ION    NA+12739   7.205   3.422   9.478
 8540ION    NA+12740  10.149   9.519   3.520
 8541ION    NA+12741  11.454   2.011  11.410
 8542ION    NA+12742   5.637   4.037   0.653
 8543ION    NA+12743  11.248   7.149   9.685
 8544ION    NA+12744   8.236   4.618   9.434
 8545ION    NA+12745   6.822   6.445  10.912
 8546ION    NA+12746   7.745   2.286   1.656
 8547ION    NA+12747   8.066   4.990   0.991
 8548ION    NA+12748   8.131   2.287   3.240
 8549ION    NA+12749   1.817  10.992   0.997
 8550ION    NA+12750   0.903   9.290  11.898
 8551ION    NA+12751   7.854   6.243  11.511
 8552ION    NA+12752   5.357   1.583   3.221
 8553ION    NA+12753   3.992  10.445  10.460
 8554ION    NA+12754   1.852   3.120   9.932
 8555ION    NA+12755   9.846   4.722   2.277
 8556ION    NA+12756   0.858   8.665   0.830
 8557ION    NA+12757   6.338   7.433  11.927
 8558ION    NA+12758   8.037   3.426   3.133
 8559ION    NA+12759   8.879   6.307  10.678
 8560ION    NA+12760   9.735   7.754   0.951
 8561ION    NA+12761   6.312  10.995   3.138
 8562ION    NA+12762   8.248   2.296   0.396
 8563ION    NA+12763   0.949   2.770   9.684
 8564ION    NA+12764   2.119   0.625   0.298
 8565ION    NA+12765   3.401   2.834  11.789
 8566ION    NA+12766   6.598   7.687   1.889
 8567ION    NA+12767   3.214   4.888   8.254
 8568ION    NA+12768   4.667  11.171   2.536
 8569ION    NA+12769   5.696  10.279   1.194
 8570ION    NA+12770   3.169   4.708  10.831
 8571ION    NA+12771  10.431   0.490  11.511
 8572ION    NA+12772   7.125   7.567   3.402
 8573ION    NA+12773   7.639   3.763   0.262
 8574ION    NA+12774  10.244   7.440  11.968
 8575ION    NA+12775   3.694  10.008   2.152
 8576ION    NA+12776   3.210   1.142  10.183
 8577ION    NA+12777   1.447   7.667  10.024
 8578ION    NA+12778   1.491   8.715   8.854
 8579ION    NA+12779   3.138   9.433  11.797
 8580ION    NA+12780   8.900   0.153   1.336
 8581ION    NA+12781   0.532   5.230   9.786
 8582ION    NA+12782   5.639   7.104   2.437
 8583ION    NA+12783   2.889   3.860   9.336
 8584ION    NA+12784   7.022   5.635   0.585
 8585ION    NA+12785   3.492  11.425   1.734
 8586ION    NA+12786   0.919  10.796   2.294
 8587ION    NA+12787   4.822   6.519   1.912
 8588ION    NA+12788   1.014   6.292   3.104
 8589ION    NA+12789   9.801   2.104   8.888
 8590ION    NA+12790   6.647   6.940   3.149
 8591ION    NA+12791   9.176  10.362   1.851
 8592ION    NA+12792   1.503   4.168   0.738
 8593ION    NA+12793   1.672   4.364   1.877
 8594ION    NA+12794   3.356   6.261   3.388
 8595ION    NA+12795   9.630   7.660   3.479
 8596ION    NA+12796   5.785   8.022  11.467
 8597ION    NA+12797   1.152   6.008   9.677
 8598ION    NA+12798   8.466   3.641   2.202
 8599ION    NA+12799   9.827   2.340   3.795
 8600ION    NA+12800   7.419   1.747   0.048
 8601ION    NA+12801   8.552   8.366   2.498
 8602ION    NA+12802   0.012  11.048   3.285
 8603ION    NA+12803   6.829   7.469   4.177
 8604ION    NA+12804   5.315  11.280  11.573
 8605ION    NA+12805   6.032   2.565   2.610
 8606ION    NA+12806   8.296   8.541   9.816
 8607ION    NA+12807   7.328   8.879   1.426
 8608ION    NA+12808   4.720  10.225   2.215
 8609ION    NA+12809   4.269   5.804   2.013
 8610ION    NA+12810   0.032   8.014   1.898
 8611ION    NA+12811   4.151  10.054   1.254
 8612ION    NA+12812   8.145   0.927   9.749
 8613ION    NA+12813   4.362   5.913   0.390
 8614ION    NA+12814  10.095   0.431   0.866
 8615ION    NA+12815   9.728   7.866   9.024
 8616ION    NA+12816   6.031   3.912   1.826
 8617ION    NA+12817   7.325   9.345  10.831
 8618ION    NA+12818   5.900   3.249   3.334
 8619ION    NA+12819   1.768   1.153   1.349
 8620ION    NA+12820   7.663   2.860   8.637
 8621ION    NA+12821   6.200   8.475   9.493
 8622ION    NA+12822   0.642   4.702   1.609
 8623ION    NA+12823   3.185   6.614   8.615
 8624ION    NA+12824   4.142   6.807   0.264
 8625ION    CL-12825   5.524   1.712   2.137
 8626ION    CL-12826   0.199   7.867  11.285
 8627ION    CL-12827  11.318   4.333   8.656
 8628ION    CL-12828   2.134   8.500   2.269
 8629ION    CL-12829   7.023   7.824   1.862
 8630ION    CL-12830   4.676   8.957   1.501
 8631ION    CL-12831   8.186   3.592  11.377
 8632ION    CL-12832   0.136   7.840   2.294
 8633ION    CL-12833   9.255   5.847   3.556
 8634ION    CL-12834   0.280   0.878   0.204
 8635ION    CL-12835   7.456  11.479   0.822
 8636ION    CL-12836   3.312  11.347   1.334
 8637ION    CL-12837   6.942   3.143   9.707
 8638ION    CL-12838   5.032   0.527   1.385
 8639ION    CL-12839  11.474  11.423   3.030
 8640ION    CL-12840   4.770   1.189  11.007
 8641ION    CL-12841   5.810   9.905   0.957
 8642ION    CL-12842  11.173   7.342   9.288
 8643ION    CL-12843   0.258   4.460   1.613
 8644ION    CL-12844   6.065   7.771  11.749
 8645ION    CL-12845  10.620  10.969  10.132
 8646ION    CL-12846   3.578  11.350  11.982
 8647ION    CL-12847   7.224   1.060   1.430
 8648ION    CL-12848   9.120   1.549   3.545
 8649ION    CL-12849   3.251  11.137   9.129
 8650ION    CL-12850   0.992  10.356   9.598
 8651ION    CL-12851   3.298   3.002   3.293
 8652ION    CL-12852   6.894   7.317   3.086
 8653ION    CL-12853   6.708   2.784  10.613
 8654ION    CL-12854  11.470   3.553   1.307
 8655ION    CL-12855   2.364   0.436  10.129
 8656ION    CL-12856   9.490  10.660  10.337
 8657ION    CL-12857   0.969   7.880   3.402
 8658ION    CL-12858   6.508   7.259   4.423
 8659ION    CL-12859   8.482   4.947   3.636
 8660ION    CL-12860   5.400   2.839   8.541
 8661ION    CL-12861   8.203   6.501   2.744
 8662ION    CL-12862   7.012   9.486   2.487
 8663ION    CL-12863   5.214   3.394   2.687
 8664ION    CL-12864  11.201   3.552  11.925
 8665ION    CL-12865  10.540   3.197   1.398
 8666ION    CL-12866   7.517   7.300   9.674
 8667ION    CL-12867   1.011   1.535   0.390
 8668ION    CL-12868   3.340   1.562  10.106
 8669ION    CL-12869  10.885   3.626  10.124
 8670ION    CL-12870   1.352   1.221   9.657
 8671ION    CL-12871  11.432   5.497   2.344
 8672ION    CL-12872   2.658   6.829   9.947
 8673ION    CL-12873   6.890   9.420  10.769
 8674ION    CL-12874   8.324   4.623   0.959
 8675ION    CL-12875   4.252   8.742  11.010
 8676ION    CL-12876   5.284   3.757   0.669
 8677ION    CL-12877   0.237   5.256  10.122
 8678ION    CL-12878   5.818   4.160   2.133
 8679ION    CL-12879   9.113   9.597   3.536
 8680ION    CL-12880  10.992   5.537   8.115
 8681ION    CL-12881   3.034   7.755   9.902
 8682ION    CL-12882   5.322   1.179  11.964
 8683ION    CL-12883   9.902   6.685   1.191
 8684ION    CL-12884   9.210   7.179   2.918
 8685ION    CL-12885   4.080   7.261   0.293
 8686ION    CL-12886   9.322   6.383  10.667
 8687ION    CL-12887   0.689   4.608   2.912
 8688ION    CL-12888  10.419  10.450   1.142
 8689ION    CL-12889   7.128  10.120   1.289
 8690ION    CL-12890   5.302   3.700   9.637
 8691ION    CL-12891   4.533   6.177   2.002
 8692ION    CL-12892   4.242   6.349   0.311
 8693ION    CL-12893  10.894   0.934   8.512
 8694ION    CL-12894   5.544   8.294  11.186
 8695ION    CL-12895   5.336   3.114  11.558
 8696ION    CL-12896   4.475   3.051   8.857
 8697ION    CL-12897   9.968   7.466  11.617
 8698ION    CL-12898   0.755   5.991   3.351
 8699ION    CL-12899  10.109   3.134   2.842
 8700ION    CL-12900   9.340   7.821   0.752
 8701ION    CL-12901   7.491   1.750  11.607
 8702ION    CL-12902   2.761   5.641   2.085
 8703ION    CL-12903   5.675  10.692   1.389
 8704ION    CL-12904   1.246   2.288   1.853
 8705ION    CL-12905   1.157  11.270  11.041
 8706ION    CL-12906   4.873   1.931   9.818
 8707ION    CL-12907   8.075  11.270   1.870
 8708ION    CL-12908   1.386   9.437   2.714
 8709ION    CL-12909   6.636   7.110   0.041
 8710ION    CL-12910   1.755  10.746  10.348
 8711ION    CL-12911   0.868   5.003   1.348
 8712ION    CL-12912   6.032   9.539  11.570
 8713ION    CL-12913   5.463  10.336   8.905
 8714ION    CL-12914   9.518  10.313   1.567
  11.50000  11.50000  12.00000
