Protein in INSANE! Membrane UpperLeaflet>POPC=1.0 LowerLeaflet>POPC=1.0
11125
    1AU     AUC    1   0.878   7.663   6.638  0.0206 -0.0231 -0.1272
    1AU     AUC    2   0.940   7.822   6.928  0.0030 -0.0477  0.0684
    1AU     AUC    3   1.005   7.471   6.855 -0.0694 -0.0694  0.0304
    1AU     AUC    4   0.770   7.834   6.393 -0.0188 -0.0928 -0.0102
    1AU     AUC    5   0.778   7.509   6.374  0.0053  0.0624  0.0199
    1AU     AUC    6   0.544   7.642   6.566 -0.0433 -0.0091  0.0559
    1AU     AUC    7   0.662   7.642   6.865  0.0620  0.0037 -0.0549
    1AU     AUC    8   1.079   7.694   6.372 -0.0272 -0.0487 -0.0462
    1AU     AUC    9   1.206   7.664   6.699 -0.0772 -0.0372 -0.0172
    1AU     AUC   10   1.076   7.384   6.562  0.0455 -0.0478  0.0099
    1AU     AUC   11   0.704   7.366   6.640 -0.0138 -0.0078 -0.0764
    1AU     AUC   12   1.010   7.939   6.645 -0.1125  0.0340 -0.0211
    1AU     AUC   13   0.692   7.905   6.720  0.0376  0.1490  0.0170
    1AU     AUC   14   0.997   7.958   7.262 -0.0316 -0.0202  0.0223
    1AU     AUC   15   1.095   7.586   7.198  0.1432 -0.0815  0.0091
    1AU     AUC   16   1.096   7.241   7.102  0.0609  0.0814 -0.0647
    1AU     AUC   17   0.670   8.049   6.088 -0.1107 -0.0201 -0.0160
    1AU     AUC   18   0.651   7.683   6.063  0.0698 -0.1231  0.0205
    1AU     AUC   19   0.666   7.336   6.086  0.0634 -0.0874 -0.0823
    1AU     AUC   20   0.209   7.676   6.485  0.0146  0.0393 -0.0925
    1AU     AUC   21   0.285   7.641   6.866  0.0928 -0.0422  0.0823
    1AU     AUC   22   0.447   7.588   7.127  0.0265  0.0253 -0.0660
    1AU     AUC   23   1.267   7.741   6.139  0.0737  0.0335 -0.0427
    1AU     AUC   24   1.455   7.745   6.439  0.0004  0.0203  0.0944
    1AU     AUC   25   1.532   7.707   6.785  0.1259 -0.0379  0.0054
    1AU     AUC   26   1.243   7.105   6.458  0.0542  0.0413  0.0484
    1AU     AUC   27   0.896   7.069   6.573  0.0039  0.0713  0.0293
    1AU     AUC   28   0.559   7.077   6.705 -0.0564  0.0513  0.0358
    1AU     AUC   29   1.130   8.243   6.642  0.0178  0.0438  0.0506
    1AU     AUC   30   0.832   8.276   6.737  0.0054  0.0472  0.0463
    1AU     AUC   31   0.521   8.170   6.811  0.0103  0.0013  0.0410
    1AU     AUC   32   1.208   7.160   6.798  0.0319 -0.2119  0.2085
    1AU     AUC   33   0.832   7.114   6.920  0.0069  0.0025 -0.0300
    1AU     AUC   34   1.080   8.153   6.988 -0.0478 -0.0557  0.0122
    1AU     AUC   35   0.720   8.062   7.072  0.0932  0.0187  0.1223
    1AU     AUC   36   0.957   7.199   6.249  0.0074  0.0147  0.0285
    1AU     AUC   37   0.575   7.172   6.378 -0.0980  0.0783  0.0361
    1AU     AUC   38   0.916   8.167   6.370 -0.0047 -0.0259  0.0433
    1AU     AUC   39   0.611   8.156   6.428 -0.0646  0.0618 -0.1011
    1AU     AUC   40   0.738   7.752   7.238  0.0368 -0.0431 -0.0323
    1AU     AUC   41   0.777   7.398   7.133  0.0704 -0.0018 -0.0171
    1AU     AUC   42   0.405   7.840   6.273 -0.0064 -0.0219 -0.0600
    1AU     AUC   43   0.385   7.470   6.253  0.0898  0.0616  0.0132
    1AU     AUC   44   1.271   7.848   7.027 -0.0940 -0.0653 -0.0994
    1AU     AUC   45   1.361   7.473   6.942 -0.0387 -0.0243  0.0439
    1AU     AUC   46   0.972   7.882   6.063 -0.0379 -0.0036 -0.0455
    1AU     AUC   47   0.981   7.518   6.080  0.1017 -0.0415 -0.0047
    1AU     AUC   48   0.335   7.356   6.636 -0.0219 -0.0252  0.0282
    1AU     AUC   49   0.501   7.323   6.931 -0.0668  0.0021 -0.0691
    1AU     AUC   50   1.279   7.426   6.280  0.0153 -0.0283 -0.0375
    1AU     AUC   51   1.435   7.407   6.586 -0.0247 -0.0419  0.0297
    1AU     AUC   52   0.351   7.941   6.637 -0.0956  0.0769  0.0020
    1AU     AUC   53   0.441   7.898   7.000 -0.0643  0.0800  0.0760
    1AU     AUC   54   1.230   8.011   6.358 -0.0324 -0.0234  0.0004
    1AU     AUC   55   1.342   8.001   6.741 -0.0095 -0.0911  0.0296
    1AU    AUSL   56   1.155   6.900   6.997  0.0406  0.1285  0.0058
    1AU    AUSL   57   1.506   7.000   6.685 -0.0090  0.0467  0.0190
    1AU     AUL   58   1.478   6.789   6.995  0.0112 -0.0540  0.0477
    1AU       S   59   1.934   6.918   6.852  0.3318  0.4582 -0.0749
    1AU     LIG   60   1.974   6.516   6.957  0.0304 -0.0019 -0.0080
    1AU     LIG   61   1.795   6.172   6.867 -0.2078  0.1682 -0.0078
    1AU     LIG   62   1.523   5.880   6.871  0.2796 -0.4573  0.0040
    1AU     LIG   63   1.236   5.497   6.825  0.1848 -0.2801  0.0596
    1AU       S   64   1.288   6.402   6.882 -0.1501  0.0780  0.2775
    1AU     LIG   65   0.954   6.096   6.895 -0.1340 -0.0990  0.1025
    1AU     LIG   66   0.808   5.708   6.770  0.0175  0.0841 -0.0837
    1AU     LIG   67   0.461   5.681   6.542 -0.0207  0.2806  0.2415
    1AU     LIG   68   0.259   5.547   6.139  0.0300 -0.1364 -0.2140
    1AU    AUSL   69   1.147   6.778   6.573  0.0097  0.0184  0.0286
    1AU    AUSL   70   0.688   6.755   6.453  0.0966 -0.0157  0.0188
    1AU     AUL   71   0.882   6.505   6.618  0.1014 -0.0136  0.0014
    1AU       S   72   1.363   6.561   6.556  0.0809 -0.2819 -0.1130
    1AU     LIG   73   1.785   6.575   6.443  0.0213 -0.2048 -0.2094
    1AU     LIG   74   2.129   6.384   6.488 -0.0852  0.3867  0.1838
    1AU     LIG   75   2.503   6.211   6.532  0.0703 -0.6664 -0.1332
    1AU     LIG   76   2.612   5.836   6.599 -0.2952 -0.1079 -0.2191
    1AU       S   77   0.884   6.577   6.167  0.1804 -0.1309 -0.1011
    1AU     LIG   78   1.044   6.130   6.360 -0.1787 -0.0926  0.2834
    1AU     LIG   79   1.207   5.738   6.424 -0.5080 -0.0140  0.1363
    1AU     LIG   80   1.196   5.303   6.346  0.1112 -0.2815 -0.1048
    1AU     LIG   81   1.311   5.027   6.693 -0.1296 -0.0486 -0.2074
    1AU    AUSL   82   0.777   6.960   6.798  0.0052 -0.0469 -0.0291
    1AU    AUSL   83   0.817   6.967   7.253 -0.0875  0.0656  0.0616
    1AU     AUL   84   0.878   6.662   7.039  0.0089  0.0952  0.0799
    1AU       S   85   0.451   6.494   6.792  0.3515 -0.0646  0.0146
    1AU     LIG   86   0.043   6.415   6.620  0.2152 -0.2204  0.1138
    1AU     LIG   87  -0.346   6.183   6.491 -0.0458 -0.1290 -0.2288
    1AU     LIG   88  -0.726   6.287   6.117 -0.4499 -0.0033 -0.0280
    1AU     LIG   89  -1.190   6.369   6.212  0.0446 -0.1944 -0.3563
    1AU       S   90   0.661   6.712   7.435 -0.3835 -0.2293  0.3693
    1AU     LIG   91   0.839   6.481   7.709 -0.6187  0.3536  0.0538
    1AU     LIG   92   0.885   6.546   8.139  0.0670 -0.2719  0.1732
    1AU     LIG   93   0.688   6.607   8.473  0.1273  0.0224  0.0078
    1AU     LIG   94   0.392   6.419   8.813  0.4581 -0.1570  0.1897
    1AU    AUSL   95   0.854   8.262   7.252  0.0122  0.0024 -0.0672
    1AU    AUSL   96   0.425   8.168   7.232 -0.0955 -0.0126 -0.1170
    1AU     AUL   97   0.617   8.404   7.472  0.0202  0.0316  0.0444
    1AU       S   98   0.653   8.758   7.170 -0.0356  0.1845 -0.0565
    1AU     LIG   99   0.280   9.058   7.223 -0.0837  0.4149  0.0476
    1AU     LIG  100  -0.148   9.129   7.068  0.1206 -0.0204  0.2815
    1AU     LIG  101  -0.523   9.307   6.916  0.2496  0.1644  0.1526
    1AU     LIG  102  -0.846   9.643   6.846 -0.3837  0.4693  0.1574
    1AU       S  103   0.292   8.101   7.632  0.0751  0.0682  0.0735
    1AU     LIG  104   0.206   8.464   7.837 -0.3027  0.3933  0.1253
    1AU     LIG  105  -0.097   8.696   8.004  0.0213  0.5605  0.0392
    1AU     LIG  106  -0.078   9.004   8.299  0.1392 -0.1435  0.0460
    1AU     LIG  107  -0.130   9.277   8.559 -0.3126  0.6568 -0.0672
    1AU    AUSL  108   1.048   8.529   7.005 -0.0575 -0.0244  0.0619
    1AU    AUSL  109   1.274   8.207   7.280  0.0984  0.0498 -0.1122
    1AU     AUL  110   1.101   8.483   7.419 -0.0364  0.0808 -0.0411
    1AU       S  111   1.581   8.456   7.357  0.2231 -0.0095 -0.0848
    1AU     LIG  112   1.712   8.805   7.592 -0.1551 -0.2814  0.1344
    1AU     LIG  113   1.528   9.087   7.758  0.1146  0.0347 -0.2099
    1AU     LIG  114   1.262   9.437   8.079 -0.0159  0.0214 -0.1044
    1AU     LIG  115   1.027   9.868   8.019 -0.0264 -0.0236 -0.1564
    1AU       S  116   0.868   8.832   7.242 -0.2999 -0.1267 -0.2398
    1AU     LIG  117   1.281   8.924   7.377 -0.1349 -0.0547 -0.0988
    1AU     LIG  118   1.574   9.107   7.095 -0.0262 -0.0754 -0.1513
    1AU     LIG  119   1.810   9.189   6.724 -0.0278  0.1158  0.0462
    1AU     LIG  120   1.943   9.542   6.553  0.1499  0.4979  0.0804
    1AU    AUSL  121   0.650   8.342   6.901 -0.0228 -0.0464 -0.0115
    1AU    AUSL  122   0.953   8.478   6.590 -0.1069  0.0685  0.0578
    1AU     AUL  123   0.955   8.685   6.817 -0.0342  0.0069  0.0691
    1AU       S  124   0.827   8.913   6.447 -0.2687  0.2196  0.1991
    1AU     LIG  125   0.756   9.208   6.803  0.1945  0.1088 -0.0019
    1AU     LIG  126   0.710   9.645   6.928 -0.2655 -0.4421  0.0915
    1AU     LIG  127   0.640  10.137   6.928 -0.2646 -0.0292  0.2043
    1AU     LIG  128   0.730  10.574   6.901  0.1969  0.2612  0.2660
    1AU       S  129   0.556   8.632   7.057  0.0177  0.2658 -0.3610
    1AU     LIG  130   0.114   8.692   6.892  0.3499  0.1098 -0.1070
    1AU     LIG  131  -0.337   8.602   7.052 -0.3833  0.2459 -0.4498
    1AU     LIG  132  -0.611   8.590   7.316  0.3143  0.1352  0.1465
    1AU     LIG  133  -0.882   8.804   7.765 -0.3959 -0.2088 -0.2555
    1AU    AUSL  134   0.626   6.947   6.064  0.0755  0.0342 -0.0150
    1AU    AUSL  135   0.345   6.987   6.471  0.0194 -0.1106 -0.0045
    1AU     AUL  136   0.405   6.672   6.304  0.0517 -0.0539 -0.0874
    1AU       S  137   0.798   6.480   6.060  0.2340 -0.1241  0.1217
    1AU     LIG  138   0.520   6.175   6.347 -0.0102  0.0367  0.1112
    1AU     LIG  139   0.075   5.962   6.361  0.3148 -0.3992  0.2161
    1AU     LIG  140  -0.290   5.672   6.425  0.0790 -0.0833  0.4218
    1AU     LIG  141  -0.722   5.484   6.342  0.0634 -0.4450  0.0013
    1AU       S  142  -0.010   6.892   6.177 -0.2154 -0.0554  0.0017
    1AU     LIG  143  -0.403   6.700   6.394  0.3742 -0.3293 -0.0816
    1AU     LIG  144  -0.516   6.814   6.761 -0.2378  0.1409 -0.0363
    1AU     LIG  145  -0.848   7.059   6.915  0.1762 -0.4558 -0.0906
    1AU     LIG  146  -0.742   7.406   7.221 -0.1331 -0.2213 -0.3299
    1AU    AUSL  147   0.979   7.032   6.290 -0.0229 -0.0431  0.0644
    1AU    AUSL  148   0.991   7.140   5.867 -0.0158 -0.0405 -0.1134
    1AU     AUL  149   0.801   6.969   5.870 -0.0217 -0.0250 -0.0036
    1AU       S  150   1.204   6.978   5.629  0.3313 -0.2943  0.2048
    1AU     LIG  151   1.013   6.595   5.639  0.0104 -0.0810 -0.3556
    1AU     LIG  152   0.986   6.192   5.668 -0.0401  0.1070 -0.0907
    1AU     LIG  153   1.245   5.966   5.885  0.1577  0.0513  0.3117
    1AU     LIG  154   1.719   5.742   5.949  0.1026 -0.2510  0.1079
    1AU       S  155   1.059   6.653   6.144  0.1345  0.3263  0.2467
    1AU     LIG  156   1.446   6.390   6.056 -0.0311  0.1444 -0.2456
    1AU     LIG  157   1.648   6.103   6.362  0.3998  0.2584 -0.0014
    1AU     LIG  158   2.063   5.892   6.398  0.0883 -0.1046  0.2933
    1AU     LIG  159   2.290   5.543   6.154  0.2417  0.2251  0.2590
    1AU    AUSL  160   0.745   8.420   6.219 -0.0071 -0.1087 -0.0507
    1AU    AUSL  161   1.150   8.283   6.283 -0.0451  0.0727 -0.0623
    1AU     AUL  162   1.133   8.597   6.270 -0.0532 -0.1150  0.0103
    1AU       S  163   0.737   8.855   6.217  0.0887 -0.2678  0.0468
    1AU     LIG  164   0.517   9.275   6.297 -0.0567  0.0755  0.0617
    1AU     LIG  165   0.311   9.598   6.375  0.3522 -0.2044 -0.2232
    1AU     LIG  166  -0.187   9.604   6.639  0.2334  0.0084  0.1130
    1AU     LIG  167  -0.382   9.888   6.873 -0.5097  0.2976  0.0601
    1AU       S  168   1.169   8.508   5.798 -0.0319 -0.0956 -0.0596
    1AU     LIG  169   1.403   8.830   5.775  0.1568 -0.1261  0.0296
    1AU     LIG  170   1.553   9.179   5.805 -0.3118 -0.1497  0.0234
    1AU     LIG  171   1.991   9.249   5.928  0.1367 -0.0214 -0.4286
    1AU     LIG  172   2.389   9.377   6.264  0.0149  0.0777 -0.2269
    1AU    AUSL  173   0.513   8.571   6.592  0.0674 -0.0568 -0.0330
    1AU    AUSL  174   0.357   8.263   6.090 -0.0903 -0.0479  0.0458
    1AU     AUL  175   0.374   8.558   6.239  0.0261 -0.0583  0.0349
    1AU       S  176   0.082   8.425   5.909  0.0453  0.0546 -0.0253
    1AU     LIG  177  -0.155   8.761   5.758 -0.1147  0.1344  0.0738
    1AU     LIG  178  -0.203   9.180   5.823 -0.2669 -0.3629  0.2780
    1AU     LIG  179  -0.239   9.402   6.202 -0.4684  0.1184  0.2161
    1AU     LIG  180  -0.647   9.513   6.421  0.2017 -0.2837 -0.0973
    1AU       S  181   0.562   8.823   6.560 -0.2375  0.1499  0.1849
    1AU     LIG  182   0.278   9.092   6.671  0.0049 -0.3322  0.2080
    1AU     LIG  183   0.247   9.425   6.912  0.1942 -0.0451  0.0032
    1AU     LIG  184   0.338   9.622   7.313  0.1639 -0.2468 -0.2833
    1AU     LIG  185   0.156   9.886   7.665  0.2730  0.2890  0.1152
    1AU    AUSL  186   0.663   7.506   7.529  0.0026  0.0549  0.0417
    1AU    AUSL  187   0.713   7.956   7.494  0.0262  0.0967  0.0586
    1AU     AUL  188   0.657   7.727   7.846 -0.0490  0.0547  0.1300
    1AU       S  189   0.423   8.064   7.706 -0.2175  0.1399 -0.0374
    1AU     LIG  190   0.255   7.818   8.159  0.0289 -0.3215 -0.2763
    1AU     LIG  191  -0.136   7.820   8.400 -0.1709 -0.2130 -0.1395
    1AU     LIG  192  -0.384   8.031   8.644 -0.2812 -0.0585  0.1226
    1AU     LIG  193  -0.633   8.065   8.915  0.1366 -0.0507 -0.2070
    1AU       S  194   0.858   7.312   7.868  0.1333  0.2012  0.4632
    1AU     LIG  195   0.657   6.937   7.984 -0.0473 -0.2187  0.1264
    1AU     LIG  196   0.343   6.664   7.992 -0.1452 -0.1331 -0.2840
    1AU     LIG  197  -0.057   6.499   7.913 -0.2611 -0.0519  0.1027
    1AU     LIG  198  -0.336   6.635   8.255  0.0157 -0.3161 -0.0182
    1AU    AUSL  199   1.048   7.715   7.559 -0.0541  0.0470 -0.0289
    1AU    AUSL  200   1.405   7.432   7.412 -0.0020 -0.0598  0.0283
    1AU     AUL  201   1.416   7.658   7.731  0.0207  0.0017  0.0944
    1AU       S  202   1.027   7.409   7.785 -0.2956  0.3875 -0.1095
    1AU     LIG  203   1.490   7.163   7.832  0.1639  0.2700  0.0985
    1AU     LIG  204   1.714   6.785   7.681 -0.0188  0.1068 -0.1190
    1AU     LIG  205   2.136   6.755   7.509  0.2865 -0.0534  0.1857
    1AU     LIG  206   2.434   6.804   7.321  0.1382  0.4405 -0.2057
    1AU       S  207   1.864   7.456   7.468  0.2210 -0.0089 -0.6584
    1AU     LIG  208   1.998   7.224   7.734  0.0443 -0.0667  0.1582
    1AU     LIG  209   2.390   7.158   7.658 -0.2738 -0.1814  0.0949
    1AU     LIG  210   2.757   7.375   7.867  0.2028  0.2833  0.3014
    1AU     LIG  211   3.171   7.666   7.790 -0.2019  0.1144  0.0605
    1AU    AUSL  212   1.008   7.336   7.323 -0.0706 -0.0085 -0.0123
    1AU    AUSL  213   0.545   7.303   7.175  0.0343  0.0537  0.0094
    1AU     AUL  214   0.620   7.191   7.480 -0.0538  0.0900  0.0299
    1AU       S  215   0.399   6.805   7.496 -0.2113  0.4160  0.6531
    1AU     LIG  216  -0.092   6.828   7.545 -0.1022  0.0271 -0.1203
    1AU     LIG  217  -0.505   6.697   7.721 -0.1048 -0.1004  0.0661
    1AU     LIG  218  -0.856   6.378   7.597  0.4253 -0.6032 -0.0507
    1AU     LIG  219  -1.236   6.325   7.384  0.4211  0.4425 -0.1076
    1AU       S  220   1.077   7.124   7.588 -0.8343  0.0863 -0.0177
    1AU     LIG  221   1.220   6.818   7.495  0.3778  0.0591 -0.1531
    1AU     LIG  222   1.184   6.420   7.354  0.1052 -0.3694 -0.0694
    1AU     LIG  223   0.712   6.232   7.283  0.0729 -0.2251 -0.0105
    1AU     LIG  224   0.420   6.024   6.875 -0.0656 -0.1086 -0.1147
    1AU    AUSL  225   0.142   7.634   6.175 -0.0455  0.0375 -0.0454
    1AU    AUSL  226   0.338   7.238   6.112  0.0097  0.0005 -0.0168
    1AU     AUL  227  -0.016   7.392   5.913 -0.0954  0.0394 -0.0271
    1AU       S  228   0.187   6.992   5.969 -0.1740 -0.1306  0.3939
    1AU     LIG  229  -0.075   6.901   5.586  0.1665  0.0859 -0.4015
    1AU     LIG  230  -0.332   7.021   5.281 -0.1334  0.0316 -0.0771
    1AU     LIG  231  -0.290   7.076   4.772  0.2074  0.1035 -0.2102
    1AU     LIG  232  -0.232   7.116   4.328 -0.1575  0.2765 -0.2728
    1AU       S  233  -0.260   7.637   6.241  0.3172  0.0735  0.0113
    1AU     LIG  234  -0.524   7.792   6.091 -0.1024 -0.2967 -0.4232
    1AU     LIG  235  -0.913   8.156   6.017  0.4803 -0.0370  0.0857
    1AU     LIG  236  -0.824   8.480   6.206 -0.2146 -0.7081 -0.0882
    1AU     LIG  237  -1.039   8.860   6.313  0.0082  0.0912 -0.5375
    1AU    AUSL  238   0.494   7.890   6.028 -0.0417 -0.0360  0.0996
    1AU    AUSL  239   0.070   8.034   6.300 -0.0323  0.0576  0.0081
    1AU     AUL  240   0.092   7.973   6.000 -0.0160  0.0986  0.1008
    1AU       S  241   0.518   8.280   5.660 -0.3749 -0.0964  0.2602
    1AU     LIG  242   0.491   8.115   5.279 -0.0401 -0.1621  0.2364
    1AU     LIG  243   0.234   7.804   5.111 -0.2700 -0.3084 -0.3839
    1AU     LIG  244   0.203   7.722   4.663 -0.0343 -0.1073 -0.1186
    1AU     LIG  245   0.404   7.972   4.382 -0.0886  0.1886  0.1186
    1AU       S  246  -0.247   8.187   6.228  0.0291 -0.1760 -0.0933
    1AU     LIG  247  -0.419   8.494   6.525  0.0167 -0.0414 -0.4246
    1AU     LIG  248  -0.685   8.778   6.662  0.0007 -0.4180 -0.2204
    1AU     LIG  249  -0.981   9.090   6.774  0.0634  0.0712  0.1287
    1AU     LIG  250  -1.269   9.346   6.647  0.3426  0.4929  0.2628
    1AU    AUSL  251   0.391   7.529   5.817  0.0910  0.0756 -0.0196
    1AU    AUSL  252   0.715   7.858   5.682 -0.1562 -0.0290 -0.1147
    1AU     AUL  253   0.341   7.792   5.628 -0.0673 -0.0598 -0.0366
    1AU       S  254   0.702   7.557   5.412 -0.0265 -0.1621 -0.1156
    1AU     LIG  255   0.475   7.312   5.064 -0.0978 -0.0852 -0.2504
    1AU     LIG  256   0.191   6.961   5.193 -0.1076 -0.0069  0.4067
    1AU     LIG  257   0.208   6.561   5.254  0.1997 -0.1394  0.1361
    1AU     LIG  258   0.297   6.188   5.300  0.0967  0.2625  0.0538
    1AU       S  259   0.367   7.250   5.644 -0.2716 -0.4051  0.3683
    1AU     LIG  260  -0.007   7.441   5.428  0.2508  0.1085  0.0117
    1AU     LIG  261  -0.008   7.397   5.031 -0.1061 -0.1951 -0.3127
    1AU     LIG  262  -0.322   7.565   4.744 -0.1376 -0.0606 -0.0977
    1AU     LIG  263  -0.406   7.662   4.345 -0.0983  0.0114 -0.2956
    1AU    AUSL  264   1.629   7.633   7.090  0.0964 -0.0527  0.0385
    1AU    AUSL  265   1.397   7.256   7.020  0.1353  0.0194 -0.0242
    1AU     AUL  266   1.556   7.178   7.307 -0.1348 -0.0741 -0.0261
    1AU       S  267   1.834   7.600   7.229  0.1125 -0.3150  0.1924
    1AU     LIG  268   2.192   7.680   6.971 -0.0180 -0.1893 -0.2256
    1AU     LIG  269   2.575   7.565   6.889  0.2943 -0.1499  0.4781
    1AU     LIG  270   3.024   7.604   6.810  0.2214 -0.3039  0.3160
    1AU     LIG  271   3.352   7.418   7.085  0.0156  0.1273 -0.2192
    1AU       S  272   1.874   7.017   7.004  0.0140 -0.0024 -0.0865
    1AU     LIG  273   2.242   7.246   7.187  0.3121 -0.2688 -0.0745
    1AU     LIG  274   2.692   7.102   7.089  0.0801 -0.2558  0.3856
    1AU     LIG  275   3.036   7.065   6.871  0.1909  0.3924 -0.0674
    1AU     LIG  276   3.320   6.886   6.506  0.0079 -0.0850  0.2011
    1AU    AUSL  277   1.261   7.787   7.225 -0.0469 -0.0039 -0.0201
    1AU    AUSL  278   1.615   8.060   7.085 -0.0202 -0.0296  0.0923
    1AU     AUL  279   1.523   7.943   7.401  0.0077  0.0685  0.0281
    1AU       S  280   1.842   7.651   7.496 -0.0698  0.2246  0.0118
    1AU     LIG  281   2.069   7.967   7.426 -0.0466  0.0232  0.2610
    1AU     LIG  282   2.472   8.057   7.161 -0.0495  0.2293  0.2455
    1AU     LIG  283   2.787   7.896   7.140 -0.1249  0.1736 -0.0029
    1AU     LIG  284   2.972   7.536   7.381 -0.3703  0.3299  0.0991
    1AU       S  285   1.798   8.426   7.266 -0.1175  0.0789 -0.0138
    1AU     LIG  286   1.915   8.715   6.988  0.4423 -0.0990  0.4244
    1AU     LIG  287   2.089   9.066   7.127 -0.3475 -0.1322  0.0303
    1AU     LIG  288   2.341   9.293   6.820  0.1077  0.0317  0.0291
    1AU     LIG  289   2.821   9.347   6.612 -0.2112 -0.0942  0.0050
    1AU    AUSL  290   1.122   7.756   5.803 -0.0116  0.0022  0.0059
    1AU    AUSL  291   0.904   8.124   5.953  0.0150 -0.0191  0.0012
    1AU     AUL  292   0.975   8.004   5.572 -0.0841  0.0097  0.0692
    1AU       S  293   0.992   8.417   5.835  0.0562  0.0696  0.3315
    1AU     LIG  294   0.715   8.746   5.753  0.1591  0.4580  0.3070
    1AU     LIG  295   0.331   8.918   5.887  0.1596 -0.0360  0.1656
    1AU     LIG  296   0.080   9.024   6.203 -0.3800  0.1510  0.0376
    1AU     LIG  297  -0.224   8.944   6.623 -0.2190  0.4609 -0.1710
    1AU       S  298   0.899   7.526   5.409  0.2956  0.0622  0.0845
    1AU     LIG  299   1.131   7.712   5.219 -0.2144  0.0704 -0.1530
    1AU     LIG  300   1.290   7.637   4.876  0.3036 -0.0493  0.1592
    1AU     LIG  301   1.647   7.799   4.505 -0.1706 -0.0258  0.3284
    1AU     LIG  302   1.779   7.815   4.031  0.1149 -0.0160  0.0485
    1AU    AUSL  303   0.800   7.500   5.914  0.0893  0.0158  0.0840
    1AU    AUSL  304   1.261   7.414   6.008 -0.0229  0.0348  0.0968
    1AU     AUL  305   1.231   7.470   5.679  0.1225  0.0064 -0.0089
    1AU       S  306   1.439   7.059   5.614  0.2619 -0.3619  0.1191
    1AU     LIG  307   1.746   6.838   5.407  0.0509  0.1153  0.1445
    1AU     LIG  308   2.153   6.644   5.522  0.2151 -0.3126  0.2290
    1AU     LIG  309   2.502   6.540   5.296 -0.1826 -0.1691  0.2631
    1AU     LIG  310   2.642   6.515   4.879  0.0172  0.1315  0.0831
    1AU       S  311   0.796   7.411   5.512  0.1506  0.1070 -0.2220
    1AU     LIG  312   0.760   6.994   5.375  0.0789  0.4979 -0.0261
    1AU     LIG  313   0.473   6.772   5.574  0.0134  0.1633 -0.3127
    1AU     LIG  314   0.263   6.546   5.763 -0.0721  0.1501 -0.3450
    1AU     LIG  315  -0.055   6.393   6.078 -0.0614  0.0806  0.2438
    1AU    AUSL  316   0.239   7.196   6.830  0.0029  0.0266 -0.0259
    1AU    AUSL  317   0.069   7.323   6.441  0.0231 -0.0495  0.0624
    1AU     AUL  318   0.069   6.915   6.667 -0.0794  0.0908  0.0306
    1AU       S  319  -0.124   7.194   6.357  0.0178  0.1569  0.1357
    1AU     LIG  320  -0.514   7.173   6.122 -0.2326  0.0212  0.3146
    1AU     LIG  321  -0.874   6.989   6.297  0.1749  0.0561 -0.0008
    1AU     LIG  322  -0.939   6.611   6.577 -0.0211 -0.1760 -0.2850
    1AU     LIG  323  -1.016   6.604   7.001 -0.1283  0.0587 -0.2270
    1AU       S  324  -0.205   7.097   7.014  0.2530  0.3184 -0.0352
    1AU     LIG  325  -0.131   6.609   7.134 -0.1144 -0.5432  0.0461
    1AU     LIG  326  -0.124   6.154   7.081  0.0552 -0.6496  0.2868
    1AU     LIG  327   0.005   5.764   6.858  0.0357  0.3705  0.1835
    1AU     LIG  328   0.029   5.354   6.810  0.3225  0.2589 -0.0884
    1AU    AUSL  329  -0.075   7.496   6.795  0.0765 -0.0636  0.0112
    1AU    AUSL  330   0.060   7.826   7.064  0.0231 -0.0290 -0.0772
    1AU     AUL  331  -0.266   7.657   7.109  0.1373 -0.0800 -0.0343
    1AU       S  332  -0.220   7.258   6.843  0.4664  0.0866  0.4226
    1AU     LIG  333  -0.552   7.392   6.595  0.5543  0.1404 -0.0594
    1AU     LIG  334  -0.876   7.492   6.342  0.1127  0.1018  0.3956
    1AU     LIG  335  -1.221   7.802   6.350 -0.0964 -0.0583  0.1225
    1AU     LIG  336  -1.262   8.192   6.357 -0.1444 -0.4090 -0.3129
    1AU       S  337  -0.242   8.047   6.860  0.4411  0.0344  0.1372
    1AU     LIG  338  -0.695   8.343   6.914 -0.1735 -0.0793 -0.1303
    1AU     LIG  339  -1.158   8.555   6.692 -0.2604 -0.0806 -0.0949
    1AU     LIG  340  -1.442   8.680   6.645  0.2252  0.0832  0.1575
    1AU     LIG  341  -1.770   8.543   6.944  0.4505  0.1197 -0.0400
    1AU    AUSL  342   0.137   7.420   7.180  0.0223 -0.0111  0.0343
    1AU    AUSL  343   0.442   6.886   7.021 -0.0775  0.0246  0.0134
    1AU     AUL  344   0.222   7.099   7.219  0.0858  0.0144 -0.0180
    1AU       S  345   0.428   6.667   7.254  0.3672  0.0073  0.0702
    1AU     LIG  346   0.149   6.382   7.420  0.0091 -0.0094  0.1988
    1AU     LIG  347  -0.274   6.278   7.512 -0.2607 -0.1479 -0.1400
    1AU     LIG  348  -0.538   6.219   7.992  0.1571  0.2203 -0.1341
    1AU     LIG  349  -0.569   6.207   8.439 -0.3007  0.1562  0.0125
    1AU       S  350  -0.233   7.230   7.233  0.1660  0.1101 -0.0631
    1AU     LIG  351  -0.546   6.918   7.298 -0.1665  0.2289 -0.0506
    1AU     LIG  352  -0.599   6.450   7.223 -0.2725 -0.0116 -0.0975
    1AU     LIG  353  -0.590   6.222   6.893  0.3354  0.2090 -0.1145
    1AU     LIG  354  -0.894   5.951   6.509 -0.4056 -0.0145 -0.2040
    1AU    AUSL  355   1.488   7.294   6.364  0.0190  0.0028 -0.0610
    1AU    AUSL  356   1.711   7.393   6.767 -0.0690 -0.0702  0.0433
    1AU     AUL  357   1.748   7.060   6.457 -0.0423  0.0915 -0.1454
    1AU       S  358   2.032   7.322   6.169 -0.1564  0.1675  0.0057
    1AU     LIG  359   2.162   6.892   6.266  0.1222 -0.2338 -0.1382
    1AU     LIG  360   2.494   6.690   6.252 -0.0294  0.2369  0.1626
    1AU     LIG  361   2.886   6.864   6.130  0.2122 -0.1790  0.0021
    1AU     LIG  362   3.255   6.637   6.098  0.2104 -0.2931 -0.0670
    1AU       S  363   1.899   7.264   6.852 -0.0466  0.0712  0.2937
    1AU     LIG  364   2.263   7.228   6.612 -0.0340  0.1884 -0.0225
    1AU     LIG  365   2.629   7.130   6.533 -0.0833  0.4768  0.2025
    1AU     LIG  366   3.045   7.314   6.395 -0.0639  0.0668  0.0350
    1AU     LIG  367   3.320   7.251   6.055 -0.0571 -0.5159 -0.0111
    1AU    AUSL  368   1.575   7.662   6.010 -0.1725 -0.0315 -0.0051
    1AU    AUSL  369   1.347   7.000   6.113  0.0481 -0.0123 -0.0618
    1AU     AUL  370   1.598   7.288   5.968 -0.0711 -0.0095  0.0028
    1AU       S  371   2.031   7.452   6.005  0.3520  0.2992  0.0549
    1AU     LIG  372   1.911   7.560   5.705  0.1541 -0.1006 -0.2701
    1AU     LIG  373   1.620   7.884   5.500 -0.1278  0.4004  0.1349
    1AU     LIG  374   1.439   8.081   5.237 -0.3208  0.0729 -0.2922
    1AU     LIG  375   0.972   8.165   4.907  0.1195  0.4088  0.1121
    1AU       S  376   1.415   6.855   5.887 -0.2706 -0.1921  0.0003
    1AU     LIG  377   1.782   6.774   5.917 -0.2630  0.1636  0.1313
    1AU     LIG  378   2.000   6.444   6.010 -0.2647  0.1282 -0.2761
    1AU     LIG  379   2.416   6.239   6.084  0.2916  0.3994  0.0641
    1AU     LIG  380   2.864   6.279   6.143 -0.1423  0.1161 -0.1135
    1AU    AUSL  381   1.756   7.628   6.404  0.0644  0.1192  0.0338
    1AU    AUSL  382   1.463   7.953   6.306 -0.0789  0.0176  0.0133
    1AU     AUL  383   1.776   7.889   6.098  0.0079  0.0699 -0.0050
    1AU       S  384   1.974   8.133   6.403 -0.1936 -0.1701  0.1400
    1AU     LIG  385   2.369   8.461   6.317 -0.2460  0.0645 -0.0278
    1AU     LIG  386   2.805   8.480   6.353  0.0479  0.0946 -0.0492
    1AU     LIG  387   3.000   8.032   6.574 -0.2370  0.2284 -0.3266
    1AU     LIG  388   3.247   8.081   6.987 -0.1228  0.1697 -0.2051
    1AU       S  389   1.931   7.504   6.301 -0.0813 -0.2098 -0.1299
    1AU     LIG  390   2.289   7.732   6.506  0.2719 -0.0948 -0.0708
    1AU     LIG  391   2.504   8.068   6.582  0.0503 -0.2165  0.4136
    1AU     LIG  392   2.771   8.374   6.870 -0.1432 -0.1097 -0.1187
    1AU     LIG  393   3.027   8.656   6.896  0.1251  0.0144 -0.2772
    1AU    AUSL  394   0.196   8.196   6.882  0.0590 -0.0354  0.0135
    1AU    AUSL  395   0.386   7.752   7.326 -0.0463 -0.0201 -0.0651
    1AU     AUL  396   0.094   8.073   7.223 -0.0355 -0.0366  0.0351
    1AU       S  397  -0.263   8.175   6.874 -0.4177  0.2483 -0.0043
    1AU     LIG  398  -0.652   7.789   6.871  0.4291  0.8657 -0.1023
    1AU     LIG  399  -1.026   7.520   6.782 -0.1658 -0.0608  0.5162
    1AU     LIG  400  -1.294   7.335   6.636  0.0554 -0.0019 -0.0396
    1AU     LIG  401  -1.364   6.940   6.456 -0.1668 -0.6056  0.0474
    1AU       S  402   0.239   7.783   7.596  0.1171  0.4275  0.2018
    1AU     LIG  403  -0.145   7.837   7.611  0.2370  0.0666 -0.4417
    1AU     LIG  404  -0.412   7.538   7.568  0.2337 -0.2816 -0.0313
    1AU     LIG  405  -0.431   7.184   7.763  0.0902  0.2407  0.3970
    1AU     LIG  406  -0.594   7.080   8.086  0.2982 -0.0480  0.0431
    1AU    AUSL  407   0.124   7.815   6.644 -0.1560  0.0268  0.0399
    1AU    AUSL  408   0.422   8.181   6.539  0.0197 -0.0951  0.0920
    1AU     AUL  409   0.087   8.289   6.561 -0.0402 -0.0514 -0.0222
    1AU       S  410  -0.253   7.920   6.666 -0.1955 -0.1128 -0.0375
    1AU     LIG  411  -0.733   8.078   6.467 -0.5358 -0.1226 -0.2176
    1AU     LIG  412  -1.085   8.004   6.877 -0.4428  0.5544 -0.4269
    1AU     LIG  413  -1.485   7.802   6.754 -0.4437  0.5403 -0.1305
    1AU     LIG  414  -1.652   7.718   7.137 -0.2266 -0.0810 -0.2030
    1AU       S  415  -0.076   8.432   6.168  0.2654 -0.2338 -0.0504
    1AU     LIG  416  -0.357   8.830   6.160  0.0014 -0.2650 -0.0486
    1AU     LIG  417  -0.701   9.106   6.029 -0.1707  0.1639  0.2395
    1AU     LIG  418  -1.056   9.370   6.101  0.1517  0.0182 -0.0691
    1AU     LIG  419  -1.054   9.741   6.372  0.4234 -0.2723  0.0115
    1AU    AUSL  420   1.521   8.338   6.504 -0.0299 -0.1184  0.0153
    1AU    AUSL  421   1.344   8.090   5.924  0.0382  0.0889 -0.0496
    1AU     AUL  422   1.489   8.322   6.154 -0.0628  0.0310  0.0663
    1AU       S  423   1.315   8.332   5.722  0.0722  0.6010  0.1968
    1AU     LIG  424   1.747   8.317   5.714  0.1294  0.0569  0.4754
    1AU     LIG  425   2.167   8.240   5.881 -0.0640  0.3494  0.0395
    1AU     LIG  426   2.280   7.824   5.967  0.0630 -0.0194 -0.0730
    1AU     LIG  427   2.516   7.505   5.565  0.3681  0.0261 -0.1747
    1AU       S  428   1.867   8.244   6.406 -0.3095  0.1329  0.0316
    1AU     LIG  429   1.863   8.631   6.498  0.2809 -0.5516  0.2406
    1AU     LIG  430   1.518   8.946   6.305  0.1769 -0.0271  0.2100
    1AU     LIG  431   1.520   9.402   6.271  0.1784  0.0956 -0.0326
    1AU     LIG  432   1.565   9.786   6.243  0.1616 -0.0656  0.1053
    1AU    AUSL  433   1.628   7.920   6.702 -0.0093 -0.0182  0.1594
    1AU    AUSL  434   1.295   8.245   6.837 -0.0145  0.1310  0.0456
    1AU     AUL  435   1.653   8.318   6.825 -0.1059  0.0628  0.0724
    1AU       S  436   1.913   7.999   6.608  0.0016 -0.0437  0.0152
    1AU     LIG  437   2.091   8.156   6.898 -0.2988  0.2397 -0.3803
    1AU     LIG  438   2.302   8.528   6.759 -0.2977  0.0209 -0.1145
    1AU     LIG  439   2.575   8.855   6.773  0.0761  0.1901  0.0693
    1AU     LIG  440   2.862   9.147   7.055  0.1514 -0.2097  0.1128
    1AU       S  441   1.508   8.575   7.157 -0.3083  0.0025 -0.0830
    1AU     LIG  442   1.433   8.745   6.794  0.0197 -0.2918  0.3747
    1AU     LIG  443   1.243   9.133   6.685  0.0847  0.1217 -0.0989
    1AU     LIG  444   0.947   9.471   6.431 -0.2874 -0.0515 -0.0926
    1AU     LIG  445   0.874   9.943   6.525 -0.3447 -0.1738 -0.2210
    2POPC   NC3  446   8.635   7.520   9.154  0.0552 -0.0112  0.2910
    2POPC   PO4  447   8.251   7.596   8.800  0.0536  0.0208  0.0309
    2POPC   GL1  448   8.516   7.277   8.632  0.1908  0.0966  0.1440
    2POPC   GL2  449   8.755   7.497   8.593 -0.2774  0.1405  0.1604
    2POPC   C1A  450   8.586   6.995   8.290  0.2239 -0.1120  0.2516
    2POPC   D2A  451   8.607   7.162   7.826  0.0458  0.1695  0.0821
    2POPC   C3A  452   8.422   7.384   7.618 -0.0429 -0.0183 -0.0718
    2POPC   C4A  453   8.074   7.628   7.608 -0.0741  0.0049  0.1327
    2POPC   C1B  454   9.170   7.707   8.599  0.0008 -0.2122 -0.0494
    2POPC   C2B  455   9.285   8.158   8.302  0.0033 -0.0139  0.0056
    2POPC   C3B  456   9.455   8.442   7.959 -0.1993  0.3430 -0.0715
    2POPC   C4B  457   9.690   8.273   7.527 -0.0010  0.2342 -0.3851
    3POPC   NC3  458   6.811   3.982   8.679  0.2012  0.1822 -0.0347
    3POPC   PO4  459   6.809   4.339   8.882 -0.1571  0.0708  0.3924
    3POPC   GL1  460   6.821   4.438   8.467 -0.0062  0.1640 -0.2137
    3POPC   GL2  461   6.618   4.583   8.458  0.2672  0.0565  0.2149
    3POPC   C1A  462   6.956   4.486   7.974  0.0458 -0.1074 -0.1305
    3POPC   D2A  463   7.247   4.691   7.642  0.3569  0.0777 -0.2863
    3POPC   C3A  464   7.289   4.621   7.197  0.2113 -0.0423 -0.2587
    3POPC   C4A  465   7.439   4.761   6.819  0.2121 -0.2129 -0.2006
    3POPC   C1B  466   6.429   4.632   7.996  0.2215  0.0959 -0.3240
    3POPC   C2B  467   6.364   4.537   7.585 -0.0883 -0.0441 -0.0183
    3POPC   C3B  468   6.235   4.620   7.223 -0.2007 -0.1296  0.2933
    3POPC   C4B  469   6.018   4.930   7.144  0.1979  0.0965  0.4790
    4POPC   NC3  470   6.968   2.855   7.929 -0.1951  0.2660 -0.0697
    4POPC   PO4  471   6.770   2.494   7.825  0.0142  0.0772 -0.1283
    4POPC   GL1  472   7.109   2.432   7.480  0.4244 -0.0814 -0.3389
    4POPC   GL2  473   7.309   2.499   7.685  0.2411  0.1055 -0.1434
    4POPC   C1A  474   7.215   2.215   7.178  0.0057 -0.2600  0.1446
    4POPC   D2A  475   7.503   1.940   6.821  0.4558  0.0292 -0.0615
    4POPC   C3A  476   7.398   1.980   6.348 -0.0188  0.1764  0.0548
    4POPC   C4A  477   7.303   1.683   5.960  0.2695  0.2878  0.1995
    4POPC   C1B  478   7.572   2.344   7.459 -0.0697 -0.1961  0.1526
    4POPC   C2B  479   7.729   1.957   7.297  0.0603 -0.2084  0.0772
    4POPC   C3B  480   7.997   1.899   7.034 -0.4368  0.1105  0.0214
    4POPC   C4B  481   8.287   2.162   6.885 -0.1022  0.0425  0.0073
    5POPC   NC3  482   4.339   8.770   8.893 -0.0429  0.1022 -0.0696
    5POPC   PO4  483   4.319   8.679   8.519 -0.1397  0.1330 -0.1019
    5POPC   GL1  484   4.046   8.819   8.170 -0.0261  0.1741  0.1694
    5POPC   GL2  485   4.192   9.005   7.897  0.1263  0.2309  0.1975
    5POPC   C1A  486   3.645   8.761   8.027  0.0562 -0.0918 -0.3952
    5POPC   D2A  487   3.285   8.616   8.162 -0.2318  0.0164 -0.1725
    5POPC   C3A  488   3.151   8.411   7.807 -0.1913 -0.0210  0.1006
    5POPC   C4A  489   3.133   8.075   7.469 -0.5084  0.0450 -0.2502
    5POPC   C1B  490   3.825   9.279   7.891 -0.2241 -0.0199  0.0507
    5POPC   C2B  491   3.554   9.652   7.795 -0.5162 -0.0881 -0.0326
    5POPC   C3B  492   3.005   9.534   7.997 -0.1375 -0.0754  0.0402
    5POPC   C4B  493   2.687   9.483   8.364 -0.0844 -0.0479  0.1238
    6POPC   NC3  494   5.633   8.356   8.582  0.0679 -0.0250 -0.4549
    6POPC   PO4  495   5.465   7.968   8.576 -0.1563 -0.0401 -0.0496
    6POPC   GL1  496   5.341   7.691   8.200  0.0884 -0.1482  0.0904
    6POPC   GL2  497   5.680   7.594   8.128  0.0084  0.0957  0.2964
    6POPC   C1A  498   5.055   7.581   7.784 -0.1969 -0.2675 -0.0062
    6POPC   D2A  499   4.659   7.659   7.626  0.1740  0.0329  0.2833
    6POPC   C3A  500   4.686   7.753   7.176  0.0632 -0.3640 -0.2404
    6POPC   C4A  501   4.897   8.105   6.981  0.2768 -0.1743  0.2538
    6POPC   C1B  502   5.573   7.826   7.755  0.1716 -0.0357  0.1632
    6POPC   C2B  503   5.869   7.991   7.656 -0.0143  0.0102 -0.0149
    6POPC   C3B  504   6.076   8.100   7.360  0.1152 -0.4228 -0.0640
    6POPC   C4B  505   6.358   7.878   7.103 -0.0599  0.1158 -0.0333
    7POPC   NC3  506   0.316   1.063   7.944 -0.0490 -0.0779  0.2564
    7POPC   PO4  507  -0.052   1.009   8.175 -0.0897  0.0638 -0.1765
    7POPC   GL1  508  -0.167   1.004   7.735 -0.1552  0.1551 -0.3626
    7POPC   GL2  509  -0.250   1.337   7.560  0.1841 -0.4346  0.0695
    7POPC   C1A  510  -0.289   0.787   7.456 -0.0061 -0.1079 -0.0544
    7POPC   D2A  511  -0.685   0.781   7.066  0.1036 -0.1396 -0.1542
    7POPC   C3A  512  -0.705   0.795   6.553  0.3867 -0.2248  0.0822
    7POPC   C4A  513  -1.182   0.757   6.376  0.2662 -0.0033  0.1125
    7POPC   C1B  514   0.009   1.134   7.291  0.1159 -0.1134 -0.0508
    7POPC   C2B  515   0.170   1.248   6.943 -0.1111  0.1266  0.0337
    7POPC   C3B  516   0.206   1.519   6.686  0.0624  0.1576 -0.0094
    7POPC   C4B  517   0.212   1.617   6.296 -0.0825 -0.1166  0.1923
    8POPC   NC3  518   6.988   9.693   8.637  0.0725 -0.1064  0.1164
    8POPC   PO4  519   7.058   9.959   8.154  0.1825  0.0202 -0.3020
    8POPC   GL1  520   7.302   9.917   7.745  0.3199 -0.0432 -0.1177
    8POPC   GL2  521   6.959   9.816   7.658 -0.1318 -0.0515 -0.1075
    8POPC   C1A  522   7.330   9.907   7.351 -0.1114  0.1024  0.1439
    8POPC   D2A  523   7.549  10.033   6.963  0.1261  0.0856  0.1862
    8POPC   C3A  524   7.851   9.775   6.826 -0.6644  0.1465  0.2360
    8POPC   C4A  525   8.175   9.992   6.557  0.0491 -0.1682 -0.1036
    8POPC   C1B  526   6.982   9.441   7.324 -0.0017 -0.1729 -0.0379
    8POPC   C2B  527   7.152   9.185   7.027 -0.2248 -0.2551 -0.3410
    8POPC   C3B  528   7.282   8.745   6.879 -0.1658 -0.1167  0.1431
    8POPC   C4B  529   7.689   8.404   6.941 -0.0408  0.1172  0.2895
    9POPC   NC3  530   3.509   8.310   8.575  0.2478  0.0506 -0.2434
    9POPC   PO4  531   3.144   8.090   8.836  0.2032  0.2163  0.3673
    9POPC   GL1  532   3.322   7.780   8.434 -0.0881  0.0987 -0.0878
    9POPC   GL2  533   3.409   8.082   8.165 -0.0304  0.3232  0.0324
    9POPC   C1A  534   3.393   7.344   8.106  0.3507  0.1068 -0.0333
    9POPC   D2A  535   3.257   6.936   7.790  0.1907  0.1074 -0.0355
    9POPC   C3A  536   2.899   6.864   7.482 -0.1574  0.0654 -0.3150
    9POPC   C4A  537   2.868   6.618   7.144  0.2674  0.2502 -0.1233
    9POPC   C1B  538   3.575   8.270   7.768 -0.1256 -0.0080 -0.0181
    9POPC   C2B  539   3.638   8.265   7.369  0.0314  0.3260 -0.4498
    9POPC   C3B  540   3.520   8.515   7.090  0.2403 -0.0278  0.1235
    9POPC   C4B  541   3.700   8.728   6.790  0.0958  0.0464 -0.2597
   10POPC   NC3  542   5.571   2.920   8.583 -0.0104  0.0888 -0.0875
   10POPC   PO4  543   5.444   2.812   8.177  0.2683 -0.1448 -0.0965
   10POPC   GL1  544   5.419   2.540   7.806 -0.1856  0.0722  0.0519
   10POPC   GL2  545   5.206   2.622   7.672 -0.1132 -0.2654 -0.0509
   10POPC   C1A  546   5.534   2.300   7.411 -0.1786  0.1506  0.1598
   10POPC   D2A  547   5.476   1.960   7.109 -0.0898 -0.1223 -0.0783
   10POPC   C3A  548   5.157   1.767   6.973  0.4455  0.1608  0.1068
   10POPC   C4A  549   4.788   1.543   6.828 -0.1660  0.1191  0.2278
   10POPC   C1B  550   5.090   2.568   7.247 -0.2478  0.1289  0.2341
   10POPC   C2B  551   5.066   2.245   7.028 -0.1191 -0.0970 -0.0612
   10POPC   C3B  552   4.692   2.145   6.825 -0.1694 -0.0552 -0.1165
   10POPC   C4B  553   4.536   2.342   6.416  0.2391 -0.2157 -0.0620
   11POPC   NC3  554   1.436   3.853   8.192 -0.0401 -0.3412 -0.1143
   11POPC   PO4  555   1.271   3.410   8.176  0.0567  0.1151 -0.2650
   11POPC   GL1  556   1.435   3.440   7.714 -0.1180  0.0237  0.1618
   11POPC   GL2  557   1.434   3.829   7.670  0.2760  0.2354  0.1621
   11POPC   C1A  558   1.652   3.243   7.343  0.1258  0.0862  0.0158
   11POPC   D2A  559   1.616   2.794   7.115 -0.0808 -0.1109  0.2729
   11POPC   C3A  560   1.632   2.458   6.881 -0.2468 -0.0540  0.1134
   11POPC   C4A  561   1.494   2.187   7.101 -0.1173 -0.2599  0.2737
   11POPC   C1B  562   1.658   4.019   7.359  0.2123  0.2922 -0.2320
   11POPC   C2B  563   1.836   4.117   6.850  0.0336  0.0602  0.0138
   11POPC   C3B  564   2.163   4.327   6.562 -0.0006 -0.4527 -0.1541
   11POPC   C4B  565   2.430   4.726   6.398 -0.3583 -0.2924 -0.2389
   12POPC   NC3  566   6.848   8.385   8.751  0.3188  0.1543  0.1663
   12POPC   PO4  567   6.935   8.714   8.503  0.0925 -0.3798  0.0221
   12POPC   GL1  568   7.119   8.462   8.247  0.0830  0.1597  0.0283
   12POPC   GL2  569   7.394   8.205   8.267 -0.4112 -0.0916 -0.0364
   12POPC   C1A  570   7.003   8.474   7.794 -0.0554  0.0392  0.1261
   12POPC   D2A  571   6.749   8.414   7.536  0.1514  0.1224  0.2441
   12POPC   C3A  572   6.828   8.592   7.226  0.0899 -0.0276  0.2437
   12POPC   C4A  573   6.758   8.597   6.916  0.1720 -0.0073  0.2227
   12POPC   C1B  574   7.479   8.270   7.809 -0.0551  0.1224  0.2380
   12POPC   C2B  575   7.736   8.201   7.515 -0.1320  0.0765  0.0521
   12POPC   C3B  576   7.958   8.049   7.120  0.2271  0.0590 -0.0280
   12POPC   C4B  577   7.883   7.683   6.834  0.4251  0.2675 -0.0890
   13POPC   NC3  578   2.821   2.714   8.682  0.0028  0.2670  0.1563
   13POPC   PO4  579   2.930   2.398   8.375 -0.1797  0.0751  0.2067
   13POPC   GL1  580   2.860   2.392   8.023 -0.0027 -0.1244 -0.1190
   13POPC   GL2  581   3.027   2.738   7.959  0.0697  0.1385 -0.1360
   13POPC   C1A  582   2.761   2.400   7.564 -0.2405  0.1072 -0.1295
   13POPC   D2A  583   2.529   2.444   7.179  0.1196  0.0230  0.1154
   13POPC   C3A  584   2.848   2.590   6.873 -0.1576 -0.0153 -0.0931
   13POPC   C4A  585   2.958   3.007   6.981  0.2710  0.0070  0.0718
   13POPC   C1B  586   3.283   2.793   7.599 -0.1354 -0.0295 -0.1767
   13POPC   C2B  587   3.324   3.003   7.265 -0.1781 -0.2456  0.3818
   13POPC   C3B  588   3.501   3.294   7.025  0.0465 -0.0690  0.2951
   13POPC   C4B  589   3.719   3.614   6.827  0.0268  0.1936 -0.0299
   14POPC   NC3  590   1.851   6.896   9.406  0.0076 -0.1627  0.2355
   14POPC   PO4  591   2.052   7.233   9.283 -0.0031 -0.0346  0.3733
   14POPC   GL1  592   2.064   7.269   8.862 -0.2405  0.3406 -0.3513
   14POPC   GL2  593   2.230   7.038   8.706 -0.0466  0.1256 -0.0715
   14POPC   C1A  594   1.983   7.397   8.450 -0.0146 -0.1022 -0.1191
   14POPC   D2A  595   1.787   7.603   8.051  0.1005  0.2791 -0.5063
   14POPC   C3A  596   1.592   7.987   8.003  0.0314 -0.0975 -0.3154
   14POPC   C4A  597   1.215   8.205   8.260  0.1534 -0.0247 -0.0286
   14POPC   C1B  598   2.404   7.128   8.235 -0.2238 -0.1868  0.1069
   14POPC   C2B  599   2.294   7.514   8.013  0.0253  0.0204 -0.0500
   14POPC   C3B  600   2.153   7.914   7.911  0.1600 -0.1164  0.1696
   14POPC   C4B  601   1.846   8.341   7.742  0.0649 -0.1707  0.0511
   15POPC   NC3  602   4.366   6.576   8.505 -0.1088 -0.2816  0.0569
   15POPC   PO4  603   4.717   6.808   8.599  0.0233  0.0698  0.0137
   15POPC   GL1  604   4.731   6.757   8.208 -0.2159  0.0328 -0.1454
   15POPC   GL2  605   4.612   6.442   8.110  0.1657  0.0756 -0.2088
   15POPC   C1A  606   5.003   6.710   7.845 -0.1715  0.2834 -0.0179
   15POPC   D2A  607   4.920   6.411   7.470 -0.1318 -0.0710 -0.0667
   15POPC   C3A  608   4.949   6.418   6.984  0.0305 -0.2685 -0.4031
   15POPC   C4A  609   5.288   6.437   6.734 -0.1279  0.0783 -0.1167
   15POPC   C1B  610   4.493   6.145   7.691 -0.3398 -0.1757  0.4310
   15POPC   C2B  611   4.585   6.017   7.143 -0.2251  0.0508  0.0108
   15POPC   C3B  612   4.540   5.771   6.801  0.2057 -0.4368 -0.0707
   15POPC   C4B  613   4.511   5.613   6.523  0.0699 -0.2547  0.0672
   16POPC   NC3  614   3.498   7.540   8.886 -0.0069 -0.1547  0.0429
   16POPC   PO4  615   3.776   7.881   8.679 -0.0510  0.3706  0.0220
   16POPC   GL1  616   3.785   7.710   8.265 -0.3368  0.2285 -0.0111
   16POPC   GL2  617   4.184   7.558   8.155  0.2557  0.2854  0.1574
   16POPC   C1A  618   3.667   7.631   7.782  0.0007  0.1418 -0.3650
   16POPC   D2A  619   3.560   7.791   7.385 -0.1359  0.0662 -0.1412
   16POPC   C3A  620   3.733   7.780   6.980  0.2644  0.1384 -0.0309
   16POPC   C4A  621   3.481   7.800   6.718 -0.1427 -0.1195  0.1108
   16POPC   C1B  622   4.195   7.649   7.751 -0.2025  0.1330 -0.0914
   16POPC   C2B  623   4.100   7.883   7.446  0.3209 -0.0826 -0.0821
   16POPC   C3B  624   4.014   8.120   7.141 -0.0806 -0.3360  0.0531
   16POPC   C4B  625   3.855   8.240   6.781  0.1151 -0.3066 -0.1575
   17POPC   NC3  626   3.174   5.452   8.153  0.2132  0.1063  0.1341
   17POPC   PO4  627   2.806   5.516   8.172  0.0492 -0.1388 -0.3544
   17POPC   GL1  628   2.687   5.396   7.794  0.0671  0.0479  0.0036
   17POPC   GL2  629   2.963   5.210   7.749 -0.0940  0.0420  0.1151
   17POPC   C1A  630   2.726   5.363   7.310 -0.3359  0.1157 -0.2150
   17POPC   D2A  631   2.793   5.369   6.872  0.0372  0.1717  0.1161
   17POPC   C3A  632   3.148   5.282   6.556  0.0970 -0.1988  0.0919
   17POPC   C4A  633   3.549   5.422   6.325 -0.0869  0.0098 -0.0945
   17POPC   C1B  634   2.804   4.894   7.655  0.0069  0.3899 -0.4929
   17POPC   C2B  635   2.614   4.900   7.206 -0.0197  0.3526  0.0342
   17POPC   C3B  636   2.413   5.033   6.816  0.1598  0.1263 -0.3415
   17POPC   C4B  637   2.630   5.224   6.444  0.1298 -0.0390  0.2279
   18POPC   NC3  638   4.596   7.187   8.933  0.1119  0.0041 -0.0141
   18POPC   PO4  639   4.271   7.043   8.649 -0.2828 -0.0977 -0.2566
   18POPC   GL1  640   4.359   7.061   8.213  0.1575  0.1514  0.3159
   18POPC   GL2  641   4.228   6.834   8.072  0.0245  0.1066 -0.0927
   18POPC   C1A  642   4.428   7.207   7.764 -0.1597  0.1911 -0.2383
   18POPC   D2A  643   4.493   7.304   7.281 -0.0822 -0.1661  0.1719
   18POPC   C3A  644   4.859   7.315   7.014  0.0168 -0.2779  0.1668
   18POPC   C4A  645   5.164   7.564   6.783 -0.0638  0.1804 -0.0415
   18POPC   C1B  646   4.510   6.752   7.674  0.0071 -0.1395  0.2826
   18POPC   C2B  647   4.447   6.560   7.280 -0.1123  0.1309  0.2058
   18POPC   C3B  648   4.387   6.472   6.844 -0.2458  0.1131  0.0883
   18POPC   C4B  649   4.684   6.232   6.528  0.1423  0.1961  0.1583
   19POPC   NC3  650   7.624   2.256   8.202  0.3099  0.0136  0.1872
   19POPC   PO4  651   7.783   2.562   8.452  0.0865 -0.2269  0.2363
   19POPC   GL1  652   7.982   2.777   8.020 -0.0809  0.1418 -0.3754
   19POPC   GL2  653   7.849   2.607   7.835  0.1485  0.3162 -0.1574
   19POPC   C1A  654   8.255   2.834   7.679  0.1013 -0.1018  0.1182
   19POPC   D2A  655   8.414   2.513   7.636  0.0073  0.2138 -0.1049
   19POPC   C3A  656   8.622   2.232   7.318 -0.1450  0.1631 -0.0670
   19POPC   C4A  657   8.794   2.121   6.914  0.1435  0.0637 -0.1953
   19POPC   C1B  658   7.673   2.852   7.555 -0.0095 -0.1110 -0.1069
   19POPC   C2B  659   7.436   2.732   7.196  0.1578 -0.0077 -0.1795
   19POPC   C3B  660   7.352   2.645   6.789 -0.0466  0.1542 -0.0549
   19POPC   C4B  661   7.625   2.396   6.485 -0.1358  0.3200  0.2687
   20POPC   NC3  662   0.993   5.889   9.513 -0.2756  0.0067  0.1584
   20POPC   PO4  663   0.797   5.440   9.512 -0.0830  0.2360  0.0202
   20POPC   GL1  664   0.686   5.576   9.053  0.1647 -0.4307  0.2016
   20POPC   GL2  665   0.556   5.913   8.956  0.2042 -0.1939 -0.1464
   20POPC   C1A  666   0.768   5.439   8.503 -0.1277  0.2623 -0.0409
   20POPC   D2A  667   0.662   5.686   8.110 -0.4041  0.3413  0.2656
   20POPC   C3A  668   0.465   5.564   7.894 -0.0103 -0.0751  0.0310
   20POPC   C4A  669   0.408   5.413   7.544  0.1688 -0.1890  0.0385
   20POPC   C1B  670   0.922   6.116   8.858  0.2504  0.0271 -0.0153
   20POPC   C2B  671   1.177   6.545   8.766 -0.2207  0.4669  0.4079
   20POPC   C3B  672   1.172   6.937   8.570  0.0427  0.3555  0.2315
   20POPC   C4B  673   1.182   7.185   8.276 -0.1371  0.2819  0.1258
   21POPC   NC3  674   1.539   0.560   9.026  0.0425 -0.0954  0.0625
   21POPC   PO4  675   1.208   0.307   8.711  0.0065 -0.1963  0.1681
   21POPC   GL1  676   1.341   0.095   8.474  0.2856  0.1404  0.2435
   21POPC   GL2  677   1.388  -0.266   8.606  0.2688 -0.1889  0.0338
   21POPC   C1A  678   1.507  -0.048   8.150 -0.2281 -0.2475 -0.0450
   21POPC   D2A  679   1.715  -0.419   7.851 -0.2959 -0.1455 -0.0534
   21POPC   C3A  680   1.645  -0.476   7.441  0.0010  0.2416  0.0916
   21POPC   C4A  681   1.855  -0.365   7.006 -0.2710 -0.2389  0.1000
   21POPC   C1B  682   1.002  -0.355   8.533  0.2820  0.0877  0.0200
   21POPC   C2B  683   0.643  -0.166   8.318 -0.1064  0.0389 -0.0307
   21POPC   C3B  684   0.435  -0.307   7.956 -0.2446  0.1695 -0.0683
   21POPC   C4B  685   0.149  -0.624   7.751  0.2756 -0.2222  0.0085
   22POPC   NC3  686   7.298   0.466   8.018 -0.3773 -0.0078  0.3256
   22POPC   PO4  687   7.460   0.867   8.102 -0.2198  0.0402  0.3280
   22POPC   GL1  688   7.337   0.929   7.620  0.2037  0.0989  0.2395
   22POPC   GL2  689   7.121   1.076   7.365  0.0804  0.0981  0.0409
   22POPC   C1A  690   7.620   0.834   7.292 -0.0516  0.1002  0.0973
   22POPC   D2A  691   7.819   0.705   6.953 -0.2416 -0.3335 -0.0132
   22POPC   C3A  692   8.061   0.334   6.954 -0.3035  0.1862 -0.0351
   22POPC   C4A  693   8.324   0.313   7.425  0.2624 -0.1152 -0.0964
   22POPC   C1B  694   7.197   1.061   6.911  0.0220 -0.2178  0.0776
   22POPC   C2B  695   7.506   1.102   6.694 -0.1509 -0.0857  0.0047
   22POPC   C3B  696   7.850   0.904   6.426 -0.0198 -0.0193 -0.0976
   22POPC   C4B  697   7.909   0.979   6.060  0.1865  0.0135 -0.2084
   23POPC   NC3  698   9.862   1.463   8.015  0.0472 -0.2587  0.0010
   23POPC   PO4  699  10.310   1.518   8.112  0.2297 -0.1575 -0.4084
   23POPC   GL1  700  10.559   1.462   7.727 -0.0532 -0.1492  0.0994
   23POPC   GL2  701  10.391   1.389   7.451  0.4199 -0.0214 -0.0294
   23POPC   C1A  702  10.849   1.100   7.682  0.0745  0.0788 -0.0702
   23POPC   D2A  703  10.990   0.848   7.282  0.1389 -0.0358 -0.0610
   23POPC   C3A  704  11.333   0.888   7.071 -0.2971 -0.0708  0.0522
   23POPC   C4A  705  11.581   1.201   6.833  0.0510 -0.1641  0.1757
   23POPC   C1B  706  10.555   1.110   7.210  0.1037  0.0658 -0.0480
   23POPC   C2B  707  10.682   1.219   6.888 -0.2751 -0.1172 -0.0020
   23POPC   C3B  708  11.051   1.009   6.683 -0.1769 -0.1097  0.0918
   23POPC   C4B  709  11.343   0.757   6.499 -0.0909  0.3441  0.3585
   24POPC   NC3  710   2.031   4.782   8.526 -0.1079  0.1450  0.1753
   24POPC   PO4  711   1.564   4.755   8.465 -0.3944 -0.3507 -0.1580
   24POPC   GL1  712   1.275   4.672   8.111 -0.3024  0.1501 -0.0304
   24POPC   GL2  713   0.992   4.624   8.132 -0.1374  0.0524  0.1730
   24POPC   C1A  714   1.170   5.002   7.732 -0.0305  0.0033  0.1369
   24POPC   D2A  715   1.016   5.282   7.352 -0.1409  0.0575 -0.2656
   24POPC   C3A  716   1.294   5.690   7.267 -0.0769 -0.0168 -0.0944
   24POPC   C4A  717   1.790   5.619   7.260  0.1588  0.0954  0.0503
   24POPC   C1B  718   0.767   4.625   7.755  0.3169  0.1769 -0.0652
   24POPC   C2B  719   0.784   4.871   7.440  0.2196 -0.2409 -0.1891
   24POPC   C3B  720   0.978   4.960   7.023  0.1930  0.1940 -0.0364
   24POPC   C4B  721   0.811   5.243   6.770  0.3453 -0.1155 -0.0525
   25POPC   NC3  722   4.149   7.530   8.633  0.1737  0.1515 -0.1394
   25POPC   PO4  723   4.318   7.924   8.480 -0.2174 -0.1197  0.1207
   25POPC   GL1  724   4.393   8.135   8.112  0.1817  0.1058  0.0510
   25POPC   GL2  725   4.700   8.178   7.910  0.1394  0.3476 -0.0081
   25POPC   C1A  726   4.158   8.447   7.877  0.3243 -0.2098 -0.0445
   25POPC   D2A  727   3.960   8.734   7.481 -0.1747  0.3456  0.0566
   25POPC   C3A  728   3.487   8.735   7.538 -0.2739  0.2421  0.2266
   25POPC   C4A  729   3.079   8.831   7.353 -0.2153 -0.0885  0.0268
   25POPC   C1B  730   4.902   8.108   7.539  0.0509  0.2141 -0.2069
   25POPC   C2B  731   5.228   7.855   7.355  0.0700  0.0746  0.0011
   25POPC   C3B  732   5.219   7.459   7.288 -0.3187 -0.1117 -0.0069
   25POPC   C4B  733   5.498   7.147   7.066  0.1379 -0.1074 -0.1970
   26POPC   NC3  734   9.098   0.100   9.156  0.0755  0.2826  0.1771
   26POPC   PO4  735   8.834  -0.061   8.934 -0.2506  0.1280 -0.2005
   26POPC   GL1  736   9.057  -0.090   8.519  0.0533  0.2093 -0.1366
   26POPC   GL2  737   9.406   0.046   8.438  0.0162 -0.1763 -0.4342
   26POPC   C1A  738   8.781  -0.215   8.146 -0.0639 -0.2416 -0.0877
   26POPC   D2A  739   8.377  -0.337   8.203  0.1064 -0.1852  0.0525
   26POPC   C3A  740   8.458  -0.728   8.013  0.0516 -0.1003  0.2473
   26POPC   C4A  741   8.661  -1.081   8.182  0.0300 -0.1741 -0.0751
   26POPC   C1B  742   9.275  -0.092   8.055  0.0388 -0.0344 -0.2963
   26POPC   C2B  743   9.149  -0.155   7.680  0.0105  0.1280  0.1034
   26POPC   C3B  744   9.317  -0.229   7.299 -0.0109  0.3867 -0.1650
   26POPC   C4B  745   9.834  -0.358   7.194 -0.0106 -0.0498 -0.0301
   27POPC   NC3  746   7.344   9.029   8.463  0.1355  0.2851 -0.0384
   27POPC   PO4  747   7.518   9.481   8.577  0.0173  0.1570  0.1074
   27POPC   GL1  748   7.409   9.551   8.075 -0.0635 -0.1867 -0.0795
   27POPC   GL2  749   7.156   9.347   7.943  0.2909 -0.0380 -0.0773
   27POPC   C1A  750   7.713   9.706   7.683  0.0390 -0.1362  0.0999
   27POPC   D2A  751   7.880  10.010   7.293  0.0657  0.1459  0.1477
   27POPC   C3A  752   8.281   9.903   7.127 -0.0628  0.2945  0.2488
   27POPC   C4A  753   8.515   9.813   6.864  0.0737  0.1173 -0.2710
   27POPC   C1B  754   7.378   9.307   7.570  0.2031  0.0924  0.2448
   27POPC   C2B  755   7.610   9.068   7.302 -0.1102  0.3213  0.0156
   27POPC   C3B  756   7.685   9.080   6.867 -0.1946 -0.2052  0.1597
   27POPC   C4B  757   8.176   8.986   6.741  0.0360 -0.2801 -0.1914
   28POPC   NC3  758   6.323   4.320   8.771 -0.1156  0.0032 -0.3015
   28POPC   PO4  759   6.332   4.002   8.470  0.0002 -0.3192  0.3267
   28POPC   GL1  760   6.201   4.120   8.007  0.2164  0.1299  0.1311
   28POPC   GL2  761   6.412   4.029   7.730 -0.1580  0.3256 -0.1640
   28POPC   C1A  762   5.931   4.005   7.623 -0.0955  0.1853  0.1213
   28POPC   D2A  763   5.910   3.980   7.263  0.2264  0.2730 -0.0582
   28POPC   C3A  764   5.915   3.712   6.992  0.2745 -0.4688  0.0667
   28POPC   C4A  765   5.776   3.693   6.625  0.0041  0.0266 -0.1491
   28POPC   C1B  766   6.479   4.146   7.320  0.1834  0.3552 -0.0940
   28POPC   C2B  767   6.304   3.998   6.977  0.0102 -0.0560  0.3015
   28POPC   C3B  768   5.886   4.151   6.754  0.0140  0.0780  0.1015
   28POPC   C4B  769   5.575   4.152   6.446 -0.0228  0.2870 -0.0844
   29POPC   NC3  770   2.304   9.654   9.236 -0.1344 -0.2477  0.0737
   29POPC   PO4  771   2.182  10.051   8.895 -0.0775  0.3000  0.1160
   29POPC   GL1  772   2.027   9.989   8.481  0.2734 -0.2199 -0.0084
   29POPC   GL2  773   2.071  10.223   8.238 -0.1077  0.1792 -0.1061
   29POPC   C1A  774   2.224   9.754   8.190 -0.3361 -0.1838  0.0795
   29POPC   D2A  775   2.303   9.535   7.856  0.2891  0.0392  0.0158
   29POPC   C3A  776   2.580   9.160   7.958  0.1079 -0.3469 -0.2316
   29POPC   C4A  777   2.830   8.787   7.877  0.1824 -0.2701 -0.1955
   29POPC   C1B  778   1.885  10.001   7.822  0.0317  0.3654 -0.2380
   29POPC   C2B  779   1.741  10.017   7.339 -0.2419 -0.1672 -0.1086
   29POPC   C3B  780   1.443   9.828   7.104  0.0038 -0.4437  0.3837
   29POPC   C4B  781   1.359   9.631   6.703  0.0399  0.0966 -0.0801
   30POPC   NC3  782   2.072   7.734   9.545  0.1670  0.1597  0.1067
   30POPC   PO4  783   2.007   8.239   9.612 -0.1650  0.4686 -0.1506
   30POPC   GL1  784   1.805   8.242   9.323  0.0137 -0.1311 -0.0479
   30POPC   GL2  785   1.867   8.531   9.023 -0.1240  0.1754  0.0931
   30POPC   C1A  786   1.564   8.122   8.916  0.2105 -0.0234 -0.0207
   30POPC   D2A  787   1.127   8.092   8.778 -0.2545  0.2597 -0.0617
   30POPC   C3A  788   0.757   7.935   8.982 -0.0402  0.1140  0.1725
   30POPC   C4A  789   0.382   7.745   9.201  0.0630 -0.1043  0.0027
   30POPC   C1B  790   2.017   8.286   8.690 -0.1725  0.2946 -0.1061
   30POPC   C2B  791   2.184   8.313   8.225  0.1952  0.2651  0.1848
   30POPC   C3B  792   2.354   8.333   7.744 -0.1528 -0.1550 -0.1963
   30POPC   C4B  793   2.761   8.482   7.448 -0.0627  0.0766  0.4561
   31POPC   NC3  794   5.210   5.197   9.199 -0.2724 -0.1377  0.2266
   31POPC   PO4  795   5.425   5.514   8.887 -0.3302 -0.1287 -0.3044
   31POPC   GL1  796   5.398   5.775   8.548  0.2621  0.1359  0.0398
   31POPC   GL2  797   5.540   6.097   8.545  0.1153 -0.1215  0.1445
   31POPC   C1A  798   5.352   5.774   8.029 -0.0859  0.0603 -0.2202
   31POPC   D2A  799   5.058   5.447   7.833 -0.0951 -0.4494 -0.1204
   31POPC   C3A  800   5.246   5.347   7.396  0.1237  0.1562 -0.2367
   31POPC   C4A  801   5.306   5.484   6.989  0.1677 -0.0826  0.1017
   31POPC   C1B  802   5.692   6.194   8.063 -0.1751  0.3916 -0.1059
   31POPC   C2B  803   5.976   6.112   7.727 -0.0082 -0.0324 -0.0454
   31POPC   C3B  804   6.013   5.835   7.320 -0.0056  0.0351 -0.1512
   31POPC   C4B  805   6.139   5.985   6.854 -0.2295 -0.0457  0.2737
   32POPC   NC3  806   8.958   4.068   8.821 -0.1102  0.3481  0.3285
   32POPC   PO4  807   9.018   4.550   8.664  0.2046 -0.0900  0.1810
   32POPC   GL1  808   8.825   4.469   8.178 -0.1573  0.1882 -0.1415
   32POPC   GL2  809   9.096   4.312   7.973  0.1698  0.0259  0.0964
   32POPC   C1A  810   8.648   4.645   7.854 -0.0094  0.0149  0.1089
   32POPC   D2A  811   8.689   4.734   7.406 -0.0790 -0.0684 -0.0744
   32POPC   C3A  812   8.576   5.027   7.136 -0.0059 -0.3101 -0.1718
   32POPC   C4A  813   8.466   5.208   6.744  0.1562 -0.2233  0.1981
   32POPC   C1B  814   8.999   4.346   7.549  0.1270 -0.1609  0.0809
   32POPC   C2B  815   8.993   4.373   7.083  0.0131 -0.0668 -0.0711
   32POPC   C3B  816   9.237   4.189   6.787  0.1331  0.1949 -0.1154
   32POPC   C4B  817   9.694   4.102   6.843  0.3647  0.1927  0.1514
   33POPC   NC3  818   9.183   5.508   9.443  0.2143 -0.1020 -0.1204
   33POPC   PO4  819   9.671   5.358   9.315  0.1189  0.1271 -0.2147
   33POPC   GL1  820   9.817   5.688   8.998 -0.2312 -0.1049 -0.1473
   33POPC   GL2  821  10.104   5.587   8.818 -0.0732 -0.0846  0.1199
   33POPC   C1A  822   9.957   6.073   8.847  0.1823  0.0982 -0.1515
   33POPC   D2A  823  10.023   6.268   8.392 -0.2194 -0.0392  0.2134
   33POPC   C3A  824  10.288   6.139   8.038 -0.0820 -0.3474  0.2419
   33POPC   C4A  825  10.415   6.005   7.639  0.0481  0.0484 -0.0434
   33POPC   C1B  826   9.643   5.668   8.536 -0.2370 -0.1175 -0.0190
   33POPC   C2B  827   9.718   5.862   8.207 -0.2356 -0.2769  0.0667
   33POPC   C3B  828   9.918   5.754   7.825  0.1239 -0.0051  0.0734
   33POPC   C4B  829   9.985   5.741   7.347  0.0408 -0.1363 -0.2017
   34POPC   NC3  830   1.080   1.735   8.510 -0.1678 -0.0844  0.1304
   34POPC   PO4  831   0.880   1.749   8.121 -0.0551 -0.1589 -0.0466
   34POPC   GL1  832   0.814   1.986   7.700  0.0573 -0.0207  0.1108
   34POPC   GL2  833   1.057   2.078   7.539 -0.2086 -0.0825  0.1619
   34POPC   C1A  834   0.527   1.989   7.429 -0.0092  0.2881 -0.1254
   34POPC   D2A  835   0.330   1.807   7.053  0.1040  0.0909  0.0200
   34POPC   C3A  836   0.287   1.970   6.670  0.0727  0.0462 -0.0132
   34POPC   C4A  837   0.306   2.059   6.232 -0.0116 -0.0195 -0.1421
   34POPC   C1B  838   1.015   2.020   7.116  0.0243  0.1588 -0.0561
   34POPC   C2B  839   0.778   1.799   6.733 -0.3492  0.0257  0.0984
   34POPC   C3B  840   0.688   1.466   6.424  0.0126  0.0344  0.0548
   34POPC   C4B  841   0.525   0.969   6.495  0.1648 -0.4431  0.2406
   35POPC   NC3  842   0.576   0.222   9.273  0.3752  0.0394  0.0675
   35POPC   PO4  843   0.350  -0.203   9.175 -0.2454  0.3007  0.4821
   35POPC   GL1  844   0.259  -0.238   8.796  0.0738 -0.0985  0.3328
   35POPC   GL2  845   0.317   0.179   8.529 -0.0320 -0.4514 -0.0643
   35POPC   C1A  846  -0.017  -0.247   8.417  0.3223  0.0911 -0.0790
   35POPC   D2A  847  -0.200  -0.306   8.015 -0.1733  0.2975  0.3250
   35POPC   C3A  848  -0.318  -0.354   7.649 -0.2103  0.0834 -0.2587
   35POPC   C4A  849  -0.492  -0.697   7.419 -0.2919 -0.2650  0.1953
   35POPC   C1B  850   0.424   0.228   7.977  0.3099 -0.1446 -0.0759
   35POPC   C2B  851   0.570   0.167   7.515 -0.0996  0.4949 -0.0768
   35POPC   C3B  852   1.005   0.258   7.320 -0.1529 -0.3069  0.0088
   35POPC   C4B  853   1.387   0.503   7.371 -0.0095 -0.0271 -0.0577
   36POPC   NC3  854   5.327   5.046   8.690  0.2093  0.3083 -0.2328
   36POPC   PO4  855   5.609   4.727   8.787 -0.2972 -0.1415  0.2956
   36POPC   GL1  856   5.661   4.871   8.339  0.0952 -0.0267  0.1231
   36POPC   GL2  857   5.957   4.795   8.165 -0.1166  0.2393 -0.1360
   36POPC   C1A  858   5.397   4.826   7.959 -0.0323 -0.1349 -0.1922
   36POPC   D2A  859   5.099   4.885   7.587  0.0834  0.0153  0.2538
   36POPC   C3A  860   4.698   5.012   7.364  0.0695 -0.0359 -0.1917
   36POPC   C4A  861   4.445   4.753   7.352 -0.1775 -0.0056 -0.2893
   36POPC   C1B  862   5.823   4.852   7.749 -0.1767  0.2356  0.1861
   36POPC   C2B  863   5.631   5.063   7.448  0.1150  0.0439  0.1461
   36POPC   C3B  864   5.501   4.999   7.053  0.1076  0.1556  0.1454
   36POPC   C4B  865   5.183   5.021   6.893  0.2644  0.2635  0.4325
   37POPC   NC3  866   7.132   3.224   8.274  0.0272  0.0220  0.0154
   37POPC   PO4  867   7.416   3.574   8.162 -0.0554 -0.0165 -0.2549
   37POPC   GL1  868   7.053   3.728   7.863 -0.0523  0.3498  0.0824
   37POPC   GL2  869   7.290   3.829   7.734 -0.1245 -0.2039  0.0004
   37POPC   C1A  870   6.830   3.776   7.441 -0.0970  0.0602  0.3646
   37POPC   D2A  871   6.336   3.613   7.447  0.2275 -0.0771  0.0907
   37POPC   C3A  872   6.301   3.366   7.148 -0.0286 -0.0734 -0.0004
   37POPC   C4A  873   5.981   3.262   6.798  0.0312 -0.1643  0.0501
   37POPC   C1B  874   7.277   4.048   7.397  0.2903 -0.1327 -0.0038
   37POPC   C2B  875   7.012   4.195   7.111 -0.1001 -0.0162 -0.0661
   37POPC   C3B  876   6.952   4.306   6.651 -0.1430 -0.2354  0.0230
   37POPC   C4B  877   7.145   4.094   6.267  0.0536  0.2485  0.1512
   38POPC   NC3  878   8.687   4.961   8.845  0.3676  0.0133  0.0245
   38POPC   PO4  879   8.865   5.464   8.945 -0.0762 -0.0102  0.0856
   38POPC   GL1  880   9.101   5.232   8.487  0.1185 -0.1363 -0.2166
   38POPC   GL2  881   8.915   4.952   8.356  0.0710  0.1687 -0.1837
   38POPC   C1A  882   9.062   5.315   8.020  0.1373  0.1366  0.0814
   38POPC   D2A  883   9.039   5.348   7.586 -0.1758  0.2440 -0.0230
   38POPC   C3A  884   8.987   5.406   7.149 -0.2490  0.3989  0.1284
   38POPC   C4A  885   8.889   5.541   6.749 -0.0046 -0.0588 -0.1215
   38POPC   C1B  886   8.554   5.075   8.097 -0.0927 -0.0499  0.2694
   38POPC   C2B  887   8.547   5.165   7.695  0.3111  0.0746  0.0911
   38POPC   C3B  888   8.445   5.495   7.504  0.0764  0.2558  0.1009
   38POPC   C4B  889   8.499   5.539   7.146  0.0014  0.3376  0.4453
   39POPC   NC3  890   5.195   5.957   8.958  0.0841 -0.0863 -0.0160
   39POPC   PO4  891   4.900   5.915   8.679  0.0055  0.1152  0.0822
   39POPC   GL1  892   4.981   6.311   8.407 -0.0400  0.1715 -0.1271
   39POPC   GL2  893   5.169   6.647   8.360  0.0419  0.0680  0.1040
   39POPC   C1A  894   5.033   6.191   7.950 -0.1019  0.1858  0.1714
   39POPC   D2A  895   5.046   5.862   7.674  0.4232 -0.1219  0.0403
   39POPC   C3A  896   5.087   6.007   7.181  0.3462  0.1653  0.2034
   39POPC   C4A  897   5.037   5.889   6.775  0.2020 -0.3866 -0.1806
   39POPC   C1B  898   5.480   6.737   8.008  0.0355 -0.1338 -0.1198
   39POPC   C2B  899   5.682   6.516   7.622 -0.1945 -0.0068  0.2923
   39POPC   C3B  900   6.145   6.547   7.556  0.0045 -0.0043  0.2675
   39POPC   C4B  901   6.326   6.461   7.197 -0.2390 -0.0128 -0.0873
   40POPC   NC3  902   5.944   5.960   8.747  0.1069 -0.3079  0.0073
   40POPC   PO4  903   6.395   5.954   8.972  0.2300 -0.3395 -0.3931
   40POPC   GL1  904   6.422   5.975   8.495 -0.2656 -0.3445  0.0813
   40POPC   GL2  905   6.426   5.797   8.170  0.0947  0.0848 -0.0416
   40POPC   C1A  906   6.367   6.265   8.073 -0.0607 -0.1450 -0.7984
   40POPC   D2A  907   6.487   6.165   7.587 -0.0376  0.1459  0.1138
   40POPC   C3A  908   6.465   5.995   7.232  0.0127  0.0379 -0.1216
   40POPC   C4A  909   6.630   6.154   6.815  0.2233 -0.1858  0.0265
   40POPC   C1B  910   6.141   5.546   7.851 -0.0574 -0.5518 -0.0205
   40POPC   C2B  911   6.027   5.322   7.405 -0.2731 -0.0528  0.1769
   40POPC   C3B  912   6.113   5.479   6.981 -0.0895 -0.0405 -0.1746
   40POPC   C4B  913   5.816   5.611   6.697 -0.3048  0.0743 -0.0372
   41POPC   NC3  914   3.592   5.975   8.507  0.1675 -0.2782  0.1414
   41POPC   PO4  915   3.581   5.570   8.547  0.1653  0.1803  0.2639
   41POPC   GL1  916   3.613   5.660   8.102  0.0941 -0.1887  0.2502
   41POPC   GL2  917   3.377   5.862   7.990  0.1244 -0.1480  0.4771
   41POPC   C1A  918   3.724   5.656   7.672 -0.1875  0.4121  0.0546
   41POPC   D2A  919   3.735   5.663   7.226  0.0460  0.0419  0.2603
   41POPC   C3A  920   3.501   5.494   6.906  0.0308 -0.1225 -0.3852
   41POPC   C4A  921   3.091   5.703   6.797  0.0418  0.1427  0.2554
   41POPC   C1B  922   3.191   5.984   7.741  0.0956 -0.0894  0.1727
   41POPC   C2B  923   2.797   5.806   7.584 -0.2155  0.2455  0.0466
   41POPC   C3B  924   2.627   5.818   7.111 -0.1287  0.0479  0.3455
   41POPC   C4B  925   2.196   5.905   6.947  0.0018  0.0233  0.1579
   42POPC   NC3  926   6.664   5.424   8.843  0.3231 -0.0666 -0.2100
   42POPC   PO4  927   6.280   5.544   8.616 -0.1691  0.2973  0.3382
   42POPC   GL1  928   6.277   5.227   8.212  0.2964 -0.0512  0.1225
   42POPC   GL2  929   5.873   5.272   8.091 -0.1015  0.0192 -0.4138
   42POPC   C1A  930   6.357   5.106   7.748 -0.0794 -0.2379 -0.0609
   42POPC   D2A  931   6.486   5.004   7.283 -0.3546 -0.1788  0.1242
   42POPC   C3A  932   6.549   5.189   6.998 -0.1744 -0.0631 -0.2186
   42POPC   C4A  933   6.515   5.639   6.752  0.0190  0.0969 -0.2849
   42POPC   C1B  934   5.677   5.537   7.721  0.1000 -0.1655  0.4163
   42POPC   C2B  935   5.518   5.833   7.362 -0.0712  0.1221 -0.1236
   42POPC   C3B  936   5.531   5.982   6.911  0.2437 -0.1535 -0.1383
   42POPC   C4B  937   5.759   6.124   6.572  0.0925  0.2346  0.0471
   43POPC   NC3  938   5.264   0.230   8.520  0.0892 -0.2728  0.0738
   43POPC   PO4  939   4.929   0.189   8.262 -0.2518  0.1506 -0.2576
   43POPC   GL1  940   4.868   0.076   7.887  0.0966 -0.1169  0.1496
   43POPC   GL2  941   4.646   0.312   7.746  0.4043 -0.3336  0.3029
   43POPC   C1A  942   4.582  -0.156   7.526  0.2167  0.1336 -0.2043
   43POPC   D2A  943   4.475  -0.367   7.149 -0.1582 -0.3788 -0.1080
   43POPC   C3A  944   4.736  -0.638   7.050 -0.4584  0.1599  0.0851
   43POPC   C4A  945   4.701  -0.962   6.732  0.2179 -0.0238 -0.1103
   43POPC   C1B  946   4.823   0.333   7.304 -0.5912  0.1746  0.0774
   43POPC   C2B  947   5.117   0.294   7.034 -0.4717 -0.0314 -0.0398
   43POPC   C3B  948   5.047   0.315   6.593  0.1111 -0.1712  0.1944
   43POPC   C4B  949   5.266   0.234   6.315 -0.2149 -0.0293 -0.4492
   44POPC   NC3  950   3.998   0.256   8.174  0.2319 -0.4257  0.2359
   44POPC   PO4  951   3.533   0.342   8.328 -0.0122  0.2291  0.0385
   44POPC   GL1  952   3.235   0.175   8.011  0.0024  0.1385 -0.1730
   44POPC   GL2  953   3.133   0.524   7.878 -0.0778  0.2136  0.4243
   44POPC   C1A  954   3.148  -0.111   7.651  0.0913 -0.1812 -0.2535
   44POPC   D2A  955   2.990  -0.246   7.186  0.0476 -0.2089  0.1861
   44POPC   C3A  956   2.602  -0.268   6.970 -0.2359 -0.0725  0.0479
   44POPC   C4A  957   2.405   0.024   6.646  0.1518  0.2728 -0.2259
   44POPC   C1B  958   3.294   0.366   7.468  0.2177  0.1294 -0.2876
   44POPC   C2B  959   3.264   0.164   7.088 -0.3304 -0.0323  0.1883
   44POPC   C3B  960   3.548   0.086   6.885 -0.1486 -0.1220 -0.3601
   44POPC   C4B  961   3.583  -0.078   6.590 -0.1291  0.1590  0.2499
   45POPC   NC3  962   3.382   6.899   8.908  0.1763 -0.0471  0.0515
   45POPC   PO4  963   3.759   7.152   8.704 -0.0410 -0.0501 -0.0925
   45POPC   GL1  964   3.843   7.139   8.278  0.0411  0.0298 -0.1736
   45POPC   GL2  965   3.860   6.790   8.412 -0.0819  0.0073  0.0448
   45POPC   C1A  966   3.844   7.075   7.889 -0.3140 -0.0607  0.2527
   45POPC   D2A  967   3.676   7.194   7.487  0.2693  0.2899 -0.0437
   45POPC   C3A  968   3.974   7.445   7.242  0.1337  0.2719  0.0746
   45POPC   C4A  969   4.232   7.637   6.969 -0.1373 -0.2481  0.2000
   45POPC   C1B  970   3.740   6.605   8.040  0.0322 -0.0733  0.0811
   45POPC   C2B  971   3.700   6.675   7.662 -0.0968  0.0513  0.2546
   45POPC   C3B  972   4.068   6.865   7.423  0.1108 -0.0567 -0.0521
   45POPC   C4B  973   4.161   6.919   7.030  0.1482 -0.1546  0.3020
   46POPC   NC3  974   1.745   4.258   8.309 -0.1074  0.1799 -0.4641
   46POPC   PO4  975   2.150   4.295   8.400  0.3031  0.0137  0.0222
   46POPC   GL1  976   2.067   4.589   8.002 -0.4049  0.1471 -0.1393
   46POPC   GL2  977   1.997   4.940   8.059 -0.0745 -0.4239 -0.0279
   46POPC   C1A  978   2.171   4.735   7.621 -0.0266  0.4066 -0.1493
   46POPC   D2A  979   2.191   4.742   7.120 -0.3756 -0.1276  0.0799
   46POPC   C3A  980   1.831   4.663   6.808  0.0900  0.1078  0.1893
   46POPC   C4A  981   1.445   4.551   6.678 -0.1465 -0.1645  0.3562
   46POPC   C1B  982   1.674   4.805   7.758 -0.1420 -0.0304 -0.0113
   46POPC   C2B  983   1.645   4.559   7.347  0.0221 -0.3494 -0.1580
   46POPC   C3B  984   1.383   4.288   7.063 -0.4183 -0.2324 -0.1984
   46POPC   C4B  985   1.146   3.920   6.827 -0.2892  0.2159  0.1855
   47POPC   NC3  986   8.725   6.922   9.421  0.0198 -0.0545  0.2590
   47POPC   PO4  987   8.395   7.043   9.062 -0.0383 -0.0889  0.1220
   47POPC   GL1  988   8.226   6.817   8.664 -0.1569 -0.0185  0.1246
   47POPC   GL2  989   8.237   6.418   8.653  0.1136  0.2575 -0.0851
   47POPC   C1A  990   7.882   6.846   8.468  0.2153  0.2432  0.1451
   47POPC   D2A  991   7.937   6.679   7.965 -0.3124 -0.1927 -0.3352
   47POPC   C3A  992   7.689   6.743   7.583 -0.0488 -0.1833 -0.2613
   47POPC   C4A  993   7.297   6.532   7.467  0.0426  0.1065  0.2390
   47POPC   C1B  994   8.351   6.547   8.185 -0.2673  0.0349 -0.1818
   47POPC   C2B  995   8.436   6.604   7.800 -0.1051 -0.3424  0.0773
   47POPC   C3B  996   8.161   6.505   7.506  0.0420 -0.0830 -0.2506
   47POPC   C4B  997   8.183   6.502   7.144 -0.0082 -0.0011  0.2061
   48POPC   NC3  998   3.641   9.498   9.145  0.1451  0.0476 -0.1258
   48POPC   PO4  999   3.927   9.157   8.987  0.1832  0.0935 -0.0325
   48POPC   GL1 1000   3.571   9.330   8.617 -0.0690 -0.0531 -0.0262
   48POPC   GL2 1001   3.640   9.195   8.327  0.4243  0.1282 -0.1517
   48POPC   C1A 1002   3.152   9.276   8.417  0.0662  0.1651 -0.0815
   48POPC   D2A 1003   2.836   8.965   8.450 -0.0957  0.0081 -0.1185
   48POPC   C3A 1004   2.425   9.004   8.502 -0.0842 -0.1785 -0.1916
   48POPC   C4A 1005   2.239   9.404   8.592  0.1698  0.1489  0.2976
   48POPC   C1B 1006   3.305   9.132   7.965 -0.1931 -0.2867 -0.0498
   48POPC   C2B 1007   3.299   9.325   7.507 -0.2273 -0.1451 -0.3324
   48POPC   C3B 1008   3.462   9.588   7.087 -0.0154 -0.0011 -0.1572
   48POPC   C4B 1009   3.272   9.504   6.791 -0.4326 -0.1319  0.0915
   49POPC   NC3 1010   0.411   3.658   8.165 -0.1230 -0.1612  0.3326
   49POPC   PO4 1011   0.147   3.397   8.449 -0.0313 -0.1914 -0.1274
   49POPC   GL1 1012  -0.114   3.435   8.156  0.0170  0.2951  0.0498
   49POPC   GL2 1013  -0.068   3.717   8.020 -0.1759  0.2600 -0.0282
   49POPC   C1A 1014  -0.365   3.274   7.808  0.1378  0.0510 -0.0152
   49POPC   D2A 1015  -0.459   3.314   7.311  0.0875  0.0320  0.0523
   49POPC   C3A 1016  -0.073   3.170   7.120 -0.0531  0.1559  0.1375
   49POPC   C4A 1017   0.248   3.256   6.763 -0.3493 -0.0980 -0.0862
   49POPC   C1B 1018   0.029   3.987   7.686  0.0893  0.3326  0.3340
   49POPC   C2B 1019  -0.008   4.198   7.266  0.0594  0.1896  0.0411
   49POPC   C3B 1020   0.049   4.485   6.894  0.1596 -0.0263 -0.1588
   49POPC   C4B 1021   0.063   4.871   6.757 -0.0167 -0.0373  0.1491
   50POPC   NC3 1022   2.918   5.026   8.317  0.1610  0.1441 -0.0436
   50POPC   PO4 1023   3.231   4.774   8.417  0.0366  0.2499  0.1360
   50POPC   GL1 1024   3.003   4.552   8.072  0.3430  0.3758 -0.1028
   50POPC   GL2 1025   3.088   4.168   8.128  0.2391 -0.0824 -0.1220
   50POPC   C1A 1026   3.133   4.470   7.654 -0.0197 -0.2032  0.1145
   50POPC   D2A 1027   3.273   4.497   7.194 -0.1303  0.4294 -0.1300
   50POPC   C3A 1028   2.979   4.229   6.945 -0.0429 -0.2848  0.2329
   50POPC   C4A 1029   3.197   4.042   6.565 -0.1508  0.1346  0.3034
   50POPC   C1B 1030   2.994   3.925   7.691 -0.0029  0.2825 -0.0749
   50POPC   C2B 1031   3.087   3.974   7.332 -0.2027  0.2680 -0.0067
   50POPC   C3B 1032   3.483   4.090   7.052  0.3145  0.4210  0.1001
   50POPC   C4B 1033   3.535   4.385   6.759 -0.1250  0.2019  0.1584
   51POPC   NC3 1034   6.489   2.885   8.058 -0.2113 -0.0966 -0.3500
   51POPC   PO4 1035   6.140   3.209   8.212 -0.1384 -0.0434  0.1112
   51POPC   GL1 1036   5.895   3.078   7.844 -0.0918  0.0393  0.1672
   51POPC   GL2 1037   5.593   3.226   7.755  0.1728  0.0487 -0.1788
   51POPC   C1A 1038   5.911   3.038   7.222  0.4561 -0.1835  0.1994
   51POPC   D2A 1039   6.183   2.852   7.046 -0.0371  0.1275 -0.2141
   51POPC   C3A 1040   6.580   2.868   6.965 -0.0515  0.0248  0.3508
   51POPC   C4A 1041   6.865   2.514   6.885  0.1030 -0.0888 -0.1355
   51POPC   C1B 1042   5.424   2.907   7.352 -0.1581 -0.2535  0.0231
   51POPC   C2B 1043   5.538   2.764   7.064  0.2134 -0.1354  0.3171
   51POPC   C3B 1044   5.734   2.790   6.660  0.3150 -0.1888  0.3257
   51POPC   C4B 1045   5.899   2.574   6.282  0.0137  0.1337  0.1215
   52POPC   NC3 1046   6.592   0.385   8.689 -0.2288  0.2404 -0.0026
   52POPC   PO4 1047   6.855   0.443   8.208 -0.0958 -0.3201 -0.1085
   52POPC   GL1 1048   6.742   0.562   7.807  0.1746 -0.3666  0.0126
   52POPC   GL2 1049   6.467   0.618   7.591  0.1064  0.2951 -0.0486
   52POPC   C1A 1050   6.962   0.462   7.447  0.3650 -0.0203 -0.2512
   52POPC   D2A 1051   6.798   0.528   6.993 -0.1843 -0.1285  0.1559
   52POPC   C3A 1052   6.834   0.501   6.546 -0.2826  0.3761  0.1527
   52POPC   C4A 1053   6.636   0.542   6.138 -0.0204 -0.2713  0.3841
   52POPC   C1B 1054   6.267   0.567   7.146 -0.1106  0.2636  0.1456
   52POPC   C2B 1055   6.034   0.833   6.993  0.0824 -0.1332  0.2680
   52POPC   C3B 1056   5.788   1.105   7.119 -0.3340  0.2747 -0.0224
   52POPC   C4B 1057   5.770   1.459   7.311 -0.1714 -0.0210  0.0687
   53POPC   NC3 1058   8.407   1.609   7.975  0.2555  0.0210 -0.2860
   53POPC   PO4 1059   8.264   1.195   8.159  0.0599 -0.2118  0.0249
   53POPC   GL1 1060   8.321   1.152   7.747  0.1233 -0.0670 -0.1021
   53POPC   GL2 1061   8.631   1.342   7.585  0.0342  0.1000  0.0701
   53POPC   C1A 1062   8.147   1.202   7.312 -0.1923  0.1826  0.0962
   53POPC   D2A 1063   8.137   1.150   6.868 -0.1332  0.0494  0.1870
   53POPC   C3A 1064   8.518   1.060   6.636 -0.1701 -0.2448  0.0513
   53POPC   C4A 1065   8.897   1.238   6.699  0.2700 -0.1469 -0.0421
   53POPC   C1B 1066   8.696   1.099   7.147  0.0636 -0.0675  0.1973
   53POPC   C2B 1067   8.827   0.713   6.872  0.2438  0.2581  0.2443
   53POPC   C3B 1068   8.625   0.315   6.756  0.0648 -0.0142 -0.0773
   53POPC   C4B 1069   8.611   0.171   6.310  0.1557 -0.0765  0.1319
   54POPC   NC3 1070   4.185   9.199   8.437 -0.0613  0.3404 -0.0449
   54POPC   PO4 1071   4.047   9.623   8.291  0.3925  0.0354  0.2515
   54POPC   GL1 1072   4.047   9.749   7.892  0.3381  0.0460 -0.0098
   54POPC   GL2 1073   4.208  10.078   7.715 -0.0354  0.3825  0.1071
   54POPC   C1A 1074   4.029   9.836   7.325  0.1724 -0.0204 -0.0757
   54POPC   D2A 1075   4.000   9.665   6.942  0.0654  0.2722  0.1032
   54POPC   C3A 1076   4.295   9.339   6.751  0.0636  0.1255 -0.0475
   54POPC   C4A 1077   4.412   9.404   6.436  0.0770 -0.0904  0.1995
   54POPC   C1B 1078   4.334  10.199   7.332 -0.0708 -0.0792 -0.3709
   54POPC   C2B 1079   4.438  10.085   6.903 -0.1188 -0.0339  0.2257
   54POPC   C3B 1080   4.210   9.880   6.593  0.1406 -0.0156 -0.0145
   54POPC   C4B 1081   3.905   9.606   6.354 -0.2159 -0.0631  0.1535
   55POPC   NC3 1082   5.191   9.164   8.856 -0.0772  0.3051  0.2373
   55POPC   PO4 1083   5.502   8.864   8.694  0.1538 -0.2220 -0.2059
   55POPC   GL1 1084   5.613   8.746   8.261 -0.2808 -0.1226  0.0959
   55POPC   GL2 1085   5.379   8.910   7.943 -0.2969 -0.0626 -0.0077
   55POPC   C1A 1086   5.733   8.476   7.831 -0.1254  0.0809 -0.2506
   55POPC   D2A 1087   5.828   8.521   7.399 -0.0779 -0.2308 -0.0595
   55POPC   C3A 1088   5.671   8.129   7.113  0.1819  0.1031 -0.2110
   55POPC   C4A 1089   5.386   8.038   6.887  0.1154  0.2585  0.2751
   55POPC   C1B 1090   5.456   8.844   7.450 -0.0800  0.0155  0.3378
   55POPC   C2B 1091   5.574   9.124   7.101  0.0288  0.2120  0.0198
   55POPC   C3B 1092   5.319   9.455   7.075  0.0312 -0.0824  0.1491
   55POPC   C4B 1093   5.106   9.717   7.374 -0.1469  0.1937 -0.2027
   56POPC   NC3 1094   6.302   7.249   8.642  0.3317  0.1052 -0.1142
   56POPC   PO4 1095   6.426   7.714   8.768 -0.1958  0.0127  0.0105
   56POPC   GL1 1096   6.575   7.522   8.383 -0.6107 -0.4134  0.0856
   56POPC   GL2 1097   6.922   7.512   8.325 -0.2232 -0.5320 -0.0397
   56POPC   C1A 1098   6.513   7.482   7.909 -0.2135  0.1034 -0.1319
   56POPC   D2A 1099   6.323   7.103   7.670 -0.4499 -0.0541  0.0022
   56POPC   C3A 1100   6.232   6.947   7.283 -0.0517 -0.1447 -0.2332
   56POPC   C4A 1101   5.900   6.848   7.214 -0.0431 -0.1069  0.0746
   56POPC   C1B 1102   7.186   7.536   8.006  0.1826 -0.2598  0.0662
   56POPC   C2B 1103   7.197   7.514   7.574  0.1567  0.1392  0.2132
   56POPC   C3B 1104   7.048   7.518   7.080  0.2240 -0.3067  0.0344
   56POPC   C4B 1105   7.318   7.767   6.812  0.0995 -0.4528 -0.1402
   57POPC   NC3 1106   2.962   3.321   8.530  0.0210  0.0831  0.0952
   57POPC   PO4 1107   2.957   3.799   8.463 -0.0898 -0.4151 -0.4015
   57POPC   GL1 1108   3.060   3.670   8.092 -0.2561 -0.2368  0.3171
   57POPC   GL2 1109   2.944   3.286   8.047  0.2819  0.2311  0.1339
   57POPC   C1A 1110   3.431   3.698   7.828  0.2279 -0.1399 -0.2483
   57POPC   D2A 1111   3.571   3.729   7.341  0.1417 -0.1932 -0.0909
   57POPC   C3A 1112   3.211   3.650   6.902 -0.0454  0.1016 -0.0086
   57POPC   C4A 1113   2.919   3.501   6.732 -0.0533 -0.0876 -0.0027
   57POPC   C1B 1114   2.862   3.049   7.603  0.1119  0.1834 -0.2447
   57POPC   C2B 1115   2.646   2.965   7.286 -0.1649 -0.0320 -0.2512
   57POPC   C3B 1116   2.486   2.921   6.853 -0.2093 -0.0112 -0.0260
   57POPC   C4B 1117   2.573   2.866   6.391 -0.1608 -0.1646 -0.1750
   58POPC   NC3 1118   9.373   1.871   8.393  0.2429  0.0099 -0.1628
   58POPC   PO4 1119   9.732   1.912   8.155 -0.0774  0.2434 -0.1633
   58POPC   GL1 1120   9.657   1.864   7.713 -0.2349 -0.1081 -0.2990
   58POPC   GL2 1121  10.029   1.722   7.561 -0.1253  0.1256  0.1861
   58POPC   C1A 1122   9.398   1.714   7.378 -0.2213 -0.1455 -0.0739
   58POPC   D2A 1123   9.352   1.964   7.092 -0.1938 -0.0376 -0.0935
   58POPC   C3A 1124   9.294   2.411   7.053 -0.2780  0.2241 -0.2126
   58POPC   C4A 1125   9.638   2.659   7.126  0.1354  0.0568 -0.0194
   58POPC   C1B 1126   9.872   1.651   7.159  0.0609  0.1796  0.1651
   58POPC   C2B 1127   9.629   1.579   6.844 -0.1880  0.0024 -0.0855
   58POPC   C3B 1128   9.557   1.300   6.584  0.0227  0.0784 -0.0307
   58POPC   C4B 1129   9.583   1.193   6.144 -0.1569 -0.1455 -0.2049
   59POPC   NC3 1130   5.481   3.812   8.582  0.2190 -0.0144 -0.0661
   59POPC   PO4 1131   5.030   3.915   8.573  0.2679  0.2277 -0.1472
   59POPC   GL1 1132   5.262   4.010   8.092 -0.0492  0.0989 -0.3209
   59POPC   GL2 1133   5.562   4.143   8.207  0.4650  0.2159  0.0091
   59POPC   C1A 1134   5.244   4.391   7.754  0.2096  0.0053  0.1770
   59POPC   D2A 1135   5.224   4.581   7.253 -0.1234  0.3754  0.2297
   59POPC   C3A 1136   4.873   4.616   6.987 -0.2641 -0.1816 -0.0052
   59POPC   C4A 1137   4.747   4.740   6.617  0.0768 -0.1386  0.0901
   59POPC   C1B 1138   5.725   4.306   7.949  0.1188 -0.0266 -0.0430
   59POPC   C2B 1139   5.684   4.426   7.473  0.0812 -0.2134 -0.0039
   59POPC   C3B 1140   5.705   4.475   7.125 -0.0057 -0.0467  0.2925
   59POPC   C4B 1141   5.842   4.734   6.755  0.1166 -0.0996  0.3259
   60POPC   NC3 1142   0.506   2.084   8.157  0.1307  0.0738  0.2381
   60POPC   PO4 1143   0.274   2.543   8.203  0.0479 -0.2066  0.0382
   60POPC   GL1 1144   0.498   2.448   7.811 -0.1746 -0.1183 -0.5979
   60POPC   GL2 1145   0.484   2.835   7.658 -0.4519  0.1746  0.2599
   60POPC   C1A 1146   0.719   2.484   7.317  0.1163  0.2626 -0.0751
   60POPC   D2A 1147   0.567   2.290   6.935  0.0574 -0.3500 -0.0702
   60POPC   C3A 1148   0.798   2.266   6.556  0.0760 -0.0824  0.1247
   60POPC   C4A 1149   0.763   2.281   6.052 -0.0166 -0.3480 -0.2050
   60POPC   C1B 1150   0.224   2.494   7.384  0.1316  0.0900 -0.0208
   60POPC   C2B 1151   0.096   2.538   6.910 -0.4492 -0.2356  0.1363
   60POPC   C3B 1152  -0.084   2.889   6.698  0.1187  0.1771  0.1002
   60POPC   C4B 1153  -0.271   3.175   6.410  0.0373  0.2268  0.2239
   61POPC   NC3 1154   9.720   4.631   9.096 -0.0782  0.4003  0.2113
   61POPC   PO4 1155  10.195   4.641   8.957  0.0534  0.2000 -0.1476
   61POPC   GL1 1156  10.073   4.737   8.556  0.0389  0.0151  0.4568
   61POPC   GL2 1157   9.909   4.558   8.276 -0.2897 -0.0291 -0.4790
   61POPC   C1A 1158  10.120   5.033   8.221  0.1495  0.0533 -0.2084
   61POPC   D2A 1159  10.025   5.476   8.217 -0.3302 -0.1652  0.0311
   61POPC   C3A 1160  10.291   5.807   8.472  0.2284  0.1559  0.1072
   61POPC   C4A 1161  10.591   6.129   8.430  0.0861 -0.0422  0.1203
   61POPC   C1B 1162   9.677   4.843   7.915 -0.2619 -0.1279 -0.4343
   61POPC   C2B 1163   9.512   5.105   7.565  0.0816 -0.0443  0.3668
   61POPC   C3B 1164   9.491   5.383   7.252  0.1197 -0.0598 -0.0845
   61POPC   C4B 1165   9.511   5.788   7.082 -0.0071 -0.1015 -0.1067
   62POPC   NC3 1166   8.798   3.391   8.086 -0.2502  0.1683 -0.1238
   62POPC   PO4 1167   9.030   3.726   8.410 -0.2276 -0.0600 -0.1657
   62POPC   GL1 1168   9.310   3.887   8.102  0.2596  0.2431 -0.3591
   62POPC   GL2 1169   9.615   4.116   8.027  0.2571  0.1847  0.1673
   62POPC   C1A 1170   9.344   3.781   7.729 -0.0485  0.0019 -0.0782
   62POPC   D2A 1171   9.566   3.881   7.365 -0.0466 -0.2651 -0.0909
   62POPC   C3A 1172   9.459   3.666   6.978  0.2056 -0.1318 -0.1270
   62POPC   C4A 1173   9.621   3.590   6.640  0.2791 -0.1842 -0.0869
   62POPC   C1B 1174   9.517   4.370   7.690  0.3718 -0.0377  0.3815
   62POPC   C2B 1175   9.510   4.444   7.227  0.0718 -0.0912  0.1246
   62POPC   C3B 1176   9.555   4.663   6.863 -0.0436 -0.1717 -0.4753
   62POPC   C4B 1177   9.584   4.842   6.534  0.2606 -0.2767  0.1054
   63POPC   NC3 1178   1.296   9.091   9.549  0.1188  0.3596 -0.2091
   63POPC   PO4 1179   0.784   9.054   9.635  0.1196  0.4456  0.2339
   63POPC   GL1 1180   0.829   8.714   9.359 -0.2549 -0.3403 -0.0694
   63POPC   GL2 1181   1.037   8.998   9.156  0.0322 -0.0960  0.1629
   63POPC   C1A 1182   0.955   8.470   9.005  0.0562 -0.0448  0.0498
   63POPC   D2A 1183   0.996   8.564   8.621 -0.2114 -0.0531 -0.0159
   63POPC   C3A 1184   0.673   8.715   8.369  0.1610 -0.2481 -0.0247
   63POPC   C4A 1185   0.219   8.657   8.457 -0.1390  0.0867 -0.2166
   63POPC   C1B 1186   0.905   9.088   8.679 -0.1619  0.0256 -0.1903
   63POPC   C2B 1187   0.773   9.273   8.247 -0.3660  0.2283 -0.2700
   63POPC   C3B 1188   0.819   9.252   7.807 -0.1921 -0.1832  0.1353
   63POPC   C4B 1189   0.674   9.264   7.436 -0.0599 -0.0484 -0.0767
   64POPC   NC3 1190   0.221   1.198   8.511 -0.1598  0.0612 -0.0618
   64POPC   PO4 1191   0.585   1.018   8.606  0.0551 -0.1812  0.1116
   64POPC   GL1 1192   0.847   0.652   8.370  0.2318  0.0646  0.1811
   64POPC   GL2 1193   0.810   0.348   8.256  0.0480 -0.3015 -0.0384
   64POPC   C1A 1194   1.220   0.437   8.041  0.3673 -0.1334 -0.0064
   64POPC   D2A 1195   1.347   0.148   7.702  0.4061  0.0386  0.1476
   64POPC   C3A 1196   1.151  -0.288   7.525 -0.1250 -0.1594 -0.1088
   64POPC   C4A 1197   1.110  -0.526   7.108  0.1061  0.0555  0.0292
   64POPC   C1B 1198   0.763   0.500   7.790 -0.3157 -0.1452 -0.7489
   64POPC   C2B 1199   0.501   0.669   7.532 -0.1892 -0.2525  0.0447
   64POPC   C3B 1200   0.296   0.740   7.139 -0.0595  0.0545 -0.0800
   64POPC   C4B 1201   0.126   0.624   6.746  0.1417 -0.0475  0.2613
   65POPC   NC3 1202   3.668   4.448   8.419 -0.0137 -0.3164 -0.0134
   65POPC   PO4 1203   3.636   4.710   8.004  0.1745 -0.0777  0.0479
   65POPC   GL1 1204   3.349   4.947   7.684 -0.0387 -0.1656  0.1063
   65POPC   GL2 1205   3.439   5.318   7.647  0.0282 -0.1003 -0.1167
   65POPC   C1A 1206   3.135   5.073   7.279  0.0911  0.0962  0.0694
   65POPC   D2A 1207   3.303   4.950   6.900  0.6800  0.3696 -0.0575
   65POPC   C3A 1208   2.936   4.786   6.733 -0.0347  0.0011 -0.2556
   65POPC   C4A 1209   2.571   4.549   6.840 -0.2252 -0.3792 -0.1758
   65POPC   C1B 1210   3.201   5.624   7.369  0.0888  0.0602  0.1790
   65POPC   C2B 1211   3.124   5.981   7.208  0.0781 -0.4044  0.0379
   65POPC   C3B 1212   3.001   6.163   6.818 -0.0976 -0.0922  0.2954
   65POPC   C4B 1213   2.863   6.597   6.548 -0.0716 -0.0706  0.1629
   66POPC   NC3 1214   1.472   5.198   8.914 -0.0614  0.0614  0.1320
   66POPC   PO4 1215   1.777   5.453   9.011  0.0271 -0.1610 -0.0033
   66POPC   GL1 1216   1.533   5.737   8.834 -0.0906  0.3517 -0.0961
   66POPC   GL2 1217   1.266   5.589   8.718 -0.0151  0.0474  0.0340
   66POPC   C1A 1218   1.408   6.081   8.602  0.0818 -0.1290  0.0134
   66POPC   D2A 1219   1.406   6.079   8.065 -0.0639 -0.1492  0.5175
   66POPC   C3A 1220   1.317   6.406   7.832 -0.0153 -0.1029  0.0427
   66POPC   C4A 1221   1.332   6.697   8.130 -0.2321  0.1885  0.0132
   66POPC   C1B 1222   1.066   5.835   8.393  0.1718  0.0547 -0.2132
   66POPC   C2B 1223   0.941   6.077   7.994  0.1084  0.1900 -0.0019
   66POPC   C3B 1224   1.038   6.000   7.632 -0.0438 -0.0782  0.2105
   66POPC   C4B 1225   0.786   5.738   7.340  0.0248  0.4178  0.3824
   67POPC   NC3 1226   9.108   7.766   9.855  0.6189 -0.2619  0.0197
   67POPC   PO4 1227   8.868   7.414   9.603  0.2041  0.1633 -0.0548
   67POPC   GL1 1228   9.162   7.500   9.224 -0.2797 -0.0340  0.2005
   67POPC   GL2 1229   9.036   7.306   8.957 -0.1639  0.2404 -0.3197
   67POPC   C1A 1230   9.528   7.514   8.883  0.1396 -0.1166  0.0001
   67POPC   D2A 1231   9.561   7.204   8.504 -0.0123 -0.0318 -0.2810
   67POPC   C3A 1232   9.300   6.803   8.670  0.1927 -0.1909  0.0548
   67POPC   C4A 1233   9.130   6.478   8.904 -0.2558  0.0249  0.3067
   67POPC   C1B 1234   8.998   7.129   8.487  0.1307  0.1450 -0.0994
   67POPC   C2B 1235   8.971   7.326   8.123  0.3381  0.1235  0.0083
   67POPC   C3B 1236   9.013   7.464   7.666  0.1990 -0.0935  0.0608
   67POPC   C4B 1237   8.753   7.400   7.273  0.1182 -0.3237 -0.0641
   68POPC   NC3 1238   8.142   3.902   8.693  0.2428  0.0708  0.2561
   68POPC   PO4 1239   8.132   4.051   8.262  0.0633 -0.1381  0.0780
   68POPC   GL1 1240   8.462   4.122   7.955 -0.0488  0.2805 -0.0884
   68POPC   GL2 1241   8.753   3.937   7.996  0.2980  0.0781  0.0456
   68POPC   C1A 1242   8.479   4.309   7.550  0.0269  0.2341  0.1613
   68POPC   D2A 1243   8.510   4.141   7.125 -0.1347 -0.3671 -0.2544
   68POPC   C3A 1244   8.328   4.153   6.803 -0.2089 -0.1114 -0.0123
   68POPC   C4A 1245   7.973   3.969   6.537  0.1457 -0.0631 -0.0452
   68POPC   C1B 1246   8.790   3.892   7.582  0.2236 -0.0370  0.2393
   68POPC   C2B 1247   8.977   3.858   7.061  0.2702 -0.2066 -0.1184
   68POPC   C3B 1248   8.636   3.598   6.816 -0.3643  0.0933 -0.1115
   68POPC   C4B 1249   8.472   3.800   6.504 -0.0159 -0.2872 -0.0582
   69POPC   NC3 1250   6.160   9.871   8.117  0.2466  0.3841 -0.3990
   69POPC   PO4 1251   6.129  10.200   7.751 -0.1734 -0.0993  0.0714
   69POPC   GL1 1252   6.121  10.085   7.364 -0.0305  0.0247 -0.0241
   69POPC   GL2 1253   6.532  10.148   7.366 -0.0973  0.2901  0.1337
   69POPC   C1A 1254   5.807  10.241   7.041 -0.1554 -0.1052 -0.1647
   69POPC   D2A 1255   5.543  10.241   6.775  0.2122 -0.1477  0.0369
   69POPC   C3A 1256   5.383   9.837   6.761  0.3141 -0.1489 -0.1118
   69POPC   C4A 1257   5.120   9.441   6.628 -0.1942  0.1004  0.2571
   69POPC   C1B 1258   6.862   9.948   7.137  0.0843 -0.2977 -0.3176
   69POPC   C2B 1259   7.154   9.631   6.891 -0.0902  0.2882  0.0666
   69POPC   C3B 1260   7.529   9.520   7.053  0.1090 -0.0036 -0.3861
   69POPC   C4B 1261   7.871   9.505   7.271  0.1905  0.0046 -0.0156
   70POPC   NC3 1262   8.555   2.089   8.024  0.0526  0.0313 -0.0739
   70POPC   PO4 1263   8.855   1.906   7.948  0.2067  0.0431 -0.1421
   70POPC   GL1 1264   8.913   1.835   7.459 -0.4226  0.1691 -0.0140
   70POPC   GL2 1265   9.117   2.177   7.531 -0.2313 -0.0678 -0.0994
   70POPC   C1A 1266   9.022   1.550   7.074 -0.0506 -0.1920 -0.1374
   70POPC   D2A 1267   9.129   1.726   6.678  0.1638  0.1234  0.1504
   70POPC   C3A 1268   8.704   1.810   6.558  0.0951 -0.0761  0.2059
   70POPC   C4A 1269   8.388   1.988   6.186 -0.2149 -0.1515  0.1323
   70POPC   C1B 1270   8.967   2.568   7.416 -0.0098  0.1169  0.0211
   70POPC   C2B 1271   8.733   2.868   7.430  0.1453 -0.1814  0.3230
   70POPC   C3B 1272   8.574   3.202   7.166  0.2102  0.2661  0.2575
   70POPC   C4B 1273   8.302   3.150   6.863  0.1188  0.0910  0.1796
   71POPC   NC3 1274   4.380   5.670   8.736 -0.4287  0.1258 -0.2067
   71POPC   PO4 1275   4.440   6.069   8.563  0.0499 -0.0327  0.1571
   71POPC   GL1 1276   4.530   5.705   8.298 -0.1144  0.2433 -0.1201
   71POPC   GL2 1277   4.711   5.741   8.045 -0.0622 -0.1090  0.3420
   71POPC   C1A 1278   4.600   5.287   8.189  0.1094 -0.0648 -0.3451
   71POPC   D2A 1279   4.906   4.940   8.149 -0.2364 -0.1570 -0.0501
   71POPC   C3A 1280   4.691   4.588   7.848  0.2997 -0.0146 -0.0509
   71POPC   C4A 1281   4.259   4.351   7.635  0.0306  0.2036  0.2243
   71POPC   C1B 1282   4.623   5.593   7.681 -0.1144 -0.2608  0.2371
   71POPC   C2B 1283   4.838   5.595   7.329  0.1534  0.4550  0.2870
   71POPC   C3B 1284   4.789   5.304   6.966  0.0478  0.0455  0.2623
   71POPC   C4B 1285   4.434   5.133   6.721  0.1775 -0.0869 -0.0449
   72POPC   NC3 1286   7.718   3.099   8.787  0.2555 -0.2237 -0.2287
   72POPC   PO4 1287   7.773   3.175   8.342 -0.1445 -0.0878  0.1129
   72POPC   GL1 1288   7.725   3.241   7.862  0.0498 -0.1604  0.0921
   72POPC   GL2 1289   7.349   3.205   7.806  0.0151 -0.1016  0.0553
   72POPC   C1A 1290   7.702   3.636   7.576 -0.1083  0.1893 -0.0878
   72POPC   D2A 1291   7.690   3.765   7.202  0.0176  0.0753  0.0575
   72POPC   C3A 1292   7.622   3.591   6.851  0.1916 -0.0049 -0.0346
   72POPC   C4A 1293   7.403   3.684   6.498  0.0215  0.0860 -0.1118
   72POPC   C1B 1294   7.377   3.288   7.371 -0.3189  0.2167 -0.1783
   72POPC   C2B 1295   7.212   3.614   7.152 -0.1300 -0.1605 -0.0909
   72POPC   C3B 1296   6.895   3.785   6.833  0.0889 -0.1724  0.1310
   72POPC   C4B 1297   6.557   4.027   6.532  0.0201 -0.0461 -0.3248
   73POPC   NC3 1298   6.195   1.914   7.967  0.1900  0.0555  0.3033
   73POPC   PO4 1299   5.805   2.280   8.269  0.2700 -0.0998  0.0262
   73POPC   GL1 1300   5.880   2.280   7.780  0.0196 -0.1442 -0.1312
   73POPC   GL2 1301   5.920   2.621   7.570  0.1417  0.4852 -0.2815
   73POPC   C1A 1302   5.928   1.989   7.358  0.4258  0.3298 -0.0992
   73POPC   D2A 1303   6.256   1.927   6.980  0.0336 -0.3189 -0.5441
   73POPC   C3A 1304   6.474   1.805   6.646  0.1025 -0.1595 -0.1647
   73POPC   C4A 1305   6.817   1.653   6.421  0.3216 -0.0945  0.2804
   73POPC   C1B 1306   5.917   2.498   7.241 -0.0766  0.1785  0.0080
   73POPC   C2B 1307   5.701   2.367   6.930 -0.4330  0.0946  0.0478
   73POPC   C3B 1308   5.515   2.354   6.526  0.0397 -0.4209  0.2264
   73POPC   C4B 1309   5.436   2.178   6.247  0.3339  0.0120  0.1458
   74POPC   NC3 1310   0.923   4.463   8.570 -0.0545  0.0681 -0.4617
   74POPC   PO4 1311   1.130   4.189   8.378 -0.2894  0.0092  0.0083
   74POPC   GL1 1312   1.131   4.205   7.893  0.1759  0.1893 -0.2194
   74POPC   GL2 1313   1.490   4.293   7.772  0.2292  0.0140  0.3406
   74POPC   C1A 1314   0.850   4.060   7.577 -0.0399 -0.0502  0.1084
   74POPC   D2A 1315   0.618   3.973   7.145  0.0384  0.4501  0.1958
   74POPC   C3A 1316   0.444   4.186   6.819  0.2028  0.2199  0.0915
   74POPC   C4A 1317   0.278   4.117   6.520 -0.2317 -0.1456 -0.2013
   74POPC   C1B 1318   1.217   4.540   7.560 -0.0282 -0.0581 -0.0208
   74POPC   C2B 1319   0.923   4.468   7.200  0.2587  0.3391 -0.2010
   74POPC   C3B 1320   0.939   4.349   6.705 -0.0011 -0.1292  0.2027
   74POPC   C4B 1321   1.105   4.122   6.369 -0.2211  0.2733  0.0170
   75POPC   NC3 1322   0.756   2.884   8.308  0.0157 -0.1315 -0.2136
   75POPC   PO4 1323   0.423   3.078   8.123 -0.1182 -0.4149 -0.1644
   75POPC   GL1 1324   0.421   3.357   7.705 -0.2032 -0.3215  0.0642
   75POPC   GL2 1325   0.481   3.641   7.640 -0.0948  0.0881  0.1503
   75POPC   C1A 1326   0.403   3.288   7.260 -0.0034 -0.1005 -0.1257
   75POPC   D2A 1327   0.787   3.293   6.924  0.2290 -0.0308  0.3066
   75POPC   C3A 1328   0.736   3.135   6.494  0.3389  0.3716 -0.0355
   75POPC   C4A 1329   1.009   3.146   6.119 -0.1181 -0.1890  0.0328
   75POPC   C1B 1330   0.872   3.515   7.352 -0.1320  0.0439  0.2135
   75POPC   C2B 1331   1.261   3.596   7.270 -0.3639 -0.2479  0.0380
   75POPC   C3B 1332   1.677   3.642   7.029  0.0733 -0.2064 -0.2694
   75POPC   C4B 1333   2.088   3.768   7.080  0.1051  0.1804  0.1336
   76POPC   NC3 1334   1.055   0.770   8.824  0.0792  0.1868 -0.1176
   76POPC   PO4 1335   1.430   1.014   8.849 -0.0702 -0.1805  0.1476
   76POPC   GL1 1336   1.408   0.737   8.467  0.2066 -0.1094 -0.0369
   76POPC   GL2 1337   1.654   0.448   8.280  0.3698 -0.0632  0.1021
   76POPC   C1A 1338   1.482   0.965   8.077  0.1544  0.2707 -0.1095
   76POPC   D2A 1339   1.421   0.894   7.708  0.1777 -0.0169 -0.1923
   76POPC   C3A 1340   1.448   1.227   7.389 -0.0157  0.0619 -0.4318
   76POPC   C4A 1341   1.021   1.514   7.326 -0.0036 -0.0074  0.1214
   76POPC   C1B 1342   1.820   0.562   7.829  0.2157  0.2103  0.1433
   76POPC   C2B 1343   2.054   0.566   7.493 -0.3435 -0.1333 -0.2511
   76POPC   C3B 1344   2.338   0.564   7.260 -0.1321  0.1750  0.0382
   76POPC   C4B 1345   2.732   0.715   7.185  0.4002 -0.2844 -0.0456
   77POPC   NC3 1346   2.657   6.155   8.950 -0.1982 -0.2175  0.0279
   77POPC   PO4 1347   2.571   5.835   8.724  0.0081  0.0041  0.0567
   77POPC   GL1 1348   2.427   5.799   8.290  0.3721  0.0466  0.3539
   77POPC   GL2 1349   2.174   5.438   8.270 -0.1758  0.2159 -0.4110
   77POPC   C1A 1350   2.296   5.822   7.885  0.0010  0.0377  0.2044
   77POPC   D2A 1351   2.266   5.710   7.470 -0.1745  0.2479 -0.1007
   77POPC   C3A 1352   2.264   5.418   7.097 -0.0289  0.1127 -0.2015
   77POPC   C4A 1353   2.139   5.457   6.641 -0.1941  0.0645  0.2655
   77POPC   C1B 1354   1.888   5.482   7.996  0.2066  0.0964  0.1010
   77POPC   C2B 1355   1.808   5.810   7.702  0.1098 -0.0862  0.2571
   77POPC   C3B 1356   1.547   6.103   7.447  0.0850 -0.1789 -0.4151
   77POPC   C4B 1357   1.665   6.449   7.328  0.0985 -0.0273 -0.3946
   78POPC   NC3 1358   5.245   4.395   8.569  0.0272 -0.0220  0.2082
   78POPC   PO4 1359   4.899   4.809   8.602 -0.1569  0.1631 -0.1197
   78POPC   GL1 1360   4.516   4.689   8.289  0.3424  0.1287 -0.1847
   78POPC   GL2 1361   4.374   4.379   8.368  0.2449 -0.0885  0.2913
   78POPC   C1A 1362   4.252   4.879   7.935  0.0561 -0.3408 -0.0801
   78POPC   D2A 1363   3.948   4.698   7.593  0.1212 -0.1563 -0.0849
   78POPC   C3A 1364   3.841   4.766   7.298  0.3800  0.0059 -0.0286
   78POPC   C4A 1365   3.703   5.142   7.187  0.2120 -0.1211  0.2937
   78POPC   C1B 1366   4.436   4.089   8.047 -0.2539 -0.0338  0.0945
   78POPC   C2B 1367   4.387   3.879   7.656 -0.2740  0.0068  0.3273
   78POPC   C3B 1368   4.564   3.744   7.292  0.1502  0.0610  0.2040
   78POPC   C4B 1369   4.695   3.802   6.838  0.0967  0.0423 -0.1851
   79POPC   NC3 1370   4.870   9.589   8.288  0.2911  0.1432  0.1068
   79POPC   PO4 1371   5.282   9.780   8.097  0.1996 -0.0629 -0.3887
   79POPC   GL1 1372   5.333   9.465   7.850 -0.0764 -0.1120 -0.0462
   79POPC   GL2 1373   5.045   9.332   7.916  0.3186  0.1809 -0.1511
   79POPC   C1A 1374   5.605   9.307   7.586 -0.0667 -0.0868  0.2877
   79POPC   D2A 1375   5.796   9.558   7.208 -0.2087  0.3848 -0.2152
   79POPC   C3A 1376   6.223   9.450   7.206 -0.0040 -0.1003  0.1568
   79POPC   C4A 1377   6.563   9.654   7.411  0.0301 -0.1057  0.2462
   79POPC   C1B 1378   5.090   9.205   7.516  0.0603  0.1978 -0.3328
   79POPC   C2B 1379   4.953   8.845   7.254 -0.1002 -0.4350 -0.2864
   79POPC   C3B 1380   4.684   8.661   7.068 -0.0818 -0.1136  0.0468
   79POPC   C4B 1381   4.216   8.554   6.877 -0.0964 -0.3738  0.0019
   80POPC   NC3 1382   7.151   4.767   8.988 -0.1114  0.1980  0.0292
   80POPC   PO4 1383   6.918   4.908   8.729 -0.2746  0.2258  0.2606
   80POPC   GL1 1384   7.031   4.953   8.458 -0.1661 -0.0706  0.0242
   80POPC   GL2 1385   7.227   4.771   8.262 -0.0356 -0.5802  0.3298
   80POPC   C1A 1386   6.829   5.018   8.086  0.0453 -0.0318  0.1536
   80POPC   D2A 1387   6.853   5.076   7.633  0.1733 -0.0767 -0.1499
   80POPC   C3A 1388   6.823   4.705   7.489  0.3856 -0.2566  0.1196
   80POPC   C4A 1389   6.842   4.321   7.558  0.3147  0.1453 -0.1466
   80POPC   C1B 1390   7.349   5.170   7.955 -0.1779 -0.3416  0.0731
   80POPC   C2B 1391   7.227   5.381   7.612 -0.1305  0.0698 -0.0853
   80POPC   C3B 1392   7.476   5.682   7.412 -0.0853  0.0247  0.3017
   80POPC   C4B 1393   7.706   5.674   6.986  0.1531  0.3385 -0.1111
   81POPC   NC3 1394   3.353   5.783   9.055  0.1016  0.0486 -0.2431
   81POPC   PO4 1395   3.118   6.052   8.975  0.0624  0.2362  0.0858
   81POPC   GL1 1396   3.150   6.198   8.489  0.1817 -0.2870 -0.2679
   81POPC   GL2 1397   2.930   5.982   8.183 -0.2651 -0.1531 -0.1145
   81POPC   C1A 1398   3.288   6.395   7.990 -0.0247 -0.0137  0.1712
   81POPC   D2A 1399   3.261   6.484   7.548  0.0417  0.0352  0.2447
   81POPC   C3A 1400   3.340   6.897   7.253  0.3847 -0.0037 -0.0785
   81POPC   C4A 1401   3.616   7.033   6.926 -0.2050  0.0926  0.2146
   81POPC   C1B 1402   2.753   6.261   7.816 -0.0272 -0.1387  0.0076
   81POPC   C2B 1403   2.515   6.277   7.408  0.0106  0.2962  0.1937
   81POPC   C3B 1404   2.509   6.284   7.009 -0.0865  0.1075 -0.0933
   81POPC   C4B 1405   2.463   6.709   6.847  0.0057 -0.3316  0.3174
   82POPC   NC3 1406   2.815   4.455   8.493  0.1395  0.1951 -0.2218
   82POPC   PO4 1407   2.549   4.832   8.608 -0.1265 -0.0306 -0.2394
   82POPC   GL1 1408   2.505   4.783   8.110  0.2703  0.3022 -0.0227
   82POPC   GL2 1409   2.482   5.097   8.145 -0.0240 -0.1784 -0.2816
   82POPC   C1A 1410   2.547   4.438   7.772 -0.1046 -0.0475 -0.2898
   82POPC   D2A 1411   2.707   4.300   7.372  0.2568 -0.0246  0.1276
   82POPC   C3A 1412   2.629   3.842   7.136  0.2479 -0.0498 -0.1804
   82POPC   C4A 1413   2.632   3.404   7.098  0.2689  0.3448  0.2208
   82POPC   C1B 1414   2.266   5.215   7.665  0.3876 -0.1126 -0.0735
   82POPC   C2B 1415   1.956   5.118   7.384 -0.1010  0.0830 -0.0914
   82POPC   C3B 1416   1.703   5.281   6.939  0.3274  0.0975 -0.0003
   82POPC   C4B 1417   1.712   5.437   6.359  0.1246  0.0748 -0.0826
   83POPC   NC3 1418   7.408   7.308   8.771 -0.0171 -0.2065 -0.3135
   83POPC   PO4 1419   7.504   7.770   8.727 -0.0278 -0.0373  0.3656
   83POPC   GL1 1420   7.743   7.759   8.299 -0.0534  0.0598  0.2359
   83POPC   GL2 1421   7.822   7.488   8.338  0.1018  0.0966  0.0669
   83POPC   C1A 1422   7.606   7.766   7.779  0.1481 -0.0933 -0.1556
   83POPC   D2A 1423   7.644   7.658   7.360 -0.1300 -0.3220 -0.0067
   83POPC   C3A 1424   7.975   7.358   7.217  0.1604  0.0462  0.2515
   83POPC   C4A 1425   7.932   6.980   7.162  0.0261  0.2759 -0.1960
   83POPC   C1B 1426   8.131   7.139   8.065 -0.2101  0.2159  0.0127
   83POPC   C2B 1427   8.105   7.003   7.644 -0.0244 -0.2312 -0.0430
   83POPC   C3B 1428   8.421   6.929   7.288  0.1165  0.0221 -0.0814
   83POPC   C4B 1429   8.369   7.098   6.908  0.2824  0.1832 -0.2789
   84POPC   NC3 1430   1.853   6.025   9.107 -0.2423  0.1065  0.1804
   84POPC   PO4 1431   1.685   6.419   9.378 -0.0616  0.1935 -0.5698
   84POPC   GL1 1432   1.651   6.589   8.977  0.3117 -0.0943  0.0595
   84POPC   GL2 1433   1.737   6.458   8.771  0.4937 -0.2212  0.3392
   84POPC   C1A 1434   1.749   6.989   8.629 -0.2207  0.2376  0.1398
   84POPC   D2A 1435   1.765   7.017   8.208 -0.2103  0.0983 -0.3201
   84POPC   C3A 1436   2.072   6.807   8.041 -0.2061  0.3475 -0.0199
   84POPC   C4A 1437   2.473   6.650   7.812 -0.2326  0.0983  0.1909
   84POPC   C1B 1438   1.821   6.526   8.358 -0.0010 -0.2272  0.2132
   84POPC   C2B 1439   1.794   6.376   8.002  0.1479  0.3630  0.0181
   84POPC   C3B 1440   2.093   6.272   7.698 -0.0623  0.0423  0.1038
   84POPC   C4B 1441   2.029   6.144   7.358 -0.1769  0.0967  0.5362
   85POPC   NC3 1442   7.433   9.943   8.906 -0.0495 -0.4982 -0.0696
   85POPC   PO4 1443   7.772  10.243   8.807  0.0631  0.0729 -0.0741
   85POPC   GL1 1444   8.015  10.367   8.460 -0.1171  0.0801 -0.0566
   85POPC   GL2 1445   7.874  10.433   8.145 -0.2462  0.0170  0.0875
   85POPC   C1A 1446   8.253  10.115   8.168 -0.1935  0.0509  0.2945
   85POPC   D2A 1447   8.577  10.174   8.003 -0.0364 -0.2865  0.0117
   85POPC   C3A 1448   8.830  10.213   7.680 -0.0418 -0.0427 -0.0682
   85POPC   C4A 1449   8.782  10.327   7.230  0.3374 -0.2256 -0.0723
   85POPC   C1B 1450   7.905  10.150   7.798 -0.2109  0.0393 -0.0767
   85POPC   C2B 1451   8.218   9.821   7.720  0.2161  0.1630  0.0026
   85POPC   C3B 1452   8.601   9.725   7.519  0.0302 -0.0156 -0.0788
   85POPC   C4B 1453   8.862   9.801   7.215  0.0457  0.1152 -0.0973
   86POPC   NC3 1454   8.050   6.692   9.090  0.0094 -0.3465 -0.1423
   86POPC   PO4 1455   8.365   6.610   9.369  0.1781  0.1914 -0.6437
   86POPC   GL1 1456   8.561   6.549   8.990 -0.1810 -0.0723 -0.0802
   86POPC   GL2 1457   8.812   6.847   8.911  0.1259  0.1133  0.0885
   86POPC   C1A 1458   8.707   6.527   8.572 -0.0206  0.1575 -0.4464
   86POPC   D2A 1459   9.044   6.605   8.274  0.2153  0.3409  0.2620
   86POPC   C3A 1460   8.965   6.811   7.890  0.1279 -0.1664 -0.0080
   86POPC   C4A 1461   8.951   6.873   7.498  0.0025  0.0522 -0.2855
   86POPC   C1B 1462   9.267   6.981   9.216  0.2094  0.1840  0.2110
   86POPC   C2B 1463   9.728   6.989   9.031 -0.0562  0.1544 -0.2239
   86POPC   C3B 1464  10.198   6.867   8.970 -0.0308 -0.1141  0.2388
   86POPC   C4B 1465  10.660   6.694   9.055  0.0134 -0.0573 -0.0847
   87POPC   NC3 1466   8.358   8.470   9.004  0.3074  0.3843 -0.0994
   87POPC   PO4 1467   7.881   8.442   8.959 -0.0455  0.0501 -0.5166
   87POPC   GL1 1468   7.842   8.213   8.560  0.0280  0.3325 -0.1350
   87POPC   GL2 1469   8.267   8.049   8.419  0.1426  0.2595  0.0689
   87POPC   C1A 1470   7.905   8.226   8.145 -0.1265 -0.1083 -0.0110
   87POPC   D2A 1471   8.081   8.352   7.741 -0.1790 -0.1301 -0.1572
   87POPC   C3A 1472   8.284   8.158   7.464 -0.0116  0.3012  0.2231
   87POPC   C4A 1473   8.459   8.206   7.054  0.0878  0.0541  0.1468
   87POPC   C1B 1474   8.634   7.918   8.366 -0.1589 -0.1530  0.0048
   87POPC   C2B 1475   8.997   7.802   8.139 -0.0767  0.0973 -0.0857
   87POPC   C3B 1476   9.426   7.579   8.031  0.1518  0.2199 -0.0402
   87POPC   C4B 1477   9.814   7.526   8.007 -0.1566 -0.0737  0.2296
   88POPC   NC3 1478   9.594   0.080   8.932 -0.1045 -0.0681  0.1855
   88POPC   PO4 1479   9.770   0.370   8.617  0.2515 -0.0369  0.1028
   88POPC   GL1 1480   9.908   0.236   8.165 -0.0361 -0.0187 -0.0280
   88POPC   GL2 1481   9.881   0.542   7.943  0.0756 -0.0384  0.0589
   88POPC   C1A 1482   9.605   0.172   7.766  0.1054 -0.0749  0.0604
   88POPC   D2A 1483   9.653   0.076   7.393  0.0828 -0.1060  0.0013
   88POPC   C3A 1484   9.730   0.477   7.076 -0.1420  0.2404 -0.1063
   88POPC   C4A 1485   9.602   0.472   6.652  0.0255  0.0536  0.0649
   88POPC   C1B 1486  10.027   0.405   7.467  0.3149 -0.0083 -0.0880
   88POPC   C2B 1487  10.122   0.113   7.139  0.4238  0.0195 -0.0820
   88POPC   C3B 1488  10.048   0.058   6.776 -0.2839 -0.1452  0.2040
   88POPC   C4B 1489  10.334   0.218   6.432 -0.0349  0.0181 -0.1516
   89POPC   NC3 1490   4.052   3.139   8.735  0.0890 -0.1284 -0.1173
   89POPC   PO4 1491   3.523   3.271   8.703 -0.2120 -0.0851  0.0692
   89POPC   GL1 1492   3.695   3.442   8.318 -0.3024 -0.0697  0.1717
   89POPC   GL2 1493   3.404   3.356   8.221  0.2629 -0.1644  0.1121
   89POPC   C1A 1494   3.872   3.458   7.893  0.4014 -0.0890 -0.1037
   89POPC   D2A 1495   4.107   3.465   7.586  0.0767  0.1172  0.2109
   89POPC   C3A 1496   4.494   3.337   7.531 -0.1522 -0.2700 -0.3678
   89POPC   C4A 1497   4.547   3.384   7.961  0.2625 -0.1079 -0.0904
   89POPC   C1B 1498   3.452   3.170   7.823 -0.0378 -0.1166 -0.0349
   89POPC   C2B 1499   3.691   3.284   7.476 -0.0739 -0.1366 -0.0585
   89POPC   C3B 1500   4.001   3.296   7.127 -0.0934 -0.1095 -0.3041
   89POPC   C4B 1501   4.253   3.558   6.853  0.2293 -0.0404 -0.2147
   90POPC   NC3 1502   3.753   3.661   8.802 -0.3243  0.0743 -0.1989
   90POPC   PO4 1503   3.935   4.021   8.420  0.1636 -0.2443  0.4116
   90POPC   GL1 1504   3.810   3.959   8.032 -0.0289 -0.0301  0.0150
   90POPC   GL2 1505   3.537   4.190   7.881  0.0559  0.0399 -0.0426
   90POPC   C1A 1506   3.895   3.903   7.698 -0.1930 -0.0707 -0.1912
   90POPC   D2A 1507   4.030   3.860   7.263  0.2018 -0.0248  0.0938
   90POPC   C3A 1508   4.387   4.134   7.105 -0.1801  0.0668  0.1385
   90POPC   C4A 1509   4.399   4.492   6.930  0.2097  0.1249  0.0852
   90POPC   C1B 1510   3.664   4.276   7.461  0.0994 -0.0676  0.2179
   90POPC   C2B 1511   3.927   4.347   7.070  0.1646  0.0922  0.2325
   90POPC   C3B 1512   3.947   4.632   6.794 -0.0747 -0.3230 -0.0195
   90POPC   C4B 1513   3.844   4.429   6.396  0.1384 -0.2772  0.1111
   91POPC   NC3 1514   8.957   8.613   9.520 -0.2897 -0.0402  0.0930
   91POPC   PO4 1515   8.830   8.382   9.162  0.1827  0.0796 -0.1586
   91POPC   GL1 1516   8.748   8.389   8.675  0.0757 -0.2386 -0.3266
   91POPC   GL2 1517   9.084   8.494   8.602 -0.3219 -0.1683 -0.1489
   91POPC   C1A 1518   8.890   8.364   8.210  0.1595  0.0138  0.2833
   91POPC   D2A 1519   9.008   8.220   7.862  0.1649 -0.2420  0.1010
   91POPC   C3A 1520   9.188   7.961   7.674 -0.2059  0.2032 -0.0135
   91POPC   C4A 1521   9.351   8.046   7.296  0.1351 -0.4172 -0.0971
   91POPC   C1B 1522   9.369   8.805   8.311  0.0054  0.0083  0.2888
   91POPC   C2B 1523   9.493   9.045   7.958  0.2327  0.1876  0.3426
   91POPC   C3B 1524   9.761   8.896   7.581 -0.2699  0.1553 -0.1404
   91POPC   C4B 1525  10.034   8.598   7.372 -0.1466  0.0299  0.2902
   92POPC   NC3 1526   2.062   3.823   8.679  0.3796  0.1284 -0.1603
   92POPC   PO4 1527   1.916   3.664   8.266  0.0832 -0.2788 -0.0672
   92POPC   GL1 1528   1.894   3.771   7.897 -0.0278 -0.1689  0.3674
   92POPC   GL2 1529   2.009   4.043   7.895  0.2213 -0.0207 -0.0347
   92POPC   C1A 1530   2.129   3.737   7.582 -0.2959  0.1978 -0.5277
   92POPC   D2A 1531   2.454   3.838   7.563 -0.0208  0.1050 -0.0445
   92POPC   C3A 1532   2.741   3.523   7.584 -0.1788  0.1696 -0.5265
   92POPC   C4A 1533   3.126   3.447   7.423  0.1751  0.0907  0.0117
   92POPC   C1B 1534   2.094   4.213   7.497 -0.4152 -0.2633 -0.0718
   92POPC   C2B 1535   2.280   4.220   7.069  0.0371 -0.0504  0.0316
   92POPC   C3B 1536   2.598   4.093   6.669  0.3696  0.0106 -0.3582
   92POPC   C4B 1537   2.902   4.371   6.343  0.3415  0.0654 -0.1937
   93POPC   NC3 1538   8.266   9.398   8.714  0.0301 -0.0175 -0.0861
   93POPC   PO4 1539   8.258   8.964   8.852  0.0188 -0.0684 -0.0202
   93POPC   GL1 1540   8.247   8.819   8.483 -0.0679 -0.0693  0.0926
   93POPC   GL2 1541   8.045   8.633   8.468  0.0342 -0.0890  0.0445
   93POPC   C1A 1542   8.154   8.820   8.007 -0.1526 -0.1194  0.0507
   93POPC   D2A 1543   8.501   8.882   7.693  0.2516 -0.3311 -0.0962
   93POPC   C3A 1544   8.711   8.420   7.533  0.1802  0.2373 -0.0603
   93POPC   C4A 1545   8.779   7.981   7.406  0.3243  0.0330  0.1764
   93POPC   C1B 1546   8.429   8.423   8.229 -0.0078 -0.2192  0.0416
   93POPC   C2B 1547   8.484   8.219   7.913  0.0811 -0.0549 -0.0951
   93POPC   C3B 1548   8.501   7.895   7.815 -0.0050  0.0924 -0.1555
   93POPC   C4B 1549   8.494   7.501   8.128 -0.0670 -0.0078  0.0482
   94POPC   NC3 1550   4.828   8.739   8.732  0.0476  0.1292 -0.0896
   94POPC   PO4 1551   4.713   9.154   8.603 -0.1587  0.6295 -0.3026
   94POPC   GL1 1552   4.564   9.224   8.163 -0.2409  0.1400  0.0588
   94POPC   GL2 1553   4.522   9.475   7.903 -0.0380  0.1684  0.0258
   94POPC   C1A 1554   4.677   9.060   7.706  0.0642 -0.2434  0.0166
   94POPC   D2A 1555   4.406   9.007   7.373  0.3374  0.1953 -0.0502
   94POPC   C3A 1556   4.067   9.093   7.082 -0.2228 -0.0841  0.1007
   94POPC   C4A 1557   3.744   9.275   6.724  0.0039 -0.1147 -0.0080
   94POPC   C1B 1558   4.264   9.392   7.571  0.1259 -0.1568  0.0620
   94POPC   C2B 1559   3.816   9.402   7.381  0.0744 -0.2862 -0.0421
   94POPC   C3B 1560   3.610   9.057   7.165 -0.2453 -0.0678 -0.0149
   94POPC   C4B 1561   3.320   9.042   6.942  0.3515 -0.3384 -0.1398
   95POPC   NC3 1562   2.659   0.192   8.894 -0.0021 -0.2733 -0.0663
   95POPC   PO4 1563   2.530   0.272   8.540 -0.1004  0.0866 -0.2820
   95POPC   GL1 1564   2.508   0.146   8.059 -0.1231 -0.4569 -0.1521
   95POPC   GL2 1565   2.768   0.003   7.937  0.0652 -0.1658 -0.0566
   95POPC   C1A 1566   2.366   0.206   7.627 -0.0087  0.0783  0.0570
   95POPC   D2A 1567   2.230  -0.099   7.302 -0.0305 -0.0729 -0.1639
   95POPC   C3A 1568   2.215  -0.490   7.359  0.0869  0.0747  0.0162
   95POPC   C4A 1569   2.020  -0.752   7.653 -0.4425 -0.2805 -0.0478
   95POPC   C1B 1570   2.628  -0.226   7.547 -0.4207 -0.2923  0.0262
   95POPC   C2B 1571   2.796  -0.647   7.531  0.0662 -0.1280 -0.0614
   95POPC   C3B 1572   2.501  -0.986   7.452  0.1869 -0.1898  0.3548
   95POPC   C4B 1573   2.320  -1.386   7.278 -0.1318  0.1260 -0.1691
   96POPC   NC3 1574   1.545   2.391   8.745  0.1282  0.0498 -0.1772
   96POPC   PO4 1575   1.423   2.366   8.221  0.0474 -0.2406 -0.1611
   96POPC   GL1 1576   1.374   2.389   7.796  0.0341 -0.0356  0.0700
   96POPC   GL2 1577   1.597   2.192   7.687 -0.1514 -0.0813 -0.0535
   96POPC   C1A 1578   1.279   2.506   7.402 -0.0770  0.1980 -0.2967
   96POPC   D2A 1579   1.073   2.495   6.909 -0.0251  0.0446  0.3611
   96POPC   C3A 1580   1.201   2.891   6.838  0.0635 -0.0739 -0.1530
   96POPC   C4A 1581   1.387   3.386   6.760  0.1467  0.0819 -0.1586
   96POPC   C1B 1582   1.572   1.845   7.469 -0.1280 -0.0594  0.0135
   96POPC   C2B 1583   1.427   1.710   7.105  0.2419  0.0345  0.2116
   96POPC   C3B 1584   1.220   1.498   6.769  0.1072  0.2009 -0.1808
   96POPC   C4B 1585   1.261   1.472   6.433  0.1870 -0.0581 -0.1317
   97POPC   NC3 1586   5.411   6.937   8.737  0.0240  0.1138  0.0583
   97POPC   PO4 1587   5.807   6.949   8.598  0.2297  0.2238 -0.1446
   97POPC   GL1 1588   6.015   7.160   8.202 -0.1063  0.1563 -0.0138
   97POPC   GL2 1589   6.323   7.051   8.167  0.5496 -0.2168  0.2222
   97POPC   C1A 1590   5.981   7.490   7.817 -0.1778  0.0277 -0.1843
   97POPC   D2A 1591   6.200   7.643   7.497  0.5097  0.0229  0.3368
   97POPC   C3A 1592   6.107   7.397   7.062 -0.2991 -0.2045  0.2046
   97POPC   C4A 1593   6.163   7.517   6.592 -0.0655 -0.1245  0.2749
   97POPC   C1B 1594   6.509   6.738   7.944  0.0466  0.2220 -0.0420
   97POPC   C2B 1595   6.731   6.597   7.566 -0.1424 -0.0398  0.0188
   97POPC   C3B 1596   6.870   6.373   7.167 -0.1627 -0.2448 -0.0125
   97POPC   C4B 1597   7.111   6.071   6.990 -0.1472  0.1434  0.2252
   98POPC   NC3 1598   4.709   0.517   8.657  0.0598  0.0240 -0.0829
   98POPC   PO4 1599   4.429   0.490   8.177  0.0399  0.0909  0.1743
   98POPC   GL1 1600   4.236   0.582   7.826 -0.1410  0.2040 -0.0060
   98POPC   GL2 1601   4.443   0.788   7.620  0.2001  0.3184 -0.2348
   98POPC   C1A 1602   4.050   0.708   7.443 -0.2335  0.0033  0.0538
   98POPC   D2A 1603   3.703   0.771   7.103 -0.0723  0.2283  0.1253
   98POPC   C3A 1604   3.886   0.773   6.685  0.2446 -0.1627 -0.2684
   98POPC   C4A 1605   4.106   0.991   6.370 -0.1279  0.1195  0.0382
   98POPC   C1B 1606   4.406   1.050   7.374  0.1731 -0.1444  0.0171
   98POPC   C2B 1607   4.121   1.148   7.028 -0.1200  0.2633 -0.3003
   98POPC   C3B 1608   4.056   1.410   6.683 -0.3719 -0.1804 -0.1710
   98POPC   C4B 1609   4.206   1.516   6.267 -0.4447 -0.0398 -0.0058
   99POPC   NC3 1610   0.344   8.795   9.474  0.2296 -0.0875  0.0511
   99POPC   PO4 1611  -0.172   8.799   9.376 -0.2642 -0.1631 -0.2784
   99POPC   GL1 1612   0.078   8.890   8.976 -0.0757  0.0252 -0.0171
   99POPC   GL2 1613   0.488   8.653   8.923  0.0571 -0.0477 -0.1036
   99POPC   C1A 1614   0.355   9.154   8.772 -0.0961  0.0788 -0.3289
   99POPC   D2A 1615   0.270   9.290   8.321 -0.1793 -0.2633 -0.2394
   99POPC   C3A 1616   0.331   8.962   8.018  0.0916 -0.1144 -0.1635
   99POPC   C4A 1617   0.489   8.872   7.682 -0.1755  0.3764 -0.0941
   99POPC   C1B 1618   0.557   8.322   8.734  0.2871 -0.3390  0.1372
   99POPC   C2B 1619   0.408   8.267   8.266 -0.1550  0.0464 -0.3522
   99POPC   C3B 1620   0.736   8.398   7.942  0.2437 -0.2226 -0.3362
   99POPC   C4B 1621   1.070   8.106   7.820  0.3052  0.3185 -0.2973
  100POPC   NC3 1622   2.436   3.557   8.523 -0.0162 -0.0658 -0.0537
  100POPC   PO4 1623   2.557   3.083   8.555  0.0482  0.0153 -0.1960
  100POPC   GL1 1624   2.464   3.123   8.205 -0.2536  0.0207  0.0296
  100POPC   GL2 1625   2.528   2.794   8.040 -0.1013 -0.3691  0.0814
  100POPC   C1A 1626   2.412   3.190   7.719 -0.1753 -0.2166 -0.1463
  100POPC   D2A 1627   2.209   3.360   7.311 -0.3779 -0.2379  0.1362
  100POPC   C3A 1628   2.007   3.282   6.940 -0.2805 -0.1141  0.1160
  100POPC   C4A 1629   1.847   3.590   6.593 -0.1111  0.1595  0.4086
  100POPC   C1B 1630   2.431   2.708   7.664 -0.0564 -0.3929 -0.2291
  100POPC   C2B 1631   2.051   2.463   7.588 -0.2339 -0.0353 -0.1946
  100POPC   C3B 1632   1.959   2.246   7.341  0.2433 -0.2407 -0.0349
  100POPC   C4B 1633   1.995   2.033   6.982  0.0561  0.1745  0.2378
  101POPC   NC3 1634   4.537   2.355   8.069 -0.1808  0.1233 -0.2559
  101POPC   PO4 1635   4.075   2.476   8.243 -0.3172  0.0100  0.0407
  101POPC   GL1 1636   4.079   2.511   7.819 -0.0615  0.1303 -0.1627
  101POPC   GL2 1637   3.743   2.579   7.691 -0.2611  0.1703  0.3265
  101POPC   C1A 1638   4.106   2.455   7.357 -0.1636  0.3678 -0.4955
  101POPC   D2A 1639   4.132   2.286   6.861 -0.0828  0.2487 -0.2593
  101POPC   C3A 1640   3.892   2.435   6.553  0.2504  0.1763  0.0110
  101POPC   C4A 1641   3.564   2.714   6.292 -0.2752  0.1318  0.0241
  101POPC   C1B 1642   3.725   2.789   7.339  0.0444  0.0530  0.0159
  101POPC   C2B 1643   3.948   2.779   6.995  0.2585  0.3011  0.2051
  101POPC   C3B 1644   4.244   3.036   6.682  0.1358  0.0413  0.0033
  101POPC   C4B 1645   4.468   3.265   6.566 -0.0492  0.1189 -0.0681
  102POPC   NC3 1646   7.727   5.977   9.403  0.0744  0.1129  0.2140
  102POPC   PO4 1647   7.585   6.355   9.130 -0.0976 -0.0041  0.1889
  102POPC   GL1 1648   7.716   6.046   8.844  0.1275 -0.0711  0.0385
  102POPC   GL2 1649   7.727   6.227   8.601  0.1320 -0.2299  0.0657
  102POPC   C1A 1650   8.088   5.907   8.555 -0.0214  0.0017 -0.1172
  102POPC   D2A 1651   8.339   5.869   8.187 -0.1113  0.3707  0.2403
  102POPC   C3A 1652   8.197   5.463   7.981 -0.1374 -0.0824  0.0785
  102POPC   C4A 1653   8.085   5.135   7.871  0.1704 -0.1602 -0.0188
  102POPC   C1B 1654   7.922   6.152   8.175  0.2787 -0.1114  0.3041
  102POPC   C2B 1655   7.964   5.962   7.746  0.0898 -0.1361 -0.3810
  102POPC   C3B 1656   7.813   6.113   7.295 -0.2609  0.1308 -0.1597
  102POPC   C4B 1657   7.606   6.163   6.913  0.0292 -0.2805  0.3586
  103POPC   NC3 1658   7.367   8.215   8.813 -0.0192  0.1653  0.1525
  103POPC   PO4 1659   7.456   8.556   8.617  0.1499 -0.0351 -0.1737
  103POPC   GL1 1660   7.618   8.711   8.193 -0.0663  0.4867  0.0250
  103POPC   GL2 1661   7.307   8.821   7.941  0.0421 -0.3262  0.1758
  103POPC   C1A 1662   7.779   9.180   8.076  0.3600 -0.2291 -0.1627
  103POPC   D2A 1663   8.010   9.327   7.732  0.0010 -0.1223  0.0604
  103POPC   C3A 1664   8.278   9.347   7.393 -0.0983 -0.2121 -0.1548
  103POPC   C4A 1665   8.243   9.424   6.873 -0.0364  0.1570  0.0361
  103POPC   C1B 1666   7.692   8.778   7.693 -0.1522 -0.0105 -0.1181
  103POPC   C2B 1667   8.057   8.861   7.430 -0.0770 -0.0832  0.1228
  103POPC   C3B 1668   8.413   8.834   7.214  0.0780  0.0316 -0.2495
  103POPC   C4B 1669   8.812   8.843   7.245  0.0920 -0.1793 -0.1718
  104POPC   NC3 1670   7.828   5.169   9.171  0.0704 -0.1239  0.1627
  104POPC   PO4 1671   7.379   5.156   9.233 -0.2686  0.0144  0.2460
  104POPC   GL1 1672   7.320   5.195   8.855  0.1281  0.0589 -0.1507
  104POPC   GL2 1673   7.122   5.400   8.767 -0.0889  0.0575 -0.0687
  104POPC   C1A 1674   7.492   5.226   8.468 -0.0555 -0.2893 -0.0242
  104POPC   D2A 1675   7.814   5.400   8.213 -0.2043 -0.0794 -0.3759
  104POPC   C3A 1676   7.703   5.513   7.811 -0.1280  0.2345 -0.1562
  104POPC   C4A 1677   7.973   5.561   7.477  0.1542  0.1095  0.2584
  104POPC   C1B 1678   7.070   5.482   8.324 -0.3309  0.0745 -0.1420
  104POPC   C2B 1679   6.719   5.515   7.873  0.5532  0.0843 -0.0877
  104POPC   C3B 1680   6.662   5.527   7.390  0.0250  0.1579 -0.2182
  104POPC   C4B 1681   7.026   5.545   7.142 -0.1551 -0.0924 -0.1404
  105POPC   NC3 1682   5.651   3.253   8.237  0.2926  0.0281  0.0400
  105POPC   PO4 1683   5.936   3.651   8.448 -0.0250 -0.0485  0.1396
  105POPC   GL1 1684   5.721   3.679   8.054 -0.0260 -0.2897  0.2270
  105POPC   GL2 1685   5.947   3.582   7.832  0.0444  0.1561 -0.0743
  105POPC   C1A 1686   5.480   3.833   7.701  0.1677  0.0195  0.0914
  105POPC   D2A 1687   5.288   3.953   7.299 -0.2490 -0.2364 -0.2174
  105POPC   C3A 1688   5.362   3.942   6.859  0.1275 -0.2382 -0.0869
  105POPC   C4A 1689   5.218   3.819   6.511  0.0901  0.0683 -0.2080
  105POPC   C1B 1690   5.760   3.456   7.422  0.2958 -0.0993 -0.1694
  105POPC   C2B 1691   5.286   3.392   7.417 -0.1701 -0.2270 -0.0584
  105POPC   C3B 1692   4.891   3.423   7.166 -0.0313 -0.0417 -0.2948
  105POPC   C4B 1693   4.553   3.206   7.060 -0.0993 -0.1842  0.3755
  106POPC   NC3 1694   7.001   1.348   7.810 -0.0789 -0.0708 -0.2809
  106POPC   PO4 1695   7.384   1.490   7.930  0.0460  0.1692  0.0693
  106POPC   GL1 1696   7.344   1.508   7.516  0.0405  0.0167  0.2469
  106POPC   GL2 1697   6.918   1.564   7.415 -0.1881 -0.3176  0.0790
  106POPC   C1A 1698   7.488   1.471   7.079 -0.1468  0.2435 -0.1180
  106POPC   D2A 1699   7.805   1.532   6.715  0.1493 -0.0516  0.1210
  106POPC   C3A 1700   7.953   1.927   6.466 -0.1310 -0.2396 -0.1015
  106POPC   C4A 1701   7.827   2.152   6.093 -0.3035 -0.0759  0.2914
  106POPC   C1B 1702   7.053   1.691   6.982 -0.0729  0.2521  0.0054
  106POPC   C2B 1703   7.002   1.997   6.652  0.0305 -0.0160 -0.1745
  106POPC   C3B 1704   6.709   2.234   6.514 -0.1570  0.1146 -0.1102
  106POPC   C4B 1705   6.390   2.369   6.142  0.0830 -0.0466 -0.2258
  107POPC   NC3 1706   4.764   3.516   8.665  0.2425 -0.0454  0.1981
  107POPC   PO4 1707   5.144   3.338   8.456  0.0385 -0.2283 -0.0415
  107POPC   GL1 1708   5.164   3.183   8.073 -0.1376 -0.0352 -0.0236
  107POPC   GL2 1709   5.140   3.369   7.975  0.0810 -0.1973 -0.3877
  107POPC   C1A 1710   4.969   3.066   7.670  0.2982  0.0594 -0.1687
  107POPC   D2A 1711   4.790   2.943   7.307  0.0126  0.0312 -0.4433
  107POPC   C3A 1712   4.316   2.920   7.418  0.0500 -0.1046 -0.1636
  107POPC   C4A 1713   4.027   2.982   7.785  0.0615  0.0407 -0.1529
  107POPC   C1B 1714   4.936   3.667   7.731  0.0281  0.1295  0.0419
  107POPC   C2B 1715   4.884   4.007   7.646 -0.0789  0.0089  0.0256
  107POPC   C3B 1716   4.791   4.241   7.482  0.1432  0.1807  0.0453
  107POPC   C4B 1717   4.902   4.127   7.115 -0.1579 -0.2648 -0.1090
  108POPC   NC3 1718   1.252   7.763   9.988 -0.2731 -0.0644  0.0495
  108POPC   PO4 1719   1.083   7.505   9.677 -0.0855  0.0125 -0.0375
  108POPC   GL1 1720   1.249   7.383   9.120 -0.1862 -0.2529  0.0642
  108POPC   GL2 1721   1.484   7.088   9.000  0.0847  0.0613 -0.1957
  108POPC   C1A 1722   0.958   7.490   8.709  0.4242 -0.4543 -0.2308
  108POPC   D2A 1723   0.727   7.499   8.305 -0.0604  0.2803  0.1313
  108POPC   C3A 1724   0.409   7.315   8.253  0.0426  0.0897 -0.0951
  108POPC   C4A 1725   0.117   7.378   8.520 -0.1383  0.0596 -0.0661
  108POPC   C1B 1726   1.490   7.438   8.707  0.0578  0.1132 -0.0418
  108POPC   C2B 1727   1.633   7.836   8.541  0.1657 -0.0811  0.1237
  108POPC   C3B 1728   1.644   8.271   8.422  0.2670 -0.1090 -0.0070
  108POPC   C4B 1729   1.519   8.585   8.662 -0.0273 -0.0284 -0.0437
  109POPC   NC3 1730   5.886   8.021   8.836 -0.0655  0.2370 -0.1836
  109POPC   PO4 1731   6.164   8.223   8.657 -0.0498 -0.0800  0.0163
  109POPC   GL1 1732   6.397   8.065   8.388 -0.1020  0.3841 -0.1256
  109POPC   GL2 1733   6.771   8.039   8.350 -0.0358 -0.1486 -0.2755
  109POPC   C1A 1734   6.287   7.923   8.001 -0.0254  0.1678  0.1571
  109POPC   D2A 1735   6.625   7.900   7.679 -0.5060  0.0274 -0.0405
  109POPC   C3A 1736   6.675   7.582   7.401 -0.1610 -0.0299 -0.1998
  109POPC   C4A 1737   6.651   7.254   7.151 -0.1328  0.0978  0.0288
  109POPC   C1B 1738   6.964   8.045   8.035 -0.0384  0.3146 -0.1872
  109POPC   C2B 1739   7.104   7.992   7.563  0.0128 -0.4574 -0.0012
  109POPC   C3B 1740   6.877   8.019   7.200 -0.1640  0.0504 -0.0842
  109POPC   C4B 1741   6.788   8.018   6.716  0.1804  0.1004  0.0136
  110POPC   NC3 1742   0.965   5.034   9.730  0.1764  0.0231  0.2026
  110POPC   PO4 1743   1.112   5.036   9.296 -0.0111  0.1188  0.0227
  110POPC   GL1 1744   1.022   5.159   8.808 -0.0456 -0.3315  0.2457
  110POPC   GL2 1745   0.983   4.966   8.632  0.1264 -0.3691 -0.1819
  110POPC   C1A 1746   1.227   5.271   8.320 -0.3782  0.1305  0.1028
  110POPC   D2A 1747   1.467   5.262   8.060 -0.1303 -0.0238 -0.0143
  110POPC   C3A 1748   1.546   5.295   7.605 -0.2078 -0.1175  0.0301
  110POPC   C4A 1749   1.462   4.999   7.189 -0.0232 -0.1557 -0.0680
  110POPC   C1B 1750   0.674   4.971   8.335 -0.0906 -0.0842 -0.0001
  110POPC   C2B 1751   0.675   5.113   8.013 -0.0373 -0.2302 -0.0916
  110POPC   C3B 1752   0.928   5.404   7.841 -0.1376 -0.0440  0.3478
  110POPC   C4B 1753   1.314   5.646   7.861  0.2669 -0.0544  0.0496
  111POPC   NC3 1754   3.651   4.997   8.713 -0.1995  0.2089  0.0544
  111POPC   PO4 1755   4.053   5.216   8.778 -0.0481 -0.0177  0.3194
  111POPC   GL1 1756   4.043   5.411   8.385 -0.0211 -0.1956  0.3204
  111POPC   GL2 1757   4.035   5.830   8.405  0.1952  0.0544 -0.0207
  111POPC   C1A 1758   3.995   5.332   7.958 -0.1421  0.3002  0.0460
  111POPC   D2A 1759   4.213   5.335   7.703  0.1842  0.0359  0.3063
  111POPC   C3A 1760   4.195   5.210   7.320  0.1566  0.0180 -0.0151
  111POPC   C4A 1761   4.120   5.429   6.971 -0.0833  0.2091  0.1960
  111POPC   C1B 1762   4.178   5.797   7.937 -0.1747  0.1040 -0.1859
  111POPC   C2B 1763   4.227   5.751   7.393  0.3078  0.0443  0.4997
  111POPC   C3B 1764   4.020   5.910   6.931  0.1501  0.0082 -0.2524
  111POPC   C4B 1765   4.208   6.079   6.524 -0.1208 -0.1601 -0.2369
  112POPC   NC3 1766   2.744   8.236   9.080 -0.1914  0.1251  0.0438
  112POPC   PO4 1767   2.610   8.658   8.994 -0.0141 -0.1308 -0.2534
  112POPC   GL1 1768   2.602   8.528   8.594  0.0869 -0.0051  0.2648
  112POPC   GL2 1769   2.998   8.452   8.537  0.0595  0.0534  0.0397
  112POPC   C1A 1770   2.506   8.633   8.191  0.1407 -0.0941  0.1345
  112POPC   D2A 1771   2.158   8.793   7.918  0.1093 -0.0371 -0.3328
  112POPC   C3A 1772   2.067   9.217   8.172 -0.0796 -0.1716 -0.1790
  112POPC   C4A 1773   1.782   9.525   8.377 -0.1301  0.1118 -0.1709
  112POPC   C1B 1774   2.914   8.264   8.220 -0.1449 -0.0596 -0.1166
  112POPC   C2B 1775   2.812   8.075   7.900 -0.1429  0.0063  0.0450
  112POPC   C3B 1776   2.670   7.976   7.618 -0.0377  0.3100 -0.0616
  112POPC   C4B 1777   2.493   7.597   7.478  0.1616  0.1502 -0.0986
  113POPC   NC3 1778   9.770   6.143   9.965 -0.1058 -0.0488  0.0747
  113POPC   PO4 1779   9.922   6.168   9.567  0.1114 -0.2386 -0.0106
  113POPC   GL1 1780   9.708   6.185   9.259 -0.0423  0.0696 -0.0752
  113POPC   GL2 1781   9.590   6.512   9.119 -0.2870  0.1352 -0.4496
  113POPC   C1A 1782   9.429   5.951   8.911 -0.1262  0.0869  0.1464
  113POPC   D2A 1783   9.152   5.745   8.533 -0.1174  0.0074  0.0417
  113POPC   C3A 1784   9.189   5.796   8.109  0.3367 -0.3112  0.0858
  113POPC   C4A 1785   9.420   5.766   7.616  0.1553  0.1860 -0.0965
  113POPC   C1B 1786   9.799   6.517   8.718  0.1773 -0.0698  0.0560
  113POPC   C2B 1787  10.107   6.807   8.494 -0.0256  0.1369  0.0797
  113POPC   C3B 1788   9.899   7.067   8.068  0.0239 -0.1477  0.0160
  113POPC   C4B 1789  10.128   7.258   7.659 -0.0312 -0.1675 -0.0646
  114POPC   NC3 1790   6.857   7.207   9.379  0.0769  0.2117  0.2629
  114POPC   PO4 1791   7.146   7.077   9.162 -0.1658 -0.2405 -0.0072
  114POPC   GL1 1792   7.094   6.891   8.707  0.2703  0.0160  0.0423
  114POPC   GL2 1793   6.767   6.997   8.529  0.0512  0.1784  0.0845
  114POPC   C1A 1794   7.278   6.969   8.307  0.0129 -0.2471 -0.1540
  114POPC   D2A 1795   7.624   7.115   8.083  0.1878 -0.4152  0.0617
  114POPC   C3A 1796   7.653   7.266   7.726  0.0476  0.0727  0.1516
  114POPC   C4A 1797   7.435   7.138   7.308 -0.2017  0.2670 -0.0522
  114POPC   C1B 1798   6.899   7.108   8.033  0.3350  0.1723 -0.0479
  114POPC   C2B 1799   6.857   7.106   7.554 -0.1037 -0.1712  0.2078
  114POPC   C3B 1800   7.017   6.880   7.175  0.3262 -0.0302  0.0932
  114POPC   C4B 1801   7.384   6.665   7.002  0.3622  0.1932  0.2967
  115POPC   NC3 1802   2.077   1.776   8.374 -0.0880  0.0499  0.2579
  115POPC   PO4 1803   2.132   1.359   8.192 -0.1839  0.2797 -0.1184
  115POPC   GL1 1804   1.957   1.210   7.867 -0.1735  0.0278 -0.2320
  115POPC   GL2 1805   1.780   1.424   7.817 -0.0668 -0.1447  0.2484
  115POPC   C1A 1806   1.913   0.999   7.451  0.2488 -0.1050 -0.0701
  115POPC   D2A 1807   1.918   0.703   7.054 -0.0932 -0.0715  0.0771
  115POPC   C3A 1808   1.594   0.431   6.976 -0.0083 -0.1112  0.3846
  115POPC   C4A 1809   1.187   0.333   6.738 -0.1612 -0.0873 -0.2474
  115POPC   C1B 1810   1.884   1.490   7.276 -0.0297 -0.0864  0.1830
  115POPC   C2B 1811   2.067   1.486   6.787  0.0906 -0.1303 -0.0026
  115POPC   C3B 1812   2.142   1.785   6.548 -0.2424  0.1087  0.1800
  115POPC   C4B 1813   2.540   1.933   6.362 -0.1236 -0.2958 -0.1192
  116POPC   NC3 1814   1.555   2.967   8.502  0.0375  0.0373 -0.0657
  116POPC   PO4 1815   1.837   2.686   8.478  0.1657  0.0331 -0.0281
  116POPC   GL1 1816   1.803   2.724   8.045  0.4568 -0.2561  0.1960
  116POPC   GL2 1817   2.065   2.879   7.936 -0.0710  0.1723  0.2128
  116POPC   C1A 1818   1.530   2.823   7.720 -0.2955 -0.0399  0.0778
  116POPC   D2A 1819   1.241   3.009   7.476 -0.2850 -0.1493 -0.4904
  116POPC   C3A 1820   0.817   2.969   7.300 -0.0218 -0.0463 -0.1292
  116POPC   C4A 1821   0.417   2.876   7.069 -0.0443 -0.0923  0.2442
  116POPC   C1B 1822   2.001   2.978   7.553  0.1682 -0.1973 -0.0899
  116POPC   C2B 1823   2.122   2.826   7.184 -0.0589 -0.0222 -0.0566
  116POPC   C3B 1824   2.156   2.491   6.894  0.3633 -0.4120 -0.0713
  116POPC   C4B 1825   1.884   2.261   6.502 -0.0636 -0.0861  0.2070
  117POPC   NC3 1826   2.227   8.694   9.321  0.1320  0.0082  0.0442
  117POPC   PO4 1827   1.805   8.928   9.424  0.1373  0.1068  0.0425
  117POPC   GL1 1828   1.670   9.169   9.111  0.1242  0.0629 -0.1255
  117POPC   GL2 1829   1.986   9.338   8.950 -0.1375  0.0676  0.3056
  117POPC   C1A 1830   1.456   9.204   8.762 -0.1148  0.1090  0.2264
  117POPC   D2A 1831   1.581   9.046   8.296 -0.2601  0.0124  0.1732
  117POPC   C3A 1832   1.219   8.912   8.216 -0.0954  0.0417 -0.0201
  117POPC   C4A 1833   0.998   8.786   7.867  0.0915 -0.1444  0.1545
  117POPC   C1B 1834   1.923   9.001   8.716  0.0251 -0.1149  0.1679
  117POPC   C2B 1835   1.934   8.764   8.440  0.0894  0.0715 -0.1275
  117POPC   C3B 1836   1.690   8.647   8.053 -0.0999  0.0791  0.2193
  117POPC   C4B 1837   1.356   8.462   7.837  0.2782 -0.1430 -0.0695
  118POPC   NC3 1838   6.446   8.902   8.466 -0.1433  0.0550  0.2875
  118POPC   PO4 1839   6.753   9.236   8.488  0.1031 -0.2575 -0.1628
  118POPC   GL1 1840   6.716   8.984   8.095 -0.5566  0.0246  0.2518
  118POPC   GL2 1841   6.550   8.510   8.098 -0.0418 -0.0877  0.0463
  118POPC   C1A 1842   6.866   8.995   7.653 -0.3647  0.0250 -0.2242
  118POPC   D2A 1843   7.130   8.910   7.433  0.1642  0.2229  0.2088
  118POPC   C3A 1844   7.350   8.503   7.294  0.0708  0.0138  0.1555
  118POPC   C4A 1845   7.412   8.070   7.186 -0.1229  0.0500  0.1595
  118POPC   C1B 1846   6.465   8.719   7.756 -0.0186 -0.0315  0.2213
  118POPC   C2B 1847   6.361   8.620   7.293 -0.2336  0.0411 -0.0085
  118POPC   C3B 1848   6.108   8.466   6.982  0.2153  0.0386 -0.1233
  118POPC   C4B 1849   5.999   8.069   6.732 -0.1813 -0.0650  0.0690
  119POPC   NC3 1850   6.284   0.858   7.995 -0.3381  0.1612  0.0094
  119POPC   PO4 1851   6.086   1.288   8.111  0.1429 -0.3299  0.1886
  119POPC   GL1 1852   6.326   1.309   7.631 -0.0717  0.3812 -0.0189
  119POPC   GL2 1853   6.615   1.094   7.623 -0.0010 -0.0169  0.0668
  119POPC   C1A 1854   6.223   1.277   7.237  0.2136 -0.1779 -0.3361
  119POPC   D2A 1855   6.234   1.284   6.866  0.1575 -0.2444 -0.2699
  119POPC   C3A 1856   6.041   1.597   6.743 -0.1867  0.0568  0.0856
  119POPC   C4A 1857   5.663   1.917   6.677 -0.1746 -0.0624 -0.0728
  119POPC   C1B 1858   6.630   0.939   7.241 -0.0933  0.1994 -0.3629
  119POPC   C2B 1859   6.565   0.860   6.781 -0.1596 -0.0774  0.0249
  119POPC   C3B 1860   6.361   0.942   6.476 -0.0441 -0.0155  0.5240
  119POPC   C4B 1861   5.996   0.987   6.479  0.2256 -0.1700 -0.0013
  120POPC   NC3 1862   8.805   2.773   8.585  0.1222  0.1863 -0.0249
  120POPC   PO4 1863   8.961   2.882   8.186  0.0850 -0.1845  0.1135
  120POPC   GL1 1864   9.010   3.023   7.784 -0.0742 -0.3196  0.0187
  120POPC   GL2 1865   9.264   2.932   7.574 -0.0475  0.2425 -0.0293
  120POPC   C1A 1866   8.905   3.368   7.465 -0.0089 -0.1109  0.0175
  120POPC   D2A 1867   9.044   3.361   6.943  0.1907  0.0261 -0.1147
  120POPC   C3A 1868   9.133   3.701   6.549 -0.3358  0.1796 -0.0232
  120POPC   C4A 1869   9.316   3.930   6.300  0.0260  0.1873 -0.3780
  120POPC   C1B 1870   9.159   2.973   7.175  0.0276 -0.1761  0.0479
  120POPC   C2B 1871   8.898   2.818   6.927 -0.0353  0.0046  0.0208
  120POPC   C3B 1872   8.615   2.616   6.962  0.0657  0.0494 -0.2710
  120POPC   C4B 1873   8.255   2.775   7.152 -0.3198  0.1370  0.0567
  121POPC   NC3 1874   7.087   6.472   9.093 -0.1681 -0.3214  0.0457
  121POPC   PO4 1875   7.202   6.043   9.284 -0.0206 -0.0547  0.0308
  121POPC   GL1 1876   7.145   6.010   8.826  0.0294  0.1655  0.1858
  121POPC   GL2 1877   6.917   5.864   8.728 -0.1456  0.1395 -0.0520
  121POPC   C1A 1878   7.388   5.732   8.561  0.1235 -0.2066 -0.0386
  121POPC   D2A 1879   7.571   5.805   8.191  0.1375 -0.0302 -0.1627
  121POPC   C3A 1880   7.242   5.845   7.902 -0.1650 -0.0003  0.0990
  121POPC   C4A 1881   6.962   5.887   7.594 -0.0030 -0.2397  0.1537
  121POPC   C1B 1882   6.900   5.951   8.231 -0.0662  0.2486  0.2231
  121POPC   C2B 1883   6.919   6.295   7.981  0.1141  0.0929 -0.0202
  121POPC   C3B 1884   7.115   6.573   7.929  0.1106  0.3378 -0.0240
  121POPC   C4B 1885   7.264   6.933   7.756 -0.2876  0.2132  0.2008
  122POPC   NC3 1886   4.299   0.974   8.079  0.1466  0.1776 -0.0721
  122POPC   PO4 1887   4.614   1.385   8.116  0.2039  0.1289 -0.2874
  122POPC   GL1 1888   4.375   1.515   7.729 -0.3363 -0.2735 -0.1165
  122POPC   GL2 1889   4.542   1.865   7.796 -0.1318  0.0703 -0.2745
  122POPC   C1A 1890   4.203   1.522   7.369 -0.0696  0.0832  0.0642
  122POPC   D2A 1891   3.872   1.667   7.113 -0.0886  0.1743  0.0445
  122POPC   C3A 1892   3.765   1.921   6.795 -0.3242  0.1515  0.3420
  122POPC   C4A 1893   3.871   1.885   6.432  0.1889 -0.2821  0.3241
  122POPC   C1B 1894   4.773   1.661   7.386  0.0533  0.1591  0.1911
  122POPC   C2B 1895   4.949   1.371   7.273  0.2344  0.1413 -0.0089
  122POPC   C3B 1896   4.811   1.052   7.007  0.1312  0.3472  0.0801
  122POPC   C4B 1897   5.041   0.804   6.742 -0.0479 -0.1393 -0.0275
  123POPC   NC3 1898   6.408   3.579   8.091 -0.0053 -0.3901  0.0413
  123POPC   PO4 1899   6.722   3.322   7.865  0.3828  0.0102  0.2282
  123POPC   GL1 1900   6.878   3.249   7.501 -0.1365  0.1500  0.0896
  123POPC   GL2 1901   7.030   2.904   7.466  0.1217 -0.3510  0.0123
  123POPC   C1A 1902   6.820   3.354   7.108  0.2148 -0.3142  0.0871
  123POPC   D2A 1903   6.598   3.300   6.704  0.0212 -0.0165  0.2100
  123POPC   C3A 1904   6.340   3.579   6.562 -0.3141  0.3422  0.0868
  123POPC   C4A 1905   6.139   3.793   6.330 -0.0959  0.0528 -0.1642
  123POPC   C1B 1906   7.075   3.005   6.995 -0.3624 -0.0759  0.1729
  123POPC   C2B 1907   6.957   2.965   6.648  0.0386 -0.0926 -0.0171
  123POPC   C3B 1908   6.620   2.768   6.478 -0.0460 -0.0133 -0.1511
  123POPC   C4B 1909   6.286   2.962   6.467 -0.0985  0.2375  0.0297
  124POPC   NC3 1910   7.667   4.032   8.451  0.0617  0.0777  0.0118
  124POPC   PO4 1911   7.266   3.969   8.323 -0.0781 -0.0386 -0.1911
  124POPC   GL1 1912   7.655   4.121   7.969  0.0509  0.1725 -0.2446
  124POPC   GL2 1913   7.438   4.334   7.908 -0.2215  0.0251 -0.0740
  124POPC   C1A 1914   8.022   4.042   7.647 -0.0453  0.0869  0.1141
  124POPC   D2A 1915   8.079   4.177   7.251 -0.0307  0.1423 -0.0869
  124POPC   C3A 1916   7.803   4.243   6.975  0.0667 -0.2537  0.0494
  124POPC   C4A 1917   7.406   4.127   6.836  0.4120  0.0758 -0.2787
  124POPC   C1B 1918   7.660   4.399   7.489  0.1021 -0.0350 -0.0167
  124POPC   C2B 1919   7.830   4.695   7.153  0.1659  0.2362  0.2098
  124POPC   C3B 1920   8.283   4.661   7.042  0.0626 -0.2472  0.1510
  124POPC   C4B 1921   8.716   4.717   6.777  0.0380  0.1911  0.0533
  125POPC   NC3 1922   9.496   0.641   8.308  0.1189  0.0917 -0.0402
  125POPC   PO4 1923   9.451   1.121   8.089  0.2630 -0.1811  0.0106
  125POPC   GL1 1924   9.244   1.172   7.755  0.1138  0.1634 -0.2473
  125POPC   GL2 1925   9.218   1.222   7.424 -0.0553  0.0706  0.1915
  125POPC   C1A 1926   9.069   0.751   7.498 -0.1916  0.0598  0.1498
  125POPC   D2A 1927   9.227   0.350   7.330 -0.0497 -0.0958 -0.1062
  125POPC   C3A 1928   9.141   0.184   6.955  0.1085 -0.1621 -0.0347
  125POPC   C4A 1929   9.094   0.258   6.392  0.2245 -0.1313 -0.0992
  125POPC   C1B 1930   9.507   1.215   7.154  0.1278  0.2488  0.1469
  125POPC   C2B 1931   9.690   0.943   6.923 -0.2614  0.1321 -0.2232
  125POPC   C3B 1932   9.922   0.911   6.413 -0.1620  0.0528  0.0654
  125POPC   C4B 1933  10.082   0.577   6.130 -0.1054 -0.1794 -0.3473
  126POPC   NC3 1934   3.699   1.607   8.092 -0.3464 -0.2213 -0.0117
  126POPC   PO4 1935   4.029   1.388   8.190 -0.0679 -0.2156  0.1972
  126POPC   GL1 1936   3.712   1.124   7.993  0.0166 -0.1066 -0.1564
  126POPC   GL2 1937   3.945   1.091   7.738 -0.2281  0.2096  0.1409
  126POPC   C1A 1938   3.620   0.726   7.763  0.1268  0.2584 -0.1724
  126POPC   D2A 1939   3.775   0.364   7.769  0.2592  0.0526  0.2259
  126POPC   C3A 1940   3.805   0.287   7.307  0.0217  0.1242 -0.2247
  126POPC   C4A 1941   3.985   0.297   6.889 -0.1638  0.0216 -0.0602
  126POPC   C1B 1942   3.737   1.223   7.326  0.0284 -0.4126  0.0410
  126POPC   C2B 1943   3.630   1.252   6.795  0.1129 -0.1135 -0.1783
  126POPC   C3B 1944   3.656   1.296   6.406 -0.0556  0.1432  0.2209
  126POPC   C4B 1945   3.436   1.728   6.235 -0.2023  0.2671  0.0283
  127POPC   NC3 1946   5.272   2.007   8.318  0.1755 -0.2145  0.2711
  127POPC   PO4 1947   5.079   2.205   7.941 -0.0834 -0.2164 -0.1458
  127POPC   GL1 1948   4.870   2.261   7.573  0.1273 -0.0080  0.2445
  127POPC   GL2 1949   4.593   2.535   7.565  0.1261 -0.1373  0.0402
  127POPC   C1A 1950   4.519   2.091   7.265  0.3062  0.1458  0.0548
  127POPC   D2A 1951   4.310   1.833   6.986  0.1783 -0.0003  0.2450
  127POPC   C3A 1952   4.334   1.897   6.543 -0.1429 -0.4676 -0.1576
  127POPC   C4A 1953   4.653   1.791   6.344 -0.2313 -0.3999  0.0431
  127POPC   C1B 1954   4.591   2.521   7.118  0.3536 -0.1982  0.2298
  127POPC   C2B 1955   4.641   2.767   6.815  0.0398  0.1320  0.0931
  127POPC   C3B 1956   4.727   2.860   6.372  0.6998  0.0973 -0.1453
  127POPC   C4B 1957   4.563   2.729   5.984 -0.0431 -0.1872 -0.1692
  128POPC   NC3 1958   7.939   3.590   8.172  0.0026 -0.0392 -0.0471
  128POPC   PO4 1959   8.439   3.626   8.272 -0.0672 -0.0201 -0.0203
  128POPC   GL1 1960   8.333   3.647   7.863 -0.4358  0.2166 -0.1510
  128POPC   GL2 1961   8.493   3.275   7.698 -0.0110 -0.1633  0.3544
  128POPC   C1A 1962   8.419   3.643   7.328  0.2586  0.0470  0.0250
  128POPC   D2A 1963   8.117   3.571   7.021 -0.2278 -0.0326  0.3910
  128POPC   C3A 1964   7.969   3.443   6.566 -0.1576  0.0055  0.2885
  128POPC   C4A 1965   8.118   3.556   6.148  0.2716  0.1422 -0.3886
  128POPC   C1B 1966   7.992   3.295   7.413 -0.0622  0.0738 -0.1811
  128POPC   C2B 1967   7.741   3.169   7.043  0.2013 -0.2582 -0.1701
  128POPC   C3B 1968   7.518   3.181   6.586  0.1396 -0.0469 -0.0595
  128POPC   C4B 1969   7.370   2.881   6.300  0.0893 -0.1400  0.0893
  129POPC   NC3 1970   2.956   1.869   8.300  0.0192 -0.2685 -0.0485
  129POPC   PO4 1971   3.204   1.989   8.003 -0.2049 -0.3691 -0.1350
  129POPC   GL1 1972   3.316   1.787   7.596  0.1437 -0.1201 -0.3100
  129POPC   GL2 1973   3.703   1.702   7.564 -0.0609 -0.1372 -0.1972
  129POPC   C1A 1974   3.282   1.674   7.119 -0.3108 -0.0560 -0.2902
  129POPC   D2A 1975   3.207   1.688   6.701 -0.2417 -0.1332  0.1877
  129POPC   C3A 1976   2.992   1.484   6.337 -0.1925 -0.0225 -0.1213
  129POPC   C4A 1977   2.628   1.302   6.331  0.1382  0.1946  0.0905
  129POPC   C1B 1978   3.599   2.131   7.264  0.0220  0.1038  0.0185
  129POPC   C2B 1979   3.322   2.535   7.161  0.0359  0.3019 -0.1679
  129POPC   C3B 1980   3.379   2.740   6.794  0.0809  0.0823 -0.2798
  129POPC   C4B 1981   3.707   3.050   6.635  0.0324  0.2535 -0.3514
  130POPC   NC3 1982   2.250   0.816   8.493 -0.0256 -0.2023  0.0010
  130POPC   PO4 1983   2.653   0.752   8.359  0.3513  0.0607 -0.0704
  130POPC   GL1 1984   2.529   0.969   8.025  0.0264  0.4365  0.2125
  130POPC   GL2 1985   2.328   0.694   7.906  0.2681  0.1431 -0.1699
  130POPC   C1A 1986   2.442   1.063   7.584  0.1344 -0.2645  0.3066
  130POPC   D2A 1987   2.263   1.022   7.137  0.1503 -0.2402 -0.4390
  130POPC   C3A 1988   2.500   1.182   6.814  0.3871  0.1703 -0.1812
  130POPC   C4A 1989   2.650   1.610   6.740  0.0325 -0.0463  0.1269
  130POPC   C1B 1990   2.657   0.584   7.698 -0.0513  0.1119  0.0525
  130POPC   C2B 1991   2.736   0.276   7.350  0.1133  0.2204  0.3824
  130POPC   C3B 1992   2.732   0.326   6.923 -0.3769 -0.0412 -0.0022
  130POPC   C4B 1993   2.319   0.534   6.739 -0.0601  0.1427 -0.0541
  131POPC   NC3 1994   0.901   8.096   9.780 -0.1508  0.2859 -0.0099
  131POPC   PO4 1995   0.482   8.317   9.462 -0.1348  0.3058  0.0586
  131POPC   GL1 1996   0.162   8.342   9.111 -0.0680  0.0447  0.1056
  131POPC   GL2 1997  -0.142   8.340   9.082 -0.1343  0.0428  0.0043
  131POPC   C1A 1998   0.103   8.104   8.753 -0.1166  0.3227 -0.0992
  131POPC   D2A 1999   0.351   7.839   8.641  0.2203  0.2287 -0.0166
  131POPC   C3A 2000   0.781   7.950   8.448  0.3979  0.0905 -0.3611
  131POPC   C4A 2001   1.137   7.712   8.166  0.0098 -0.0484  0.0345
  131POPC   C1B 2002  -0.251   7.884   9.098 -0.1460 -0.0599 -0.1178
  131POPC   C2B 2003   0.066   7.457   8.982 -0.3058  0.0675 -0.3442
  131POPC   C3B 2004   0.489   7.292   8.948 -0.1285 -0.2802  0.1738
  131POPC   C4B 2005   0.632   7.078   8.593 -0.1475 -0.0622  0.0640
  132POPC   NC3 2006   0.092   9.280   9.313  0.2308 -0.2241 -0.0226
  132POPC   PO4 2007  -0.102   9.580   9.167  0.3055 -0.1868  0.0868
  132POPC   GL1 2008  -0.462   9.604   8.744 -0.2030 -0.2367 -0.2995
  132POPC   GL2 2009  -0.787   9.289   8.733 -0.2118  0.5331  0.1267
  132POPC   C1A 2010  -0.533   9.428   8.310  0.0734 -0.0813 -0.0392
  132POPC   D2A 2011  -0.933   9.268   8.121  0.0293  0.0376  0.1003
  132POPC   C3A 2012  -1.064   9.362   7.692  0.0493 -0.2274  0.1225
  132POPC   C4A 2013  -1.035   9.308   7.172 -0.3035  0.1312  0.0550
  132POPC   C1B 2014  -0.588   8.888   8.787 -0.0383  0.1746  0.2841
  132POPC   C2B 2015  -0.309   8.564   8.657 -0.3567 -0.0332  0.0972
  132POPC   C3B 2016  -0.171   8.331   8.338  0.1577 -0.1961  0.0206
  132POPC   C4B 2017  -0.109   8.118   7.983 -0.0077 -0.5042  0.0743
  133POPC   NC3 2018   2.502   7.171   9.069 -0.0415 -0.2397 -0.2043
  133POPC   PO4 2019   2.932   7.024   8.988  0.0589  0.2583 -0.0245
  133POPC   GL1 2020   2.819   6.981   8.613  0.3137 -0.0451  0.0061
  133POPC   GL2 2021   3.003   6.694   8.381  0.1637  0.0386  0.1492
  133POPC   C1A 2022   2.967   7.219   8.265 -0.2061 -0.1916  0.0010
  133POPC   D2A 2023   2.887   7.730   8.223 -0.0570  0.0290  0.0820
  133POPC   C3A 2024   2.486   7.854   8.275  0.2422 -0.3518 -0.2587
  133POPC   C4A 2025   2.213   7.868   8.464  0.0155 -0.1671 -0.2118
  133POPC   C1B 2026   2.618   6.563   8.387 -0.0584 -0.0347  0.0541
  133POPC   C2B 2027   2.267   6.307   8.149  0.1064  0.0368  0.0119
  133POPC   C3B 2028   1.909   5.985   8.242  0.2013 -0.1779  0.1442
  133POPC   C4B 2029   1.541   5.679   8.308 -0.3936 -0.0685 -0.1200
  134POPC   NC3 2030   0.604   4.197   8.940 -0.2340  0.1127  0.0359
  134POPC   PO4 2031   0.464   4.358   8.565  0.0069 -0.4951 -0.0551
  134POPC   GL1 2032   0.468   4.533   8.169  0.0924  0.2238 -0.0332
  134POPC   GL2 2033   0.595   4.183   8.059  0.2322 -0.2842  0.2932
  134POPC   C1A 2034   0.098   4.455   7.830 -0.1747 -0.0225  0.0328
  134POPC   D2A 2035  -0.017   4.667   7.481  0.1810  0.0535 -0.0245
  134POPC   C3A 2036   0.017   5.005   7.303  0.1755 -0.1539 -0.0301
  134POPC   C4A 2037   0.445   5.153   7.067 -0.1578 -0.0123  0.2292
  134POPC   C1B 2038   0.449   4.313   7.561  0.2108 -0.2761  0.1489
  134POPC   C2B 2039   0.430   4.594   7.149  0.0915 -0.1568  0.0215
  134POPC   C3B 2040   0.563   4.721   6.699 -0.0700 -0.0682  0.0795
  134POPC   C4B 2041   0.544   4.545   6.293 -0.0742 -0.0763  0.1690
  135POPC   NC3 2042   8.110   0.894   8.541 -0.1324  0.0433 -0.0955
  135POPC   PO4 2043   8.489   0.651   8.479  0.0154 -0.1525 -0.0099
  135POPC   GL1 2044   8.450   0.763   8.053  0.0034  0.1927  0.2735
  135POPC   GL2 2045   8.789   0.706   7.885 -0.1227  0.0617  0.1005
  135POPC   C1A 2046   8.142   0.691   7.754 -0.1071 -0.2056 -0.1115
  135POPC   D2A 2047   7.730   0.686   7.724 -0.0603  0.3027 -0.0377
  135POPC   C3A 2048   7.531   0.387   7.403  0.0271 -0.1070 -0.1550
  135POPC   C4A 2049   7.269   0.489   7.107  0.1153 -0.0085  0.2249
  135POPC   C1B 2050   8.531   0.830   7.491 -0.0556  0.1657 -0.0174
  135POPC   C2B 2051   8.341   0.720   7.079 -0.0423 -0.0535  0.1788
  135POPC   C3B 2052   8.297   0.602   6.608  0.0993 -0.0537  0.4131
  135POPC   C4B 2053   8.191   0.407   6.247 -0.1592 -0.0464  0.2361
  136POPC   NC3 2054   9.383   4.211   8.516 -0.2303 -0.1801  0.2490
  136POPC   PO4 2055   9.351   4.318   8.936  0.1449  0.0639 -0.1601
  136POPC   GL1 2056   9.469   4.674   8.628 -0.1635 -0.5235  0.2161
  136POPC   GL2 2057   9.388   4.654   8.255 -0.1730  0.2042  0.0298
  136POPC   C1A 2058   9.574   5.121   8.463 -0.1395  0.1309 -0.1934
  136POPC   D2A 2059   9.548   5.294   8.048 -0.1384 -0.1413 -0.3239
  136POPC   C3A 2060   9.909   5.279   7.724 -0.0872 -0.0048 -0.1223
  136POPC   C4A 2061  10.230   4.908   7.773 -0.2851  0.0010 -0.3021
  136POPC   C1B 2062   9.157   4.762   7.870 -0.1352  0.2339  0.3282
  136POPC   C2B 2063   9.168   4.818   7.374 -0.0432  0.0359 -0.1157
  136POPC   C3B 2064   9.170   4.978   7.010 -0.2996 -0.0039  0.0086
  136POPC   C4B 2065   9.373   5.316   6.791 -0.1059  0.0868 -0.2403
  137POPC   NC3 2066   5.054   1.170   8.091  0.0084  0.2015 -0.2409
  137POPC   PO4 2067   5.357   0.894   7.795  0.0720 -0.0200  0.3211
  137POPC   GL1 2068   5.199   0.942   7.341  0.0033 -0.0771  0.0023
  137POPC   GL2 2069   4.935   0.763   7.421 -0.0189 -0.0735 -0.0225
  137POPC   C1A 2070   5.381   1.301   7.002  0.4177  0.0185 -0.3883
  137POPC   D2A 2071   5.351   1.547   6.565 -0.1468 -0.1420 -0.0743
  137POPC   C3A 2072   5.027   1.456   6.289 -0.1339  0.4057  0.2660
  137POPC   C4A 2073   4.692   1.203   6.373  0.0458 -0.0061 -0.0616
  137POPC   C1B 2074   4.483   0.672   7.098 -0.1379  0.3580 -0.0554
  137POPC   C2B 2075   4.355   0.586   6.655  0.2391 -0.2140  0.1630
  137POPC   C3B 2076   4.170   0.492   6.423 -0.2355 -0.0696  0.2148
  137POPC   C4B 2077   4.110   0.092   6.131 -0.3128 -0.1636 -0.1701
  138POPC   NC3 2078   5.059   7.669   8.623  0.3245  0.2014  0.2937
  138POPC   PO4 2079   5.071   7.320   8.836  0.2470  0.0067 -0.0587
  138POPC   GL1 2080   5.030   7.157   8.471  0.1295 -0.1140  0.0761
  138POPC   GL2 2081   5.384   7.176   8.302 -0.0058 -0.0635  0.2927
  138POPC   C1A 2082   4.892   7.180   8.004 -0.3204  0.0750  0.1867
  138POPC   D2A 2083   4.905   7.145   7.582 -0.0990 -0.0129 -0.2212
  138POPC   C3A 2084   4.884   6.816   7.265 -0.0360 -0.1875  0.0648
  138POPC   C4A 2085   4.659   6.877   6.944 -0.1123  0.0649 -0.1420
  138POPC   C1B 2086   5.435   7.283   7.889  0.0041  0.0741  0.0372
  138POPC   C2B 2087   5.368   6.959   7.582 -0.2478  0.1464  0.1021
  138POPC   C3B 2088   5.427   6.692   7.231 -0.1050  0.1902  0.1154
  138POPC   C4B 2089   5.754   6.325   7.198 -0.1270  0.3182 -0.1431
  139POPC   NC3 2090   8.107   4.342   9.109 -0.0376  0.0673 -0.0536
  139POPC   PO4 2091   7.957   4.460   8.625  0.0242  0.1380 -0.0778
  139POPC   GL1 2092   7.818   4.510   8.244  0.4887  0.4317  0.1302
  139POPC   GL2 2093   7.692   4.833   8.143 -0.2297  0.3640  0.0651
  139POPC   C1A 2094   8.077   4.653   7.902 -0.2211 -0.0741 -0.1790
  139POPC   D2A 2095   8.184   4.866   7.450  0.1644  0.0397  0.0498
  139POPC   C3A 2096   8.080   5.236   7.139 -0.1025  0.1372  0.1273
  139POPC   C4A 2097   7.856   5.057   6.746  0.0480  0.0950 -0.0036
  139POPC   C1B 2098   7.668   4.855   7.734 -0.1832 -0.3188 -0.1408
  139POPC   C2B 2099   7.630   5.130   7.450  0.3239  0.1550  0.0098
  139POPC   C3B 2100   7.534   5.251   7.095  0.0434  0.1990  0.0278
  139POPC   C4B 2101   7.559   5.447   6.578  0.0125  0.0571 -0.0275
  140POPC   NC3 2102   4.755   8.227   8.443  0.1953 -0.1520  0.3305
  140POPC   PO4 2103   5.157   8.410   8.584 -0.0209 -0.2400 -0.0564
  140POPC   GL1 2104   5.144   8.459   8.134 -0.1048 -0.2676 -0.0818
  140POPC   GL2 2105   5.344   8.180   7.979  0.3553  0.1513 -0.1190
  140POPC   C1A 2106   4.944   8.590   7.764  0.2120 -0.1719 -0.2963
  140POPC   D2A 2107   4.584   8.588   7.542  0.3561 -0.0968 -0.2496
  140POPC   C3A 2108   4.494   8.238   7.274  0.1085 -0.0751  0.3026
  140POPC   C4A 2109   4.395   8.101   6.827 -0.5783 -0.2010 -0.0340
  140POPC   C1B 2110   5.347   8.332   7.470 -0.0162 -0.1860  0.0216
  140POPC   C2B 2111   5.220   8.432   7.138 -0.1545 -0.0159 -0.0552
  140POPC   C3B 2112   5.107   8.530   6.796  0.5317 -0.1920 -0.0330
  140POPC   C4B 2113   5.223   8.968   6.774 -0.0413  0.1526 -0.0527
  141POPC   NC3 2114   9.694   2.720   8.751 -0.0636  0.4648 -0.1753
  141POPC   PO4 2115   9.725   2.440   8.358 -0.1545 -0.2454 -0.1581
  141POPC   GL1 2116   9.761   2.468   7.977 -0.0339  0.1518  0.0999
  141POPC   GL2 2117   9.901   2.733   7.852  0.2170 -0.1784  0.1954
  141POPC   C1A 2118   9.703   2.362   7.558 -0.2285 -0.0808  0.2056
  141POPC   D2A 2119   9.910   2.105   7.196 -0.1680 -0.2042 -0.1625
  141POPC   C3A 2120   9.739   2.052   6.749 -0.0165 -0.0599  0.0518
  141POPC   C4A 2121   9.419   2.139   6.544 -0.0309 -0.1246 -0.1193
  141POPC   C1B 2122  10.014   3.022   7.549 -0.0823 -0.2075 -0.2460
  141POPC   C2B 2123   9.920   3.490   7.500  0.3173 -0.0067 -0.0939
  141POPC   C3B 2124  10.019   3.725   7.269  0.2756 -0.0592 -0.3958
  141POPC   C4B 2125  10.050   3.731   6.844  0.4403 -0.1358  0.5624
  142POPC   NC3 2126   7.026   1.975   7.753  0.1129  0.1479  0.0166
  142POPC   PO4 2127   6.629   1.677   7.794  0.3251  0.1350 -0.0118
  142POPC   GL1 2128   6.515   1.845   7.391  0.0142 -0.3610  0.0946
  142POPC   GL2 2129   6.779   2.052   7.213 -0.0455 -0.1889 -0.0972
  142POPC   C1A 2130   6.572   1.574   7.051 -0.2458  0.0462 -0.0872
  142POPC   D2A 2131   6.749   1.315   6.861 -0.2803 -0.1077  0.0010
  142POPC   C3A 2132   6.864   1.175   6.448  0.0305 -0.0091  0.0059
  142POPC   C4A 2133   6.860   1.406   5.992 -0.1355  0.3162 -0.0525
  142POPC   C1B 2134   6.418   2.421   7.108 -0.1787  0.0552  0.0606
  142POPC   C2B 2135   6.184   2.432   6.774  0.2064  0.1853  0.0666
  142POPC   C3B 2136   6.096   2.071   6.387 -0.0223 -0.1643  0.1647
  142POPC   C4B 2137   5.885   2.116   6.101  0.0946 -0.3441  0.2449
  143POPC   NC3 2138   7.860   1.452   8.049  0.0685 -0.4465  0.1910
  143POPC   PO4 2139   7.991   1.886   8.023  0.5001 -0.0612  0.0503
  143POPC   GL1 2140   8.015   2.112   7.740 -0.0571 -0.2714  0.0187
  143POPC   GL2 2141   8.304   1.990   7.611 -0.1418  0.3333 -0.0344
  143POPC   C1A 2142   8.075   2.286   7.359 -0.3370  0.5834  0.0685
  143POPC   D2A 2143   7.824   2.408   7.047  0.2436 -0.4109  0.1278
  143POPC   C3A 2144   7.827   2.737   6.738 -0.3043 -0.2373 -0.0340
  143POPC   C4A 2145   7.924   2.953   6.471 -0.0007 -0.0555  0.1588
  143POPC   C1B 2146   8.406   1.721   7.246 -0.3379 -0.0482 -0.0785
  143POPC   C2B 2147   8.512   1.583   6.964 -0.2974  0.0577 -0.2611
  143POPC   C3B 2148   8.303   1.554   6.603  0.1018 -0.2085 -0.0698
  143POPC   C4B 2149   8.125   1.352   6.277 -0.1207  0.3236  0.1463
  144POPC   NC3 2150   2.856   1.266   8.216  0.0763 -0.1264  0.0357
  144POPC   PO4 2151   2.542   1.594   8.257 -0.0226  0.0035 -0.0691
  144POPC   GL1 2152   2.264   1.713   7.905 -0.1748  0.0159 -0.4924
  144POPC   GL2 2153   2.010   1.887   7.779 -0.2062 -0.0486 -0.2228
  144POPC   C1A 2154   2.301   1.503   7.579  0.1382 -0.2244 -0.3365
  144POPC   D2A 2155   2.433   1.564   7.178  0.1492 -0.3250  0.0064
  144POPC   C3A 2156   2.838   1.779   7.224  0.1312 -0.3396  0.0272
  144POPC   C4A 2157   3.042   2.169   7.232  0.1411  0.3509 -0.2582
  144POPC   C1B 2158   2.348   1.977   7.445  0.3185  0.0548  0.1109
  144POPC   C2B 2159   2.450   2.017   6.947 -0.2581 -0.1748  0.1757
  144POPC   C3B 2160   2.819   2.062   6.733  0.2050  0.1130  0.0140
  144POPC   C4B 2161   3.044   2.022   6.348 -0.0197 -0.0121  0.1730
  145POPC   NC3 2162   4.299   6.241   8.980 -0.1356  0.0243  0.0059
  145POPC   PO4 2163   3.978   6.323   8.575 -0.3642 -0.1780 -0.2697
  145POPC   GL1 2164   4.096   6.273   8.164  0.2740 -0.2522 -0.0458
  145POPC   GL2 2165   3.783   6.126   8.082 -0.0312 -0.1584  0.0432
  145POPC   C1A 2166   4.124   6.437   7.741  0.2074  0.2179  0.1873
  145POPC   D2A 2167   4.065   6.207   7.318  0.3933 -0.2842 -0.0316
  145POPC   C3A 2168   3.862   6.402   6.906  0.2204  0.0203  0.2918
  145POPC   C4A 2169   3.344   6.557   6.902 -0.0658 -0.0258  0.2503
  145POPC   C1B 2170   3.685   6.194   7.625 -0.1244  0.0922 -0.0892
  145POPC   C2B 2171   3.585   6.217   7.303 -0.0542 -0.3346  0.1578
  145POPC   C3B 2172   3.532   6.026   6.904  0.0335  0.1447  0.0735
  145POPC   C4B 2173   3.617   5.886   6.520 -0.1094 -0.1635 -0.3107
  146POPC   NC3 2174   3.375   1.399   8.837 -0.3574 -0.0856 -0.0915
  146POPC   PO4 2175   3.321   1.408   8.386  0.3061  0.0139  0.1048
  146POPC   GL1 2176   3.202   1.375   7.900  0.2960  0.1052  0.1881
  146POPC   GL2 2177   3.374   1.249   7.651  0.0658 -0.0221 -0.0181
  146POPC   C1A 2178   2.856   1.440   7.519  0.3443  0.0563 -0.4207
  146POPC   D2A 2179   2.842   1.241   7.214 -0.1787  0.1161  0.2909
  146POPC   C3A 2180   3.050   1.211   6.786  0.0618 -0.0576  0.3023
  146POPC   C4A 2181   3.277   0.953   6.490  0.1099  0.0432 -0.0483
  146POPC   C1B 2182   3.274   1.000   7.267  0.0356 -0.4634  0.0302
  146POPC   C2B 2183   3.181   0.625   7.056 -0.0552  0.2237 -0.2470
  146POPC   C3B 2184   3.136   0.286   6.637  0.2645  0.0937 -0.2638
  146POPC   C4B 2185   2.981  -0.032   6.665  0.0296  0.4116 -0.2660
  147POPC   NC3 2186   6.226   9.681   8.798 -0.2397 -0.1834  0.0967
  147POPC   PO4 2187   6.282   9.472   8.401 -0.0571 -0.3229  0.3066
  147POPC   GL1 2188   6.268   9.182   8.061  0.1862  0.0410  0.1091
  147POPC   GL2 2189   5.987   8.984   7.804 -0.2109  0.0080 -0.0755
  147POPC   C1A 2190   6.413   9.209   7.671 -0.0812 -0.2187 -0.0434
  147POPC   D2A 2191   6.615   9.091   7.277  0.3540 -0.1819  0.1867
  147POPC   C3A 2192   6.679   9.453   6.913 -0.0578 -0.1471 -0.0678
  147POPC   C4A 2193   6.824   9.621   6.541 -0.1480  0.1728  0.1868
  147POPC   C1B 2194   6.046   9.015   7.376 -0.0276  0.0300  0.0984
  147POPC   C2B 2195   6.187   8.986   6.922 -0.1301 -0.0933  0.0667
  147POPC   C3B 2196   6.030   8.720   6.490  0.4179  0.0396 -0.3361
  147POPC   C4B 2197   6.069   8.339   6.226  0.0699  0.1125 -0.0006
  148POPC   NC3 2198   6.479   6.410   9.186 -0.0063 -0.1061 -0.0793
  148POPC   PO4 2199   6.197   6.688   8.933 -0.0690 -0.0607 -0.0189
  148POPC   GL1 2200   6.316   6.725   8.550 -0.0216  0.0932 -0.0774
  148POPC   GL2 2201   6.013   6.425   8.494 -0.0693  0.2298 -0.1315
  148POPC   C1A 2202   6.757   6.537   8.354 -0.1557  0.0136  0.2858
  148POPC   D2A 2203   7.147   6.361   8.469 -0.0164 -0.0740 -0.2547
  148POPC   C3A 2204   7.453   6.331   8.160  0.0858  0.0226 -0.1440
  148POPC   C4A 2205   7.646   6.300   7.727 -0.1339 -0.1507 -0.4714
  148POPC   C1B 2206   5.973   6.642   8.020 -0.1340 -0.2617  0.1614
  148POPC   C2B 2207   5.839   6.950   7.698 -0.1692 -0.1130 -0.0891
  148POPC   C3B 2208   5.824   7.310   7.413  0.0621  0.2458  0.0442
  148POPC   C4B 2209   5.698   7.670   7.303  0.3559  0.2298 -0.0714
  149POPC   NC3 2210   8.070   4.977   8.551 -0.0938 -0.3076  0.1484
  149POPC   PO4 2211   8.368   5.355   8.826 -0.0818  0.2002 -0.1305
  149POPC   GL1 2212   8.552   5.714   8.625  0.0622  0.0981  0.1058
  149POPC   GL2 2213   8.733   5.582   8.334 -0.1694 -0.2592 -0.0451
  149POPC   C1A 2214   8.740   6.075   8.410  0.0328  0.0290 -0.2943
  149POPC   D2A 2215   8.848   6.225   8.018 -0.0508  0.0818  0.1978
  149POPC   C3A 2216   8.479   6.096   7.732 -0.0185  0.2101 -0.0641
  149POPC   C4A 2217   8.323   5.988   7.416 -0.0736  0.1355 -0.0626
  149POPC   C1B 2218   8.736   5.635   7.903  0.1889  0.0802  0.1012
  149POPC   C2B 2219   8.906   5.797   7.602 -0.0842  0.0825  0.0719
  149POPC   C3B 2220   8.995   5.936   7.151  0.1500  0.1136 -0.0758
  149POPC   C4B 2221   8.605   6.138   6.817  0.0407  0.0638 -0.1284
  150POPC   NC3 2222   7.173   2.153   4.225  0.6317 -0.1663  0.2184
  150POPC   PO4 2223   6.891   1.883   4.362  0.5123  0.1876 -0.0845
  150POPC   GL1 2224   6.885   1.973   4.776  0.1562  0.0948 -0.0386
  150POPC   GL2 2225   7.171   2.120   4.811 -0.2580 -0.1143  0.0509
  150POPC   C1A 2226   6.961   1.674   5.027  0.0232 -0.0775  0.1283
  150POPC   D2A 2227   6.803   1.412   5.268 -0.1288  0.0274  0.1683
  150POPC   C3A 2228   6.999   1.158   5.557  0.1466 -0.4367  0.0146
  150POPC   C4A 2229   6.822   0.893   5.866  0.0427 -0.2211 -0.3202
  150POPC   C1B 2230   7.341   2.086   5.295  0.1282  0.6077 -0.0647
  150POPC   C2B 2231   7.429   2.101   5.759  0.2364  0.0631  0.1447
  150POPC   C3B 2232   7.367   2.472   5.975  0.0564  0.1673  0.1050
  150POPC   C4B 2233   7.093   2.512   6.357  0.3166 -0.2145 -0.0059
  151POPC   NC3 2234   7.883   1.728   4.493  0.3427  0.2035  0.2332
  151POPC   PO4 2235   7.634   2.160   4.464  0.1133  0.0292 -0.1016
  151POPC   GL1 2236   7.771   1.925   4.897 -0.0895 -0.0730 -0.2980
  151POPC   GL2 2237   7.645   1.843   5.066  0.0073  0.0244 -0.1482
  151POPC   C1A 2238   8.144   1.952   5.064  0.1878  0.0655 -0.0567
  151POPC   D2A 2239   8.590   1.773   5.117  0.0229  0.0650  0.4274
  151POPC   C3A 2240   8.346   1.365   5.270 -0.0795 -0.1857  0.2358
  151POPC   C4A 2241   8.039   1.441   5.137 -0.1685 -0.0722  0.3251
  151POPC   C1B 2242   7.804   1.730   5.524 -0.2219 -0.0251  0.0808
  151POPC   C2B 2243   7.785   1.676   5.945 -0.0476  0.1406 -0.0642
  151POPC   C3B 2244   7.635   1.346   6.214  0.1856  0.1299  0.1497
  151POPC   C4B 2245   7.275   1.497   6.444 -0.4252 -0.1430  0.2133
  152POPC   NC3 2246   2.769   3.191   4.933  0.3978 -0.0245  0.0910
  152POPC   PO4 2247   2.684   3.692   4.814 -0.2726 -0.2212  0.0552
  152POPC   GL1 2248   2.461   3.624   5.208 -0.3416  0.0518  0.0272
  152POPC   GL2 2249   2.805   3.790   5.420 -0.2317  0.1278 -0.2387
  152POPC   C1A 2250   2.527   3.333   5.549  0.0188 -0.1375 -0.1238
  152POPC   D2A 2251   2.504   3.247   5.960  0.0910 -0.0221  0.2141
  152POPC   C3A 2252   2.234   3.191   6.349  0.1050 -0.1664 -0.1776
  152POPC   C4A 2253   2.050   2.846   6.576  0.0568 -0.0750  0.1704
  152POPC   C1B 2254   3.075   3.849   5.781  0.2891 -0.0212 -0.2983
  152POPC   C2B 2255   3.455   3.934   6.042  0.0084  0.3095  0.2147
  152POPC   C3B 2256   3.695   3.961   6.408  0.0145 -0.2427 -0.2032
  152POPC   C4B 2257   4.031   4.043   6.703  0.0172  0.0772  0.0689
  153POPC   NC3 2258   1.854   4.557   4.406 -0.0866 -0.0197 -0.1884
  153POPC   PO4 2259   1.769   4.202   4.617  0.1154 -0.2159  0.0293
  153POPC   GL1 2260   1.516   4.376   4.934 -0.1769 -0.3453  0.2521
  153POPC   GL2 2261   1.647   4.683   4.942 -0.1262  0.0958 -0.1379
  153POPC   C1A 2262   1.306   4.613   5.313 -0.1456 -0.0375 -0.0459
  153POPC   D2A 2263   1.261   4.952   5.533 -0.1333 -0.1012 -0.0311
  153POPC   C3A 2264   1.240   4.867   5.927 -0.1647 -0.0041 -0.0503
  153POPC   C4A 2265   1.540   4.810   6.271  0.2117  0.1482  0.1217
  153POPC   C1B 2266   1.451   5.022   5.057 -0.4049  0.1873 -0.1533
  153POPC   C2B 2267   1.243   5.385   4.808  0.3309  0.1716  0.4104
  153POPC   C3B 2268   1.120   5.625   4.559 -0.0866  0.1262 -0.0334
  153POPC   C4B 2269   1.063   5.983   4.376 -0.1831  0.0719  0.0488
  154POPC   NC3 2270   7.618   0.442   4.740 -0.2111 -0.1262  0.0585
  154POPC   PO4 2271   7.290   0.563   4.848  0.4293  0.0435 -0.0045
  154POPC   GL1 2272   7.149   0.607   5.124 -0.3408 -0.0832  0.0516
  154POPC   GL2 2273   6.942   0.197   5.228  0.3393 -0.0057 -0.0166
  154POPC   C1A 2274   7.349   0.837   5.515 -0.1142  0.2926 -0.1003
  154POPC   D2A 2275   7.410   1.038   5.868  0.0263  0.0601  0.3422
  154POPC   C3A 2276   7.357   0.982   6.247 -0.0737 -0.0167  0.1004
  154POPC   C4A 2277   7.325   0.661   6.589  0.2293 -0.0638 -0.0678
  154POPC   C1B 2278   6.729   0.014   5.495  0.0947 -0.1701 -0.0677
  154POPC   C2B 2279   6.843   0.127   5.915 -0.1366 -0.2259  0.1462
  154POPC   C3B 2280   6.958   0.141   6.310 -0.1603  0.0021  0.0267
  154POPC   C4B 2281   7.168   0.157   6.726  0.0408 -0.1760 -0.2543
  155POPC   NC3 2282   4.903   2.951   4.655 -0.2427  0.1574  0.0338
  155POPC   PO4 2283   5.055   3.300   4.897 -0.1849  0.1160 -0.0587
  155POPC   GL1 2284   4.972   3.273   5.241  0.2439  0.3015  0.0865
  155POPC   GL2 2285   5.216   3.455   5.434  0.2358 -0.1148 -0.2902
  155POPC   C1A 2286   4.818   3.209   5.652  0.3077 -0.3489 -0.1394
  155POPC   D2A 2287   5.040   3.039   6.004 -0.3064  0.0392 -0.1901
  155POPC   C3A 2288   5.173   2.976   6.420  0.0492 -0.2634  0.1382
  155POPC   C4A 2289   5.086   2.957   6.842 -0.2336  0.0864  0.0685
  155POPC   C1B 2290   5.184   3.504   5.872  0.1911 -0.1312 -0.0220
  155POPC   C2B 2291   5.368   3.428   6.251 -0.0816  0.1252  0.3162
  155POPC   C3B 2292   5.518   3.243   6.651 -0.1033  0.2481  0.3632
  155POPC   C4B 2293   5.500   3.300   7.017 -0.0101  0.1962  0.0785
  156POPC   NC3 2294   1.471   5.303   4.194  0.0875  0.0560 -0.1113
  156POPC   PO4 2295   1.113   5.001   4.250  0.0973  0.2428 -0.0833
  156POPC   GL1 2296   1.004   4.973   4.728 -0.0681 -0.2000 -0.2392
  156POPC   GL2 2297   1.078   4.679   4.845  0.1145  0.0500 -0.3030
  156POPC   C1A 2298   1.004   5.111   5.185 -0.1312 -0.1357 -0.0518
  156POPC   D2A 2299   0.883   5.307   5.526  0.0493  0.2230 -0.1072
  156POPC   C3A 2300   0.830   5.701   5.692 -0.1199  0.0311 -0.0896
  156POPC   C4A 2301   0.756   5.727   6.162 -0.2314  0.0045  0.0769
  156POPC   C1B 2302   0.744   4.514   5.134  0.2381 -0.2437 -0.0160
  156POPC   C2B 2303   0.677   4.776   5.503  0.1403 -0.0711  0.2146
  156POPC   C3B 2304   0.718   4.876   5.975  0.0096  0.2469  0.0205
  156POPC   C4B 2305   0.994   4.754   6.385  0.2775 -0.0985 -0.3439
  157POPC   NC3 2306   3.123   0.316   4.368 -0.1285  0.0938 -0.3267
  157POPC   PO4 2307   3.574   0.362   4.516  0.1648 -0.1525  0.0917
  157POPC   GL1 2308   3.372   0.323   4.820 -0.2180 -0.2617  0.0562
  157POPC   GL2 2309   3.500   0.397   5.066  0.1195 -0.1544  0.2067
  157POPC   C1A 2310   3.146   0.081   5.170  0.3321  0.0818 -0.0897
  157POPC   D2A 2311   2.886  -0.135   5.444 -0.2650 -0.2928  0.0131
  157POPC   C3A 2312   2.452  -0.257   5.322  0.1507 -0.1684  0.2410
  157POPC   C4A 2313   2.290  -0.023   4.872 -0.0499 -0.0194  0.0697
  157POPC   C1B 2314   3.477   0.343   5.478 -0.1971 -0.0518  0.1778
  157POPC   C2B 2315   3.751   0.404   5.815 -0.2082 -0.0739  0.1677
  157POPC   C3B 2316   4.090   0.700   5.993 -0.2308  0.3664 -0.1417
  157POPC   C4B 2317   4.591   0.695   5.954  0.2588  0.2230  0.0306
  158POPC   NC3 2318   3.218   6.467   3.630 -0.1200  0.2030 -0.0667
  158POPC   PO4 2319   3.428   6.633   3.992  0.0296  0.0649  0.1035
  158POPC   GL1 2320   3.167   6.889   4.323  0.0487  0.1507  0.0192
  158POPC   GL2 2321   3.219   6.686   4.500 -0.3679  0.0851 -0.2023
  158POPC   C1A 2322   2.812   7.153   4.524  0.0742 -0.0133  0.0356
  158POPC   D2A 2323   2.467   7.343   4.838 -0.1532 -0.0526 -0.2029
  158POPC   C3A 2324   2.366   7.632   5.131 -0.4448 -0.0711  0.3588
  158POPC   C4A 2325   2.159   7.920   5.439 -0.0423  0.0029 -0.1433
  158POPC   C1B 2326   3.054   6.835   4.807 -0.4826  0.1829 -0.1178
  158POPC   C2B 2327   2.824   6.866   5.181  0.1754  0.2000 -0.1226
  158POPC   C3B 2328   2.453   7.041   5.378 -0.2459 -0.0394 -0.0650
  158POPC   C4B 2329   2.205   7.097   5.698  0.1810 -0.1342 -0.0232
  159POPC   NC3 2330   1.698   3.747   4.471 -0.0116 -0.0855 -0.0391
  159POPC   PO4 2331   1.277   3.560   4.548  0.2023 -0.2013 -0.0328
  159POPC   GL1 2332   1.241   3.314   4.937  0.0830 -0.1767 -0.1302
  159POPC   GL2 2333   0.993   3.075   5.184 -0.0938 -0.2907 -0.0276
  159POPC   C1A 2334   1.433   3.272   5.457  0.1457  0.1336  0.0800
  159POPC   D2A 2335   1.465   3.201   5.875  0.1584 -0.0275  0.2953
  159POPC   C3A 2336   1.303   3.528   6.124 -0.0205 -0.2538  0.1326
  159POPC   C4A 2337   1.000   3.618   6.372 -0.0978  0.2537 -0.1166
  159POPC   C1B 2338   0.812   3.105   5.669  0.0793 -0.1037  0.2437
  159POPC   C2B 2339   0.619   3.409   5.957 -0.1703 -0.1379 -0.0516
  159POPC   C3B 2340   0.397   3.565   6.349  0.0139 -0.2183  0.0868
  159POPC   C4B 2341   0.618   3.691   6.721 -0.3979  0.0346 -0.1947
  160POPC   NC3 2342   4.631   3.956   4.581 -0.2842 -0.1824 -0.0741
  160POPC   PO4 2343   4.915   3.693   4.674  0.0392  0.2198 -0.0733
  160POPC   GL1 2344   4.715   3.749   5.073  0.0871  0.1053  0.2037
  160POPC   GL2 2345   4.688   3.970   5.100 -0.3631  0.1756 -0.1323
  160POPC   C1A 2346   4.756   3.670   5.486  0.0291 -0.2474  0.2046
  160POPC   D2A 2347   4.538   3.653   5.887  0.0268  0.0598 -0.0440
  160POPC   C3A 2348   4.086   3.508   5.945  0.4343  0.0867 -0.0934
  160POPC   C4A 2349   3.872   3.448   6.370 -0.1894 -0.1214 -0.1769
  160POPC   C1B 2350   4.951   4.120   5.507  0.2311  0.2956 -0.0326
  160POPC   C2B 2351   5.105   4.377   5.862  0.1084  0.0560  0.0537
  160POPC   C3B 2352   5.115   4.433   6.269  0.0253 -0.0329  0.1104
  160POPC   C4B 2353   5.335   4.587   6.666 -0.3857  0.1057 -0.0600
  161POPC   NC3 2354   9.842   9.568   3.606 -0.0933 -0.1625  0.0543
  161POPC   PO4 2355   9.746   9.820   3.958  0.0706 -0.1809  0.1801
  161POPC   GL1 2356   9.890   9.694   4.414  0.1809  0.0702 -0.1987
  161POPC   GL2 2357   9.767   9.328   4.513 -0.1895  0.3182 -0.3150
  161POPC   C1A 2358   9.913   9.809   4.865 -0.1915  0.2761 -0.1503
  161POPC   D2A 2359   9.999   9.630   5.314 -0.0314  0.2580  0.1370
  161POPC   C3A 2360   9.735   9.757   5.722 -0.1158  0.1361  0.0569
  161POPC   C4A 2361   9.349   9.573   5.832  0.2295  0.0008 -0.3436
  161POPC   C1B 2362   9.518   9.495   4.806 -0.1217 -0.3421  0.0647
  161POPC   C2B 2363   9.149   9.255   5.072 -0.1601 -0.0589 -0.2169
  161POPC   C3B 2364   8.729   9.422   5.178  0.0497  0.0221 -0.0997
  161POPC   C4B 2365   8.375   9.386   5.103  0.0607  0.0022  0.2264
  162POPC   NC3 2366   8.520   2.206   4.315 -0.3266 -0.0138 -0.1285
  162POPC   PO4 2367   8.813   1.800   4.276 -0.2852 -0.0681  0.1531
  162POPC   GL1 2368   8.815   1.902   4.720 -0.1469 -0.3240 -0.4083
  162POPC   GL2 2369   8.622   2.204   4.765  0.0500  0.0628  0.1123
  162POPC   C1A 2370   9.159   1.672   4.959  0.1550 -0.3108 -0.0553
  162POPC   D2A 2371   9.354   1.535   5.443  0.1174  0.1342 -0.0118
  162POPC   C3A 2372   9.244   1.408   5.861 -0.0435  0.1605  0.2776
  162POPC   C4A 2373   9.142   1.404   6.257  0.1932 -0.0599  0.0012
  162POPC   C1B 2374   8.648   2.278   5.082  0.2542  0.1783  0.0857
  162POPC   C2B 2375   8.465   2.147   5.387  0.2246  0.0784 -0.2964
  162POPC   C3B 2376   8.435   1.868   5.664 -0.1368 -0.1768 -0.1580
  162POPC   C4B 2377   8.249   1.590   5.789  0.0636 -0.1753 -0.0516
  163POPC   NC3 2378   7.264   1.337   3.819  0.1096 -0.2382 -0.0288
  163POPC   PO4 2379   7.252   1.228   4.266  0.2428 -0.0124 -0.2603
  163POPC   GL1 2380   7.469   1.128   4.674 -0.4057 -0.0183  0.0277
  163POPC   GL2 2381   7.246   1.056   4.959 -0.5147 -0.0634 -0.0405
  163POPC   C1A 2382   7.409   1.491   4.896 -0.0668 -0.3264  0.2731
  163POPC   D2A 2383   7.333   1.518   5.399 -0.0151  0.0237  0.1066
  163POPC   C3A 2384   6.933   1.778   5.653  0.2049  0.1418 -0.1267
  163POPC   C4A 2385   6.865   2.051   6.078  0.0655 -0.1767  0.0196
  163POPC   C1B 2386   7.594   1.149   5.196 -0.0626  0.1517  0.0526
  163POPC   C2B 2387   7.844   1.212   5.651  0.1151  0.0532  0.1839
  163POPC   C3B 2388   8.289   1.113   5.822  0.0821 -0.5012  0.0265
  163POPC   C4B 2389   8.366   0.828   6.118 -0.0951 -0.3933  0.1134
  164POPC   NC3 2390   5.258   3.776   5.013 -0.0671 -0.2044 -0.0247
  164POPC   PO4 2391   5.142   4.173   4.862 -0.1326 -0.1577 -0.2398
  164POPC   GL1 2392   5.353   4.214   5.199 -0.4065 -0.0226  0.0491
  164POPC   GL2 2393   5.656   4.340   5.217 -0.0339  0.1650 -0.1769
  164POPC   C1A 2394   5.452   4.064   5.604 -0.0520 -0.2131 -0.0284
  164POPC   D2A 2395   5.443   3.944   6.059 -0.0561  0.0256  0.0362
  164POPC   C3A 2396   5.734   3.719   6.115  0.0405 -0.0928 -0.1542
  164POPC   C4A 2397   6.133   3.502   5.808 -0.0150 -0.0064  0.1925
  164POPC   C1B 2398   5.516   4.544   5.567  0.0983 -0.0450  0.0306
  164POPC   C2B 2399   5.637   4.733   6.006 -0.1010 -0.1187  0.3691
  164POPC   C3B 2400   6.085   4.829   6.249  0.2006  0.1203 -0.0975
  164POPC   C4B 2401   6.374   4.831   6.656  0.3638  0.3275 -0.1907
  165POPC   NC3 2402   4.274   7.150   4.656 -0.1787 -0.4408  0.2174
  165POPC   PO4 2403   4.565   7.484   4.540 -0.1972  0.1016 -0.1950
  165POPC   GL1 2404   4.651   7.619   4.908 -0.0333 -0.0091  0.0558
  165POPC   GL2 2405   4.776   7.879   5.050  0.0076  0.0759 -0.0989
  165POPC   C1A 2406   4.806   7.303   5.342 -0.1479  0.0561  0.1818
  165POPC   D2A 2407   5.003   7.052   5.664  0.0932 -0.1205 -0.2487
  165POPC   C3A 2408   4.783   7.164   6.074 -0.0209  0.2380  0.1627
  165POPC   C4A 2409   4.880   7.210   6.550  0.3028 -0.0618 -0.3380
  165POPC   C1B 2410   4.540   7.947   5.382  0.0441 -0.0017 -0.3708
  165POPC   C2B 2411   4.526   8.006   5.766 -0.1485 -0.0297 -0.0288
  165POPC   C3B 2412   4.572   8.055   6.215 -0.0210 -0.0828  0.1575
  165POPC   C4B 2413   4.681   8.416   6.487 -0.0163  0.0143 -0.5108
  166POPC   NC3 2414   5.997   8.057   4.252 -0.1112  0.0491  0.0546
  166POPC   PO4 2415   6.159   7.998   4.651  0.1991 -0.0282 -0.0238
  166POPC   GL1 2416   5.918   7.728   4.996  0.1371 -0.1298  0.0568
  166POPC   GL2 2417   5.560   7.559   4.974  0.1491  0.0109 -0.3963
  166POPC   C1A 2418   5.769   7.792   5.406  0.0669 -0.1299 -0.3494
  166POPC   D2A 2419   5.607   7.736   5.843  0.1036  0.1098 -0.1511
  166POPC   C3A 2420   5.260   7.429   5.893  0.2045 -0.0257  0.2868
  166POPC   C4A 2421   5.267   7.063   6.149  0.2065 -0.0214 -0.0889
  166POPC   C1B 2422   5.277   7.471   5.308 -0.1043  0.2101 -0.1833
  166POPC   C2B 2423   5.026   7.756   5.507  0.0857  0.0925  0.2360
  166POPC   C3B 2424   5.128   7.910   5.873  0.1592 -0.0417 -0.1874
  166POPC   C4B 2425   5.354   7.684   6.295 -0.0979  0.0584 -0.1298
  167POPC   NC3 2426   0.244   0.513   4.214  0.2777 -0.1204 -0.0269
  167POPC   PO4 2427   0.653   0.365   4.036 -0.0610  0.1282  0.0818
  167POPC   GL1 2428   0.632   0.216   4.493  0.3995 -0.0373 -0.3244
  167POPC   GL2 2429   0.271   0.154   4.586  0.2091 -0.1590  0.1472
  167POPC   C1A 2430   0.721   0.430   4.960  0.1350  0.0076  0.0675
  167POPC   D2A 2431   0.935   0.312   5.364 -0.2106 -0.2842 -0.0232
  167POPC   C3A 2432   1.050   0.360   5.682 -0.1427  0.0159 -0.0647
  167POPC   C4A 2433   1.121   0.649   5.941 -0.1165 -0.4571  0.3606
  167POPC   C1B 2434   0.431   0.062   5.017  0.1555 -0.4339 -0.0385
  167POPC   C2B 2435   0.446  -0.035   5.368 -0.0128  0.1480 -0.0638
  167POPC   C3B 2436   0.350  -0.147   5.759  0.2203 -0.0924  0.1886
  167POPC   C4B 2437   0.167  -0.491   5.934  0.3633  0.2412 -0.4782
  168POPC   NC3 2438   6.442   5.869   4.511  0.0718 -0.0909 -0.1892
  168POPC   PO4 2439   6.134   5.977   4.883  0.2112 -0.1744 -0.1455
  168POPC   GL1 2440   5.957   5.896   5.339 -0.1219  0.2955 -0.2733
  168POPC   GL2 2441   6.173   5.833   5.523  0.1263 -0.0987 -0.1140
  168POPC   C1A 2442   5.769   5.975   5.763  0.2765  0.3180 -0.1184
  168POPC   D2A 2443   5.896   5.910   6.152  0.2242 -0.2002  0.1321
  168POPC   C3A 2444   6.133   5.500   6.330 -0.0897  0.2581 -0.1827
  168POPC   C4A 2445   6.010   5.184   6.551 -0.1080 -0.1777  0.0125
  168POPC   C1B 2446   6.254   5.638   5.902 -0.5985 -0.0179 -0.0486
  168POPC   C2B 2447   6.583   5.722   6.172 -0.1730 -0.0817  0.0644
  168POPC   C3B 2448   6.920   5.887   6.453 -0.2023  0.0090 -0.0809
  168POPC   C4B 2449   7.055   6.380   6.606  0.0834 -0.2495  0.1007
  169POPC   NC3 2450   5.571   5.913   5.003 -0.0211  0.0343  0.2551
  169POPC   PO4 2451   5.596   5.565   5.220 -0.0371  0.0539  0.3009
  169POPC   GL1 2452   5.390   5.622   5.605 -0.1447  0.2677 -0.2432
  169POPC   GL2 2453   5.077   5.601   5.591 -0.2352 -0.1605 -0.2712
  169POPC   C1A 2454   5.394   5.750   6.058  0.1270  0.3943  0.1929
  169POPC   D2A 2455   5.362   5.732   6.462  0.0152  0.3948 -0.1206
  169POPC   C3A 2456   5.080   5.373   6.511  0.2207  0.2977 -0.0726
  169POPC   C4A 2457   4.688   5.198   6.272 -0.0151  0.1598 -0.1624
  169POPC   C1B 2458   5.008   6.005   5.796 -0.4730  0.0638 -0.1204
  169POPC   C2B 2459   5.382   6.277   5.874  0.0051 -0.0455 -0.0384
  169POPC   C3B 2460   5.514   6.570   6.288  0.2806 -0.2409  0.0281
  169POPC   C4B 2461   5.649   6.743   6.717 -0.1028 -0.1163 -0.0313
  170POPC   NC3 2462   1.295   1.886   4.544  0.2583  0.0812  0.0798
  170POPC   PO4 2463   1.705   2.004   4.437 -0.1152 -0.1496  0.1063
  170POPC   GL1 2464   1.634   2.055   4.827  0.2317 -0.0855 -0.2294
  170POPC   GL2 2465   1.698   2.302   5.048  0.0267  0.1794 -0.0015
  170POPC   C1A 2466   1.682   1.851   5.263 -0.2125 -0.0402  0.1325
  170POPC   D2A 2467   1.821   1.700   5.664  0.0923  0.2189 -0.0228
  170POPC   C3A 2468   1.592   1.412   5.819 -0.0740 -0.0051  0.0637
  170POPC   C4A 2469   1.421   1.123   6.065 -0.1397 -0.2484  0.1588
  170POPC   C1B 2470   1.465   2.297   5.401  0.3168  0.0419 -0.0161
  170POPC   C2B 2471   1.491   2.062   5.754  0.1876 -0.0720  0.0128
  170POPC   C3B 2472   1.494   1.818   6.123  0.1012 -0.0387 -0.0860
  170POPC   C4B 2473   1.588   1.905   6.657 -0.0885  0.0590 -0.1497
  171POPC   NC3 2474   9.233   1.537   4.121 -0.1296  0.1072 -0.1165
  171POPC   PO4 2475   9.225   1.100   4.169 -0.3225  0.0395  0.0781
  171POPC   GL1 2476   9.045   1.383   4.535 -0.1581  0.0123  0.1263
  171POPC   GL2 2477   8.728   1.350   4.800  0.0194  0.0560  0.3612
  171POPC   C1A 2478   9.272   1.205   4.975  0.2162  0.0702 -0.0272
  171POPC   D2A 2479   9.609   0.854   5.022 -0.2224  0.3882  0.0866
  171POPC   C3A 2480   9.855   0.709   5.411  0.3122 -0.0456  0.1415
  171POPC   C4A 2481  10.096   0.801   5.682  0.1180 -0.1425 -0.2261
  171POPC   C1B 2482   8.863   1.383   5.282  0.2606 -0.1763 -0.1638
  171POPC   C2B 2483   8.694   1.435   5.612 -0.2670  0.0845 -0.0402
  171POPC   C3B 2484   8.765   1.571   5.886 -0.2229  0.2234 -0.3977
  171POPC   C4B 2485   8.630   1.391   6.264  0.1976  0.1239 -0.2393
  172POPC   NC3 2486   6.971   9.618   4.019 -0.0920 -0.1025  0.1054
  172POPC   PO4 2487   7.059   9.629   4.506 -0.0707 -0.2074  0.0386
  172POPC   GL1 2488   7.158   9.631   4.997 -0.2133 -0.5623 -0.0325
  172POPC   GL2 2489   7.417   9.462   5.175 -0.2720 -0.1389  0.0350
  172POPC   C1A 2490   7.175   9.738   5.470  0.0112 -0.2066  0.1916
  172POPC   D2A 2491   6.996   9.609   5.892 -0.1432 -0.1343  0.1290
  172POPC   C3A 2492   7.266   9.507   6.183  0.2592  0.0387 -0.0271
  172POPC   C4A 2493   7.349   9.326   6.549  0.3286  0.0862 -0.0760
  172POPC   C1B 2494   7.476   9.293   5.586  0.4985  0.1177 -0.0022
  172POPC   C2B 2495   7.660   9.166   5.951  0.4671  0.0388  0.3820
  172POPC   C3B 2496   8.031   9.056   6.134  0.2405  0.0688  0.4184
  172POPC   C4B 2497   8.432   9.123   6.089  0.0148 -0.0382 -0.2064
  173POPC   NC3 2498   7.096   6.704   4.891 -0.2821  0.1387  0.0391
  173POPC   PO4 2499   7.511   6.571   4.686  0.2192 -0.1234 -0.1662
  173POPC   GL1 2500   7.754   6.504   5.025  0.0330 -0.1427 -0.1754
  173POPC   GL2 2501   8.063   6.398   5.007  0.1167  0.0397 -0.0882
  173POPC   C1A 2502   7.878   6.782   5.373  0.2032  0.0531  0.1797
  173POPC   D2A 2503   8.267   6.851   5.578  0.1171 -0.1360 -0.0156
  173POPC   C3A 2504   8.232   7.116   6.057 -0.1156 -0.0440 -0.1349
  173POPC   C4A 2505   8.075   7.306   6.406  0.0656  0.0996  0.0269
  173POPC   C1B 2506   8.186   6.348   5.474  0.1189 -0.0598  0.0368
  173POPC   C2B 2507   8.342   6.252   5.871  0.0022 -0.1640  0.0242
  173POPC   C3B 2508   8.327   6.108   6.265  0.0171  0.3117 -0.1454
  173POPC   C4B 2509   8.567   5.736   6.482  0.1456 -0.4918 -0.2823
  174POPC   NC3 2510   2.740   0.766   4.430  0.2712  0.4036  0.0559
  174POPC   PO4 2511   2.721   1.154   4.495 -0.3626  0.1546 -0.2392
  174POPC   GL1 2512   2.786   0.980   4.906 -0.2862 -0.2368  0.1720
  174POPC   GL2 2513   2.589   0.776   5.114 -0.0482 -0.0349  0.2700
  174POPC   C1A 2514   2.774   1.216   5.339 -0.0822  0.0144 -0.2789
  174POPC   D2A 2515   2.779   1.196   5.833 -0.1907 -0.1039  0.0306
  174POPC   C3A 2516   2.891   0.941   6.138 -0.1026 -0.0502 -0.0986
  174POPC   C4A 2517   3.105   0.538   6.145  0.0279 -0.3232 -0.5143
  174POPC   C1B 2518   2.237   0.539   5.248  0.1229 -0.1353  0.2639
  174POPC   C2B 2519   2.078   0.424   5.772  0.1870 -0.0977  0.1392
  174POPC   C3B 2520   2.197   0.259   6.268  0.1191  0.1977  0.0109
  174POPC   C4B 2521   1.861   0.112   6.656 -0.0971  0.0113  0.0319
  175POPC   NC3 2522   9.767   7.182   3.474 -0.1688  0.3688  0.4079
  175POPC   PO4 2523  10.117   6.900   3.582  0.1859  0.1422  0.0830
  175POPC   GL1 2524  10.181   7.105   3.959  0.1472 -0.1811 -0.2794
  175POPC   GL2 2525  10.341   6.925   4.296 -0.0692 -0.1565  0.2302
  175POPC   C1A 2526  10.038   7.509   4.196 -0.2189 -0.1661 -0.0250
  175POPC   D2A 2527   9.873   7.989   4.197  0.1260 -0.0524  0.2048
  175POPC   C3A 2528   9.887   8.117   4.659 -0.0400  0.0986 -0.0158
  175POPC   C4A 2529   9.982   8.304   5.000 -0.1486 -0.0055  0.1536
  175POPC   C1B 2530  10.574   6.853   4.631 -0.7247  0.1441  0.1988
  175POPC   C2B 2531  10.537   6.758   4.914  0.2661  0.2219 -0.0048
  175POPC   C3B 2532  10.685   6.458   5.152 -0.0882  0.1631 -0.1574
  175POPC   C4B 2533  10.705   6.064   5.243 -0.1292  0.2397  0.3901
  176POPC   NC3 2534   7.553   4.551   4.816 -0.0598  0.0440 -0.2642
  176POPC   PO4 2535   8.005   4.637   4.658  0.2809 -0.0607  0.0335
  176POPC   GL1 2536   7.965   4.757   4.995 -0.2918  0.3767  0.0340
  176POPC   GL2 2537   7.664   4.728   5.241 -0.0463  0.0339  0.3974
  176POPC   C1A 2538   8.096   4.703   5.474 -0.4178 -0.0672 -0.2635
  176POPC   D2A 2539   8.252   4.688   5.936  0.0007  0.3498  0.0636
  176POPC   C3A 2540   8.656   4.673   6.303  0.0208  0.1959 -0.1688
  176POPC   C4A 2541   8.742   4.247   6.624  0.1905 -0.2107 -0.0523
  176POPC   C1B 2542   7.875   4.288   5.274  0.1556 -0.3202 -0.0355
  176POPC   C2B 2543   8.132   3.923   5.133 -0.1891  0.0633 -0.1778
  176POPC   C3B 2544   8.378   3.577   5.272  0.2926  0.0832  0.2388
  176POPC   C4B 2545   8.379   3.384   5.775 -0.1460 -0.3746  0.3575
  177POPC   NC3 2546   0.827   3.050   4.120  0.0834 -0.1962 -0.0955
  177POPC   PO4 2547   0.819   2.765   4.517  0.0785 -0.4229 -0.1991
  177POPC   GL1 2548   0.711   2.595   4.938  0.0943 -0.3121 -0.2730
  177POPC   GL2 2549   0.517   2.277   4.834 -0.0058 -0.0531  0.2550
  177POPC   C1A 2550   0.448   2.618   5.370 -0.2589 -0.0879  0.3504
  177POPC   D2A 2551   0.426   2.508   5.760  0.1530  0.1053  0.0638
  177POPC   C3A 2552   0.210   2.525   6.139  0.0093  0.1845 -0.0842
  177POPC   C4A 2553  -0.027   2.349   6.466 -0.1326 -0.2414  0.1075
  177POPC   C1B 2554   0.706   2.199   5.310 -0.1450  0.0881 -0.0228
  177POPC   C2B 2555   1.059   2.110   5.603 -0.1092 -0.0212  0.2975
  177POPC   C3B 2556   1.232   2.246   6.093 -0.0426 -0.0346  0.0195
  177POPC   C4B 2557   1.283   2.308   6.526  0.1751 -0.1302  0.1833
  178POPC   NC3 2558   6.353   7.517   4.814  0.1979  0.0094  0.2725
  178POPC   PO4 2559   6.637   7.111   4.804 -0.0120  0.2395 -0.0385
  178POPC   GL1 2560   6.559   7.317   5.259  0.2180 -0.2811 -0.0057
  178POPC   GL2 2561   6.505   7.037   5.459  0.0785 -0.5329  0.1820
  178POPC   C1A 2562   6.653   7.579   5.650  0.0603  0.0894 -0.2329
  178POPC   D2A 2563   6.594   7.913   5.825 -0.0604  0.2277 -0.0626
  178POPC   C3A 2564   6.935   7.877   6.154 -0.1111  0.1654 -0.1455
  178POPC   C4A 2565   7.259   7.968   6.370  0.0333  0.0327 -0.1108
  178POPC   C1B 2566   6.429   7.155   5.837 -0.0251  0.3782 -0.0785
  178POPC   C2B 2567   6.547   7.534   6.201  0.2508  0.2436  0.0311
  178POPC   C3B 2568   6.390   7.918   6.357 -0.0633 -0.3664 -0.0706
  178POPC   C4B 2569   6.425   8.334   6.589  0.2899 -0.3692 -0.0016
  179POPC   NC3 2570   9.858   2.061   3.683  0.1460 -0.2005 -0.1108
  179POPC   PO4 2571   9.889   1.746   3.965 -0.1575 -0.0781 -0.1690
  179POPC   GL1 2572   9.877   1.855   4.358  0.1017 -0.1420  0.0856
  179POPC   GL2 2573  10.198   1.950   4.496  0.0341  0.1943 -0.3519
  179POPC   C1A 2574   9.737   1.763   4.740  0.0853  0.0187 -0.1209
  179POPC   D2A 2575   9.777   1.447   5.102  0.0803  0.0146  0.2037
  179POPC   C3A 2576  10.022   1.134   5.110 -0.0090 -0.0289  0.2248
  179POPC   C4A 2577  10.314   1.384   5.047 -0.3439 -0.1759  0.3032
  179POPC   C1B 2578  10.215   1.840   4.941  0.1620 -0.0966 -0.1085
  179POPC   C2B 2579  10.231   1.841   5.289  0.1941  0.0747 -0.1677
  179POPC   C3B 2580  10.223   2.044   5.707 -0.0087  0.1752 -0.0977
  179POPC   C4B 2581   9.870   2.192   5.975 -0.2199 -0.0566 -0.0242
  180POPC   NC3 2582   3.512   7.483   4.400  0.3711 -0.1715  0.1437
  180POPC   PO4 2583   3.992   7.640   4.505  0.1290 -0.1743  0.2289
  180POPC   GL1 2584   3.938   7.556   4.946  0.1516  0.0140 -0.0930
  180POPC   GL2 2585   3.926   7.801   5.122  0.0025 -0.0396 -0.0931
  180POPC   C1A 2586   3.752   7.313   5.290 -0.1114 -0.1011  0.0495
  180POPC   D2A 2587   3.653   7.304   5.735 -0.1165 -0.2906  0.2412
  180POPC   C3A 2588   3.801   7.562   6.095  0.0330  0.0925  0.0724
  180POPC   C4A 2589   4.067   7.796   6.009  0.0002 -0.3935  0.1035
  180POPC   C1B 2590   3.583   7.711   5.420  0.4283 -0.0062  0.2048
  180POPC   C2B 2591   3.468   7.817   5.724 -0.0790 -0.0732 -0.1144
  180POPC   C3B 2592   3.222   7.786   6.183  0.0143  0.0693  0.0184
  180POPC   C4B 2593   2.718   7.639   6.326  0.3376  0.1970  0.0272
  181POPC   NC3 2594   6.811   8.477   4.431 -0.1652 -0.1071 -0.3614
  181POPC   PO4 2595   6.883   8.701   4.838  0.3262  0.1943 -0.0646
  181POPC   GL1 2596   6.973   8.615   5.222 -0.0870 -0.0598 -0.0092
  181POPC   GL2 2597   6.688   8.680   5.275  0.1137  0.4722 -0.2974
  181POPC   C1A 2598   7.183   8.742   5.518 -0.2650  0.2296 -0.1491
  181POPC   D2A 2599   7.554   8.689   5.761  0.1301  0.0555  0.0144
  181POPC   C3A 2600   7.806   8.524   6.060  0.0154 -0.3403 -0.1087
  181POPC   C4A 2601   8.012   8.587   6.462 -0.0178  0.0671 -0.2185
  181POPC   C1B 2602   6.449   8.404   5.586 -0.1697  0.1672  0.0917
  181POPC   C2B 2603   6.585   8.327   6.053 -0.1281 -0.0861  0.0583
  181POPC   C3B 2604   6.936   8.347   6.376 -0.2226  0.2524  0.2270
  181POPC   C4B 2605   7.162   8.315   6.781 -0.1438  0.0387  0.0503
  182POPC   NC3 2606   8.778   8.444   3.930  0.1973 -0.0502 -0.0036
  182POPC   PO4 2607   9.165   8.786   3.936  0.1146 -0.2037  0.2873
  182POPC   GL1 2608   9.084   8.993   4.344  0.0201 -0.2193  0.2631
  182POPC   GL2 2609   8.844   8.788   4.630 -0.1977  0.0107  0.0904
  182POPC   C1A 2610   9.305   8.922   4.732 -0.0548  0.0415  0.3853
  182POPC   D2A 2611   9.478   8.845   5.157  0.0045 -0.1763  0.0379
  182POPC   C3A 2612   9.550   8.450   5.316 -0.1530 -0.0803  0.0260
  182POPC   C4A 2613   9.551   8.339   5.820  0.2338  0.2162 -0.0786
  182POPC   C1B 2614   8.793   8.949   5.058  0.0325  0.2786  0.0721
  182POPC   C2B 2615   8.871   8.903   5.364 -0.0914 -0.0959 -0.3227
  182POPC   C3B 2616   8.777   8.857   5.809  0.2033 -0.1764 -0.1626
  182POPC   C4B 2617   8.480   8.640   6.154 -0.0941  0.3130  0.1227
  183POPC   NC3 2618   5.125   5.709   5.148 -0.1457 -0.0742  0.2134
  183POPC   PO4 2619   4.712   5.643   5.007  0.0053  0.0158  0.1923
  183POPC   GL1 2620   4.560   5.289   5.351 -0.3515  0.2261 -0.2517
  183POPC   GL2 2621   4.473   4.912   5.292 -0.1168  0.1562  0.2140
  183POPC   C1A 2622   4.798   5.217   5.703 -0.1055  0.3568 -0.3422
  183POPC   D2A 2623   4.931   4.876   5.849 -0.3485  0.0059  0.0971
  183POPC   C3A 2624   4.658   4.599   6.123 -0.0212 -0.1558 -0.1226
  183POPC   C4A 2625   4.489   4.288   6.387 -0.1537  0.1272  0.0623
  183POPC   C1B 2626   4.361   4.934   5.690  0.1118 -0.1499 -0.2858
  183POPC   C2B 2627   4.283   5.237   5.906  0.3520 -0.1871 -0.2368
  183POPC   C3B 2628   4.205   5.275   6.319  0.0620 -0.2190 -0.1241
  183POPC   C4B 2629   3.999   5.595   6.541  0.3156  0.1071  0.1623
  184POPC   NC3 2630   1.261   2.960   4.631 -0.1234  0.1337  0.0107
  184POPC   PO4 2631   1.721   3.231   4.586  0.1787 -0.2614  0.0206
  184POPC   GL1 2632   1.780   3.545   4.991 -0.3665 -0.2067  0.0292
  184POPC   GL2 2633   1.605   3.809   4.997  0.1415  0.0255  0.2226
  184POPC   C1A 2634   2.033   3.468   5.336  0.1076  0.0721 -0.0722
  184POPC   D2A 2635   2.259   3.826   5.611 -0.2182 -0.0347  0.1038
  184POPC   C3A 2636   2.469   3.733   6.008 -0.0609 -0.2232  0.2808
  184POPC   C4A 2637   2.834   3.917   6.189  0.3986  0.1832  0.2188
  184POPC   C1B 2638   1.544   3.741   5.347  0.2861 -0.3679 -0.0231
  184POPC   C2B 2639   1.755   3.604   5.755  0.0164 -0.3394 -0.0433
  184POPC   C3B 2640   2.010   3.548   6.066 -0.1306 -0.2793 -0.0274
  184POPC   C4B 2641   2.180   3.897   6.372 -0.0664  0.0107  0.1417
  185POPC   NC3 2642   0.343   2.818   4.515  0.0725  0.2931 -0.2591
  185POPC   PO4 2643   0.062   2.475   4.613  0.2746  0.0153 -0.0383
  185POPC   GL1 2644  -0.107   2.259   4.845  0.1785  0.3368  0.1926
  185POPC   GL2 2645  -0.397   2.167   4.873 -0.2382  0.2187  0.2191
  185POPC   C1A 2646   0.063   2.271   5.354 -0.2620 -0.0105  0.0191
  185POPC   D2A 2647  -0.083   2.632   5.651 -0.0236  0.0813 -0.1499
  185POPC   C3A 2648  -0.037   3.033   5.414  0.1784 -0.0070 -0.1050
  185POPC   C4A 2649  -0.179   3.522   5.530  0.5185 -0.1011 -0.3053
  185POPC   C1B 2650  -0.412   1.966   5.222  0.1172  0.4315  0.1648
  185POPC   C2B 2651  -0.160   1.796   5.615 -0.0407  0.0519 -0.1175
  185POPC   C3B 2652  -0.123   1.646   5.928 -0.0211 -0.0148 -0.1129
  185POPC   C4B 2653  -0.367   1.752   6.277  0.1049  0.1439  0.2401
  186POPC   NC3 2654   0.668   8.315   3.402  0.3207 -0.2085 -0.1606
  186POPC   PO4 2655   1.016   8.531   3.529  0.1456  0.1570 -0.0815
  186POPC   GL1 2656   1.274   8.540   3.958  0.1005  0.1961 -0.0053
  186POPC   GL2 2657   1.533   8.812   3.868 -0.0376  0.0173  0.1795
  186POPC   C1A 2658   1.340   8.178   4.138  0.0676 -0.2375 -0.1493
  186POPC   D2A 2659   1.231   7.754   4.197 -0.3049  0.3077  0.0520
  186POPC   C3A 2660   0.923   7.781   4.612  0.0353 -0.0058 -0.0109
  186POPC   C4A 2661   0.671   7.758   4.951 -0.0902 -0.0503  0.0699
  186POPC   C1B 2662   1.775   8.422   4.039  0.0928  0.1823 -0.0091
  186POPC   C2B 2663   1.866   8.253   4.401 -0.1230 -0.1405  0.2023
  186POPC   C3B 2664   2.066   8.463   4.507 -0.3974 -0.0745  0.1540
  186POPC   C4B 2665   2.533   8.486   4.716 -0.2296 -0.0064  0.1039
  187POPC   NC3 2666   1.851   2.728   4.676  0.0975 -0.0097  0.0874
  187POPC   PO4 2667   2.141   2.950   4.410 -0.1962 -0.2029 -0.1831
  187POPC   GL1 2668   2.260   2.851   4.864 -0.3578 -0.1961  0.3146
  187POPC   GL2 2669   2.177   2.542   5.030 -0.3808 -0.3853  0.2851
  187POPC   C1A 2670   2.203   2.992   5.290  0.1413  0.0010  0.0211
  187POPC   D2A 2671   2.054   3.142   5.689 -0.0980  0.0953  0.0232
  187POPC   C3A 2672   1.843   2.910   6.055 -0.2295 -0.1221 -0.0038
  187POPC   C4A 2673   1.634   3.199   6.351 -0.1237 -0.0641 -0.3710
  187POPC   C1B 2674   2.091   2.174   5.383 -0.1524 -0.1693  0.2629
  187POPC   C2B 2675   1.985   2.374   5.733  0.3175 -0.0159 -0.0567
  187POPC   C3B 2676   1.711   2.350   6.064  0.0364  0.0770  0.0218
  187POPC   C4B 2677   1.597   2.701   6.424 -0.1224  0.2853  0.2541
  188POPC   NC3 2678   4.570   3.351   4.745 -0.1057 -0.1689  0.0749
  188POPC   PO4 2679   4.402   2.936   4.737 -0.0595  0.0804 -0.0474
  188POPC   GL1 2680   4.407   3.048   5.203  0.1170 -0.2331 -0.0020
  188POPC   GL2 2681   4.353   3.440   5.208 -0.0065 -0.2151  0.0532
  188POPC   C1A 2682   4.372   3.181   5.595 -0.2527  0.0348 -0.1509
  188POPC   D2A 2683   4.574   3.239   6.049 -0.1919  0.1008 -0.1614
  188POPC   C3A 2684   4.856   3.526   6.316 -0.1114  0.0057 -0.2818
  188POPC   C4A 2685   5.030   3.415   6.688 -0.1278 -0.3207 -0.0671
  188POPC   C1B 2686   3.959   3.497   5.427  0.1178 -0.5540 -0.0435
  188POPC   C2B 2687   3.492   3.627   5.612  0.2173 -0.1973  0.1692
  188POPC   C3B 2688   3.429   3.455   6.052 -0.2868 -0.5256 -0.1510
  188POPC   C4B 2689   3.347   3.334   6.520 -0.1665  0.1650 -0.2418
  189POPC   NC3 2690   9.881   2.956   4.681  0.0280  0.1886  0.5518
  189POPC   PO4 2691   9.719   3.303   4.629  0.1662 -0.1414 -0.0326
  189POPC   GL1 2692   9.547   3.144   5.017 -0.1596 -0.2327 -0.1650
  189POPC   GL2 2693   9.447   3.447   5.175 -0.4758  0.0890 -0.0634
  189POPC   C1A 2694   9.391   2.931   5.512 -0.0318 -0.0514  0.0990
  189POPC   D2A 2695   9.186   2.726   5.817 -0.0451 -0.0394 -0.0776
  189POPC   C3A 2696   9.096   2.716   6.278 -0.2682 -0.1506  0.0189
  189POPC   C4A 2697   9.314   2.698   6.635  0.0649 -0.0739  0.0216
  189POPC   C1B 2698   9.253   3.543   5.589  0.0483  0.2467 -0.1315
  189POPC   C2B 2699   9.103   3.737   5.843 -0.1271  0.1808 -0.0569
  189POPC   C3B 2700   8.761   3.596   6.118 -0.0001  0.1542 -0.1240
  189POPC   C4B 2701   8.534   3.306   6.373 -0.0227  0.0979  0.2846
  190POPC   NC3 2702   8.439   4.641   4.854  0.0327 -0.3951 -0.0831
  190POPC   PO4 2703   8.683   5.058   4.676 -0.2595 -0.2186 -0.1109
  190POPC   GL1 2704   8.886   4.949   5.040 -0.0953 -0.1160 -0.0507
  190POPC   GL2 2705   8.638   4.945   5.265 -0.2321 -0.5117  0.1081
  190POPC   C1A 2706   9.048   4.748   5.446 -0.0308 -0.0313 -0.1890
  190POPC   D2A 2707   9.191   4.760   5.899 -0.0507  0.3459 -0.1346
  190POPC   C3A 2708   9.127   4.998   6.193  0.0867  0.3541 -0.1492
  190POPC   C4A 2709   8.878   5.072   6.452  0.0808  0.1766  0.3773
  190POPC   C1B 2710   8.943   5.210   5.506  0.2679 -0.0785  0.1711
  190POPC   C2B 2711   9.206   5.377   5.803 -0.3303 -0.0987 -0.1015
  190POPC   C3B 2712   9.545   5.573   5.918  0.0619 -0.1104 -0.2053
  190POPC   C4B 2713   9.699   5.957   5.993 -0.3600 -0.0104  0.0041
  191POPC   NC3 2714   6.725   4.622   4.511 -0.2095  0.0373 -0.1372
  191POPC   PO4 2715   7.019   4.727   4.819 -0.2324 -0.0329 -0.0674
  191POPC   GL1 2716   7.159   4.739   5.217  0.3302 -0.1476 -0.1698
  191POPC   GL2 2717   6.876   4.857   5.295  0.1896  0.1378  0.0631
  191POPC   C1A 2718   7.282   4.444   5.586  0.1961  0.2265 -0.1644
  191POPC   D2A 2719   7.444   4.050   5.671 -0.0476 -0.1554 -0.0887
  191POPC   C3A 2720   7.237   3.670   5.986  0.0312 -0.1392 -0.5132
  191POPC   C4A 2721   7.321   3.332   6.098  0.2130  0.2297  0.2642
  191POPC   C1B 2722   6.916   4.925   5.746  0.1017  0.1389  0.0963
  191POPC   C2B 2723   6.858   4.916   6.123  0.0368  0.0730 -0.3872
  191POPC   C3B 2724   6.880   4.807   6.631 -0.2865  0.0114 -0.0170
  191POPC   C4B 2725   6.683   4.658   7.038  0.1440  0.1787 -0.0107
  192POPC   NC3 2726   3.075   1.409   4.250  0.1899 -0.1924 -0.1166
  192POPC   PO4 2727   3.478   1.311   4.521  0.0329 -0.0641  0.0584
  192POPC   GL1 2728   3.600   1.229   4.903  0.1225 -0.0307 -0.2027
  192POPC   GL2 2729   3.653   0.893   4.996 -0.3105  0.3070 -0.1699
  192POPC   C1A 2730   3.337   1.239   5.276 -0.0926  0.1766 -0.0464
  192POPC   D2A 2731   3.149   0.997   5.584 -0.0753  0.1823 -0.1612
  192POPC   C3A 2732   3.396   0.771   5.845  0.2148 -0.1820  0.0082
  192POPC   C4A 2733   3.628   0.789   6.193 -0.0456 -0.1410 -0.1304
  192POPC   C1B 2734   3.646   0.880   5.409 -0.0647 -0.1215  0.3119
  192POPC   C2B 2735   3.645   1.164   5.703 -0.0912 -0.0328 -0.4564
  192POPC   C3B 2736   3.935   1.192   5.961  0.5136 -0.2277  0.0704
  192POPC   C4B 2737   4.388   1.131   5.958  0.1469  0.0298  0.0233
  193POPC   NC3 2738   7.695   6.031   4.725  0.2403  0.0723  0.0022
  193POPC   PO4 2739   7.272   6.148   4.909 -0.0347  0.1968  0.2179
  193POPC   GL1 2740   7.314   6.392   5.277 -0.2313 -0.2243  0.2772
  193POPC   GL2 2741   7.186   6.266   5.554 -0.0592 -0.0355 -0.0262
  193POPC   C1A 2742   7.660   6.449   5.651  0.3063 -0.1233  0.1440
  193POPC   D2A 2743   7.980   6.631   5.874 -0.3241 -0.3685  0.1599
  193POPC   C3A 2744   8.260   6.600   6.234  0.3783 -0.1603  0.2215
  193POPC   C4A 2745   8.501   6.612   6.777  0.0463 -0.0176  0.0165
  193POPC   C1B 2746   7.361   6.017   5.876 -0.2317 -0.1078  0.0970
  193POPC   C2B 2747   7.416   5.891   6.257 -0.2928 -0.2260 -0.1929
  193POPC   C3B 2748   7.816   5.964   6.524 -0.0267 -0.0724  0.1599
  193POPC   C4B 2749   8.023   6.318   6.702 -0.1151 -0.1154 -0.1751
  194POPC   NC3 2750   3.222   5.233   4.442  0.2962 -0.2036 -0.2497
  194POPC   PO4 2751   3.590   5.261   4.478  0.2137  0.0001  0.2062
  194POPC   GL1 2752   3.549   5.286   4.912  0.4044 -0.1601 -0.5165
  194POPC   GL2 2753   3.752   5.048   5.080 -0.2523 -0.0836 -0.2341
  194POPC   C1A 2754   3.496   5.323   5.403  0.2182  0.0164 -0.1706
  194POPC   D2A 2755   3.430   5.337   5.844 -0.0296 -0.0520  0.1988
  194POPC   C3A 2756   3.135   5.636   6.040 -0.3972  0.2139 -0.1755
  194POPC   C4A 2757   3.157   5.987   6.372 -0.1450  0.2085  0.1520
  194POPC   C1B 2758   3.873   4.699   5.239 -0.1393  0.2494 -0.2006
  194POPC   C2B 2759   4.051   4.494   5.562  0.0052  0.2155  0.2428
  194POPC   C3B 2760   4.147   4.599   5.982  0.0080  0.1879  0.0085
  194POPC   C4B 2761   4.268   4.803   6.406 -0.1391  0.2674  0.2724
  195POPC   NC3 2762   9.939   1.215   3.933  0.1906 -0.0558 -0.0734
  195POPC   PO4 2763  10.174   1.004   4.232 -0.1888 -0.1442 -0.1120
  195POPC   GL1 2764  10.307   0.949   4.715  0.0961 -0.0065 -0.4432
  195POPC   GL2 2765  10.253   0.648   4.794  0.0360  0.2845  0.1120
  195POPC   C1A 2766  10.592   0.888   5.044  0.0237 -0.1143 -0.1978
  195POPC   D2A 2767  10.632   0.718   5.469 -0.1668 -0.2416 -0.2686
  195POPC   C3A 2768  10.525   0.873   5.974 -0.4277 -0.0732  0.1815
  195POPC   C4A 2769  10.891   1.059   6.164  0.2967 -0.0330  0.4271
  195POPC   C1B 2770  10.259   0.567   5.219 -0.1045  0.3446  0.1546
  195POPC   C2B 2771  10.331   0.346   5.661 -0.0140 -0.0696  0.1189
  195POPC   C3B 2772  10.623   0.356   6.031  0.1423 -0.1937 -0.2880
  195POPC   C4B 2773  10.760   0.454   6.437 -0.1697 -0.1590  0.2984
  196POPC   NC3 2774   5.596   1.344   4.472 -0.2088  0.2209 -0.2078
  196POPC   PO4 2775   5.230   1.329   4.545 -0.0106  0.0073  0.0485
  196POPC   GL1 2776   5.380   1.132   4.935  0.3794  0.0341 -0.1697
  196POPC   GL2 2777   5.162   0.925   5.090  0.0594  0.2402  0.1716
  196POPC   C1A 2778   5.601   1.381   5.279  0.0800 -0.1106 -0.0114
  196POPC   D2A 2779   5.744   1.477   5.717  0.0336  0.1413  0.1050
  196POPC   C3A 2780   6.113   1.388   5.815  0.3256  0.1468 -0.3186
  196POPC   C4A 2781   6.485   1.392   5.674  0.2798  0.1418 -0.0961
  196POPC   C1B 2782   4.719   0.988   5.366 -0.0729  0.2082  0.1492
  196POPC   C2B 2783   4.565   1.358   5.536 -0.0795 -0.0670 -0.0213
  196POPC   C3B 2784   4.232   1.700   5.523  0.0323  0.0236 -0.1140
  196POPC   C4B 2785   4.297   1.869   5.928  0.1024  0.0734 -0.0814
  197POPC   NC3 2786   0.669   0.741   4.419 -0.1377  0.0494 -0.0570
  197POPC   PO4 2787   1.029   0.652   4.109 -0.1785 -0.1306 -0.0974
  197POPC   GL1 2788   1.141   0.460   4.475 -0.2267  0.3226  0.1986
  197POPC   GL2 2789   1.177   0.118   4.417 -0.0897 -0.1250  0.1652
  197POPC   C1A 2790   1.221   0.444   4.912  0.0735 -0.1231  0.0386
  197POPC   D2A 2791   1.135   0.755   5.137  0.2309 -0.1873  0.2006
  197POPC   C3A 2792   1.193   0.799   5.487  0.1850  0.2121  0.2559
  197POPC   C4A 2793   1.071   1.146   5.698  0.0540  0.3120  0.1678
  197POPC   C1B 2794   1.087  -0.075   4.725 -0.2593  0.2191  0.0596
  197POPC   C2B 2795   0.873  -0.115   5.141 -0.2470 -0.0565  0.2521
  197POPC   C3B 2796   0.864  -0.078   5.645  0.1156 -0.1045 -0.2645
  197POPC   C4B 2797   0.803  -0.215   6.022  0.0762  0.0049  0.1130
  198POPC   NC3 2798   2.317   0.468   4.149  0.1171 -0.0799  0.1029
  198POPC   PO4 2799   2.653   0.282   4.332 -0.0768  0.0404  0.0465
  198POPC   GL1 2800   2.725   0.149   4.762 -0.0273  0.2972  0.0929
  198POPC   GL2 2801   2.920   0.460   4.822  0.0328 -0.3104 -0.0031
  198POPC   C1A 2802   2.635   0.232   5.106 -0.0931 -0.0755 -0.0342
  198POPC   D2A 2803   2.534   0.253   5.482  0.1405 -0.1366  0.2797
  198POPC   C3A 2804   2.502   0.023   5.828  0.2704 -0.2198  0.0986
  198POPC   C4A 2805   2.667  -0.167   6.273 -0.2753 -0.0046 -0.3623
  198POPC   C1B 2806   3.070   0.604   5.187  0.0125 -0.2613  0.3000
  198POPC   C2B 2807   3.037   0.471   5.639 -0.1858  0.1606  0.3155
  198POPC   C3B 2808   3.014   0.128   5.912 -0.1473  0.0176 -0.1455
  198POPC   C4B 2809   3.199  -0.119   6.232 -0.5742  0.0003  0.0151
  199POPC   NC3 2810   5.789   9.508   4.903 -0.0922  0.2608 -0.2385
  199POPC   PO4 2811   5.826   9.865   4.577  0.0079 -0.4489 -0.1895
  199POPC   GL1 2812   5.927   9.975   5.059  0.0032  0.1388  0.1236
  199POPC   GL2 2813   5.620  10.116   5.187 -0.0783 -0.0474  0.1702
  199POPC   C1A 2814   6.233   9.991   5.574  0.0218 -0.0613  0.1320
  199POPC   D2A 2815   6.340  10.138   5.996 -0.1923  0.1470 -0.0750
  199POPC   C3A 2816   6.437  10.006   6.388 -0.2285  0.5468 -0.2584
  199POPC   C4A 2817   6.455   9.947   6.860  0.1478 -0.0729 -0.1799
  199POPC   C1B 2818   5.683  10.108   5.554  0.2760  0.1987 -0.1006
  199POPC   C2B 2819   5.760  10.147   5.943 -0.2506 -0.1693  0.1652
  199POPC   C3B 2820   5.850  10.174   6.343  0.3812 -0.0060 -0.1433
  199POPC   C4B 2821   6.147  10.416   6.657 -0.0978  0.1489 -0.0686
  200POPC   NC3 2822   0.197   4.748   4.223 -0.3028 -0.0680 -0.0498
  200POPC   PO4 2823   0.098   5.182   4.010 -0.0201 -0.3128  0.1399
  200POPC   GL1 2824   0.236   5.215   4.464 -0.1780  0.0537  0.1687
  200POPC   GL2 2825   0.285   5.529   4.559 -0.2497  0.0836  0.1190
  200POPC   C1A 2826   0.057   5.248   4.930  0.0592  0.2001  0.0536
  200POPC   D2A 2827  -0.143   5.281   5.255 -0.2262 -0.2835  0.0687
  200POPC   C3A 2828  -0.022   5.452   5.679  0.2212 -0.1095 -0.2346
  200POPC   C4A 2829   0.397   5.326   5.765 -0.1100  0.1506 -0.0218
  200POPC   C1B 2830   0.592   5.395   4.758 -0.1424  0.1600 -0.1306
  200POPC   C2B 2831   0.819   5.560   5.117  0.0846 -0.1333  0.2420
  200POPC   C3B 2832   1.091   5.736   5.259  0.0496  0.1742  0.0575
  200POPC   C4B 2833   1.470   5.958   5.416  0.3249 -0.2385  0.0194
  201POPC   NC3 2834   7.031   8.228   4.839  0.0099 -0.2307  0.3059
  201POPC   PO4 2835   7.202   7.940   4.491 -0.1349 -0.3391 -0.3718
  201POPC   GL1 2836   7.357   7.724   4.831  0.2125  0.1940 -0.2543
  201POPC   GL2 2837   7.658   7.557   4.961 -0.0888  0.0923 -0.2585
  201POPC   C1A 2838   7.190   7.672   5.276 -0.4170 -0.1777 -0.0355
  201POPC   D2A 2839   7.137   7.740   5.709  0.3175  0.1504  0.3241
  201POPC   C3A 2840   7.443   7.594   5.957 -0.1978 -0.0261 -0.0663
  201POPC   C4A 2841   7.625   7.560   6.315 -0.1818  0.2433 -0.1683
  201POPC   C1B 2842   7.618   7.431   5.487 -0.1058  0.2005  0.3727
  201POPC   C2B 2843   7.812   7.184   5.813  0.1969 -0.0385 -0.2519
  201POPC   C3B 2844   7.763   6.956   6.243 -0.0534 -0.4913  0.1063
  201POPC   C4B 2845   7.991   6.818   6.679 -0.1031  0.0144  0.1898
  202POPC   NC3 2846   5.254   2.248   4.263  0.3282  0.1907  0.4249
  202POPC   PO4 2847   5.191   2.030   4.654 -0.1282  0.2161  0.1160
  202POPC   GL1 2848   5.137   1.917   4.996  0.2639  0.0478  0.1322
  202POPC   GL2 2849   5.029   1.550   5.133  0.1791 -0.2611  0.1717
  202POPC   C1A 2850   5.456   1.864   5.290 -0.1274  0.1563 -0.1426
  202POPC   D2A 2851   5.647   2.060   5.629 -0.2129 -0.1902  0.0058
  202POPC   C3A 2852   5.467   2.509   5.824  0.1770  0.1292  0.0824
  202POPC   C4A 2853   5.540   2.889   6.028  0.2343 -0.2896  0.2336
  202POPC   C1B 2854   5.177   1.526   5.527  0.0860 -0.1097 -0.1993
  202POPC   C2B 2855   5.303   1.612   5.935  0.0396 -0.0954 -0.0202
  202POPC   C3B 2856   5.630   1.748   6.170 -0.1967 -0.1956 -0.2431
  202POPC   C4B 2857   5.938   1.561   6.283 -0.0136 -0.2801 -0.1406
  203POPC   NC3 2858   1.378   0.935   4.354 -0.0606 -0.0782  0.0952
  203POPC   PO4 2859   1.288   1.348   4.572  0.2531  0.1081  0.1775
  203POPC   GL1 2860   1.458   1.102   4.877  0.0122  0.1731 -0.1770
  203POPC   GL2 2861   1.614   0.772   4.814 -0.1968 -0.4526 -0.3969
  203POPC   C1A 2862   1.429   1.222   5.311  0.1314 -0.0515  0.1797
  203POPC   D2A 2863   1.228   1.609   5.603 -0.1670  0.1399  0.1314
  203POPC   C3A 2864   1.129   1.572   5.960 -0.0801 -0.1602 -0.0625
  203POPC   C4A 2865   0.959   1.834   6.282  0.3033 -0.3618  0.0303
  203POPC   C1B 2866   1.661   0.793   5.252 -0.0349  0.1927  0.1142
  203POPC   C2B 2867   1.624   0.797   5.675 -0.1736 -0.3075 -0.1752
  203POPC   C3B 2868   1.840   0.841   6.095 -0.2357 -0.0563  0.2459
  203POPC   C4B 2869   1.864   0.827   6.541 -0.1406  0.1559 -0.0621
  204POPC   NC3 2870   3.326   8.708   3.677  0.2142 -0.3604 -0.0709
  204POPC   PO4 2871   3.184   8.776   4.100 -0.1212 -0.1934 -0.0574
  204POPC   GL1 2872   2.938   8.504   4.350 -0.1626 -0.3020 -0.2516
  204POPC   GL2 2873   2.722   8.775   4.391 -0.0385  0.3201 -0.1022
  204POPC   C1A 2874   2.975   8.256   4.677  0.0033  0.0350 -0.2368
  204POPC   D2A 2875   3.001   8.347   5.106  0.1735  0.0434 -0.2434
  204POPC   C3A 2876   2.663   8.559   5.207  0.0468  0.1196  0.4811
  204POPC   C4A 2877   2.267   8.491   5.421 -0.2088  0.0145 -0.0730
  204POPC   C1B 2878   2.994   8.746   4.839  0.4322  0.0607 -0.2194
  204POPC   C2B 2879   3.134   8.924   5.197  0.0128  0.1252  0.1430
  204POPC   C3B 2880   2.977   8.731   5.567 -0.1793  0.0866 -0.1007
  204POPC   C4B 2881   2.613   8.519   5.858  0.2027 -0.2804 -0.1685
  205POPC   NC3 2882   3.985   3.806   4.093  0.2091 -0.3558  0.0095
  205POPC   PO4 2883   4.103   3.920   4.614  0.1116 -0.4943  0.0645
  205POPC   GL1 2884   4.187   3.936   5.036  0.1046 -0.2011 -0.0093
  205POPC   GL2 2885   3.957   3.857   5.114  0.3559 -0.0321  0.3938
  205POPC   C1A 2886   4.300   3.989   5.497  0.1052 -0.1466 -0.0477
  205POPC   D2A 2887   3.967   4.042   5.852  0.0162  0.0023 -0.0946
  205POPC   C3A 2888   4.128   3.987   6.216  0.1609 -0.0975  0.1839
  205POPC   C4A 2889   4.414   3.817   6.419 -0.1485  0.3217 -0.0578
  205POPC   C1B 2890   3.751   3.980   5.391  0.7338 -0.2688  0.2233
  205POPC   C2B 2891   3.568   4.231   5.577  0.0303  0.2188  0.0376
  205POPC   C3B 2892   3.630   4.492   5.945  0.1891  0.0782 -0.1153
  205POPC   C4B 2893   3.389   4.605   6.344  0.1516 -0.0350  0.0606
  206POPC   NC3 2894   0.516   5.476   3.753 -0.1716 -0.0933 -0.1410
  206POPC   PO4 2895   0.444   6.009   3.675 -0.0894 -0.1124  0.2309
  206POPC   GL1 2896   0.594   6.305   3.930  0.0248  0.2757 -0.2074
  206POPC   GL2 2897   0.521   6.665   3.891 -0.0092 -0.0617 -0.1073
  206POPC   C1A 2898   0.434   6.464   4.399  0.2811 -0.1334 -0.1251
  206POPC   D2A 2899   0.318   6.261   4.763  0.1245 -0.0200 -0.2291
  206POPC   C3A 2900  -0.074   6.197   4.912  0.0427  0.0934  0.0522
  206POPC   C4A 2901  -0.463   5.975   4.999 -0.1622 -0.4625 -0.0712
  206POPC   C1B 2902   0.880   6.509   4.258  0.1203  0.1111 -0.1439
  206POPC   C2B 2903   0.888   6.339   4.677 -0.0812 -0.2816  0.4062
  206POPC   C3B 2904   1.295   6.175   4.892  0.0838  0.1453 -0.1963
  206POPC   C4B 2905   1.583   5.945   4.897  0.1482  0.0707 -0.1053
  207POPC   NC3 2906   4.373   0.808   4.697  0.2100 -0.0175 -0.1480
  207POPC   PO4 2907   4.627   0.549   4.530  0.1022  0.0709  0.0440
  207POPC   GL1 2908   4.764   0.492   4.928  0.1954 -0.1043  0.1128
  207POPC   GL2 2909   4.498   0.452   5.033  0.1089  0.2940 -0.1720
  207POPC   C1A 2910   4.997   0.440   5.246  0.2033  0.0423 -0.0570
  207POPC   D2A 2911   5.015   0.439   5.711  0.1335 -0.0646 -0.2449
  207POPC   C3A 2912   4.872   0.245   6.003  0.2777  0.1111  0.1144
  207POPC   C4A 2913   4.622   0.304   6.297  0.0735  0.1612 -0.2421
  207POPC   C1B 2914   4.543   0.570   5.423 -0.2446  0.1122  0.0981
  207POPC   C2B 2915   4.386   0.291   5.730  0.0219  0.1080 -0.1691
  207POPC   C3B 2916   4.242  -0.100   5.699 -0.3026 -0.1397  0.1686
  207POPC   C4B 2917   4.240  -0.481   5.870  0.0360  0.0068 -0.0731
  208POPC   NC3 2918   3.815   4.774   4.561 -0.0552 -0.2215 -0.2639
  208POPC   PO4 2919   3.425   4.780   4.681  0.3662  0.2080  0.0830
  208POPC   GL1 2920   3.116   4.946   4.906 -0.1427  0.3450  0.0220
  208POPC   GL2 2921   2.977   4.682   4.843  0.1639  0.1419 -0.2415
  208POPC   C1A 2922   3.076   5.453   5.052  0.1202 -0.0937 -0.2579
  208POPC   D2A 2923   2.836   5.695   5.376 -0.1842  0.0177 -0.0273
  208POPC   C3A 2924   2.690   5.445   5.677 -0.0203  0.2518  0.3536
  208POPC   C4A 2925   2.906   5.194   5.964 -0.0164 -0.1955 -0.4519
  208POPC   C1B 2926   2.708   5.095   5.105  0.1199  0.4738  0.2038
  208POPC   C2B 2927   2.347   5.075   5.574 -0.1992  0.0359  0.0489
  208POPC   C3B 2928   2.256   5.017   5.974  0.0590 -0.0504 -0.3215
  208POPC   C4B 2929   2.059   5.037   6.451  0.1242 -0.0692 -0.1118
  209POPC   NC3 2930   7.435   8.843   4.166  0.4474 -0.0044 -0.1035
  209POPC   PO4 2931   7.288   8.601   4.608 -0.1915  0.0337  0.0400
  209POPC   GL1 2932   7.419   8.537   5.020 -0.0258  0.0469 -0.2919
  209POPC   GL2 2933   7.509   8.236   5.023  0.2301  0.0789  0.0032
  209POPC   C1A 2934   7.812   8.449   5.357 -0.1106 -0.2536  0.0021
  209POPC   D2A 2935   7.975   8.154   5.672  0.2610  0.3642 -0.1634
  209POPC   C3A 2936   8.212   8.187   6.100 -0.0095 -0.1552  0.3224
  209POPC   C4A 2937   8.164   8.079   6.549  0.1300  0.0493  0.0951
  209POPC   C1B 2938   7.408   8.149   5.440  0.0845 -0.0436  0.1718
  209POPC   C2B 2939   7.494   8.063   5.892 -0.2358 -0.1731  0.0852
  209POPC   C3B 2940   7.749   8.014   6.204 -0.1277 -0.1668  0.0061
  209POPC   C4B 2941   7.641   8.083   6.592  0.0394  0.3462 -0.0159
  210POPC   NC3 2942   2.717   9.262   4.190  0.0838  0.2721 -0.1994
  210POPC   PO4 2943   2.917   9.785   4.280  0.1223  0.1042  0.1143
  210POPC   GL1 2944   2.689   9.562   4.714  0.1862  0.0603  0.0844
  210POPC   GL2 2945   2.661   9.251   4.695 -0.0990 -0.1636 -0.1022
  210POPC   C1A 2946   2.923   9.414   5.014 -0.0168  0.1912 -0.2310
  210POPC   D2A 2947   2.920   9.319   5.528 -0.0791  0.2467  0.0895
  210POPC   C3A 2948   2.807   9.051   5.909 -0.0773 -0.3517  0.1574
  210POPC   C4A 2949   2.715   8.992   6.293 -0.1493 -0.1014  0.3473
  210POPC   C1B 2950   2.670   9.065   5.198 -0.0448  0.3468 -0.2900
  210POPC   C2B 2951   2.477   9.007   5.546 -0.1542  0.0257  0.0860
  210POPC   C3B 2952   2.344   8.911   5.984  0.2260  0.1909  0.0657
  210POPC   C4B 2953   2.235   8.928   6.425 -0.0468 -0.1146  0.0302
  211POPC   NC3 2954   8.424   0.309   4.354 -0.1172  0.1723  0.0562
  211POPC   PO4 2955   8.666   0.259   4.656 -0.1842  0.0521 -0.2473
  211POPC   GL1 2956   8.973   0.538   4.864  0.0808 -0.2751 -0.2840
  211POPC   GL2 2957   9.224   0.432   4.878  0.3868  0.0689  0.0385
  211POPC   C1A 2958   9.110   0.723   5.242 -0.0607  0.0194  0.2164
  211POPC   D2A 2959   9.250   1.021   5.464 -0.2062 -0.0125  0.1745
  211POPC   C3A 2960   9.620   0.792   5.873  0.2693  0.0107  0.4453
  211POPC   C4A 2961   9.520   0.546   6.160  0.1132  0.0647 -0.0578
  211POPC   C1B 2962   9.370   0.245   5.232  0.0045  0.2563  0.0809
  211POPC   C2B 2963   9.359   0.188   5.647 -0.1681 -0.1155 -0.2048
  211POPC   C3B 2964   9.383   0.056   6.033  0.0045  0.3519 -0.3463
  211POPC   C4B 2965   9.758   0.141   6.297  0.1345 -0.1602  0.1090
  212POPC   NC3 2966   8.819   5.427   4.369 -0.0324  0.4870  0.1479
  212POPC   PO4 2967   9.239   5.544   4.216  0.0636 -0.0894 -0.0274
  212POPC   GL1 2968   9.198   5.742   4.593  0.1241 -0.1615  0.1361
  212POPC   GL2 2969   9.249   6.078   4.526  0.0158 -0.2632 -0.1334
  212POPC   C1A 2970   9.080   5.800   5.051  0.1638 -0.2108  0.3557
  212POPC   D2A 2971   8.914   5.779   5.421  0.2603  0.2841 -0.0774
  212POPC   C3A 2972   8.532   5.872   5.510  0.1056  0.2249  0.0558
  212POPC   C4A 2973   8.094   5.870   5.315  0.1384 -0.2593  0.1166
  212POPC   C1B 2974   9.729   5.960   4.474 -0.1203  0.0636 -0.3772
  212POPC   C2B 2975  10.053   6.088   4.328  0.0274  0.0937  0.1070
  212POPC   C3B 2976  10.481   5.950   4.369  0.2467  0.3513 -0.3220
  212POPC   C4B 2977  10.638   5.895   4.764  0.1275  0.0010 -0.2118
  213POPC   NC3 2978   5.154   7.421   4.634 -0.3166  0.0017 -0.1567
  213POPC   PO4 2979   5.168   7.827   4.679 -0.2428  0.2818 -0.3063
  213POPC   GL1 2980   5.187   8.175   4.993  0.0937  0.5763 -0.0583
  213POPC   GL2 2981   5.399   8.023   5.169  0.2469 -0.0197 -0.0638
  213POPC   C1A 2982   4.971   8.205   5.386  0.3458  0.0740  0.0637
  213POPC   D2A 2983   4.984   8.365   5.749 -0.1441  0.0598 -0.1817
  213POPC   C3A 2984   5.118   8.366   6.060 -0.1036  0.0112  0.3607
  213POPC   C4A 2985   5.081   8.111   6.495 -0.0482  0.1072  0.2230
  213POPC   C1B 2986   5.442   8.156   5.616  0.2365 -0.0945 -0.0019
  213POPC   C2B 2987   5.586   8.178   6.060  0.0074 -0.2773  0.0431
  213POPC   C3B 2988   5.613   8.332   6.489  0.2631 -0.4740 -0.0854
  213POPC   C4B 2989   5.648   8.677   6.838 -0.1916 -0.0372  0.2725
  214POPC   NC3 2990   2.649   7.591   3.426 -0.4513 -0.1357  0.2788
  214POPC   PO4 2991   2.500   8.083   3.621  0.1931  0.0296 -0.1201
  214POPC   GL1 2992   2.361   7.793   3.748  0.0528 -0.0256 -0.1365
  214POPC   GL2 2993   2.259   7.389   3.679  0.2798  0.0263  0.0601
  214POPC   C1A 2994   2.222   7.927   4.274 -0.0426 -0.0571  0.0887
  214POPC   D2A 2995   2.081   7.722   4.697 -0.3767 -0.0635 -0.0205
  214POPC   C3A 2996   1.819   7.707   4.998  0.1037  0.3117  0.3975
  214POPC   C4A 2997   1.593   7.418   5.300  0.0906 -0.0720  0.2172
  214POPC   C1B 2998   2.060   7.393   4.170  0.0140 -0.3355 -0.0653
  214POPC   C2B 2999   1.968   7.265   4.638  0.2914 -0.0685 -0.2624
  214POPC   C3B 3000   1.766   6.903   4.493 -0.1511  0.3512  0.0495
  214POPC   C4B 3001   1.624   6.558   4.638  0.0757 -0.0316 -0.2106
  215POPC   NC3 3002   4.760   4.225   4.050  0.2229  0.3757 -0.0015
  215POPC   PO4 3003   4.722   4.440   4.534 -0.1367  0.1717  0.2175
  215POPC   GL1 3004   4.764   4.460   5.008  0.0730 -0.0446  0.1370
  215POPC   GL2 3005   4.468   4.436   5.232  0.0810 -0.1424 -0.0953
  215POPC   C1A 3006   5.014   4.608   5.323  0.1417 -0.0293 -0.2263
  215POPC   D2A 3007   5.265   4.939   5.353 -0.1791  0.0970 -0.1503
  215POPC   C3A 3008   5.371   5.116   5.668  0.1071 -0.1272  0.1032
  215POPC   C4A 3009   5.178   5.330   6.011  0.1223  0.3286 -0.3103
  215POPC   C1B 3010   4.592   4.446   5.631 -0.0851  0.0899 -0.0993
  215POPC   C2B 3011   4.601   4.145   5.925 -0.0122 -0.4033  0.0875
  215POPC   C3B 3012   4.844   4.008   6.204  0.1464 -0.1319  0.2192
  215POPC   C4B 3013   4.917   4.189   6.620 -0.0961 -0.0706 -0.1394
  216POPC   NC3 3014   6.416   1.652   4.338 -0.0461  0.4583 -0.2361
  216POPC   PO4 3015   6.133   1.279   4.496  0.1816 -0.1733 -0.2171
  216POPC   GL1 3016   5.948   1.259   4.811  0.1619  0.1276 -0.0192
  216POPC   GL2 3017   6.010   0.965   4.947 -0.2535  0.1476  0.0597
  216POPC   C1A 3018   6.146   1.349   5.246 -0.0021  0.0762 -0.0717
  216POPC   D2A 3019   6.390   0.939   5.513  0.0757 -0.1675  0.3613
  216POPC   C3A 3020   6.305   0.940   5.955 -0.3484  0.0301 -0.1577
  216POPC   C4A 3021   6.070   0.613   6.135 -0.3256 -0.0059  0.1370
  216POPC   C1B 3022   5.871   0.977   5.381 -0.1211  0.1348 -0.0797
  216POPC   C2B 3023   5.782   1.014   5.929 -0.0117  0.2661  0.1004
  216POPC   C3B 3024   5.470   1.121   6.214  0.3501 -0.0899 -0.0447
  216POPC   C4B 3025   5.045   0.770   6.191  0.3212  0.1113 -0.0391
  217POPC   NC3 3026   1.488   4.734   4.091 -0.5297  0.1438  0.1638
  217POPC   PO4 3027   1.865   5.031   4.118  0.5119  0.0740  0.2988
  217POPC   GL1 3028   2.033   5.033   4.527 -0.2991  0.1685 -0.2351
  217POPC   GL2 3029   2.287   5.108   4.694  0.2114 -0.0734 -0.2281
  217POPC   C1A 3030   1.808   5.368   4.719 -0.2115 -0.1727 -0.2601
  217POPC   D2A 3031   1.606   5.496   5.096 -0.2166 -0.0641 -0.0782
  217POPC   C3A 3032   1.419   5.403   5.439 -0.0820  0.2303  0.0758
  217POPC   C4A 3033   1.250   5.369   5.871 -0.0878 -0.1243 -0.0117
  217POPC   C1B 3034   2.160   5.176   5.097  0.1458  0.1113 -0.1240
  217POPC   C2B 3035   1.906   5.009   5.356 -0.0388  0.0350  0.1752
  217POPC   C3B 3036   1.732   4.709   5.517  0.4674 -0.1409  0.0086
  217POPC   C4B 3037   1.532   4.465   5.798 -0.1647  0.0528 -0.0019
  218POPC   NC3 3038   0.223   3.594   4.318  0.2125 -0.0910  0.0123
  218POPC   PO4 3039   0.222   3.206   4.295  0.1461 -0.2922 -0.0772
  218POPC   GL1 3040   0.274   3.274   4.755  0.3370  0.0167  0.2045
  218POPC   GL2 3041   0.058   3.442   5.040  0.0289  0.3637  0.1718
  218POPC   C1A 3042   0.442   3.122   5.158  0.2523  0.1768  0.1702
  218POPC   D2A 3043   0.357   3.331   5.541  0.0076  0.0971  0.2764
  218POPC   C3A 3044   0.289   3.037   5.850 -0.2784  0.3136 -0.0473
  218POPC   C4A 3045   0.247   3.111   6.313 -0.0015  0.1826  0.2303
  218POPC   C1B 3046   0.527   3.597   5.145 -0.0137 -0.1556  0.3305
  218POPC   C2B 3047   0.680   3.957   5.286 -0.2273  0.1173 -0.3132
  218POPC   C3B 3048   0.817   4.299   5.593  0.0808  0.2025 -0.1983
  218POPC   C4B 3049   1.033   4.400   5.855  0.0156 -0.0002  0.1728
  219POPC   NC3 3050   6.133   8.700   4.805 -0.1131  0.1780  0.1482
  219POPC   PO4 3051   5.753   8.948   4.679 -0.4081 -0.2465  0.4693
  219POPC   GL1 3052   5.576   8.723   4.880  0.0545  0.1594  0.0842
  219POPC   GL2 3053   5.289   8.647   4.769  0.0882 -0.1174 -0.2809
  219POPC   C1A 3054   5.560   8.453   5.273 -0.2039 -0.3528 -0.0482
  219POPC   D2A 3055   5.453   8.607   5.742 -0.3630  0.2053 -0.0190
  219POPC   C3A 3056   5.721   8.732   6.059 -0.0611 -0.2806  0.1806
  219POPC   C4A 3057   5.497   8.912   6.397 -0.1807  0.3701  0.2935
  219POPC   C1B 3058   5.107   8.739   5.129 -0.0745 -0.2972 -0.1238
  219POPC   C2B 3059   5.097   8.970   5.547 -0.0845  0.1827  0.0469
  219POPC   C3B 3060   5.116   8.894   5.996  0.0050 -0.2474  0.1481
  219POPC   C4B 3061   5.031   8.771   6.355 -0.1308 -0.2640  0.0231
  220POPC   NC3 3062   0.808   3.337   4.612 -0.2679  0.1855 -0.0052
  220POPC   PO4 3063   0.634   3.768   4.508  0.3232  0.0862  0.3467
  220POPC   GL1 3064   0.942   3.846   4.827  0.3560  0.1505  0.3165
  220POPC   GL2 3065   1.181   4.012   4.760 -0.1014 -0.1568 -0.1195
  220POPC   C1A 3066   1.027   3.600   5.316  0.1665  0.1254 -0.3799
  220POPC   D2A 3067   1.042   3.659   5.714 -0.0329  0.2660  0.3962
  220POPC   C3A 3068   0.741   3.866   5.841  0.0582  0.5073  0.2243
  220POPC   C4A 3069   0.642   3.991   6.207  0.0438 -0.1354  0.1158
  220POPC   C1B 3070   1.120   4.166   5.207  0.0752  0.0096  0.0060
  220POPC   C2B 3071   1.310   4.077   5.563  0.0295  0.1293  0.3293
  220POPC   C3B 3072   1.417   4.006   6.018 -0.1070 -0.0473  0.5260
  220POPC   C4B 3073   1.507   3.877   6.471  0.3939  0.0388 -0.0866
  221POPC   NC3 3074   3.950   3.004   4.895  0.1522 -0.2932 -0.0760
  221POPC   PO4 3075   3.605   3.223   4.941 -0.1263  0.3324 -0.0143
  221POPC   GL1 3076   3.493   3.514   5.152  0.1586  0.0968 -0.0318
  221POPC   GL2 3077   3.128   3.483   5.241 -0.1855 -0.1854  0.3266
  221POPC   C1A 3078   3.289   3.966   5.051 -0.1085  0.1528 -0.1717
  221POPC   D2A 3079   3.424   4.468   5.157  0.2520 -0.0097 -0.1764
  221POPC   C3A 3080   3.333   4.856   5.344 -0.0171 -0.1104 -0.0385
  221POPC   C4A 3081   3.055   5.195   5.487  0.2676  0.1932  0.0443
  221POPC   C1B 3082   3.036   3.253   5.568 -0.2604 -0.2215 -0.1845
  221POPC   C2B 3083   2.952   3.391   5.979 -0.0726 -0.0916  0.2400
  221POPC   C3B 3084   2.709   3.380   6.322 -0.0064 -0.1719 -0.0764
  221POPC   C4B 3085   2.418   3.550   6.665 -0.0987  0.0368 -0.1518
  222POPC   NC3 3086   6.818   2.388   4.562 -0.0672 -0.0740  0.0163
  222POPC   PO4 3087   6.482   2.717   4.471 -0.1145  0.3269  0.3348
  222POPC   GL1 3088   6.332   2.641   4.840 -0.0078 -0.3927 -0.0670
  222POPC   GL2 3089   6.452   2.385   4.977  0.0335  0.0654  0.0053
  222POPC   C1A 3090   6.202   2.865   5.276  0.2513  0.0787  0.2227
  222POPC   D2A 3091   6.406   3.137   5.636  0.3359  0.0900 -0.0648
  222POPC   C3A 3092   6.542   2.839   5.928 -0.0449 -0.4081  0.3770
  222POPC   C4A 3093   6.889   3.016   6.160 -0.3826 -0.1801  0.0545
  222POPC   C1B 3094   6.215   2.352   5.373 -0.1596 -0.2765  0.4129
  222POPC   C2B 3095   6.141   2.602   5.748 -0.0854  0.1500  0.1193
  222POPC   C3B 3096   6.033   2.957   5.979  0.1535 -0.0744  0.2310
  222POPC   C4B 3097   5.945   3.268   6.247  0.3985  0.0847  0.0468
  223POPC   NC3 3098   9.655   3.655   4.318 -0.0377 -0.0825 -0.0394
  223POPC   PO4 3099   9.526   4.009   4.481 -0.0942  0.2378  0.1861
  223POPC   GL1 3100   9.577   4.179   4.834  0.3057  0.2338  0.0696
  223POPC   GL2 3101   9.459   3.934   5.067 -0.1764 -0.0060 -0.1258
  223POPC   C1A 3102   9.876   4.319   5.038  0.2868  0.1408 -0.2862
  223POPC   D2A 3103  10.225   4.453   5.393  0.1341  0.0715  0.0136
  223POPC   C3A 3104  10.272   4.334   5.760 -0.4159 -0.3542 -0.2633
  223POPC   C4A 3105  10.064   4.157   6.059 -0.0601 -0.2561  0.1483
  223POPC   C1B 3106   9.713   4.050   5.483 -0.1844  0.0587  0.2007
  223POPC   C2B 3107   9.663   3.879   5.877  0.4938  0.0791  0.1023
  223POPC   C3B 3108   9.533   3.525   6.090  0.3088 -0.0465  0.2582
  223POPC   C4B 3109   9.730   3.168   5.852  0.3226  0.1603  0.0611
  224POPC   NC3 3110   4.461   6.176   4.932  0.0826  0.0133 -0.1373
  224POPC   PO4 3111   4.505   6.671   4.887  0.2270  0.2816  0.0238
  224POPC   GL1 3112   4.476   6.634   5.281  0.1129 -0.0201 -0.2524
  224POPC   GL2 3113   4.203   6.419   5.403  0.3435  0.0319 -0.0511
  224POPC   C1A 3114   4.591   6.699   5.653 -0.1621  0.2602  0.1441
  224POPC   D2A 3115   4.590   6.639   6.108  0.2373  0.0751 -0.0346
  224POPC   C3A 3116   4.539   6.823   6.458 -0.0266  0.0764 -0.1634
  224POPC   C4A 3117   4.384   7.207   6.706  0.1591 -0.2477  0.2688
  224POPC   C1B 3118   4.125   6.462   5.853 -0.0264  0.0030  0.0664
  224POPC   C2B 3119   4.124   6.489   6.265 -0.0480 -0.0340 -0.1477
  224POPC   C3B 3120   4.029   6.807   6.557 -0.1362 -0.2069  0.3980
  224POPC   C4B 3121   3.971   7.346   6.669  0.1545 -0.0736  0.1996
  225POPC   NC3 3122   5.004   0.200   4.618 -0.1339  0.2440  0.3026
  225POPC   PO4 3123   4.629  -0.016   4.697 -0.0510 -0.1421 -0.1159
  225POPC   GL1 3124   4.848  -0.168   5.124 -0.2633 -0.1290  0.0315
  225POPC   GL2 3125   4.608   0.049   5.330  0.1214 -0.2882  0.1538
  225POPC   C1A 3126   5.172  -0.116   5.391  0.1282  0.3696 -0.4078
  225POPC   D2A 3127   5.255  -0.005   5.753  0.0156 -0.3402  0.2235
  225POPC   C3A 3128   5.503  -0.157   6.125 -0.2479 -0.1661 -0.1734
  225POPC   C4A 3129   5.620  -0.442   6.430 -0.0521 -0.2906 -0.4976
  225POPC   C1B 3130   4.768  -0.168   5.695  0.0937  0.2391  0.0131
  225POPC   C2B 3131   4.572  -0.167   6.072 -0.3408  0.1920 -0.1472
  225POPC   C3B 3132   4.728  -0.081   6.555 -0.0781 -0.0422  0.0731
  225POPC   C4B 3133   4.849  -0.155   6.958  0.0550  0.1075 -0.0517
  226POPC   NC3 3134   3.960   2.777   4.469  0.1023 -0.2967 -0.0531
  226POPC   PO4 3135   3.671   2.545   4.816  0.0368  0.0728  0.1357
  226POPC   GL1 3136   3.607   2.593   5.175  0.0197 -0.1554  0.0862
  226POPC   GL2 3137   3.699   2.866   5.328  0.1591 -0.0375 -0.2084
  226POPC   C1A 3138   3.316   2.719   5.603  0.0681 -0.0594  0.0379
  226POPC   D2A 3139   3.418   2.999   5.836  0.3090  0.0980 -0.0457
  226POPC   C3A 3140   3.189   2.960   6.136  0.1347  0.2114  0.1435
  226POPC   C4A 3141   3.037   2.980   6.519  0.0788 -0.0719  0.0542
  226POPC   C1B 3142   3.889   3.071   5.655 -0.2735  0.1253 -0.2250
  226POPC   C2B 3143   4.089   2.990   6.004 -0.0874 -0.0215  0.2126
  226POPC   C3B 3144   4.115   2.659   6.167 -0.0501 -0.2476 -0.1577
  226POPC   C4B 3145   4.113   2.219   6.170 -0.1920 -0.4127  0.2174
  227POPC   NC3 3146   9.789   6.337   3.556  0.0121 -0.0427 -0.1430
  227POPC   PO4 3147   9.370   6.339   3.674 -0.0586 -0.0362 -0.0444
  227POPC   GL1 3148   9.516   6.414   4.086  0.2740  0.1951 -0.0688
  227POPC   GL2 3149   9.163   6.503   4.214 -0.2261  0.1398  0.0143
  227POPC   C1A 3150   9.780   6.488   4.445 -0.0388 -0.0700  0.0896
  227POPC   D2A 3151  10.066   6.781   4.690 -0.1808 -0.1638 -0.0963
  227POPC   C3A 3152  10.114   7.197   4.632 -0.0254 -0.4075 -0.0108
  227POPC   C4A 3153  10.470   7.375   4.533  0.2155 -0.1105  0.1004
  227POPC   C1B 3154   9.295   6.656   4.522  0.1801 -0.2538 -0.2841
  227POPC   C2B 3155   9.593   6.594   4.857  0.0961 -0.1613  0.1415
  227POPC   C3B 3156   9.593   6.520   5.318  0.3840 -0.1016 -0.1615
  227POPC   C4B 3157   9.805   6.238   5.577  0.2468 -0.0309 -0.0027
  228POPC   NC3 3158   4.112   1.243   4.074 -0.0211  0.0082  0.0351
  228POPC   PO4 3159   4.418   1.266   4.493  0.1422  0.0514  0.3491
  228POPC   GL1 3160   4.348   1.444   4.911 -0.1746  0.0889  0.0648
  228POPC   GL2 3161   4.571   1.644   5.107  0.4068 -0.1794 -0.1948
  228POPC   C1A 3162   4.107   1.311   5.188  0.0580  0.0605 -0.0476
  228POPC   D2A 3163   4.166   1.072   5.513  0.2343 -0.1078 -0.1023
  228POPC   C3A 3164   4.099   0.662   5.482 -0.0205  0.1763  0.1675
  228POPC   C4A 3165   4.016   0.258   5.369  0.1261  0.0438 -0.0751
  228POPC   C1B 3166   4.789   1.794   5.509 -0.0855 -0.0994  0.1292
  228POPC   C2B 3167   4.711   1.575   5.923 -0.0757  0.2306  0.0977
  228POPC   C3B 3168   4.966   1.180   5.896 -0.0778 -0.3258 -0.3876
  228POPC   C4B 3169   5.359   1.086   5.674 -0.5288  0.1687 -0.4999
  229POPC   NC3 3170   2.975   2.881   4.567  0.1484  0.1612  0.2337
  229POPC   PO4 3171   2.673   2.717   4.676  0.0519 -0.2722 -0.0915
  229POPC   GL1 3172   2.631   2.659   5.162 -0.1546 -0.0711 -0.0227
  229POPC   GL2 3173   2.770   2.871   5.335  0.0344 -0.2475 -0.0182
  229POPC   C1A 3174   2.362   2.597   5.544  0.1272 -0.0321  0.3854
  229POPC   D2A 3175   2.307   2.740   5.877  0.0681 -0.6590  0.1853
  229POPC   C3A 3176   2.171   2.531   6.237  0.1395 -0.0510  0.0652
  229POPC   C4A 3177   2.506   2.418   6.568  0.0886 -0.0718  0.0550
  229POPC   C1B 3178   2.752   2.839   5.745 -0.1128  0.4244 -0.0033
  229POPC   C2B 3179   2.804   2.565   6.061 -0.1360  0.1810  0.2348
  229POPC   C3B 3180   3.057   2.482   6.453  0.1144  0.1670  0.3482
  229POPC   C4B 3181   3.401   2.250   6.598 -0.2140  0.0726  0.2147
  230POPC   NC3 3182   5.031   5.221   5.017 -0.2430  0.1379  0.2076
  230POPC   PO4 3183   5.538   5.117   4.944  0.1354 -0.0046 -0.2805
  230POPC   GL1 3184   5.789   5.122   5.402  0.0058  0.3523 -0.0524
  230POPC   GL2 3185   5.984   5.396   5.469 -0.0491  0.3978  0.3317
  230POPC   C1A 3186   5.949   4.722   5.454 -0.2544 -0.0456 -0.1055
  230POPC   D2A 3187   6.263   4.449   5.491  0.4815 -0.0259  0.2214
  230POPC   C3A 3188   6.381   4.121   5.855 -0.0165 -0.1513  0.0522
  230POPC   C4A 3189   6.475   4.446   6.286 -0.1684 -0.0511  0.1730
  230POPC   C1B 3190   5.794   5.389   5.847  0.0042 -0.1878 -0.3040
  230POPC   C2B 3191   5.664   5.251   6.156  0.1162  0.1217  0.1554
  230POPC   C3B 3192   5.478   5.040   6.440  0.1026  0.0107  0.4117
  230POPC   C4B 3193   5.115   4.934   6.324 -0.2290  0.1652  0.2112
  231POPC   NC3 3194   2.344   5.251   4.179  0.1155 -0.2516  0.1983
  231POPC   PO4 3195   2.818   5.407   4.154  0.1062  0.0109  0.1469
  231POPC   GL1 3196   2.850   5.527   4.545  0.2370 -0.0532 -0.3359
  231POPC   GL2 3197   2.500   5.529   4.583 -0.0239  0.2381 -0.2266
  231POPC   C1A 3198   2.855   5.837   4.821 -0.3161 -0.1866 -0.2528
  231POPC   D2A 3199   2.940   6.205   5.143  0.1990  0.3818 -0.0873
  231POPC   C3A 3200   3.017   6.026   5.737 -0.2159 -0.0016  0.1191
  231POPC   C4A 3201   2.710   5.821   6.036  0.1993  0.0788  0.1066
  231POPC   C1B 3202   2.528   5.505   4.983  0.2326 -0.0526 -0.1542
  231POPC   C2B 3203   2.352   5.566   5.335 -0.0574 -0.2312 -0.0868
  231POPC   C3B 3204   1.969   5.457   5.616  0.0539  0.1063  0.0916
  231POPC   C4B 3205   1.760   5.233   5.869 -0.4168 -0.1713 -0.0742
  232POPC   NC3 3206   4.757   4.899   4.718 -0.1041 -0.1655 -0.0264
  232POPC   PO4 3207   4.536   5.243   4.834  0.3589 -0.1910  0.3110
  232POPC   GL1 3208   4.146   5.381   5.119  0.0831  0.0501  0.1309
  232POPC   GL2 3209   3.937   5.560   5.054  0.1379  0.2225 -0.1643
  232POPC   C1A 3210   4.018   5.165   5.458 -0.1049 -0.2692  0.1997
  232POPC   D2A 3211   3.765   4.947   5.670  0.0608 -0.4410 -0.0097
  232POPC   C3A 3212   3.756   4.946   6.144 -0.0045 -0.3487  0.0112
  232POPC   C4A 3213   3.707   5.053   6.590 -0.2246 -0.0929  0.2133
  232POPC   C1B 3214   3.836   5.730   5.421 -0.0273  0.0519  0.2956
  232POPC   C2B 3215   4.027   5.972   5.705 -0.0224 -0.3237  0.1283
  232POPC   C3B 3216   3.877   6.121   6.119 -0.4413  0.0648 -0.2434
  232POPC   C4B 3217   3.622   6.380   6.423 -0.0493  0.0723  0.1560
  233POPC   NC3 3218   7.757   0.336   4.241  0.0689  0.0916 -0.2068
  233POPC   PO4 3219   7.674  -0.079   4.580  0.2002 -0.2611 -0.1760
  233POPC   GL1 3220   7.618  -0.035   4.982 -0.0375  0.1192  0.0268
  233POPC   GL2 3221   7.454   0.134   5.094  0.0957  0.1112  0.0497
  233POPC   C1A 3222   7.676  -0.145   5.441 -0.1167  0.2440  0.1102
  233POPC   D2A 3223   7.520  -0.240   5.841  0.1317  0.2035  0.0645
  233POPC   C3A 3224   7.344   0.101   6.019  0.1655  0.0903  0.1193
  233POPC   C4A 3225   7.199   0.567   5.976 -0.0315  0.0578  0.0303
  233POPC   C1B 3226   7.445   0.337   5.480  0.1583  0.2133 -0.2112
  233POPC   C2B 3227   7.769   0.590   5.717 -0.0535 -0.0294  0.1025
  233POPC   C3B 3228   7.640   0.540   6.123  0.0673 -0.2340 -0.0856
  233POPC   C4B 3229   7.700   0.326   6.575  0.1748 -0.0864  0.1923
  234POPC   NC3 3230   6.175   6.477   4.831  0.2919  0.0373  0.3671
  234POPC   PO4 3231   6.111   6.766   5.258 -0.0483 -0.0350 -0.0464
  234POPC   GL1 3232   5.866   6.670   5.656  0.2114 -0.2751 -0.0649
  234POPC   GL2 3233   6.008   6.385   5.620 -0.0616  0.2573 -0.2025
  234POPC   C1A 3234   5.469   6.804   5.803 -0.1404  0.1989  0.2472
  234POPC   D2A 3235   5.087   6.662   6.033  0.2663  0.3392 -0.1825
  234POPC   C3A 3236   5.001   6.683   6.447 -0.0322  0.0996 -0.1387
  234POPC   C4A 3237   5.123   6.927   6.829 -0.1442  0.1589  0.0015
  234POPC   C1B 3238   5.879   6.411   6.064 -0.0265 -0.0517  0.1389
  234POPC   C2B 3239   5.929   6.780   6.185 -0.1965  0.3315  0.1870
  234POPC   C3B 3240   6.142   7.083   6.259  0.2365 -0.1500 -0.0509
  234POPC   C4B 3241   6.538   7.114   6.493 -0.1058 -0.0001 -0.1720
  235POPC   NC3 3242   1.711   9.809   4.272  0.0781  0.2799 -0.3864
  235POPC   PO4 3243   1.289   9.704   4.020  0.1368 -0.1389 -0.2737
  235POPC   GL1 3244   1.286   9.520   4.453 -0.0175  0.3308 -0.0215
  235POPC   GL2 3245   1.486   9.434   4.579 -0.0574  0.2696  0.1126
  235POPC   C1A 3246   0.972   9.355   4.652 -0.2637  0.2807 -0.2557
  235POPC   D2A 3247   0.783   9.069   4.964  0.3004  0.3275  0.3103
  235POPC   C3A 3248   0.725   9.092   5.392  0.4582  0.3064  0.2804
  235POPC   C4A 3249   0.633   9.290   5.791  0.0698  0.0240  0.2851
  235POPC   C1B 3250   1.434   9.471   4.972 -0.1447 -0.0593  0.1626
  235POPC   C2B 3251   1.170   9.423   5.170  0.0745 -0.5754 -0.1402
  235POPC   C3B 3252   1.128   9.357   5.611  0.0510 -0.1003  0.0448
  235POPC   C4B 3253   1.070   9.187   6.027 -0.0344 -0.2454  0.0140
  236POPC   NC3 3254   6.852   7.519   4.633 -0.0084 -0.1712 -0.1671
  236POPC   PO4 3255   6.696   7.922   4.577 -0.0061  0.2422  0.1666
  236POPC   GL1 3256   6.740   7.872   5.013  0.0186 -0.0340  0.0486
  236POPC   GL2 3257   6.864   8.051   5.346  0.0529  0.0396  0.0100
  236POPC   C1A 3258   6.313   7.945   5.339 -0.1234 -0.2332 -0.2151
  236POPC   D2A 3259   6.103   8.009   5.744 -0.2624 -0.0786 -0.2250
  236POPC   C3A 3260   5.988   8.302   5.620 -0.0757  0.0101  0.0143
  236POPC   C4A 3261   6.004   8.732   5.490  0.4916  0.0574  0.3816
  236POPC   C1B 3262   6.953   8.274   5.734 -0.1637  0.0282  0.1247
  236POPC   C2B 3263   7.201   8.451   5.969  0.0387 -0.3342  0.0511
  236POPC   C3B 3264   7.421   8.494   6.280  0.0905 -0.0480 -0.1753
  236POPC   C4B 3265   7.593   8.898   6.417 -0.1848 -0.0172 -0.1475
  237POPC   NC3 3266   1.910   7.623   3.458  0.0149 -0.0129  0.0606
  237POPC   PO4 3267   1.821   7.216   3.532 -0.2372  0.1434  0.0347
  237POPC   GL1 3268   1.705   7.224   3.881  0.3508 -0.0478 -0.2107
  237POPC   GL2 3269   1.831   6.925   3.978  0.1163  0.1183  0.3736
  237POPC   C1A 3270   1.523   7.346   4.266  0.0927  0.0944 -0.3445
  237POPC   D2A 3271   1.414   7.225   4.700  0.2395 -0.1934 -0.0308
  237POPC   C3A 3272   1.580   7.001   4.960 -0.3062  0.1289  0.0059
  237POPC   C4A 3273   2.058   7.140   5.100  0.1016 -0.0006  0.0903
  237POPC   C1B 3274   2.248   6.994   4.305  0.3765  0.1870  0.1439
  237POPC   C2B 3275   2.274   6.903   4.671 -0.3028 -0.0193 -0.0971
  237POPC   C3B 3276   2.122   6.543   4.949 -0.2278 -0.0174 -0.1578
  237POPC   C4B 3277   1.908   6.359   5.004 -0.3249  0.1568  0.2128
  238POPC   NC3 3278   8.700   6.789   4.330 -0.1135  0.1153  0.1047
  238POPC   PO4 3279   8.474   6.341   4.299  0.5030  0.4386 -0.1262
  238POPC   GL1 3280   8.463   6.548   4.677 -0.0725 -0.0253 -0.2896
  238POPC   GL2 3281   8.828   6.390   4.657  0.1164 -0.0578 -0.1361
  238POPC   C1A 3282   8.479   6.713   5.100  0.2275 -0.0190 -0.2195
  238POPC   D2A 3283   8.643   7.076   5.294 -0.2133 -0.0277 -0.1008
  238POPC   C3A 3284   8.794   7.009   5.716  0.2109  0.1342 -0.0259
  238POPC   C4A 3285   8.655   6.823   5.979 -0.1020 -0.2021 -0.2682
  238POPC   C1B 3286   9.092   6.317   4.991  0.0136 -0.0949  0.2614
  238POPC   C2B 3287   9.127   6.298   5.381 -0.0069  0.3320  0.1155
  238POPC   C3B 3288   8.890   6.169   5.717  0.2804  0.0083  0.0005
  238POPC   C4B 3289   9.036   5.812   5.977  0.2308 -0.4306  0.1534
  239POPC   NC3 3290   0.932   7.255   3.198  0.3199 -0.0433  0.0231
  239POPC   PO4 3291   0.847   7.653   3.362  0.0957 -0.0041 -0.0939
  239POPC   GL1 3292   0.745   7.744   3.736 -0.0054  0.1559  0.3414
  239POPC   GL2 3293   1.030   8.057   3.775  0.0651 -0.0462  0.0343
  239POPC   C1A 3294   0.762   7.574   4.120 -0.1466 -0.0818  0.1780
  239POPC   D2A 3295   0.975   7.317   4.451  0.1288  0.2401  0.1259
  239POPC   C3A 3296   0.897   7.319   4.803  0.0211 -0.1171 -0.1859
  239POPC   C4A 3297   1.141   7.201   5.168  0.0216 -0.0904  0.0632
  239POPC   C1B 3298   0.788   8.174   4.176  0.0407  0.0014  0.0331
  239POPC   C2B 3299   0.975   8.416   4.509  0.3473  0.1973  0.3202
  239POPC   C3B 3300   1.096   8.682   4.813  0.1403  0.3509 -0.0730
  239POPC   C4B 3301   1.324   9.030   4.800 -0.1246 -0.1314  0.0522
  240POPC   NC3 3302   9.417   2.968   4.505 -0.0261 -0.0296 -0.4357
  240POPC   PO4 3303   9.034   3.211   4.440 -0.0636 -0.2285 -0.2270
  240POPC   GL1 3304   8.993   3.055   4.844 -0.0793  0.0764  0.0853
  240POPC   GL2 3305   8.707   3.223   5.050  0.3580 -0.2110  0.4119
  240POPC   C1A 3306   8.910   2.785   5.232 -0.0125  0.1967 -0.1900
  240POPC   D2A 3307   8.926   2.399   5.561 -0.0295 -0.1440  0.0567
  240POPC   C3A 3308   8.815   2.400   5.917  0.0755 -0.1559  0.0230
  240POPC   C4A 3309   8.748   2.339   6.391 -0.3556 -0.2175  0.0101
  240POPC   C1B 3310   8.771   3.367   5.504 -0.1799  0.0161  0.1829
  240POPC   C2B 3311   8.997   3.209   5.933  0.3021  0.1932 -0.0695
  240POPC   C3B 3312   9.172   3.202   6.431 -0.0613 -0.2503 -0.1555
  240POPC   C4B 3313   9.428   3.163   6.802  0.1646 -0.1716  0.0612
  241POPC   NC3 3314   5.747   2.608   4.749  0.1104  0.1279  0.1701
  241POPC   PO4 3315   5.410   2.617   4.586  0.0075 -0.3390 -0.1929
  241POPC   GL1 3316   5.231   2.654   4.959  0.0905  0.2818  0.1601
  241POPC   GL2 3317   5.333   2.955   5.125  0.3159 -0.1590  0.2353
  241POPC   C1A 3318   5.120   2.394   5.316  0.0819 -0.0390 -0.1115
  241POPC   D2A 3319   5.162   2.109   5.682  0.0971  0.1900  0.0367
  241POPC   C3A 3320   4.999   2.005   6.115  0.1096 -0.0074  0.3880
  241POPC   C4A 3321   5.136   1.983   6.515 -0.0890 -0.2124  0.1905
  241POPC   C1B 3322   5.134   2.878   5.476 -0.0514  0.2838  0.1186
  241POPC   C2B 3323   4.688   2.722   5.490 -0.3037 -0.0204  0.1130
  241POPC   C3B 3324   4.165   2.661   5.504 -0.2946 -0.1486 -0.1218
  241POPC   C4B 3325   3.760   2.591   5.768  0.0822 -0.2129 -0.1741
  242POPC   NC3 3326   6.658   3.153   4.268 -0.1724  0.4497  0.0794
  242POPC   PO4 3327   6.780   3.524   4.517 -0.5261  0.2084 -0.2736
  242POPC   GL1 3328   6.884   3.540   5.001 -0.3082 -0.1491  0.2391
  242POPC   GL2 3329   7.020   3.765   4.971 -0.0215  0.1355 -0.0753
  242POPC   C1A 3330   7.186   3.475   5.368  0.0183 -0.1754  0.0091
  242POPC   D2A 3331   7.358   3.345   5.630  0.0778  0.0967  0.1952
  242POPC   C3A 3332   7.561   2.984   5.716  0.0323 -0.0791 -0.0362
  242POPC   C4A 3333   7.784   2.696   6.060  0.2922 -0.1022 -0.1141
  242POPC   C1B 3334   7.034   3.917   5.440 -0.1330 -0.0785  0.0869
  242POPC   C2B 3335   6.803   3.918   5.844 -0.2807  0.0163 -0.0356
  242POPC   C3B 3336   6.602   3.736   6.141  0.1007 -0.3621  0.0869
  242POPC   C4B 3337   6.487   3.259   6.171  0.0982  0.0709  0.3741
  243POPC   NC3 3338   3.042   4.730   4.282 -0.1998  0.0062 -0.1777
  243POPC   PO4 3339   2.829   4.448   4.453  0.1599 -0.0743 -0.2010
  243POPC   GL1 3340   2.469   4.676   4.818  0.0939 -0.1005 -0.0476
  243POPC   GL2 3341   2.156   4.621   4.802 -0.1188 -0.1585 -0.0825
  243POPC   C1A 3342   2.310   4.707   5.261  0.0329  0.0397 -0.3399
  243POPC   D2A 3343   2.256   4.482   5.711  0.1346  0.0624  0.0134
  243POPC   C3A 3344   1.997   4.502   6.113 -0.1115  0.0567  0.2253
  243POPC   C4A 3345   1.759   4.281   6.303 -0.1005  0.0288 -0.0501
  243POPC   C1B 3346   1.970   4.407   5.174 -0.2104 -0.1054  0.1931
  243POPC   C2B 3347   1.832   4.106   5.587  0.0932 -0.1112  0.2846
  243POPC   C3B 3348   1.996   4.040   5.967  0.2226 -0.3636  0.1732
  243POPC   C4B 3349   2.484   4.229   6.136 -0.0495 -0.2977 -0.3936
  244POPC   NC3 3350   5.310   9.341   4.100  0.0771  0.2300  0.3941
  244POPC   PO4 3351   5.375   9.345   4.645 -0.1021 -0.0272 -0.0417
  244POPC   GL1 3352   5.431   9.203   5.122  0.1053 -0.0842  0.0697
  244POPC   GL2 3353   5.286   9.415   5.188 -0.0420 -0.0997 -0.2926
  244POPC   C1A 3354   5.600   9.025   5.398 -0.1142 -0.4925  0.2149
  244POPC   D2A 3355   6.029   9.295   5.476  0.1759  0.1371  0.1777
  244POPC   C3A 3356   6.133   9.217   5.774  0.4437  0.3454 -0.2176
  244POPC   C4A 3357   6.210   8.863   5.977 -0.1197  0.2833  0.0286
  244POPC   C1B 3358   5.576   9.535   5.480 -0.0117 -0.0885  0.0861
  244POPC   C2B 3359   5.874   9.688   5.828 -0.3106 -0.1178  0.1714
  244POPC   C3B 3360   6.110   9.653   6.285  0.3055 -0.3042 -0.1000
  244POPC   C4B 3361   5.921   9.843   6.804 -0.5081 -0.0404 -0.1519
  245POPC   NC3 3362   6.595   6.663   5.062 -0.1118 -0.0355  0.0675
  245POPC   PO4 3363   6.843   6.249   5.196  0.1700  0.0229 -0.0531
  245POPC   GL1 3364   6.664   6.055   5.596 -0.0768 -0.0863 -0.0772
  245POPC   GL2 3365   6.804   5.877   5.725  0.1384  0.0474 -0.1806
  245POPC   C1A 3366   6.360   6.159   5.953  0.1980 -0.0006 -0.0095
  245POPC   D2A 3367   6.324   6.210   6.377  0.0664  0.1381  0.0080
  245POPC   C3A 3368   6.128   6.547   6.734  0.4440 -0.1838  0.2282
  245POPC   C4A 3369   6.069   7.003   6.755  0.0790 -0.2500  0.2024
  245POPC   C1B 3370   6.917   6.249   5.995  0.1060 -0.1110 -0.1389
  245POPC   C2B 3371   7.246   6.492   6.168 -0.1051  0.1940 -0.0390
  245POPC   C3B 3372   7.033   6.827   6.460  0.0301  0.0226  0.3582
  245POPC   C4B 3373   6.999   7.128   6.762 -0.0387  0.0284  0.0476
  246POPC   NC3 3374   9.358   4.465   4.462 -0.0203 -0.2919 -0.0657
  246POPC   PO4 3375   9.667   4.849   4.350  0.0061 -0.0164  0.1457
  246POPC   GL1 3376   9.751   4.900   4.725 -0.0861 -0.0362 -0.1634
  246POPC   GL2 3377   9.470   4.756   4.898 -0.0660  0.2575  0.1220
  246POPC   C1A 3378   9.883   4.799   5.145 -0.1266 -0.0008 -0.0242
  246POPC   D2A 3379   9.993   4.913   5.568  0.0735 -0.1754 -0.0943
  246POPC   C3A 3380  10.035   4.813   6.024  0.0059  0.1319  0.2675
  246POPC   C4A 3381   9.996   4.522   6.369 -0.1396  0.0177  0.2632
  246POPC   C1B 3382   9.446   4.995   5.282  0.1050 -0.1380  0.0512
  246POPC   C2B 3383   9.558   5.059   5.695 -0.0527  0.2913 -0.1731
  246POPC   C3B 3384   9.675   5.105   6.100  0.1713 -0.0998  0.0842
  246POPC   C4B 3385  10.130   5.137   6.339  0.0657 -0.0248 -0.0590
  247POPC   NC3 3386   7.490   9.412   4.707 -0.1974 -0.0382  0.5591
  247POPC   PO4 3387   7.792   9.152   4.507  0.1357  0.2769 -0.0521
  247POPC   GL1 3388   7.647   9.015   4.902  0.1521  0.0424 -0.1459
  247POPC   GL2 3389   7.250   9.004   4.964 -0.2660  0.0651 -0.1224
  247POPC   C1A 3390   7.683   8.923   5.285  0.1256  0.2015 -0.0692
  247POPC   D2A 3391   7.936   8.923   5.650 -0.3696  0.1377  0.0038
  247POPC   C3A 3392   8.196   8.593   5.700 -0.2631  0.0333 -0.2309
  247POPC   C4A 3393   8.628   8.400   5.691  0.0483  0.2839  0.2457
  247POPC   C1B 3394   7.003   9.192   5.305 -0.0267  0.2771 -0.0912
  247POPC   C2B 3395   6.981   9.192   5.692 -0.0302  0.0959 -0.0627
  247POPC   C3B 3396   7.181   8.976   6.001 -0.1846 -0.2011 -0.0266
  247POPC   C4B 3397   7.114   8.819   6.419  0.1359 -0.0273  0.0147
  248POPC   NC3 3398   6.977   3.993   4.369  0.0244  0.0957 -0.1009
  248POPC   PO4 3399   6.950   4.220   4.732 -0.0531  0.1309 -0.1559
  248POPC   GL1 3400   6.831   4.297   5.125  0.2851 -0.1684  0.1721
  248POPC   GL2 3401   6.526   4.151   5.158  0.1049  0.1403 -0.2085
  248POPC   C1A 3402   6.781   4.411   5.555  0.1803 -0.1851  0.1526
  248POPC   D2A 3403   6.864   4.439   6.022 -0.0512 -0.1544 -0.1620
  248POPC   C3A 3404   7.308   4.659   6.080  0.1665  0.0449 -0.0695
  248POPC   C4A 3405   7.293   5.029   6.301 -0.0359 -0.1156 -0.1406
  248POPC   C1B 3406   6.472   3.866   5.414 -0.2047 -0.1281 -0.2605
  248POPC   C2B 3407   6.680   3.541   5.558  0.0640 -0.3535  0.1330
  248POPC   C3B 3408   6.857   3.366   5.831 -0.1727 -0.0091 -0.0916
  248POPC   C4B 3409   6.966   3.479   6.352 -0.0338 -0.2472  0.1585
  249POPC   NC3 3410   7.992   7.129   3.959 -0.3417  0.0164  0.2248
  249POPC   PO4 3411   8.363   7.316   4.156  0.0020  0.1843 -0.1039
  249POPC   GL1 3412   8.844   7.331   4.385 -0.0089 -0.0119 -0.1398
  249POPC   GL2 3413   8.927   7.590   4.496  0.2647  0.1038 -0.0622
  249POPC   C1A 3414   9.242   7.257   4.658  0.2509 -0.1835 -0.0679
  249POPC   D2A 3415   9.219   7.222   5.050  0.2324 -0.0742 -0.0464
  249POPC   C3A 3416   9.396   7.517   5.430  0.3947 -0.0762 -0.1225
  249POPC   C4A 3417   9.682   7.826   5.663 -0.4008  0.0529 -0.1958
  249POPC   C1B 3418   9.060   7.689   4.898 -0.1774 -0.2681  0.0551
  249POPC   C2B 3419   9.043   7.916   5.213  0.2479 -0.2888 -0.2773
  249POPC   C3B 3420   9.137   8.154   5.521  0.5169  0.1773 -0.3268
  249POPC   C4B 3421   9.160   8.568   5.685  0.2344 -0.2047 -0.0361
  250POPC   NC3 3422   8.635   1.326   4.301  0.0807 -0.0004 -0.0044
  250POPC   PO4 3423   8.162   1.283   4.473 -0.1193  0.2869  0.0407
  250POPC   GL1 3424   8.341   0.991   4.800 -0.2596  0.0280  0.0267
  250POPC   GL2 3425   8.388   0.662   4.814  0.0432 -0.0101 -0.1809
  250POPC   C1A 3426   8.661   0.973   5.132 -0.1262 -0.0537 -0.2172
  250POPC   D2A 3427   8.732   0.912   5.530 -0.3003 -0.1685  0.0743
  250POPC   C3A 3428   8.792   1.039   5.911  0.2249 -0.1397  0.2760
  250POPC   C4A 3429   9.135   0.953   6.128  0.0073  0.2740 -0.0637
  250POPC   C1B 3430   8.530   0.435   5.232 -0.0055 -0.2443 -0.0901
  250POPC   C2B 3431   8.897   0.232   5.340 -0.0142  0.4211 -0.0202
  250POPC   C3B 3432   8.953  -0.157   5.431  0.1567  0.1113  0.0231
  250POPC   C4B 3433   9.017  -0.616   5.569  0.0005  0.2977 -0.1841
  251POPC   NC3 3434   7.744   3.190   4.344 -0.1407  0.1421 -0.0950
  251POPC   PO4 3435   8.139   3.131   4.477 -0.0246 -0.0578 -0.0229
  251POPC   GL1 3436   7.881   3.147   4.819 -0.0792  0.2117  0.0800
  251POPC   GL2 3437   8.040   3.001   5.065 -0.1056  0.0624  0.2434
  251POPC   C1A 3438   7.584   3.144   5.212  0.0014  0.1887  0.0401
  251POPC   D2A 3439   7.139   3.016   5.230 -0.1259  0.0044 -0.2126
  251POPC   C3A 3440   6.974   2.918   5.603  0.0100  0.0958 -0.1306
  251POPC   C4A 3441   6.890   2.546   5.899 -0.0305 -0.0545 -0.2009
  251POPC   C1B 3442   7.958   3.296   5.503 -0.0298  0.2065 -0.0638
  251POPC   C2B 3443   7.824   3.672   5.624 -0.2368 -0.0870 -0.0024
  251POPC   C3B 3444   8.105   3.986   5.660  0.0340  0.2357 -0.1096
  251POPC   C4B 3445   8.334   4.288   5.394  0.0479 -0.0332 -0.5409
  252POPC   NC3 3446   8.593   3.110   4.534  0.1599  0.0724  0.2408
  252POPC   PO4 3447   8.381   2.683   4.355  0.0614 -0.1721 -0.2183
  252POPC   GL1 3448   8.241   2.665   4.794 -0.0469  0.0428  0.1193
  252POPC   GL2 3449   8.536   2.789   4.921  0.3781  0.2365 -0.1636
  252POPC   C1A 3450   8.159   2.440   5.175  0.2047 -0.0146 -0.0657
  252POPC   D2A 3451   7.959   2.665   5.539  0.1358  0.0485 -0.2416
  252POPC   C3A 3452   8.108   3.009   5.896 -0.0643 -0.1142 -0.1092
  252POPC   C4A 3453   7.771   3.202   6.046  0.0634  0.0176  0.1211
  252POPC   C1B 3454   8.414   2.925   5.400  0.2077 -0.2182 -0.2876
  252POPC   C2B 3455   8.626   2.900   5.844  0.1720 -0.2588  0.0816
  252POPC   C3B 3456   8.559   2.783   6.168 -0.0889 -0.1903  0.0953
  252POPC   C4B 3457   8.582   2.803   6.537  0.0262 -0.1811 -0.0906
  253POPC   NC3 3458   9.104   4.040   4.705  0.1528  0.1168  0.1504
  253POPC   PO4 3459   8.636   4.127   4.777 -0.0141 -0.0986 -0.0231
  253POPC   GL1 3460   8.668   3.940   5.162 -0.1260 -0.2448  0.1592
  253POPC   GL2 3461   9.014   3.786   5.196 -0.0735 -0.1112  0.1534
  253POPC   C1A 3462   8.729   3.843   5.544  0.0740  0.0456  0.1531
  253POPC   D2A 3463   8.662   4.137   5.785 -0.2862  0.0648 -0.0555
  253POPC   C3A 3464   8.395   4.200   6.113  0.0938 -0.2830 -0.3147
  253POPC   C4A 3465   8.247   4.467   6.439 -0.1288  0.1220 -0.1190
  253POPC   C1B 3466   9.203   4.041   5.481 -0.1874 -0.0714 -0.1477
  253POPC   C2B 3467   9.109   4.281   5.747 -0.1004  0.1037  0.2452
  253POPC   C3B 3468   8.982   4.304   6.152 -0.2702 -0.2685 -0.0854
  253POPC   C4B 3469   9.146   4.640   6.522 -0.0744  0.0242 -0.4486
  254POPC   NC3 3470   2.647   4.027   4.249  0.3936  0.0928  0.2353
  254POPC   PO4 3471   2.291   4.256   4.454 -0.0631 -0.2325 -0.1012
  254POPC   GL1 3472   2.487   4.140   4.832  0.2006 -0.0143 -0.1000
  254POPC   GL2 3473   2.858   4.147   4.847  0.0833 -0.2141 -0.0173
  254POPC   C1A 3474   2.467   4.199   5.321 -0.0928  0.0981  0.3400
  254POPC   D2A 3475   2.717   4.208   5.718 -0.0331  0.1268 -0.0798
  254POPC   C3A 3476   3.133   4.350   5.871  0.2861 -0.0448 -0.0567
  254POPC   C4A 3477   3.234   4.888   5.895  0.1247  0.1509  0.1423
  254POPC   C1B 3478   2.929   4.332   5.218  0.1678  0.3026  0.0654
  254POPC   C2B 3479   2.829   4.695   5.410 -0.0028  0.0892  0.1277
  254POPC   C3B 3480   2.741   4.757   5.840 -0.1575 -0.3892  0.1740
  254POPC   C4B 3481   2.896   4.832   6.232  0.2801 -0.1376  0.0004
  255POPC   NC3 3482   4.378   8.822   4.350 -0.0137 -0.0426 -0.0973
  255POPC   PO4 3483   3.939   8.659   4.410 -0.1162 -0.1319  0.0714
  255POPC   GL1 3484   3.742   8.715   4.735  0.5909 -0.0059  0.1843
  255POPC   GL2 3485   3.535   9.074   4.835 -0.3351  0.0511 -0.0758
  255POPC   C1A 3486   3.513   8.611   5.105 -0.0112  0.0799 -0.1708
  255POPC   D2A 3487   3.596   8.715   5.517 -0.2435  0.4634  0.3923
  255POPC   C3A 3488   3.606   8.278   5.874  0.0434  0.0008 -0.0728
  255POPC   C4A 3489   3.654   8.038   6.304 -0.3756  0.0601  0.1968
  255POPC   C1B 3490   3.553   9.217   5.342  0.1782 -0.0344 -0.1473
  255POPC   C2B 3491   3.352   9.045   5.730  0.3930  0.3217 -0.2465
  255POPC   C3B 3492   3.320   8.767   5.995 -0.0084 -0.0865 -0.0282
  255POPC   C4B 3493   3.203   8.833   6.440  0.0737  0.1353  0.1079
  256POPC   NC3 3494   0.384   4.271   4.218 -0.0311 -0.2258  0.0265
  256POPC   PO4 3495  -0.031   4.262   4.367 -0.2972  0.1005 -0.4528
  256POPC   GL1 3496   0.313   4.528   4.686 -0.1918 -0.2532 -0.2301
  256POPC   GL2 3497   0.388   4.148   4.823 -0.0545 -0.0072 -0.1984
  256POPC   C1A 3498   0.367   4.867   4.873 -0.0083  0.2147 -0.3128
  256POPC   D2A 3499   0.406   5.086   5.196  0.0151 -0.2086 -0.1791
  256POPC   C3A 3500   0.401   5.424   5.295  0.0423 -0.0100 -0.1745
  256POPC   C4A 3501   0.319   5.725   5.044  0.1680 -0.1152 -0.1217
  256POPC   C1B 3502   0.171   3.883   5.187  0.1861 -0.2114  0.1785
  256POPC   C2B 3503   0.240   3.854   5.648 -0.2896  0.0574  0.1168
  256POPC   C3B 3504   0.090   3.627   5.957 -0.0909 -0.2119  0.0121
  256POPC   C4B 3505  -0.062   3.809   6.340 -0.0069 -0.0436  0.3648
  257POPC   NC3 3506   2.375   9.510   3.868  0.2658  0.3154  0.4275
  257POPC   PO4 3507   2.052   9.465   4.108 -0.0009 -0.0227 -0.0733
  257POPC   GL1 3508   2.100   9.373   4.487  0.1100  0.4768  0.0826
  257POPC   GL2 3509   1.990   9.548   4.646  0.0924 -0.0688 -0.1028
  257POPC   C1A 3510   2.263   9.347   5.013 -0.1128 -0.1794 -0.0800
  257POPC   D2A 3511   2.075   9.258   5.417  0.2547 -0.1353 -0.0268
  257POPC   C3A 3512   1.899   8.826   5.641 -0.1581 -0.2361  0.1522
  257POPC   C4A 3513   1.828   8.675   6.021  0.3009  0.0941 -0.2953
  257POPC   C1B 3514   1.894   9.670   5.057 -0.1179 -0.1835  0.0054
  257POPC   C2B 3515   1.668   9.621   5.453  0.3106  0.3755  0.2687
  257POPC   C3B 3516   1.338   9.790   5.808 -0.1944  0.0122 -0.2248
  257POPC   C4B 3517   1.228  10.171   6.107 -0.1347  0.2371 -0.1049
  258POPC   NC3 3518   1.708   6.681   3.562 -0.1001  0.2828  0.1102
  258POPC   PO4 3519   1.299   6.508   3.476  0.1202  0.1208 -0.0775
  258POPC   GL1 3520   1.335   6.679   3.867  0.0069  0.2311  0.0224
  258POPC   GL2 3521   1.309   6.997   4.004  0.2223  0.3806  0.1533
  258POPC   C1A 3522   1.341   6.353   4.271  0.2199 -0.0793 -0.2266
  258POPC   D2A 3523   1.695   6.112   4.329 -0.0601  0.1669  0.0394
  258POPC   C3A 3524   2.070   6.329   4.109  0.0714  0.1916 -0.1174
  258POPC   C4A 3525   2.415   6.510   4.278 -0.2343 -0.0459 -0.4845
  258POPC   C1B 3526   1.197   6.864   4.417  0.1254  0.1102 -0.2165
  258POPC   C2B 3527   1.109   6.819   4.796  0.1980 -0.0837 -0.3179
  258POPC   C3B 3528   1.202   6.666   5.179  0.1614  0.0200  0.2376
  258POPC   C4B 3529   1.412   6.433   5.532  0.0613 -0.1241 -0.4471
  259POPC   NC3 3530   4.377   9.706   4.329 -0.0009  0.0490 -0.0399
  259POPC   PO4 3531   4.506   9.277   4.487 -0.0752 -0.2648 -0.1437
  259POPC   GL1 3532   4.615   9.400   5.051  0.3234 -0.1211 -0.1708
  259POPC   GL2 3533   4.260   9.593   5.198 -0.0126 -0.1191 -0.0074
  259POPC   C1A 3534   4.861   9.390   5.433  0.0419 -0.1568  0.1801
  259POPC   D2A 3535   5.097   9.451   5.744 -0.2065 -0.2121  0.0903
  259POPC   C3A 3536   5.508   9.299   5.902 -0.0182  0.0463 -0.1210
  259POPC   C4A 3537   5.900   9.185   6.240  0.2243  0.1953 -0.0942
  259POPC   C1B 3538   4.020   9.306   5.476 -0.0046 -0.1355  0.0383
  259POPC   C2B 3539   3.799   9.300   5.859  0.1424  0.0394 -0.1026
  259POPC   C3B 3540   3.530   9.202   6.218 -0.0061  0.0505  0.2339
  259POPC   C4B 3541   3.179   9.279   6.276  0.1692 -0.0048  0.0590
  260POPC   NC3 3542   0.264   8.922   3.096  0.1159  0.1813 -0.0628
  260POPC   PO4 3543   0.572   8.828   3.449  0.1000 -0.0955  0.1631
  260POPC   GL1 3544   0.547   8.620   3.756 -0.0314 -0.0474  0.1506
  260POPC   GL2 3545   0.472   8.261   3.859 -0.1026 -0.1161 -0.1407
  260POPC   C1A 3546   0.608   8.738   4.120  0.1333 -0.2614 -0.1209
  260POPC   D2A 3547   0.672   8.821   4.546  0.0760  0.0062 -0.1772
  260POPC   C3A 3548   0.372   9.111   4.708 -0.0913 -0.0218 -0.0039
  260POPC   C4A 3549   0.064   9.277   4.923 -0.2444  0.0330  0.2256
  260POPC   C1B 3550   0.295   8.406   4.298 -0.0985 -0.3212  0.1091
  260POPC   C2B 3551   0.328   8.447   4.634 -0.1405  0.2983  0.0012
  260POPC   C3B 3552   0.615   8.507   4.990 -0.1065 -0.1391  0.1826
  260POPC   C4B 3553   0.879   8.418   5.355 -0.4106 -0.0945  0.0449
  261POPC   NC3 3554   3.605   9.014   4.273  0.2154 -0.0236  0.0703
  261POPC   PO4 3555   4.019   9.182   4.432 -0.1189  0.2079 -0.0545
  261POPC   GL1 3556   4.120   9.113   4.794 -0.2785  0.4402 -0.0847
  261POPC   GL2 3557   4.355   8.914   4.804 -0.0655  0.0550 -0.0113
  261POPC   C1A 3558   3.997   8.866   5.150  0.3029 -0.0756  0.0413
  261POPC   D2A 3559   4.169   8.865   5.611  0.2420 -0.0359 -0.5129
  261POPC   C3A 3560   3.845   8.770   5.959  0.0346  0.1733  0.2796
  261POPC   C4A 3561   3.711   8.625   6.339  0.2608 -0.1018  0.4132
  261POPC   C1B 3562   4.518   8.902   5.252 -0.2130 -0.1388 -0.1107
  261POPC   C2B 3563   4.646   9.015   5.665  0.0173  0.2444 -0.1742
  261POPC   C3B 3564   4.776   9.311   6.049  0.4411  0.0159  0.0691
  261POPC   C4B 3565   5.036   9.728   6.227  0.1451  0.0241 -0.0488
  262POPC   NC3 3566   0.031   0.336   3.319  0.0222 -0.0981  0.2143
  262POPC   PO4 3567   0.275  -0.064   3.472  0.1786  0.0521 -0.1788
  262POPC   GL1 3568   0.351  -0.386   3.834 -0.0134 -0.3532  0.0891
  262POPC   GL2 3569   0.444  -0.734   3.849 -0.3862  0.1619  0.2816
  262POPC   C1A 3570   0.328  -0.491   4.274 -0.1096 -0.2177 -0.0992
  262POPC   D2A 3571   0.559  -0.299   4.654  0.2018 -0.2431  0.0017
  262POPC   C3A 3572   0.534  -0.521   5.124  0.0077 -0.0664 -0.3045
  262POPC   C4A 3573   0.210  -0.801   5.398  0.3284 -0.0485 -0.1065
  262POPC   C1B 3574   0.768  -0.718   4.189 -0.0619  0.0520 -0.0537
  262POPC   C2B 3575   1.133  -0.968   4.278  0.1168  0.1511 -0.0880
  262POPC   C3B 3576   1.454  -1.350   4.388 -0.0787 -0.2738 -0.1978
  262POPC   C4B 3577   1.635  -1.296   4.774 -0.1723  0.0661  0.1095
  263POPC   NC3 3578   8.748   2.575   3.978 -0.1550 -0.0247  0.0246
  263POPC   PO4 3579   8.884   2.716   4.472 -0.0217  0.4802 -0.1922
  263POPC   GL1 3580   9.152   2.528   4.795  0.0604 -0.1838  0.1803
  263POPC   GL2 3581   9.380   2.682   4.879  0.4083  0.1014  0.1366
  263POPC   C1A 3582   9.147   2.285   5.130  0.0201  0.6297  0.0560
  263POPC   D2A 3583   8.946   1.919   5.399  0.2113  0.4022 -0.0040
  263POPC   C3A 3584   9.103   1.978   5.743  0.2021 -0.0997  0.0995
  263POPC   C4A 3585   9.077   1.922   6.221  0.0374 -0.0366  0.0092
  263POPC   C1B 3586   9.577   2.536   5.255 -0.1831  0.0219 -0.2366
  263POPC   C2B 3587   9.501   2.312   5.595  0.0228 -0.0252 -0.0708
  263POPC   C3B 3588   9.410   2.307   5.998  0.6083  0.1437 -0.1116
  263POPC   C4B 3589   9.654   2.680   6.202  0.1672 -0.1000  0.2240
  264POPC   NC3 3590   9.069   7.541   3.958 -0.0776 -0.1790 -0.0221
  264POPC   PO4 3591   8.603   7.756   4.116 -0.1816 -0.2512  0.3389
  264POPC   GL1 3592   8.858   8.052   4.269 -0.0661  0.1111  0.3410
  264POPC   GL2 3593   8.688   8.340   4.452  0.0272 -0.0586 -0.0377
  264POPC   C1A 3594   9.275   8.037   4.552  0.0066 -0.0951 -0.0084
  264POPC   D2A 3595   9.448   8.053   4.935  0.0078 -0.4984 -0.3734
  264POPC   C3A 3596   9.697   7.872   5.176  0.4439 -0.2523 -0.2117
  264POPC   C4A 3597  10.015   8.201   5.445 -0.1544  0.1278 -0.3692
  264POPC   C1B 3598   8.687   8.038   4.829 -0.0104 -0.2203 -0.1175
  264POPC   C2B 3599   8.582   7.704   5.051  0.0135  0.3423 -0.1968
  264POPC   C3B 3600   8.783   7.519   5.392 -0.0333  0.2531 -0.1400
  264POPC   C4B 3601   9.057   7.448   5.783 -0.2589 -0.2297 -0.1911
  265POPC   NC3 3602   2.243   1.453   4.618 -0.2038 -0.2724  0.1520
  265POPC   PO4 3603   2.253   1.054   4.733 -0.1771 -0.0024 -0.2184
  265POPC   GL1 3604   2.008   1.149   5.042 -0.0321 -0.1572 -0.2141
  265POPC   GL2 3605   1.903   1.296   5.252  0.2061  0.2578  0.0617
  265POPC   C1A 3606   2.327   1.020   5.423  0.0267  0.2413  0.1468
  265POPC   D2A 3607   2.636   0.764   5.671  0.0363  0.1936  0.1150
  265POPC   C3A 3608   2.596   0.549   6.007 -0.0921  0.2038 -0.1078
  265POPC   C4A 3609   2.716   0.319   6.295  0.1078  0.2212 -0.3238
  265POPC   C1B 3610   1.992   1.158   5.718 -0.0424 -0.3326  0.3073
  265POPC   C2B 3611   2.340   1.047   5.998 -0.3020 -0.1167  0.0237
  265POPC   C3B 3612   2.396   0.780   6.320  0.2134 -0.0453 -0.1925
  265POPC   C4B 3613   2.754   0.776   6.652 -0.1455  0.0908 -0.0744
  266POPC   NC3 3614   3.652   6.477   4.491 -0.2789  0.2269 -0.0752
  266POPC   PO4 3615   4.054   6.592   4.906  0.1565 -0.0420  0.0706
  266POPC   GL1 3616   4.067   6.918   5.108  0.0546  0.1250 -0.0598
  266POPC   GL2 3617   4.305   7.212   5.158 -0.2817 -0.2355  0.0563
  266POPC   C1A 3618   4.125   7.023   5.579 -0.0087  0.1666 -0.3114
  266POPC   D2A 3619   4.260   7.029   5.942 -0.1239  0.0720  0.1841
  266POPC   C3A 3620   4.292   7.402   6.228 -0.0334 -0.1981 -0.1699
  266POPC   C4A 3621   4.114   7.811   6.539  0.1433 -0.2586 -0.0450
  266POPC   C1B 3622   4.245   7.516   5.389 -0.2916  0.1400  0.0642
  266POPC   C2B 3623   4.624   7.547   5.755  0.1159  0.2503  0.1126
  266POPC   C3B 3624   4.822   7.635   6.170  0.1093  0.0688  0.1126
  266POPC   C4B 3625   4.651   7.660   6.620 -0.0870 -0.0502 -0.2079
  267POPC   NC3 3626   3.419   5.738   4.356 -0.1049  0.3668 -0.2137
  267POPC   PO4 3627   3.765   6.050   4.346  0.0252  0.0510 -0.0671
  267POPC   GL1 3628   3.677   5.873   4.768  0.0401 -0.0980 -0.1929
  267POPC   GL2 3629   3.887   6.025   5.007 -0.4841  0.0109 -0.4415
  267POPC   C1A 3630   3.430   5.942   5.091  0.1675  0.0684  0.3393
  267POPC   D2A 3631   3.293   5.720   5.506 -0.1655  0.0812 -0.1707
  267POPC   C3A 3632   3.526   5.940   5.778  0.6108  0.0850  0.5009
  267POPC   C4A 3633   3.431   6.218   5.947  0.1424 -0.3900  0.0784
  267POPC   C1B 3634   3.725   6.246   5.424  0.1649  0.0864  0.2220
  267POPC   C2B 3635   3.339   6.382   5.438  0.0046 -0.0027 -0.1322
  267POPC   C3B 3636   2.973   6.566   5.662  0.2522  0.1626  0.1782
  267POPC   C4B 3637   2.553   6.658   5.778 -0.1378 -0.1244 -0.0532
  268POPC   NC3 3638   5.913   6.691   4.411 -0.2450 -0.0884  0.2639
  268POPC   PO4 3639   5.671   6.730   4.775  0.1073 -0.2422 -0.4258
  268POPC   GL1 3640   5.780   7.093   5.079 -0.0592 -0.2593  0.0664
  268POPC   GL2 3641   6.073   7.250   5.197 -0.0100 -0.2153  0.3325
  268POPC   C1A 3642   5.635   7.180   5.485 -0.0035  0.1682  0.1080
  268POPC   D2A 3643   5.769   7.166   5.915 -0.1069 -0.1573  0.0083
  268POPC   C3A 3644   5.664   7.343   6.265 -0.0187 -0.0944  0.2784
  268POPC   C4A 3645   5.449   7.206   6.584 -0.2250 -0.0098 -0.1159
  268POPC   C1B 3646   6.158   7.481   5.558  0.0807 -0.3132  0.0175
  268POPC   C2B 3647   6.047   7.559   6.075 -0.2664  0.3970  0.1110
  268POPC   C3B 3648   5.857   7.806   6.338 -0.0914 -0.2186 -0.0375
  268POPC   C4B 3649   5.693   7.667   6.739 -0.3006 -0.1417  0.1992
  269POPC   NC3 3650   5.348   6.373   4.835 -0.0783  0.2173  0.0099
  269POPC   PO4 3651   4.971   6.097   4.984 -0.0773 -0.1790 -0.3639
  269POPC   GL1 3652   4.706   5.995   5.379 -0.4891 -0.1330 -0.0034
  269POPC   GL2 3653   4.345   5.833   5.322 -0.0579 -0.1391  0.0871
  269POPC   C1A 3654   4.550   6.191   5.657 -0.3361 -0.3034  0.0844
  269POPC   D2A 3655   4.445   6.090   6.109 -0.1083  0.0617  0.1948
  269POPC   C3A 3656   4.241   5.765   6.149  0.2567  0.0900 -0.1941
  269POPC   C4A 3657   3.891   5.528   5.964  0.3078 -0.2127 -0.1807
  269POPC   C1B 3658   4.437   5.638   5.700 -0.2155 -0.2011 -0.1744
  269POPC   C2B 3659   4.697   5.628   6.013 -0.4976  0.1777  0.1763
  269POPC   C3B 3660   4.903   5.848   6.243  0.1051  0.1651  0.2285
  269POPC   C4B 3661   5.196   6.155   6.338 -0.0638  0.0103 -0.0070
  270POPC   NC3 3662   4.317   7.943   4.716 -0.3736  0.1034  0.1101
  270POPC   PO4 3663   4.347   8.353   4.476 -0.1906 -0.0340 -0.2163
  270POPC   GL1 3664   4.163   8.390   4.851 -0.1037  0.0339  0.0700
  270POPC   GL2 3665   4.463   8.383   5.095  0.1192 -0.0565 -0.1246
  270POPC   C1A 3666   3.972   8.341   5.159 -0.0428  0.0324  0.1662
  270POPC   D2A 3667   4.051   8.162   5.594 -0.2401 -0.0592 -0.1079
  270POPC   C3A 3668   4.170   8.374   6.000  0.0433  0.0429  0.2941
  270POPC   C4A 3669   4.107   8.374   6.380  0.0871  0.1153 -0.0356
  270POPC   C1B 3670   4.415   8.471   5.526 -0.0531  0.2097 -0.3859
  270POPC   C2B 3671   4.659   8.570   5.985  0.1314  0.0657 -0.2466
  270POPC   C3B 3672   4.505   8.897   6.240 -0.1837  0.0157  0.0920
  270POPC   C4B 3673   4.052   9.114   6.343  0.0800  0.0459  0.0969
  271POPC   NC3 3674   2.777   8.058   4.074  0.0955 -0.0046  0.3664
  271POPC   PO4 3675   2.811   7.602   3.870 -0.1949 -0.0551  0.0719
  271POPC   GL1 3676   2.654   7.578   4.306  0.1406 -0.1885 -0.1843
  271POPC   GL2 3677   2.624   7.933   4.531  0.0485 -0.4082 -0.0979
  271POPC   C1A 3678   2.842   7.619   4.801 -0.0883 -0.1634  0.0543
  271POPC   D2A 3679   2.945   7.327   5.070 -0.1181 -0.1523 -0.5747
  271POPC   C3A 3680   3.130   7.462   5.444 -0.4244  0.2831 -0.0406
  271POPC   C4A 3681   2.921   7.553   5.896 -0.0111  0.1973  0.2759
  271POPC   C1B 3682   2.499   8.041   4.937  0.1468 -0.2327  0.2731
  271POPC   C2B 3683   2.151   8.231   4.986 -0.0375  0.2338  0.0097
  271POPC   C3B 3684   1.784   8.151   4.883  0.0509  0.1174  0.1594
  271POPC   C4B 3685   1.409   8.219   4.707 -0.0863  0.0701 -0.0015
  272POPC   NC3 3686   1.240   0.254   3.976 -0.5112 -0.0427  0.0565
  272POPC   PO4 3687   1.586   0.386   4.209  0.0168  0.2417 -0.3284
  272POPC   GL1 3688   1.637   0.299   4.659  0.1841  0.0660 -0.0604
  272POPC   GL2 3689   1.588  -0.080   4.734  0.0094 -0.2142  0.0973
  272POPC   C1A 3690   1.857   0.303   5.020  0.0993 -0.0046 -0.0869
  272POPC   D2A 3691   2.033   0.042   5.414  0.1414 -0.0849  0.0971
  272POPC   C3A 3692   1.861  -0.113   5.813 -0.1177  0.1670 -0.0550
  272POPC   C4A 3693   2.048  -0.219   6.159 -0.1178 -0.1579 -0.1003
  272POPC   C1B 3694   1.418   0.014   5.096  0.0801  0.0288  0.1984
  272POPC   C2B 3695   1.487   0.334   5.412 -0.0284 -0.1126 -0.1027
  272POPC   C3B 3696   1.540   0.320   5.751 -0.1200 -0.0269 -0.2111
  272POPC   C4B 3697   1.730   0.358   6.175 -0.3455  0.1565  0.0825
  273POPC   NC3 3698   2.925   5.999   3.740  0.2179  0.0837  0.0447
  273POPC   PO4 3699   2.918   5.962   4.217  0.0104  0.2511 -0.0532
  273POPC   GL1 3700   2.517   5.994   4.312  0.1292  0.0777 -0.0069
  273POPC   GL2 3701   2.235   5.902   4.118  0.0104 -0.3068 -0.1276
  273POPC   C1A 3702   2.276   6.191   4.629 -0.1041  0.3934 -0.1524
  273POPC   D2A 3703   2.415   6.072   5.017  0.0875  0.1329  0.0100
  273POPC   C3A 3704   2.496   6.050   5.461  0.2507 -0.0054 -0.0076
  273POPC   C4A 3705   2.238   5.822   5.800 -0.3278 -0.2039 -0.0527
  273POPC   C1B 3706   2.119   5.735   4.522  0.1211 -0.1645 -0.2042
  273POPC   C2B 3707   2.034   5.735   4.904 -0.1110 -0.2996 -0.1157
  273POPC   C3B 3708   1.971   5.908   5.250  0.1636  0.1482  0.0475
  273POPC   C4B 3709   1.921   6.181   5.544 -0.3005  0.0897  0.2917
  274POPC   NC3 3710   7.982   7.654   4.137  0.1891  0.0780 -0.0134
  274POPC   PO4 3711   7.679   7.452   4.494  0.1594  0.2242 -0.1147
  274POPC   GL1 3712   8.141   7.366   4.647  0.0654  0.0436  0.0820
  274POPC   GL2 3713   8.430   7.596   4.565  0.0064  0.0742  0.2172
  274POPC   C1A 3714   8.571   7.246   4.828 -0.3042  0.0888  0.4270
  274POPC   D2A 3715   8.925   6.853   4.820  0.1216 -0.0168 -0.1755
  274POPC   C3A 3716   9.013   6.794   5.313  0.3573  0.0749 -0.0385
  274POPC   C4A 3717   9.276   7.067   5.636  0.0783 -0.2161  0.1471
  274POPC   C1B 3718   8.143   7.799   4.892 -0.1872 -0.2459  0.1475
  274POPC   C2B 3719   7.973   7.816   5.249 -0.2349  0.1732  0.0024
  274POPC   C3B 3720   8.014   7.653   5.780 -0.0090 -0.4377 -0.1470
  274POPC   C4B 3721   8.321   7.673   6.107 -0.0979  0.2659 -0.1862
  275POPC   NC3 3722   6.070   5.509   5.010 -0.0277 -0.0040 -0.2689
  275POPC   PO4 3723   6.436   5.485   4.813 -0.0207 -0.1807  0.1866
  275POPC   GL1 3724   6.455   5.241   5.218  0.2509  0.2166 -0.0848
  275POPC   GL2 3725   6.497   5.393   5.560 -0.2311 -0.1518  0.1795
  275POPC   C1A 3726   6.435   4.913   5.454 -0.1458 -0.1197 -0.0340
  275POPC   D2A 3727   6.402   4.810   5.824  0.0996 -0.1028  0.0463
  275POPC   C3A 3728   6.418   5.201   6.022 -0.1112  0.0264 -0.1791
  275POPC   C4A 3729   6.589   5.253   6.426  0.2350 -0.1142  0.1964
  275POPC   C1B 3730   6.832   5.384   5.903 -0.2167  0.0922  0.2017
  275POPC   C2B 3731   7.056   5.440   6.253  0.0734  0.0991  0.1674
  275POPC   C3B 3732   7.049   5.343   6.651  0.0251 -0.2366 -0.0406
  275POPC   C4B 3733   7.048   5.027   7.038 -0.1447 -0.0093  0.0247
  276POPC   NC3 3734   9.501   5.185   4.041 -0.2153  0.2938  0.4139
  276POPC   PO4 3735   9.751   5.537   3.828 -0.0615 -0.1390  0.1113
  276POPC   GL1 3736   9.803   5.498   4.309  0.2129  0.0452 -0.0085
  276POPC   GL2 3737   9.660   5.336   4.477  0.2423 -0.1330 -0.0555
  276POPC   C1A 3738   9.800   5.667   4.829 -0.4357 -0.0050 -0.2007
  276POPC   D2A 3739   9.837   5.818   5.340 -0.2408 -0.0068  0.0991
  276POPC   C3A 3740  10.207   5.823   5.608  0.0844 -0.1002  0.0199
  276POPC   C4A 3741  10.470   6.123   5.799  0.1907 -0.2589  0.1152
  276POPC   C1B 3742   9.352   5.276   4.844  0.3265  0.1290  0.0633
  276POPC   C2B 3743   9.193   5.356   5.100  0.0994  0.3452 -0.0644
  276POPC   C3B 3744   9.388   5.569   5.404  0.1079  0.2551  0.2575
  276POPC   C4B 3745   9.371   5.950   5.652 -0.3275 -0.0004  0.0954
  277POPC   NC3 3746   8.911   0.071   3.676 -0.0551 -0.2136  0.0423
  277POPC   PO4 3747   8.828  -0.136   4.075  0.4201  0.0043  0.2908
  277POPC   GL1 3748   9.056  -0.026   4.450  0.0766  0.2280  0.4364
  277POPC   GL2 3749   9.435  -0.005   4.459 -0.3004  0.0124  0.0150
  277POPC   C1A 3750   9.166  -0.144   4.929  0.0113  0.2805 -0.3950
  277POPC   D2A 3751   9.461  -0.246   5.300  0.2141 -0.3704  0.1989
  277POPC   C3A 3752   9.633  -0.642   5.386  0.1252 -0.0961  0.6230
  277POPC   C4A 3753   9.378  -0.954   5.589 -0.2037  0.0781 -0.2062
  277POPC   C1B 3754   9.663   0.281   4.717 -0.1707 -0.1639 -0.3055
  277POPC   C2B 3755   9.832   0.251   5.058  0.1915  0.1456  0.0598
  277POPC   C3B 3756   9.953   0.169   5.355 -0.0636  0.0117  0.2519
  277POPC   C4B 3757   9.856   0.269   5.802 -0.2513 -0.1969  0.0133
  278POPC   NC3 3758   7.825   9.567   4.213 -0.2891 -0.0708 -0.1509
  278POPC   PO4 3759   8.171   9.040   4.084 -0.3049  0.2868 -0.0682
  278POPC   GL1 3760   8.290   8.785   4.557 -0.2706  0.0363 -0.0312
  278POPC   GL2 3761   8.237   9.008   4.828  0.1890  0.0525  0.2648
  278POPC   C1A 3762   8.319   8.410   4.792  0.4522 -0.2301 -0.1692
  278POPC   D2A 3763   8.226   8.226   5.180  0.0626  0.1915 -0.1494
  278POPC   C3A 3764   8.446   8.028   5.455 -0.3166 -0.0874  0.1188
  278POPC   C4A 3765   8.661   7.859   5.768  0.2162  0.1601 -0.2819
  278POPC   C1B 3766   8.277   8.881   5.248  0.2006  0.2119 -0.1684
  278POPC   C2B 3767   8.457   9.143   5.528  0.3162  0.1106 -0.2521
  278POPC   C3B 3768   8.585   9.546   5.741 -0.3272 -0.0303  0.1361
  278POPC   C4B 3769   8.890   9.876   5.904 -0.2239  0.0736  0.1429
  279POPC   NC3 3770   8.234   6.884   4.391 -0.0634 -0.1229  0.2716
  279POPC   PO4 3771   7.836   6.890   4.327 -0.0254 -0.1537 -0.0120
  279POPC   GL1 3772   7.794   7.002   4.801  0.1627 -0.3977 -0.1117
  279POPC   GL2 3773   7.516   6.930   5.052  0.3179  0.0056  0.0510
  279POPC   C1A 3774   8.083   7.190   5.078  0.3204 -0.2091  0.0872
  279POPC   D2A 3775   8.234   7.382   5.388  0.2279 -0.1750 -0.2048
  279POPC   C3A 3776   8.454   7.371   5.721 -0.3700 -0.2829  0.1895
  279POPC   C4A 3777   8.710   7.337   6.071 -0.1970  0.0441 -0.0632
  279POPC   C1B 3778   7.426   7.000   5.552 -0.1108  0.1899 -0.2999
  279POPC   C2B 3779   7.407   6.887   5.911 -0.2059  0.0937  0.0501
  279POPC   C3B 3780   7.406   7.175   6.408  0.1039 -0.0411 -0.0316
  279POPC   C4B 3781   7.649   7.173   6.749 -0.1602  0.0697 -0.0991
  280POPC   NC3 3782   3.820   9.872   4.577  0.1570 -0.2931  0.0126
  280POPC   PO4 3783   3.617   9.528   4.487  0.4908 -0.3653  0.0138
  280POPC   GL1 3784   3.571   9.654   5.037 -0.0989  0.1919 -0.2121
  280POPC   GL2 3785   3.794   9.900   5.106 -0.1197  0.0990 -0.0245
  280POPC   C1A 3786   3.358   9.646   5.476 -0.7036 -0.0167 -0.1071
  280POPC   D2A 3787   3.354   9.541   5.830  0.0758 -0.0487 -0.1426
  280POPC   C3A 3788   2.897   9.571   5.931  0.0296 -0.1548 -0.0397
  280POPC   C4A 3789   2.427   9.429   5.766  0.1772 -0.0015 -0.1444
  280POPC   C1B 3790   3.821   9.750   5.501  0.0542  0.0406  0.0781
  280POPC   C2B 3791   3.686   9.854   5.934  0.0595  0.0406 -0.1792
  280POPC   C3B 3792   3.589  10.215   6.216  0.1969  0.1186  0.0715
  280POPC   C4B 3793   3.573  10.429   6.556  0.0015  0.2632  0.2246
  281POPC   NC3 3794   7.357   6.992   4.409  0.2104  0.2203 -0.0906
  281POPC   PO4 3795   7.223   7.203   4.756  0.1083  0.0325 -0.1166
  281POPC   GL1 3796   7.041   7.116   5.185 -0.3262  0.0064  0.3070
  281POPC   GL2 3797   7.040   6.811   5.366  0.1642 -0.1696  0.1370
  281POPC   C1A 3798   6.985   7.189   5.670  0.3470 -0.2340  0.3060
  281POPC   D2A 3799   6.983   7.161   6.077  0.2691  0.1271  0.0338
  281POPC   C3A 3800   6.996   7.493   6.413 -0.1415 -0.3865 -0.3243
  281POPC   C4A 3801   6.670   7.541   6.706  0.3456 -0.1867  0.0688
  281POPC   C1B 3802   6.932   6.713   5.814  0.3261 -0.0701 -0.3594
  281POPC   C2B 3803   6.623   6.790   6.101  0.0326 -0.0587  0.4009
  281POPC   C3B 3804   6.568   6.606   6.442 -0.0011  0.3728  0.3193
  281POPC   C4B 3805   6.646   6.783   6.900 -0.1457 -0.0719 -0.0713
  282POPC   NC3 3806   7.962   5.975   4.217  0.3682  0.0592 -0.0444
  282POPC   PO4 3807   8.201   6.007   4.592 -0.0766  0.0808 -0.3666
  282POPC   GL1 3808   8.487   6.009   4.866  0.0407 -0.2325  0.2158
  282POPC   GL2 3809   8.598   5.672   4.760 -0.0469  0.0481 -0.0484
  282POPC   C1A 3810   8.647   6.237   5.174  0.0164 -0.0203 -0.2812
  282POPC   D2A 3811   8.630   6.540   5.568 -0.0070  0.4322  0.1631
  282POPC   C3A 3812   9.116   6.611   5.752 -0.0275 -0.2613  0.4905
  282POPC   C4A 3813   9.509   6.619   5.858 -0.1593 -0.0493 -0.0465
  282POPC   C1B 3814   8.450   5.608   5.042  0.1461  0.2296  0.1220
  282POPC   C2B 3815   8.309   5.356   5.399  0.0679 -0.2378 -0.1652
  282POPC   C3B 3816   8.271   5.246   5.790  0.2077  0.2360 -0.1827
  282POPC   C4B 3817   8.268   5.070   6.303 -0.1342 -0.1489 -0.1679
  283POPC   NC3 3818   7.512   2.582   4.139 -0.2356  0.2411  0.0332
  283POPC   PO4 3819   7.293   2.597   4.494  0.0112  0.1712 -0.1325
  283POPC   GL1 3820   7.540   2.404   4.956 -0.3036  0.1521  0.0380
  283POPC   GL2 3821   7.686   2.646   5.061 -0.4321 -0.1566  0.0223
  283POPC   C1A 3822   7.775   2.217   5.318 -0.2836 -0.2727 -0.2805
  283POPC   D2A 3823   8.021   2.172   5.622 -0.2540  0.0116 -0.0991
  283POPC   C3A 3824   8.213   2.425   5.932 -0.2549 -0.0536  0.0673
  283POPC   C4A 3825   8.231   2.499   6.388  0.1565 -0.0362 -0.0063
  283POPC   C1B 3826   7.479   2.620   5.418  0.2492  0.0137 -0.1005
  283POPC   C2B 3827   7.101   2.502   5.478 -0.1779  0.0174 -0.0155
  283POPC   C3B 3828   6.825   2.135   5.248  0.3950 -0.0816  0.3625
  283POPC   C4B 3829   6.525   1.901   5.227  0.1417  0.0515  0.0727
  284POPC   NC3 3830   9.562   8.739   3.604 -0.0087  0.3842 -0.2848
  284POPC   PO4 3831   9.986   9.081   3.541 -0.1624 -0.0272  0.3365
  284POPC   GL1 3832  10.093   8.884   3.836  0.1302 -0.0566 -0.0708
  284POPC   GL2 3833   9.868   8.567   3.998 -0.0021 -0.0229  0.3717
  284POPC   C1A 3834  10.041   8.877   4.376 -0.0728 -0.3585 -0.0307
  284POPC   D2A 3835   9.894   8.758   4.649 -0.0531 -0.1332 -0.4094
  284POPC   C3A 3836  10.015   8.847   5.093 -0.0887 -0.0203  0.1426
  284POPC   C4A 3837  10.316   8.631   5.407  0.0437 -0.0253 -0.0060
  284POPC   C1B 3838   9.758   8.462   4.329 -0.1420  0.1262 -0.0836
  284POPC   C2B 3839   9.510   8.474   4.792  0.1200 -0.2207  0.1192
  284POPC   C3B 3840   9.116   8.479   5.081  0.0610  0.0396 -0.1120
  284POPC   C4B 3841   8.681   8.444   5.201  0.0792  0.0297  0.2766
  285POPC   NC3 3842   1.025   2.312   4.419 -0.1734  0.0458 -0.3366
  285POPC   PO4 3843   1.383   2.496   4.661 -0.0191 -0.2251 -0.0455
  285POPC   GL1 3844   1.288   2.600   5.040  0.1420  0.4158  0.0708
  285POPC   GL2 3845   1.525   2.841   5.052 -0.0326 -0.1410 -0.1132
  285POPC   C1A 3846   0.968   2.621   5.359  0.3063 -0.1137 -0.3351
  285POPC   D2A 3847   0.890   2.611   5.737 -0.2662  0.1461 -0.2083
  285POPC   C3A 3848   0.625   2.777   6.121  0.1142 -0.1999  0.0641
  285POPC   C4A 3849   0.501   2.663   6.501  0.0277  0.1435 -0.1869
  285POPC   C1B 3850   1.825   2.722   5.351  0.0700  0.1493  0.0447
  285POPC   C2B 3851   1.627   2.708   5.681  0.1941  0.3004 -0.2285
  285POPC   C3B 3852   1.296   2.713   6.012  0.2128  0.0489  0.2738
  285POPC   C4B 3853   1.032   2.678   6.359  0.0020 -0.2930 -0.3346
  286POPC   NC3 3854   6.095   2.374   4.474 -0.1101 -0.1609 -0.0345
  286POPC   PO4 3855   5.727   2.158   4.465 -0.0563  0.0622 -0.1037
  286POPC   GL1 3856   5.677   2.087   4.838 -0.0613  0.2217 -0.0187
  286POPC   GL2 3857   5.979   2.038   4.949 -0.2126  0.1398 -0.1558
  286POPC   C1A 3858   5.621   2.315   5.233 -0.0443 -0.1126  0.2375
  286POPC   D2A 3859   5.740   2.712   5.417 -0.4313 -0.1678  0.0978
  286POPC   C3A 3860   5.584   3.131   5.565 -0.1109 -0.1173 -0.1540
  286POPC   C4A 3861   5.628   3.596   5.654  0.1588 -0.1100  0.1424
  286POPC   C1B 3862   5.950   1.819   5.290 -0.1807 -0.1954  0.3164
  286POPC   C2B 3863   6.111   1.910   5.727 -0.3015 -0.1852 -0.0257
  286POPC   C3B 3864   6.436   1.778   6.027  0.2243  0.3126 -0.0555
  286POPC   C4B 3865   6.424   1.423   6.342 -0.0065  0.1979  0.4029
  287POPC   NC3 3866   2.264   8.626   3.597 -0.0989 -0.0290  0.1310
  287POPC   PO4 3867   2.451   9.006   3.777  0.1113 -0.0999 -0.0201
  287POPC   GL1 3868   2.336   8.865   4.130  0.0051  0.0172  0.0306
  287POPC   GL2 3869   1.990   8.900   4.110  0.2120 -0.0162 -0.2347
  287POPC   C1A 3870   2.278   8.880   4.633  0.3034 -0.4023 -0.2475
  287POPC   D2A 3871   2.174   8.786   5.047  0.1984 -0.2220 -0.1158
  287POPC   C3A 3872   1.817   8.536   5.212 -0.0673 -0.2081 -0.0139
  287POPC   C4A 3873   1.343   8.528   5.185 -0.1228 -0.0147 -0.0167
  287POPC   C1B 3874   1.736   8.989   4.407 -0.2381  0.0808 -0.3554
  287POPC   C2B 3875   1.810   9.151   4.820  0.0291 -0.1837  0.3234
  287POPC   C3B 3876   1.550   9.043   5.224 -0.2451  0.0991  0.0480
  287POPC   C4B 3877   1.167   8.943   5.314 -0.0505 -0.2316 -0.0408
  288POPC   NC3 3878   8.540   9.734   4.491  0.0239 -0.3152  0.3323
  288POPC   PO4 3879   8.162   9.909   4.526  0.4189  0.0389 -0.1690
  288POPC   GL1 3880   8.101   9.736   4.943  0.2118 -0.0057  0.0916
  288POPC   GL2 3881   7.893   9.467   4.993 -0.1610 -0.3741  0.0063
  288POPC   C1A 3882   8.146   9.802   5.377  0.0924  0.4230 -0.0622
  288POPC   D2A 3883   8.451  10.021   5.637  0.0247 -0.0019 -0.1810
  288POPC   C3A 3884   8.259   9.836   6.047 -0.0224  0.1390  0.3584
  288POPC   C4A 3885   8.386   9.574   6.330  0.0416  0.0215  0.2893
  288POPC   C1B 3886   7.914   9.338   5.404  0.2432 -0.2067 -0.0951
  288POPC   C2B 3887   8.086   9.409   5.770  0.1411 -0.2707 -0.2036
  288POPC   C3B 3888   7.905   9.524   6.129 -0.0351 -0.1028  0.3530
  288POPC   C4B 3889   7.915   9.414   6.515 -0.2444 -0.0852  0.2358
  289POPC   NC3 3890   7.728   1.075   4.166 -0.0356 -0.1628  0.2307
  289POPC   PO4 3891   7.931   0.798   4.502  0.2447 -0.0996  0.0356
  289POPC   GL1 3892   7.917   0.787   4.948 -0.1039 -0.1196 -0.0845
  289POPC   GL2 3893   7.708   0.639   5.173  0.0497  0.3144 -0.1547
  289POPC   C1A 3894   8.119   0.836   5.399 -0.0853 -0.1474 -0.0110
  289POPC   D2A 3895   8.263   0.478   5.719 -0.1670 -0.1309 -0.1322
  289POPC   C3A 3896   8.670   0.528   5.904 -0.0017  0.0913  0.0957
  289POPC   C4A 3897   9.015   0.481   5.752  0.0387  0.0290 -0.2632
  289POPC   C1B 3898   7.939   0.314   5.333 -0.3215 -0.1817 -0.1517
  289POPC   C2B 3899   7.931   0.114   5.767 -0.0507 -0.1746  0.3528
  289POPC   C3B 3900   7.819   0.071   6.121  0.0965  0.2762  0.1272
  289POPC   C4B 3901   7.486  -0.124   6.460 -0.0665 -0.2562 -0.1448
  290POPC   NC3 3902   3.986   6.807   4.424 -0.0399 -0.3329 -0.2479
  290POPC   PO4 3903   3.627   7.004   4.516 -0.0637  0.3215  0.1043
  290POPC   GL1 3904   3.567   6.835   4.890  0.0709 -0.0073 -0.2795
  290POPC   GL2 3905   3.495   6.461   4.953 -0.1996 -0.2175  0.1447
  290POPC   C1A 3906   3.345   7.043   5.251  0.2835 -0.0438  0.3536
  290POPC   D2A 3907   3.208   7.000   5.679 -0.1225  0.1601 -0.1336
  290POPC   C3A 3908   2.840   7.091   5.689 -0.1058 -0.2475 -0.0162
  290POPC   C4A 3909   2.539   7.245   6.048  0.1610  0.0366 -0.0275
  290POPC   C1B 3910   3.645   6.750   5.441  0.0024  0.1863  0.0207
  290POPC   C2B 3911   3.689   6.718   5.847 -0.0190 -0.2040  0.0435
  290POPC   C3B 3912   3.758   7.021   6.184 -0.1906 -0.2612 -0.1686
  290POPC   C4B 3913   3.542   7.392   6.458 -0.0614 -0.2363  0.1901
  291POPC   NC3 3914   7.065   5.804   5.327  0.0338 -0.2648  0.1194
  291POPC   PO4 3915   6.946   5.390   5.254  0.2686  0.0407 -0.1065
  291POPC   GL1 3916   7.184   5.316   5.442  0.0368  0.2696 -0.1092
  291POPC   GL2 3917   7.300   5.529   5.654 -0.1152 -0.0503  0.1726
  291POPC   C1A 3918   7.408   4.948   5.722 -0.1955  0.3645 -0.2086
  291POPC   D2A 3919   7.730   4.584   5.763  0.0606  0.0118  0.0423
  291POPC   C3A 3920   7.648   4.188   6.076  0.0399  0.1965  0.0090
  291POPC   C4A 3921   7.694   3.769   6.129  0.1530  0.1101  0.2376
  291POPC   C1B 3922   7.504   5.503   5.949  0.0205  0.1373 -0.3131
  291POPC   C2B 3923   7.888   5.533   6.115  0.0294 -0.3701 -0.0840
  291POPC   C3B 3924   8.036   5.491   6.525  0.2188  0.0268 -0.1112
  291POPC   C4B 3925   8.154   5.832   6.899  0.0236 -0.1947 -0.0137
  292POPC   NC3 3926   0.469   1.471   4.443 -0.0900 -0.2207 -0.0729
  292POPC   PO4 3927   0.788   1.897   4.471 -0.0557 -0.2288  0.0616
  292POPC   GL1 3928   0.807   1.700   4.908  0.3582  0.0638 -0.2016
  292POPC   GL2 3929   0.812   1.344   4.795 -0.2546  0.1040 -0.2439
  292POPC   C1A 3930   0.829   1.718   5.369 -0.1205 -0.0671  0.3319
  292POPC   D2A 3931   0.687   1.714   5.759 -0.4450  0.0510  0.2477
  292POPC   C3A 3932   0.505   1.367   5.959 -0.2298 -0.0189 -0.2487
  292POPC   C4A 3933   0.170   1.208   6.069  0.3843 -0.0488 -0.0472
  292POPC   C1B 3934   0.955   1.216   5.234 -0.1464 -0.0255  0.0504
  292POPC   C2B 3935   0.588   1.265   5.481  0.1056 -0.1045  0.2412
  292POPC   C3B 3936   0.129   1.423   5.518  0.0502  0.3707 -0.2258
  292POPC   C4B 3937  -0.241   1.195   5.564 -0.2295 -0.0973 -0.0581
  293POPC   NC3 3938   8.518   4.378   4.373  0.2804 -0.0771  0.3522
  293POPC   PO4 3939   8.881   4.546   4.596 -0.2225  0.0132 -0.0116
  293POPC   GL1 3940   9.030   4.405   4.989  0.3377  0.0958 -0.1809
  293POPC   GL2 3941   8.830   4.403   5.218  0.3679  0.0629 -0.0813
  293POPC   C1A 3942   9.406   4.437   5.265 -0.0471  0.2117  0.0583
  293POPC   D2A 3943   9.686   4.521   5.564  0.0465 -0.1171 -0.1936
  293POPC   C3A 3944   9.615   4.546   5.986  0.1528  0.3564 -0.0245
  293POPC   C4A 3945   9.512   4.308   6.367 -0.2007  0.0901  0.1474
  293POPC   C1B 3946   8.648   4.587   5.625  0.0369  0.2057  0.1193
  293POPC   C2B 3947   8.749   4.954   5.904  0.1816  0.0097  0.0211
  293POPC   C3B 3948   8.734   5.324   6.035  0.0711  0.2123  0.5596
  293POPC   C4B 3949   8.407   5.697   6.023  0.0513  0.0548  0.0725
  294POPC   NC3 3950   6.343   0.658   4.660  0.1878  0.0797  0.1434
  294POPC   PO4 3951   6.070   0.745   4.435 -0.0775  0.2128  0.5096
  294POPC   GL1 3952   5.908   0.505   4.851 -0.2610  0.0028 -0.1504
  294POPC   GL2 3953   5.632   0.685   5.088  0.2200 -0.1859  0.1150
  294POPC   C1A 3954   5.990   0.468   5.236  0.0958  0.2291  0.2848
  294POPC   D2A 3955   6.080   0.472   5.655 -0.0817 -0.3577  0.0537
  294POPC   C3A 3956   6.472   0.450   5.626 -0.0037  0.1882 -0.1462
  294POPC   C4A 3957   6.923   0.507   5.581 -0.4139  0.1758 -0.0431
  294POPC   C1B 3958   5.413   0.568   5.471  0.1183 -0.0553  0.1038
  294POPC   C2B 3959   5.446   0.536   5.914  0.0186  0.0328  0.1956
  294POPC   C3B 3960   5.575   0.636   6.297 -0.1784 -0.1805  0.1396
  294POPC   C4B 3961   5.592   0.825   6.756 -0.0891  0.0983  0.0663
  295POPC   NC3 3962   5.602   4.271   4.738 -0.1355  0.2586  0.2522
  295POPC   PO4 3963   5.795   3.912   4.971  0.1222 -0.2881 -0.0405
  295POPC   GL1 3964   6.021   3.754   5.268 -0.0429  0.1601 -0.0877
  295POPC   GL2 3965   5.985   3.334   5.307 -0.2356  0.1990  0.0976
  295POPC   C1A 3966   5.964   3.955   5.680  0.0428  0.1315 -0.0162
  295POPC   D2A 3967   5.826   4.246   5.922  0.2011 -0.0386 -0.0870
  295POPC   C3A 3968   6.030   4.266   6.288 -0.1717 -0.3992  0.2390
  295POPC   C4A 3969   6.269   4.396   6.743 -0.1906 -0.1028  0.0110
  295POPC   C1B 3970   6.413   3.366   5.168  0.0380  0.0326  0.0667
  295POPC   C2B 3971   6.674   3.058   5.198 -0.1239 -0.2028  0.1337
  295POPC   C3B 3972   6.617   2.662   5.476  0.0317 -0.1363  0.0915
  295POPC   C4B 3973   6.568   2.226   5.685 -0.1652 -0.1625 -0.0919
  296POPC   NC3 3974   2.271   2.430   4.566 -0.1733  0.0760 -0.0624
  296POPC   PO4 3975   2.730   2.292   4.470 -0.2816 -0.0304 -0.1293
  296POPC   GL1 3976   2.683   2.207   4.863  0.4173  0.3680 -0.0899
  296POPC   GL2 3977   2.976   2.353   5.003  0.2969 -0.2621 -0.1289
  296POPC   C1A 3978   2.560   1.970   5.295 -0.0887 -0.2088  0.3162
  296POPC   D2A 3979   2.291   1.623   5.583 -0.0239 -0.1682  0.1926
  296POPC   C3A 3980   2.257   1.555   6.055  0.1730  0.1698 -0.0792
  296POPC   C4A 3981   1.918   1.435   6.293  0.0942 -0.0675 -0.0882
  296POPC   C1B 3982   3.006   2.300   5.455 -0.2469  0.3552 -0.0657
  296POPC   C2B 3983   2.776   2.148   5.745 -0.0915  0.2337 -0.0966
  296POPC   C3B 3984   2.431   2.215   5.952 -0.0280  0.2864 -0.0356
  296POPC   C4B 3985   2.061   1.994   6.003  0.0069 -0.0205 -0.0621
  297POPC   NC3 3986   3.582   1.834   4.407  0.0855  0.2645  0.0788
  297POPC   PO4 3987   3.911   2.155   4.609 -0.3183 -0.0961  0.0222
  297POPC   GL1 3988   3.582   2.069   4.892  0.0570 -0.0354 -0.0999
  297POPC   GL2 3989   3.664   1.749   4.911 -0.1825  0.1161 -0.0815
  297POPC   C1A 3990   3.179   1.824   5.107 -0.0169 -0.2866  0.2496
  297POPC   D2A 3991   3.001   1.697   5.444  0.1036  0.1661  0.1051
  297POPC   C3A 3992   3.154   1.458   5.681  0.3255  0.0394  0.1350
  297POPC   C4A 3993   3.259   1.267   6.018  0.2262 -0.0836  0.1082
  297POPC   C1B 3994   3.571   1.669   5.405 -0.1282  0.1308 -0.4078
  297POPC   C2B 3995   3.791   1.704   5.791 -0.0682 -0.0742  0.2171
  297POPC   C3B 3996   3.653   2.096   6.019  0.1033 -0.0634 -0.0662
  297POPC   C4B 3997   3.304   2.442   5.997 -0.1568  0.1975 -0.0148
  298POPC   NC3 3998   7.272   5.115   4.942  0.1544  0.1041 -0.1066
  298POPC   PO4 3999   7.624   5.187   4.788  0.0008  0.1089 -0.1409
  298POPC   GL1 4000   7.723   5.205   5.215 -0.0750  0.1031 -0.1702
  298POPC   GL2 4001   7.709   5.573   5.355 -0.2599 -0.1095 -0.2945
  298POPC   C1A 4002   7.802   5.227   5.702 -0.0864 -0.0987  0.0021
  298POPC   D2A 4003   7.833   5.050   6.007  0.0173  0.2048 -0.1310
  298POPC   C3A 4004   7.828   4.781   6.296  0.4197  0.3734  0.1614
  298POPC   C4A 4005   7.793   4.520   6.569 -0.1456 -0.0948  0.1600
  298POPC   C1B 4006   7.797   5.840   5.708 -0.2601 -0.0786 -0.0020
  298POPC   C2B 4007   7.881   6.056   6.037  0.0706  0.1034 -0.0140
  298POPC   C3B 4008   7.788   6.432   6.270  0.1766  0.0499  0.0290
  298POPC   C4B 4009   7.561   6.515   6.573 -0.0048 -0.2484 -0.4538
  299POPC   NC3 4010   6.608   9.830   4.807 -0.0180 -0.1686  0.3358
  299POPC   PO4 4011   6.252   9.661   4.898 -0.1955  0.0153  0.4608
  299POPC   GL1 4012   6.406   9.578   5.298  0.0309 -0.1442 -0.1265
  299POPC   GL2 4013   6.596   9.337   5.407  0.2096  0.0115  0.3997
  299POPC   C1A 4014   6.488   9.582   5.823 -0.2681  0.1041  0.1132
  299POPC   D2A 4015   6.577   9.255   6.107 -0.0435  0.1932 -0.1646
  299POPC   C3A 4016   6.369   9.356   6.520  0.1838 -0.0552 -0.5024
  299POPC   C4A 4017   5.998   9.381   6.722  0.1083 -0.0405 -0.0231
  299POPC   C1B 4018   6.537   9.015   5.622  0.0655  0.0471 -0.1376
  299POPC   C2B 4019   6.695   8.780   5.917  0.3457  0.0255  0.2437
  299POPC   C3B 4020   6.636   8.754   6.375  0.3347  0.2443  0.2326
  299POPC   C4B 4021   6.802   9.051   6.702 -0.2043  0.0350  0.0134
  300POPC   NC3 4022   3.871   8.183   4.518  0.3167 -0.0374 -0.1154
  300POPC   PO4 4023   3.562   7.984   4.328  0.1937 -0.0129 -0.0915
  300POPC   GL1 4024   3.437   7.926   4.689  0.0253  0.1213  0.3084
  300POPC   GL2 4025   3.554   8.202   4.898 -0.3643  0.1628 -0.3628
  300POPC   C1A 4026   3.262   7.812   5.048 -0.0103  0.2040  0.3195
  300POPC   D2A 4027   2.787   7.808   5.251 -0.1228 -0.0687  0.0549
  300POPC   C3A 4028   2.622   7.993   5.622  0.0079 -0.0342  0.0487
  300POPC   C4A 4029   2.773   8.078   6.056  0.0577 -0.1475  0.0408
  300POPC   C1B 4030   3.375   8.194   5.402 -0.0421 -0.0718  0.2462
  300POPC   C2B 4031   3.104   8.247   5.736 -0.1578 -0.0772  0.1626
  300POPC   C3B 4032   3.202   8.309   6.169  0.0952 -0.0322  0.1795
  300POPC   C4B 4033   3.371   8.357   6.582  0.2072 -0.1771 -0.2129
  301POPC   NC3 4034   4.662   2.029   4.805  0.0963  0.0715  0.0230
  301POPC   PO4 4035   4.362   1.871   4.574 -0.2555 -0.1019 -0.3084
  301POPC   GL1 4036   4.152   2.017   5.039 -0.0846 -0.0519 -0.4662
  301POPC   GL2 4037   4.392   2.135   5.278 -0.2173  0.4613  0.3098
  301POPC   C1A 4038   3.905   2.129   5.443 -0.0977 -0.1486 -0.0356
  301POPC   D2A 4039   3.487   2.205   5.517  0.1027  0.3903  0.1416
  301POPC   C3A 4040   3.198   1.940   5.813  0.0973 -0.1938  0.5134
  301POPC   C4A 4041   2.745   1.664   5.912 -0.2300 -0.1717 -0.0568
  301POPC   C1B 4042   4.589   2.291   5.736  0.2008  0.1181 -0.1152
  301POPC   C2B 4043   5.020   2.522   5.875  0.1150 -0.0994  0.1193
  301POPC   C3B 4044   5.039   2.523   6.165  0.1830  0.0660 -0.0426
  301POPC   C4B 4045   5.078   2.526   6.609  0.0887 -0.1017  0.4208
  302W        W 4046   8.528   2.085   2.447  0.0542  0.1747 -0.0453
  303W        W 4047   8.319   3.337   1.427 -0.0653 -0.2221 -0.0279
  304W        W 4048   1.581   6.307  12.615  0.3004 -0.1837 -0.1137
  305W        W 4049   1.285   4.256  10.793  0.0199 -0.1869  0.0970
  306W        W 4050   4.006   7.363   9.119  0.1250 -0.2794  0.2358
  307W        W 4051   0.401   5.421  10.321  0.3394  0.0674  0.1216
  308W        W 4052   5.786   7.249   0.818 -0.2868  0.1021  0.0284
  309W        W 4053   0.765   1.797  10.445  0.0938 -0.0432  0.0895
  310W        W 4054   8.288   5.064  11.322  0.1314  0.1643 -0.2377
  311W        W 4055   6.937   1.624   2.038  0.5086  0.0378  0.2055
  312W        W 4056   9.071   1.889   8.821 -0.1832 -0.2025 -0.1748
  313W        W 4057   8.752   5.549  12.773  0.1526 -0.2340 -0.4893
  314W        W 4058   6.622   1.245   3.264 -0.1826 -0.0824 -0.0640
  315W        W 4059   6.614   9.741  11.425 -0.0975 -0.2403 -0.1939
  316W        W 4060   0.519   2.086   9.191  0.0086 -0.1173  0.0487
  317W        W 4061   4.481   1.409   8.997 -0.1733  0.2169 -0.1525
  318W        W 4062   7.204   1.387   0.028  0.1215  0.0104 -0.1003
  319W        W 4063   9.215   0.233   1.958  0.2278 -0.3062  0.2525
  320W        W 4064   9.013   6.005   1.061  0.1737 -0.1578  0.0300
  321W        W 4065   3.302   7.936  10.080 -0.1278 -0.1390  0.3501
  322W        W 4066   9.464   9.214   3.796  0.1614  0.2468  0.1898
  323W        W 4067   1.812   0.965   9.436  0.2768  0.1059 -0.0755
  324W        W 4068   4.359   2.916  12.311  0.2691  0.0110 -0.2551
  325W        W 4069   7.278   3.880   8.820 -0.0960 -0.1781 -0.2017
  326W        W 4070   7.819   6.011   0.843  0.0311 -0.0051  0.1604
  327W        W 4071   0.312   5.904  11.111 -0.4325 -0.2016 -0.2221
  328W        W 4072   4.564   7.939   3.339 -0.0429 -0.0434 -0.2338
  329W        W 4073   5.470   1.750  12.806 -0.1140  0.1776 -0.1418
  330W        W 4074   2.267   5.955  11.341 -0.4848 -0.1543 -0.0776
  331W        W 4075   8.319   5.068   2.462 -0.1315 -0.1965  0.1468
  332W        W 4076   1.135   2.686   8.585 -0.2730 -0.2368  0.0476
  333W        W 4077   6.876   3.978  11.931 -0.0948  0.2283  0.1774
  334W        W 4078   0.114   4.346   9.686  0.1254 -0.0532  0.0866
  335W        W 4079   1.638   5.728   9.447  0.0543  0.1616 -0.0110
  336W        W 4080   0.324   5.083   2.950  0.0685  0.3662 -0.0706
  337W        W 4081   0.604   4.919  11.936 -0.2923 -0.4576  0.1220
  338W        W 4082   7.134   1.400   9.965 -0.1334 -0.1049 -0.4573
  339W        W 4083   7.400   0.871  12.633 -0.1086 -0.2075  0.1661
  340W        W 4084   7.156   7.921  10.331  0.1208 -0.1652  0.1228
  341W        W 4085   3.997   1.067  12.040 -0.2512  0.2038  0.2993
  342W        W 4086   8.514   3.581  11.975  0.2310 -0.1441 -0.0724
  343W        W 4087   6.425   4.849  11.890 -0.4533  0.1636 -0.0367
  344W        W 4088   0.047   5.342   3.447  0.2715 -0.0281  0.2107
  345W        W 4089   9.891   2.441  12.119 -0.0785 -0.1045 -0.0889
  346W        W 4090   7.447   5.345  12.594 -0.3600 -0.3017 -0.1686
  347W        W 4091   8.141   2.038   9.260  0.1520  0.0337  0.1875
  348W        W 4092   9.453   6.302   3.157 -0.1287  0.1953 -0.0722
  349W        W 4093   5.560   7.579   3.241 -0.3451 -0.3134 -0.0460
  350W        W 4094   5.458   5.828  11.427 -0.0287  0.1845 -0.2122
  351W        W 4095   7.677   3.251   2.024 -0.2599  0.1143 -0.4135
  352W        W 4096   0.077   6.408  12.801  0.1030  0.0816 -0.0435
  353W        W 4097   5.009   6.061  12.234  0.0217  0.2693  0.1171
  354W        W 4098   9.202   2.159   1.892 -0.3353 -0.0465 -0.0892
  355W        W 4099   2.048   1.669   0.259 -0.1437 -0.0748 -0.0833
  356W        W 4100   3.419   0.712   9.609 -0.0040  0.0594  0.4407
  357W        W 4101   2.001   8.070   2.345 -0.2095  0.0537  0.2269
  358W        W 4102   1.923   8.381   0.067  0.0541 -0.1989  0.0987
  359W        W 4103   8.845   9.919   2.316 -0.1904 -0.0873 -0.3603
  360W        W 4104   3.732   3.111  10.047 -0.1297 -0.1368  0.1302
  361W        W 4105   6.262   1.192   8.810 -0.1083  0.0915  0.1419
  362W        W 4106   1.856   2.491  11.179  0.0276  0.0017 -0.1108
  363W        W 4107   3.003   6.511   0.379  0.0825  0.0699 -0.1238
  364W        W 4108   5.127   2.182   0.192  0.0033  0.0167 -0.0355
  365W        W 4109   5.089   9.159   0.680  0.0196 -0.0067 -0.1836
  366W        W 4110   9.343   1.720   9.781 -0.0271 -0.0464  0.2330
  367W        W 4111   3.067   7.434   8.693  0.1309  0.2673  0.1086
  368W        W 4112   5.585   6.463  11.186 -0.2999  0.1199 -0.1835
  369W        W 4113   5.830   7.580   9.406  0.4804 -0.3097  0.0519
  370W        W 4114   1.718   0.988   1.114  0.1028  0.0755  0.1394
  371W        W 4115   5.174   8.545   4.032  0.0299 -0.2338 -0.0449
  372W        W 4116   7.327   3.783  11.133  0.0817  0.0210 -0.0432
  373W        W 4117   1.608   7.286  11.153 -0.2110 -0.2486 -0.1416
  374W        W 4118   8.038   2.270   4.138 -0.1050 -0.0083  0.1399
  375W        W 4119   2.118   2.702   3.719 -0.0931 -0.2107  0.0294
  376W        W 4120   2.143   2.385   9.983  0.0180 -0.1316 -0.2704
  377W        W 4121   7.862   7.432   0.641  0.3291  0.1159 -0.1608
  378W        W 4122   8.489   7.902   3.410  0.0370 -0.2151  0.0868
  379W        W 4123   9.750   0.447   0.325  0.1635  0.2214  0.1047
  380W        W 4124   9.466   9.013  11.084  0.0860  0.3994  0.0896
  381W        W 4125   1.346   2.045   9.907 -0.2445  0.2233  0.1720
  382W        W 4126   9.581   1.774   8.862  0.1272  0.2886  0.1037
  383W        W 4127   3.677   0.226   3.611  0.2413 -0.0051  0.0347
  384W        W 4128   0.568   4.279  12.181  0.0068  0.1305  0.0991
  385W        W 4129   7.732   5.032  12.174  0.1574 -0.1779  0.0527
  386W        W 4130   9.940   7.510  12.450 -0.1441 -0.1491 -0.2159
  387W        W 4131   6.340   5.838   3.490 -0.0287  0.1328  0.2417
  388W        W 4132   6.018   4.490   0.723 -0.0775 -0.1762  0.2938
  389W        W 4133   6.237   0.204   4.516 -0.4881  0.1628 -0.2097
  390W        W 4134   5.710   1.477   3.129  0.0992  0.0024  0.3186
  391W        W 4135   8.029   8.571  11.784 -0.0750 -0.1941 -0.0702
  392W        W 4136   1.352   7.018   0.740 -0.3517 -0.0726 -0.3730
  393W        W 4137   5.445   5.358   8.312  0.1848 -0.1002  0.0164
  394W        W 4138   0.089   6.971  12.708  0.1315 -0.0126  0.0120
  395W        W 4139   7.339   6.000   9.779  0.2386  0.3464  0.1269
  396W        W 4140   9.092   7.556  10.529  0.4781  0.1768 -0.0293
  397W        W 4141   3.178   2.979   8.872 -0.2588  0.0039  0.0147
  398W        W 4142   3.432   6.819  12.073  0.0216  0.2718  0.0371
  399W        W 4143   5.876   5.258   0.049 -0.0275  0.0647  0.1531
  400W        W 4144   7.782   3.152   1.559 -0.2654  0.0013 -0.0990
  401W        W 4145   3.135   1.306  10.383  0.1500  0.1718 -0.2144
  402W        W 4146   7.335   0.507  11.251  0.1666  0.1196 -0.0373
  403W        W 4147   1.263   1.117   3.817 -0.2015 -0.2495  0.0132
  404W        W 4148   0.539   4.477  11.655  0.0755 -0.2198 -0.0930
  405W        W 4149   7.675   4.350  11.154 -0.0921 -0.3801 -0.0619
  406W        W 4150   5.731   9.932  12.722 -0.1141 -0.0425  0.0606
  407W        W 4151   0.664   4.809   4.454 -0.1078  0.0651 -0.0824
  408W        W 4152   1.898   3.769   2.077 -0.1991 -0.1853 -0.1106
  409W        W 4153   1.370   0.388   2.001 -0.1301 -0.2707  0.2137
  410W        W 4154   7.951   6.014   2.584  0.0157 -0.2439 -0.0159
  411W        W 4155   9.322   1.103   8.787 -0.2496  0.1502 -0.1711
  412W        W 4156   5.802   6.647   3.601  0.3018 -0.1320  0.2162
  413W        W 4157   2.918   0.501   9.298 -0.0419  0.0698 -0.2162
  414W        W 4158   4.534   6.088   1.590  0.1648 -0.1089  0.1738
  415W        W 4159   5.261   3.177  12.778  0.0480 -0.1998  0.1309
  416W        W 4160   1.683   0.260   3.690  0.0112 -0.1292 -0.0639
  417W        W 4161   2.090   5.677   8.687  0.1206 -0.3204 -0.0089
  418W        W 4162   2.192   3.749   0.359 -0.0853  0.1158  0.0177
  419W        W 4163   3.254   3.021   2.819  0.0591 -0.1553 -0.0576
  420W        W 4164   5.974   1.753   4.530  0.1030 -0.3970 -0.2171
  421W        W 4165   8.270   3.604  10.285 -0.1687  0.1047  0.0818
  422W        W 4166   8.731   5.083   0.834 -0.0323 -0.2020  0.1183
  423W        W 4167   1.296   4.465   3.751  0.0111  0.0771  0.0859
  424W        W 4168   5.286   0.450   0.652  0.0675 -0.1400 -0.1601
  425W        W 4169   8.315   3.599   2.846 -0.0838  0.2382  0.1392
  426W        W 4170   0.787   2.791  11.258  0.1012 -0.0872 -0.0364
  427W        W 4171   8.146   6.960  10.779 -0.0807 -0.1851 -0.1310
  428W        W 4172   2.198   1.156   0.923  0.1661 -0.4149 -0.0737
  429W        W 4173   5.084   0.886   0.898 -0.2020 -0.0604 -0.0364
  430W        W 4174   0.503   2.368   4.346  0.0418  0.0544 -0.1372
  431W        W 4175   5.237   4.126   0.219  0.0217 -0.1530  0.2048
  432W        W 4176   1.588   2.650   3.603  0.0749 -0.1466  0.0057
  433W        W 4177   8.698   9.473   1.449  0.4928 -0.1799 -0.0667
  434W        W 4178   7.548   5.771   2.136 -0.1156  0.2233 -0.0422
  435W        W 4179   3.988   8.330   8.343 -0.1095  0.2092  0.0943
  436W        W 4180   3.707   5.598   1.628 -0.3948  0.1127  0.0463
  437W        W 4181   1.474   8.876   1.864  0.3397  0.1737 -0.2252
  438W        W 4182   2.910   3.256  12.003  0.0144 -0.1141 -0.2021
  439W        W 4183   3.318   3.736   9.055  0.2850 -0.4312  0.0556
  440W        W 4184   6.154   1.794  11.448 -0.1266  0.0297 -0.1416
  441W        W 4185   1.789   5.139   0.402  0.2321 -0.0392 -0.0053
  442W        W 4186   8.889   3.844   2.317  0.0945  0.0005  0.0547
  443W        W 4187   4.776   6.381   8.866  0.1822  0.0194  0.3534
  444W        W 4188   8.416   0.456   1.671  0.1309  0.1348  0.0861
  445W        W 4189   1.910   0.234   9.291 -0.1565 -0.1381  0.1718
  446W        W 4190   4.551   6.164   1.051  0.1500 -0.0732 -0.1076
  447W        W 4191   8.045   9.112   0.939 -0.0090 -0.0177 -0.0598
  448W        W 4192   5.111   9.405  10.639  0.0482  0.4115 -0.0650
  449W        W 4193   7.427   6.514  11.400 -0.1633 -0.0405  0.0147
  450W        W 4194   3.969   3.413  11.878  0.2099 -0.2945  0.1788
  451W        W 4195   7.733   4.452   2.575 -0.0609  0.1112  0.0847
  452W        W 4196   7.420   3.619  12.300 -0.3637  0.2540 -0.2745
  453W        W 4197   7.120   2.093   8.230 -0.0425 -0.0743 -0.0145
  454W        W 4198   4.035   5.722   0.176 -0.1871 -0.2003  0.1766
  455W        W 4199   6.172   7.989   2.033  0.1163  0.1930  0.0559
  456W        W 4200   6.123   7.932   3.818 -0.0720  0.0162  0.1086
  457W        W 4201   4.735   7.905   9.778 -0.0869  0.0730  0.0956
  458W        W 4202   4.532   1.507  10.362  0.2359 -0.0014 -0.2645
  459W        W 4203   8.065   5.255  10.301 -0.0073  0.3517 -0.2154
  460W        W 4204   8.898   2.116   0.345  0.0871 -0.0709 -0.2615
  461W        W 4205   3.448   5.670   3.058  0.0115  0.0780  0.0286
  462W        W 4206   0.931   2.040   3.751  0.2137  0.0209 -0.2560
  463W        W 4207   6.608   2.137   8.105 -0.3894 -0.0719 -0.0719
  464W        W 4208   1.413   9.538  11.606 -0.0290  0.1380 -0.2679
  465W        W 4209   9.557   0.986   3.673 -0.2087  0.1191  0.2309
  466W        W 4210   0.992   5.062  10.559  0.0965  0.4122 -0.1148
  467W        W 4211   8.014   8.196   9.980  0.0780 -0.2746  0.3012
  468W        W 4212   6.565   8.130   9.529 -0.1214  0.3639 -0.1724
  469W        W 4213   6.240   9.667   9.696  0.1479 -0.3070  0.0486
  470W        W 4214   2.454   4.998   3.337  0.3122  0.1721 -0.1826
  471W        W 4215   8.433   4.652   2.065  0.0255 -0.0238  0.1655
  472W        W 4216   6.411   3.777   4.858  0.3981  0.1190  0.0632
  473W        W 4217   9.413   6.507   1.862 -0.0880  0.1781 -0.0931
  474W        W 4218   4.760   1.132   7.662  0.1369  0.0513  0.1552
  475W        W 4219   6.669   4.095   1.429 -0.1354  0.2129  0.0180
  476W        W 4220   1.497   9.661  12.665 -0.1266  0.2665 -0.2678
  477W        W 4221   0.943   1.993   2.485  0.0823 -0.1714  0.0651
  478W        W 4222   4.378   3.649   4.341 -0.4546  0.0213  0.2928
  479W        W 4223   5.480   0.598   1.888 -0.1565  0.0634 -0.0790
  480W        W 4224   7.658   4.712   4.278  0.1785 -0.2095  0.1368
  481W        W 4225   2.547   6.664   1.150  0.0250 -0.3439 -0.0923
  482W        W 4226   6.166   6.965   3.495  0.1076 -0.1115 -0.4445
  483W        W 4227   1.882   2.730   3.191 -0.0173 -0.1469  0.2232
  484W        W 4228   7.440   1.791  12.724 -0.0405  0.3503  0.0180
  485W        W 4229   5.933   4.279  12.454 -0.1119  0.2300 -0.0482
  486W        W 4230   7.483   5.692  11.092 -0.1897  0.1358  0.4887
  487W        W 4231   8.600   1.445  11.806  0.2020 -0.0970 -0.0399
  488W        W 4232   3.383   9.741   3.720 -0.2890  0.2295 -0.2002
  489W        W 4233   5.934   6.274  11.920  0.1933 -0.0221 -0.1403
  490W        W 4234   5.304   5.709   3.328  0.2525 -0.1372  0.0339
  491W        W 4235   4.208   9.514   9.780  0.0436 -0.2120 -0.1452
  492W        W 4236   9.248   5.564   1.385  0.0115  0.2028 -0.0583
  493W        W 4237   6.205   1.530   3.171  0.2887  0.3101 -0.1613
  494W        W 4238   7.990   3.613   1.821  0.0533 -0.2282 -0.3194
  495W        W 4239   6.948   8.591   1.937 -0.1247  0.1692  0.0183
  496W        W 4240   9.541   0.586  10.830  0.0421  0.1219  0.0073
  497W        W 4241   7.708   0.791  11.108 -0.1046 -0.2169 -0.0123
  498W        W 4242   4.346   3.760   0.427  0.2711  0.2473 -0.3566
  499W        W 4243   1.002   8.297   2.508 -0.2006 -0.4376  0.0850
  500W        W 4244   6.731   1.309   8.637  0.2116 -0.1016  0.1952
  501W        W 4245   2.857   0.257  11.613 -0.3679  0.1235 -0.0817
  502W        W 4246   0.481   1.317  10.343  0.0855  0.3037 -0.0260
  503W        W 4247   6.696   9.333  12.517  0.1346  0.2521 -0.1727
  504W        W 4248   8.208   0.520  12.802 -0.1753  0.0531  0.4123
  505W        W 4249   0.099   1.908  11.450  0.2869 -0.0081  0.0912
  506W        W 4250   6.803   0.391   0.033  0.1138 -0.0215 -0.0168
  507W        W 4251   1.599   4.193  11.161 -0.0487 -0.3859 -0.2559
  508W        W 4252   9.606   8.504   0.164  0.0514 -0.0700 -0.1363
  509W        W 4253   1.744   2.561   1.171 -0.0543  0.0235 -0.0800
  510W        W 4254   0.250   0.643   8.490  0.3367  0.0136  0.1025
  511W        W 4255   6.599   0.669  12.386  0.0758  0.0428  0.0913
  512W        W 4256   2.748   2.224   8.840  0.3558  0.1910  0.1239
  513W        W 4257   3.392   6.843   0.197  0.2504  0.1862  0.0800
  514W        W 4258   0.329   8.842  12.272 -0.0300  0.2347 -0.1926
  515W        W 4259   7.185   2.491   3.240  0.0598  0.2214 -0.2053
  516W        W 4260   0.312   5.769   1.601  0.0016 -0.1656 -0.0705
  517W        W 4261   8.098   5.636   0.998  0.0552  0.0608  0.1969
  518W        W 4262   6.986   5.528   2.323 -0.2036  0.0601  0.2377
  519W        W 4263   9.605   9.953   9.417 -0.0268 -0.1948 -0.0610
  520W        W 4264   2.237   3.518   3.507  0.0736 -0.0585  0.2413
  521W        W 4265   1.591   7.293   9.535 -0.2261  0.1807  0.1287
  522W        W 4266   6.356   7.000   2.986 -0.0039 -0.0808 -0.2493
  523W        W 4267   5.385   1.763   4.268 -0.1313  0.0992  0.1303
  524W        W 4268   9.492   8.201  12.081 -0.2511  0.1016  0.1366
  525W        W 4269   9.091   0.969   9.252 -0.0116 -0.0358 -0.0245
  526W        W 4270   4.102   3.297  11.413 -0.0155 -0.2196 -0.0236
  527W        W 4271   6.180   5.421  12.453 -0.0472  0.1724  0.3262
  528W        W 4272   2.425   7.884  11.778 -0.3247  0.0835 -0.2660
  529W        W 4273   2.064   5.125  11.981  0.2460 -0.0049 -0.2269
  530W        W 4274   1.734   7.546  10.076 -0.0162 -0.1960 -0.0244
  531W        W 4275   3.958   1.850   4.103 -0.1840  0.2387 -0.0591
  532W        W 4276   7.965   1.636   7.574  0.0884 -0.0722 -0.0427
  533W        W 4277   9.052   1.846   3.759 -0.0856  0.0175  0.0207
  534W        W 4278   6.322   0.193  12.709 -0.0795  0.0407  0.0833
  535W        W 4279   9.905   8.052  10.169 -0.0870  0.3334 -0.1689
  536W        W 4280   5.715   3.404   0.103 -0.2370 -0.0449 -0.1088
  537W        W 4281   4.041   3.327   0.596 -0.1638  0.1626 -0.0771
  538W        W 4282   2.634   2.742  12.089 -0.1100  0.1277 -0.1836
  539W        W 4283   7.861   1.543   3.998 -0.0021  0.1295 -0.1175
  540W        W 4284   4.274   4.352   9.599 -0.0627  0.1117 -0.0648
  541W        W 4285   8.380   0.197  12.057  0.1517  0.1598  0.0612
  542W        W 4286   1.957   2.728  10.444 -0.1654  0.0967 -0.0758
  543W        W 4287   6.213   2.075   8.452 -0.3574 -0.0111 -0.2009
  544W        W 4288   6.233   1.529  12.286 -0.1997  0.0299  0.0550
  545W        W 4289   0.814   1.414   9.453  0.0998  0.2786 -0.3513
  546W        W 4290   1.427   0.361  11.876 -0.2912  0.2580 -0.0243
  547W        W 4291   7.788   7.883  11.633  0.0799  0.2560 -0.3738
  548W        W 4292   2.940   6.455   4.127 -0.1076  0.1683  0.4093
  549W        W 4293   9.247   6.047   0.616  0.2316  0.3376  0.0484
  550W        W 4294   8.882   2.496   2.507 -0.0072  0.0017 -0.1092
  551W        W 4295   4.575   6.304  12.457  0.1330 -0.2042 -0.0457
  552W        W 4296   5.417   9.629  12.495 -0.0306  0.1188  0.0948
  553W        W 4297   1.640   1.001   3.005 -0.0109 -0.1235  0.2590
  554W        W 4298   3.339   2.972   1.823  0.2484  0.0667  0.2544
  555W        W 4299   7.584   9.755   2.313 -0.0305 -0.1727 -0.1151
  556W        W 4300   7.758   6.663   0.014  0.1301  0.0181  0.1659
  557W        W 4301   9.412   0.679   1.679  0.4359  0.1967 -0.0750
  558W        W 4302   9.352   3.221  12.452 -0.5292 -0.3133 -0.0999
  559W        W 4303   7.616   8.316  11.609 -0.0143 -0.0041 -0.4064
  560W        W 4304   4.464   6.733   9.019  0.1061  0.3278 -0.1052
  561W        W 4305   9.925   2.267   0.250  0.0385  0.0140  0.0210
  562W        W 4306   7.839   1.631  10.331 -0.2965  0.2271 -0.3566
  563W        W 4307   3.479   0.502   0.999  0.0238  0.2455  0.0528
  564W        W 4308   6.968   2.598   9.305 -0.0263  0.1028  0.3536
  565W        W 4309   5.564   9.229   2.395 -0.1503  0.1850  0.0086
  566W        W 4310   5.706   0.804   3.586 -0.3992  0.1212 -0.0429
  567W        W 4311   5.021   1.665   7.947  0.0209  0.0532 -0.0775
  568W        W 4312   3.022   6.192  11.736 -0.2696 -0.3622 -0.1430
  569W        W 4313   4.878   4.746   4.154  0.4494 -0.0878 -0.4084
  570W        W 4314   6.905   7.409  12.155 -0.2303 -0.0835  0.0166
  571W        W 4315   4.242   4.241   4.199  0.4220  0.1748 -0.0074
  572W        W 4316   2.521   2.345   0.917  0.1056  0.2276 -0.2958
  573W        W 4317   7.790   5.985  12.015 -0.0004  0.0191 -0.2311
  574W        W 4318   1.866   9.584  11.383 -0.0075  0.1586  0.0948
  575W        W 4319   3.747   5.830  12.640 -0.0511 -0.1815  0.1427
  576W        W 4320   3.514   0.153   9.757 -0.1465  0.3156 -0.0658
  577W        W 4321   9.505   9.600   2.802 -0.1328 -0.0644 -0.1809
  578W        W 4322   1.538   6.549   0.497  0.0804 -0.0162  0.2482
  579W        W 4323   9.003   1.919  12.459 -0.1452  0.2753  0.2883
  580W        W 4324   3.065   4.195  10.935  0.5360 -0.0595 -0.2884
  581W        W 4325   0.957   2.188  10.184 -0.0324 -0.1804 -0.0391
  582W        W 4326   2.800   0.615   3.945 -0.1560 -0.0903  0.1013
  583W        W 4327   0.592   0.358  10.696  0.0373 -0.2376  0.2705
  584W        W 4328   4.329   5.105   3.894  0.1203 -0.2217 -0.2419
  585W        W 4329   9.328   0.512   9.359 -0.1183  0.1730  0.0979
  586W        W 4330   4.681   4.068   9.541  0.1290 -0.1275  0.1120
  587W        W 4331   9.905   0.261  11.324 -0.0474  0.4728  0.0058
  588W        W 4332   8.538   1.045  10.906  0.0262 -0.2913 -0.1733
  589W        W 4333   4.158   4.791   3.396  0.0421 -0.3002 -0.1563
  590W        W 4334   2.465   9.554  12.059  0.0140  0.1226  0.3055
  591W        W 4335   1.169   8.280  10.692  0.1724  0.0861  0.2855
  592W        W 4336   5.337   1.178   4.075  0.4071  0.0417  0.3385
  593W        W 4337   9.624   3.565   1.759 -0.1373  0.0665 -0.0650
  594W        W 4338   6.602   1.435   0.119  0.1308 -0.0109 -0.0720
  595W        W 4339   6.827   5.215   3.064 -0.1069 -0.0447 -0.0362
  596W        W 4340   9.411   8.940   1.365 -0.0673 -0.1052 -0.0613
  597W        W 4341   3.336   6.053  10.327 -0.0320  0.0047  0.0399
  598W        W 4342   9.442   8.483   3.140  0.1951 -0.1802 -0.0457
  599W        W 4343   9.503   3.322   2.554  0.0842 -0.0149 -0.0231
  600W        W 4344   1.328   9.718   2.677 -0.0046 -0.0645 -0.2203
  601W        W 4345   7.490   5.105   1.350 -0.0879  0.2018  0.5032
  602W        W 4346   7.589   2.878  12.103 -0.0392 -0.0289 -0.1614
  603W        W 4347   1.932   3.350  11.164 -0.0328 -0.0108 -0.0951
  604W        W 4348   4.632   0.525   2.181  0.1463  0.2978 -0.2816
  605W        W 4349   3.122   3.128   0.143 -0.4005  0.2572  0.0544
  606W        W 4350   1.613   5.178   9.434  0.0941  0.1683  0.2640
  607W        W 4351   1.551   4.609   2.418 -0.0690  0.1452 -0.0963
  608W        W 4352   6.397   6.378   0.466  0.0770 -0.1364 -0.0550
  609W        W 4353   5.431   8.377  12.661  0.1130  0.0584  0.0543
  610W        W 4354   2.637   9.697   2.078  0.0062 -0.4047  0.1287
  611W        W 4355   5.912   7.444   4.577 -0.1782 -0.0787 -0.0881
  612W        W 4356   8.330   3.800  11.489 -0.0151 -0.4034 -0.2875
  613W        W 4357   7.321   2.001   9.521 -0.2031  0.1160 -0.2650
  614W        W 4358   8.666   4.275   1.656 -0.0462  0.0247  0.0077
  615W        W 4359   5.192   4.497  10.820  0.2757 -0.0952  0.0666
  616W        W 4360   2.117   0.558   9.587 -0.3396 -0.0928  0.3534
  617W        W 4361   5.932   4.742   2.155 -0.3095  0.0255 -0.1369
  618W        W 4362   0.801   2.822  12.239 -0.1479 -0.2581  0.2432
  619W        W 4363   0.819   8.640   1.646 -0.0227  0.2244 -0.1611
  620W        W 4364   5.381   1.853   1.694  0.1662 -0.0919 -0.0709
  621W        W 4365   3.228   4.719  11.486  0.0774 -0.1150  0.1175
  622W        W 4366   7.872   0.062   0.868 -0.1657  0.0586  0.0053
  623W        W 4367   7.308   2.536   8.545  0.0341  0.1612  0.0867
  624W        W 4368   7.600   6.047  10.699 -0.0604 -0.4308  0.1841
  625W        W 4369   7.136   7.602   9.146  0.1589  0.5095  0.1624
  626W        W 4370   4.515   2.092   3.720 -0.0668 -0.3827  0.0618
  627W        W 4371   4.846   8.531   9.256 -0.2762  0.2290  0.1188
  628W        W 4372   6.109   9.287   9.417  0.0935  0.2436 -0.2623
  629W        W 4373   4.192   7.105  10.602  0.1139 -0.0693 -0.0538
  630W        W 4374   3.723   7.424   1.070  0.0569 -0.5120  0.3541
  631W        W 4375   0.115   3.120   9.882  0.1892  0.1506 -0.0058
  632W        W 4376   1.314   8.102  11.660  0.0449 -0.1965 -0.0469
  633W        W 4377   5.130   9.434   9.760  0.1803 -0.0685 -0.0697
  634W        W 4378   4.358   7.694  12.750  0.0508 -0.1216  0.3211
  635W        W 4379   5.622   8.565   1.635  0.0966 -0.1246  0.2840
  636W        W 4380   1.550   3.532   2.843  0.1820  0.0826  0.0332
  637W        W 4381   7.191   4.369   1.436  0.1676  0.4795  0.1469
  638W        W 4382   5.972   8.218   5.104  0.1503 -0.2149  0.0290
  639W        W 4383   0.522   3.940   9.708 -0.0662 -0.2113 -0.0970
  640W        W 4384   8.884   0.668  12.125 -0.0901  0.1167 -0.2543
  641W        W 4385   7.538   4.719   0.377 -0.1301 -0.1812 -0.0387
  642W        W 4386   3.166   6.491   9.886 -0.1495  0.2488  0.2240
  643W        W 4387   2.855   8.713   2.147  0.0849  0.2425  0.0878
  644W        W 4388   3.579   3.385   2.198 -0.3041 -0.0277  0.0763
  645W        W 4389   9.729   1.489   2.031  0.1451 -0.1861 -0.1109
  646W        W 4390   0.900   1.269   0.996  0.1895  0.1342 -0.3502
  647W        W 4391   3.253   3.955  11.952 -0.0530 -0.1249 -0.1581
  648W        W 4392   1.163   0.971  11.127 -0.0484  0.4036  0.1597
  649W        W 4393   7.484   8.620   1.526 -0.2002  0.0441  0.2530
  650W        W 4394   1.346   9.250   2.160  0.4044 -0.2820 -0.0119
  651W        W 4395   5.272   9.941   3.899 -0.0110 -0.1519  0.1561
  652W        W 4396   8.645   5.575   9.424 -0.0573  0.0425 -0.0446
  653W        W 4397   1.461   8.192   3.596  0.1540 -0.1104  0.0880
  654W        W 4398   6.266   3.256  11.573 -0.1675 -0.0164 -0.2843
  655W        W 4399   7.799   3.768  11.892 -0.1056 -0.2563 -0.0785
  656W        W 4400   3.528   4.721  10.641 -0.0161  0.1704 -0.2161
  657W        W 4401   0.605   7.907   2.972 -0.0484  0.0840 -0.0944
  658W        W 4402   8.023   4.977   9.880  0.0706 -0.0898  0.0125
  659W        W 4403   0.487   2.243  10.373 -0.0310  0.1555 -0.0436
  660W        W 4404   8.186   1.241  10.594  0.2465  0.0959 -0.1560
  661W        W 4405   7.188   1.202   8.381 -0.3616 -0.2329  0.0698
  662W        W 4406   3.706   2.036  10.039  0.0671  0.0030 -0.1472
  663W        W 4407   8.246   2.643  12.760  0.0619  0.1076 -0.3260
  664W        W 4408   0.778   4.001  11.825 -0.1347 -0.3831  0.1595
  665W        W 4409   6.837   3.397  10.431  0.0494  0.0488  0.1341
  666W        W 4410   4.873   8.527   3.639 -0.2374 -0.2032  0.0970
  667W        W 4411   1.986   3.718   1.160  0.0096 -0.0550 -0.1939
  668W        W 4412   4.362   1.587   9.779  0.0639 -0.0023 -0.2084
  669W        W 4413   8.883   1.454  12.599  0.0905  0.1131  0.1476
  670W        W 4414   8.041   5.593  12.242  0.3732  0.0060  0.3892
  671W        W 4415   3.900   3.156   1.893  0.3321 -0.0329 -0.0497
  672W        W 4416   4.042   9.108  10.482 -0.2208 -0.1851 -0.0533
  673W        W 4417   5.277   0.375   4.240  0.0406 -0.0214 -0.2029
  674W        W 4418   5.869   2.868   0.012 -0.0977 -0.0362 -0.0212
  675W        W 4419   4.921   2.060   9.848  0.0600  0.0046  0.2200
  676W        W 4420   5.483   3.004  11.103 -0.1366  0.1377  0.2200
  677W        W 4421   1.276   4.653   2.862  0.2658 -0.2389  0.2143
  678W        W 4422   4.646   4.211   1.742  0.2107 -0.0242  0.0611
  679W        W 4423   3.119   3.470   3.045 -0.1107 -0.0104  0.2458
  680W        W 4424   2.380   1.261   9.095  0.1703 -0.1814  0.1297
  681W        W 4425   7.118   1.930   8.713 -0.4769 -0.0594  0.0130
  682W        W 4426   1.007   7.163  11.742 -0.1739 -0.1540 -0.2151
  683W        W 4427   5.266   0.431   9.419  0.1817 -0.2502  0.0860
  684W        W 4428   4.983   5.447   8.537 -0.0262 -0.2992  0.5063
  685W        W 4429   4.631   3.346  10.598  0.1824 -0.1666 -0.1492
  686W        W 4430   3.963   4.229  10.628 -0.1754  0.0377  0.0093
  687W        W 4431   6.362   5.878   2.658  0.3270 -0.0783 -0.1783
  688W        W 4432   4.700   9.869   0.881  0.1703 -0.2290  0.2525
  689W        W 4433   5.451   6.767   9.186  0.1540  0.3052 -0.0039
  690W        W 4434   1.273   6.932   9.418 -0.0383 -0.2082 -0.1473
  691W        W 4435   9.566   6.460  10.271 -0.0251 -0.2756  0.0228
  692W        W 4436   6.752   2.801   0.978 -0.0152 -0.0416 -0.1653
  693W        W 4437   3.169   8.483  10.933 -0.1872  0.3209 -0.0172
  694W        W 4438   7.859   2.463   2.397 -0.5779  0.1303 -0.2492
  695W        W 4439   1.992   9.761  10.551  0.2420 -0.0104  0.1407
  696W        W 4440   4.055   6.849   1.815  0.0269 -0.0206 -0.0714
  697W        W 4441   7.533   0.442   1.629  0.2892 -0.0837  0.4387
  698W        W 4442   5.213   5.744  10.768 -0.1543  0.0346  0.2637
  699W        W 4443   7.595   8.212  10.318 -0.0041  0.2106  0.1862
  700W        W 4444   5.734   3.215  11.552 -0.0972 -0.1060 -0.1381
  701W        W 4445   8.602   7.030  12.131  0.0468  0.1276 -0.2397
  702W        W 4446   1.505   6.057  11.696 -0.2761  0.1279  0.2099
  703W        W 4447   8.076   3.132   9.101  0.0044  0.0233  0.2522
  704W        W 4448   0.705   9.090  12.507  0.2703  0.0256 -0.0209
  705W        W 4449   7.924   0.230  12.446 -0.1520 -0.1417 -0.0818
  706W        W 4450   7.515   5.604   2.957 -0.0552  0.2590  0.0162
  707W        W 4451   2.667   2.611   9.202  0.1732 -0.0417 -0.1435
  708W        W 4452   0.441   0.627   3.454 -0.0926  0.3387  0.2602
  709W        W 4453   5.153   3.759   9.003 -0.3011  0.0488 -0.1214
  710W        W 4454   6.242   3.426   2.219  0.1363 -0.1718 -0.1451
  711W        W 4455   5.971   3.755  12.265  0.1869 -0.1371 -0.0127
  712W        W 4456   1.648   5.378  11.814 -0.1499 -0.2011  0.0188
  713W        W 4457   8.229   5.161   0.762  0.0666  0.3523 -0.1304
  714W        W 4458   7.346   4.074  11.543 -0.2547 -0.2598 -0.3531
  715W        W 4459   5.739   5.628   2.886 -0.0368 -0.3076 -0.0361
  716W        W 4460   1.535   5.229   3.668 -0.3502  0.0932 -0.3376
  717W        W 4461   7.715   6.944   0.507 -0.3070 -0.1729 -0.0138
  718W        W 4462   8.684   6.450   2.427  0.0719  0.2292  0.0607
  719W        W 4463   0.579   9.179   2.419 -0.2415 -0.3341  0.3956
  720W        W 4464   9.000   1.963   1.523 -0.0511 -0.0760  0.1826
  721W        W 4465   4.149   1.182   1.074  0.0637 -0.2055 -0.1857
  722W        W 4466   7.538   0.458  10.681  0.0040 -0.0041  0.0280
  723W        W 4467   8.336   3.687   1.050  0.1530 -0.1597 -0.2919
  724W        W 4468   8.798   3.056   4.052 -0.1526 -0.2105  0.0470
  725W        W 4469   9.583   4.161   9.710 -0.4148  0.2126 -0.1014
  726W        W 4470   5.448   4.682   3.471 -0.0469 -0.1994 -0.3950
  727W        W 4471   1.827   1.714  12.651  0.0376 -0.1737 -0.2872
  728W        W 4472   0.946   7.652   1.328  0.2317 -0.3998  0.0669
  729W        W 4473   3.793   2.849  12.545  0.2933 -0.0058 -0.1853
  730W        W 4474   8.339   3.610   2.215  0.0240 -0.1225  0.1927
  731W        W 4475   7.158   6.840   3.405 -0.1842 -0.2874  0.0452
  732W        W 4476   7.763   5.169   3.124  0.0651  0.1666  0.0594
  733W        W 4477   2.004   3.366   3.078 -0.2045  0.0215 -0.0643
  734W        W 4478   5.583   9.001   0.780 -0.0575  0.1323 -0.0717
  735W        W 4479   8.647   9.221   4.635 -0.1757 -0.0418  0.0465
  736W        W 4480   3.267   1.752   3.796 -0.0545 -0.0930 -0.1788
  737W        W 4481   8.269   5.975   0.619  0.0831  0.0610  0.1881
  738W        W 4482   2.302   2.057  11.394  0.0522  0.1169 -0.4686
  739W        W 4483   9.113   8.279  11.184  0.0199  0.1830 -0.3335
  740W        W 4484   1.588   4.710   9.450  0.0417 -0.1239 -0.0409
  741W        W 4485   8.491   7.065   9.841  0.3335  0.1069 -0.4022
  742W        W 4486   1.625   2.784   2.190 -0.0485 -0.3293 -0.1351
  743W        W 4487   4.642   9.408   9.473 -0.1298 -0.3615  0.2280
  744W        W 4488   5.857   6.441   2.145 -0.0541  0.0888 -0.0188
  745W        W 4489   0.525   9.927  11.090  0.0293  0.2607  0.2061
  746W        W 4490   4.357   0.285   4.013  0.2492  0.0872 -0.1410
  747W        W 4491   2.636   7.603   2.935 -0.1551  0.1130  0.0111
  748W        W 4492   7.927   0.672   9.064 -0.0457  0.0607 -0.1880
  749W        W 4493   0.969   6.767  12.755 -0.0688 -0.0528  0.0564
  750W        W 4494   8.318   5.792   2.260  0.0709 -0.0704 -0.0338
  751W        W 4495   1.879   1.274  11.719 -0.0876  0.1382  0.1327
  752W        W 4496   2.581   6.681   9.256 -0.2546 -0.0986  0.3169
  753W        W 4497   6.429   0.736   3.342 -0.1885  0.0421  0.0098
  754W        W 4498   0.133   8.975  11.829 -0.0468 -0.3264 -0.3562
  755W        W 4499   4.241   1.580   3.652 -0.1139  0.0756  0.0445
  756W        W 4500   9.150   5.484   2.301 -0.1497  0.1118 -0.0273
  757W        W 4501   5.101   1.973   3.901  0.1985 -0.0461  0.0731
  758W        W 4502   4.852   2.917  11.895 -0.1288 -0.0323  0.2649
  759W        W 4503   7.451   0.005  11.640 -0.0446  0.0039 -0.1151
  760W        W 4504   2.600   9.005  10.150  0.0179  0.0327 -0.0546
  761W        W 4505   9.744   8.919  12.236  0.0278 -0.0734  0.0296
  762W        W 4506   5.072   6.820   1.911  0.2757 -0.0510 -0.2597
  763W        W 4507   3.747   0.536   2.356  0.0230 -0.3988 -0.2538
  764W        W 4508   9.402   4.377  12.291  0.4274  0.1677 -0.0949
  765W        W 4509   1.231   2.871   8.116  0.0798 -0.1885 -0.0624
  766W        W 4510   5.679   8.169  10.767 -0.2567 -0.0304  0.0900
  767W        W 4511   4.084   1.750   1.787 -0.1136  0.1554  0.1149
  768W        W 4512   4.647   7.643  11.209  0.1614  0.1172  0.0624
  769W        W 4513   1.241   3.942   3.628  0.1631 -0.1099  0.0640
  770W        W 4514   9.116   9.273  11.352  0.1147 -0.2998 -0.2082
  771W        W 4515   5.986   7.671  12.100 -0.2410  0.0675  0.2041
  772W        W 4516   2.509   9.753  10.679  0.1288  0.0988  0.0429
  773W        W 4517   3.945   2.533   0.677  0.0503 -0.0731 -0.3185
  774W        W 4518   8.004   5.486   2.767 -0.1387 -0.1142 -0.1664
  775W        W 4519   2.977   5.553  10.202 -0.0590  0.1949  0.1228
  776W        W 4520   3.527   3.748  12.327 -0.0922 -0.2871 -0.5822
  777W        W 4521   8.173   2.084  10.140 -0.1373 -0.1058 -0.1354
  778W        W 4522   5.668   9.704  11.732  0.0467  0.0100  0.1386
  779W        W 4523   8.015   5.971  12.620  0.2972 -0.1518 -0.1889
  780W        W 4524   4.304   8.505   1.163  0.2212 -0.2325  0.2290
  781W        W 4525   9.305   0.672   0.371 -0.2532  0.0950 -0.1827
  782W        W 4526   7.553   9.895  12.255  0.2247 -0.3111 -0.0323
  783W        W 4527   1.645   5.574  10.792  0.1495 -0.0565 -0.2425
  784W        W 4528   3.870   1.928   0.261  0.1116 -0.4863  0.2014
  785W        W 4529   3.929   0.145  11.539  0.1265  0.0486  0.3237
  786W        W 4530   0.031   3.871   9.657 -0.0175 -0.0631  0.1739
  787W        W 4531   2.596   3.917  10.119  0.0916  0.0651  0.2744
  788W        W 4532   4.034   0.586  10.523  0.0008  0.2542 -0.0610
  789W        W 4533   2.002   2.310  10.738 -0.4331  0.2167 -0.1576
  790W        W 4534   4.175   5.279   2.524  0.1683 -0.2664 -0.0034
  791W        W 4535   4.768   6.668   9.817 -0.0451 -0.0985 -0.2235
  792W        W 4536   7.171   9.470  11.123  0.0080 -0.1455 -0.1796
  793W        W 4537   0.214   5.942   0.728  0.0154  0.1879 -0.2288
  794W        W 4538   0.715   5.767  10.758  0.3612 -0.2935  0.0807
  795W        W 4539   1.639   0.135   2.917  0.0664  0.0734 -0.3250
  796W        W 4540   4.849   4.966  12.295  0.1168  0.1356  0.0512
  797W        W 4541   6.840   2.474   8.380  0.0703 -0.2786  0.0133
  798W        W 4542   9.078   4.938  11.508  0.1152 -0.0315  0.2037
  799W        W 4543   7.321   1.511   8.743  0.3540  0.0910 -0.1494
  800W        W 4544   5.823   7.545   1.811  0.0444  0.0031  0.0890
  801W        W 4545   2.176   9.909   2.242 -0.0508  0.0356 -0.0866
  802W        W 4546   5.424   6.768   2.220 -0.1216  0.2241 -0.1022
  803W        W 4547   4.942   4.248   2.991 -0.4736  0.1086 -0.1688
  804W        W 4548   8.275   2.529   3.734 -0.1403  0.2221 -0.1893
  805W        W 4549   5.523   3.098  10.579 -0.0838  0.0811 -0.1920
  806W        W 4550   2.502   4.804   9.150  0.0151  0.0908  0.1073
  807W        W 4551   8.923   4.718   3.544  0.1844 -0.1135  0.2080
  808W        W 4552   0.945   4.644  10.867 -0.0490 -0.0877  0.2075
  809W        W 4553   6.426   6.391   9.714  0.1053 -0.1493 -0.0107
  810W        W 4554   3.194   6.180   0.800  0.0173  0.4937  0.0874
  811W        W 4555   9.780   6.718  11.715  0.1045 -0.1080 -0.2831
  812W        W 4556   5.935   7.014   3.962 -0.1360  0.1451 -0.0098
  813W        W 4557   1.968   5.226   3.060  0.0674 -0.0601 -0.2457
  814W        W 4558   3.634   2.580   3.646 -0.0814 -0.1750  0.2001
  815W        W 4559   3.771   9.100   3.215  0.3167 -0.1434 -0.2089
  816W        W 4560   3.762   0.009  10.352  0.0548 -0.0595  0.0858
  817W        W 4561   4.682   5.383  12.087 -0.1707 -0.0243  0.1379
  818W        W 4562   3.864   3.069   2.391 -0.1045 -0.3759 -0.0411
  819W        W 4563   3.100   0.656   3.549 -0.1973 -0.0858  0.0832
  820W        W 4564   2.396   0.260   9.889 -0.1969 -0.0191  0.1883
  821W        W 4565   2.591   6.897  11.714 -0.1090 -0.2406  0.0966
  822W        W 4566   2.483   6.922  11.121  0.0831  0.1561 -0.1214
  823W        W 4567   4.155   5.712   2.247  0.1336 -0.4808  0.2157
  824W        W 4568   0.169   0.129  10.837 -0.0058  0.4196 -0.3070
  825W        W 4569   6.324   4.657  12.404  0.0255 -0.2076 -0.0639
  826W        W 4570   8.808   5.500   2.855  0.3248 -0.0655 -0.0789
  827W        W 4571   7.134   7.103   1.831  0.1428 -0.0871  0.0557
  828W        W 4572   4.281   6.825   2.266  0.0154  0.1517 -0.3187
  829W        W 4573   7.031   3.721   9.617  0.1218 -0.0785  0.0366
  830W        W 4574   7.516   9.563   3.782 -0.1345 -0.2840  0.1774
  831W        W 4575   8.858   5.236   1.434  0.0624 -0.1868  0.0615
  832W        W 4576   3.763   1.631   8.615  0.2606 -0.3012  0.2648
  833W        W 4577   2.507   8.056  11.302 -0.1590 -0.0018  0.0488
  834W        W 4578   2.639   4.841  10.726  0.1360 -0.0223 -0.2596
  835W        W 4579   5.548   1.452   1.976 -0.3398 -0.2539 -0.2741
  836W        W 4580   5.293   5.309   3.748  0.1117 -0.2390 -0.2674
  837W        W 4581   1.556   1.577   4.210 -0.0965 -0.3468 -0.2340
  838W        W 4582   4.419   3.923   3.864  0.1649  0.0803 -0.0025
  839W        W 4583   5.192   0.930   9.270  0.1440  0.2939  0.3454
  840W        W 4584   8.714   4.618   2.815 -0.0110  0.0680  0.2644
  841W        W 4585   7.197   7.715   1.186  0.2100  0.3074  0.0797
  842W        W 4586   1.095   4.709   3.338 -0.0096 -0.0982  0.4340
  843W        W 4587   7.744   1.798   0.669  0.0204  0.0594 -0.0234
  844W        W 4588   6.384   0.726   0.093  0.1729  0.2854 -0.1183
  845W        W 4589   5.361   0.589   1.146  0.2965  0.0195  0.0432
  846W        W 4590   4.756   9.347   1.031 -0.2276 -0.1219 -0.1924
  847W        W 4591   9.880   0.910   3.313 -0.0178 -0.1768 -0.1539
  848W        W 4592   8.567   2.326   1.547  0.2784 -0.1277  0.2899
  849W        W 4593   4.371   9.876   2.882 -0.0175 -0.1263 -0.1418
  850W        W 4594   7.417   3.748   1.960 -0.0913 -0.2619 -0.0546
  851W        W 4595   9.200   6.086  11.790  0.1045  0.1865 -0.1149
  852W        W 4596   7.023   7.331   0.394  0.1156 -0.0962 -0.0486
  853W        W 4597   3.452   6.853   1.265  0.0482  0.0862 -0.3884
  854W        W 4598   0.861   0.810  11.522 -0.4409 -0.0677  0.0616
  855W        W 4599   7.542   5.966   1.681  0.0599 -0.0081 -0.1407
  856W        W 4600   8.950   7.367  12.363 -0.3752 -0.1949 -0.3212
  857W        W 4601   6.336   6.085  12.180 -0.0542  0.0106 -0.0860
  858W        W 4602   3.200   6.507   2.618  0.2214  0.1153 -0.0232
  859W        W 4603   3.878   2.825  12.087 -0.0731 -0.0045 -0.0755
  860W        W 4604   2.379   3.326   2.639  0.0387  0.0460 -0.0642
  861W        W 4605   5.577   5.922   4.264 -0.0237 -0.1843  0.4819
  862W        W 4606   2.917   7.166   9.672 -0.2154 -0.0363 -0.1013
  863W        W 4607   3.921   0.048   3.187  0.2260  0.1497  0.3483
  864W        W 4608   0.474   7.900   1.376  0.1702  0.1032 -0.0732
  865W        W 4609   1.284   2.591  10.060  0.0299  0.3650  0.0112
  866W        W 4610   9.431   8.018   1.381  0.4464  0.0367  0.0485
  867W        W 4611   2.715   4.917   2.433  0.0097 -0.0723 -0.0103
  868W        W 4612   4.229   5.599   3.869 -0.3939  0.1043  0.0368
  869W        W 4613   3.971   6.638  12.146 -0.3646  0.0346  0.1791
  870W        W 4614   0.097   4.439   3.802  0.1960  0.0859  0.2071
  871W        W 4615   2.617   5.685   0.449 -0.0314  0.1007 -0.1315
  872W        W 4616   7.710   3.609   8.712 -0.3263  0.0833 -0.1874
  873W        W 4617   6.358   3.055   3.035  0.2512  0.1169  0.3050
  874W        W 4618   5.157   8.094   2.031 -0.0510 -0.0097  0.3532
  875W        W 4619   4.520   7.548   4.000  0.1189  0.2088  0.1823
  876W        W 4620   0.402   3.625   0.857 -0.0298  0.1281  0.1517
  877W        W 4621   4.612   6.703   0.073  0.2104 -0.1597  0.2025
  878W        W 4622   0.984   0.506   1.682  0.0151 -0.1307 -0.0497
  879W        W 4623   8.151   4.830   9.048  0.1044 -0.0669 -0.0798
  880W        W 4624   0.350   0.702   1.999  0.0113 -0.1733 -0.1071
  881W        W 4625   7.714   2.597   1.430  0.1085  0.1962 -0.3613
  882W        W 4626   7.461   3.303  10.482 -0.1297 -0.3888  0.1300
  883W        W 4627   9.618   4.302   4.014 -0.0300  0.1519 -0.0819
  884W        W 4628   5.090   6.038  10.282 -0.2150 -0.2899  0.1566
  885W        W 4629   4.143   9.775  12.643  0.3355 -0.0920  0.0315
  886W        W 4630   6.534   7.681   9.848 -0.2134  0.2551  0.1118
  887W        W 4631   7.576   6.926   3.159  0.0588  0.0483  0.0418
  888W        W 4632   2.609   0.014   3.906 -0.0208  0.0145  0.2316
  889W        W 4633   9.655   5.603  11.350  0.2111  0.0515 -0.3354
  890W        W 4634   5.350   3.749   3.199  0.1700  0.1041 -0.0835
  891W        W 4635   0.489   0.219   0.959 -0.1063  0.0648 -0.0329
  892W        W 4636   1.940   6.957   0.508 -0.2103  0.1859 -0.1405
  893W        W 4637   2.904   2.175   2.487 -0.1062  0.1198 -0.1501
  894W        W 4638   3.985   8.018   7.918  0.1495  0.1039 -0.0325
  895W        W 4639   7.534   2.788  11.243 -0.0323 -0.1250  0.0080
  896W        W 4640   5.056   2.534   9.623 -0.3655  0.4086 -0.0327
  897W        W 4641   3.025   7.915   0.364  0.3256 -0.0066 -0.3658
  898W        W 4642   6.745   0.732  10.521  0.1606 -0.1445  0.0287
  899W        W 4643   5.575   4.273   2.910  0.3542  0.2876 -0.1353
  900W        W 4644   1.182   5.418   2.813  0.1639 -0.0244 -0.2632
  901W        W 4645   6.870   4.468   0.933 -0.0706  0.1026 -0.2428
  902W        W 4646   2.450   3.854   2.238 -0.1118  0.5144 -0.2047
  903W        W 4647   0.466   3.053   0.436  0.3189 -0.2392 -0.4047
  904W        W 4648   2.703   0.391   2.257  0.0976 -0.0199  0.1434
  905W        W 4649   3.930   0.631   3.883 -0.2330  0.0695  0.0736
  906W        W 4650   2.097   8.866  10.456 -0.1084 -0.0300 -0.0228
  907W        W 4651   2.881   6.853  10.154 -0.3533  0.2022 -0.0265
  908W        W 4652   1.302   8.434  11.268  0.0795 -0.0112 -0.0474
  909W        W 4653   2.064   7.265  12.283  0.0541 -0.0010 -0.0356
  910W        W 4654   3.195   1.893   2.167 -0.1245  0.1598 -0.0780
  911W        W 4655   4.891   5.237   4.133 -0.1754  0.4327  0.1058
  912W        W 4656   5.596   3.823   1.987 -0.0474 -0.1188 -0.1000
  913W        W 4657   3.470   4.737   0.544  0.0170  0.2309  0.0660
  914W        W 4658   5.793   2.986   9.718 -0.3857  0.1239  0.0505
  915W        W 4659   8.258   8.226   3.016  0.2627 -0.1119  0.0910
  916W        W 4660   3.455   2.807   0.434  0.2345  0.1797  0.3736
  917W        W 4661   4.275   2.158   0.572  0.4567 -0.0741 -0.2308
  918W        W 4662   5.162   2.279  11.620 -0.0089  0.1749 -0.0308
  919W        W 4663   3.582   0.527  10.650 -0.0759 -0.1659  0.2511
  920W        W 4664   5.591   9.923   3.464 -0.0216  0.0780 -0.0339
  921W        W 4665   4.063   9.163  11.023  0.1292  0.0436 -0.0346
  922W        W 4666   8.136   0.124   9.814 -0.1576  0.1044 -0.0495
  923W        W 4667   3.935   4.424  10.099 -0.1804  0.2550 -0.4754
  924W        W 4668   9.200   5.217  12.765 -0.1637 -0.1649 -0.0090
  925W        W 4669   3.725   6.745  12.563 -0.0365 -0.2319 -0.1176
  926W        W 4670   9.882   9.310   4.027 -0.1684  0.1622  0.0319
  927W        W 4671   1.121   3.444  10.753  0.1459 -0.0140  0.2946
  928W        W 4672   5.276   3.229   9.072 -0.3404  0.0682  0.2009
  929W        W 4673   2.916   6.015   2.055 -0.0240  0.0796  0.0915
  930W        W 4674   5.494   2.848  12.405 -0.4548 -0.0323 -0.1628
  931W        W 4675   1.949   0.498   3.030  0.1143  0.2725 -0.3480
  932W        W 4676   1.817   0.823   3.442  0.0840 -0.0239  0.0313
  933W        W 4677   3.558   1.799  10.916  0.2183  0.2953  0.1923
  934W        W 4678   2.682   3.223   0.987 -0.0308 -0.0644 -0.3176
  935W        W 4679   9.090   9.036   2.375  0.0727  0.1236  0.1849
  936W        W 4680   7.979   5.699   3.231  0.0449  0.2904  0.1977
  937W        W 4681   8.647   2.358  10.211 -0.1049 -0.1388  0.1013
  938W        W 4682   6.251   7.135   2.438 -0.2774 -0.0732  0.0992
  939W        W 4683   9.132   4.217   1.514  0.0624  0.2836  0.0533
  940W        W 4684   2.902   3.533   9.665  0.1425  0.2747 -0.0887
  941W        W 4685   2.266   2.032   9.654  0.4201  0.2949  0.1070
  942W        W 4686   0.520   1.404   3.952  0.2118  0.3948 -0.0572
  943W        W 4687   5.544   3.853   2.528 -0.1175 -0.2355  0.4475
  944W        W 4688   5.377   6.314   2.479  0.3879 -0.0482  0.0524
  945W        W 4689   4.911   6.984   0.447 -0.0903 -0.2273  0.1270
  946W        W 4690   6.817   0.518   1.032 -0.0931 -0.0138 -0.2045
  947W        W 4691   7.468   6.761   2.151 -0.0614 -0.1167 -0.0680
  948W        W 4692   9.685   9.581  11.227 -0.2773 -0.1058 -0.1319
  949W        W 4693   1.913   3.193   2.643  0.1286  0.1753  0.0948
  950W        W 4694   4.724   3.523  11.942  0.2461 -0.1123 -0.0904
  951W        W 4695   8.166   4.199  11.156 -0.2495 -0.0984  0.0393
  952W        W 4696   8.507   9.432   0.066 -0.2843  0.2366  0.1264
  953W        W 4697   7.705   2.623   3.655  0.1468  0.3679  0.0553
  954W        W 4698   3.975   5.660  10.376  0.2134  0.1828  0.0836
  955W        W 4699   4.879   6.800  11.044  0.0023 -0.1422 -0.0357
  956W        W 4700   8.416   9.350   3.099 -0.0631  0.0866 -0.1837
  957W        W 4701   2.428   6.824   2.228 -0.0329  0.2283 -0.0001
  958W        W 4702   7.783   3.997   3.871  0.3762 -0.0170  0.0628
  959W        W 4703   5.235   6.830   1.435 -0.0165  0.2562  0.1142
  960W        W 4704   1.750   4.055   3.642 -0.2490 -0.3913 -0.0673
  961W        W 4705   2.792   3.000   9.503 -0.0170 -0.1962 -0.3413
  962W        W 4706   0.782   9.772   2.801  0.0647 -0.1005 -0.0427
  963W        W 4707   9.408   8.071  10.714  0.0127  0.0990  0.2047
  964W        W 4708   5.803   1.331   1.215 -0.2238 -0.2084  0.0900
  965W        W 4709   5.556   7.777   1.426  0.2253  0.2218 -0.1014
  966W        W 4710   7.988   7.283   2.939 -0.4233  0.1307  0.2054
  967W        W 4711   9.435   1.215   1.639 -0.1272 -0.1650 -0.5829
  968W        W 4712   6.493   4.004   1.854 -0.1492  0.1912  0.1973
  969W        W 4713   3.196   9.326   9.353 -0.0356  0.0069 -0.0026
  970W        W 4714   3.996   4.633  12.752  0.0368 -0.0300  0.0073
  971W        W 4715   8.441   4.574   0.011  0.0013 -0.2904  0.4667
  972W        W 4716   4.316   8.226  11.562 -0.0418 -0.0505  0.1497
  973W        W 4717   0.437   0.868   3.023 -0.0366  0.0837 -0.1497
  974W        W 4718   0.224   3.476   1.908  0.1927 -0.1411  0.2457
  975W        W 4719   3.790   5.848   3.839 -0.0228  0.0708  0.2294
  976W        W 4720   8.697   8.357   3.393 -0.1129 -0.0151  0.0260
  977W        W 4721   2.527   5.878   2.938  0.2416  0.0680 -0.1581
  978W        W 4722   4.664   1.195   1.089 -0.0936 -0.2318  0.0566
  979W        W 4723   8.194   2.789  10.828 -0.0763 -0.1144 -0.2010
  980W        W 4724   5.013   1.136  12.021  0.1170  0.2820  0.0938
  981W        W 4725   8.131   0.479   0.466  0.1580 -0.0671 -0.2273
  982W        W 4726   4.800   4.568   0.450 -0.2475  0.2751  0.1128
  983W        W 4727   3.547   1.805   1.691  0.0041  0.2646  0.1234
  984W        W 4728   8.041   0.708   3.993 -0.1057 -0.1107  0.0736
  985W        W 4729   9.759   6.028   3.923 -0.1820 -0.1707 -0.0009
  986W        W 4730   6.862   9.180   1.905  0.0412  0.1653  0.2383
  987W        W 4731   9.225   8.487   4.349  0.1702  0.1641 -0.2114
  988W        W 4732   5.487   0.060  11.338 -0.3369 -0.0537 -0.1402
  989W        W 4733   4.941   9.458  12.709  0.0080 -0.0694 -0.0407
  990W        W 4734   2.707   2.787  11.201 -0.3141  0.1695  0.0961
  991W        W 4735   6.212   9.166   1.042  0.0124  0.1810 -0.0602
  992W        W 4736   2.424   2.579   1.791 -0.1560  0.0819  0.2136
  993W        W 4737   4.690   2.309   1.476 -0.1459 -0.0887 -0.1195
  994W        W 4738   2.249   6.005  12.231  0.2577  0.0710  0.3952
  995W        W 4739   6.319   0.322   0.414 -0.1024  0.0446  0.1173
  996W        W 4740   6.275   8.829  10.116 -0.2081 -0.2208 -0.2707
  997W        W 4741   2.008   5.286   3.589  0.0739 -0.1418  0.0043
  998W        W 4742   3.401   1.107   1.558  0.0329  0.3080 -0.0271
  999W        W 4743   9.310   6.735   2.463  0.0003 -0.0083 -0.0209
 1000W        W 4744   0.231   7.470   0.089 -0.0728  0.1410 -0.2677
 1001W        W 4745   8.425   6.793   2.149 -0.0063 -0.0118 -0.0235
 1002W        W 4746   0.028   3.295   0.852 -0.1366 -0.2017 -0.1414
 1003W        W 4747   3.255   5.692  12.540  0.0172  0.1069  0.0854
 1004W        W 4748   5.573   8.491  11.827  0.1980  0.0301 -0.1633
 1005W        W 4749   8.443   2.654   3.145  0.2910 -0.3221 -0.1787
 1006W        W 4750   1.486   1.912   0.170 -0.1614 -0.1261 -0.2655
 1007W        W 4751   2.378   8.926  11.355  0.0003  0.2682 -0.0333
 1008W        W 4752   1.766   0.708  11.646  0.1616 -0.1030 -0.3438
 1009W        W 4753   2.768   3.440   1.464 -0.4221  0.0454 -0.0769
 1010W        W 4754   3.208   4.109   1.862  0.1004  0.2103  0.1244
 1011W        W 4755   4.755   8.548   2.745 -0.2539 -0.2675 -0.1602
 1012W        W 4756   8.337   6.827  11.714  0.2471 -0.0546  0.1447
 1013W        W 4757   0.541   1.429   1.759  0.1987 -0.1529 -0.3384
 1014W        W 4758   3.938   5.098   4.179  0.0592  0.4110  0.1043
 1015W        W 4759   6.209   7.830   9.259  0.2755  0.2181 -0.0091
 1016W        W 4760   4.984   5.745  12.650  0.2385  0.0283  0.2176
 1017W        W 4761   3.672   6.933   9.296 -0.1262 -0.0289 -0.1015
 1018W        W 4762   6.980   7.837   8.715  0.0392  0.0698 -0.0532
 1019W        W 4763   2.863   8.698   0.261  0.0638 -0.3474 -0.3732
 1020W        W 4764   1.292   0.642   2.852  0.1806 -0.2130  0.1134
 1021W        W 4765   9.632   9.025   0.912 -0.2748  0.2259 -0.1748
 1022W        W 4766   6.689   6.527   1.562 -0.5363  0.0577 -0.2325
 1023W        W 4767   3.712   8.520   0.733  0.1004 -0.2888 -0.0014
 1024W        W 4768   8.420   2.400  10.707 -0.1103  0.1517 -0.2941
 1025W        W 4769   3.501   3.932   4.204  0.3747  0.0372  0.1772
 1026W        W 4770   0.282   0.101   1.375 -0.0026  0.1866  0.1658
 1027W        W 4771   2.207   8.226   0.560  0.0886  0.0163  0.1414
 1028W        W 4772   9.047   3.107  11.209  0.0517  0.1740 -0.0763
 1029W        W 4773   2.766   9.380   9.509 -0.0486 -0.2233  0.1342
 1030W        W 4774   8.189   9.841   1.216 -0.1617  0.0592  0.0488
 1031W        W 4775   8.050   3.472   0.391 -0.1668  0.0388 -0.1859
 1032W        W 4776   6.741   8.352  10.338 -0.0131 -0.0540 -0.0515
 1033W        W 4777   2.569   4.041   8.679  0.0849  0.0376 -0.1254
 1034W        W 4778   0.706   7.751   0.811 -0.0839 -0.1640  0.0977
 1035W        W 4779   7.676   4.652   1.477 -0.2613 -0.1289 -0.0628
 1036W        W 4780   4.563   3.577  10.118 -0.0339 -0.0418  0.0989
 1037W        W 4781   6.743   6.266   2.171 -0.0548 -0.1725 -0.2946
 1038W        W 4782   4.284   9.621   3.355 -0.1659 -0.3230  0.2785
 1039W        W 4783   7.573   1.666  11.269 -0.1892 -0.0254 -0.0757
 1040W        W 4784   4.783   0.095   4.176  0.1618 -0.0662  0.2919
 1041W        W 4785   9.724   5.781   1.488  0.1740 -0.1459  0.0414
 1042W        W 4786   3.447   8.960   1.360 -0.0979  0.0710 -0.1123
 1043W        W 4787   4.829   6.738  12.426  0.0582 -0.1264 -0.0998
 1044W        W 4788   0.423   7.365   3.081  0.0763  0.0223 -0.2392
 1045W        W 4789   1.423   4.281   9.688  0.1290  0.0061  0.1978
 1046W        W 4790   8.058   0.141   9.336  0.0064 -0.2252  0.3968
 1047W        W 4791   6.776   3.864  10.451  0.1968 -0.0124 -0.1574
 1048W        W 4792   0.370   9.665  10.636  0.3360 -0.1656  0.0774
 1049W        W 4793   4.655   7.454   3.210  0.1082  0.0869 -0.1569
 1050W        W 4794   4.431   1.928  11.460 -0.2451  0.1556  0.0487
 1051W        W 4795   0.371   8.924  11.015 -0.0557  0.3851  0.0175
 1052W        W 4796   6.824   0.266   0.596  0.1336 -0.0598 -0.0535
 1053W        W 4797   2.875   9.570   0.604 -0.3452  0.4053 -0.0234
 1054W        W 4798   8.120   4.096   1.127 -0.3054 -0.0892  0.2283
 1055W        W 4799   5.374   6.294   1.403 -0.1493  0.0940  0.0950
 1056W        W 4800   9.750   3.240  12.731 -0.1092  0.0797 -0.1187
 1057W        W 4801   6.353   1.532   2.665  0.3312 -0.3982 -0.2538
 1058W        W 4802   5.066   1.551   1.903 -0.1063 -0.1627 -0.0942
 1059W        W 4803   8.825   1.946  10.329 -0.0737  0.2264 -0.4222
 1060W        W 4804   1.606   4.883   1.458 -0.0167  0.0811  0.0379
 1061W        W 4805   6.622   2.326   0.198  0.0383  0.4678  0.1380
 1062W        W 4806   1.226   0.589   9.667 -0.1468 -0.2923  0.0379
 1063W        W 4807   7.124   5.708   1.902 -0.1428 -0.2202 -0.0477
 1064W        W 4808   4.095   2.510   5.083 -0.0138 -0.2703  0.2166
 1065W        W 4809   7.085   3.840   2.314  0.2402 -0.1902  0.3024
 1066W        W 4810   6.511   8.989  10.934 -0.0067  0.2180 -0.1880
 1067W        W 4811   9.394   1.531  11.189 -0.1476  0.2228  0.3557
 1068W        W 4812   0.181   4.613   2.787 -0.1746 -0.1382 -0.1186
 1069W        W 4813   1.404   1.715   3.705 -0.0406 -0.2005 -0.1524
 1070W        W 4814   3.684   4.453   1.596  0.2217 -0.0292  0.0788
 1071W        W 4815   4.127   3.974   2.974 -0.3932  0.0322  0.1357
 1072W        W 4816   4.871   0.353   3.079 -0.2331  0.1561  0.4952
 1073W        W 4817   4.947   3.084   9.500 -0.2200 -0.0692  0.3029
 1074W        W 4818   3.309   0.907   8.126  0.2061  0.0855  0.2175
 1075W        W 4819   3.096   9.885  11.189  0.1525 -0.1556  0.1466
 1076W        W 4820   9.682   1.776   0.225  0.2917  0.3710  0.2323
 1077W        W 4821   3.663   2.433   4.252  0.0484  0.0863  0.0683
 1078W        W 4822   7.913   6.702   2.016 -0.3230  0.1261  0.2006
 1079W        W 4823   0.873   3.132   9.429  0.2886 -0.0524 -0.0907
 1080W        W 4824   7.219   3.599  11.745  0.1264  0.0547 -0.1584
 1081W        W 4825   4.469   5.487  10.473  0.1121  0.0760  0.0168
 1082W        W 4826   0.597   0.730  12.031  0.5016 -0.0565  0.0464
 1083W        W 4827   1.450   4.227   9.169 -0.0862  0.0321  0.0260
 1084W        W 4828   1.223   3.077   2.319  0.2050  0.0296 -0.0148
 1085W        W 4829   8.979   5.154   1.927 -0.0833 -0.2201 -0.1020
 1086W        W 4830   5.279   8.772   9.175  0.0852  0.2014 -0.0017
 1087W        W 4831   8.049   7.060   2.315 -0.0094 -0.2063  0.0018
 1088W        W 4832   8.910   0.419   9.625 -0.1083 -0.1479  0.2998
 1089W        W 4833   8.534   5.562  10.387 -0.1024 -0.3012  0.1682
 1090W        W 4834   5.090   4.217   9.245  0.1056 -0.0764 -0.1351
 1091W        W 4835   1.873   0.257  11.409 -0.1433 -0.3612  0.0196
 1092W        W 4836   2.837   6.028  10.011  0.0862 -0.1333  0.0615
 1093W        W 4837   1.262   0.961   1.839  0.1488  0.1296  0.1101
 1094W        W 4838   6.920   0.878   4.608 -0.1467  0.1569 -0.0122
 1095W        W 4839   0.921   6.015  11.189 -0.2781 -0.2487  0.0175
 1096W        W 4840   1.460   0.620   1.498 -0.0404  0.2264  0.0743
 1097W        W 4841   4.867   9.856   9.687  0.0502 -0.3240  0.1225
 1098W        W 4842   4.765   1.936   8.235  0.3986 -0.4087 -0.0306
 1099W        W 4843   3.575   8.540  10.494 -0.0583  0.1136 -0.2180
 1100W        W 4844   7.747   4.071   1.747 -0.0665 -0.1644 -0.3124
 1101W        W 4845   3.025   8.896   1.167 -0.0883  0.0789 -0.1445
 1102W        W 4846   7.571   1.107  10.754  0.0349  0.1128 -0.3987
 1103W        W 4847   3.983   5.490  12.224  0.0424 -0.1011  0.1194
 1104W        W 4848   5.951   3.931  10.955  0.2398  0.0583 -0.1583
 1105W        W 4849   6.077   7.717  10.246 -0.0252  0.0406  0.1102
 1106W        W 4850   6.364   5.131   4.013  0.1589  0.0676 -0.1941
 1107W        W 4851   4.231   1.251  11.548 -0.2439  0.0286 -0.0700
 1108W        W 4852   2.682   7.076   3.484  0.0408  0.2747 -0.0869
 1109W        W 4853   9.124   5.936   2.706 -0.0800  0.3382  0.0831
 1110W        W 4854   5.207   2.987   9.899  0.0516 -0.1291 -0.3417
 1111W        W 4855   1.189   2.790   9.621 -0.0514  0.2420  0.2145
 1112W        W 4856   0.263   8.544  10.346 -0.0776  0.0833 -0.1941
 1113W        W 4857   8.286   7.739   2.870 -0.1133 -0.0712 -0.2159
 1114W        W 4858   9.443   9.403  10.093 -0.1520 -0.2643  0.1904
 1115W        W 4859   5.347   9.406  11.500  0.0635 -0.4146  0.2347
 1116W        W 4860   6.375   3.619  10.026  0.4076  0.2646  0.0973
 1117W        W 4861   4.186   6.365   4.469 -0.2305  0.0173 -0.3232
 1118W        W 4862   7.298   7.164   0.826 -0.2598 -0.0144  0.3348
 1119W        W 4863   4.656   7.371   9.768  0.0470  0.0120 -0.1612
 1120W        W 4864   4.210   5.315   3.456  0.0569 -0.1070 -0.0098
 1121W        W 4865   6.637   9.459   4.396  0.0218 -0.0421  0.1738
 1122W        W 4866   3.280   7.270  11.722 -0.0340  0.1157 -0.2734
 1123W        W 4867   5.873   5.707   4.551 -0.0916  0.1199 -0.5411
 1124W        W 4868   7.715   9.036  11.664  0.0621 -0.2156  0.2002
 1125W        W 4869   0.448   1.829   2.753  0.2172  0.0739  0.0802
 1126W        W 4870   7.054   9.061   4.523 -0.0064 -0.0537 -0.0422
 1127W        W 4871   2.896   2.696   1.719  0.0050  0.4089  0.1143
 1128W        W 4872   8.712   1.765  11.427  0.0819  0.2666  0.1788
 1129W        W 4873   5.213   1.297   1.093 -0.1669 -0.0206 -0.0542
 1130W        W 4874   4.675   4.489   9.295 -0.0724 -0.0276 -0.2871
 1131W        W 4875   0.146   8.017   2.113 -0.0525  0.2098  0.1333
 1132W        W 4876   6.513   4.351   9.267  0.0113 -0.0210 -0.1221
 1133W        W 4877   4.721   4.133   1.280  0.3584 -0.0636  0.1019
 1134W        W 4878   0.651   5.903   2.185  0.2547 -0.2162 -0.0340
 1135W        W 4879   9.752   6.855   2.019 -0.0894  0.1624 -0.0521
 1136W        W 4880   8.172   9.385   1.385  0.1827 -0.4273  0.4978
 1137W        W 4881   4.094   8.170   1.597 -0.0855 -0.0058 -0.3382
 1138W        W 4882   4.818   3.725   1.485  0.1934  0.1541  0.2470
 1139W        W 4883   8.802   6.717  11.545  0.1350  0.3938  0.2010
 1140W        W 4884   3.440   1.386   1.991 -0.2016  0.0744  0.0980
 1141W        W 4885   3.863   0.188   4.145  0.0996  0.1184  0.0406
 1142W        W 4886   8.769   1.511  10.586  0.0110 -0.0629  0.1677
 1143W        W 4887   1.887   9.658   0.249 -0.2538  0.2033  0.1380
 1144W        W 4888   6.512   5.289  10.599 -0.0021  0.1805 -0.2868
 1145W        W 4889   3.278   8.228   4.029  0.1556 -0.0844  0.3355
 1146W        W 4890   9.200   3.269   0.947 -0.0827 -0.1097 -0.0484
 1147W        W 4891   4.724   8.782  11.582  0.2779  0.2179 -0.2657
 1148W        W 4892   0.894   3.711   7.963 -0.1949 -0.0632  0.0517
 1149W        W 4893   8.321   7.613   0.512 -0.2881 -0.0090 -0.1559
 1150W        W 4894   7.983   4.011   9.939 -0.1243 -0.1051 -0.0125
 1151W        W 4895   1.122   4.212   2.715 -0.4711  0.0052  0.1214
 1152W        W 4896   9.430   4.279   2.293  0.3308  0.2699 -0.3111
 1153W        W 4897   6.827   7.932  12.181  0.0315  0.0702 -0.0994
 1154W        W 4898   6.634   3.677   2.908 -0.1212  0.0268  0.1026
 1155W        W 4899   7.649   3.640   9.652  0.0956  0.0663  0.0513
 1156W        W 4900   3.815   7.276   3.549 -0.0914 -0.0612 -0.1265
 1157W        W 4901   8.752   2.800  10.924 -0.0768 -0.0161 -0.2219
 1158W        W 4902   5.428   5.823   1.619  0.1788 -0.1758  0.1706
 1159W        W 4903   5.031   0.409   2.506 -0.0428 -0.1805 -0.3145
 1160W        W 4904   6.260   8.875   9.241 -0.1399 -0.0494  0.0656
 1161W        W 4905   0.088   7.003   0.439 -0.0497 -0.1434 -0.1327
 1162W        W 4906   9.651   8.959   3.170  0.0818 -0.1212 -0.2488
 1163W        W 4907   3.231   5.555   9.468 -0.1173  0.0112  0.1230
 1164W        W 4908   1.414   8.602   0.301 -0.4623  0.1294  0.0565
 1165W        W 4909   5.831   7.384   1.295 -0.2687  0.1048  0.0359
 1166W        W 4910   3.559   0.154  11.130 -0.1552  0.1249  0.0520
 1167W        W 4911   5.172   0.375   7.631  0.1139 -0.1487 -0.0970
 1168W        W 4912   8.616   4.298   3.868 -0.0545  0.0173  0.1200
 1169W        W 4913   3.388   4.354   9.643  0.0419 -0.2303 -0.0698
 1170W        W 4914   2.704   9.401  11.203  0.2179 -0.2323  0.1081
 1171W        W 4915   3.573   6.471   0.535 -0.0538 -0.5559  0.1046
 1172W        W 4916   6.814   3.588   8.321  0.2344 -0.0867  0.0650
 1173W        W 4917   6.135   9.366   3.226  0.1696 -0.1176 -0.2627
 1174W        W 4918   5.084   7.106  10.545 -0.0345  0.1522 -0.1593
 1175W        W 4919   6.304   6.834   0.707 -0.0405  0.1839 -0.1412
 1176W        W 4920   6.665   9.424   0.348  0.0836  0.0268 -0.0669
 1177W        W 4921   5.233   5.097  12.012 -0.0470  0.0347 -0.1170
 1178W        W 4922   0.714   7.452  10.664 -0.0361  0.1638  0.0751
 1179W        W 4923   8.816   0.738   1.915  0.0129  0.0542  0.0057
 1180W        W 4924   5.292   2.400   3.729  0.1033 -0.2971  0.0437
 1181W        W 4925   9.539   5.763   9.723  0.1664 -0.2176  0.2094
 1182W        W 4926   5.576   9.478   3.218 -0.1051 -0.0744 -0.0578
 1183W        W 4927   5.333   7.672   2.407  0.0799 -0.4122 -0.1701
 1184W        W 4928   8.201   6.426  12.498  0.0534 -0.2900  0.2048
 1185W        W 4929   2.617   8.619  12.152 -0.1958  0.2918 -0.2476
 1186W        W 4930   5.559   5.132  10.416 -0.2127  0.1454  0.0713
 1187W        W 4931   8.462   9.910  10.664 -0.1389  0.1092  0.0405
 1188W        W 4932   4.465   8.233   8.865  0.1217  0.1404 -0.2050
 1189W        W 4933   9.171   9.283   0.192 -0.4151  0.2155  0.0883
 1190W        W 4934   2.525   3.710   3.863  0.0212 -0.0200  0.1425
 1191W        W 4935   0.998   6.161  11.743 -0.3513 -0.2674  0.5224
 1192W        W 4936   3.356   0.136   1.604 -0.0649 -0.1116 -0.0932
 1193W        W 4937   4.049   9.253   1.630  0.0439  0.2287 -0.0707
 1194W        W 4938   8.402   2.493   9.124 -0.1179  0.0606 -0.4057
 1195W        W 4939   2.371   5.005  11.554  0.0384 -0.0703 -0.0806
 1196W        W 4940   8.182   1.771   2.071  0.3103 -0.2173  0.0680
 1197W        W 4941   0.970   6.290   9.795  0.0058 -0.0990 -0.0439
 1198W        W 4942   6.025   3.865  12.717  0.1486 -0.0049 -0.3516
 1199W        W 4943   2.129   1.349  12.137  0.0895 -0.0190 -0.0709
 1200W        W 4944   4.845   9.497   4.161 -0.0032  0.3231 -0.0017
 1201W        W 4945   0.855   4.805  10.141  0.0552  0.3366  0.0080
 1202W        W 4946   1.534   3.895   2.393 -0.1052  0.1420  0.1870
 1203W        W 4947   0.583   8.131  11.362 -0.1960 -0.3391 -0.0861
 1204W        W 4948   1.667   2.282  12.064 -0.0226  0.0090  0.0160
 1205W        W 4949   1.649   2.744   9.288 -0.3093  0.0354 -0.1217
 1206W        W 4950   9.789   3.563  12.243  0.3382  0.4066  0.2586
 1207W        W 4951   9.144   1.537  12.138 -0.0629 -0.0828  0.1003
 1208W        W 4952   8.623   3.906  11.131 -0.2249  0.0020  0.0616
 1209W        W 4953   9.163   1.076   0.919  0.2791 -0.0953  0.1708
 1210W        W 4954   7.431   7.936   9.266 -0.3546 -0.0374  0.1377
 1211W        W 4955   5.513   7.284   9.720 -0.1023  0.0842 -0.1007
 1212W        W 4956   2.219   7.600  10.082  0.2309  0.1139  0.0186
 1213W        W 4957   5.600   7.766   4.400  0.2799  0.1100  0.0352
 1214W        W 4958   0.554   6.384   1.370 -0.1219 -0.2010  0.2083
 1215W        W 4959   4.609   7.580   0.373  0.1135 -0.0869 -0.2343
 1216W        W 4960   9.530   4.934  11.861 -0.1698  0.3189 -0.1467
 1217W        W 4961   4.047   6.686   2.723 -0.2380  0.2313  0.2418
 1218W        W 4962   2.467   2.947   3.429  0.1190  0.2047 -0.2029
 1219W        W 4963   2.135   0.633   1.018 -0.4197  0.0182 -0.0562
 1220W        W 4964   6.098   7.077   1.553 -0.2067  0.3974 -0.4773
 1221W        W 4965   8.162   4.860   1.684 -0.0710  0.1952  0.2080
 1222W        W 4966   4.781   7.258  11.500 -0.0444 -0.2038 -0.4496
 1223W        W 4967   0.250   2.667  10.202  0.0450  0.2195 -0.3648
 1224W        W 4968   0.273   0.280   2.264 -0.3401  0.0046 -0.0622
 1225W        W 4969   9.614   9.728  12.239  0.1138  0.2543 -0.0815
 1226W        W 4970   6.500   7.249  11.838 -0.1906  0.0510 -0.0738
 1227W        W 4971   3.304   7.270   9.272 -0.1165 -0.1347 -0.1366
 1228W        W 4972   0.646   5.509   1.844 -0.0750 -0.4922 -0.2091
 1229W        W 4973   6.979   5.590  12.326 -0.0514  0.0503  0.1865
 1230W        W 4974   8.207   2.047  11.115  0.0244 -0.0162  0.1334
 1231W        W 4975   8.911   4.201   0.463  0.0372 -0.3998  0.0432
 1232W        W 4976   9.616   0.463  11.805  0.1266  0.1307 -0.0012
 1233W        W 4977   3.687   3.613   3.217 -0.0490 -0.0683  0.0906
 1234W        W 4978   5.092   0.319   9.937  0.2531  0.1208  0.0044
 1235W        W 4979   8.249   7.039   1.648 -0.3344  0.1710 -0.2875
 1236W        W 4980   6.927   0.831   2.500  0.2835  0.3237 -0.4182
 1237W        W 4981   1.504   8.784   0.998 -0.2548  0.0068  0.0371
 1238W        W 4982   6.136   6.366   2.677 -0.0568 -0.1337  0.0000
 1239W        W 4983   9.378   7.677   1.971 -0.5817  0.0463 -0.2848
 1240W        W 4984   3.378   5.329  11.350 -0.0793 -0.1834 -0.0950
 1241W        W 4985   4.163   1.190   0.614 -0.0446 -0.0901 -0.0793
 1242W        W 4986   7.722   0.766   2.173  0.2783  0.1473  0.1565
 1243W        W 4987   4.169   2.689   8.757 -0.0695  0.2364 -0.2026
 1244W        W 4988   6.530   0.322  10.734 -0.4300 -0.0796  0.1022
 1245W        W 4989   0.327   8.543  11.695 -0.0873 -0.3527 -0.3226
 1246W        W 4990   1.069   1.373   8.998  0.2193 -0.2453 -0.0333
 1247W        W 4991   0.811   3.786   2.799 -0.0742  0.3302  0.1043
 1248W        W 4992   6.983   2.864  11.129  0.0450 -0.2051  0.0286
 1249W        W 4993   2.422   4.786   2.901  0.1853 -0.2181  0.2036
 1250W        W 4994   7.697   4.092   8.977 -0.2360 -0.0351  0.1461
 1251W        W 4995   5.011   8.429  11.815  0.0495  0.1825 -0.0852
 1252W        W 4996   8.821   2.750   9.356 -0.5849 -0.1550 -0.0056
 1253W        W 4997   2.107   3.828  12.294  0.3242 -0.1877  0.1723
 1254W        W 4998   4.038   2.680   9.357  0.0178 -0.3758  0.1891
 1255W        W 4999   5.194   5.947   0.345 -0.0087 -0.2412  0.3614
 1256W        W 5000   6.633   4.823  10.576  0.0113 -0.0237  0.3112
 1257W        W 5001   2.227   7.891   3.200  0.1728 -0.2396 -0.0554
 1258W        W 5002   5.053   3.272  11.522  0.1079 -0.2276  0.0164
 1259W        W 5003   5.690   3.966   3.783 -0.0347 -0.0085 -0.0720
 1260W        W 5004   7.860   9.108   8.539 -0.2718  0.1777 -0.0638
 1261W        W 5005   5.233   9.471   9.273  0.2064  0.1433 -0.2337
 1262W        W 5006   1.998   7.002  10.862  0.2073  0.0053 -0.0782
 1263W        W 5007   7.494   9.952  10.540  0.2335 -0.2480  0.0929
 1264W        W 5008   9.782   9.935  11.695  0.4311  0.0695  0.1811
 1265W        W 5009   2.108   7.009  11.827 -0.0296 -0.0371  0.0582
 1266W        W 5010   3.245   8.376   0.294 -0.0103  0.0201  0.1600
 1267W        W 5011   1.114   8.064   3.221  0.3969  0.3520  0.0108
 1268W        W 5012   0.823   7.064   2.199 -0.1877  0.0082  0.0866
 1269W        W 5013   9.270   7.233   2.206  0.2655  0.0078  0.0324
 1270W        W 5014   7.479   9.099  12.082  0.4093  0.3335 -0.2500
 1271W        W 5015   6.259   8.957  12.453 -0.1246 -0.0532 -0.1131
 1272W        W 5016   1.601   4.185   4.164 -0.0006  0.2413  0.0666
 1273W        W 5017   8.739   4.228   9.550 -0.0914  0.1763  0.2783
 1274W        W 5018   4.564   6.253  11.553 -0.2321 -0.1707 -0.2534
 1275W        W 5019   7.437   9.146   2.840 -0.2294  0.3126 -0.0627
 1276W        W 5020   2.337   0.479   1.840  0.0385  0.1075  0.0916
 1277W        W 5021   8.034   0.668  10.156 -0.1889  0.0015  0.0329
 1278W        W 5022   6.208   3.443   4.363 -0.1817  0.1023  0.0844
 1279W        W 5023   0.680   9.356   0.138  0.3229 -0.0121  0.0804
 1280W        W 5024   1.284   5.155   1.153 -0.0253  0.2090  0.2075
 1281W        W 5025   6.236   6.218  12.659  0.1692  0.0521  0.0777
 1282W        W 5026   6.464   3.472   3.876 -0.3460 -0.2485  0.1184
 1283W        W 5027   5.996   4.865   4.967 -0.0291 -0.1369 -0.2544
 1284W        W 5028   5.114   3.232   1.686 -0.1503 -0.1084  0.0544
 1285W        W 5029   3.494   4.590   3.074 -0.2220  0.0905  0.1327
 1286W        W 5030   5.104   3.389   0.657  0.0377  0.1651  0.0134
 1287W        W 5031   1.334   4.660  11.243  0.0325  0.1518  0.0666
 1288W        W 5032   2.167   5.109   2.474  0.0974  0.4447  0.2442
 1289W        W 5033   6.651   5.372   4.399  0.4517  0.1941 -0.1393
 1290W        W 5034   4.642   2.512   9.964 -0.2772  0.0883 -0.0571
 1291W        W 5035   4.031   9.074   9.974 -0.2939  0.3540 -0.0621
 1292W        W 5036   9.829   6.244   0.504 -0.0949  0.0829 -0.1792
 1293W        W 5037   9.556   8.902   4.215  0.1026  0.0732  0.2459
 1294W        W 5038   3.369   0.404   2.032 -0.1416  0.3666  0.6167
 1295W        W 5039   0.430   6.161   0.297  0.3207  0.2310 -0.2172
 1296W        W 5040   6.140   8.469   1.729  0.1212 -0.0957 -0.1461
 1297W        W 5041   6.866   8.094   9.901  0.0597  0.1031  0.0047
 1298W        W 5042   2.005   4.167   2.422  0.1979  0.1189  0.1167
 1299W        W 5043   2.140   1.571   2.790  0.1215 -0.2658 -0.2066
 1300W        W 5044   2.049   7.215   9.790  0.0490 -0.0500 -0.0385
 1301W        W 5045   3.231   2.466  11.224 -0.0203  0.0180  0.1907
 1302W        W 5046   0.459   4.144   0.002  0.0260 -0.1452 -0.2174
 1303W        W 5047   9.134   2.062   3.193 -0.4990 -0.0842 -0.1233
 1304W        W 5048   8.564   1.747   0.061  0.1188  0.2155  0.0511
 1305W        W 5049   2.776   0.778   3.035 -0.1528 -0.1938 -0.0360
 1306W        W 5050   0.023   4.933  11.099 -0.0503 -0.0012 -0.0403
 1307W        W 5051   4.234   3.320   3.329 -0.1869  0.1292 -0.0076
 1308W        W 5052   6.769   6.184  10.867 -0.2593  0.1141 -0.2676
 1309W        W 5053   4.696   8.711  12.149 -0.1312 -0.1624 -0.5243
 1310W        W 5054   7.717   9.870   3.261  0.6215  0.0018 -0.3311
 1311W        W 5055   8.137   7.831  12.501 -0.0371  0.4134  0.0016
 1312W        W 5056   5.884   6.089  11.428 -0.3815 -0.0184  0.1397
 1313W        W 5057   5.053   2.307   2.403 -0.0618  0.0094  0.1975
 1314W        W 5058   4.416   5.861  11.208 -0.2297 -0.1638 -0.0009
 1315W        W 5059   6.386   0.268   1.894 -0.1660 -0.0640 -0.0927
 1316W        W 5060   6.014   5.920   3.916 -0.0617 -0.1145  0.0596
 1317W        W 5061   7.670   4.030  10.835 -0.2021 -0.0109 -0.1048
 1318W        W 5062   6.349   8.699  10.583  0.0640  0.0546  0.1440
 1319W        W 5063   9.585   9.104  11.701  0.0837 -0.0723  0.1915
 1320W        W 5064   9.496   5.221   0.425  0.0484 -0.1493  0.0025
 1321W        W 5065   1.484   0.570  12.340  0.0171 -0.1140  0.2622
 1322W        W 5066   1.170   1.895   0.598 -0.2884  0.1690  0.0657
 1323W        W 5067   4.097   6.430  11.659  0.0895 -0.4334  0.1781
 1324W        W 5068   1.316   0.146  11.418 -0.1182  0.1134 -0.3323
 1325W        W 5069   5.514   5.437  11.760  0.1345 -0.2470 -0.4112
 1326W        W 5070   4.368   3.869  10.624 -0.2563 -0.0503  0.1138
 1327W        W 5071   4.103   0.510   3.451 -0.2274  0.1652 -0.1763
 1328W        W 5072   1.481   1.503   8.231 -0.1071  0.0152  0.0571
 1329W        W 5073   9.072   3.944   9.288  0.2634  0.0004 -0.0358
 1330W        W 5074   2.985   2.346  12.146 -0.0860 -0.0172  0.0632
 1331W        W 5075   3.277   7.792   1.809  0.0228 -0.0399  0.2374
 1332W        W 5076   6.499   1.815   0.949  0.1168 -0.2621 -0.0848
 1333W        W 5077   6.101   0.074   2.313 -0.3367  0.1158  0.1760
 1334W        W 5078   9.605   3.242   1.361  0.1089  0.2778  0.1052
 1335W        W 5079   6.538   3.866   4.201 -0.4971  0.1053  0.0762
 1336W        W 5080   7.115   9.662   9.109  0.0039 -0.2621  0.1431
 1337W        W 5081   2.188   9.443   1.951  0.0647 -0.2035  0.0788
 1338W        W 5082   2.632   7.213   1.144  0.2278  0.0948 -0.0432
 1339W        W 5083   5.743   1.362   0.396  0.1937  0.3117  0.1502
 1340W        W 5084   6.112   8.574  11.699 -0.0264  0.0667 -0.0304
 1341W        W 5085   6.191   5.519   4.225  0.5326  0.0893  0.0368
 1342W        W 5086   3.232   4.189  11.415  0.2436  0.0607 -0.2028
 1343W        W 5087   9.580   1.202   9.510  0.0071 -0.0078 -0.0924
 1344W        W 5088   6.689   9.884   0.192 -0.1316 -0.1654 -0.1126
 1345W        W 5089   4.690   4.970   9.108 -0.2351  0.1687  0.2570
 1346W        W 5090   4.458   3.004   9.327  0.3018  0.0007 -0.0105
 1347W        W 5091   5.096   3.723   9.466  0.0168 -0.0818 -0.0101
 1348W        W 5092   5.216   8.090   9.981  0.1263 -0.3316 -0.1243
 1349W        W 5093   6.088   4.886   1.374  0.1867 -0.4332  0.1705
 1350W        W 5094   5.240   7.192  11.674 -0.2101  0.1173 -0.2634
 1351W        W 5095   0.063   8.612   9.800 -0.0633  0.4773  0.2554
 1352W        W 5096   5.671   4.320  10.753 -0.1155 -0.1231  0.1937
 1353W        W 5097   8.937   1.119  10.286  0.1086 -0.1110 -0.1745
 1354W        W 5098   7.038   8.183   1.376 -0.0128 -0.0261 -0.2160
 1355W        W 5099   9.204   2.735   4.070 -0.0770 -0.0045 -0.2245
 1356W        W 5100   2.812   5.790   9.240 -0.1094  0.3157  0.3255
 1357W        W 5101   0.489   3.898   3.932  0.0943 -0.2032 -0.0823
 1358W        W 5102   5.333   2.585   3.266 -0.3062 -0.2015  0.0685
 1359W        W 5103   5.087   4.995   1.057  0.1011 -0.0646 -0.0187
 1360W        W 5104   3.919   0.434   0.694 -0.1444  0.2488  0.1884
 1361W        W 5105   9.004   3.470   9.269  0.1942 -0.0825 -0.2757
 1362W        W 5106   8.437   0.861  10.425 -0.1166 -0.2396 -0.2169
 1363W        W 5107   2.953   4.916   0.413 -0.0260  0.0573  0.1348
 1364W        W 5108   5.590   4.093   4.258 -0.2258 -0.4081  0.1075
 1365W        W 5109   3.986   1.509   4.476 -0.0842 -0.2586 -0.1144
 1366W        W 5110   2.986   9.155   0.014  0.0144  0.0086  0.0804
 1367W        W 5111   7.781   9.417   1.743  0.2788  0.0525  0.4904
 1368W        W 5112   0.042   3.717  12.739  0.0676 -0.2022 -0.1588
 1369W        W 5113   5.343   0.983   3.268  0.0395 -0.1755  0.0480
 1370W        W 5114   0.620   0.173   3.210  0.0025 -0.0351  0.2293
 1371W        W 5115   3.755   5.413  11.808  0.0481 -0.1351  0.1560
 1372W        W 5116   4.222   7.923   0.420 -0.0440  0.1882  0.1307
 1373W        W 5117   7.693   2.121  10.204 -0.1937  0.2376  0.1309
 1374W        W 5118   4.670   3.081  10.030 -0.4245 -0.2747 -0.0887
 1375W        W 5119   2.971   5.763   3.281  0.0300 -0.0723  0.2844
 1376W        W 5120   4.111   9.500   9.331 -0.1750  0.2777 -0.0322
 1377W        W 5121   1.779   1.888   2.467  0.2673 -0.0999 -0.0080
 1378W        W 5122   8.327   5.150   0.246  0.0383  0.4536  0.1520
 1379W        W 5123   8.271   7.724   0.981 -0.2042  0.0945 -0.0659
 1380W        W 5124   3.276   8.657   2.817 -0.1290  0.0336  0.0224
 1381W        W 5125   5.658   0.340   2.290 -0.2641 -0.0658  0.2035
 1382W        W 5126   1.759   3.458   9.840 -0.1207  0.1710 -0.2475
 1383W        W 5127   5.948   4.446   4.446 -0.1213  0.0378 -0.1706
 1384W        W 5128   5.401   0.427   8.064 -0.4485  0.0283 -0.1742
 1385W        W 5129   5.029   7.772   0.667 -0.0557  0.1332 -0.0827
 1386W        W 5130   6.676   5.703  10.392 -0.3578  0.0595 -0.0597
 1387W        W 5131   6.869   4.898   4.109  0.2023  0.1319 -0.1544
 1388W        W 5132   2.683   4.947   3.999 -0.2877 -0.0654  0.1481
 1389W        W 5133   0.489   3.354   3.886  0.1304  0.1680 -0.3442
 1390W        W 5134   6.718   8.960   8.941 -0.0390 -0.2172  0.2422
 1391W        W 5135   9.908   8.619   2.791  0.2488 -0.0440  0.1943
 1392W        W 5136   4.146   3.002   8.266 -0.2177 -0.1975  0.2022
 1393W        W 5137   1.336   6.065   9.132  0.0307 -0.0223  0.2183
 1394W        W 5138   4.319   9.495   0.812 -0.3572  0.0891 -0.4516
 1395W        W 5139   2.779   3.023   2.609 -0.0715  0.0026  0.1573
 1396W        W 5140   3.568   3.773   3.705  0.2748  0.1175 -0.1653
 1397W        W 5141   1.931   5.522   4.170  0.3128  0.0260  0.0981
 1398W        W 5142   0.714   2.876   8.926  0.0296  0.1722 -0.0981
 1399W        W 5143   9.812   3.322  10.909 -0.0412 -0.1618 -0.1989
 1400W        W 5144   3.569   9.116   2.776  0.0192  0.1546 -0.1130
 1401W        W 5145   7.798   8.584   4.348  0.1861 -0.0235 -0.0237
 1402W        W 5146   5.546   2.556   9.790 -0.1912  0.0212 -0.4218
 1403W        W 5147   3.537   2.984   1.265  0.1818  0.0291  0.1323
 1404W        W 5148   3.152   0.887   4.213 -0.1080  0.2109  0.4370
 1405W        W 5149   5.764   5.061   3.766  0.2858 -0.1240 -0.0224
 1406W        W 5150   4.394   7.863   2.407 -0.3233  0.0144 -0.1111
 1407W        W 5151   2.591   7.187   3.970  0.3312  0.0930 -0.0158
 1408W        W 5152   3.925   7.403  11.892 -0.2202  0.1321  0.0846
 1409W        W 5153   5.411   7.455  10.308 -0.0182  0.3646  0.0286
 1410W        W 5154   7.099   9.242   8.854  0.1224  0.0678  0.0765
 1411W        W 5155   4.104   0.052   3.692  0.3351  0.1813  0.1076
 1412W        W 5156   6.927   0.437   9.702  0.1023 -0.0158 -0.0471
 1413W        W 5157   4.853   7.702   2.234  0.0891  0.0878  0.1602
 1414W        W 5158   0.836   4.070   0.283  0.0344 -0.0033 -0.0705
 1415W        W 5159   9.667   6.800   0.198  0.0910 -0.3137 -0.1356
 1416W        W 5160   5.133   9.304   3.247  0.0495 -0.3413 -0.0080
 1417W        W 5161   1.549   4.983   4.572 -0.1532 -0.1845  0.1390
 1418W        W 5162   1.677   8.035  10.065  0.0267  0.1036  0.1109
 1419W        W 5163   0.915   0.314  11.172 -0.1005  0.2681 -0.1720
 1420W        W 5164   5.066   2.447   0.997 -0.0570  0.2607 -0.1563
 1421W        W 5165   9.616   6.663   2.853 -0.0119  0.2232  0.0609
 1422W        W 5166   0.472   9.182  10.574  0.1392 -0.3679  0.0694
 1423W        W 5167   1.025   8.125  12.099 -0.0238 -0.0720 -0.0028
 1424W        W 5168   1.686   9.355   9.683 -0.0150 -0.0626 -0.1024
 1425W        W 5169   6.779   6.201   4.318 -0.0308 -0.1883  0.2261
 1426W        W 5170   2.734   1.629   2.652  0.1238  0.2704 -0.2573
 1427W        W 5171   5.117   5.752   2.132 -0.0167  0.0052  0.1236
 1428W        W 5172   1.259   7.731  12.391 -0.1119  0.2718  0.0991
 1429W        W 5173   5.740   2.386   3.437 -0.0996 -0.0679 -0.3907
 1430W        W 5174   9.221   1.927  11.549  0.0227 -0.2947 -0.1684
 1431W        W 5175   8.639   5.587   1.023 -0.1254  0.1952 -0.2842
 1432W        W 5176   2.993   7.909  10.486 -0.1663 -0.2149 -0.1586
 1433W        W 5177   1.311   1.577  12.624 -0.0069  0.1583  0.0290
 1434W        W 5178   4.821   0.130   9.197 -0.2665  0.0270 -0.0071
 1435W        W 5179   6.989   8.179   2.193  0.2205  0.1541  0.2932
 1436W        W 5180   8.558   4.882  12.350 -0.2044  0.2971 -0.4429
 1437W        W 5181   2.285   4.471  11.491  0.0578 -0.1747 -0.2852
 1438W        W 5182   2.091   1.651   2.107  0.1309  0.4818 -0.1752
 1439W        W 5183   5.476   3.390   3.624  0.0849  0.1380  0.0476
 1440W        W 5184   5.845   0.444   0.179  0.3330 -0.0938  0.2578
 1441W        W 5185   6.739   9.904   2.783 -0.2443  0.1807  0.4060
 1442W        W 5186   8.058   9.945   2.214 -0.2705  0.1803  0.1875
 1443W        W 5187   5.809   3.053   9.165 -0.0833 -0.2211 -0.0419
 1444W        W 5188   4.456   8.290  10.621 -0.0516 -0.0673  0.0174
 1445W        W 5189   2.360   7.347  10.923  0.2945 -0.3910 -0.0353
 1446W        W 5190   6.599   6.671  12.677 -0.1690  0.1785 -0.0150
 1447W        W 5191   8.406   5.142   3.953 -0.2624 -0.1191  0.0663
 1448W        W 5192   8.211   5.510   4.523  0.1212  0.2002 -0.1087
 1449W        W 5193   3.148   0.833   0.210  0.2492 -0.3128  0.4103
 1450W        W 5194   4.892   0.266   1.582  0.3835 -0.1505 -0.0871
 1451W        W 5195   3.247   2.330   7.646 -0.1716  0.0814  0.1678
 1452W        W 5196   4.304   7.172   3.601  0.1294 -0.0835  0.1390
 1453W        W 5197   7.022   1.326   9.120  0.2927 -0.0139 -0.1951
 1454W        W 5198   4.009   4.884   8.332  0.0787  0.3202  0.0185
 1455W        W 5199   5.851   9.722  12.206 -0.0693  0.1380 -0.1841
 1456W        W 5200   7.251   2.500   0.993  0.0319 -0.2804  0.3782
 1457W        W 5201   4.188   6.657  10.443 -0.0628  0.2705  0.0669
 1458W        W 5202   9.679   7.656   2.765  0.2486  0.0079  0.1407
 1459W        W 5203   8.258   7.489  12.094 -0.1204 -0.2663  0.0109
 1460W        W 5204   2.400   8.575   0.175  0.1428 -0.0510 -0.3260
 1461W        W 5205   2.267   2.021   2.490 -0.0751 -0.0224  0.2441
 1462W        W 5206   5.314   1.389   7.625 -0.0583 -0.2505  0.1329
 1463W        W 5207   7.346   0.270   3.303  0.1184 -0.1836  0.0663
 1464W        W 5208   3.655   8.546   4.026 -0.1526 -0.5501  0.0831
 1465W        W 5209   3.241   5.242   8.594  0.4331  0.0692 -0.2678
 1466W        W 5210   7.312   9.125   3.739  0.0149  0.1572  0.0010
 1467W        W 5211   0.407   4.582  12.556  0.0586  0.2849  0.1113
 1468W        W 5212   9.596   1.337   1.136  0.1588 -0.3251  0.3237
 1469W        W 5213   8.531   4.671   9.328  0.0448 -0.0970 -0.1426
 1470W        W 5214   0.170   1.124   0.949 -0.3724 -0.5893 -0.1503
 1471W        W 5215   5.467   6.694   5.288  0.1873  0.1640  0.2057
 1472W        W 5216   9.348   9.824   1.027  0.3268  0.0976 -0.0788
 1473W        W 5217   2.989   7.321  10.256 -0.0280  0.2458 -0.2706
 1474W        W 5218   5.954   5.733   0.882 -0.2596  0.0374  0.2476
 1475W        W 5219   1.993   9.855   9.643 -0.3529  0.1712 -0.2340
 1476W        W 5220   0.555   4.861   1.648  0.1402  0.1924  0.1987
 1477W        W 5221   9.086   6.440   2.753 -0.0634 -0.3219 -0.1173
 1478W        W 5222   7.908   8.623   4.848 -0.0922 -0.1984  0.0335
 1479W        W 5223   3.099   0.816  10.111  0.0503  0.3729 -0.0004
 1480W        W 5224   4.372   0.935   9.030  0.0615 -0.1145  0.2347
 1481W        W 5225   8.169   1.145   9.378  0.0404  0.2463 -0.1044
 1482W        W 5226   8.439   9.825   3.680  0.3856  0.2018  0.1745
 1483W        W 5227   9.130   1.254   3.732  0.1301 -0.0701 -0.1339
 1484W        W 5228   8.476   2.339   0.224 -0.0338 -0.0890  0.1188
 1485W        W 5229   1.786   1.102   3.954 -0.0373  0.0800  0.2381
 1486W        W 5230   2.899   7.391  12.450 -0.4321 -0.1423  0.0274
 1487W        W 5231   5.558   3.421   5.070  0.1688 -0.1151  0.2158
 1488W        W 5232   8.579   5.707  12.273 -0.2859 -0.1873 -0.0087
 1489W        W 5233   0.387   7.527   2.217  0.4791 -0.0690 -0.1085
 1490W        W 5234   7.131   7.708   1.987  0.2049 -0.2819  0.1887
 1491W        W 5235   9.818   8.111   3.683 -0.0064  0.2016  0.2200
 1492W        W 5236   0.989   0.672  10.585 -0.1800 -0.0481  0.2856
 1493W        W 5237   5.261   5.674   9.923  0.1158  0.0841 -0.4724
 1494W        W 5238   0.726   3.682   8.931 -0.2758  0.4003  0.0872
 1495W        W 5239   0.726   8.251   0.557 -0.0426  0.5715  0.3219
 1496W        W 5240   0.564   5.959   1.040 -0.2236 -0.0314 -0.2396
 1497W        W 5241   6.891   8.187   0.382  0.0326  0.1600 -0.0818
 1498W        W 5242   0.441   6.871   1.405  0.1141 -0.1276  0.0786
 1499W        W 5243   8.808   7.713   2.827  0.0272 -0.2552 -0.1093
 1500W        W 5244   7.195   0.781  10.885  0.1227  0.1215  0.0433
 1501W        W 5245   0.404   8.446   1.298  0.1174  0.0043  0.1203
 1502W        W 5246   9.213   8.152   9.376  0.0906 -0.0253 -0.1156
 1503W        W 5247   9.413   7.369  12.220 -0.1008 -0.1836  0.3762
 1504W        W 5248   4.764   4.220  11.673  0.1246  0.0002  0.0549
 1505W        W 5249   1.266   6.094   1.593  0.1883  0.0513 -0.1881
 1506W        W 5250   1.488   4.602  12.225 -0.1807  0.0928  0.0142
 1507W        W 5251   6.303   4.509  11.542  0.0489  0.1068  0.0176
 1508W        W 5252   7.186   1.329   1.410 -0.2928 -0.1584  0.0521
 1509W        W 5253   7.325   4.745   3.929  0.0088  0.0427 -0.0410
 1510W        W 5254   8.801   0.934   9.762  0.0069  0.2298 -0.2366
 1511W        W 5255   7.881   4.809  11.154  0.0810  0.2547  0.0362
 1512W        W 5256   3.349   9.805  12.406 -0.2493 -0.2676  0.1742
 1513W        W 5257   4.197   7.460  12.335  0.2473 -0.2098  0.3246
 1514W        W 5258   6.438   1.458   1.769 -0.1644  0.0402 -0.0301
 1515W        W 5259   3.158   5.374   1.482 -0.0320  0.1224 -0.3528
 1516W        W 5260   0.902   4.343   9.852  0.1164 -0.1815  0.2035
 1517W        W 5261   3.568   9.050   0.814 -0.0301 -0.0586  0.3066
 1518W        W 5262   6.096   4.849   2.581 -0.1451 -0.3615 -0.1894
 1519W        W 5263   8.442   0.677   9.364 -0.0154 -0.0298  0.2133
 1520W        W 5264   5.835   1.046   2.156 -0.0273 -0.3109 -0.0716
 1521W        W 5265   1.122   5.259   3.371 -0.2846  0.1827  0.1128
 1522W        W 5266   4.916   3.703  10.467 -0.0196 -0.3462  0.0715
 1523W        W 5267   7.806   4.216   0.559  0.2833  0.2614  0.2483
 1524W        W 5268   2.285   1.048   4.215 -0.0320  0.3203  0.0177
 1525W        W 5269   2.281   9.238  12.761  0.0886 -0.2572  0.3337
 1526W        W 5270   5.707   2.357  11.220  0.1366 -0.0142  0.2992
 1527W        W 5271   6.116   3.064   4.032 -0.0428  0.0631  0.0027
 1528W        W 5272   6.633   1.284   2.251  0.0636 -0.1517 -0.1599
 1529W        W 5273   6.616   9.915   8.406 -0.0753  0.1695 -0.0362
 1530W        W 5274   5.548   8.540   0.629  0.0596  0.1034  0.1214
 1531W        W 5275   9.463   2.272   8.777 -0.1494  0.2000 -0.1084
 1532W        W 5276   0.384   4.184  10.629 -0.0656 -0.2431  0.0460
 1533W        W 5277   5.982   3.971   2.745 -0.0662 -0.1023  0.4503
 1534W        W 5278   7.590   9.942   9.382 -0.0433 -0.0815  0.0907
 1535W        W 5279   2.593   7.004   2.968  0.1622 -0.0359 -0.1429
 1536W        W 5280   6.675   5.358   9.858  0.0783  0.1402 -0.2802
 1537W        W 5281   1.881   1.885  10.473  0.3314  0.1365  0.1545
 1538W        W 5282   3.439   3.843  11.016 -0.3335  0.1196  0.1985
 1539W        W 5283   8.671   1.316   2.900  0.0307 -0.0885 -0.0767
 1540W        W 5284   4.688   2.061  12.459  0.1567  0.0576 -0.3059
 1541W        W 5285   1.883   0.213   0.509  0.2999 -0.1162  0.0434
 1542W        W 5286   9.347   0.095  11.968  0.0875 -0.2526  0.1361
 1543W        W 5287   8.907   8.978   0.760 -0.0203 -0.1437  0.2119
 1544W        W 5288   2.252   8.444   1.650  0.0669  0.2570  0.3536
 1545W        W 5289   9.368   9.373   0.668 -0.2435  0.0510  0.2985
 1546W        W 5290   4.756   3.636   1.953  0.0585  0.0354 -0.1439
 1547W        W 5291   8.631   1.663   8.450  0.2013 -0.0870  0.1477
 1548W        W 5292   9.465   5.561   1.907  0.1050 -0.2774  0.4507
 1549W        W 5293   0.484   0.528  11.410  0.2566 -0.0227 -0.0441
 1550W        W 5294   5.783   5.479   1.482  0.1364  0.0831  0.3639
 1551W        W 5295   2.960   2.301   0.707 -0.1265  0.1704  0.1727
 1552W        W 5296   9.618   0.520  12.648  0.1885 -0.2329  0.0232
 1553W        W 5297   6.390   3.168   4.733 -0.1264 -0.3453 -0.3096
 1554W        W 5298   1.981   7.957   0.951 -0.3270 -0.2533 -0.2278
 1555W        W 5299   1.293   0.649  11.452 -0.0964 -0.1993  0.1275
 1556W        W 5300   8.807   4.420  12.454 -0.2715 -0.0677 -0.0697
 1557W        W 5301   1.848   3.509   0.657  0.1209  0.1731 -0.2839
 1558W        W 5302   7.095   5.079   3.673 -0.1063 -0.1740 -0.1910
 1559W        W 5303   3.442   5.251   9.088  0.1621  0.1616 -0.0603
 1560W        W 5304   0.572   2.570   9.335 -0.4289  0.1508 -0.0827
 1561W        W 5305   3.048   3.667  11.536 -0.2199 -0.0151  0.1314
 1562W        W 5306   0.227   0.588   1.149  0.0924 -0.3658 -0.2863
 1563W        W 5307   4.832   8.400   2.267  0.0753 -0.3352  0.2235
 1564W        W 5308   2.037   6.388   2.379 -0.0233  0.1102  0.1549
 1565W        W 5309   8.342   0.021  12.605  0.2194 -0.1040 -0.0546
 1566W        W 5310   8.424   3.315  10.712  0.0023  0.2241  0.1111
 1567W        W 5311   3.157   5.128  11.799 -0.1591 -0.1599 -0.1165
 1568W        W 5312   1.593   7.190  10.530 -0.3935 -0.0440 -0.2074
 1569W        W 5313   6.221   1.203   9.709 -0.2169 -0.0395  0.2403
 1570W        W 5314   1.590   3.489   8.591  0.1374  0.0233  0.1788
 1571W        W 5315   6.391   1.946   2.364 -0.0357 -0.2518  0.1959
 1572W        W 5316   8.844   7.123   3.895  0.0368  0.2212  0.0006
 1573W        W 5317   0.181   2.560   2.862  0.2251  0.0670 -0.0902
 1574W        W 5318   7.284   5.325   3.319  0.0504  0.3310 -0.2117
 1575W        W 5319   6.162   5.203   2.182  0.1529 -0.1855 -0.0124
 1576W        W 5320   4.485   5.199  11.329 -0.0302  0.0652 -0.4767
 1577W        W 5321   6.601   4.888   9.558 -0.0903 -0.1858 -0.0505
 1578W        W 5322   6.437   3.189  12.130  0.1259  0.0259  0.3498
 1579W        W 5323   5.655   6.162   3.281  0.3467  0.1925  0.0716
 1580W        W 5324   0.639   1.472   8.486 -0.0596 -0.0931 -0.2748
 1581W        W 5325   9.705   3.808   8.505 -0.2145  0.1115  0.1388
 1582W        W 5326   6.786   0.730  11.801  0.2092 -0.3074 -0.0569
 1583W        W 5327   1.463   3.300  12.506 -0.1077 -0.0150  0.1065
 1584W        W 5328   3.601   3.964   2.831 -0.2662  0.2561 -0.2998
 1585W        W 5329   8.461   2.393   8.580  0.0977 -0.0518 -0.1364
 1586W        W 5330   4.642   6.832  10.575  0.2283 -0.0201  0.1529
 1587W        W 5331   3.587   6.035   9.414  0.0865  0.1333 -0.2647
 1588W        W 5332   3.932   0.139  10.838  0.1617  0.0012  0.0695
 1589W        W 5333   7.331   2.291   2.521  0.1121  0.0960 -0.0453
 1590W        W 5334   1.741   8.015   1.935  0.1321 -0.0151  0.2770
 1591W        W 5335   2.098   6.296   3.604 -0.2130 -0.3480  0.0431
 1592W        W 5336   0.419   0.226  12.285 -0.3566 -0.0879 -0.0651
 1593W        W 5337   9.342   5.370   9.963  0.0322  0.3836  0.1233
 1594W        W 5338   9.396   4.620  12.721  0.4270  0.1280 -0.1243
 1595W        W 5339   6.134   4.155   4.026  0.0143  0.2855  0.2247
 1596W        W 5340   6.568   8.377  11.837 -0.0896 -0.3838 -0.1142
 1597W        W 5341   4.879   0.972  10.627  0.2842 -0.3499  0.0970
 1598W        W 5342   3.997   9.596   8.778  0.0006  0.0470  0.2074
 1599W        W 5343   1.351   7.052   3.527  0.1596 -0.1429  0.1644
 1600W        W 5344   0.955   5.497   2.344  0.4000 -0.2372 -0.2488
 1601W        W 5345   1.843   3.805  10.859 -0.0686 -0.1719  0.0056
 1602W        W 5346   7.166   4.935   0.679 -0.2967 -0.1381 -0.0712
 1603W        W 5347   7.520   1.040   1.800 -0.0456 -0.0562 -0.1541
 1604W        W 5348   8.863   1.613   9.986 -0.1023  0.2980  0.4266
 1605W        W 5349   9.203   1.574   0.249  0.1205  0.1207 -0.2354
 1606W        W 5350   0.873   8.390  11.088  0.0188  0.0526  0.0066
 1607W        W 5351   7.513   5.454  11.571  0.1796 -0.1923  0.2172
 1608W        W 5352   6.621   6.741   3.436  0.0334  0.1012  0.2603
 1609W        W 5353   4.621   2.052   0.966 -0.2293  0.1857 -0.2312
 1610W        W 5354   8.739   2.216   2.892 -0.2003  0.2229  0.3190
 1611W        W 5355   2.245   4.045  10.519 -0.1091  0.0587  0.0765
 1612W        W 5356   0.614   0.532   8.868  0.1805 -0.3093  0.4350
 1613W        W 5357   7.368   9.871   4.175  0.1548  0.2278  0.1416
 1614W        W 5358   3.667   2.776   8.447  0.1154 -0.1754 -0.2421
 1615W        W 5359   1.585   7.559   2.068  0.1406 -0.2603  0.0013
 1616W        W 5360   4.431   3.934   8.578 -0.0627 -0.1979  0.0267
 1617W        W 5361   6.358   2.959   2.514 -0.2446  0.0012  0.1346
 1618W        W 5362   0.633   5.458  11.267  0.0589 -0.2673  0.2670
 1619W        W 5363   6.484   1.344  11.225  0.0281  0.2153  0.0009
 1620W        W 5364   6.387   6.538  10.699  0.0558  0.1214  0.2562
 1621W        W 5365   7.397   1.498   0.959 -0.0357  0.0638  0.0721
 1622W        W 5366   7.539   5.625   9.068 -0.0991  0.1100 -0.0305
 1623W        W 5367   6.902   4.109   2.734 -0.0875 -0.0345 -0.0458
 1624W        W 5368   1.289   6.106   0.598  0.3859 -0.3855 -0.4560
 1625W        W 5369   6.658   1.935   8.563  0.0429 -0.0335 -0.1126
 1626W        W 5370   3.417   2.914  11.328 -0.0095  0.1539 -0.1202
 1627W        W 5371   9.708   4.287  10.567 -0.0192 -0.0763 -0.4427
 1628W        W 5372   6.563   2.284   4.164 -0.0307  0.2201  0.1281
 1629W        W 5373   6.622   5.408   3.464 -0.1346 -0.0962  0.0467
 1630W        W 5374   5.630   7.189   3.594 -0.2765  0.0357  0.2072
 1631W        W 5375   1.325   5.091  10.179  0.1680 -0.1605  0.1544
 1632W        W 5376   4.459   8.175   2.894 -0.1925  0.2071  0.1092
 1633W        W 5377   9.899   7.164   0.962 -0.0182  0.0476  0.0441
 1634W        W 5378   1.887   0.059   3.305  0.2462  0.1016  0.0099
 1635W        W 5379   8.564   9.192   1.092  0.2524  0.3579  0.2516
 1636W        W 5380   4.740   4.598   0.934 -0.1122  0.0766  0.0762
 1637W        W 5381   4.758   1.083  12.464 -0.0092  0.2126 -0.1731
 1638W        W 5382   9.867   1.760   9.978  0.0178 -0.1303  0.0912
 1639W        W 5383   6.922   6.209   9.795  0.2171 -0.0082 -0.0115
 1640W        W 5384   6.168   5.358  10.130  0.0868  0.1452 -0.0817
 1641W        W 5385   7.358   0.416   9.655  0.1115 -0.0535 -0.0706
 1642W        W 5386   7.906   6.395  11.592  0.1233  0.1638 -0.1877
 1643W        W 5387   0.827   5.103   2.056 -0.0365 -0.1792 -0.3543
 1644W        W 5388   1.279   3.931  11.743  0.1585 -0.0413  0.1102
 1645W        W 5389   7.084   5.460  10.905  0.0291  0.3293  0.1465
 1646W        W 5390   5.985   5.884  10.115  0.0621 -0.0458  0.2847
 1647W        W 5391   0.760   1.391   3.169  0.0450 -0.0265  0.0851
 1648W        W 5392   7.858   8.213   9.490  0.1552  0.2133  0.0588
 1649W        W 5393   3.806   1.358   1.580 -0.5318 -0.1601 -0.1788
 1650W        W 5394   9.584   4.269   0.846  0.3200  0.4332  0.0541
 1651W        W 5395   7.614   2.585   8.939 -0.0195 -0.1372 -0.3002
 1652W        W 5396   5.446   6.586   0.168 -0.2857 -0.0400  0.0416
 1653W        W 5397   8.020   4.692   9.515  0.0679 -0.0057 -0.0649
 1654W        W 5398   1.176   7.093  10.769  0.1936 -0.1166  0.0801
 1655W        W 5399   4.683   1.109   1.957  0.2198  0.0071 -0.0826
 1656W        W 5400   5.046   2.083  12.047 -0.0184  0.2068  0.1588
 1657W        W 5401   9.037   6.885  12.348 -0.0061 -0.1091  0.0156
 1658W        W 5402   5.680   5.930   9.168  0.1151  0.1892 -0.1607
 1659W        W 5403   1.989   4.680   9.152  0.2080  0.0772 -0.3868
 1660W        W 5404   7.698   4.858  10.326 -0.0338  0.1891 -0.2982
 1661W        W 5405   5.491   0.055   1.916 -0.3226  0.1893  0.0485
 1662W        W 5406   4.186   2.369   1.552 -0.0669  0.2840 -0.2404
 1663W        W 5407   9.644   7.645  10.935 -0.2744 -0.1362 -0.0692
 1664W        W 5408   8.452   2.174  12.554  0.6993 -0.1526 -0.0134
 1665W        W 5409   4.021   8.922  12.383 -0.0374 -0.0067  0.0791
 1666W        W 5410   6.464   0.240   9.724  0.0132 -0.0553 -0.0917
 1667W        W 5411   9.795   0.693  10.109  0.1832 -0.3218 -0.3430
 1668W        W 5412   4.351   0.825   4.173 -0.1724 -0.0796 -0.0089
 1669W        W 5413   4.082   3.299  12.520 -0.4608 -0.1572  0.0600
 1670W        W 5414   8.846   7.529   1.836 -0.2342 -0.3413 -0.0458
 1671W        W 5415   2.578   3.079  10.338 -0.3099  0.4749 -0.1284
 1672W        W 5416   0.498   9.622  12.369 -0.0715  0.2485 -0.1483
 1673W        W 5417   4.767   9.494   3.005 -0.2617  0.0493 -0.0416
 1674W        W 5418   6.673   3.993  11.501 -0.4643  0.2126  0.1547
 1675W        W 5419   9.326   8.842   0.420 -0.2913 -0.2854 -0.1017
 1676W        W 5420   0.444   8.063   9.929 -0.0034  0.3040  0.0551
 1677W        W 5421   7.068   5.471  11.825  0.1753  0.1552 -0.0041
 1678W        W 5422   2.871   7.213  10.823 -0.3796 -0.0189 -0.1326
 1679W        W 5423   0.913   4.581   0.328  0.0862 -0.0957  0.1347
 1680W        W 5424   8.957   0.099  10.903  0.1040  0.2566  0.0399
 1681W        W 5425   2.601   5.424   9.698 -0.1759  0.1921  0.1440
 1682W        W 5426   6.575   1.297   0.605 -0.0707  0.1179  0.3604
 1683W        W 5427   9.311   0.083   2.693 -0.1207  0.2168 -0.0551
 1684W        W 5428   3.235   3.859   3.317  0.0316 -0.0529 -0.0710
 1685W        W 5429   1.719   1.492   9.231 -0.0231  0.1359  0.1251
 1686W        W 5430   7.617   3.314   0.672  0.1017 -0.1580  0.2652
 1687W        W 5431   3.337   6.333   1.271 -0.6492  0.1480 -0.2199
 1688W        W 5432   8.331   1.066  11.924  0.3782  0.2867  0.1887
 1689W        W 5433   4.517   6.910   1.558 -0.2855 -0.2405 -0.0227
 1690W        W 5434   0.452   6.838  10.012 -0.0650  0.0971  0.4415
 1691W        W 5435   5.994   8.895   3.060 -0.0760 -0.1800  0.0055
 1692W        W 5436   8.902   4.453   9.147 -0.1568 -0.1564  0.0405
 1693W        W 5437   2.736   1.983  12.391  0.1741 -0.0116 -0.2340
 1694W        W 5438   7.798   7.835  12.158  0.1503  0.1538  0.1670
 1695W        W 5439   4.065   3.478   4.821  0.5140  0.0754 -0.0207
 1696W        W 5440   3.542   8.609   3.214 -0.0241 -0.1298  0.0404
 1697W        W 5441   9.713   0.906   1.352 -0.0248  0.2104  0.0969
 1698W        W 5442   2.902   9.059   0.709  0.0025  0.0664  0.2825
 1699W        W 5443   4.389   5.749   9.531  0.0923  0.2228 -0.0680
 1700W        W 5444   6.345   6.276   5.257 -0.0404  0.0298 -0.0646
 1701W        W 5445   0.960   8.608  12.496  0.1985 -0.2223  0.1676
 1702W        W 5446   4.280   4.748   9.914  0.3049 -0.1050  0.3138
 1703W        W 5447   0.197   6.269   2.523  0.0339  0.1684 -0.3853
 1704W        W 5448   3.717   1.621   9.748 -0.0514  0.1896  0.0150
 1705W        W 5449   3.958   9.944   9.189 -0.1153 -0.3760 -0.0311
 1706W        W 5450   1.021   0.463   3.585  0.3593  0.0264 -0.0282
 1707W        W 5451   2.543   9.914  11.255 -0.1993 -0.3052  0.2762
 1708W        W 5452   1.232   7.923   1.057 -0.2457  0.1553 -0.1468
 1709W        W 5453   8.245   3.178   1.890  0.1725  0.2244 -0.3594
 1710W        W 5454   5.943   9.561  10.714 -0.0118 -0.1747 -0.1748
 1711W        W 5455   7.965   4.136   4.741 -0.1159  0.1868  0.0153
 1712W        W 5456   8.538   0.327   3.863 -0.1012  0.3469 -0.1451
 1713W        W 5457   5.567   1.755   9.614 -0.0430 -0.1959  0.1791
 1714W        W 5458   0.944   5.835   0.092 -0.2350 -0.0087  0.1661
 1715W        W 5459   1.802   5.589   0.615  0.5364 -0.2119 -0.3831
 1716W        W 5460   3.266   9.420   0.958  0.1440 -0.1884 -0.0063
 1717W        W 5461   3.241   0.017   0.783  0.1605  0.6508 -0.0533
 1718W        W 5462   5.254   5.609   4.182  0.1846 -0.0952 -0.2352
 1719W        W 5463   8.437   0.325  10.284  0.0388  0.1682  0.0533
 1720W        W 5464   6.623   3.264   8.975  0.1409  0.2001 -0.0625
 1721W        W 5465   8.610   1.529   2.424 -0.2363 -0.1312  0.0357
 1722W        W 5466   0.983   3.035   9.978  0.0663 -0.1092  0.3197
 1723W        W 5467   6.518   3.504   9.533 -0.1131 -0.3559  0.0177
 1724W        W 5468   9.859   1.658   2.881 -0.0189  0.1500  0.0877
 1725W        W 5469   6.227   2.768   8.950  0.5075 -0.0612 -0.4862
 1726W        W 5470   0.545   7.681   9.648  0.2653  0.0589 -0.0281
 1727W        W 5471   0.968   6.246   2.004 -0.3271  0.0730 -0.2570
 1728W        W 5472   9.309   2.973   8.505 -0.2011  0.0499 -0.0732
 1729W        W 5473   2.589   4.150   2.601  0.1720  0.1066  0.0109
 1730W        W 5474   6.693   8.791  12.512 -0.0444  0.1156  0.2179
 1731W        W 5475   5.201   1.569   3.158  0.0931 -0.0483 -0.1901
 1732W        W 5476   7.245   2.251   9.097  0.4826  0.0805 -0.0136
 1733W        W 5477   6.835   3.080   9.401  0.0137  0.0697  0.1740
 1734W        W 5478   0.471   1.190   2.639  0.1990 -0.2156  0.4727
 1735W        W 5479   6.442   9.814   3.334  0.0632 -0.1289  0.3394
 1736W        W 5480   9.156   9.845   3.232  0.0536  0.0129  0.0378
 1737W        W 5481   7.432   3.028   4.726 -0.2685  0.3608 -0.0546
 1738W        W 5482   3.760   6.788   2.263 -0.0303 -0.1008 -0.2898
 1739W        W 5483   5.531   9.257   1.578  0.0370 -0.0296 -0.1071
 1740W        W 5484   4.478   5.436   1.807  0.4315  0.1657  0.2201
 1741W        W 5485   2.203   9.932   1.596  0.2778  0.3564 -0.2466
 1742W        W 5486   2.650   4.534   2.165  0.1313 -0.0093 -0.0465
 1743W        W 5487   5.181   0.608   8.859  0.0758 -0.0203 -0.3073
 1744W        W 5488   5.610   4.100  12.070 -0.1177 -0.2135 -0.1138
 1745W        W 5489   3.956   0.032   9.903  0.1273 -0.1492 -0.3191
 1746W        W 5490   0.051   9.483  10.207 -0.1195  0.0038 -0.0170
 1747W        W 5491   6.205   1.817  10.953 -0.3780  0.2152  0.1765
 1748W        W 5492   0.295   6.468   3.377  0.0070  0.1273  0.2346
 1749W        W 5493   2.179   4.853   0.520  0.1333  0.0289  0.2067
 1750W        W 5494   0.791   4.387  10.474 -0.2777  0.1934  0.0551
 1751W        W 5495   1.537   4.003   8.701  0.1445 -0.0029  0.2130
 1752W        W 5496   3.670   2.103  12.641 -0.2074 -0.0404  0.0920
 1753W        W 5497   5.311   3.158   2.501 -0.0709 -0.2639 -0.4147
 1754W        W 5498   9.037   4.710   1.445  0.1065  0.1059  0.2754
 1755W        W 5499   5.775   4.488   3.851  0.3129 -0.2349 -0.0355
 1756W        W 5500   5.126   9.929   0.086  0.0187  0.1757  0.0350
 1757W        W 5501   5.514   2.570   9.014  0.2274  0.0811  0.0822
 1758W        W 5502   1.556   3.736  11.332 -0.0719 -0.2257 -0.3360
 1759W        W 5503   8.086   6.271   1.160 -0.2777  0.0115 -0.2348
 1760W        W 5504   2.158   0.299   2.592  0.3182 -0.0515 -0.0969
 1761W        W 5505   6.533   8.137   9.010  0.2096 -0.3902  0.0366
 1762W        W 5506   5.178   9.752   1.296 -0.0695  0.0587  0.0305
 1763W        W 5507   5.919   3.100   1.500 -0.4491  0.1882 -0.1791
 1764W        W 5508   1.786   0.930   1.664  0.0297 -0.1130 -0.1160
 1765W        W 5509   5.554   8.104   3.931  0.0594 -0.0788  0.1029
 1766W        W 5510   2.452   3.211  11.188 -0.0796 -0.0584 -0.2261
 1767W        W 5511   0.199   2.751   4.997 -0.0634  0.1866  0.0998
 1768W        W 5512   8.421   7.681   2.348  0.0392 -0.0860 -0.3356
 1769W        W 5513   7.311   7.676  12.320 -0.1792 -0.0459  0.1358
 1770W        W 5514   3.672   9.623  12.787 -0.0097 -0.0144 -0.1999
 1771W        W 5515   7.195   1.556  12.278 -0.2620  0.2774  0.0282
 1772W        W 5516   4.734   0.986  11.519  0.2035 -0.3835 -0.1032
 1773W        W 5517   4.424   2.946   0.495  0.0452 -0.0066  0.3419
 1774W        W 5518   8.578   5.679   1.858 -0.4125 -0.0758  0.0978
 1775W        W 5519   1.391   1.350   3.352  0.1448 -0.2036  0.0853
 1776W        W 5520   8.793   0.996  11.732  0.2845 -0.4207  0.1144
 1777W        W 5521   1.676   1.730   0.656  0.1288  0.0675  0.2814
 1778W        W 5522   2.816   8.225   2.344  0.0673  0.1938  0.0792
 1779W        W 5523   8.593   2.871   3.533  0.2185  0.3728 -0.4568
 1780W        W 5524   7.334   2.685   0.229 -0.0625 -0.0950  0.1578
 1781W        W 5525   8.944   8.369   2.903  0.2328  0.0406 -0.1780
 1782W        W 5526   3.140   8.617   9.005 -0.1641  0.3871 -0.0866
 1783W        W 5527   3.269   3.077  10.312 -0.1763 -0.0352  0.1538
 1784W        W 5528   7.151   9.846   9.648 -0.0026  0.2620  0.0848
 1785W        W 5529   0.897   2.320  11.421 -0.1610 -0.1355 -0.2512
 1786W        W 5530   5.843   3.834   3.191 -0.0463 -0.3477 -0.0574
 1787W        W 5531   1.375   1.804   1.153  0.1425 -0.4620 -0.0304
 1788W        W 5532   2.456   1.381   5.067 -0.0540  0.1698 -0.1768
 1789W        W 5533   1.327   1.861   2.800 -0.0050  0.0179 -0.0043
 1790W        W 5534   7.239   4.277   9.200 -0.0377 -0.1008 -0.0702
 1791W        W 5535   1.762   0.739   0.664  0.0884  0.2525  0.0294
 1792W        W 5536   8.549   8.830   9.245 -0.1240 -0.0043 -0.1338
 1793W        W 5537   7.069   4.674   9.490  0.2346  0.1298 -0.0638
 1794W        W 5538   7.200   6.487  10.191 -0.1679  0.1003  0.1104
 1795W        W 5539   2.074   9.871  12.131  0.0859  0.1197  0.0455
 1796W        W 5540   5.102   3.513   2.792 -0.0367  0.4166 -0.1115
 1797W        W 5541   3.010   3.857  12.400  0.1764  0.0947 -0.0316
 1798W        W 5542   0.038   9.670   9.737 -0.2282  0.2141  0.1082
 1799W        W 5543   7.970   9.245   9.201  0.1638  0.0782 -0.1074
 1800W        W 5544   5.256   5.503   1.239 -0.0630 -0.1958 -0.2101
 1801W        W 5545   7.641   6.879  12.334 -0.2138 -0.0453  0.1197
 1802W        W 5546   6.907   9.398   9.696 -0.0172  0.2338 -0.4226
 1803W        W 5547   0.531   8.647  12.691  0.0943  0.1977  0.4829
 1804W        W 5548   3.611   1.434   4.039 -0.2409  0.1529  0.0577
 1805W        W 5549   4.056   2.565   2.389  0.2666 -0.1176 -0.0829
 1806W        W 5550   4.161   9.150   2.192 -0.1405 -0.0790  0.1027
 1807W        W 5551   4.883   0.663  11.106 -0.1361  0.1077  0.0513
 1808W        W 5552   0.645   5.129   3.418  0.0896 -0.2129 -0.2246
 1809W        W 5553   2.118   0.965  11.364 -0.0502  0.1417 -0.0353
 1810W        W 5554   8.099   1.644  12.719  0.1135 -0.0372 -0.2429
 1811W        W 5555   3.855   2.924  11.118  0.1837  0.2234  0.2582
 1812W        W 5556   3.163   8.666   1.581  0.2008  0.1830 -0.1953
 1813W        W 5557   1.887   3.794  12.729  0.1007 -0.0142  0.1264
 1814W        W 5558   2.432   6.145   1.964  0.0230 -0.1308  0.4031
 1815W        W 5559   9.256   8.176   1.929 -0.1108 -0.1109  0.2018
 1816W        W 5560   2.156   2.464  12.156 -0.3545  0.2732  0.2350
 1817W        W 5561   1.035   9.334  11.982 -0.0659 -0.1111  0.6640
 1818W        W 5562   9.122   8.667   2.070 -0.0816  0.4019  0.0957
 1819W        W 5563   1.682   5.708   1.801  0.2176 -0.0076  0.1275
 1820W        W 5564   0.070   8.788   1.184  0.2838  0.2480  0.0625
 1821W        W 5565   1.387   3.295   3.750 -0.0567  0.0677  0.1515
 1822W        W 5566   5.905   8.729  12.143 -0.0739 -0.0495  0.2137
 1823W        W 5567   5.138   7.579   9.897  0.0859  0.0498 -0.0756
 1824W        W 5568   9.476   2.390  12.455 -0.1645  0.0274  0.1474
 1825W        W 5569   6.766   4.135   0.506 -0.3568 -0.1742 -0.0903
 1826W        W 5570   3.680   2.339  11.034 -0.1020 -0.0744  0.4856
 1827W        W 5571   2.818   3.660   1.888  0.0522 -0.1185 -0.0942
 1828W        W 5572   2.038   2.524   0.770  0.2850  0.1035  0.3482
 1829W        W 5573   7.402   9.329   4.208  0.2366  0.1282 -0.2731
 1830W        W 5574   8.765   0.991   3.937  0.1364 -0.0932  0.2378
 1831W        W 5575   7.063   0.046  12.085  0.1019  0.1213  0.2796
 1832W        W 5576   5.921   1.474  12.733  0.0264 -0.0760 -0.1636
 1833W        W 5577   8.504   4.873   9.779 -0.0601  0.0234 -0.1404
 1834W        W 5578   7.546   4.876   3.484 -0.0587 -0.2513 -0.2798
 1835W        W 5579   7.457   7.350   2.862  0.0075  0.0053 -0.0058
 1836W        W 5580   5.874   9.394   2.788 -0.0085  0.2013  0.0815
 1837W        W 5581   6.796   2.369   3.650 -0.0145  0.0737 -0.2385
 1838W        W 5582   4.109   9.183   3.546 -0.1798 -0.0986 -0.0006
 1839W        W 5583   2.858   1.305   9.161  0.0265  0.2056  0.0721
 1840W        W 5584   8.744   0.322   2.837  0.0898 -0.3204  0.1914
 1841W        W 5585   0.171   1.276   3.070 -0.1427  0.1739  0.1397
 1842W        W 5586   1.932   0.938   8.947 -0.1151 -0.2576  0.0407
 1843W        W 5587   4.478   4.513   3.137 -0.3220 -0.0802 -0.0403
 1844W        W 5588   1.549   9.503  12.133 -0.1308  0.2320  0.0220
 1845W        W 5589   7.538   8.931   9.494 -0.2202  0.1337 -0.2618
 1846W        W 5590   0.442   0.732   2.509  0.2053  0.0048 -0.1765
 1847W        W 5591   0.327   0.972  12.672 -0.0914 -0.3168  0.1924
 1848W        W 5592   3.381   3.743   9.652 -0.1799  0.0459 -0.4306
 1849W        W 5593   8.548   2.723  11.767  0.0915  0.1198 -0.0162
 1850W        W 5594   7.574   8.385   0.626 -0.5053  0.1186  0.0361
 1851W        W 5595   2.344   3.778   3.104 -0.0030 -0.0432 -0.1400
 1852W        W 5596   7.692   1.371   3.206  0.1264 -0.1227 -0.1564
 1853W        W 5597   4.963   0.733   1.763  0.0488  0.0375  0.1634
 1854W        W 5598   3.154   5.339   2.328  0.0565  0.1934 -0.2483
 1855W        W 5599   6.533   9.177   1.465  0.1061  0.0071  0.4076
 1856W        W 5600   2.195   4.342   2.978 -0.1204  0.1234 -0.0770
 1857W        W 5601   0.742   4.678   8.997 -0.0467  0.1152  0.2369
 1858W        W 5602   1.325   7.338   1.125 -0.0545 -0.1628 -0.0085
 1859W        W 5603   9.446   3.748   2.296  0.0245  0.1070 -0.0318
 1860W        W 5604   6.898   6.407  11.482  0.2152  0.4106  0.1130
 1861W        W 5605   5.702   4.009   9.538 -0.1513 -0.1408  0.0255
 1862W        W 5606   5.769   0.444   0.735  0.0466  0.1177 -0.0662
 1863W        W 5607   2.940   4.899   8.884  0.0883  0.0500 -0.0427
 1864W        W 5608   0.686   0.518   9.766 -0.1527  0.2198  0.2528
 1865W        W 5609   2.865   1.192   1.514 -0.2406  0.1646  0.2056
 1866W        W 5610   4.497   7.514   9.286  0.0440 -0.2039  0.1867
 1867W        W 5611   1.766   5.328   1.117 -0.0712 -0.1619  0.0225
 1868W        W 5612   7.893   5.421   2.260  0.1479  0.3301  0.2392
 1869W        W 5613   6.291   4.413   9.790  0.2952  0.1341  0.1150
 1870W        W 5614   9.201   4.979   4.454  0.4279  0.1468  0.0683
 1871W        W 5615   2.383   8.540  11.053  0.2274  0.2404 -0.1189
 1872W        W 5616   9.316   0.899   4.654 -0.0825 -0.0537  0.0120
 1873W        W 5617   4.884   9.417   2.483  0.1654  0.0354  0.0248
 1874W        W 5618   3.988   8.148  10.612 -0.1501  0.2579 -0.0464
 1875W        W 5619   2.476   2.877  10.766 -0.2488 -0.1791  0.0449
 1876W        W 5620   9.759   8.167   2.765 -0.2214 -0.0277 -0.5085
 1877W        W 5621   7.546   7.973   2.192  0.3211  0.0485 -0.2062
 1878W        W 5622   7.795   3.692  11.396  0.1196  0.0527 -0.1227
 1879W        W 5623   8.910   9.302   3.970  0.2444  0.1843  0.0953
 1880W        W 5624   8.601   4.060   0.029 -0.3703  0.2171 -0.0218
 1881W        W 5625   2.954   0.922  12.237  0.0778 -0.0227 -0.0558
 1882W        W 5626   7.374   4.703  11.272  0.2539  0.1184  0.0457
 1883W        W 5627   1.991   4.630   9.648 -0.0089  0.1635  0.3193
 1884W        W 5628   3.844   9.895   1.707  0.3455  0.0614  0.1226
 1885W        W 5629   0.330   3.110  12.757 -0.0158  0.0079  0.1471
 1886W        W 5630   3.782   6.474   1.050 -0.0133  0.1671  0.0223
 1887W        W 5631   3.034   2.501   0.240  0.0008 -0.0351  0.3606
 1888W        W 5632   0.214   9.275  12.657  0.1054  0.3033 -0.3058
 1889W        W 5633   1.928   4.032   9.127  0.1286 -0.1737  0.1569
 1890W        W 5634   6.742   6.239  10.373  0.0373  0.0274 -0.3522
 1891W        W 5635   4.732   3.067   2.047  0.3259  0.2669 -0.1764
 1892W        W 5636   6.365   7.029  10.920 -0.1117  0.0946 -0.0670
 1893W        W 5637   8.439   0.559   9.859  0.1368  0.1717 -0.1306
 1894W        W 5638   1.023   1.619   4.179  0.1666  0.1038  0.1119
 1895W        W 5639   6.752   9.418  10.837  0.0778 -0.0121  0.2768
 1896W        W 5640   0.964   3.593  11.503 -0.2123  0.0561 -0.0181
 1897W        W 5641   1.448   8.637   3.345  0.0656  0.0875 -0.0838
 1898W        W 5642   8.463   4.496   8.806  0.0949 -0.1843 -0.0869
 1899W        W 5643   6.697   0.074  11.802 -0.4861  0.1833 -0.0379
 1900W        W 5644   0.775   3.303  11.092 -0.0337  0.1096  0.0497
 1901W        W 5645   2.515   9.593   2.929 -0.0651 -0.2611 -0.1366
 1902W        W 5646   2.272   4.455   0.943  0.0104 -0.1461 -0.0244
 1903W        W 5647   7.910   1.586   9.357  0.0054  0.0543  0.0676
 1904W        W 5648   7.494   8.482   9.256 -0.2271 -0.0147 -0.2610
 1905W        W 5649   2.356   7.925  10.787  0.0281 -0.1159  0.0418
 1906W        W 5650   7.785   8.017   2.924  0.5036  0.2562  0.0313
 1907W        W 5651   4.905   6.428  10.581 -0.1776  0.4310  0.1353
 1908W        W 5652   1.119   6.427  10.807 -0.1281 -0.1006 -0.1900
 1909W        W 5653   4.956   3.833   2.457 -0.0539  0.0538  0.0703
 1910W        W 5654   7.218   2.332   1.440  0.1007 -0.1406 -0.0652
 1911W        W 5655   1.928   1.288   0.552  0.0752  0.0221  0.2289
 1912W        W 5656   0.484   6.198  11.532 -0.2192 -0.1710 -0.1632
 1913W        W 5657   6.994   0.760   4.083 -0.2091 -0.2237 -0.0840
 1914W        W 5658   8.279   9.009   0.435 -0.3699 -0.2090  0.0550
 1915W        W 5659   7.245   3.437   1.085 -0.0454 -0.1337  0.1196
 1916W        W 5660   2.207   3.357   8.935 -0.1305  0.0457 -0.3144
 1917W        W 5661   5.330   9.528   2.786  0.3227  0.1016  0.2905
 1918W        W 5662   1.299   0.938   9.300 -0.1433  0.0639 -0.0384
 1919W        W 5663   8.007   8.678   3.223 -0.1223 -0.1547  0.2348
 1920W        W 5664   5.120   1.336  11.537 -0.2302 -0.0842  0.0529
 1921W        W 5665   9.618   9.861  10.007 -0.0734  0.0498  0.0658
 1922W        W 5666   6.781   4.360   2.267 -0.3988  0.3876 -0.0222
 1923W        W 5667   8.865   0.207  12.048  0.5347  0.0984  0.0051
 1924W        W 5668   6.705   3.563   2.110  0.0721 -0.0999 -0.1445
 1925W        W 5669   3.525   1.602  10.465  0.1425  0.1165  0.1118
 1926W        W 5670   3.690   3.083  10.539  0.0854  0.1248 -0.3784
 1927W        W 5671   5.580   4.987  11.269 -0.4704  0.2950  0.0016
 1928W        W 5672   1.901   0.628  11.001 -0.0731 -0.2248 -0.2033
 1929W        W 5673   7.019   6.621   1.923 -0.1038 -0.1606 -0.0754
 1930W        W 5674   7.298   4.346   2.327  0.0025 -0.0598  0.1157
 1931W        W 5675   6.655   7.209  10.571  0.1934 -0.1007 -0.0707
 1932W        W 5676   6.597   8.342   1.597 -0.1726 -0.3991 -0.1196
 1933W        W 5677   6.239   0.246   3.542  0.0281 -0.1001  0.1817
 1934W        W 5678   0.143   4.149   9.162 -0.0394  0.2331 -0.0541
 1935W        W 5679   9.578   0.050   3.503 -0.1296  0.4451  0.3142
 1936W        W 5680   4.576   9.338  12.434 -0.0912  0.0039  0.1250
 1937W        W 5681   6.184   6.612   1.674 -0.1564  0.3374 -0.1920
 1938W        W 5682   1.951   4.133   9.665  0.0034  0.0711  0.0806
 1939W        W 5683   9.290   3.534  10.315  0.1136 -0.4433 -0.1036
 1940W        W 5684   0.237   4.107  11.835  0.2696 -0.0007 -0.4240
 1941W        W 5685   6.828   7.303   1.007  0.1347 -0.0526  0.0335
 1942W        W 5686   6.487   6.286   3.252  0.1254  0.2371  0.2401
 1943W        W 5687   2.163   0.430   3.588 -0.0237  0.3842  0.0721
 1944W        W 5688   6.610   1.881   3.915 -0.3581  0.2711 -0.0505
 1945W        W 5689   6.480   1.092   4.740 -0.0825 -0.3575 -0.1605
 1946W        W 5690   9.911   2.840   2.355  0.0666  0.0544  0.2187
 1947W        W 5691   2.524   2.119  10.747  0.1110 -0.2687  0.0686
 1948W        W 5692   9.109   0.493  11.688  0.0986  0.0008  0.0190
 1949W        W 5693   5.538   4.458  10.322 -0.0598 -0.2641 -0.1612
 1950W        W 5694   7.379   8.982   1.879 -0.3300  0.2128  0.1456
 1951W        W 5695   0.455   4.468  10.115  0.1115 -0.3000 -0.0123
 1952W        W 5696   2.838   7.009   0.150 -0.1276 -0.0662 -0.0794
 1953W        W 5697   9.211   5.077   1.128  0.1415 -0.2668  0.1668
 1954W        W 5698   7.562   0.488  12.195 -0.0882  0.1218 -0.0899
 1955W        W 5699   1.412   3.124   1.847 -0.1215  0.0029 -0.3622
 1956W        W 5700   9.111   5.018  10.221 -0.2920 -0.4048  0.0549
 1957W        W 5701   0.553   8.194   0.039  0.1279  0.1701 -0.2737
 1958W        W 5702   5.734   0.496   8.672  0.0323 -0.1141 -0.0466
 1959W        W 5703   3.773   5.820  10.887  0.1758  0.0483 -0.0575
 1960W        W 5704   5.485   1.698   3.795 -0.4560  0.3492 -0.2478
 1961W        W 5705   9.123   1.476   2.307  0.1783 -0.1201  0.2612
 1962W        W 5706   6.512   9.842   0.665  0.2342 -0.1911  0.0631
 1963W        W 5707   5.556   7.481   8.661 -0.2549 -0.0658  0.0338
 1964W        W 5708   8.673   1.967  10.960 -0.1355 -0.2716 -0.1804
 1965W        W 5709   4.300   2.250   4.167 -0.3780  0.3073 -0.0725
 1966W        W 5710   5.729   5.414  12.245  0.2680  0.0284  0.1442
 1967W        W 5711   3.790   9.502   1.981 -0.1332 -0.0222  0.0966
 1968W        W 5712   2.617   9.136   2.738 -0.0591 -0.0278  0.0490
 1969W        W 5713   0.788   1.843  11.254  0.2169  0.3641  0.0948
 1970W        W 5714   6.079   5.701  10.965 -0.2162  0.1238 -0.2590
 1971W        W 5715   9.295   9.669   3.740  0.0944 -0.1551 -0.0264
 1972W        W 5716   4.279   3.411   2.204 -0.0780  0.2678  0.1488
 1973W        W 5717   9.232   4.843   9.078  0.0775 -0.0346 -0.2037
 1974W        W 5718   9.424   0.288   0.702 -0.2207 -0.1861  0.2923
 1975W        W 5719   3.587   6.279  10.915 -0.0714  0.1166  0.1143
 1976W        W 5720   4.699   0.350   9.683 -0.3033  0.5153  0.3381
 1977W        W 5721   0.628   0.041   1.897 -0.0445  0.3430  0.4236
 1978W        W 5722   5.634   5.231   3.335  0.2986  0.1013 -0.2326
 1979W        W 5723   3.828   3.411  10.964  0.2676 -0.0157 -0.4379
 1980W        W 5724   4.366   1.653   8.513  0.2112  0.2053  0.0088
 1981W        W 5725   4.043   5.242   4.668  0.2338  0.1966  0.2375
 1982W        W 5726   2.324   2.514  11.095 -0.1674 -0.1763 -0.0272
 1983W        W 5727   2.241   9.072  12.256  0.0785  0.1491 -0.3395
 1984W        W 5728   1.525   9.918   0.968 -0.0299 -0.0451  0.2650
 1985W        W 5729   8.230   1.195   3.946  0.1153  0.1177  0.2714
 1986W        W 5730   8.975   6.331   3.310  0.0844  0.1363  0.1111
 1987W        W 5731   3.637   4.560  12.115 -0.0240 -0.1108 -0.0295
 1988W        W 5732   0.974   1.469   1.461  0.5983  0.1717 -0.0527
 1989W        W 5733   0.601   1.406   9.905 -0.0839 -0.0159 -0.3321
 1990W        W 5734   5.471   7.626  11.900  0.0643 -0.1533  0.0327
 1991W        W 5735   1.560   8.011   3.138 -0.4214  0.1434  0.0398
 1992W        W 5736   7.701   1.885  11.703 -0.1525  0.0897 -0.1508
 1993W        W 5737   7.839   2.132  12.704  0.0405 -0.1515  0.2078
 1994W        W 5738   2.127   6.813   3.276 -0.0320 -0.0949  0.0289
 1995W        W 5739   5.796   1.217   8.743  0.1138 -0.1345  0.1873
 1996W        W 5740   3.331   1.651   2.642  0.0334  0.2202  0.1974
 1997W        W 5741   3.800   7.086  12.219  0.0159  0.1650  0.2393
 1998W        W 5742   9.114   0.965  11.360  0.3494 -0.2960 -0.0266
 1999W        W 5743   5.561   3.974  11.551 -0.0195 -0.2484  0.1482
 2000W        W 5744   7.283   1.549  10.904 -0.1935 -0.2087  0.0191
 2001W        W 5745   4.561   2.573   3.727 -0.3730 -0.1415  0.0473
 2002W        W 5746   7.638   8.846  10.824 -0.2117 -0.0634  0.1387
 2003W        W 5747   2.869   9.825  12.379 -0.0856 -0.0687 -0.4345
 2004W        W 5748   1.959   3.346   0.205  0.1775 -0.0517 -0.1244
 2005W        W 5749   6.328   9.056   0.116 -0.1718 -0.2263 -0.2098
 2006W        W 5750   8.494   2.001   0.632 -0.1568 -0.0736 -0.0003
 2007W        W 5751   7.924   9.102  10.445 -0.3382  0.1322 -0.4508
 2008W        W 5752   6.836   3.946  11.044  0.1813  0.1648  0.1272
 2009W        W 5753   3.726   3.358   4.439  0.0634  0.1492  0.0896
 2010W        W 5754   6.284   7.658   4.283 -0.2011  0.4069  0.5316
 2011W        W 5755   7.328   7.410  10.509  0.2537 -0.1650  0.1701
 2012W        W 5756   1.571   7.980  12.057 -0.5459  0.0946 -0.0622
 2013W        W 5757   6.978   8.085   9.269 -0.1133  0.0167  0.1280
 2014W        W 5758   1.222   4.112  12.201  0.0855  0.1710 -0.2157
 2015W        W 5759   9.316   4.518   9.955  0.2052 -0.0665  0.4461
 2016W        W 5760   6.031   5.345   0.539  0.3622 -0.2598  0.0792
 2017W        W 5761   1.133   8.731  10.364  0.4799  0.1695 -0.2507
 2018W        W 5762   3.947   4.585   0.686 -0.1727  0.1824  0.0808
 2019W        W 5763   6.178   0.542  11.049 -0.1341 -0.0182  0.0004
 2020W        W 5764   0.908   4.295   3.177  0.2647 -0.1426  0.2971
 2021W        W 5765   0.509   9.289   1.921  0.0221 -0.0270 -0.1575
 2022W        W 5766   3.928   8.719   3.590  0.2260 -0.0442  0.3380
 2023W        W 5767   6.976   8.209  11.554  0.1808 -0.0859  0.2438
 2024W        W 5768   2.405   9.788   4.354 -0.0178 -0.0888 -0.1597
 2025W        W 5769   6.775   1.265  11.749  0.2434 -0.5787  0.4383
 2026W        W 5770   5.991   3.880   2.217 -0.1915 -0.0083  0.0333
 2027W        W 5771   6.396   4.202  11.108 -0.2394  0.1041 -0.2135
 2028W        W 5772   4.076   5.127   9.664  0.2231  0.2710  0.0122
 2029W        W 5773   7.895   6.743   1.499  0.0444  0.1083 -0.0210
 2030W        W 5774   2.234   8.161   9.099 -0.1162 -0.1489  0.0139
 2031W        W 5775   1.443   0.677   3.789  0.0865 -0.1470  0.0310
 2032W        W 5776   1.736   6.813  11.290  0.1401  0.0875 -0.3256
 2033W        W 5777   5.104   2.862   8.590  0.2640  0.4002 -0.1706
 2034W        W 5778   4.792   8.440   1.663 -0.1788  0.0432 -0.2162
 2035W        W 5779   3.325   1.684   0.798 -0.2177 -0.3823  0.0446
 2036W        W 5780   9.709   6.997  10.988  0.2851 -0.2281  0.3010
 2037W        W 5781   7.515   2.278   0.468  0.0322 -0.1405 -0.0628
 2038W        W 5782   1.296   8.295  10.170 -0.1730  0.2157 -0.0101
 2039W        W 5783   2.839   6.253   1.257 -0.0325  0.2578 -0.0238
 2040W        W 5784   8.842   4.397   2.368 -0.3742 -0.0382 -0.0015
 2041W        W 5785   5.951   9.755  11.366  0.3284 -0.5242  0.0607
 2042W        W 5786   3.577   4.847  12.524 -0.0054 -0.0777  0.1587
 2043W        W 5787   7.013   8.627   2.488 -0.3344 -0.0732  0.0134
 2044W        W 5788   3.797   1.755   1.264 -0.2552 -0.3232 -0.1479
 2045W        W 5789   0.559   5.268  10.824 -0.1995 -0.0068 -0.1484
 2046W        W 5790   6.021   9.008   1.767 -0.2321 -0.0187 -0.2173
 2047W        W 5791   7.091   3.018  12.277 -0.1278 -0.0941 -0.0262
 2048W        W 5792   0.627   5.373   2.735 -0.0808  0.2007 -0.2001
 2049W        W 5793   6.270   8.594   9.654 -0.1209  0.0643 -0.1281
 2050W        W 5794   9.933   4.420   1.949  0.1049 -0.1266  0.2510
 2051W        W 5795   8.696   9.308   9.089  0.0004 -0.1550  0.0491
 2052W        W 5796   1.089   4.938   3.773  0.0264  0.4487  0.2813
 2053W        W 5797   4.511   2.697   8.407 -0.0722  0.2415 -0.0022
 2054W        W 5798   1.497   3.768   1.783 -0.1656 -0.0551 -0.1764
 2055W        W 5799   3.726   8.768  11.083  0.0066  0.2978  0.1148
 2056W        W 5800   1.338   6.691  12.395 -0.0924  0.0041  0.2589
 2057W        W 5801   9.578   8.868  10.041 -0.1778  0.0897 -0.3235
 2058W        W 5802   3.664   8.477   1.506  0.0814  0.1995  0.3145
 2059W        W 5803   7.621   6.334  12.400 -0.0387 -0.2539 -0.0312
 2060W        W 5804   2.809   4.383   9.030  0.1074 -0.0547 -0.0706
 2061W        W 5805   3.034   3.792   3.793  0.2780 -0.0089  0.2050
 2062W        W 5806   9.217   7.603   2.457 -0.0161 -0.0990  0.0437
 2063W        W 5807   9.403   3.117  10.027  0.1950  0.2037  0.0073
 2064W        W 5808   8.130   2.332   8.175 -0.0497  0.1394 -0.3980
 2065W        W 5809   0.287   6.711  11.519  0.1468  0.0176  0.0713
 2066W        W 5810   3.695   5.002   2.299 -0.1532 -0.2990  0.1036
 2067W        W 5811   5.806   6.335   5.137 -0.3144 -0.1954 -0.1272
 2068W        W 5812   3.258   0.832   4.696 -0.0787  0.2094  0.0455
 2069W        W 5813   6.573   1.267   8.092  0.0178 -0.0860 -0.1714
 2070W        W 5814   2.746   1.667   3.725 -0.1886  0.0492  0.1473
 2071W        W 5815   5.140   1.383   0.567 -0.0861 -0.0333  0.3131
 2072W        W 5816   1.175   1.006   1.347  0.0386  0.0369 -0.1712
 2073W        W 5817   6.811   1.786   2.949 -0.3878 -0.0143 -0.0025
 2074W        W 5818   1.844   3.962   3.153 -0.0518  0.1976  0.2896
 2075W        W 5819   1.250   5.208   0.111 -0.0802  0.0093 -0.0461
 2076W        W 5820   1.739   5.584   9.941  0.2330 -0.1443  0.1065
 2077W        W 5821   6.634   9.720   1.363 -0.1147  0.2862  0.0221
 2078W        W 5822   3.605   4.885   1.019  0.5875  0.0418 -0.0541
 2079W        W 5823   5.763   3.447   2.309  0.1581  0.4285  0.1455
 2080W        W 5824   4.446   9.621   8.564 -0.1878 -0.3040  0.3734
 2081W        W 5825   3.628   5.811  12.144  0.1484 -0.0584 -0.2146
 2082W        W 5826   1.295   9.384  11.058  0.4052  0.0781  0.4554
 2083W        W 5827   9.142   0.714   3.846 -0.2516 -0.1153  0.3018
 2084W        W 5828   6.885   0.265   2.204  0.0620  0.0981  0.0764
 2085W        W 5829   6.508   7.007   3.861 -0.0382 -0.1897 -0.1594
 2086W        W 5830   5.234   1.902   1.219 -0.2081 -0.2844 -0.1221
 2087W        W 5831   5.414   1.587   8.607  0.0125 -0.0353 -0.5674
 2088W        W 5832   8.785   8.918   8.758 -0.0254  0.1112 -0.1157
 2089W        W 5833   2.457   2.157  11.857 -0.0675 -0.0618  0.0889
 2090W        W 5834   9.553   0.505   3.543  0.1070 -0.0374  0.2777
 2091W        W 5835   4.546   6.249   0.551  0.0562 -0.2015 -0.3450
 2092W        W 5836   9.820   1.346  10.409 -0.0671 -0.2259  0.4205
 2093W        W 5837   5.918   1.768   1.756 -0.1454 -0.1236  0.0673
 2094W        W 5838   9.785   5.404   0.045 -0.4100  0.1821  0.1133
 2095W        W 5839   2.162   2.065   1.854 -0.4862 -0.0903 -0.3993
 2096W        W 5840   5.767   8.366  11.272  0.3919 -0.3819  0.1660
 2097W        W 5841   1.996   6.611   9.764 -0.0797  0.1354 -0.0193
 2098W        W 5842   5.678   5.371   0.949 -0.2236 -0.0690 -0.4735
 2099W        W 5843   6.491   1.693   8.951 -0.0500 -0.2401 -0.2317
 2100W        W 5844   4.540   9.234  10.652  0.1617  0.0610  0.0030
 2101W        W 5845   4.579   1.187   3.848 -0.2557 -0.0271  0.1774
 2102W        W 5846   4.216   1.941  12.368 -0.2573  0.0025 -0.1181
 2103W        W 5847   5.915   1.577   4.051  0.1891 -0.5415 -0.2696
 2104W        W 5848   4.902   0.868   2.369  0.0610 -0.2000 -0.1487
 2105W        W 5849   3.779   3.843   9.246  0.1436  0.2027  0.1911
 2106W        W 5850   4.425   9.425   2.625  0.0648  0.0719  0.0744
 2107W        W 5851   6.329   9.347   1.917  0.1998  0.1948  0.1117
 2108W        W 5852   0.908   6.790   3.594  0.0766  0.0789 -0.0165
 2109W        W 5853   0.195   6.697   1.758  0.2159 -0.1126 -0.0247
 2110W        W 5854   8.409   0.839   4.314 -0.1823  0.0736  0.0893
 2111W        W 5855   0.476   3.189   3.177 -0.0012 -0.0342  0.0827
 2112W        W 5856   4.332   3.071  11.822 -0.3437  0.1235 -0.2735
 2113W        W 5857   5.877   1.015   7.680 -0.2802 -0.0367  0.1245
 2114W        W 5858   8.919   7.614   0.008 -0.2334  0.0262 -0.0159
 2115W        W 5859   7.373   7.285   1.318 -0.0540 -0.3519  0.0911
 2116W        W 5860   6.009   4.986  12.229 -0.0619  0.0107 -0.1054
 2117W        W 5861   7.767   1.258   9.700  0.1152  0.0930  0.3568
 2118W        W 5862   8.906   3.777   3.017 -0.2362  0.1277 -0.1311
 2119W        W 5863   8.027   8.140   2.348 -0.1324 -0.3885 -0.0297
 2120W        W 5864   6.921   2.838   2.382  0.3153  0.3619 -0.0190
 2121W        W 5865   6.677   2.754  11.571  0.1940  0.1930 -0.0948
 2122W        W 5866   2.393   2.582   8.440  0.2728 -0.1736 -0.3737
 2123W        W 5867   6.353   3.043   1.162  0.0958  0.4163 -0.0407
 2124W        W 5868   2.654   3.844  12.020 -0.1046  0.0659  0.0642
 2125W        W 5869   5.038   0.842   0.405 -0.4676  0.0880  0.1500
 2126W        W 5870   9.075   4.175   4.195 -0.1003  0.0684  0.1024
 2127W        W 5871   5.060   3.460   9.946  0.0782 -0.2238  0.4676
 2128W        W 5872   2.882   3.170   1.821  0.2901  0.2434  0.0030
 2129W        W 5873   2.939   0.370   9.790  0.0326 -0.0449 -0.4161
 2130W        W 5874   2.357   0.138   3.078  0.3143 -0.0556  0.0146
 2131W        W 5875   3.460   8.575  11.464 -0.2288  0.2567 -0.1067
 2132W        W 5876   3.100   2.773  11.740 -0.0865  0.1736 -0.1426
 2133W        W 5877   2.068   4.288  10.988 -0.1265  0.0534  0.1619
 2134W        W 5878   3.537   3.025  11.783  0.2347  0.4566 -0.1674
 2135W        W 5879   4.014   3.077   1.440  0.0277 -0.1260  0.0177
 2136W        W 5880   3.507   0.682   8.697  0.0814  0.2494 -0.0352
 2137W        W 5881   6.793   7.352   8.867 -0.1251  0.0790  0.1088
 2138W        W 5882   5.767   2.193   1.983  0.2004 -0.0748  0.1844
 2139W        W 5883   3.032   9.925   2.802  0.0622 -0.0924  0.0362
 2140W        W 5884   9.848   5.046   8.866 -0.2271 -0.0591  0.2109
 2141W        W 5885   9.481   4.618  11.353 -0.0893 -0.2295 -0.1842
 2142W        W 5886   8.841   4.699   4.126  0.3331 -0.0824 -0.0543
 2143W        W 5887   1.439   9.214   0.077 -0.0887  0.0076  0.1097
 2144W        W 5888   5.033   1.686   9.415  0.2547 -0.0502  0.0390
 2145W        W 5889   2.806   5.430   1.137  0.2597 -0.0636 -0.1854
 2146W        W 5890   4.313   5.716   2.767  0.1407 -0.2909 -0.0524
 2147W        W 5891   2.696   4.082  11.279 -0.1396  0.2379  0.2151
 2148W        W 5892   1.961   8.952   3.649 -0.0626 -0.2923 -0.4025
 2149W        W 5893   0.672   1.933   8.719 -0.1559 -0.0629  0.4168
 2150W        W 5894   7.461   1.582   1.886 -0.0037 -0.2136  0.0931
 2151W        W 5895   1.192   2.228   1.988  0.1135  0.1116  0.1115
 2152W        W 5896   8.332   1.555   0.833 -0.1809  0.0363 -0.2058
 2153W        W 5897   5.330   9.789   4.897 -0.0358  0.0848  0.2664
 2154W        W 5898   0.442   2.383  12.138  0.2047  0.1133 -0.1595
 2155W        W 5899   4.458   1.156   9.983  0.1684  0.0137 -0.0872
 2156W        W 5900   0.025   3.385   3.155 -0.1680  0.2974 -0.2902
 2157W        W 5901   7.914   7.270   3.463 -0.1924  0.0924  0.0509
 2158W        W 5902   2.545   4.897   9.661 -0.1612 -0.1234 -0.1404
 2159W        W 5903   5.105   6.093   4.056  0.1153 -0.2284  0.2370
 2160W        W 5904   2.563   7.226  10.011 -0.2000 -0.0794 -0.1189
 2161W        W 5905   6.642   2.708   9.729 -0.2978  0.1064  0.0265
 2162W        W 5906   2.670   0.574  11.186 -0.1296  0.1055  0.0676
 2163W        W 5907   1.931   8.733   2.959  0.4047 -0.0717 -0.4910
 2164W        W 5908   7.034   0.304   1.726 -0.4325  0.1581 -0.2141
 2165W        W 5909   6.464   7.500  12.307  0.0523  0.0344  0.1445
 2166W        W 5910   9.927   2.340   4.119  0.0036 -0.1569  0.0189
 2167W        W 5911   0.885   5.845   3.859  0.2760  0.0280  0.0645
 2168W        W 5912   5.304   0.491  11.942  0.2930  0.2718 -0.3091
 2169W        W 5913   0.988   8.846  11.216 -0.2201 -0.2673 -0.0439
 2170W        W 5914   3.151   5.839   1.188  0.0779  0.1279  0.0836
 2171W        W 5915   7.983   5.115   1.263 -0.0084  0.4923 -0.2839
 2172W        W 5916   0.241   7.040   2.149 -0.1753  0.2231  0.2464
 2173W        W 5917   2.565   1.546   4.194  0.3978 -0.4182  0.0225
 2174W        W 5918   3.531   4.127  10.083  0.0954 -0.1286 -0.1474
 2175W        W 5919   4.767   1.097   4.761 -0.2499  0.2010  0.1251
 2176W        W 5920   0.096   6.569   1.241  0.1571  0.0410 -0.0858
 2177W        W 5921   9.306   9.806   0.345 -0.0033 -0.0661 -0.0116
 2178W        W 5922   5.622   8.600   4.327  0.0595  0.0378 -0.0943
 2179W        W 5923   8.429   5.967  10.034  0.0167 -0.0148  0.0306
 2180W        W 5924   1.561   1.926   8.553 -0.2359  0.3864  0.0899
 2181W        W 5925   7.988   5.830   1.881 -0.0349 -0.0640 -0.1034
 2182W        W 5926   3.818   4.695   9.705 -0.0470  0.3313  0.1202
 2183W        W 5927   8.372   5.802   4.088  0.1520 -0.0426 -0.2427
 2184W        W 5928   3.357   7.551  10.649  0.2058  0.0428 -0.1338
 2185W        W 5929   1.488   0.540   0.206  0.1824 -0.1260  0.1793
 2186W        W 5930   1.380   9.747   9.554  0.1425 -0.1145  0.0677
 2187W        W 5931   9.432   9.455   3.325 -0.0172 -0.2470 -0.2456
 2188W        W 5932   2.568   9.105  11.873  0.1738 -0.2174 -0.2377
 2189W        W 5933   4.591   7.556   1.374  0.1257 -0.2074  0.2937
 2190W        W 5934   0.246   1.779  12.718  0.0140  0.1509 -0.2808
 2191W        W 5935   9.873   3.018  12.257  0.0701  0.0709 -0.3469
 2192W        W 5936   1.312   1.767   2.256 -0.0787 -0.0756  0.0574
 2193W        W 5937   8.521   2.749   1.941  0.3826  0.0095 -0.1351
 2194W        W 5938   4.455   4.213   0.588  0.3681  0.1059  0.0088
 2195W        W 5939   1.789   1.393   9.718  0.1956  0.3720  0.1157
 2196W        W 5940   3.181   9.484  11.503  0.0179  0.0236  0.1050
 2197W        W 5941   1.065   7.194   2.684  0.1147 -0.0966  0.1505
 2198W        W 5942   0.057   4.430  10.913  0.2263 -0.0419 -0.0151
 2199W        W 5943   9.053   4.841  12.389 -0.0287 -0.0602 -0.1017
 2200W        W 5944   4.028   2.254  11.633  0.1895  0.0004  0.0113
 2201W        W 5945   4.302   4.185  11.965  0.0423  0.1002 -0.3648
 2202W        W 5946   6.547   4.734   9.035  0.0928  0.1243 -0.1384
 2203W        W 5947   0.757   8.290  10.271 -0.1538 -0.0303  0.4658
 2204W        W 5948   3.944   2.648  10.669 -0.3946 -0.0985  0.3138
 2205W        W 5949   9.336   2.892  11.525 -0.2980 -0.3294 -0.1621
 2206W        W 5950   7.719   7.911   0.525 -0.0274  0.1979  0.0035
 2207W        W 5951   7.278   2.343   3.769  0.0600  0.3980  0.1323
 2208W        W 5952   7.602   9.784   0.451  0.0880  0.2419 -0.0839
 2209W        W 5953   6.301   2.749   1.643 -0.1069  0.0837 -0.1304
 2210W        W 5954   7.094   4.418  11.808  0.1252  0.0397 -0.0200
 2211W        W 5955   4.253   1.545  11.167  0.2418 -0.1205  0.1752
 2212W        W 5956   7.659   3.422  10.995  0.5026  0.1235  0.1428
 2213W        W 5957   0.253   9.310   2.758  0.0327 -0.3170  0.0216
 2214W        W 5958   5.852   0.956  12.798  0.0010 -0.3977  0.0356
 2215W        W 5959   1.765   1.086   8.443 -0.3905 -0.1956  0.0517
 2216W        W 5960   9.077   3.291   8.758 -0.0699 -0.0605  0.0569
 2217W        W 5961   9.537   4.580   3.447  0.2207  0.1514 -0.1764
 2218W        W 5962   4.920   9.853  12.408 -0.1260 -0.0814  0.0317
 2219W        W 5963   6.330   0.283   5.021  0.2586 -0.1155  0.1141
 2220W        W 5964   9.649   2.933   0.918  0.3631 -0.0050  0.1135
 2221W        W 5965   7.846   4.378   0.037 -0.0209  0.0391 -0.1463
 2222W        W 5966   7.848   9.670   8.129 -0.0222 -0.0013 -0.0422
 2223W        W 5967   7.281   3.001   9.063 -0.1779 -0.0808 -0.0034
 2224W        W 5968   3.648   2.748   2.675 -0.0370 -0.0063 -0.1757
 2225W        W 5969   3.683   0.532  10.041  0.0844 -0.2057 -0.2048
 2226W        W 5970   1.294   5.443   9.715 -0.0099  0.2020 -0.2105
 2227W        W 5971   7.439   5.115  11.043 -0.3146 -0.1314 -0.3778
 2228W        W 5972   8.645   8.344   2.107  0.1289 -0.4230  0.2800
 2229W        W 5973   3.549   0.275  12.081 -0.0715 -0.0985  0.2902
 2230W        W 5974   3.546   7.268   9.697 -0.0188  0.0495 -0.3720
 2231W        W 5975   8.758   0.246  11.333 -0.0217  0.2807 -0.1140
 2232W        W 5976   7.661   6.118   3.005  0.1552 -0.1428  0.0990
 2233W        W 5977   3.130   0.321   3.147 -0.0288 -0.2755  0.1136
 2234W        W 5978   1.580   2.250   0.632 -0.0644 -0.0764  0.0384
 2235W        W 5979   1.130   7.962  11.132 -0.1755  0.0229  0.2354
 2236W        W 5980   3.855   8.612   9.788 -0.1720  0.5295  0.1942
 2237W        W 5981   7.964   5.803  11.017 -0.1774  0.1653 -0.1100
 2238W        W 5982   8.071   6.286  10.853  0.0791 -0.0805  0.0513
 2239W        W 5983   1.637   3.551   3.392  0.0791 -0.4949  0.0489
 2240W        W 5984   4.450   4.883   0.722  0.1871 -0.1183  0.2698
 2241W        W 5985   7.475   2.815   8.113 -0.4673  0.0146 -0.1741
 2242W        W 5986   5.534   8.856  11.256  0.0430 -0.1282  0.0518
 2243W        W 5987   6.176   6.831   9.898 -0.0958 -0.2819  0.0523
 2244W        W 5988   1.545   4.910  11.739 -0.0596 -0.0455  0.0471
 2245W        W 5989   8.552   4.016  10.055  0.3064  0.0983  0.2424
 2246W        W 5990   9.568   6.271   1.013 -0.2968 -0.0404 -0.0068
 2247W        W 5991   6.705   5.800   3.093  0.0260  0.0020 -0.0477
 2248W        W 5992   7.070   3.452  12.580  0.0423  0.1054  0.0697
 2249W        W 5993   1.383   4.377   1.631  0.2175 -0.0703 -0.1479
 2250W        W 5994   8.741   5.948   0.402  0.1559  0.2445  0.2760
 2251W        W 5995   9.702   6.049  11.565 -0.0038 -0.0999 -0.0065
 2252W        W 5996   7.759   6.274   2.151  0.3643 -0.0397  0.0404
 2253W        W 5997   6.830   6.353  12.274 -0.2272 -0.0057 -0.0052
 2254W        W 5998   8.178   5.457  10.749 -0.1102 -0.4294  0.0193
 2255W        W 5999   6.162   3.496   0.335  0.2608 -0.1343  0.0807
 2256W        W 6000   9.219   4.705   2.550 -0.0170  0.2437  0.2788
 2257W        W 6001   5.979   7.925   0.074 -0.3470  0.1135 -0.2429
 2258W        W 6002   7.340   3.996  12.603 -0.0640  0.1854  0.1319
 2259W        W 6003   8.350   7.436   3.268 -0.1454  0.2365 -0.0447
 2260W        W 6004   0.285   4.576   0.240 -0.0310  0.0257  0.0371
 2261W        W 6005   2.563   0.126  11.985  0.2235 -0.2318 -0.1513
 2262W        W 6006   8.387   9.429  12.372  0.1085  0.0356 -0.3529
 2263W        W 6007   1.026   8.393   0.118  0.2151  0.3239 -0.0331
 2264W        W 6008   5.934   5.636   1.959  0.0056  0.1475 -0.1571
 2265W        W 6009   6.846   2.690   1.602  0.0815  0.1481 -0.0872
 2266W        W 6010   4.168   3.341  10.395  0.0455  0.1018 -0.1286
 2267W        W 6011   3.700   0.920   1.048 -0.2818  0.1383 -0.1189
 2268W        W 6012   4.773   5.707   0.501 -0.2974 -0.0386  0.1870
 2269W        W 6013   8.599   0.667   1.242  0.0668  0.5166 -0.1838
 2270W        W 6014   9.483   2.739  12.095  0.0871  0.0985 -0.1008
 2271W        W 6015   3.115   6.762   9.453 -0.1604  0.2984  0.0132
 2272W        W 6016   2.172   4.795  10.063 -0.0440  0.1499  0.1922
 2273W        W 6017   6.773   4.789  11.476  0.1612 -0.0928  0.1795
 2274W        W 6018   3.016   8.303  11.400 -0.2194  0.2860  0.1369
 2275W        W 6019   4.497   2.924   7.888  0.1252  0.0267 -0.0885
 2276W        W 6020   5.690   9.515   1.097  0.1035 -0.1287  0.0015
 2277W        W 6021   5.615   6.692   9.928 -0.2438  0.0451 -0.0510
 2278W        W 6022   1.478   5.723   0.992 -0.0654 -0.1934 -0.2735
 2279W        W 6023   6.857   7.191  11.029  0.1417  0.1099  0.5015
 2280W        W 6024   0.961   8.874   2.449  0.1138  0.2625 -0.0203
 2281W        W 6025   1.058   4.068   4.285 -0.0772 -0.4395  0.2222
 2282W        W 6026   3.287   6.517  12.468 -0.1956 -0.1036  0.2537
 2283W        W 6027   4.312   1.766   2.795  0.0497  0.4021  0.1349
 2284W        W 6028   6.168   6.035   2.209  0.0808 -0.3639 -0.1221
 2285W        W 6029   7.222   8.154  12.538  0.0978  0.2824  0.0019
 2286W        W 6030   0.162   4.218   2.533 -0.1243  0.1603 -0.2811
 2287W        W 6031   4.581   7.385   8.447  0.3304  0.0045  0.0348
 2288W        W 6032   4.520   8.061   1.384 -0.3930  0.0176  0.0976
 2289W        W 6033   9.349   2.982  10.545  0.1881  0.1520  0.1087
 2290W        W 6034   6.420   4.892   2.962  0.1987  0.2986  0.2681
 2291W        W 6035   7.101   2.955   0.604  0.2202  0.0826 -0.0430
 2292W        W 6036   8.606   4.753  11.668 -0.0626 -0.3039  0.0797
 2293W        W 6037   2.658   7.183   1.629  0.1978 -0.0915 -0.0810
 2294W        W 6038   0.018   8.115   1.364  0.1998  0.0674 -0.1617
 2295W        W 6039   7.091   9.472   2.779  0.0567 -0.0603 -0.1791
 2296W        W 6040   5.136   4.917   1.558 -0.1436  0.1962  0.2059
 2297W        W 6041   6.696   6.694  11.874  0.1250 -0.0794  0.1643
 2298W        W 6042   6.561   1.132  10.376 -0.1720 -0.1061 -0.2050
 2299W        W 6043   4.885   7.042   1.125 -0.2181 -0.0000 -0.0604
 2300W        W 6044   9.048   2.031   2.397  0.2839 -0.2785  0.0548
 2301W        W 6045   3.477   2.476   0.090 -0.1971  0.0342 -0.0424
 2302W        W 6046   4.040   0.899  10.112 -0.2737  0.0597  0.0808
 2303W        W 6047   4.492   4.593   3.774 -0.1140 -0.0865  0.0160
 2304W        W 6048   1.571   8.005  11.268  0.1075  0.0308  0.1899
 2305W        W 6049   7.910   0.050   2.791  0.0100 -0.2187  0.2976
 2306W        W 6050   0.889   3.915  12.490  0.2396  0.0926  0.1531
 2307W        W 6051   8.398   8.010   9.180 -0.0242  0.1157  0.2153
 2308W        W 6052   9.346   9.464   1.526  0.1978  0.2153 -0.1042
 2309W        W 6053   1.393   8.393   1.724  0.0520 -0.0693  0.1646
 2310W        W 6054   7.171   0.622   0.316  0.3767 -0.4163  0.0771
 2311W        W 6055   6.829   5.128   9.201  0.0604 -0.2676  0.0524
 2312W        W 6056   5.900   0.999  11.596  0.0845  0.3289 -0.0580
 2313W        W 6057   6.564   7.198   0.454  0.3380 -0.1143 -0.0798
 2314W        W 6058   5.784   0.505  10.659 -0.1550  0.0747  0.1948
 2315W        W 6059   1.578   8.557  11.717  0.1485  0.0801 -0.3072
 2316W        W 6060   3.481   2.895   4.562  0.1651 -0.1123 -0.1207
 2317W        W 6061   9.177   9.040   3.382  0.3273 -0.1661 -0.0196
 2318W        W 6062   3.110   4.053   2.767  0.3565 -0.1237 -0.0996
 2319W        W 6063   8.353   2.611   2.413 -0.0498  0.2838 -0.2255
 2320W        W 6064   0.870   6.603  11.458  0.0958  0.0080 -0.0955
 2321W        W 6065   8.733   0.127   1.845  0.0535 -0.1498 -0.4796
 2322W        W 6066   0.098   5.676  10.725 -0.1043  0.0163 -0.2206
 2323W        W 6067   0.385   1.089  11.136 -0.0573  0.1953 -0.1701
 2324W        W 6068   9.852   6.554  10.746 -0.0433  0.2019  0.1003
 2325W        W 6069   6.869   3.960   3.770  0.1129 -0.1884 -0.2097
 2326W        W 6070   1.106   1.102   9.864 -0.1289  0.1425  0.0729
 2327W        W 6071   2.193   8.330  12.032  0.1608  0.0059 -0.0761
 2328W        W 6072   2.808   8.168  11.879 -0.3805 -0.2012 -0.0429
 2329W        W 6073   2.588   2.944   2.150 -0.3200 -0.2790 -0.1921
 2330W        W 6074   1.139   3.466   2.053  0.1171  0.2986 -0.0758
 2331W        W 6075   4.462   2.839   1.431  0.1150 -0.1621 -0.4812
 2332W        W 6076   6.786   7.762  11.375 -0.0125 -0.2450 -0.7101
 2333W        W 6077   2.976   5.392   8.989 -0.1411  0.0890  0.1310
 2334W        W 6078   9.304   1.889   4.500 -0.0469 -0.0100 -0.1267
 2335W        W 6079   2.150   2.858  11.907  0.1126  0.0614 -0.0811
 2336W        W 6080   1.470   8.836   2.389 -0.0331 -0.2591 -0.0811
 2337W        W 6081   8.244   0.781   2.073  0.1059  0.1362 -0.0740
 2338W        W 6082   0.127   2.160   7.795  0.4537  0.0187 -0.1026
 2339W        W 6083   1.189   2.905  11.578 -0.0836  0.2716 -0.3178
 2340W        W 6084   2.219   6.284   0.982 -0.1094 -0.0060 -0.1632
 2341W        W 6085   8.728   9.074   2.682  0.1029  0.1513  0.0122
 2342W        W 6086   5.336   8.519   9.689 -0.0373  0.2643 -0.0245
 2343W        W 6087   4.803   4.919   3.152 -0.1765 -0.2065  0.0806
 2344W        W 6088   9.025   6.789   2.053  0.0738 -0.0577  0.0160
 2345W        W 6089   7.685   6.905  11.608  0.1530 -0.0128  0.2560
 2346W        W 6090   9.256   1.606   7.954  0.1918 -0.1202 -0.0756
 2347W        W 6091   2.935   3.901   1.358 -0.1285 -0.0285  0.0019
 2348W        W 6092   8.934   0.223   1.069  0.0175 -0.1166  0.0689
 2349W        W 6093   7.281   7.002  11.332 -0.0765  0.2213 -0.0473
 2350W        W 6094   0.244   0.995   1.521  0.2478 -0.1052 -0.2305
 2351W        W 6095   6.308   1.091   2.925  0.2634 -0.0838 -0.0106
 2352W        W 6096   3.949   2.528   3.232  0.1425 -0.0838  0.0868
 2353W        W 6097   8.135   1.669   9.861  0.1978 -0.2291  0.3537
 2354W        W 6098   6.236   6.402  10.185  0.1264  0.2746  0.3914
 2355W        W 6099   7.935   5.073   4.397  0.2858 -0.0490  0.0310
 2356W        W 6100   7.589   5.530   1.126  0.0043 -0.1086  0.2450
 2357W        W 6101   1.729   2.545   1.709 -0.0411 -0.1127  0.3342
 2358W        W 6102   8.031   4.519  10.749 -0.0903  0.3013  0.0906
 2359W        W 6103   7.165   6.965  12.330 -0.0998  0.1473 -0.2900
 2360W        W 6104   7.586   6.924   3.700 -0.3329  0.0514 -0.2221
 2361W        W 6105   6.356   6.860  10.351 -0.1185 -0.0054  0.2400
 2362W        W 6106   0.227   3.464   1.440 -0.1649 -0.1498  0.3327
 2363W        W 6107   7.840   7.745  11.160  0.1285 -0.2145 -0.0503
 2364W        W 6108   0.674   4.162   2.450  0.2199  0.2702  0.1550
 2365W        W 6109   3.035   8.367  12.345  0.1608 -0.2332  0.0924
 2366W        W 6110   7.637   9.293   0.613  0.0989  0.0317  0.0524
 2367W        W 6111   4.830   2.553   1.954 -0.3538 -0.3346 -0.2426
 2368W        W 6112   7.732   6.537   0.966 -0.0034  0.2355  0.1656
 2369W        W 6113   6.904   0.823  10.012 -0.0438 -0.0945 -0.1518
 2370W        W 6114   6.353   0.884   2.406  0.1237  0.0586 -0.2052
 2371W        W 6115   7.221   9.495   1.020  0.1881 -0.0094 -0.0697
 2372W        W 6116   4.350   0.430   9.097 -0.0673 -0.1018  0.0206
 2373W        W 6117   4.720   2.350   0.042  0.3275  0.0969  0.2628
 2374W        W 6118   9.027   0.899   8.288  0.1190 -0.1651 -0.3964
 2375W        W 6119   2.968   6.614  11.995  0.0032  0.0516  0.0990
 2376W        W 6120   5.424   3.583  11.820  0.0716  0.0848  0.3476
 2377W        W 6121   6.387   1.150  12.605 -0.0932  0.0418 -0.0667
 2378W        W 6122   2.100   4.301  10.088  0.0057 -0.0549  0.0309
 2379W        W 6123   8.436   1.361   1.973 -0.1592  0.0993  0.2528
 2380W        W 6124   6.034   7.897   1.541 -0.0001  0.2321 -0.1175
 2381W        W 6125   8.299   2.867   8.722 -0.1344 -0.2147  0.3168
 2382W        W 6126   1.321   4.631   8.940 -0.2844  0.0378  0.0141
 2383W        W 6127   7.904   7.410   1.468  0.2067 -0.1591  0.1853
 2384W        W 6128   7.498   1.800   2.996  0.0408 -0.0223  0.1559
 2385W        W 6129   9.024   0.963  10.815 -0.0877  0.0524 -0.2524
 2386W        W 6130   4.293   3.510   8.325  0.0488  0.2800  0.0517
 2387W        W 6131   8.809   5.936   2.307 -0.0742 -0.0164  0.0888
 2388W        W 6132   9.458   2.709   3.243  0.0221 -0.2122 -0.0191
 2389W        W 6133   9.542   6.667   1.376  0.0763  0.3555  0.0435
 2390W        W 6134   9.612   3.324   8.639  0.1522 -0.0370 -0.3649
 2391W        W 6135   4.227   5.327  10.878 -0.0741 -0.0932 -0.1675
 2392W        W 6136   9.361   3.737   8.849  0.1442  0.1001 -0.2208
 2393W        W 6137   4.359   2.278  10.598 -0.2671  0.0381  0.0191
 2394W        W 6138   4.803   2.806  12.498 -0.1697 -0.2560  0.0884
 2395W        W 6139   0.797   1.286  11.310  0.1090  0.0450 -0.0628
 2396W        W 6140   8.092   0.230   3.560  0.0163 -0.0550 -0.3820
 2397W        W 6141   8.237   0.571  11.087 -0.2412 -0.0519 -0.0206
 2398W        W 6142   0.764   5.990   1.632 -0.2879  0.2136  0.4073
 2399W        W 6143   5.635   1.310   3.585 -0.1165  0.0434  0.1246
 2400W        W 6144   2.906   1.456  12.482  0.1705  0.1102 -0.0431
 2401W        W 6145   5.511   7.091   0.321  0.0463  0.2619  0.1392
 2402W        W 6146   1.556   3.020   1.351 -0.1771  0.0306  0.0296
 2403W        W 6147   3.241   5.594   3.940 -0.0141 -0.1541  0.0029
 2404W        W 6148   8.891   6.265   1.890  0.2745 -0.0099 -0.1152
 2405W        W 6149   3.666   4.290   2.110 -0.2187  0.1741  0.1727
 2406W        W 6150   6.092   4.741   8.811  0.0521  0.1377  0.3166
 2407W        W 6151   9.134   7.142  12.798 -0.3072  0.2537 -0.2428
 2408W        W 6152   7.644   8.566  12.133  0.0357  0.0903 -0.6095
 2409W        W 6153   9.149   1.170   2.838  0.0671  0.1070 -0.2261
 2410W        W 6154   7.434   0.355   2.372  0.0441 -0.0129 -0.2241
 2411W        W 6155   8.806   3.257   0.451 -0.3354  0.0593 -0.2988
 2412W        W 6156   1.161   4.859  12.563 -0.2430  0.0780 -0.0553
 2413W        W 6157   8.116   2.254   1.328  0.2293  0.1850  0.1243
 2414W        W 6158   4.753   3.336   2.479 -0.2501  0.1548 -0.0296
 2415W        W 6159   4.219   7.321   1.570 -0.0704  0.1768  0.1233
 2416W        W 6160   5.006   3.912   3.610 -0.2170  0.1524  0.3002
 2417W        W 6161   9.476   8.120  11.576  0.2461  0.1700  0.0018
 2418W        W 6162   0.104   4.882  11.705 -0.2072  0.0947 -0.0812
 2419W        W 6163   2.257   9.654   1.212 -0.1399  0.0986 -0.0513
 2420W        W 6164   2.568   4.544  10.289 -0.1346  0.0666  0.2887
 2421W        W 6165   2.476   2.539  11.574  0.0949 -0.3026  0.1672
 2422W        W 6166   5.911   7.038   9.250 -0.4838  0.1215  0.2337
 2423W        W 6167   8.837   6.365   0.685  0.0209  0.0160  0.2185
 2424W        W 6168   9.595   5.994   1.951 -0.4898  0.1066  0.2644
 2425W        W 6169   0.623   0.884   3.931  0.1065 -0.0234  0.0391
 2426W        W 6170   0.841   9.900   2.321 -0.1302  0.0323  0.3721
 2427W        W 6171   8.685   1.782   3.404  0.0919  0.0855  0.3295
 2428W        W 6172   4.937   8.937  10.539 -0.0086 -0.0556  0.0469
 2429W        W 6173   4.992   9.097  12.240 -0.0025 -0.0993  0.1005
 2430W        W 6174   8.556   1.152   1.186 -0.0570 -0.1029  0.0019
 2431W        W 6175   2.861   1.833   1.166 -0.4025 -0.1481 -0.0982
 2432W        W 6176   0.988   5.218   1.610 -0.0199  0.4088 -0.0869
 2433W        W 6177   3.516   7.051   0.789  0.0518 -0.1887 -0.0369
 2434W        W 6178   8.046   7.457  11.617  0.1153 -0.3346 -0.0286
 2435W        W 6179   4.828   4.085  10.766  0.0033  0.0856  0.0381
 2436W        W 6180   9.224   9.660  10.987  0.0324  0.2095  0.4241
 2437W        W 6181   5.297   6.747   0.650 -0.3331  0.1495  0.3229
 2438W        W 6182   3.337   6.305  11.346 -0.0363 -0.2579  0.1761
 2439W        W 6183   1.398   1.433  11.956 -0.0032 -0.1250 -0.2999
 2440W        W 6184   3.362   8.828   8.580  0.0116 -0.1339  0.2526
 2441W        W 6185   2.046   4.425   3.931 -0.1893 -0.0554 -0.0554
 2442W        W 6186   6.745   8.783   3.652  0.2445 -0.0860 -0.0963
 2443W        W 6187   2.956   3.180  11.368 -0.1042 -0.2341  0.4301
 2444W        W 6188   6.611   7.769   1.127 -0.1016 -0.1681 -0.1236
 2445W        W 6189   3.964   7.043   3.128  0.1348  0.1714  0.2334
 2446W        W 6190   8.586   4.276  11.594 -0.0448  0.2946  0.1200
 2447W        W 6191   2.344   3.353  12.010  0.0213  0.1930  0.0166
 2448W        W 6192   5.136   7.033  12.781 -0.1707  0.4828  0.1512
 2449W        W 6193   6.036   3.916   4.465  0.5104 -0.1352  0.1712
 2450W        W 6194   0.742   7.844   1.798  0.3880 -0.0535  0.0195
 2451W        W 6195   9.615   7.952   0.847  0.1691  0.0273 -0.0151
 2452W        W 6196   3.681   5.483   3.488 -0.1567 -0.1192  0.0544
 2453W        W 6197   8.952   1.228   1.893  0.0618 -0.0574  0.0148
 2454W        W 6198   0.881   7.142   1.373 -0.2764 -0.2126 -0.0202
 2455W        W 6199   3.703   7.695  12.265  0.0550 -0.0934  0.0321
 2456W        W 6200   0.757   0.555   0.706  0.1182 -0.0353  0.1783
 2457W        W 6201   6.658   0.245   1.456 -0.1100  0.3069 -0.4557
 2458W        W 6202   3.450   8.003  11.383  0.0115 -0.2278  0.0909
 2459W        W 6203   4.649   9.485  11.074  0.2959 -0.0112 -0.0729
 2460W        W 6204   4.126   3.573   1.022 -0.0895 -0.4350  0.0308
 2461W        W 6205   8.823   6.921   2.555 -0.1498 -0.3803 -0.0804
 2462W        W 6206   6.316   8.745   1.302  0.0920 -0.0116  0.0262
 2463W        W 6207   3.995   7.035  11.222 -0.1968 -0.2542  0.1881
 2464W        W 6208   2.317   0.270  10.430 -0.2032  0.0857  0.0558
 2465W        W 6209   2.703   4.507   0.227  0.0942  0.1214  0.2293
 2466W        W 6210   7.231   6.224   2.116 -0.0266  0.2213 -0.2207
 2467W        W 6211   9.328   6.516  11.587 -0.2128  0.0932  0.0456
 2468W        W 6212   4.951   0.482  10.660  0.0914  0.1496  0.0057
 2469W        W 6213   6.944   6.330   3.495  0.0267  0.2290  0.0217
 2470W        W 6214   9.480   6.522   9.682 -0.1206 -0.1689  0.0189
 2471W        W 6215   8.648   9.365  11.581 -0.1782  0.1470 -0.1469
 2472W        W 6216   0.587   3.589  12.685 -0.3137  0.1686 -0.2022
 2473W        W 6217   9.814   2.248   9.113 -0.0533 -0.2770  0.0270
 2474W        W 6218   1.040   1.434   1.975  0.4582 -0.2189  0.0743
 2475W        W 6219   4.469   0.301   1.229 -0.1369 -0.0847 -0.0528
 2476W        W 6220   3.190   4.427   2.267 -0.0631 -0.0820  0.0938
 2477W        W 6221   8.116   2.210   4.688 -0.2706  0.1985 -0.0168
 2478W        W 6222   0.312   3.666   3.544 -0.2683  0.0304 -0.0790
 2479W        W 6223   6.644   5.234  11.676  0.0149 -0.0280  0.2957
 2480W        W 6224   8.002   7.618   0.129  0.0736 -0.1708  0.2730
 2481W        W 6225   1.912   5.081  10.903 -0.0737  0.0653  0.1794
 2482W        W 6226   3.353   8.480   1.131 -0.0320  0.2253 -0.1143
 2483W        W 6227   8.472   4.635  11.132  0.2440  0.0277  0.2121
 2484W        W 6228   7.735   4.039   2.243 -0.1934  0.1593  0.0757
 2485W        W 6229   0.741   7.246   9.371 -0.0036 -0.2104 -0.0703
 2486W        W 6230   9.699   7.264  10.442  0.1079  0.1748 -0.0216
 2487W        W 6231   2.548   6.518   1.674 -0.0788 -0.0847 -0.0850
 2488W        W 6232   7.757   7.742   3.700 -0.3469  0.1654 -0.0491
 2489W        W 6233   1.883   3.421   1.631  0.1447 -0.0655  0.1504
 2490W        W 6234   3.557   4.259   0.580 -0.1695  0.0441 -0.2332
 2491W        W 6235   9.372   5.001   2.161  0.0976 -0.0394  0.1897
 2492W        W 6236   6.412   6.161   1.817 -0.1922 -0.1918 -0.2902
 2493W        W 6237   4.739   4.539   9.834  0.0742  0.1124  0.1385
 2494W        W 6238   7.293   6.866   0.141  0.0073 -0.1547  0.4607
 2495W        W 6239   3.640   4.112   8.820 -0.0113 -0.1920  0.0233
 2496W        W 6240   0.037   3.992   3.123  0.1575 -0.1312 -0.2217
 2497W        W 6241   3.700   2.145   8.445 -0.0594  0.1977  0.3851
 2498W        W 6242   6.892   4.192   9.561 -0.2494 -0.0098 -0.0417
 2499W        W 6243   9.300   6.061  11.222  0.0704  0.3071  0.1665
 2500W        W 6244   0.845   3.463   0.665 -0.0653 -0.1849 -0.1486
 2501W        W 6245   6.729   2.355  11.161  0.0029 -0.0037  0.1138
 2502W        W 6246   7.467   3.118  12.539  0.3568  0.1615 -0.1968
 2503W        W 6247   6.625   6.992  12.240 -0.4582  0.0731  0.0005
 2504W        W 6248   2.142   6.641   8.984 -0.2437  0.0032 -0.0615
 2505W        W 6249   6.688   6.218   0.104 -0.2411 -0.0859 -0.3116
 2506W        W 6250   1.853   5.870  12.646 -0.1748  0.0093  0.0613
 2507W        W 6251   5.749   2.678   1.684  0.2408 -0.0481 -0.4679
 2508W        W 6252   3.019   7.354   2.049 -0.1054 -0.1834  0.3184
 2509W        W 6253   8.678   3.935   4.306  0.2042  0.5861 -0.5749
 2510W        W 6254   8.130   4.612  11.521  0.2252  0.0098  0.1066
 2511W        W 6255   6.785   4.538  12.370 -0.0010 -0.0549  0.0761
 2512W        W 6256   7.259   0.947  11.638 -0.5267  0.1215 -0.0908
 2513W        W 6257   4.420   9.791   9.049 -0.1970  0.2233 -0.0932
 2514W        W 6258   5.924   9.254   3.805  0.1878  0.2751  0.0916
 2515W        W 6259   7.753   1.090  10.276 -0.2092 -0.3147  0.1413
 2516W        W 6260   2.524   6.919   0.611 -0.1123 -0.2060 -0.4085
 2517W        W 6261   6.619   7.773   2.018 -0.3071  0.1748  0.0726
 2518W        W 6262   7.883   7.496   2.016  0.1777  0.1344  0.1437
 2519W        W 6263   6.980   9.303   1.412 -0.1773  0.2983 -0.0829
 2520W        W 6264   4.220   9.702   2.224  0.0275  0.2605 -0.2653
 2521W        W 6265   6.953   2.030   2.307  0.2362 -0.0485 -0.4445
 2522W        W 6266   5.494   6.302   9.507 -0.1083 -0.1159  0.1613
 2523W        W 6267   7.432   6.591   2.811 -0.0532  0.0240 -0.2143
 2524W        W 6268   3.140   5.214  10.906  0.2167 -0.0206 -0.4670
 2525W        W 6269   6.171   2.784  11.747 -0.0800  0.1612 -0.0035
 2526W        W 6270   7.958   7.049  12.000  0.5051 -0.0489  0.0277
 2527W        W 6271   5.321   7.913   0.041  0.3240  0.0314 -0.2751
 2528W        W 6272   8.632   1.163   8.502 -0.2484  0.1335 -0.1649
 2529W        W 6273   3.990   8.406   8.872 -0.0041 -0.2605  0.0629
 2530W        W 6274   5.234   1.373   2.405  0.3713 -0.0811 -0.0147
 2531W        W 6275   7.725   0.065   1.315 -0.0394 -0.1162 -0.0389
 2532W        W 6276   4.795   1.976   4.334 -0.2608 -0.1804 -0.1810
 2533W        W 6277   1.286   9.801   3.539  0.1788  0.0070  0.0269
 2534W        W 6278   4.335   1.915   1.379 -0.1601  0.1608 -0.0210
 2535W        W 6279   3.125   0.457   0.615 -0.0861 -0.0271 -0.0589
 2536W        W 6280   5.286   3.751   3.980  0.1316  0.2623 -0.1300
 2537W        W 6281   1.190   4.294   0.785  0.2280  0.1784  0.0512
 2538W        W 6282   6.173   9.356  12.180  0.2637 -0.1644 -0.0810
 2539W        W 6283   8.555   8.619  10.211  0.0333  0.0911 -0.1015
 2540W        W 6284   4.393   8.491   9.324  0.3375 -0.0859  0.0577
 2541W        W 6285   1.624   4.629  10.860 -0.1932 -0.0223 -0.1772
 2542W        W 6286   1.635   6.564  11.715 -0.2432  0.0158  0.1375
 2543W        W 6287   1.921   4.576  11.885  0.3579 -0.1145 -0.1717
 2544W        W 6288   1.076   1.776   3.227 -0.2803  0.4459 -0.1920
 2545W        W 6289   2.607   1.739   4.662 -0.4747  0.0599  0.0078
 2546W        W 6290   1.119   5.737   1.950  0.1766 -0.0279  0.1290
 2547W        W 6291   0.765   0.096   1.362 -0.0225 -0.1949  0.0756
 2548W        W 6292   4.266   5.983   4.165  0.2807 -0.0975  0.2028
 2549W        W 6293   7.196   1.941  11.705 -0.1148 -0.2946 -0.0861
 2550W        W 6294   1.712   2.745  12.262  0.4854  0.1043 -0.2090
 2551W        W 6295   3.732   7.236  12.686 -0.5114 -0.2739 -0.2956
 2552W        W 6296   8.845   6.881   3.456  0.1819  0.0659  0.2959
 2553W        W 6297   9.298   8.604  10.852 -0.0727 -0.2013  0.3955
 2554W        W 6298   0.887   7.257   0.360 -0.1017  0.2948  0.1924
 2555W        W 6299   8.897   7.027  10.593 -0.0728  0.1209  0.0572
 2556W        W 6300   4.621   6.678   0.846 -0.0303 -0.0971 -0.0830
 2557W        W 6301   2.771   7.670  10.961 -0.1175  0.0645  0.2254
 2558W        W 6302   5.711   4.641   1.622  0.2711 -0.1406 -0.3268
 2559W        W 6303   5.509   3.736   4.600  0.1178  0.3816 -0.2167
 2560W        W 6304   1.349   9.790   2.199 -0.0135  0.3793 -0.0368
 2561W        W 6305   3.103   9.052   2.512  0.0500  0.1009  0.1477
 2562W        W 6306   3.335   1.213   9.934 -0.1608 -0.1943  0.1468
 2563W        W 6307   9.747   4.237   1.414 -0.2077  0.3015  0.2455
 2564W        W 6308   8.631   9.710  11.977 -0.0581  0.0328  0.2387
 2565W        W 6309   5.645   8.961   3.430  0.0559 -0.0539  0.1958
 2566W        W 6310   7.257   3.865   1.469 -0.0818  0.1199  0.3401
 2567W        W 6311   4.046   6.145   9.596 -0.1897  0.0855  0.0111
 2568W        W 6312   6.796   1.269   2.806  0.1101 -0.0828  0.2209
 2569W        W 6313   0.411   9.542  11.479  0.1474  0.0549  0.1888
 2570W        W 6314   1.908   6.640   0.140  0.1684  0.0831  0.0241
 2571W        W 6315   6.987   6.618   3.025  0.0960 -0.0853  0.2484
 2572W        W 6316   6.524   3.881   9.094 -0.0693  0.0491  0.3753
 2573W        W 6317   6.034   0.574   2.090 -0.2353 -0.3170  0.1223
 2574W        W 6318   0.970   3.053   1.722  0.0266  0.1383 -0.1130
 2575W        W 6319   9.263   7.174   3.598  0.2423 -0.0445 -0.1835
 2576W        W 6320   7.450   3.931   0.780 -0.2085  0.3149 -0.3969
 2577W        W 6321   8.985   2.578   1.646  0.0078 -0.4919  0.2043
 2578W        W 6322   8.755   5.910   4.350 -0.1879  0.0301  0.2003
 2579W        W 6323   2.223   0.695   2.305 -0.0286 -0.3698 -0.2817
 2580W        W 6324   0.160   4.347   1.120  0.1675  0.0091  0.0282
 2581W        W 6325   8.988   7.979  10.270 -0.1920 -0.0396 -0.1366
 2582W        W 6326   2.690   1.989   4.067  0.1853 -0.0039  0.2577
 2583W        W 6327   8.973   1.732   9.374  0.0739  0.2455 -0.0762
 2584W        W 6328   8.986   6.471  10.443  0.1155 -0.0421  0.1491
 2585W        W 6329   8.560   8.420   1.541 -0.1361 -0.0305  0.3522
 2586W        W 6330   9.114   1.361   8.419  0.0973 -0.5031 -0.2014
 2587W        W 6331   4.903   7.194   2.790 -0.2295  0.2523 -0.1404
 2588W        W 6332   7.479   7.646   1.669 -0.2798 -0.0859 -0.1269
 2589W        W 6333   9.784   0.825   4.529 -0.0534  0.2814 -0.0552
 2590W        W 6334   3.591   4.379  11.039 -0.0174 -0.0103 -0.0653
 2591W        W 6335   1.435   1.329   0.880  0.3459 -0.0004  0.2699
 2592W        W 6336   1.221   2.977  10.942  0.1048 -0.0255  0.2449
 2593W        W 6337   7.776   2.977  10.800 -0.1990 -0.3200 -0.1143
 2594W        W 6338   1.656   5.115   2.433 -0.0169 -0.1910  0.0037
 2595W        W 6339   6.487   4.680  11.037  0.0987 -0.2564  0.0753
 2596W        W 6340   1.950   9.126  11.558 -0.3338  0.0974  0.3447
 2597W        W 6341   3.638   9.233  10.789 -0.0099 -0.0042 -0.1044
 2598W        W 6342   5.446   5.843   3.769  0.0254 -0.0513 -0.4609
 2599W        W 6343   3.154   3.131   2.312 -0.2962  0.0221  0.1852
 2600W        W 6344   5.788   0.814  10.100 -0.0562 -0.2146  0.1805
 2601W        W 6345   0.446   2.400  11.201 -0.0858  0.1403 -0.0238
 2602W        W 6346   1.242   7.549   0.154 -0.0019  0.0656 -0.2624
 2603W        W 6347   4.672   2.599   5.008 -0.3158  0.1129  0.0165
 2604W        W 6348   3.507   7.799   0.291 -0.1464 -0.1028 -0.0021
 2605W        W 6349   1.307   3.837   0.019  0.1873 -0.1571 -0.3455
 2606W        W 6350   7.983   2.803   4.069  0.1638  0.0795 -0.1501
 2607W        W 6351   3.531   7.393   2.113 -0.0276  0.0412 -0.2973
 2608W        W 6352   2.211   4.011   0.832  0.0333  0.1023 -0.0403
 2609W        W 6353   5.713   9.765   2.490 -0.1833  0.1423 -0.0027
 2610W        W 6354   3.329   6.073   2.796  0.0509 -0.0429  0.2160
 2611W        W 6355   7.248   6.146   0.260 -0.0345 -0.0909  0.0742
 2612W        W 6356   9.604   5.855   2.922 -0.0008  0.0887 -0.2519
 2613W        W 6357   5.937   3.517   9.711  0.1822  0.3358 -0.1808
 2614W        W 6358   3.736   1.203  12.439 -0.0261  0.1731 -0.3987
 2615W        W 6359   9.263   6.811  10.185 -0.0185 -0.2448 -0.0083
 2616W        W 6360   4.291   6.724  10.924  0.0317  0.0066 -0.0867
 2617W        W 6361   2.726   0.529   0.282  0.0255 -0.1933 -0.2130
 2618W        W 6362   0.166   5.520   1.101  0.3405  0.2328  0.0453
 2619W        W 6363   0.082   6.465   4.042 -0.0827 -0.0359 -0.1259
 2620W        W 6364   7.833   5.074  11.598 -0.2969  0.2830 -0.0336
 2621W        W 6365   2.369   2.067   0.561  0.1720  0.2976 -0.0630
 2622W        W 6366   7.798   5.045   0.088  0.2497  0.1851 -0.1960
 2623W        W 6367   3.066   6.937   2.806 -0.1700 -0.0357 -0.0455
 2624W        W 6368   8.524   7.270  11.695  0.0459 -0.0546  0.1952
 2625W        W 6369   6.661   9.545   8.046  0.0386  0.1363 -0.2819
 2626W        W 6370   3.821   5.799   2.622  0.3613  0.1563  0.0955
 2627W        W 6371   8.124   0.836  11.523  0.0627  0.2429  0.1272
 2628W        W 6372   8.818   7.829  11.446 -0.0401 -0.1985  0.2202
 2629W        W 6373   2.888   7.773  11.506  0.1102  0.1703  0.2075
 2630W        W 6374   1.300   5.490  10.493  0.1036  0.1137  0.0061
 2631W        W 6375   8.525   4.028   3.383 -0.0413  0.3097 -0.2972
 2632W        W 6376   7.720   8.930  12.494  0.0833  0.0784  0.0458
 2633W        W 6377   9.582   7.189  11.698 -0.2704 -0.1327 -0.1055
 2634W        W 6378   1.707   9.084  12.331  0.2023  0.2571  0.0529
 2635W        W 6379   2.995   2.642   9.841 -0.1171  0.0580  0.2888
 2636W        W 6380   1.007   2.312   0.262  0.1703  0.0374 -0.2139
 2637W        W 6381   4.722   1.932   0.419  0.1171  0.5988  0.2997
 2638W        W 6382   9.320   1.621   0.715 -0.0380  0.1462 -0.1353
 2639W        W 6383   3.287   3.347  11.040 -0.0624  0.0389  0.1482
 2640W        W 6384   8.136   9.355  10.101  0.4089 -0.2679  0.1280
 2641W        W 6385   2.576   1.695   9.230 -0.0038  0.1534 -0.0679
 2642W        W 6386   9.750   7.973  12.435  0.1543 -0.5421 -0.2071
 2643W        W 6387   8.022   2.074  10.664 -0.0513  0.3379  0.0004
 2644W        W 6388   7.507   4.457   1.892 -0.0866 -0.4077 -0.1822
 2645W        W 6389   4.437   1.831   3.270 -0.2928  0.0927 -0.1537
 2646W        W 6390   0.956   1.878   9.188 -0.2742  0.2831 -0.1573
 2647W        W 6391   6.902   0.900  12.783 -0.0308 -0.1557 -0.0281
 2648W        W 6392   3.136   3.611  10.640  0.1062 -0.1306 -0.0252
 2649W        W 6393   9.730   2.835  10.816 -0.0895  0.1294 -0.0067
 2650W        W 6394   6.685   7.133   9.815  0.0301  0.0474 -0.1115
 2651W        W 6395   2.887   1.295  11.947 -0.0133 -0.1920 -0.2077
 2652W        W 6396   8.418   7.970   1.394  0.1066 -0.0362  0.0987
 2653W        W 6397   6.298   3.133   9.917 -0.0416 -0.1785  0.1770
 2654W        W 6398   1.642   1.879   9.514  0.2732  0.0785 -0.1833
 2655W        W 6399   8.017   9.708  12.192 -0.0482 -0.3225  0.1832
 2656W        W 6400   1.362   6.880   1.261  0.0333  0.0206  0.0728
 2657W        W 6401   7.245   4.947   4.419  0.0941  0.1024 -0.2503
 2658W        W 6402   2.808   0.096  10.194  0.0861 -0.1235 -0.0428
 2659W        W 6403   1.435   0.081   0.252  0.0274  0.1962  0.1702
 2660W        W 6404   4.110   1.987   8.128  0.2264 -0.0125  0.0367
 2661W        W 6405   3.510   9.548  11.947  0.2428 -0.0019  0.2132
 2662W        W 6406   3.681   2.246   1.488 -0.0281  0.0352 -0.1056
 2663W        W 6407   1.248   1.589   9.595 -0.0900  0.1929 -0.0015
 2664W        W 6408   0.607   7.146  12.766 -0.1986  0.0485 -0.0667
 2665W        W 6409   3.450   9.912   3.216 -0.1747 -0.2703  0.1521
 2666W        W 6410   8.887   2.105   8.389 -0.0948  0.1613  0.1154
 2667W        W 6411   7.996   6.461   4.536 -0.0614  0.2998  0.0414
 2668W        W 6412   0.789   3.009  10.617  0.0356 -0.3185  0.2860
 2669W        W 6413   6.212   4.383  10.696  0.1577  0.0157  0.0409
 2670W        W 6414   5.019   8.082   2.600 -0.2612 -0.2821 -0.0040
 2671W        W 6415   0.476   2.484   3.254 -0.0113 -0.0625  0.1506
 2672W        W 6416   3.623   1.558   0.430  0.2651 -0.2640  0.2614
 2673W        W 6417   9.945   8.933   1.959  0.0356 -0.0937  0.4414
 2674W        W 6418   9.651   9.516   0.229  0.0084 -0.1229 -0.1851
 2675W        W 6419   2.662   8.065   3.163 -0.2569 -0.1384  0.0465
 2676W        W 6420   1.135   9.588   0.201  0.0243 -0.0787 -0.3498
 2677W        W 6421   1.049   1.688  11.645  0.1257  0.3387  0.0098
 2678W        W 6422   2.175   2.995   9.293 -0.0167 -0.0371  0.0818
 2679W        W 6423   2.570   4.404   3.996  0.0466  0.0584 -0.0382
 2680W        W 6424   6.858   1.449   4.624  0.0631  0.0029  0.4076
 2681W        W 6425   7.101   3.458   8.701  0.0174 -0.0531  0.0391
 2682W        W 6426   3.531   3.316   0.407  0.4409 -0.2972  0.2566
 2683W        W 6427   0.495   7.700  12.515  0.4141  0.1687 -0.0283
 2684W        W 6428   5.888   5.914  12.280 -0.0713  0.1498  0.2020
 2685W        W 6429   2.967   8.205   2.780 -0.2934  0.1188  0.2537
 2686W        W 6430   1.111   9.657   1.250 -0.0956 -0.3713  0.0715
 2687W        W 6431   7.245   4.167   0.401 -0.5343  0.2331  0.5574
 2688W        W 6432   8.647   9.846   4.978 -0.0406 -0.0567  0.2564
 2689W        W 6433   4.191   0.088   4.958  0.1887  0.1102  0.0503
 2690W        W 6434   3.264   7.904   9.287 -0.4420 -0.1514  0.1731
 2691W        W 6435   4.840   9.538   8.950  0.0556 -0.0215  0.1075
 2692W        W 6436   9.666   4.915  12.333 -0.0463 -0.3270 -0.3507
 2693W        W 6437   6.345   4.107   3.056  0.0204 -0.0225  0.1244
 2694W        W 6438   5.666   2.332   2.922 -0.1597  0.3263  0.1822
 2695W        W 6439   0.248   4.895   1.103 -0.1184 -0.0672  0.0014
 2696W        W 6440   3.981   4.817  10.801  0.3256  0.2697 -0.2977
 2697W        W 6441   4.358   7.746  10.614  0.3352  0.0728 -0.1655
 2698W        W 6442   5.893   5.483  10.555 -0.0996  0.2765 -0.0327
 2699W        W 6443   1.728   9.851  11.764  0.0798 -0.0661 -0.2021
 2700W        W 6444   3.743   4.292   1.066 -0.1868 -0.1173  0.1287
 2701W        W 6445   9.186   0.977   3.310 -0.1461 -0.1428  0.0024
 2702W        W 6446   8.842   6.027   3.631 -0.1581 -0.1074 -0.2697
 2703W        W 6447   0.508   2.803   2.450  0.0033  0.2079  0.2758
 2704W        W 6448   6.630   3.280  12.586 -0.1653 -0.0350  0.0956
 2705W        W 6449   2.124   5.096   8.856  0.0961 -0.3837 -0.0942
 2706W        W 6450   1.590   1.858  11.783  0.0166 -0.1965 -0.4759
 2707W        W 6451   8.076   4.442   4.089 -0.2382  0.0325 -0.4621
 2708W        W 6452   9.192   0.607   1.112 -0.2534 -0.4325  0.3078
 2709W        W 6453   0.804   6.365   3.414  0.2049 -0.0919 -0.1725
 2710W        W 6454   9.522   1.389   2.591 -0.1384  0.1533 -0.2371
 2711W        W 6455   8.879   8.105  12.691  0.2569  0.2875 -0.0346
 2712W        W 6456   4.726   1.672   3.679 -0.3539 -0.1583 -0.3871
 2713W        W 6457   6.484   6.997   1.231 -0.4270 -0.4329 -0.4333
 2714W        W 6458   4.299   8.515  12.439 -0.0821 -0.0794  0.0914
 2715W        W 6459   5.801   6.173   1.753  0.1956  0.0680 -0.0332
 2716W        W 6460   9.948   6.226   2.973  0.1773  0.1541  0.0148
 2717W        W 6461   0.364   9.397   3.377 -0.1440 -0.1741  0.0670
 2718W        W 6462   4.836   8.234  11.391 -0.1802  0.2559  0.2408
 2719W        W 6463   5.386   8.986   9.707  0.3251  0.1379 -0.1175
 2720W        W 6464   0.188   2.539   1.578  0.0530 -0.0966  0.0250
 2721W        W 6465   1.274   6.339  10.300  0.0145 -0.0882 -0.0148
 2722W        W 6466   8.326   7.517   1.768 -0.1134  0.0001  0.0909
 2723W        W 6467   1.060   3.194   8.658 -0.1839  0.1667 -0.1319
 2724W        W 6468   1.153   2.815   9.116 -0.0918 -0.3491 -0.3182
 2725W        W 6469   5.241   8.938   4.398 -0.1923  0.1278 -0.0689
 2726W        W 6470   3.811   8.360  12.590 -0.0043  0.1113 -0.3280
 2727W        W 6471   7.143   1.952  11.207  0.1177 -0.1041 -0.0005
 2728W        W 6472   1.330   3.917   3.121 -0.1164 -0.2114 -0.1744
 2729W        W 6473   3.888   2.608   1.211 -0.2834 -0.0315  0.1828
 2730W        W 6474   0.599   3.103   0.904  0.3058  0.3286 -0.4008
 2731W        W 6475   4.736   5.950   9.187 -0.3307 -0.2079 -0.3355
 2732W        W 6476   5.876   1.996   0.004 -0.0713 -0.0706  0.2691
 2733W        W 6477   8.622   4.137   2.708  0.2168 -0.2265  0.0208
 2734W        W 6478   9.360   8.162   4.039 -0.0508 -0.0271  0.0868
 2735W        W 6479   6.894   9.062   0.096 -0.0470 -0.0432  0.2843
 2736W        W 6480   2.783   8.200  10.949  0.4902 -0.0795 -0.1509
 2737W        W 6481   4.630   3.061   3.647 -0.1438 -0.1871  0.4624
 2738W        W 6482   4.331   9.020   9.404 -0.1146  0.1308 -0.0599
 2739W        W 6483   1.382   1.019  12.710  0.2138  0.2544  0.2826
 2740W        W 6484   7.655   3.278  11.721 -0.1339 -0.0018 -0.0252
 2741W        W 6485   8.165   2.308   1.886  0.0962  0.0250  0.3678
 2742W        W 6486   3.002   5.476   0.224  0.0805  0.1310 -0.2044
 2743W        W 6487   4.496   7.350  11.910  0.0509  0.0658  0.1919
 2744W        W 6488   5.213   5.427   0.654  0.1581  0.2780  0.0420
 2745W        W 6489   7.402   6.884  10.877 -0.1002  0.2500 -0.0530
 2746W        W 6490   7.638   6.896   9.342  0.2389  0.0802 -0.2764
 2747W        W 6491   3.247   4.889   3.432 -0.1628 -0.0493 -0.0389
 2748W        W 6492   8.387   5.468   1.415  0.2647 -0.2397  0.0617
 2749W        W 6493   7.661   9.529  11.834 -0.0300  0.1639  0.0576
 2750W        W 6494   1.363   7.863   1.622 -0.0576 -0.0422 -0.2778
 2751W        W 6495   4.877   0.262   3.657  0.3240  0.0391  0.2671
 2752W        W 6496   3.208   4.571   0.943 -0.3232 -0.1503  0.1223
 2753W        W 6497   3.035   4.394  10.493  0.1003  0.2206 -0.3479
 2754W        W 6498   3.313   7.000  10.046 -0.0662 -0.2661  0.1616
 2755W        W 6499   4.848   2.154  11.146  0.0682  0.1158 -0.0089
 2756W        W 6500   7.526   1.753   8.313  0.0055 -0.2792 -0.0746
 2757W        W 6501   1.364   2.757   0.755  0.0855  0.0495 -0.0193
 2758W        W 6502   4.359   6.946  12.286 -0.1311 -0.1256 -0.1373
 2759W        W 6503   9.225   6.786   0.907  0.2310  0.0655 -0.3202
 2760W        W 6504   2.116   7.467   1.153 -0.4716 -0.1073 -0.3404
 2761W        W 6505   5.951   9.931   0.691  0.0196  0.2255  0.0294
 2762W        W 6506   3.541   0.778  11.101  0.1124 -0.2278  0.1262
 2763W        W 6507   9.242   9.608  12.663 -0.1945  0.0278  0.2674
 2764W        W 6508   3.529   7.451  10.165 -0.0283  0.0800 -0.0486
 2765W        W 6509   1.625   4.248   2.804 -0.2109 -0.2355  0.1110
 2766W        W 6510   4.093   8.147   2.106 -0.2228 -0.3093  0.0766
 2767W        W 6511   6.046   7.455   3.382  0.1026 -0.1059  0.1504
 2768W        W 6512   8.374   8.172   3.816  0.0724 -0.4115 -0.2814
 2769W        W 6513   8.061   4.744   0.371  0.0841  0.2381 -0.0603
 2770W        W 6514   4.212   6.443  10.007 -0.1240 -0.2000  0.1025
 2771W        W 6515   9.130   8.549   3.504  0.1057 -0.0212  0.4846
 2772W        W 6516   4.145   6.342   1.815 -0.2377  0.0135 -0.1315
 2773W        W 6517   6.611   4.385   3.630  0.0984  0.3296  0.2618
 2774W        W 6518   4.557   4.019   3.371  0.0465 -0.1291  0.1036
 2775W        W 6519   3.480   8.228   2.943  0.1808  0.1059  0.1036
 2776W        W 6520   4.161   8.847  11.394  0.1058 -0.2832 -0.0049
 2777W        W 6521   1.278   0.894   3.349  0.1810 -0.0021 -0.0671
 2778W        W 6522   0.490   4.722   0.676 -0.2306  0.2595 -0.0670
 2779W        W 6523   5.225   8.576   2.009 -0.1773 -0.0340  0.0262
 2780W        W 6524   1.659   1.076  11.257  0.1626  0.1000 -0.1575
 2781W        W 6525   9.172   2.887   1.239 -0.3912 -0.0132 -0.1653
 2782W        W 6526   4.820   8.366   9.699 -0.1934  0.1355 -0.0595
 2783W        W 6527   8.332   3.035   0.334  0.1732 -0.2233 -0.3215
 2784W        W 6528   1.112   7.988   2.106 -0.2815 -0.0455  0.2430
 2785W        W 6529   5.933   2.072   9.703 -0.3737  0.0750  0.5093
 2786W        W 6530   4.601   7.811  11.667  0.2914  0.2219 -0.1190
 2787W        W 6531   9.319   3.836   0.552 -0.1255  0.0267  0.2647
 2788W        W 6532   7.995   8.639   2.399  0.2255  0.2148  0.2184
 2789W        W 6533   1.515   8.377   2.224 -0.1086 -0.3591 -0.0654
 2790W        W 6534   3.703   9.631   0.770 -0.2391  0.0521 -0.0803
 2791W        W 6535   9.652   1.849  10.441 -0.1607 -0.0307  0.0253
 2792W        W 6536   4.245   2.459  11.033  0.1230 -0.0072 -0.1938
 2793W        W 6537   7.423   7.290  11.980  0.0516 -0.0443  0.2556
 2794W        W 6538   0.502   5.334   0.788 -0.0090  0.1096  0.3188
 2795W        W 6539   4.177   4.751   2.481 -0.2393 -0.0652 -0.2290
 2796W        W 6540   4.653   6.261  10.122  0.1050  0.2601 -0.1753
 2797W        W 6541   2.138   6.134   8.774 -0.1163 -0.1072 -0.0201
 2798W        W 6542   4.219   2.439  12.461  0.1104 -0.0176  0.1683
 2799W        W 6543   6.293   6.581   3.865  0.0988  0.2686  0.1753
 2800W        W 6544   2.290   4.031   3.577  0.0405  0.0549  0.0685
 2801W        W 6545   4.101   3.717  12.228  0.0192  0.2219 -0.0432
 2802W        W 6546   6.860   7.124  12.710 -0.2379 -0.0429  0.2948
 2803W        W 6547   2.922   7.584   9.145 -0.0844  0.0264 -0.1597
 2804W        W 6548   2.825   4.986   1.494  0.0925 -0.0321  0.2312
 2805W        W 6549   2.185   1.061   9.743  0.0259  0.3785  0.0476
 2806W        W 6550   9.422   4.273  10.974 -0.0434 -0.0782  0.1635
 2807W        W 6551   2.709   1.350   0.531  0.1014 -0.2360 -0.1865
 2808W        W 6552   6.622   9.711  12.212 -0.1031  0.1953 -0.0395
 2809W        W 6553   3.378   3.501  11.940  0.1437 -0.1722 -0.4969
 2810W        W 6554   2.918   6.286   3.058  0.0780  0.1492 -0.1165
 2811W        W 6555   3.969   1.439  10.177 -0.1130  0.1454 -0.0563
 2812W        W 6556   4.319   0.960  11.144 -0.1059  0.0556  0.1781
 2813W        W 6557   6.657   0.549   3.800 -0.0794 -0.1923 -0.0596
 2814W        W 6558   3.346   8.509   9.970 -0.1488  0.0434 -0.2036
 2815W        W 6559   9.936   1.485   3.541  0.1317  0.2481 -0.2526
 2816W        W 6560   9.275   6.949  11.313  0.0098 -0.3714  0.2148
 2817W        W 6561   5.328   2.924   0.860 -0.0579  0.3111  0.0556
 2818W        W 6562   1.021   9.001   3.794 -0.0230  0.2082 -0.0747
 2819W        W 6563   5.490   9.952   9.984 -0.1478 -0.1614 -0.2236
 2820W        W 6564   2.050   0.139   4.469  0.1809 -0.0932  0.1850
 2821W        W 6565   1.459   7.355   1.609  0.2714 -0.1429  0.0454
 2822W        W 6566   5.096   6.280   9.788 -0.2277 -0.1781  0.1298
 2823W        W 6567   1.903   8.024  10.506 -0.1327  0.1899 -0.0863
 2824W        W 6568   6.236   2.278  11.265 -0.0264  0.0990  0.0598
 2825W        W 6569   6.259   2.435   8.006  0.2185  0.0813 -0.2952
 2826W        W 6570   5.567   1.077   8.275 -0.2847 -0.1298  0.0861
 2827W        W 6571   7.757   6.433   0.475 -0.1420  0.2863 -0.3221
 2828W        W 6572   6.444   0.411   2.420  0.1838  0.0988  0.0517
 2829W        W 6573   8.010   8.118   1.114 -0.0483 -0.1457 -0.2248
 2830W        W 6574   4.695   3.128   8.273 -0.0301 -0.1399 -0.3549
 2831W        W 6575   4.776   1.229   9.428  0.1242  0.3012 -0.2842
 2832W        W 6576   0.424   3.130  11.477 -0.1704 -0.3153  0.1834
 2833W        W 6577   8.416   8.973   1.529 -0.3547  0.0156  0.3219
 2834W        W 6578   8.405   5.940  10.809 -0.1234  0.1336 -0.1494
 2835W        W 6579   6.169   0.595   8.882  0.0420  0.1276 -0.2928
 2836W        W 6580   5.315   1.861   2.232  0.3648 -0.0751 -0.0528
 2837W        W 6581   6.998   6.443   1.147 -0.0948 -0.0344 -0.3354
 2838W        W 6582   2.518   3.652  12.515 -0.0432  0.2520  0.0396
 2839W        W 6583   8.520   8.158  11.061  0.1014 -0.2480 -0.1233
 2840W        W 6584   7.293   9.149  10.360 -0.3377  0.0954 -0.2249
 2841W        W 6585   5.119   2.877  10.758 -0.0778  0.2928 -0.2127
 2842W        W 6586   6.413   2.567   8.534 -0.1327  0.2665  0.0370
 2843W        W 6587   3.535   4.521   0.119 -0.2044 -0.2676  0.1203
 2844W        W 6588   4.902   4.407   3.480  0.1984  0.3727  0.1522
 2845W        W 6589   5.237   9.218   1.136 -0.0149  0.2465  0.1033
 2846W        W 6590   2.226   5.746  10.147 -0.0797  0.1044  0.1196
 2847W        W 6591   4.298   4.906   2.933 -0.2040  0.0937  0.0301
 2848W        W 6592   4.605   3.287  12.417 -0.3431  0.1122 -0.1589
 2849W        W 6593   2.841   2.224   1.970  0.2963 -0.3111 -0.2994
 2850W        W 6594   9.824   1.169   9.946 -0.3047  0.2457  0.2936
 2851W        W 6595   3.314   2.513   8.723  0.0201  0.0496  0.2958
 2852W        W 6596   6.837   3.288   0.890  0.0466  0.1775 -0.0399
 2853W        W 6597   5.317   0.444   0.129  0.1777  0.3185 -0.2593
 2854W        W 6598   1.974   1.798   9.022 -0.3952 -0.0338  0.2769
 2855W        W 6599   4.943   2.030   1.935  0.2170 -0.1337 -0.1773
 2856W        W 6600   3.972   5.677   9.786 -0.1786 -0.1343  0.1631
 2857W        W 6601   1.008   3.792   9.896 -0.1330  0.0601  0.2388
 2858W        W 6602   1.991   7.626  11.159  0.0570 -0.4074  0.5254
 2859W        W 6603   2.389   7.688   9.108  0.1331  0.3159 -0.0868
 2860W        W 6604   9.090   9.449   4.633  0.3873  0.1122  0.0135
 2861W        W 6605   5.381   3.896  10.844  0.0228  0.1030 -0.1334
 2862W        W 6606   8.296   2.962   1.059 -0.1403  0.1507  0.3254
 2863W        W 6607   0.486   2.197   0.121  0.0516  0.0546 -0.1938
 2864W        W 6608   4.850   4.263   8.271 -0.1102  0.4042  0.0108
 2865W        W 6609   5.416   6.465   4.364  0.4149  0.1688  0.4736
 2866W        W 6610   8.822   5.052   9.299  0.1132 -0.2262  0.1474
 2867W        W 6611   3.872   0.592  11.842  0.0985  0.2190 -0.1662
 2868W        W 6612   5.740   8.211   4.638 -0.2053 -0.1387 -0.2429
 2869W        W 6613   5.102   6.669   2.759  0.1710  0.0898  0.0322
 2870W        W 6614   5.046   7.971  11.976 -0.0401 -0.2273 -0.1565
 2871W        W 6615   7.395   7.322   3.465  0.0652  0.2198  0.0689
 2872W        W 6616   7.534   1.999  10.697  0.0740 -0.1951  0.1612
 2873W        W 6617   0.216   2.547   2.074  0.3413  0.3020 -0.1361
 2874W        W 6618   9.159   4.164   2.771  0.1930 -0.0865 -0.1155
 2875W        W 6619   2.901   8.728   9.854  0.0432  0.1644  0.4154
 2876W        W 6620   5.949   3.023   0.473 -0.0880 -0.0516  0.0957
 2877W        W 6621   8.142   0.380   1.228  0.0804  0.0800  0.2424
 2878W        W 6622   9.305   8.451   9.888 -0.2879  0.0732 -0.0054
 2879W        W 6623   8.150   0.004   4.027  0.3694  0.0632  0.0606
 2880W        W 6624   6.040   4.405  10.226 -0.2755 -0.4368  0.0851
 2881W        W 6625   4.446   4.647  11.523 -0.0021  0.2893  0.0704
 2882W        W 6626   2.774   8.702   2.885  0.2910  0.0794  0.2965
 2883W        W 6627   2.417   3.818   9.090  0.0328  0.0317 -0.0094
 2884W        W 6628   2.095   5.636   2.597 -0.1744 -0.2121  0.2296
 2885W        W 6629   6.789   4.631   9.932 -0.2795 -0.1948  0.0046
 2886W        W 6630   2.318   6.529  10.606 -0.2885  0.1989 -0.2083
 2887W        W 6631   7.599   6.696   9.973 -0.1027  0.1638  0.0815
 2888W        W 6632   3.819   0.951  11.528 -0.2505 -0.0805  0.3588
 2889W        W 6633   5.620   6.955   1.157 -0.1309  0.0309  0.1732
 2890W        W 6634   1.201   9.071   0.576  0.2673 -0.4951 -0.1234
 2891W        W 6635   8.965   8.055   3.722 -0.3185 -0.1783 -0.1561
 2892W        W 6636   1.996   5.412   2.095 -0.3851 -0.1641 -0.1982
 2893W        W 6637   9.384   6.813  12.010  0.0653 -0.2249  0.4241
 2894W        W 6638   6.190   1.572   1.262 -0.3300 -0.0323 -0.0606
 2895W        W 6639   9.279   7.989   2.831  0.1383 -0.2632 -0.1330
 2896W        W 6640   2.221   1.851   3.643  0.1423 -0.3184 -0.3729
 2897W        W 6641   7.275   4.262   3.083 -0.1425  0.0451  0.2749
 2898W        W 6642   0.532   6.335  11.038  0.0398 -0.2850  0.1984
 2899W        W 6643   2.821   4.634   3.384 -0.3355 -0.1199 -0.0707
 2900W        W 6644   3.451   4.646  10.141 -0.1612  0.0400  0.0120
 2901W        W 6645   6.733   7.278   2.246  0.1063  0.2855  0.2190
 2902W        W 6646   0.190   9.802  12.017 -0.2924 -0.2738  0.2702
 2903W        W 6647   2.471   6.979  10.542 -0.0579 -0.0034 -0.0294
 2904W        W 6648   3.851   7.642  10.497 -0.0881  0.1547 -0.0567
 2905W        W 6649   9.080   1.418  11.618 -0.0515 -0.2147 -0.0700
 2906W        W 6650   7.040   7.786   0.028 -0.2867  0.1037  0.0961
 2907W        W 6651   9.157   0.017   9.698  0.5242 -0.1358 -0.1486
 2908W        W 6652   4.634   2.559   9.405 -0.0353  0.3781  0.0676
 2909W        W 6653   0.508   1.691  12.068  0.1658 -0.2626 -0.1890
 2910W        W 6654   5.564   0.499   9.813 -0.1179 -0.2181  0.0532
 2911W        W 6655   1.725   4.266  10.498 -0.3375  0.0784 -0.3534
 2912W        W 6656   9.565   3.182   2.992  0.2867  0.2047 -0.0769
 2913W        W 6657   1.929   8.496  10.048  0.1768 -0.1519 -0.1417
 2914W        W 6658   5.037   5.551   2.847 -0.1052 -0.2436 -0.4216
 2915W        W 6659   5.920   8.302   2.620 -0.2269  0.0242 -0.1403
 2916W        W 6660   6.936   4.575   0.432 -0.2250  0.0453  0.1189
 2917W        W 6661   3.536   9.914   8.782  0.1976 -0.0412 -0.0122
 2918W        W 6662   2.026   7.743   0.456 -0.0597  0.2036  0.1146
 2919W        W 6663   3.445   2.671   3.156  0.1189 -0.0154 -0.1813
 2920W        W 6664   9.098   9.367   1.114 -0.0188 -0.1244  0.3999
 2921W        W 6665   7.221   0.141  10.113 -0.0467  0.3425 -0.0404
 2922W        W 6666   2.801   2.183  11.169 -0.1446 -0.0328  0.4383
 2923W        W 6667   1.837   4.563   0.239  0.1446 -0.1002 -0.3928
 2924W        W 6668   2.270   8.488  12.516  0.0609 -0.4090 -0.0159
 2925W        W 6669   4.286   5.122  11.798  0.2727  0.2771 -0.0854
 2926W        W 6670   9.064   8.981   9.154  0.1186 -0.4077  0.2329
 2927W        W 6671   7.638   7.892  12.721  0.2031 -0.2401  0.3527
 2928W        W 6672   2.082   7.489  11.733 -0.0333 -0.2198 -0.2964
 2929W        W 6673   6.187   4.719   3.699  0.0967 -0.2481  0.1097
 2930W        W 6674   8.971   4.252   3.256  0.1970 -0.2367  0.1890
 2931W        W 6675   8.301   0.085  11.113 -0.1233  0.0138 -0.0379
 2932W        W 6676   8.573   1.242   0.191  0.2434 -0.0780 -0.1414
 2933W        W 6677   5.111   7.229   2.220  0.0477 -0.0844  0.2599
 2934W        W 6678   9.498   3.259  11.942 -0.0822 -0.2110  0.2494
 2935W        W 6679   8.038   8.129   0.119 -0.2289 -0.0500  0.3320
 2936W        W 6680   8.754   0.704   3.473 -0.1830 -0.1391  0.1673
 2937W        W 6681   1.672   7.342   0.350  0.2747  0.1142 -0.0697
 2938W        W 6682   8.964   7.376  11.362 -0.0946  0.2795  0.1970
 2939W        W 6683   2.670   1.785   2.146 -0.2322 -0.0594 -0.1999
 2940W        W 6684   6.168   3.544   0.836 -0.2156  0.0067  0.0294
 2941W        W 6685   5.671   7.098   4.434 -0.0523  0.2981 -0.1310
 2942W        W 6686   3.746   6.063  10.015  0.1608 -0.2144 -0.2577
 2943W        W 6687   4.449   8.586   2.045 -0.0566  0.3038  0.5375
 2944W        W 6688   5.370   0.402  10.964 -0.0786  0.0975  0.4900
 2945W        W 6689   4.315   2.429   4.653 -0.0491 -0.0253  0.0921
 2946W        W 6690   7.759   2.508  10.853 -0.1596 -0.1151  0.1470
 2947W        W 6691   0.252   8.510   1.789  0.1760  0.0259  0.0426
 2948W        W 6692   6.402   7.344  10.169  0.1123 -0.2060  0.1808
 2949W        W 6693   7.850   4.354  12.166  0.0822 -0.0456 -0.2075
 2950W        W 6694   4.268   9.057   0.431  0.4525  0.1710  0.5848
 2951W        W 6695   3.137   0.446  11.185 -0.1031 -0.1479 -0.1710
 2952W        W 6696   1.917   1.916   9.967 -0.1420  0.0131  0.1151
 2953W        W 6697   4.735   1.481  11.286 -0.0446 -0.2478  0.2466
 2954W        W 6698   4.978   1.535   4.077  0.2268 -0.0762  0.1398
 2955W        W 6699   0.194   3.066   2.771  0.0301  0.2617 -0.1906
 2956W        W 6700   6.735   4.354  10.721  0.1047 -0.3005 -0.0528
 2957W        W 6701   7.391   0.723   4.336  0.0763 -0.1499 -0.2280
 2958W        W 6702   4.640   8.029   9.318 -0.1098  0.3546 -0.0251
 2959W        W 6703   7.245   2.486  11.990 -0.1929 -0.0394  0.2181
 2960W        W 6704   5.347   1.097  12.350 -0.1384 -0.1529 -0.0477
 2961W        W 6705   0.996   8.976   0.096  0.2523  0.1558 -0.3192
 2962W        W 6706   4.273   2.527  11.967  0.2194 -0.2337  0.1384
 2963W        W 6707   5.099   4.805   2.431  0.2788 -0.0242  0.1251
 2964W        W 6708   8.729   3.772  12.392  0.1384 -0.0987  0.0072
 2965W        W 6709   7.501   1.042   0.787 -0.0663  0.0017  0.0138
 2966W        W 6710   6.155   7.001   4.761 -0.1609 -0.0362 -0.0704
 2967W        W 6711   5.233   3.370  10.839  0.0928  0.0460  0.1039
 2968W        W 6712   9.742   5.218   9.780 -0.0672 -0.0232  0.0799
 2969W        W 6713   0.086   7.199   1.581 -0.0919  0.1401 -0.1072
 2970W        W 6714   2.997   1.603   1.745 -0.2526 -0.1178 -0.1063
 2971W        W 6715   8.047   3.128  12.646  0.0766  0.3592  0.0830
 2972W        W 6716   6.853   3.126   3.790  0.3941 -0.0292 -0.0433
 2973W        W 6717   1.620   9.299   3.954 -0.1929  0.1689  0.0176
 2974W        W 6718   2.592   9.946   2.501  0.0580 -0.0102 -0.2805
 2975W        W 6719   9.456   1.566  12.587 -0.2682 -0.0678 -0.0557
 2976W        W 6720   1.775   9.634   9.224  0.0925  0.3673 -0.1300
 2977W        W 6721   5.414   9.275   8.331 -0.2106  0.2751  0.0253
 2978W        W 6722   8.826   0.494   9.097  0.0227 -0.1737 -0.0351
 2979W        W 6723   6.493   4.670   4.971 -0.3722 -0.1470  0.1737
 2980W        W 6724   2.318   3.292   1.773 -0.1240 -0.0560  0.2113
 2981W        W 6725   6.016   9.645   7.678 -0.6215  0.2082 -0.0840
 2982W        W 6726   2.235   0.845   1.516  0.1608  0.0955 -0.2439
 2983W        W 6727   3.035   5.716   8.603 -0.2987  0.3984  0.0093
 2984W        W 6728   3.394   5.888   3.525 -0.2142 -0.1189 -0.0765
 2985W        W 6729   1.189   5.895   2.474 -0.1139  0.0490 -0.0474
 2986W        W 6730   4.143   6.522   1.318 -0.0664  0.4933 -0.4331
 2987W        W 6731   3.351   4.233  12.379  0.1495  0.1562  0.1026
 2988W        W 6732   8.115   2.135   0.857  0.3959  0.1377 -0.2089
 2989W        W 6733   0.281   6.480   0.701  0.0555  0.1079 -0.0626
 2990W        W 6734   0.413   4.105   1.970  0.0464 -0.3094 -0.1177
 2991W        W 6735   4.685   1.574  12.262  0.2753  0.0476  0.0853
 2992W        W 6736   4.177   7.895   9.529 -0.2946  0.3572  0.0344
 2993W        W 6737   3.124   3.323  12.461  0.1351 -0.3184 -0.0759
 2994W        W 6738   1.991   2.872  10.898  0.3758  0.0223  0.1453
 2995W        W 6739   3.737   5.531   2.130 -0.0826 -0.1251  0.0878
 2996W        W 6740   3.755   5.041   3.287 -0.4105  0.0204 -0.3230
 2997W        W 6741   7.571   6.168  10.194 -0.0638  0.1646  0.0157
 2998W        W 6742   3.248   2.177  10.763 -0.0559  0.1288  0.0609
 2999W        W 6743   3.945   6.188   0.644 -0.2178  0.1741  0.1237
 3000W        W 6744   6.545   3.113   8.499 -0.0939 -0.1555 -0.0959
 3001W        W 6745   9.724   7.957   1.804  0.1322  0.0641  0.2421
 3002W        W 6746   9.239   5.504   0.765  0.3359 -0.0516 -0.1442
 3003W        W 6747   7.933   0.775   1.645 -0.0757 -0.0126  0.0887
 3004W        W 6748   2.249   7.289   3.184 -0.2869 -0.1272  0.1827
 3005W        W 6749   8.903   9.337  12.411 -0.1166 -0.1596 -0.1374
 3006W        W 6750   3.695   5.094  10.085 -0.0809 -0.0007  0.0689
 3007W        W 6751   0.162   3.100   3.608  0.0864 -0.0589  0.1559
 3008W        W 6752   0.330   5.624   0.292 -0.2834 -0.0501  0.0446
 3009W        W 6753   1.009   5.528   0.897  0.2796 -0.1393  0.0781
 3010W        W 6754   5.396   1.185   2.831  0.0658 -0.1280 -0.1293
 3011W        W 6755   9.062   4.653   1.954  0.0560  0.0458 -0.0077
 3012W        W 6756   5.105   6.497  12.043  0.0236  0.0204  0.2274
 3013W        W 6757   6.196   2.348  12.665 -0.2545 -0.0366 -0.4936
 3014W        W 6758   5.740   0.307   9.218 -0.3711  0.1396 -0.1017
 3015W        W 6759   6.117   2.602   9.872 -0.0902  0.1934  0.1847
 3016W        W 6760   1.075   3.667   1.046  0.0989 -0.0651  0.1243
 3017W        W 6761   0.010   4.574   0.652 -0.2178  0.2326 -0.2625
 3018W        W 6762   2.698   0.281  10.767 -0.0305  0.0722  0.2417
 3019W        W 6763   3.184   0.555  11.897 -0.2675 -0.1536  0.1964
 3020W        W 6764   0.598   9.263   9.247  0.0942 -0.0504 -0.2037
 3021W        W 6765   3.290   3.616   1.749  0.1151 -0.2740  0.0137
 3022W        W 6766   7.017   4.064   1.870  0.1791 -0.0473 -0.0482
 3023W        W 6767   4.896   7.277   4.147 -0.0913  0.0787 -0.1504
 3024W        W 6768   9.941   2.484   3.377 -0.0729  0.1348  0.1681
 3025W        W 6769   7.010   3.511   4.086 -0.1655  0.3415 -0.3041
 3026W        W 6770   1.160   2.702   1.319  0.0269  0.1123 -0.1272
 3027W        W 6771   1.691   0.074   8.901  0.1223  0.1091 -0.0001
 3028W        W 6772   5.151   9.915  10.750 -0.1215  0.0787  0.0345
 3029W        W 6773   1.000   9.396   2.568  0.0672 -0.0522  0.0074
 3030W        W 6774   7.987   9.660   9.550 -0.0330  0.1648  0.0416
 3031W        W 6775   5.454   8.010   0.503 -0.0493  0.0585  0.0413
 3032W        W 6776   7.517   0.439   9.206  0.0810 -0.1958  0.2141
 3033W        W 6777   6.667   8.464  10.868 -0.1780 -0.1034 -0.2956
 3034W        W 6778   7.195   0.134   0.254 -0.1181 -0.0555 -0.1205
 3035W        W 6779   4.540   6.509   2.008 -0.1120 -0.0728 -0.0768
 3036W        W 6780   5.938   4.851   0.347  0.0189  0.1823 -0.2705
 3037W        W 6781   3.119   9.419  10.916 -0.2997  0.3219  0.2597
 3038W        W 6782   1.806   9.331  10.844  0.2966  0.0963  0.0168
 3039W        W 6783   7.531   6.202   1.276  0.2468  0.0044 -0.1432
 3040W        W 6784   5.982   2.636   1.215  0.2554 -0.4492 -0.0759
 3041W        W 6785   6.087   2.187   3.155  0.1476 -0.3913  0.1116
 3042W        W 6786   3.578   8.243   2.371  0.0573  0.0233 -0.3536
 3043W        W 6787   8.781   8.924   0.298 -0.0345 -0.2070  0.0056
 3044W        W 6788   9.505   6.737   3.412 -0.1379  0.0429 -0.2488
 3045W        W 6789   7.659   7.011   2.617 -0.2596  0.2535 -0.1787
 3046W        W 6790   5.937   2.789  11.243 -0.4145 -0.1213  0.0992
 3047W        W 6791   4.576   3.439  11.461 -0.1511  0.2691  0.1133
 3048W        W 6792   7.700   0.562  11.598  0.1332 -0.2322 -0.0976
 3049W        W 6793   5.630   7.262   2.225  0.2774 -0.2595  0.4425
 3050W        W 6794   4.477   4.667   8.803  0.0731 -0.0472  0.1206
 3051W        W 6795   0.352   2.774   4.020  0.4110  0.5539  0.1471
 3052W        W 6796   1.215   7.497   0.650  0.1822  0.0509  0.2075
 3053W        W 6797   8.641   3.722   9.634  0.2527 -0.1034 -0.2540
 3054W        W 6798   2.306   5.755   9.123 -0.1040 -0.0310  0.0836
 3055W        W 6799   7.320   3.308   0.204 -0.0333 -0.0406  0.0025
 3056W        W 6800   1.437   7.652  10.863 -0.2490  0.1046 -0.1487
 3057W        W 6801   3.163   0.329   8.891 -0.2239 -0.2237 -0.2491
 3058W        W 6802   3.357   7.356  12.182 -0.2610  0.0563  0.1079
 3059W        W 6803   1.276   6.826   3.103  0.0945  0.0558 -0.1862
 3060W        W 6804   9.486   1.202   0.541  0.0461 -0.1306  0.2737
 3061W        W 6805   4.192   4.292   3.511  0.0114 -0.0007 -0.2718
 3062W        W 6806   1.432   2.601   3.013  0.1706 -0.0059 -0.1880
 3063W        W 6807   7.592   2.890  10.239  0.1192  0.1855 -0.1764
 3064W        W 6808   7.504   4.295  10.389 -0.1428 -0.0792  0.0042
 3065W        W 6809   9.231   8.595  11.897 -0.1896 -0.0615  0.2647
 3066W        W 6810   2.860   7.813   1.564 -0.1664 -0.0866  0.2536
 3067W        W 6811   7.223   5.162  10.561 -0.0648 -0.0719 -0.2054
 3068W        W 6812   2.268   1.543  10.035 -0.1766  0.1868 -0.0018
 3069W        W 6813   5.971   2.235   1.534 -0.0784 -0.1217  0.3302
 3070W        W 6814   8.887   5.750   9.968  0.4283  0.2022 -0.2856
 3071W        W 6815   2.187   6.802  12.542  0.3093  0.3916  0.2151
 3072W        W 6816   4.244   1.112  10.493 -0.1427 -0.0172 -0.3540
 3073W        W 6817   3.305   1.929   8.689 -0.0582 -0.2108 -0.0052
 3074W        W 6818   9.920   3.044   1.745 -0.1990 -0.2424  0.0697
 3075W        W 6819   8.458   5.199   2.013 -0.1421 -0.2489  0.1027
 3076W        W 6820   0.038   6.747   2.450 -0.1797 -0.2532 -0.1868
 3077W        W 6821   0.023   7.615   3.716  0.1615  0.1261  0.3323
 3078W        W 6822   3.379   4.252   3.701 -0.0542 -0.0515  0.0143
 3079W        W 6823   2.749   5.596   2.328 -0.1878 -0.0909  0.1223
 3080W        W 6824   0.177   2.821   0.762  0.3051  0.1595  0.1125
 3081W        W 6825   9.177   5.099  10.765  0.0705  0.0197  0.1469
 3082W        W 6826   2.315   0.761   3.234 -0.0566  0.1871 -0.2943
 3083W        W 6827   3.688   6.099   3.140 -0.0778  0.2487 -0.1804
 3084W        W 6828   2.731   6.601   3.617  0.1055  0.0333 -0.2655
 3085W        W 6829   2.689   7.925   8.677  0.0202 -0.2495  0.3373
 3086W        W 6830   5.803   4.504  11.631 -0.1849 -0.0145  0.3607
 3087W        W 6831   2.187   5.643   1.699  0.3558 -0.2152  0.2175
 3088W        W 6832   1.334   9.572  10.526 -0.0398 -0.1300 -0.1502
 3089W        W 6833   6.197   0.752   0.614  0.2192 -0.5144 -0.1876
 3090W        W 6834   8.028   6.764   3.499  0.1022  0.1950  0.0447
 3091W        W 6835   9.257   0.412  10.081 -0.5604  0.0396 -0.0781
 3092W        W 6836   5.405   9.423  10.188 -0.0065  0.1534  0.1821
 3093W        W 6837   7.110   9.535   0.177  0.0146 -0.0972 -0.0281
 3094W        W 6838   8.276   8.620   1.887 -0.0988 -0.1832 -0.3942
 3095W        W 6839   6.656   0.820   5.106  0.0974 -0.2208 -0.1812
 3096W        W 6840   6.782   3.319   2.581  0.1115 -0.1560  0.0790
 3097W        W 6841   5.320   3.858   0.661 -0.1256 -0.3053  0.0145
 3098W        W 6842   3.096   4.896  10.474 -0.2338 -0.0993  0.0161
 3099W        W 6843   4.664   3.225   4.291 -0.1360  0.0500  0.0048
 3100W        W 6844   2.199   6.740   2.675 -0.1270 -0.1972  0.0801
 3101W        W 6845   2.693   8.799   1.669  0.2151 -0.4138 -0.1674
 3102W        W 6846   5.409   8.084   3.164  0.2870 -0.1962  0.4326
 3103W        W 6847   8.346   7.877   9.666  0.0655  0.0587 -0.0167
 3104W        W 6848   9.081   9.533   2.493 -0.1591 -0.1158  0.1311
 3105W        W 6849   9.679   0.263  10.366 -0.0606 -0.0849 -0.3943
 3106W        W 6850   7.030   1.501  11.341 -0.1232 -0.1217 -0.0770
 3107W        W 6851   8.267   6.096  12.178 -0.2713  0.0654  0.2224
 3108W        W 6852   7.050   5.397   4.043  0.1441  0.0177  0.0882
 3109W        W 6853   0.688   4.677   3.670 -0.3050  0.1477 -0.2138
 3110W        W 6854   6.525   9.011   0.679 -0.2459 -0.0801  0.2316
 3111W        W 6855   3.204   7.466  11.185 -0.0887 -0.2544  0.1106
 3112W        W 6856   1.588   6.265  10.880 -0.1444 -0.0882  0.2023
 3113W        W 6857   0.878   1.786   1.104 -0.1880 -0.1103 -0.2406
 3114W        W 6858   6.412   8.124   0.231  0.0851 -0.2138 -0.1441
 3115W        W 6859   7.576   2.944   1.013 -0.1379  0.1021  0.0666
 3116W        W 6860   5.337   9.764   4.335 -0.3522  0.1133  0.1922
 3117W        W 6861   3.210   7.375   2.590  0.0079  0.1190 -0.0061
 3118W        W 6862   9.645   0.371   1.313 -0.1087  0.2862  0.1169
 3119W        W 6863   7.222   2.239   0.015 -0.1488 -0.0713 -0.0556
 3120W        W 6864   5.541   7.173  10.759 -0.0581  0.0802 -0.2630
 3121W        W 6865   6.181   9.348   0.515 -0.2848  0.0189 -0.2547
 3122W        W 6866   2.447   6.433  11.126 -0.2434  0.3214 -0.2047
 3123W        W 6867   5.350   6.731   3.397 -0.2755  0.1210 -0.2478
 3124W        W 6868   0.586   6.606   2.356  0.1581 -0.0714 -0.2262
 3125W        W 6869   1.941   0.011  12.695  0.0487  0.0841  0.1363
 3126W        W 6870   1.307   0.214   9.274  0.1855  0.0468 -0.0994
 3127W        W 6871   4.415   2.921   2.447 -0.1187 -0.0609  0.1142
 3128W        W 6872   3.826   6.113   2.070  0.1131  0.1060  0.1348
 3129W        W 6873   8.817   3.106   1.817 -0.1118 -0.1163  0.3590
 3130W        W 6874   9.523   9.373  10.623 -0.1378  0.0125 -0.0892
 3131W        W 6875   6.084   5.304  11.859 -0.0139 -0.0252 -0.1902
 3132W        W 6876   0.715   9.239   2.967  0.1335  0.2226  0.0913
 3133W        W 6877   9.739   5.281   1.288  0.1697  0.0807 -0.0142
 3134W        W 6878   3.051   8.395   3.228 -0.3512 -0.2802 -0.1637
 3135W        W 6879   2.354   9.861   3.500  0.1234  0.0350 -0.4263
 3136W        W 6880   5.553   6.962  10.362  0.0146  0.1406  0.3106
 3137W        W 6881   2.691   4.198   3.125  0.0176  0.0108  0.1041
 3138W        W 6882   5.272   2.894   2.042 -0.0227  0.1400 -0.0530
 3139W        W 6883   6.969   9.021  12.141  0.1268  0.2888  0.0363
 3140W        W 6884   8.964   5.658  11.253 -0.0878  0.0041 -0.2464
 3141W        W 6885   0.035   5.637   9.595  0.2924  0.1555  0.2567
 3142W        W 6886   2.620   2.683   4.179 -0.0092  0.0511 -0.1095
 3143W        W 6887   7.081   9.115   9.317 -0.2877 -0.1996 -0.0423
 3144W        W 6888   4.007   4.493   3.003 -0.2671  0.0899  0.1637
 3145W        W 6889   2.995   0.016   8.536 -0.0937  0.0711 -0.1361
 3146W        W 6890   7.762   1.943   1.585  0.2256 -0.2658 -0.0965
 3147W        W 6891   1.968   3.206  10.298 -0.1561 -0.0892  0.0295
 3148W        W 6892   0.299   0.949   9.896  0.1132  0.0846  0.0006
 3149W        W 6893   5.881   1.545  10.631  0.1007  0.1873 -0.0095
 3150W        W 6894   7.709   9.132   9.987  0.2979  0.1466  0.0836
 3151W        W 6895   3.926   2.125   9.423  0.3300 -0.0661  0.0031
 3152W        W 6896   0.358   9.027   0.240  0.1598 -0.0367  0.2487
 3153W        W 6897   4.988   6.064   0.756 -0.3020 -0.0302 -0.2930
 3154W        W 6898   1.911   8.065  12.482 -0.1396 -0.0365  0.1905
 3155W        W 6899   2.748   3.713   3.382  0.1543  0.0324  0.1309
 3156W        W 6900   6.697   9.860   9.485  0.2010  0.1894  0.1558
 3157W        W 6901   6.026   6.566  11.430 -0.3482  0.3624 -0.0409
 3158W        W 6902   2.604   9.147   0.318  0.0348 -0.2744  0.1275
 3159W        W 6903   0.619   6.054  12.045 -0.0116  0.0311 -0.1708
 3160W        W 6904   8.801   5.635   3.919  0.0500  0.0888  0.1274
 3161W        W 6905   4.108   7.385   9.627  0.0320  0.0747 -0.3652
 3162W        W 6906   1.587   7.874   0.605 -0.0166 -0.0841 -0.0007
 3163W        W 6907   7.751   2.667  12.632 -0.0608  0.0224 -0.0550
 3164W        W 6908   1.990   0.105   1.086  0.2165 -0.3867 -0.2082
 3165W        W 6909   3.987   5.639  11.337  0.2967  0.0360 -0.0303
 3166W        W 6910   9.039   5.081   0.428 -0.1619  0.0509 -0.3615
 3167W        W 6911   2.320   1.389   3.709 -0.2648  0.0323 -0.2104
 3168W        W 6912   3.055   3.949  10.260  0.2712 -0.0663 -0.0291
 3169W        W 6913   4.665   9.797   1.350  0.1919  0.1336 -0.1042
 3170W        W 6914   8.596   3.132  12.712 -0.1586 -0.1126 -0.1511
 3171W        W 6915   2.999   1.806  11.966 -0.0267  0.0005 -0.0863
 3172W        W 6916   8.252   1.256  12.405  0.0701 -0.0011 -0.2468
 3173W        W 6917   7.355   4.429   0.944  0.0395  0.0340 -0.3319
 3174W        W 6918   2.741   8.571   3.866  0.0708 -0.1395  0.2082
 3175W        W 6919   5.858   4.331   0.259  0.2497 -0.0756  0.3572
 3176W        W 6920   1.685   0.783   9.915 -0.1738  0.1121  0.0361
 3177W        W 6921   5.858   4.447   1.170 -0.1442 -0.0166  0.0600
 3178W        W 6922   0.983   0.719   0.282 -0.0737  0.1935 -0.2341
 3179W        W 6923   2.570   4.332  10.820  0.3146 -0.1692 -0.1747
 3180W        W 6924   7.322   5.032  11.750 -0.2227 -0.1746  0.4318
 3181W        W 6925   5.882   4.295   3.383 -0.0788  0.1061 -0.1131
 3182W        W 6926   5.895   0.838   1.046 -0.1765 -0.3372  0.0570
 3183W        W 6927   2.221   5.094  10.487 -0.1995  0.0476 -0.0577
 3184W        W 6928   7.331   7.855  10.840 -0.2822 -0.0387 -0.0027
 3185W        W 6929   8.594   0.083   1.360  0.3700  0.0475  0.0110
 3186W        W 6930   1.476   6.860   2.578  0.2873 -0.0434 -0.4015
 3187W        W 6931   1.581   0.244   9.748 -0.0328 -0.0410  0.0425
 3188W        W 6932   7.863   1.221   8.983 -0.0211  0.3105  0.2956
 3189W        W 6933   9.725   1.680   9.430  0.0852 -0.1121 -0.1741
 3190W        W 6934   2.346   0.062   0.724  0.1462 -0.2473 -0.0158
 3191W        W 6935   4.985   1.211  10.243  0.1180 -0.0934 -0.0809
 3192W        W 6936   1.793   4.403   8.789 -0.2686  0.1629  0.2456
 3193W        W 6937   7.499   5.550  10.486  0.0583 -0.2055 -0.0631
 3194W        W 6938   0.586   4.987   2.461 -0.0851 -0.0049  0.1765
 3195W        W 6939   4.091   7.333  10.167 -0.0735  0.3982 -0.2618
 3196W        W 6940   2.751   2.396   1.350 -0.0772 -0.0788 -0.1856
 3197W        W 6941   0.965   1.143  10.412 -0.1416  0.1121  0.0207
 3198W        W 6942   5.854   0.623   8.012 -0.1806  0.3872  0.0271
 3199W        W 6943   8.685   3.406  11.184  0.0792  0.0060 -0.1690
 3200W        W 6944   9.905   4.195   0.213  0.0338  0.0423 -0.2837
 3201W        W 6945   9.309   2.047  12.062 -0.1270  0.3493  0.1731
 3202W        W 6946   4.349   6.920   9.799 -0.0445 -0.0717  0.0936
 3203W        W 6947   0.464   2.031  10.819  0.0967 -0.3447  0.2229
 3204W        W 6948   7.032   5.587   9.208  0.1428  0.1676 -0.0376
 3205W        W 6949   5.887   4.330   8.500  0.0351 -0.1205  0.1034
 3206W        W 6950   8.756   2.952   0.895 -0.0266 -0.0730  0.2441
 3207W        W 6951   6.882   0.005   1.044 -0.2309  0.1664  0.1503
 3208W        W 6952   5.563   2.645  10.767 -0.1213 -0.0492  0.2930
 3209W        W 6953   6.704   8.957   9.541  0.0630  0.1907 -0.1505
 3210W        W 6954   3.644   5.318  12.682 -0.1002  0.0389  0.2137
 3211W        W 6955   9.200   1.504   1.337 -0.0045  0.2453 -0.1278
 3212W        W 6956   7.340   7.285  12.660  0.2761 -0.3565  0.5762
 3213W        W 6957   2.175   7.755  12.171  0.0591 -0.0225 -0.1660
 3214W        W 6958   3.821   1.631   2.677 -0.1210  0.1109  0.2530
 3215W        W 6959   0.982   9.792  10.978  0.0116  0.0199  0.2164
 3216W        W 6960   1.969   5.894   2.196  0.1110  0.0173  0.0709
 3217W        W 6961   0.502   4.936  10.398 -0.0746 -0.3460 -0.0156
 3218W        W 6962   7.539   5.480   1.657  0.0622 -0.2359  0.1728
 3219W        W 6963   3.935   0.452   1.295  0.2142  0.2071  0.2723
 3220W        W 6964   6.263   0.664  10.421 -0.0091  0.1450 -0.1232
 3221W        W 6965   8.072   2.957   3.511 -0.0498  0.1077  0.1248
 3222W        W 6966   1.781   5.331  10.349  0.1709 -0.0519  0.0457
 3223W        W 6967   4.178   1.289   1.920 -0.3514  0.1781  0.3400
 3224W        W 6968   3.265   2.565   1.424  0.0192  0.0247  0.0492
 3225W        W 6969   4.848   1.487   8.518  0.0162 -0.0275 -0.0783
 3226W        W 6970   2.204   2.849   2.463 -0.0144  0.1859 -0.0380
 3227W        W 6971   3.640   3.989   1.434  0.3152 -0.1798  0.4418
 3228W        W 6972   2.612   9.376   3.408  0.2382  0.0460 -0.1982
 3229W        W 6973   2.651   1.591  10.371 -0.1209 -0.1106  0.1089
 3230W        W 6974   8.497   3.916  10.676  0.1164 -0.1870  0.3199
 3231W        W 6975   3.306   8.077  12.737  0.2090 -0.0584  0.0089
 3232W        W 6976   9.392   8.114  12.705  0.1104 -0.0783  0.2078
 3233W        W 6977   4.840   0.819   9.672 -0.0240  0.0652 -0.0264
 3234W        W 6978   7.725   0.925   3.027  0.0874 -0.0750  0.2138
 3235W        W 6979   9.595   2.130   9.639  0.0135 -0.0162  0.0278
 3236W        W 6980   8.630   2.889   1.434 -0.0024 -0.0744  0.2807
 3237W        W 6981   7.493   9.793  12.738 -0.0986  0.1631  0.1817
 3238W        W 6982   2.149   0.888   2.772 -0.1357 -0.2905  0.0665
 3239W        W 6983   2.969   6.280   9.477 -0.2198  0.3024  0.0804
 3240W        W 6984   0.057   1.348  11.831  0.1166 -0.0560 -0.2342
 3241W        W 6985   8.992   0.422   1.522 -0.3569  0.2029 -0.1841
 3242W        W 6986   1.260   6.488   0.940  0.0211  0.3010  0.1369
 3243W        W 6987   5.600   5.437   9.446 -0.2172  0.5543  0.1293
 3244W        W 6988   4.311   7.987  11.090 -0.1420 -0.2099 -0.1231
 3245W        W 6989   3.516   0.505  11.497 -0.2905 -0.1184  0.2874
 3246W        W 6990   8.965   2.013   0.869  0.0779 -0.0961 -0.5015
 3247W        W 6991   6.050   8.981   2.280  0.2058 -0.2189 -0.0933
 3248W        W 6992   5.140   4.560  12.139  0.0480 -0.2269 -0.0620
 3249W        W 6993   0.216   8.373  11.181 -0.1390 -0.3036 -0.0652
 3250W        W 6994   3.047   0.349  12.314 -0.0902  0.0216 -0.2081
 3251W        W 6995   1.750   6.306  10.144  0.2956  0.0095 -0.1893
 3252W        W 6996   0.770   9.414   1.523 -0.2305  0.1921 -0.0082
 3253W        W 6997   7.155   5.088   0.165 -0.0255 -0.2904  0.4192
 3254W        W 6998   3.212   0.240  10.730  0.1826  0.2140 -0.1180
 3255W        W 6999   8.714   5.369   3.456  0.3227 -0.0016 -0.2162
 3256W        W 7000   2.841   3.217   3.576 -0.0258  0.1318  0.0409
 3257W        W 7001   8.393   7.901  11.732  0.3248  0.0488  0.2128
 3258W        W 7002   6.809   7.023   4.353  0.4142 -0.0223  0.1157
 3259W        W 7003   5.044   1.247   3.624  0.1140 -0.0715  0.2403
 3260W        W 7004   8.292   8.085   1.875  0.0057  0.1893  0.0046
 3261W        W 7005   4.262   1.173   8.598 -0.1051 -0.0586  0.0198
 3262W        W 7006   3.161   7.874  12.295  0.0374  0.2574 -0.0663
 3263W        W 7007   9.323   2.185   7.985  0.3073 -0.0352 -0.0823
 3264W        W 7008   7.775   2.710   2.772  0.0943  0.0048 -0.0144
 3265W        W 7009   9.605   6.330  12.002 -0.2784 -0.0825  0.2319
 3266W        W 7010   3.091   5.602  11.994  0.2049 -0.0706 -0.1915
 3267W        W 7011   8.478   7.865   0.058  0.1580 -0.0767 -0.3023
 3268W        W 7012   3.894   6.817   3.741  0.1155 -0.0715 -0.0791
 3269W        W 7013   7.285   2.457  10.932  0.0007  0.0779 -0.1096
 3270W        W 7014   4.569   8.987  11.070 -0.1359  0.0886  0.2063
 3271W        W 7015   6.382   1.995   1.495  0.0031 -0.0306 -0.0866
 3272W        W 7016   9.100   4.119   1.974 -0.1403 -0.1477 -0.3788
 3273W        W 7017   7.380   5.761   0.635  0.1643  0.2333  0.1334
 3274W        W 7018   1.123   5.477  11.006  0.1596 -0.0041  0.4031
 3275W        W 7019   4.174   0.737   1.990 -0.0877  0.0144 -0.0782
 3276W        W 7020   2.986   4.161  12.790  0.2840  0.3524  0.0106
 3277W        W 7021   1.558   7.968   0.094 -0.1017 -0.0667 -0.1661
 3278W        W 7022   3.502   9.620   2.773  0.3432 -0.1067 -0.2330
 3279W        W 7023   7.365   4.607  12.179 -0.3394  0.0441  0.0289
 3280W        W 7024   0.742   0.290   2.717 -0.0838  0.1402 -0.0593
 3281W        W 7025   5.283   3.629   0.207 -0.2379 -0.1349  0.0853
 3282W        W 7026   5.637   5.937  10.980  0.0341  0.1965  0.1198
 3283W        W 7027   6.029   9.729   3.616  0.1582 -0.1619  0.3327
 3284W        W 7028   6.663   6.872   2.658  0.1072  0.0414  0.0647
 3285W        W 7029   0.961   9.359  11.486  0.1238  0.0026  0.1748
 3286W        W 7030   8.326   0.325   8.914  0.2422 -0.2770 -0.3971
 3287W        W 7031   1.041   4.747   1.431 -0.1159  0.0785 -0.1126
 3288W        W 7032   5.673   4.570   9.344  0.2955  0.0443  0.0281
 3289W        W 7033   0.857   6.375  12.475  0.0890  0.2542 -0.1422
 3290W        W 7034   4.443   0.620   3.121  0.0811  0.2131  0.2509
 3291W        W 7035   6.673   8.445   2.786  0.0192  0.0986  0.0324
 3292W        W 7036   6.705   9.931   8.921 -0.3011  0.1514  0.1155
 3293W        W 7037   0.479   2.941   1.910  0.3210  0.0331  0.1702
 3294W        W 7038   3.664   6.538  10.249  0.0707  0.1387 -0.5567
 3295W        W 7039   0.906   2.266   1.366 -0.1200  0.1175  0.0385
 3296W        W 7040   0.673   7.256   9.871 -0.0472 -0.2827 -0.1094
 3297W        W 7041   9.765   6.067  10.990  0.1881 -0.0763 -0.2194
 3298W        W 7042   3.973   2.428   0.085 -0.1157 -0.0316 -0.0401
 3299W        W 7043   2.089   0.032   3.989 -0.3080  0.0299  0.2284
 3300W        W 7044   4.986   2.016   3.354 -0.4053 -0.0498 -0.2544
 3301W        W 7045   9.904   9.906   2.583  0.1841  0.2079 -0.0596
 3302W        W 7046   9.314   0.518   8.786 -0.2366 -0.1666  0.0346
 3303W        W 7047   4.060   2.242   3.711  0.1696  0.0787 -0.0855
 3304W        W 7048   0.356   4.604   2.232  0.3068  0.0066  0.1800
 3305W        W 7049   5.419   3.356   9.588 -0.3009 -0.0234  0.2446
 3306W        W 7050   1.221   4.241   2.130 -0.0108 -0.0101  0.3970
 3307W        W 7051   7.465   7.321   2.268 -0.2118 -0.2755  0.1659
 3308W        W 7052   2.958   7.096  12.030  0.0211  0.2937 -0.1301
 3309W        W 7053   7.173   2.933   1.275 -0.1052 -0.1005 -0.0930
 3310W        W 7054   5.420   8.942  10.273  0.0293 -0.1628  0.0302
 3311W        W 7055   5.497   3.183   4.064 -0.1632  0.1964  0.2048
 3312W        W 7056   7.527   9.188   1.361 -0.1412  0.0414  0.0178
 3313W        W 7057   9.881   3.807   4.736  0.1355  0.2384  0.2154
 3314W        W 7058   2.369   6.209  10.048 -0.0228 -0.1302 -0.0202
 3315W        W 7059   9.848   0.193  12.166 -0.0888  0.1265 -0.2154
 3316W        W 7060   6.473   9.231   3.563 -0.0467 -0.0891 -0.4491
 3317W        W 7061   8.040   2.584  11.267 -0.3779  0.3871  0.0638
 3318W        W 7062   1.837   3.042   8.913  0.1043 -0.0052 -0.0599
 3319W        W 7063   9.285   2.490   9.311  0.4755 -0.0355  0.0302
 3320W        W 7064   0.174   7.654   1.696 -0.2122 -0.3326 -0.1728
 3321W        W 7065   0.110   2.003  11.956  0.0633  0.3387  0.1292
 3322W        W 7066   2.293   3.139   0.545  0.0566  0.0996  0.1498
 3323W        W 7067   1.582   3.787   9.503 -0.0396  0.0593  0.1355
 3324W        W 7068   8.345   4.515   8.338  0.0215  0.3140  0.5401
 3325W        W 7069   5.691   3.417   8.775  0.2385  0.0718 -0.0550
 3326W        W 7070   7.110   4.765   3.181 -0.3190 -0.0619  0.0753
 3327W        W 7071   7.008   7.517  10.111  0.3271  0.0733  0.0914
 3328W        W 7072   5.349   4.922   4.071 -0.2367  0.0553  0.3136
 3329W        W 7073   9.406   5.030   1.652  0.1583 -0.0233  0.4167
 3330W        W 7074   1.677   4.858  10.420  0.2631 -0.2012 -0.2855
 3331W        W 7075   7.030   6.990  10.251 -0.1847 -0.1600  0.0196
 3332W        W 7076   8.197   5.185   4.942 -0.0597 -0.2376 -0.0606
 3333W        W 7077   2.237   4.280   1.898  0.0723  0.0389 -0.1341
 3334W        W 7078   8.276   9.117   9.570  0.1981  0.1126 -0.0138
 3335W        W 7079   5.516   7.726   0.883  0.1514  0.0137 -0.2479
 3336W        W 7080   3.006   6.372   1.684  0.2719  0.2066  0.0060
 3337W        W 7081   5.233   9.770   2.290  0.0197  0.2366 -0.0978
 3338W        W 7082   2.417   8.959   2.167  0.0129  0.1541 -0.0485
 3339W        W 7083   8.081   2.967   3.020  0.0158 -0.1525  0.0590
 3340W        W 7084   1.946   8.531   2.473  0.3375 -0.3247 -0.1419
 3341W        W 7085   3.996   4.678   1.968  0.0798  0.1954 -0.1884
 3342W        W 7086   6.775   2.847   2.920 -0.2807  0.5001  0.1726
 3343W        W 7087   6.888   5.106  10.186 -0.0664  0.3498  0.1008
 3344W        W 7088   4.397   7.762  10.139 -0.0050 -0.1019 -0.1243
 3345W        W 7089   9.328   0.830   9.817  0.0325  0.1147 -0.0348
 3346W        W 7090   0.690   0.741  10.209 -0.0111 -0.0786  0.1017
 3347W        W 7091   6.368   9.146   4.029  0.0079 -0.0835  0.1469
 3348W        W 7092   2.430   5.224  12.373  0.0850 -0.0496  0.0655
 3349W        W 7093   0.774   0.066   8.723  0.3991  0.1347 -0.1174
 3350W        W 7094   4.010   9.919  12.094 -0.0137 -0.1516  0.0263
 3351W        W 7095   0.202   7.926  12.124  0.0861  0.2636  0.2001
 3352W        W 7096   8.456   0.370   2.172  0.2766  0.2780 -0.2016
 3353W        W 7097   7.755   7.407  12.428  0.3387  0.0963  0.0455
 3354W        W 7098   9.881   0.891  10.645  0.3164 -0.0317 -0.3787
 3355W        W 7099   0.299   9.007  10.118  0.0462 -0.1068 -0.1528
 3356W        W 7100   4.143   3.330   2.853  0.1093  0.0491 -0.1216
 3357W        W 7101   7.336   1.152  11.187 -0.4346 -0.3031 -0.2498
 3358W        W 7102   3.984   1.965   3.125 -0.0081  0.1725 -0.0699
 3359W        W 7103   7.184   2.940  10.641  0.0112  0.0892  0.1925
 3360W        W 7104   0.325   9.569   1.561  0.2287  0.2872  0.4050
 3361W        W 7105   0.211   2.675   8.988  0.0874  0.1622  0.0355
 3362W        W 7106   2.713   6.300  10.391 -0.0586  0.0421 -0.3260
 3363W        W 7107   8.643   8.891   4.181 -0.0397  0.1778 -0.0323
 3364W        W 7108   0.236   8.197   3.040 -0.1990  0.0444 -0.2991
 3365W        W 7109   4.303   8.689  11.891  0.1444 -0.0904 -0.2143
 3366W        W 7110   6.890   8.552   3.201 -0.0660 -0.0697 -0.0262
 3367W        W 7111   5.466   1.816   9.135 -0.2409  0.0506 -0.0309
 3368W        W 7112   2.119   5.861   0.308  0.1079  0.2803 -0.0489
 3369W        W 7113   5.417   0.763   2.451  0.0585  0.6093 -0.0224
 3370W        W 7114   6.925   8.457  12.164  0.3122 -0.2041  0.2052
 3371W        W 7115   0.176   1.813   1.939  0.3420 -0.1417  0.4058
 3372W        W 7116   4.390   0.696   9.567  0.0527  0.1183  0.2395
 3373W        W 7117   0.767   3.820   3.306 -0.1813 -0.1135 -0.3234
 3374W        W 7118   8.564   0.750   0.286  0.3211 -0.3250  0.1160
 3375W        W 7119   9.324   1.456   9.124 -0.2293 -0.0397 -0.1648
 3376W        W 7120   5.665   9.771   1.503 -0.0733  0.3301 -0.0313
 3377W        W 7121   9.731   2.505   0.636  0.0560 -0.0545  0.0842
 3378W        W 7122   6.197   4.972   0.799  0.0010  0.1362 -0.0407
 3379W        W 7123   0.680   5.738  11.686  0.0329  0.3101 -0.1734
 3380W        W 7124   8.477   9.872   8.605 -0.0333  0.2840 -0.1178
 3381W        W 7125   6.183   8.368  10.955  0.0454  0.2200  0.0314
 3382W        W 7126   3.854   4.203   3.847  0.0854  0.2330 -0.0225
 3383W        W 7127   7.921   5.827  11.498 -0.1642  0.0682  0.0996
 3384W        W 7128   0.622   4.608   1.184 -0.2244 -0.2392  0.2420
 3385W        W 7129   4.104   4.211  11.393 -0.0030  0.1681  0.0162
 3386W        W 7130   5.659   0.819   9.141 -0.0995 -0.1671 -0.0520
 3387W        W 7131   3.364   6.425   9.213 -0.1314  0.0328  0.0872
 3388W        W 7132   7.932   9.371   3.257  0.2306 -0.0627 -0.1278
 3389W        W 7133   8.123   1.387   2.370 -0.0099  0.3589  0.0068
 3390W        W 7134   8.055   4.375   2.997  0.2464  0.0361  0.1391
 3391W        W 7135   5.058   9.678  11.194  0.0060  0.0509 -0.0526
 3392W        W 7136   5.116   9.069   3.689  0.0873  0.2139  0.1400
 3393W        W 7137   6.522   5.545   9.338 -0.0988  0.2642 -0.1674
 3394W        W 7138   1.627   6.216   3.814  0.2084  0.2616  0.1652
 3395W        W 7139   0.112   2.102   9.514 -0.1106  0.3028  0.0685
 3396W        W 7140   5.449   1.785  10.568 -0.0006 -0.1109  0.1006
 3397W        W 7141   6.140   5.224   3.553 -0.0162 -0.0510 -0.2083
 3398W        W 7142   7.969   0.761  12.438  0.0781  0.0388  0.0156
 3399W        W 7143   2.710   9.197  10.674 -0.3066 -0.1280 -0.0909
 3400W        W 7144   0.513   2.123   1.895  0.0128  0.0868 -0.0446
 3401W        W 7145   2.519   0.752   9.857  0.2360  0.1974  0.0249
 3402W        W 7146   6.411   9.779  10.767 -0.0625 -0.0059 -0.0498
 3403W        W 7147   9.548   0.108  10.947 -0.3755  0.0289 -0.0077
 3404W        W 7148   8.590   2.708  12.361 -0.1226 -0.0972 -0.0608
 3405W        W 7149   7.641   2.360  12.229  0.1246  0.0823 -0.0700
 3406W        W 7150   5.388   2.185  10.099 -0.1161  0.1023 -0.1756
 3407W        W 7151   4.560   4.058  11.228  0.1623  0.3187  0.0174
 3408W        W 7152   1.013   0.122   9.675  0.1090  0.1327  0.2055
 3409W        W 7153   7.978   2.940   0.683  0.2040 -0.0084 -0.0855
 3410W        W 7154   2.043   1.204   3.232  0.2100 -0.0200 -0.1908
 3411W        W 7155   5.828   8.685  10.512  0.2193  0.0180 -0.4751
 3412W        W 7156   8.868   9.322   1.958  0.2373  0.0415 -0.0481
 3413W        W 7157   7.631   6.062   5.256 -0.1568  0.0657  0.0270
 3414W        W 7158   2.773   2.099  10.273 -0.0592 -0.1610 -0.0706
 3415W        W 7159   3.459   0.494   4.068 -0.0207  0.1285 -0.2938
 3416W        W 7160   3.626   1.265   3.459  0.1103 -0.0081 -0.1484
 3417W        W 7161   7.085   5.381   1.028  0.1313  0.0463  0.1096
 3418W        W 7162   4.544   9.125  11.886  0.0193 -0.0230 -0.2237
 3419W        W 7163   2.237   4.911   3.777 -0.3094  0.1049  0.0164
 3420W        W 7164   5.711   5.039   9.123 -0.0117 -0.1138  0.1622
 3421W        W 7165   4.107   7.162   2.603  0.2415 -0.0978 -0.0411
 3422W        W 7166   1.900   5.810   1.188 -0.1037  0.0576 -0.0989
 3423W        W 7167   0.135   5.893   2.039 -0.0821  0.3120 -0.1117
 3424W        W 7168   9.727   6.928   9.571  0.1064 -0.1390 -0.1635
 3425W        W 7169   8.679   0.390  12.671 -0.1984 -0.0203  0.3084
 3426W        W 7170   4.131   1.740   8.936 -0.0136  0.0594  0.2148
 3427W        W 7171   0.614   9.816   0.096 -0.1702 -0.1254  0.1107
 3428W        W 7172   2.449   6.654   0.156  0.0477 -0.0333 -0.0311
 3429W        W 7173   3.027   6.785   3.279  0.1859 -0.1083 -0.1431
 3430W        W 7174   2.851   9.847   3.226  0.2501  0.1840 -0.2794
 3431W        W 7175   0.673   9.340  11.058 -0.0421  0.1022  0.0365
 3432W        W 7176   5.394   3.671   1.526  0.2184  0.1094  0.2143
 3433W        W 7177   0.228   5.065  12.224 -0.1024 -0.0844 -0.1434
 3434W        W 7178   6.686   7.895   2.880  0.1004 -0.1854 -0.0135
 3435W        W 7179   6.357   1.009  12.016 -0.0337  0.4887  0.1971
 3436W        W 7180   2.403   4.691  12.042  0.0272  0.2219 -0.0231
 3437W        W 7181   0.705   1.025   0.580 -0.0874  0.0120  0.1080
 3438W        W 7182   5.752   4.471   9.820  0.0267  0.0252 -0.2621
 3439W        W 7183   4.809   0.015   8.671  0.1052  0.0918  0.0191
 3440W        W 7184   1.927   8.192  11.644  0.0919 -0.3418  0.0464
 3441W        W 7185   7.579   3.770  10.196  0.1694 -0.1068  0.2224
 3442W        W 7186   4.285   4.775   9.291 -0.0635  0.2019  0.0613
 3443W        W 7187   7.264   0.305   1.242  0.0183 -0.0275  0.0905
 3444W        W 7188   1.293   9.476   1.671 -0.0617  0.0203  0.1217
 3445W        W 7189   0.106   7.194  11.298 -0.0586 -0.1928  0.3583
 3446W        W 7190   7.675   0.348  10.189  0.1150 -0.4747  0.2047
 3447W        W 7191   5.347   2.459   0.571  0.0118 -0.1073  0.0901
 3448W        W 7192   4.641   7.845  12.269  0.1408  0.0423 -0.0864
 3449W        W 7193   3.826   4.975   0.266 -0.0868  0.0844 -0.2113
 3450W        W 7194   8.050   7.055   9.517 -0.4698  0.0515  0.0423
 3451W        W 7195   3.825   8.128   3.859 -0.1625 -0.0510 -0.0606
 3452W        W 7196   8.834   1.499   1.007 -0.1693  0.0593 -0.1253
 3453W        W 7197   6.693   0.776   0.558  0.0832 -0.1225 -0.0644
 3454W        W 7198   3.151   0.547   2.544  0.1885 -0.0283  0.0910
 3455W        W 7199   1.302   5.239   2.044 -0.1440 -0.0931 -0.3954
 3456W        W 7200   5.871   6.826  11.023  0.2476  0.2987 -0.1579
 3457W        W 7201   0.991   5.006  11.173 -0.2220 -0.0294  0.1308
 3458W        W 7202   4.036   4.820   1.233  0.0730 -0.1383  0.2093
 3459W        W 7203   9.272   0.120  12.435  0.2118 -0.1369 -0.1770
 3460W        W 7204   4.697   5.529  10.947 -0.1145  0.0724 -0.1191
 3461W        W 7205   7.112   8.595   9.558  0.0856 -0.0011  0.0421
 3462W        W 7206   9.021   2.779   2.124 -0.1865  0.4952  0.0990
 3463W        W 7207   5.907   2.485   8.704  0.2952  0.0388 -0.0898
 3464W        W 7208   3.957   8.238   9.353  0.1812 -0.0430 -0.0952
 3465W        W 7209   0.712   0.798  11.034 -0.1127  0.4336 -0.0017
 3466W        W 7210   5.652   5.839   9.704 -0.2056 -0.0747  0.0871
 3467W        W 7211   6.661   6.352   2.747  0.0171  0.1083  0.0043
 3468W        W 7212   8.613   4.118   0.851 -0.4694 -0.3076 -0.0546
 3469W        W 7213   9.682   6.318   2.546  0.3164 -0.1188  0.3726
 3470W        W 7214   5.388   8.929   0.291  0.2960  0.0105 -0.0083
 3471W        W 7215   3.070   8.348   9.515  0.2455 -0.5721  0.0628
 3472W        W 7216   1.058   8.537   2.071 -0.1944 -0.0146 -0.0105
 3473W        W 7217   9.930   0.308   3.805 -0.1232  0.1080 -0.1435
 3474W        W 7218   4.361   2.151   1.987 -0.0237  0.2980  0.0941
 3475W        W 7219   6.640   7.684   9.271 -0.2976  0.0769  0.1527
 3476W        W 7220   3.785   3.681  10.542  0.1558  0.0274 -0.1189
 3477W        W 7221   6.486   6.661   4.511 -0.0013 -0.3638 -0.0133
 3478W        W 7222   7.601   8.535   9.768  0.1203  0.2390 -0.5661
 3479W        W 7223   9.861   6.077  12.365 -0.1657  0.1926 -0.0059
 3480W        W 7224   5.783   7.219  11.860  0.1961 -0.0094 -0.1160
 3481W        W 7225   3.769   4.451   9.233  0.1827 -0.1489 -0.3111
 3482W        W 7226   8.563   8.351  11.534  0.1194  0.0812 -0.2557
 3483W        W 7227   4.778   4.266   8.799 -0.2535 -0.2394  0.2233
 3484W        W 7228   1.592   5.882  10.416 -0.0805  0.0354 -0.2968
 3485W        W 7229   9.300   3.372  10.892  0.0902  0.3016  0.0891
 3486W        W 7230   3.753   1.717  12.296 -0.0670  0.0278  0.0566
 3487W        W 7231   1.395   3.418  10.236  0.1422 -0.1003 -0.1052
 3488W        W 7232   3.436   3.606  10.156 -0.1734 -0.0712  0.2430
 3489W        W 7233   6.031   0.739  12.383  0.2084 -0.1280 -0.4217
 3490W        W 7234   5.166   6.205   3.249  0.5394  0.0848  0.1136
 3491W        W 7235   8.570   2.283  12.101 -0.0606  0.1986  0.3994
 3492W        W 7236   6.679   2.058  10.296  0.0636 -0.4057  0.2742
 3493W        W 7237   5.198   9.617   0.822 -0.1761  0.2547 -0.1800
 3494W        W 7238   6.961   7.232  11.609 -0.1136  0.0917 -0.3994
 3495W        W 7239   6.300   7.340   0.888 -0.1514  0.0610  0.1758
 3496W        W 7240   4.072   1.977   7.601  0.0086 -0.3412  0.1620
 3497W        W 7241   8.287   5.383   9.903 -0.0967  0.2654  0.0170
 3498W        W 7242   1.242   9.366   3.046  0.1183 -0.0474  0.1038
 3499W        W 7243   3.617   5.068   3.773  0.2823 -0.0387 -0.0151
 3500W        W 7244   5.487   7.147   1.732 -0.1125 -0.0891  0.0720
 3501W        W 7245   1.017   2.993   0.548 -0.0650 -0.0929  0.0129
 3502W        W 7246   3.459   5.257  12.204  0.0430  0.0475 -0.4504
 3503W        W 7247   7.278   8.731   2.975  0.1133  0.0472  0.2845
 3504W        W 7248   4.943   1.813  11.611  0.1986  0.1446  0.0827
 3505W        W 7249   9.832   3.847   0.593  0.2805 -0.1537  0.0836
 3506W        W 7250   6.999   7.963   4.067 -0.4126 -0.2776  0.0989
 3507W        W 7251   7.521   3.030   3.293  0.0652 -0.0200  0.2484
 3508W        W 7252   6.807   5.349  12.773 -0.1403  0.0297  0.0123
 3509W        W 7253   6.273   5.841   0.408  0.0196  0.0245 -0.4567
 3510W        W 7254   8.977   4.649   0.834  0.1916  0.0392  0.3844
 3511W        W 7255   3.242   6.615  10.956  0.0054  0.0239 -0.1633
 3512W        W 7256   6.353   0.303   0.949  0.0773  0.1431 -0.0171
 3513W        W 7257   7.347   5.530   9.581  0.0027  0.4808  0.1886
 3514W        W 7258   0.274   3.211   2.309 -0.0387  0.0325  0.2687
 3515W        W 7259   1.535   8.927  11.289 -0.1083  0.2125 -0.2175
 3516W        W 7260   4.203   1.645  11.902  0.5077  0.2823 -0.2483
 3517W        W 7261   1.855   8.420   3.332  0.0594 -0.0408 -0.0790
 3518W        W 7262   2.690   1.780   9.869  0.0488  0.0890  0.0402
 3519W        W 7263   0.877   0.883   2.690 -0.0159 -0.0594 -0.3810
 3520W        W 7264   2.572   2.324   9.817 -0.1166  0.0310 -0.0596
 3521W        W 7265   4.475   9.946  12.251 -0.1879 -0.0007  0.0889
 3522W        W 7266   2.325   2.045  12.777 -0.0955 -0.1243 -0.0839
 3523W        W 7267   4.144   5.242  12.767  0.1212  0.1838 -0.0060
 3524W        W 7268   8.406   0.672   2.611  0.0070 -0.0325  0.3249
 3525W        W 7269   0.843   4.385   1.754 -0.0382  0.0436  0.0304
 3526W        W 7270   3.946   7.722   1.753  0.3007  0.0706  0.4228
 3527W        W 7271   5.542   2.268   2.414  0.1649 -0.1877 -0.1495
 3528W        W 7272   1.426   0.666  10.374  0.1919  0.0865  0.1105
 3529W        W 7273   6.258   4.362   2.177 -0.1355 -0.0262 -0.0507
 3530W        W 7274   8.735   9.603  11.116  0.1378  0.0173  0.1576
 3531W        W 7275   8.079   8.583   0.461  0.0621 -0.1425 -0.0509
 3532W        W 7276   0.963   4.124   9.370  0.0758 -0.0840 -0.0559
 3533W        W 7277   3.154   9.662   0.077  0.1547 -0.1645 -0.0115
 3534W        W 7278   4.354   4.359  10.916 -0.0652  0.2723  0.1340
 3535W        W 7279   8.912   4.561   0.120 -0.2293 -0.0871 -0.0144
 3536W        W 7280   8.664   9.836   3.246 -0.0890  0.0214 -0.2308
 3537W        W 7281   5.233   0.726   3.808  0.0986  0.1408 -0.1106
 3538W        W 7282   1.988   2.387  11.665 -0.1195 -0.0742 -0.0057
 3539W        W 7283   2.078   7.202  10.333  0.0741 -0.0170  0.0376
 3540W        W 7284   0.864   8.497  11.589 -0.3192 -0.0438 -0.1482
 3541W        W 7285   8.409   3.554   9.213  0.0157  0.2321  0.0423
 3542W        W 7286   6.843   1.785  12.003 -0.0500  0.1854  0.2010
 3543W        W 7287   3.488   5.537   9.961 -0.0439 -0.4638 -0.0084
 3544W        W 7288   3.226   6.766  11.622 -0.1477 -0.2330 -0.0749
 3545W        W 7289   6.089   0.174  10.504  0.1044 -0.1681  0.0997
 3546W        W 7290   4.389   4.763   4.296  0.0985  0.1379 -0.0537
 3547W        W 7291   6.231   8.122  10.537  0.1839  0.1303 -0.0939
 3548W        W 7292   1.855   3.675  10.355 -0.2976 -0.0013  0.0413
 3549W        W 7293   3.897   8.131   1.075  0.1310  0.2445  0.1981
 3550W        W 7294   6.650   5.679  10.901  0.1084  0.5008  0.0076
 3551W        W 7295   2.472   3.841   9.602 -0.1293 -0.2944 -0.0921
 3552W        W 7296   6.879   2.799   8.815 -0.2608 -0.2302 -0.0002
 3553W        W 7297   4.181   0.214   4.500 -0.3876  0.0923  0.4056
 3554W        W 7298   8.999   8.015   0.349  0.0702 -0.2790 -0.0778
 3555W        W 7299   6.265   6.230   1.340 -0.0382  0.3750 -0.0484
 3556W        W 7300   1.618   6.073   0.243 -0.2644 -0.0193  0.2349
 3557W        W 7301   1.155   5.717  11.496  0.0152 -0.0277 -0.2304
 3558W        W 7302   8.295   2.645  10.100  0.2734  0.0747 -0.0998
 3559W        W 7303   3.446   8.979   9.065 -0.2316 -0.0087 -0.4168
 3560W        W 7304   3.021   1.167   2.708  0.0008  0.3426  0.1809
 3561W        W 7305   9.515   9.177   9.129 -0.2160 -0.0676 -0.1375
 3562W        W 7306   4.425   7.678   1.906 -0.0878  0.0930  0.2786
 3563W        W 7307   7.354   1.045   8.894 -0.2031  0.4427  0.1083
 3564W        W 7308   3.464   2.254   0.550 -0.1706  0.0101 -0.1751
 3565W        W 7309   4.151   7.209   4.180  0.1378  0.0935  0.0320
 3566W        W 7310   0.776   3.210   2.209  0.3444 -0.0568  0.0669
 3567W        W 7311   9.704   0.486   2.038 -0.4493  0.2243 -0.1788
 3568W        W 7312   7.151   4.945  12.498 -0.0123 -0.0940 -0.1564
 3569W        W 7313   4.272   5.381   1.016 -0.0366 -0.0918 -0.2584
 3570W        W 7314   1.439   8.752  12.653  0.1549  0.2102 -0.4090
 3571W        W 7315   7.592   3.567   3.225  0.1212 -0.1581  0.1280
 3572W        W 7316   2.978   7.334   3.148 -0.0191 -0.0139  0.2265
 3573W        W 7317   4.814   3.989  10.042  0.1146 -0.1490  0.4322
 3574W        W 7318   7.493   1.957   7.737 -0.0182 -0.3098  0.4718
 3575W        W 7319   0.885   5.722   3.295 -0.0177  0.1546  0.0230
 3576W        W 7320   4.674   7.330   0.807  0.1946  0.1155  0.1383
 3577W        W 7321   4.713   4.190   0.166 -0.0052  0.2013  0.0280
 3578W        W 7322   0.796   7.006   4.067 -0.1599  0.0138 -0.0594
 3579W        W 7323   6.422   4.146  12.475  0.1613  0.1848  0.0624
 3580W        W 7324   9.247   7.642  11.678  0.0064  0.0589 -0.0687
 3581W        W 7325   0.673   6.533  12.028 -0.2361 -0.0493 -0.1205
 3582W        W 7326   8.017   9.180  12.065 -0.0271  0.1642 -0.3682
 3583W        W 7327   8.100   1.897   0.327  0.1580 -0.0694  0.1279
 3584W        W 7328   6.696   0.191  12.352  0.1557  0.0443  0.0237
 3585W        W 7329   4.579   3.436   1.164  0.1162 -0.0751  0.1606
 3586W        W 7330   3.097   2.590   4.159 -0.2213  0.3331 -0.2393
 3587W        W 7331   0.511   3.625   2.425  0.0757 -0.2405  0.2731
 3588W        W 7332   2.506   8.964   9.616 -0.1081  0.0468 -0.4005
 3589W        W 7333   6.717   3.284  11.157  0.1493 -0.1349 -0.1026
 3590W        W 7334   5.778   8.817  12.668  0.0786 -0.1947 -0.2993
 3591W        W 7335   9.892   9.743   1.015  0.0648 -0.0687 -0.3794
 3592W        W 7336   3.741   0.017   2.174  0.0343 -0.0739  0.1284
 3593W        W 7337   8.207   1.226   3.092  0.1344  0.0253 -0.0607
 3594W        W 7338   7.072   1.123   0.537 -0.2720 -0.0904  0.2570
 3595W        W 7339   6.215   0.006   9.301 -0.2239  0.0686  0.0772
 3596W        W 7340   3.317   3.817   0.503  0.4270  0.0490 -0.1386
 3597W        W 7341   7.979   7.739   3.251 -0.2570 -0.1139  0.2000
 3598W        W 7342   4.298   6.204   2.321 -0.0155 -0.0858  0.0935
 3599W        W 7343   3.392   6.127   3.988  0.3143 -0.2073 -0.3257
 3600W        W 7344   6.304   2.198   8.930  0.1222 -0.0971  0.2525
 3601W        W 7345   7.908   1.328   1.812  0.1014 -0.2948  0.1491
 3602W        W 7346   6.478   8.169   4.105 -0.0494 -0.3552 -0.0929
 3603W        W 7347   5.229   7.759  10.794  0.1168  0.0750  0.0147
 3604W        W 7348   5.262   8.196   1.518  0.0975 -0.1086  0.2270
 3605W        W 7349   4.841   7.776  12.756  0.0019  0.0326 -0.2279
 3606W        W 7350   3.680   5.418   1.164  0.0475 -0.0447  0.0131
 3607W        W 7351   9.209   8.724  11.426 -0.1754 -0.0358  0.0608
 3608W        W 7352   8.388   4.516  12.102 -0.1125 -0.0770 -0.0854
 3609W        W 7353   3.426   2.247   2.426  0.0210 -0.0296  0.0294
 3610W        W 7354   4.369   2.178   9.156  0.1033  0.0160  0.0291
 3611W        W 7355   7.689   4.966   1.847 -0.2048  0.1955 -0.2622
 3612W        W 7356   9.125   5.192   3.261 -0.1412 -0.0196  0.0442
 3613W        W 7357   5.852   0.829   1.509 -0.2223  0.2818  0.0195
 3614W        W 7358   0.278   2.364   0.621 -0.0806  0.2634  0.1977
 3615W        W 7359   5.741   1.347   9.907 -0.0302 -0.2165 -0.1974
 3616W        W 7360   2.751   4.582  11.327  0.1879  0.0592 -0.0801
 3617W        W 7361   5.097   4.010   1.969 -0.0047  0.1949 -0.1465
 3618W        W 7362   9.890   5.541  10.135 -0.0489 -0.2206  0.1416
 3619W        W 7363   8.638   8.516  12.009 -0.2584  0.0768  0.2238
 3620W        W 7364   8.685   7.071   1.864  0.0685 -0.1686  0.1697
 3621W        W 7365   9.561   2.008  11.236 -0.0096 -0.1543 -0.1077
 3622W        W 7366   3.659   4.420  11.625 -0.1287 -0.2741 -0.0901
 3623W        W 7367   8.336   1.712  10.493 -0.1887  0.0873 -0.3102
 3624W        W 7368   6.290   7.135   4.298 -0.1689 -0.0406  0.1648
 3625W        W 7369   0.726   4.940  12.418  0.0925  0.1206  0.0387
 3626W        W 7370   9.167   6.766   3.784 -0.2322  0.3650  0.2061
 3627W        W 7371   7.303   3.176   2.706 -0.2390  0.1727 -0.1012
 3628W        W 7372   2.582   1.098  11.128 -0.2800 -0.0770 -0.0638
 3629W        W 7373   3.978   7.860  11.444  0.0638 -0.1664 -0.3897
 3630W        W 7374   7.241   4.530  12.802 -0.1936 -0.3282  0.3377
 3631W        W 7375   0.080   3.981  10.310 -0.1026 -0.1960 -0.1856
 3632W        W 7376   3.861   6.875   9.923  0.0056  0.1548  0.1905
 3633W        W 7377   3.305   5.940   1.672  0.1920  0.4441 -0.0493
 3634W        W 7378   3.985   9.657   4.015  0.1551 -0.1117 -0.2099
 3635W        W 7379   6.678   9.415   2.532  0.1114  0.0013  0.0301
 3636W        W 7380   7.588   1.978   3.999  0.0635  0.0882  0.0035
 3637W        W 7381   9.520   4.411  11.824  0.2160  0.1079  0.1872
 3638W        W 7382   3.950   6.774   8.873  0.3301  0.0063 -0.5692
 3639W        W 7383   0.783   2.442   2.238 -0.1929  0.0117 -0.1583
 3640W        W 7384   1.412   3.811  10.556  0.2072 -0.0696 -0.0553
 3641W        W 7385   5.643   3.237   1.870  0.0268 -0.1945 -0.0939
 3642W        W 7386   3.671   2.116   7.865 -0.1645  0.2941  0.1479
 3643W        W 7387   6.297   5.114   9.126 -0.2002 -0.2310  0.1957
 3644W        W 7388   4.912   6.455   1.578 -0.1038 -0.1536  0.1591
 3645W        W 7389   6.254   8.247   1.214  0.2207 -0.6010  0.1089
 3646W        W 7390   5.054   5.438  10.330 -0.0950 -0.1829 -0.1880
 3647W        W 7391   4.777   6.433   3.565  0.1944  0.2516  0.1059
 3648W        W 7392   8.352   5.220   9.345  0.0394 -0.0778 -0.0256
 3649W        W 7393   4.007   4.610   8.744 -0.2987 -0.2221  0.2633
 3650W        W 7394   5.986   0.983  10.710 -0.0584 -0.1049 -0.1281
 3651W        W 7395   3.976   0.560  11.122 -0.0320  0.1846 -0.1743
 3652W        W 7396   9.122   9.124  11.847 -0.0113  0.1702  0.1969
 3653W        W 7397   4.416   1.124   0.180  0.3181 -0.1499  0.0277
 3654W        W 7398   5.876   0.062   9.666  0.2335 -0.0041  0.4678
 3655W        W 7399   4.283   0.145  10.441  0.1671 -0.1926  0.0430
 3656W        W 7400   5.743   4.958  11.775  0.0269 -0.1029 -0.0748
 3657W        W 7401   1.125   3.597  12.171 -0.0896 -0.1855 -0.0654
 3658W        W 7402   0.500   1.441   0.165 -0.0508 -0.2999  0.1837
 3659W        W 7403   1.209   0.718   2.347  0.0131 -0.0779 -0.0339
 3660W        W 7404   9.918   0.288   0.901  0.0481  0.3132 -0.1069
 3661W        W 7405   2.624   1.135   8.649  0.0445 -0.1648  0.2876
 3662W        W 7406   7.401   1.650   4.403  0.0847 -0.1981  0.1549
 3663W        W 7407   6.352   4.869   1.855 -0.3721 -0.0716 -0.0163
 3664W        W 7408   1.457   8.279  12.556 -0.0203 -0.0790 -0.4442
 3665W        W 7409   9.762   0.893  11.939  0.2944 -0.1727  0.2141
 3666W        W 7410   5.087   4.855  11.386  0.3752  0.2450  0.0047
 3667W        W 7411   6.373   1.589   4.849  0.3544 -0.1093 -0.0088
 3668W        W 7412   3.125   2.365   9.146 -0.0673  0.2220 -0.3577
 3669W        W 7413   1.948   7.603   2.387  0.2799 -0.0264 -0.3237
 3670W        W 7414   4.848   4.480  10.440  0.1568 -0.3973  0.3613
 3671W        W 7415   0.220   8.481   2.307 -0.0187 -0.2133  0.0748
 3672W        W 7416   2.685   4.266  11.754  0.1688 -0.0036 -0.2659
 3673W        W 7417   8.381   2.593   0.616 -0.1404 -0.0028 -0.1945
 3674W        W 7418   9.950   3.867   1.133 -0.1476 -0.1838 -0.1534
 3675W        W 7419   5.954   9.802  10.115  0.1339  0.2876  0.5833
 3676W        W 7420   9.352   0.493   4.417  0.1475  0.0158  0.2555
 3677W        W 7421   4.701   8.460   4.131 -0.0812 -0.2786 -0.0815
 3678W        W 7422   0.019   1.500  12.362  0.0642 -0.0358  0.1689
 3679W        W 7423   8.609   0.788  11.305 -0.0415 -0.1278 -0.0826
 3680W        W 7424   0.391   7.324   0.659 -0.1152 -0.0329  0.1417
 3681W        W 7425   6.155   2.606   0.343  0.3228 -0.1157  0.0355
 3682W        W 7426   2.920   3.423  10.234 -0.1852 -0.1053 -0.1196
 3683W        W 7427   7.167   1.518   3.303 -0.2450  0.0460 -0.3563
 3684W        W 7428   9.333   2.334   3.551 -0.1996  0.0142  0.0699
 3685W        W 7429   5.925   5.186   2.885 -0.0267  0.1034 -0.2532
 3686W        W 7430   7.667   1.283   2.220  0.0673 -0.0541 -0.0587
 3687W        W 7431   6.610   5.211  11.137  0.1480 -0.2182 -0.4070
 3688W        W 7432   7.394   7.299   9.518  0.3316 -0.1199 -0.0749
 3689W        W 7433   7.416   9.017  11.263  0.0123 -0.0131  0.2346
 3690W        W 7434   7.191   1.180   2.237  0.0847 -0.0095 -0.2360
 3691W        W 7435   0.153   9.421   2.214  0.2332  0.2581  0.2004
 3692W        W 7436   9.789   4.414  10.102 -0.0652  0.2316 -0.0974
 3693W        W 7437   2.695   3.705   2.775 -0.0481 -0.1581 -0.1986
 3694W        W 7438   9.390   4.723   0.567 -0.1759  0.0732 -0.0705
 3695W        W 7439   3.144   3.572   2.488  0.3303 -0.0011  0.2166
 3696W        W 7440   8.959   6.555  11.989  0.0285 -0.1818 -0.0649
 3697W        W 7441   4.125   7.436   0.305  0.1999  0.0606  0.5079
 3698W        W 7442   1.751   3.616   9.022  0.0647 -0.2972  0.3105
 3699W        W 7443   0.484   3.880   1.275 -0.0365  0.0428 -0.0269
 3700W        W 7444   3.283   7.082  12.556 -0.0894 -0.1189  0.2187
 3701W        W 7445   6.005   6.944   2.040  0.2510  0.0398  0.2265
 3702W        W 7446   9.563   1.049  11.000 -0.0353 -0.0732  0.1719
 3703W        W 7447   7.620   4.880   8.736  0.2735 -0.0456 -0.2907
 3704W        W 7448   5.954   2.597   9.357 -0.1929 -0.2689 -0.0809
 3705W        W 7449   6.295   3.940  10.393  0.2138  0.1105  0.0986
 3706W        W 7450   6.605   2.287   3.219  0.0776  0.0377  0.1028
 3707W        W 7451   6.009   4.237   9.207  0.1756  0.2616  0.0445
 3708W        W 7452   4.509   2.722   4.263 -0.0077 -0.2237  0.0645
 3709W        W 7453   0.476   1.156  12.232  0.0580  0.1251 -0.4260
 3710W        W 7454   8.065   0.937   1.180 -0.0173 -0.0298  0.0460
 3711W        W 7455   8.831   4.896   2.325 -0.2866 -0.1920 -0.5630
 3712W        W 7456   7.718   6.660  10.587  0.0694 -0.0670 -0.0543
 3713W        W 7457   5.247   4.047  10.318 -0.2238  0.3162  0.0994
 3714W        W 7458   7.555   6.201   3.789 -0.0377 -0.0384 -0.0808
 3715W        W 7459   7.220   4.809   1.707 -0.1926 -0.1135  0.1459
 3716W        W 7460   0.340   2.075   2.334  0.0324 -0.0260  0.0290
 3717W        W 7461   2.677   5.630  12.244  0.1966  0.1404  0.3336
 3718W        W 7462   9.839   1.327   8.969  0.2320  0.0008  0.0553
 3719W        W 7463   5.938   7.499   8.951  0.4111  0.0755  0.2311
 3720W        W 7464   9.224   6.219  10.026 -0.1433 -0.0818  0.1976
 3721W        W 7465   0.012   7.133  10.029  0.3961  0.0398 -0.2073
 3722W        W 7466   7.528   0.585   8.494 -0.3210 -0.0635 -0.1623
 3723W        W 7467   0.742   1.021   9.117  0.0373 -0.0254  0.0836
 3724W        W 7468   3.220   2.870   3.576  0.0732 -0.0858  0.0426
 3725W        W 7469   5.414   5.197   2.807 -0.0475  0.4238 -0.2945
 3726W        W 7470   4.262   3.313   0.179 -0.0715  0.1886  0.0568
 3727W        W 7471   8.853   2.418   3.495  0.3476 -0.1443  0.0370
 3728W        W 7472   8.511   8.210   2.594 -0.1091  0.0424 -0.1475
 3729W        W 7473   8.763   6.435   1.159 -0.0439 -0.2158  0.1362
 3730W        W 7474   9.819   1.956   0.747 -0.0119 -0.1580 -0.1693
 3731W        W 7475   5.335   0.974   9.998  0.2194  0.3289  0.1384
 3732W        W 7476   8.916   2.486   0.676 -0.1459 -0.3417  0.1370
 3733W        W 7477   3.825   4.191  12.514  0.1244 -0.0685  0.0595
 3734W        W 7478   9.431   3.995  10.191  0.1876 -0.1288 -0.2949
 3735W        W 7479   7.902   2.748   1.956  0.1376 -0.0491 -0.0809
 3736W        W 7480   2.643   5.910   0.981  0.0183 -0.4221 -0.0933
 3737W        W 7481   3.702   2.475   9.702  0.0710 -0.1314  0.1714
 3738W        W 7482   1.846   9.516   2.338 -0.0375  0.1186 -0.0827
 3739W        W 7483   5.909   7.215  10.091 -0.0109  0.1899  0.0503
 3740W        W 7484   3.745   3.885  11.461  0.0128  0.1925  0.0454
 3741W        W 7485   0.873   4.412  12.685 -0.1290  0.1001 -0.1384
 3742W        W 7486   7.264   3.815  10.640  0.2395  0.0450 -0.2232
 3743W        W 7487   3.903   0.748   9.138  0.0023 -0.1341 -0.2604
 3744W        W 7488   2.522   5.479   3.227 -0.0106 -0.2506  0.0565
 3745W        W 7489   8.559   8.860  12.514  0.1739  0.1866 -0.1855
 3746W        W 7490   2.107   3.340   2.204  0.1890 -0.0391 -0.5226
 3747W        W 7491   4.841   0.701   1.272  0.2810 -0.2462  0.1211
 3748W        W 7492   4.905   5.447   4.579 -0.2934  0.0575 -0.1108
 3749W        W 7493   8.616   0.274   0.371  0.1829 -0.1349 -0.0733
 3750W        W 7494   9.684   3.967  12.036 -0.5061  0.0103 -0.0733
 3751W        W 7495   6.662   0.376  10.138  0.2158  0.0462 -0.1287
 3752W        W 7496   5.520   4.101   9.078  0.0816 -0.1032 -0.1351
 3753W        W 7497   8.886   3.042   9.995 -0.0669  0.0495  0.0970
 3754W        W 7498   9.627   3.137   3.565  0.0687  0.0315  0.1659
 3755W        W 7499   9.628   4.528   2.830  0.2760 -0.1554  0.1035
 3756W        W 7500   8.365   9.381   1.855  0.0439  0.2354 -0.0437
 3757W        W 7501   2.055   3.060   9.736 -0.2178  0.0574 -0.0108
 3758W        W 7502   6.038   3.310  11.109  0.1057  0.2461  0.0996
 3759W        W 7503   2.771   6.410  12.616  0.0456 -0.1090 -0.1766
 3760W        W 7504   3.545   0.833   3.647  0.3023 -0.0133  0.0189
 3761W        W 7505   1.076   8.649   9.855 -0.4473  0.3529 -0.3055
 3762W        W 7506   8.553   1.129   0.696  0.1305 -0.0568 -0.3655
 3763W        W 7507   8.243   3.973   4.115  0.2080 -0.1741 -0.0440
 3764W        W 7508   7.885   9.748   9.052  0.0455  0.0587  0.0430
 3765W        W 7509   1.604   2.908  11.253 -0.1373  0.0377  0.1040
 3766W        W 7510   2.132   2.622   8.955  0.4101  0.0826  0.1383
 3767W        W 7511   8.911   5.085  11.957  0.2357 -0.1587 -0.3357
 3768W        W 7512   7.896   3.095  11.289 -0.0882 -0.0478 -0.3905
 3769W        W 7513   8.584   1.945   8.907 -0.3328  0.1165 -0.2659
 3770W        W 7514   6.786   3.319  11.676 -0.1709  0.0204  0.1732
 3771W        W 7515   0.750   5.814   0.567 -0.0629 -0.1053  0.0889
 3772W        W 7516   4.660   8.798   3.216 -0.0510  0.2581 -0.2354
 3773W        W 7517   6.056   8.530   8.314 -0.1210  0.1119 -0.0767
 3774W        W 7518   8.293   2.403   9.615  0.3816 -0.1089  0.1290
 3775W        W 7519   2.797   5.607  11.052 -0.2540 -0.1936 -0.0259
 3776W        W 7520   3.780   3.292   3.791  0.2195 -0.2795  0.3827
 3777W        W 7521   5.104   4.059   4.369  0.0338  0.2853  0.2946
 3778W        W 7522   9.340   2.049  12.787  0.2464 -0.3106 -0.0141
 3779W        W 7523   0.152   6.080   1.224  0.2606  0.3595 -0.0760
 3780W        W 7524   3.120   7.314   1.564 -0.1430  0.1070 -0.0732
 3781W        W 7525   1.811   8.596  12.315  0.0166  0.1953 -0.3475
 3782W        W 7526   6.117   1.278   0.761 -0.1129  0.4119 -0.0862
 3783W        W 7527   8.457   9.775   0.410  0.0400 -0.0264 -0.0067
 3784W        W 7528   6.811   2.248  11.857  0.0356  0.1860  0.0878
 3785W        W 7529   3.306   0.296  10.211  0.1694 -0.1495 -0.0636
 3786W        W 7530   9.922   5.859   0.010 -0.2085 -0.1245 -0.1337
 3787W        W 7531   6.331   8.344  10.091 -0.0032  0.5210  0.1081
 3788W        W 7532   1.394   9.280   3.526  0.2586 -0.1106 -0.0210
 3789W        W 7533   7.166   1.115  10.474 -0.0218  0.0704 -0.1238
 3790W        W 7534   4.069   8.642  10.232  0.1759 -0.1618 -0.0978
 3791W        W 7535   3.785   4.961   1.631  0.0090  0.2120 -0.0873
 3792W        W 7536   0.752   3.952   0.846 -0.2094 -0.0262 -0.0289
 3793W        W 7537   8.179   7.472   9.316 -0.0650 -0.0683  0.0050
 3794W        W 7538   6.446   5.569  12.089 -0.5659 -0.0249  0.1063
 3795W        W 7539   2.489   1.419   1.842  0.0133 -0.2218 -0.2660
 3796W        W 7540   9.512   9.533   9.638  0.0259 -0.1786 -0.0175
 3797W        W 7541   1.140   5.738  12.000  0.0132  0.1101 -0.1876
 3798W        W 7542   3.935   8.235   3.186  0.0257 -0.0891 -0.1041
 3799W        W 7543   7.995   1.982   3.204 -0.3079  0.0732 -0.1352
 3800W        W 7544   6.235   0.540  11.860  0.2851  0.3044 -0.2964
 3801W        W 7545   6.303   5.460   0.157 -0.1262 -0.0007 -0.0221
 3802W        W 7546   0.701   3.451   1.751  0.0156  0.1823  0.0912
 3803W        W 7547   0.840   1.018   3.437 -0.0795 -0.2463 -0.1453
 3804W        W 7548   6.245   3.572   3.270  0.2480  0.0464 -0.1985
 3805W        W 7549   6.010   9.752   1.880 -0.1366 -0.2594  0.0974
 3806W        W 7550   5.470   8.573   1.171  0.2758  0.0723  0.1129
 3807W        W 7551   1.863   2.198   8.152 -0.3303  0.0040 -0.1514
 3808W        W 7552   8.764   1.572   0.547  0.0421 -0.0036 -0.0225
 3809W        W 7553   2.462   3.385   0.142  0.2005  0.1798 -0.1219
 3810W        W 7554   2.079   8.925   9.881 -0.1016  0.2698  0.0287
 3811W        W 7555   9.684   2.760  10.190  0.3019  0.1132 -0.2104
 3812W        W 7556   1.052   6.290   3.875  0.0029 -0.0817  0.0979
 3813W        W 7557   2.095   2.860  11.405  0.0391  0.3293  0.2756
 3814W        W 7558   4.937   1.208   1.565  0.0943  0.1315 -0.1550
 3815W        W 7559   3.472   6.890   3.495 -0.1514 -0.0781 -0.1476
 3816W        W 7560   7.240   5.653   0.136  0.1585 -0.0740  0.0215
 3817W        W 7561   6.022   1.243  11.134  0.1149 -0.0636 -0.0088
 3818W        W 7562   2.817   8.452   1.323  0.1854  0.2079 -0.0534
 3819W        W 7563   1.966   5.789   3.752 -0.0789  0.0656  0.0759
 3820W        W 7564   9.293   4.718   3.952  0.2112 -0.2805 -0.0005
 3821W        W 7565   0.490   1.367   1.246  0.1250 -0.0779 -0.1480
 3822W        W 7566   5.598   4.182   1.531 -0.0499 -0.2309 -0.0041
 3823W        W 7567   4.177   3.154   4.319 -0.2518 -0.2835 -0.2562
 3824W        W 7568   8.034   6.209   3.338 -0.0382 -0.0520 -0.3001
 3825W        W 7569   8.460   5.299  12.039 -0.1532  0.3110 -0.0465
 3826W        W 7570   0.871   2.703   0.917 -0.0103  0.2484 -0.1627
 3827W        W 7571   3.561   8.728  12.311 -0.0880  0.3005 -0.1056
 3828W        W 7572   5.009   3.187   1.190  0.1865  0.0031 -0.2587
 3829W        W 7573   6.498   8.821   1.806  0.0913 -0.0339  0.1600
 3830W        W 7574   6.570   2.252   0.762 -0.1769  0.0098 -0.1525
 3831W        W 7575   8.360   8.731   2.803 -0.0552  0.0280 -0.1902
 3832W        W 7576   3.562   1.087   0.100 -0.0010  0.0693 -0.2668
 3833W        W 7577   2.436   9.212   0.820 -0.1471  0.0193 -0.1514
 3834W        W 7578   6.990   5.975  12.596 -0.0228  0.1116 -0.2554
 3835W        W 7579   3.755   9.276   1.226  0.1757 -0.4862  0.0788
 3836W        W 7580   9.341   9.038   9.634  0.3009  0.6755 -0.1258
 3837W        W 7581   2.161   1.812  10.892 -0.0457  0.2167  0.2698
 3838W        W 7582   3.959   2.741  11.612 -0.2988 -0.4776  0.2169
 3839W        W 7583   5.182   1.873   7.525  0.2313 -0.1461 -0.1507
 3840W        W 7584   2.899   5.322  12.553  0.0336  0.0394  0.3065
 3841W        W 7585   9.815   7.587  11.438  0.1027  0.0333 -0.1415
 3842W        W 7586   1.770   7.063  12.631  0.1128  0.3032  0.1373
 3843W        W 7587   8.781   7.348   2.337  0.1295  0.0947 -0.2810
 3844W        W 7588   4.996   7.701   9.212  0.2574  0.2858  0.2438
 3845W        W 7589   5.987   9.939   3.150  0.1228  0.0863 -0.0203
 3846W        W 7590   4.460   9.932   0.431 -0.1890 -0.0748 -0.0449
 3847W        W 7591   8.291   6.097  11.304  0.0466  0.2101  0.0587
 3848W        W 7592   6.375   1.570   8.452  0.1964 -0.1634  0.3405
 3849W        W 7593   0.125   0.764   3.795  0.0465 -0.1643  0.1795
 3850W        W 7594   9.510   8.519  12.455  0.0754 -0.2566 -0.0601
 3851W        W 7595   2.995   8.079   1.056 -0.2517 -0.0001 -0.1874
 3852W        W 7596   3.658   7.291   1.579  0.4423  0.1880  0.0005
 3853W        W 7597   8.549   0.839   3.061 -0.1192  0.0808 -0.0459
 3854W        W 7598   0.608   7.160   3.586 -0.0142  0.0378  0.2161
 3855W        W 7599   5.771   6.970  12.740  0.1372  0.0739  0.0128
 3856W        W 7600   3.677   3.278  12.247 -0.0697  0.4228  0.1633
 3857W        W 7601   7.826   0.648   3.498  0.2852  0.2021  0.1779
 3858W        W 7602   3.281   9.759  10.124 -0.1513  0.0499  0.1364
 3859W        W 7603   3.837   7.785   0.683  0.1541  0.1297 -0.0906
 3860W        W 7604   0.141   7.941  12.801  0.1367  0.2777 -0.0778
 3861W        W 7605   6.978   6.689  11.067  0.4888  0.0656 -0.0182
 3862W        W 7606   3.414   8.802   0.409  0.0443  0.2783 -0.2986
 3863W        W 7607   4.887   8.797  12.648 -0.4484 -0.0865  0.2255
 3864W        W 7608   2.493   8.052   2.698 -0.0657 -0.0610  0.1356
 3865W        W 7609   8.395   0.081   2.605  0.3696  0.0020  0.0697
 3866W        W 7610   3.664   2.830   8.971  0.3805 -0.0373  0.1478
 3867W        W 7611   5.304   5.968   2.811  0.1468 -0.1344 -0.2560
 3868W        W 7612   2.786   8.284  12.752  0.0380 -0.2484 -0.3283
 3869W        W 7613   6.019   1.109   3.934  0.1113 -0.2212  0.1701
 3870W        W 7614   2.125   6.630  11.543 -0.0302  0.1624  0.1459
 3871W        W 7615   0.787   0.962   2.128  0.1505 -0.1308 -0.1165
 3872W        W 7616   4.835   8.309   1.132 -0.2625  0.2442  0.2077
 3873W        W 7617   5.301   8.179   0.923  0.1215  0.1175 -0.2374
 3874W        W 7618   3.231   6.930   2.338  0.1795  0.0741  0.1320
 3875W        W 7619   3.621   2.301   9.090 -0.0307 -0.1546 -0.0266
 3876W        W 7620   9.578   6.504  11.144  0.4863 -0.0083  0.2492
 3877W        W 7621   3.761   1.722   3.576  0.0262 -0.0763 -0.0623
 3878W        W 7622   9.235   1.008  11.901 -0.1779 -0.0854 -0.2060
 3879W        W 7623   3.023   8.924  12.248 -0.1115 -0.0928 -0.0006
 3880W        W 7624   9.258   2.572   0.107 -0.3613  0.1119 -0.0473
 3881W        W 7625   6.270   3.979   3.534 -0.1850 -0.0859 -0.2225
 3882W        W 7626   0.970   7.967   9.359 -0.1395  0.4416  0.3936
 3883W        W 7627   0.520   9.256  11.948  0.0952  0.3603 -0.1056
 3884W        W 7628   3.733   1.420  11.847 -0.2539 -0.2563  0.0005
 3885W        W 7629   9.026   7.107  11.817  0.2177 -0.1638  0.1470
 3886W        W 7630   7.916   5.344  11.205  0.0404 -0.3698  0.4060
 3887W        W 7631   5.862   3.905   0.979 -0.1639 -0.0958  0.1529
 3888W        W 7632   0.928   7.451  12.595  0.0703 -0.3966 -0.0545
 3889W        W 7633   9.163   3.524   9.774  0.2310  0.0355 -0.2551
 3890W        W 7634   2.460   7.451   2.015 -0.3612 -0.1744  0.3365
 3891W        W 7635   6.711   7.749   0.532 -0.1845 -0.2468  0.0117
 3892W        W 7636   1.749   2.135   2.951  0.2231  0.0936  0.0694
 3893W        W 7637   4.672   7.283  10.277 -0.0043 -0.0974 -0.0066
 3894W        W 7638   2.551   1.648  12.077  0.2041 -0.0236 -0.2002
 3895W        W 7639   6.543   6.961  11.426 -0.0757 -0.0953 -0.3515
 3896W        W 7640   7.640   0.424   0.023  0.1322  0.0451 -0.1880
 3897W        W 7641   5.873   1.387   2.597 -0.2390  0.0277 -0.2895
 3898W        W 7642   3.762   6.322   2.508  0.2089 -0.1110 -0.3294
 3899W        W 7643   7.492   4.815   2.304 -0.0319 -0.0443 -0.0666
 3900W        W 7644   5.580   5.965   2.123  0.1573 -0.2890 -0.0511
 3901W        W 7645   5.232   8.238  11.082 -0.0396  0.0916 -0.1646
 3902W        W 7646   4.370   4.941  12.469 -0.1515 -0.0643 -0.1227
 3903W        W 7647   8.053   5.306   1.777 -0.1840 -0.0360 -0.0631
 3904W        W 7648   8.966   1.708   2.817 -0.0839 -0.1090  0.4977
 3905W        W 7649   0.861   0.310  11.868  0.1384  0.0841 -0.0234
 3906W        W 7650   8.241   3.678  12.457 -0.2781  0.4695 -0.0475
 3907W        W 7651   4.576   3.363   0.658 -0.2795 -0.0596 -0.0108
 3908W        W 7652   2.169   8.409  10.603  0.0479 -0.3158 -0.3444
 3909W        W 7653   7.701   1.316  12.587 -0.0190 -0.2049 -0.1189
 3910W        W 7654   5.664   8.123   9.467 -0.1432  0.0136 -0.2668
 3911W        W 7655   0.343   0.668   9.354 -0.2442  0.0854 -0.1046
 3912W        W 7656   6.103   8.322   9.301 -0.1635  0.1413  0.0920
 3913W        W 7657   7.721   7.718   9.611 -0.0874 -0.0353 -0.0066
 3914W        W 7658   0.316   7.742  11.511  0.1564 -0.0279 -0.1487
 3915W        W 7659   0.095   3.893   1.628  0.1390  0.3031  0.1293
 3916W        W 7660   4.300   1.426   1.450 -0.2450  0.0765  0.0092
 3917W        W 7661   4.041   9.312   0.019  0.1211  0.2614 -0.1784
 3918W        W 7662   8.695   4.506   1.157 -0.0429  0.0133 -0.0555
 3919W        W 7663   5.223   5.357  11.309 -0.2225  0.0165  0.1053
 3920W        W 7664   3.535   0.024   0.334 -0.1413  0.0983  0.1456
 3921W        W 7665   0.826   7.117  10.315  0.0589  0.0900 -0.2885
 3922W        W 7666   8.196   4.716  10.293  0.1585  0.0024  0.2243
 3923W        W 7667   6.633   1.777  11.535 -0.0051  0.3283 -0.5321
 3924W        W 7668   1.204   6.913   1.774  0.1161 -0.1015  0.0082
 3925W        W 7669   3.149   3.369   4.670 -0.0165  0.0508 -0.1703
 3926W        W 7670   0.317   2.860  11.996  0.1218  0.1911 -0.2381
 3927W        W 7671   6.610   0.096   7.907 -0.3211  0.0143 -0.2076
 3928W        W 7672   8.130   1.021   0.124  0.2046 -0.0138  0.1959
 3929W        W 7673   1.629   4.589  10.013 -0.1834  0.2401 -0.2341
 3930W        W 7674   7.475   5.781   4.006 -0.0056 -0.0883  0.1018
 3931W        W 7675   2.315   8.986   3.190 -0.2335 -0.2105  0.0531
 3932W        W 7676   5.432   5.531   4.739  0.0381 -0.1526  0.3228
 3933W        W 7677   3.836   4.071   9.703  0.0459 -0.3214  0.2639
 3934W        W 7678   4.673   6.443   2.550 -0.2136  0.1924  0.2222
 3935W        W 7679   7.858   3.383  12.199  0.0195  0.1028 -0.4560
 3936W        W 7680   2.629   2.165   3.537  0.1475 -0.0169 -0.1777
 3937W        W 7681   2.095   9.506   3.181  0.3062  0.1524  0.2961
 3938W        W 7682   5.932   5.741   8.239 -0.1738  0.1305  0.0840
 3939W        W 7683   4.873   0.387  12.643  0.1484  0.1950  0.0862
 3940W        W 7684   0.113   3.322  11.852  0.2150  0.1051  0.0457
 3941W        W 7685   0.688   5.452  12.083 -0.1107 -0.1153 -0.1680
 3942W        W 7686   1.666   2.175   1.994 -0.1200  0.3721  0.1110
 3943W        W 7687   2.383   4.695   1.629 -0.2466 -0.1050  0.1990
 3944W        W 7688   4.028   0.548   2.831 -0.0382 -0.2523  0.3110
 3945W        W 7689   7.985   0.447   2.403  0.2950  0.1474 -0.0345
 3946W        W 7690   1.377   3.247   9.040 -0.1058 -0.2029 -0.0217
 3947W        W 7691   9.352   8.919  12.697  0.0488  0.1915 -0.1172
 3948W        W 7692   0.076   0.417   1.700  0.2969  0.1213  0.1558
 3949W        W 7693   7.012   8.703   0.523  0.0736 -0.3008 -0.1217
 3950W        W 7694   0.428   7.092  11.835  0.2682  0.0197 -0.0640
 3951W        W 7695   4.655   2.735  10.413 -0.0241 -0.1937 -0.1885
 3952W        W 7696   5.883   5.675   3.355 -0.3184 -0.0813  0.2670
 3953W        W 7697   1.304   2.937  10.427 -0.0059 -0.0541  0.2430
 3954W        W 7698   8.400   6.534   1.624 -0.0349 -0.0912 -0.5470
 3955W        W 7699   7.877   8.242  12.445 -0.2123  0.3968 -0.0256
 3956W        W 7700   5.920   4.897  10.060  0.1278 -0.2413 -0.1561
 3957W        W 7701   1.307   2.595  11.987  0.0464  0.3277 -0.0373
 3958W        W 7702   3.314   6.126   4.622 -0.0678 -0.1731  0.0247
 3959W        W 7703   2.083   6.315  12.640  0.2211 -0.0423  0.4846
 3960W        W 7704   5.802   9.550   8.598 -0.5214  0.0669  0.0860
 3961W        W 7705   0.862   5.835  12.418 -0.1900 -0.0881 -0.0919
 3962W        W 7706   0.196   0.507  11.859  0.2761  0.2519  0.2407
 3963W        W 7707   9.214   1.063  12.426 -0.2234 -0.1553  0.0723
 3964W        W 7708   4.772   5.224   1.462 -0.0184  0.2803  0.2652
 3965W        W 7709   2.828   6.075  11.289  0.1339  0.1539  0.0540
 3966W        W 7710   3.583   3.766   4.682 -0.1257 -0.1370  0.0578
 3967W        W 7711   8.564   0.512  11.721  0.2608  0.0476  0.1795
 3968W        W 7712   5.533   6.293  12.265 -0.2147  0.3470 -0.0194
 3969W        W 7713   5.083   9.845   3.222  0.1109 -0.1181  0.1809
 3970W        W 7714   6.467   0.961   0.958 -0.0226  0.1869 -0.5658
 3971W        W 7715   9.616   2.677   3.797  0.0192 -0.0621  0.0090
 3972W        W 7716   8.225   7.089  11.286  0.3309 -0.1414 -0.0917
 3973W        W 7717   6.919   9.436   3.580  0.0937 -0.2366 -0.0523
 3974W        W 7718   6.994   5.408   0.550 -0.0084 -0.0928 -0.1805
 3975W        W 7719   7.672   4.276   3.363  0.1372  0.0761  0.2684
 3976W        W 7720   2.815   9.493  10.262 -0.2082  0.0595  0.1270
 3977W        W 7721   6.628   8.606   0.241  0.0163 -0.1961  0.1495
 3978W        W 7722   1.393   6.816  10.337 -0.0340  0.3300 -0.0257
 3979W        W 7723   3.198   5.084   3.938 -0.0754 -0.0063  0.0340
 3980W        W 7724   3.457   8.252   3.511  0.2184  0.1425 -0.1402
 3981W        W 7725   2.782   5.208   3.620  0.0715 -0.0916 -0.1372
 3982W        W 7726   1.732   5.282   8.496 -0.0275  0.0863  0.0656
 3983W        W 7727   8.047   5.652   9.109 -0.1978 -0.0380  0.1040
 3984W        W 7728   0.815   7.647  10.144  0.1477  0.0982 -0.1220
 3985W        W 7729   5.775   7.951   3.498 -0.1430 -0.2500  0.0195
 3986W        W 7730   2.911   1.288   2.243  0.1234 -0.2073 -0.0550
 3987W        W 7731   8.665   1.519   1.545 -0.1578  0.3657  0.0432
 3988W        W 7732   6.668   9.389   0.972  0.1676 -0.2987 -0.1171
 3989W        W 7733   1.729   9.094   3.235 -0.0047 -0.3335 -0.1537
 3990W        W 7734   2.169   5.590  10.645 -0.2340 -0.2086 -0.2729
 3991W        W 7735   0.744   2.648  10.259 -0.2848 -0.0672  0.0892
 3992W        W 7736   0.069   6.369  11.276 -0.0268 -0.0166  0.0942
 3993W        W 7737   7.052   5.299   1.611 -0.1249  0.1405  0.2854
 3994W        W 7738   0.464   0.602   0.295  0.3492  0.1728  0.1342
 3995W        W 7739   4.600   1.449   0.580 -0.0243 -0.0722 -0.1598
 3996W        W 7740   1.754   3.016   4.034 -0.0577 -0.2130 -0.4420
 3997W        W 7741   4.222   0.722   0.974 -0.7924  0.0105  0.0492
 3998W        W 7742   0.773   1.504  12.543  0.1079  0.2271  0.3871
 3999W        W 7743   5.510   8.120  12.127  0.4886 -0.2432 -0.0738
 4000W        W 7744   6.416   2.034   2.841  0.1275  0.0085 -0.0108
 4001W        W 7745   5.066   7.346  11.085 -0.1498 -0.1615 -0.1109
 4002W        W 7746   3.594   5.181   9.593  0.2549 -0.2721 -0.1481
 4003W        W 7747   9.891   4.437  12.109 -0.2373 -0.3545  0.0085
 4004W        W 7748   6.025   6.321  10.983 -0.2912 -0.2692 -0.2924
 4005W        W 7749   1.438   9.090  10.409 -0.4702 -0.0187  0.0305
 4006W        W 7750   1.898   8.903  12.800  0.0956 -0.0617 -0.0782
 4007W        W 7751   4.948   2.752   9.037  0.1979 -0.3363  0.1512
 4008W        W 7752   8.967   2.431   1.155 -0.0506  0.0520  0.0428
 4009W        W 7753   4.271   4.285   9.046  0.1003  0.2973 -0.1306
 4010W        W 7754   8.198   5.147   3.493  0.0565 -0.0725  0.0974
 4011W        W 7755   0.697   7.027  10.930  0.2411  0.1429 -0.4687
 4012W        W 7756   5.645   6.651   1.594 -0.3350  0.2332  0.1522
 4013W        W 7757   5.598   9.905  10.516  0.0551  0.2665  0.2199
 4014W        W 7758   9.107   0.571  11.098  0.1585  0.1290 -0.2288
 4015W        W 7759   1.440   6.971   0.199 -0.0588  0.2992  0.2632
 4016W        W 7760   8.791   7.517   3.511 -0.1995 -0.2265 -0.1650
 4017W        W 7761   1.847   3.266  12.069 -0.1339 -0.3728 -0.2696
 4018W        W 7762   5.400   7.675   3.675 -0.2242 -0.0280 -0.0172
 4019W        W 7763   2.260   2.964   2.949  0.1354 -0.2269  0.1358
 4020W        W 7764   8.832   9.452   0.526  0.0325  0.1324 -0.3155
 4021W        W 7765   0.202   2.582  10.686  0.1192 -0.2108 -0.2132
 4022W        W 7766   1.394   9.360   0.995 -0.1727  0.2142 -0.0871
 4023W        W 7767   6.817   1.264  10.815 -0.0562  0.0044 -0.2060
 4024W        W 7768   0.099   7.984   9.592  0.1375  0.4560  0.0010
 4025W        W 7769   6.268   3.171   3.513  0.0536  0.0329 -0.0857
 4026W        W 7770   9.139   0.611  12.680  0.1764  0.0112 -0.2655
 4027W        W 7771   1.740   3.242   8.051 -0.3104  0.1244 -0.1336
 4028W        W 7772   7.192   2.465  11.499  0.1060  0.1477 -0.1139
 4029W        W 7773   5.432   5.920   0.942 -0.2127 -0.1340 -0.1904
 4030W        W 7774   4.668   3.876   9.058 -0.4334  0.0741  0.2447
 4031W        W 7775   0.151   6.356  11.846  0.2897  0.0546 -0.3270
 4032W        W 7776   9.017   8.450  10.446  0.0684  0.0806  0.0255
 4033W        W 7777   3.212   2.071   2.895  0.2815 -0.3453 -0.2080
 4034W        W 7778   2.418   6.080   2.484  0.2119  0.1195  0.0675
 4035W        W 7779   5.311   7.344   1.273  0.0296  0.0061 -0.5132
 4036W        W 7780   3.577   9.737   8.254 -0.0593  0.2414 -0.1479
 4037W        W 7781   5.709   1.823   1.279  0.0531 -0.4234  0.0759
 4038W        W 7782   7.677   7.088   1.830 -0.0690 -0.1409  0.0691
 4039W        W 7783   1.336   8.611  12.154  0.1015  0.1357  0.0758
 4040W        W 7784   5.853   1.665  11.841  0.1033  0.3249 -0.1203
 4041W        W 7785   1.717   4.307   1.988  0.0894 -0.0517 -0.1091
 4042W        W 7786   5.314   0.256  12.488 -0.0456 -0.1293 -0.0241
 4043W        W 7787   1.089   4.230  11.406 -0.1911 -0.0040 -0.0834
 4044W        W 7788   5.403   6.217  10.629  0.1672  0.0645  0.1305
 4045W        W 7789   5.397   9.353  12.007  0.0179 -0.1982  0.2126
 4046W        W 7790   9.930   7.581   3.187 -0.0498  0.0726 -0.1028
 4047W        W 7791   3.948   8.754   0.089  0.0301 -0.0006 -0.1392
 4048W        W 7792   9.311   2.803   0.577 -0.4157  0.1013 -0.0123
 4049W        W 7793   5.382   2.816   9.412 -0.2333  0.0911 -0.1059
 4050W        W 7794   8.383   3.339   0.745 -0.2461 -0.4136 -0.1174
 4051W        W 7795   3.109   4.717  10.959 -0.2525  0.0286 -0.0672
 4052W        W 7796   7.082   6.122   3.935  0.1973 -0.0744 -0.1980
 4053W        W 7797   9.364   3.344   8.205  0.1347  0.0810 -0.0789
 4054W        W 7798   7.452   0.891   2.608  0.3041 -0.1556 -0.1682
 4055W        W 7799   0.500   3.466  10.673  0.0777  0.0321  0.1926
 4056W        W 7800   5.033   3.290   3.865  0.2131  0.0596  0.1353
 4057W        W 7801   5.416   4.796   0.180  0.0252  0.0826  0.0085
 4058W        W 7802   0.609   3.921  10.194 -0.3223  0.0364  0.0479
 4059W        W 7803   5.077   0.296   1.998 -0.3770 -0.0255  0.2094
 4060W        W 7804   4.420   5.369   9.946 -0.2545 -0.1859  0.1659
 4061W        W 7805   4.951   3.784  11.548 -0.0320  0.2111  0.2826
 4062W        W 7806   6.448   8.091   2.456 -0.0276  0.0827  0.3344
 4063W        W 7807   0.768   5.494   4.271  0.3123 -0.0489  0.1177
 4064W        W 7808   3.526   4.927  11.169  0.1917 -0.0255  0.1944
 4065W        W 7809   3.352   7.767   3.895  0.1703  0.0970 -0.0329
 4066W        W 7810   5.335   2.697  10.303 -0.1755  0.0348  0.0420
 4067W        W 7811   2.438   0.253   1.277 -0.3226  0.1084 -0.1167
 4068W        W 7812   7.835   5.444   8.735 -0.1191 -0.1299  0.0236
 4069W        W 7813   3.949   1.531  10.727 -0.0232  0.2839  0.3258
 4070W        W 7814   3.880   5.484   9.320 -0.1640 -0.3629  0.5168
 4071W        W 7815   7.213   7.730  11.742 -0.0752  0.1119  0.1148
 4072W        W 7816   5.936   0.489   3.241  0.3983 -0.1168 -0.3554
 4073W        W 7817   2.298   1.973  10.287 -0.1889  0.4571 -0.0987
 4074W        W 7818   1.295   4.459   4.465  0.0070  0.1805  0.0074
 4075W        W 7819   3.526   8.186  12.175  0.2107  0.0571 -0.1218
 4076W        W 7820   6.762   8.182  12.682 -0.2105  0.2099  0.2412
 4077W        W 7821   9.747   0.006   3.058  0.0374 -0.0093  0.1740
 4078W        W 7822   4.393   9.293   8.975  0.2945  0.0481  0.0497
 4079W        W 7823   9.448   3.676   2.911  0.0192  0.1955  0.1714
 4080W        W 7824   3.898   6.944   1.271 -0.0634 -0.2094 -0.0923
 4081W        W 7825   3.138   9.765   1.326  0.1440 -0.0287 -0.3370
 4082W        W 7826   2.315   3.731  10.993 -0.0804 -0.2756 -0.0906
 4083W        W 7827   2.265   4.804  11.129  0.1203 -0.0752 -0.0067
 4084W        W 7828   2.099   5.111   9.355  0.1916  0.5962  0.2401
 4085W        W 7829   6.067   7.198  10.562  0.1767  0.1229 -0.0183
 4086W        W 7830   4.915   8.350   3.184  0.3522 -0.0318  0.4004
 4087W        W 7831   0.141   5.781  11.564 -0.1350 -0.0168  0.0999
 4088W        W 7832   7.428   6.794   1.311  0.0481 -0.1051 -0.1639
 4089W        W 7833   8.623   1.899   1.928 -0.3507  0.1494  0.1573
 4090W        W 7834   0.299   3.550  10.173 -0.2371 -0.0519  0.0263
 4091W        W 7835   1.968   0.441   1.480 -0.0691  0.1076 -0.1648
 4092W        W 7836   5.785   0.284   4.268 -0.2616  0.0032 -0.0097
 4093W        W 7837   4.649   1.925   2.367 -0.4258 -0.0290  0.0051
 4094W        W 7838   9.010   7.925   3.248  0.0448  0.4001  0.2592
 4095W        W 7839   5.082   5.294   2.427 -0.4736 -0.0400  0.1299
 4096W        W 7840   8.135   7.735  10.147  0.2461  0.2470 -0.1318
 4097W        W 7841   2.136   4.633   2.260 -0.2573  0.0839  0.1665
 4098W        W 7842   2.915   4.995   3.068 -0.2771 -0.2076 -0.1765
 4099W        W 7843   8.466   0.981   1.642 -0.0115  0.0897 -0.0640
 4100W        W 7844   9.361   8.594   9.250 -0.4197 -0.0939  0.1110
 4101W        W 7845   7.011   3.336   3.148  0.0738  0.0546  0.4099
 4102W        W 7846   8.411   5.540  11.220  0.0342 -0.0831 -0.2338
 4103W        W 7847   6.877   4.398   4.042  0.0999 -0.0341 -0.0231
 4104W        W 7848   4.327   5.824   0.666 -0.1796 -0.0216  0.0111
 4105W        W 7849   6.154   0.605   3.940  0.1976 -0.0636 -0.0599
 4106W        W 7850   3.751   9.438  10.087 -0.2225 -0.3004 -0.0470
 4107W        W 7851   8.663   3.230   9.560  0.1023  0.2255  0.0676
 4108W        W 7852   8.029   3.037   2.390 -0.0310 -0.0650 -0.1232
 4109W        W 7853   0.982   2.662   7.759  0.3522 -0.2329 -0.1002
 4110W        W 7854   5.448   7.106   2.676  0.0005  0.0849  0.1476
 4111W        W 7855   8.582   2.777  10.451 -0.0060  0.0679 -0.1299
 4112W        W 7856   7.198   2.019  10.100 -0.2116 -0.2070  0.1864
 4113W        W 7857   8.183   2.781   1.588 -0.0235 -0.3177 -0.2100
 4114W        W 7858   5.211   2.566  11.154 -0.0408  0.2389  0.0162
 4115W        W 7859   8.812   6.960  11.073 -0.0262 -0.0981  0.3080
 4116W        W 7860   7.486   3.609   4.046 -0.1008  0.0455  0.0713
 4117W        W 7861   3.946   8.648   2.182 -0.1716 -0.0200 -0.1232
 4118W        W 7862   6.392   9.711  10.208 -0.2004  0.0653 -0.1081
 4119W        W 7863   1.007   0.903   4.703  0.0510 -0.2304 -0.0983
 4120W        W 7864   4.117   5.770  11.816  0.0819  0.2249 -0.1648
 4121W        W 7865   8.485   8.348  12.505 -0.1337  0.0379  0.2294
 4122W        W 7866   5.532   7.347  11.336 -0.1146 -0.4476 -0.0754
 4123W        W 7867   7.886   6.290   1.673  0.0851  0.0999  0.0224
 4124W        W 7868   1.879   2.487   4.172 -0.2023 -0.0990 -0.0335
 4125W        W 7869   1.422   6.014   9.887  0.2904  0.2026 -0.0696
 4126W        W 7870   4.373   9.638  11.888  0.0442  0.0142 -0.0070
 4127W        W 7871   1.342   2.683   4.181 -0.2985 -0.3357 -0.2709
 4128W        W 7872   0.511   2.320   9.859 -0.4758  0.1392 -0.2717
 4129W        W 7873   9.002   8.863  12.309  0.0039 -0.0230 -0.0814
 4130W        W 7874   6.157   9.197   4.676  0.2451 -0.1840  0.0417
 4131W        W 7875   1.675   5.060  12.199  0.1671  0.2078 -0.2935
 4132W        W 7876   1.225   1.144  11.532 -0.0078  0.0712 -0.0153
 4133W        W 7877   3.993   3.898  10.979 -0.2635 -0.1227 -0.0484
 4134W        W 7878   2.094   8.783  11.900  0.1434 -0.0238 -0.1597
 4135W        W 7879   2.925   8.844  11.568  0.0523  0.2101  0.0646
 4136W        W 7880   3.451   1.229   9.306 -0.1979  0.5072 -0.2554
 4137W        W 7881   4.540   8.253  11.975  0.1615 -0.3385 -0.2648
 4138W        W 7882   4.726   7.276  12.384 -0.1968  0.0988 -0.2139
 4139W        W 7883   9.623   4.003   9.189  0.1008  0.2365  0.4272
 4140W        W 7884   0.369   9.307   9.710  0.3385 -0.0530 -0.0133
 4141W        W 7885   7.668   8.497   0.023 -0.0247 -0.1044 -0.0103
 4142W        W 7886   3.825   8.792   8.612 -0.2688  0.2830 -0.1113
 4143W        W 7887   6.817   6.827   0.777 -0.1035  0.0538  0.0815
 4144W        W 7888   2.982   4.043   9.753 -0.0278 -0.0171  0.2152
 4145W        W 7889   8.040   0.964   0.633  0.1112  0.3911 -0.3183
 4146W        W 7890   3.789   1.418   0.851  0.2468 -0.0826 -0.0981
 4147W        W 7891   6.712   1.546  12.434  0.1239  0.2245 -0.0204
 4148W        W 7892   3.131   9.205   4.549 -0.1216  0.0605  0.0260
 4149W        W 7893   5.641   2.055   8.724 -0.1776  0.2036  0.2417
 4150W        W 7894   0.589   8.345  12.250 -0.2711  0.1670 -0.0192
 4151W        W 7895   3.319   4.291   4.597 -0.2477 -0.1218 -0.2710
 4152W        W 7896   5.179   4.203   9.777  0.1086 -0.2834  0.3035
 4153W        W 7897   4.822   3.396   0.229 -0.1380  0.0644  0.0191
 4154W        W 7898   9.915   3.812   2.170 -0.0978  0.0029 -0.0333
 4155W        W 7899   9.742   4.843   0.264  0.2965  0.1306  0.1364
 4156W        W 7900   3.485   7.275   3.127 -0.0836  0.0376 -0.0490
 4157W        W 7901   5.354   8.743  12.293 -0.2228 -0.1299 -0.0513
 4158W        W 7902   9.151   3.425   1.455 -0.1605 -0.0039 -0.0097
 4159W        W 7903   8.752   5.426  10.820  0.4316 -0.4166 -0.1957
 4160W        W 7904   6.320   5.535  11.429 -0.0791 -0.4644  0.0221
 4161W        W 7905   4.177   0.287   2.239  0.2691  0.1189 -0.0059
 4162W        W 7906   2.088   6.098  10.456  0.0718 -0.0415  0.1295
 4163W        W 7907   7.912   9.860  11.457 -0.2620  0.1390 -0.1720
 4164W        W 7908   5.722   6.501   8.878  0.0556 -0.0878  0.2814
 4165W        W 7909   3.930   0.502   4.871  0.0093 -0.0471 -0.2199
 4166W        W 7910   8.166   6.197   9.084  0.1042 -0.1357 -0.1526
 4167W        W 7911   7.750   3.520  12.723 -0.1231 -0.2232 -0.2341
 4168W        W 7912   1.995   8.620  11.396  0.1175 -0.0721 -0.1144
 4169W        W 7913   6.891   7.479   1.561 -0.0045 -0.0157 -0.1433
 4170W        W 7914   6.674   6.837   9.004  0.0107  0.4270  0.0378
 4171W        W 7915   2.450   6.453   3.183 -0.1483  0.0303  0.0434
 4172W        W 7916   1.869   7.717   9.053 -0.2305  0.1263 -0.3140
 4173W        W 7917   1.271   2.723  12.538 -0.1646 -0.0772 -0.1247
 4174W        W 7918   9.696   0.713   9.109  0.1317 -0.3607  0.1288
 4175W        W 7919   5.517   6.307   0.565  0.0284  0.0883  0.0259
 4176W        W 7920   8.799   9.177   9.580  0.1073 -0.1324 -0.3387
 4177W        W 7921   1.048   4.063   8.864 -0.2332  0.2884  0.1031
 4178W        W 7922   8.495   8.407   0.173  0.0766  0.0929 -0.0095
 4179W        W 7923   0.193   0.391   9.929 -0.1969 -0.2656 -0.1228
 4180W        W 7924   4.204   6.356   3.542 -0.0391  0.2227 -0.1567
 4181W        W 7925   8.873   8.585   2.465 -0.0027 -0.0449 -0.0823
 4182W        W 7926   4.893   3.697  11.055 -0.0182 -0.0559 -0.1996
 4183W        W 7927   8.510   6.046  12.665 -0.1253 -0.0081  0.2058
 4184W        W 7928   0.761   2.625  11.766 -0.3527  0.0638 -0.0537
 4185W        W 7929   9.625   2.494  11.313  0.1401 -0.3456  0.2005
 4186W        W 7930   3.960   9.528   2.973 -0.4916 -0.2720  0.0085
 4187W        W 7931   7.339   1.692  10.411 -0.1525 -0.3029  0.0927
 4188W        W 7932   6.772   3.277   0.279 -0.1017  0.2504  0.0823
 4189W        W 7933   6.825   0.528  11.102  0.2923 -0.3096 -0.2300
 4190W        W 7934   4.838   3.818   0.470  0.1470 -0.2666  0.2865
 4191W        W 7935   2.198   5.790   0.799  0.1087  0.1616 -0.2864
 4192W        W 7936   8.664   7.403   0.860  0.0077  0.0026 -0.0611
 4193W        W 7937   7.597   9.351   0.112  0.2153  0.1323 -0.2776
 4194W        W 7938   4.393   5.375   9.128  0.0079 -0.2103 -0.2337
 4195W        W 7939   5.239   4.669   2.975 -0.1260  0.0687  0.0873
 4196W        W 7940   2.191   3.358   4.840  0.0515 -0.0468  0.0681
 4197W        W 7941   8.493   2.653   8.153 -0.0643  0.0863 -0.0612
 4198W        W 7942   6.603   1.358   9.967 -0.1271  0.0243 -0.1655
 4199W        W 7943   1.497   9.560   0.524 -0.0477 -0.0297  0.0947
 4200W        W 7944   0.761   2.532  12.635  0.0313  0.1818 -0.2777
 4201W        W 7945   3.272   1.092  12.534  0.0337 -0.1344  0.0569
 4202W        W 7946   5.665   2.604   4.161  0.1911 -0.0269  0.2140
 4203W        W 7947   3.148   6.646   0.909  0.2866  0.0871  0.1730
 4204W        W 7948   1.907   9.494  12.480 -0.1834  0.0982  0.0299
 4205W        W 7949   2.575   3.035  11.703  0.2879  0.4491  0.1462
 4206W        W 7950   1.110   1.435   0.255 -0.1176 -0.0865 -0.0753
 4207W        W 7951   7.650   9.437  12.402  0.0381 -0.1036 -0.1593
 4208W        W 7952   1.823   0.927   0.224  0.1227  0.2195  0.0929
 4209W        W 7953   1.836   1.402  10.519  0.0284  0.0380 -0.3536
 4210W        W 7954   2.725   8.273   0.435 -0.3218 -0.0432 -0.1042
 4211W        W 7955   5.764   8.174   1.229  0.3063  0.0045  0.0628
 4212W        W 7956   0.423   3.301   8.957 -0.0414 -0.1391 -0.0981
 4213W        W 7957   5.911   3.599  10.235  0.0551 -0.0378 -0.2602
 4214W        W 7958   5.468   1.539   8.106  0.0517  0.0085 -0.1427
 4215W        W 7959   0.816   9.589  10.492 -0.1484  0.0359 -0.1248
 4216W        W 7960   2.780   7.819   2.055 -0.1151  0.0685 -0.2115
 4217W        W 7961   5.136   8.066   3.650  0.3067 -0.0308 -0.1971
 4218W        W 7962   2.168   2.434   2.777 -0.1428 -0.3493 -0.0469
 4219W        W 7963   4.481   9.472   0.162  0.0138  0.2068  0.0589
 4220W        W 7964   7.794   8.407   1.975 -0.1652  0.1603  0.0143
 4221W        W 7965   7.779   4.520   9.913 -0.0788 -0.0438  0.1325
 4222W        W 7966   8.583   5.099  10.286 -0.0140  0.1442  0.0781
 4223W        W 7967   0.881   1.560   2.661 -0.3131  0.3414  0.0806
 4224W        W 7968   3.296   4.838   1.414 -0.2052  0.2450 -0.1344
 4225W        W 7969   0.889   9.937  12.347 -0.1787  0.3087  0.1565
 4226W        W 7970   4.674   9.706  10.574 -0.0030  0.0631  0.2613
 4227W        W 7971   3.154   3.637   0.082 -0.1562  0.0873 -0.3130
 4228W        W 7972   2.954   2.229  11.667  0.0095 -0.2464  0.0400
 4229W        W 7973   4.474   1.183   3.344 -0.1611  0.2414 -0.0566
 4230W        W 7974   1.790   4.335   0.695 -0.0964 -0.2474 -0.1654
 4231W        W 7975   8.489   2.970  11.280  0.0880  0.1123  0.0095
 4232W        W 7976   8.341   3.211   9.994  0.1310  0.0403  0.0828
 4233W        W 7977   7.256   4.265  10.810  0.0266  0.0971 -0.1592
 4234W        W 7978   0.630   8.833   0.944 -0.0123  0.2190 -0.4057
 4235W        W 7979   0.484   0.939  10.649  0.3262  0.0402  0.3690
 4236W        W 7980   4.893   2.503   3.380 -0.2420 -0.2978  0.1330
 4237W        W 7981   9.896   2.235  10.079  0.1088 -0.0910  0.0275
 4238W        W 7982   8.373   4.731   3.706  0.0687  0.1224 -0.2060
 4239W        W 7983   4.616   4.960   2.314  0.3702  0.1681  0.1568
 4240W        W 7984   8.040   6.407  10.346  0.1649  0.2805  0.1130
 4241W        W 7985   2.882   9.608   3.747  0.0691 -0.2787  0.0989
 4242W        W 7986   8.284   5.733   0.186  0.1127  0.0559  0.3515
 4243W        W 7987   7.111   0.653  12.269 -0.2988 -0.1768 -0.1153
 4244W        W 7988   6.093   1.633   9.347  0.1402  0.0925 -0.2540
 4245W        W 7989   6.313   9.201   2.756  0.0888 -0.0069  0.0173
 4246W        W 7990   2.015   4.862   1.121 -0.2382  0.0139  0.0104
 4247W        W 7991   5.256   6.411   8.780  0.1485 -0.0651 -0.2079
 4248W        W 7992   1.563   0.423   1.084  0.3244 -0.0392  0.1047
 4249W        W 7993   4.875   2.428   4.042 -0.1329  0.0406 -0.0777
 4250W        W 7994   2.327   4.343  12.381  0.0394 -0.0306 -0.0124
 4251W        W 7995   4.561   5.196   8.688  0.0326  0.1759 -0.1399
 4252W        W 7996   1.380   6.386   2.703 -0.2322  0.1656  0.2622
 4253W        W 7997   8.159   1.379   1.383 -0.1255  0.3232 -0.2890
 4254W        W 7998   1.416   7.912  10.440  0.0550  0.0824 -0.0445
 4255W        W 7999   8.217   9.859   3.172  0.1028  0.1565 -0.0394
 4256W        W 8000   2.764   9.935   0.984 -0.0162 -0.3180 -0.0846
 4257W        W 8001   2.505   2.791   9.864 -0.4396 -0.1246  0.1425
 4258W        W 8002   9.530   8.426  10.388 -0.2584  0.0365 -0.3485
 4259W        W 8003   3.602   3.396   9.225  0.0737 -0.0665  0.1868
 4260W        W 8004   2.486   2.534  10.307 -0.1235 -0.0095 -0.0613
 4261W        W 8005   3.611   9.627   9.651  0.1851 -0.0439 -0.1025
 4262W        W 8006   3.081   0.049   2.218  0.1500 -0.2026 -0.0434
 4263W        W 8007   1.785   8.761   1.420 -0.0991  0.1799 -0.2251
 4264W        W 8008   6.350   3.057   0.158  0.2440 -0.1597 -0.1578
 4265W        W 8009   6.049   6.560   3.110  0.0669 -0.0678 -0.0784
 4266W        W 8010   3.923   5.140   0.778  0.1654  0.4549 -0.2811
 4267W        W 8011   1.239   5.617   0.420  0.1360  0.1782 -0.0353
 4268W        W 8012   7.389   9.684   1.515 -0.0129  0.1737 -0.0523
 4269W        W 8013   2.732   7.694  10.009 -0.2851 -0.0136  0.0958
 4270W        W 8014   5.094   7.097   3.707  0.0974 -0.0077  0.0202
 4271W        W 8015   8.610   3.074   2.406  0.0469 -0.0132 -0.1554
 4272W        W 8016   3.322   2.397   1.916  0.1077 -0.1035  0.3284
 4273W        W 8017   4.646   2.379   8.859 -0.1948 -0.1100 -0.2295
 4274W        W 8018   3.071   9.701   1.830 -0.1641 -0.1439  0.2661
 4275W        W 8019   1.090   2.251   3.005 -0.1356 -0.1138  0.1333
 4276W        W 8020   9.658   3.593   9.936  0.1133 -0.0516  0.0353
 4277W        W 8021   9.643   1.332   4.418 -0.0344 -0.0506  0.1312
 4278W        W 8022   2.567   0.614  12.116  0.0368 -0.1939 -0.1308
 4279W        W 8023   1.273   1.630   5.004 -0.2446  0.1172  0.1111
 4280W        W 8024   8.433   5.928   3.255 -0.0916  0.2078  0.1170
 4281W        W 8025   6.993   6.140   1.724  0.0028 -0.1072 -0.2829
 4282W        W 8026   8.947   7.293  10.104 -0.3291  0.0473  0.2655
 4283W        W 8027   2.525   6.252   3.874  0.1040  0.2060 -0.2623
 4284W        W 8028   4.748   5.862   2.503 -0.0714 -0.2674  0.1328
 4285W        W 8029   4.812   3.732   8.153  0.0861  0.0812 -0.0892
 4286W        W 8030   3.504   6.004   0.465  0.1212 -0.0940  0.0312
 4287W        W 8031   2.672   0.845   2.535  0.0963  0.0023 -0.1835
 4288W        W 8032   2.643   3.103  12.429 -0.3154  0.3038 -0.0607
 4289W        W 8033   4.365   8.406   3.458  0.0402 -0.3000  0.2344
 4290W        W 8034   7.643   5.690  10.021  0.1810  0.1015  0.2801
 4291W        W 8035   1.214   7.605  11.917  0.0791  0.1978 -0.2030
 4292W        W 8036   8.735   2.258  11.631  0.2363  0.1450  0.0289
 4293W        W 8037   0.518   6.996   2.705 -0.0267  0.1959  0.0759
 4294W        W 8038   5.270   9.125  12.628 -0.0358  0.0519  0.1277
 4295W        W 8039   5.760   3.496  10.723 -0.0353 -0.0640  0.0981
 4296W        W 8040   0.814   4.203   3.750 -0.0499  0.1764  0.2374
 4297W        W 8041   8.133   1.144   9.951 -0.0107 -0.1444 -0.0737
 4298W        W 8042   7.382   6.457   1.655  0.3456 -0.0294 -0.1540
 4299W        W 8043   4.830   0.370   0.355  0.0159 -0.0650 -0.0056
 4300W        W 8044   4.390   1.035   2.386  0.0475  0.0268  0.3058
 4301W        W 8045   0.759   4.319   4.572 -0.0964 -0.1544 -0.2134
 4302W        W 8046   8.321   8.643  11.229 -0.1131 -0.0645  0.2469
 4303W        W 8047   8.826   0.624  10.162 -0.1676 -0.1292  0.1548
 4304W        W 8048   3.380   3.387   3.524  0.1935  0.0245  0.0926
 4305W        W 8049   4.125   2.770   9.848 -0.0465 -0.1826 -0.2536
 4306W        W 8050   4.204   7.954   4.201  0.1253  0.0139 -0.1793
 4307W        W 8051   8.931   5.941  10.426  0.0957  0.1975 -0.1785
 4308W        W 8052   9.831   7.579   1.234 -0.0123  0.0462  0.0861
 4309W        W 8053   9.392   5.378   8.887  0.0559  0.0420  0.0854
 4310W        W 8054   0.612   7.712  11.075 -0.0019  0.1384  0.0626
 4311W        W 8055   4.180   6.545   0.355  0.0383  0.2786  0.1922
 4312W        W 8056   2.517   8.780   0.641 -0.0172 -0.2528 -0.2832
 4313W        W 8057   4.884   8.958   4.711  0.0864 -0.3061 -0.0940
 4314W        W 8058   9.014   1.044   0.437 -0.1353  0.4398  0.0232
 4315W        W 8059   6.797   8.830  11.683 -0.3795 -0.0280 -0.0959
 4316W        W 8060   5.558   7.861  11.197  0.0006  0.0085  0.2559
 4317W        W 8061   6.707   3.595   3.431 -0.1050  0.0277  0.1274
 4318W        W 8062   9.079   2.827  12.489  0.0087  0.1625  0.0109
 4319W        W 8063   0.847   7.031  12.261 -0.0878 -0.2006  0.2032
 4320W        W 8064   2.297   1.022   0.406 -0.0815  0.0800 -0.1425
 4321W        W 8065   5.228   1.726  11.197 -0.1559  0.0133 -0.0599
 4322W        W 8066   4.964   4.179   0.788 -0.1456 -0.2543 -0.3704
 4323W        W 8067   8.703   9.676   0.985 -0.0230  0.1001  0.0093
 4324W        W 8068   2.445   8.073   1.343  0.1872 -0.0268 -0.3254
 4325W        W 8069   6.704   5.874  11.679  0.0094  0.1674  0.3116
 4326W        W 8070   7.570   2.343   1.823  0.3113 -0.2078  0.0224
 4327W        W 8071   5.548   5.022   1.322 -0.2702  0.3846 -0.2666
 4328W        W 8072   7.327   1.833   1.347  0.0523  0.3120  0.0348
 4329W        W 8073   4.739   5.440   3.601 -0.2022 -0.2021 -0.2268
 4330W        W 8074   2.502   6.273  11.640 -0.0972 -0.4342  0.2023
 4331W        W 8075   4.002   9.606  10.728  0.2898 -0.0536  0.0499
 4332W        W 8076   4.369   0.423  12.664  0.2167 -0.3038 -0.2071
 4333W        W 8077   3.274   2.393   4.548 -0.1609 -0.0154  0.0345
 4334W        W 8078   1.553   7.956   2.588  0.3866  0.0368  0.0843
 4335W        W 8079   5.937   3.606  11.795 -0.0634 -0.0532 -0.0801
 4336W        W 8080   5.012   7.079   9.970 -0.1423 -0.1509 -0.0684
 4337W        W 8081   0.082   4.901  10.054  0.1468  0.0779 -0.1082
 4338W        W 8082   5.074   1.487   8.977  0.5883  0.0281 -0.2372
 4339W        W 8083   2.530   5.578   3.744 -0.2142  0.0071  0.2083
 4340W        W 8084   7.868   3.384  10.034  0.0610  0.1708 -0.0512
 4341W        W 8085   6.874   2.986   4.723  0.1041 -0.0852  0.4438
 4342W        W 8086   8.147   3.487   9.609 -0.2519  0.1566 -0.0885
 4343W        W 8087   9.217   6.582  12.750  0.0538  0.0269  0.0624
 4344W        W 8088   6.189   0.044  11.721 -0.1320  0.1936  0.1016
 4345W        W 8089   7.341   6.466   9.562  0.1850  0.3476  0.1644
 4346W        W 8090   4.815   9.266  11.493 -0.0352 -0.0866 -0.1889
 4347W        W 8091   3.218   8.260   2.052 -0.0724  0.2498  0.0770
 4348W        W 8092   0.162   2.036   3.197  0.1886  0.0028  0.0970
 4349W        W 8093   6.724   8.547   9.226  0.2061 -0.0187  0.3875
 4350W        W 8094   3.186   1.180   3.798  0.0049 -0.4353 -0.1817
 4351W        W 8095   6.716   5.677   1.681 -0.0369  0.1434  0.3625
 4352W        W 8096   6.402   4.550   4.135  0.2787 -0.0875 -0.0599
 4353W        W 8097   2.670   9.749   1.532 -0.0092 -0.2644  0.0436
 4354W        W 8098   0.257   6.786  11.014  0.0795 -0.2209  0.3402
 4355W        W 8099   5.622   1.444  11.351 -0.0447 -0.2279 -0.1223
 4356W        W 8100   3.879   7.799   9.987  0.0142 -0.3588 -0.2509
 4357W        W 8101   2.450   9.318   1.568  0.2617  0.1420 -0.2506
 4358W        W 8102   4.465   4.487   2.079  0.0188 -0.0539 -0.0871
 4359W        W 8103   6.602   4.395  11.900  0.1097  0.1958  0.3887
 4360W        W 8104   2.268   7.338   0.682  0.3048  0.0874 -0.0670
 4361W        W 8105   5.204   6.561  10.216  0.1316  0.1230 -0.2436
 4362W        W 8106   3.397   8.723   9.515  0.0058  0.1387  0.1141
 4363W        W 8107   9.341   9.125   1.893  0.2079 -0.0083 -0.1300
 4364W        W 8108   9.219   2.510   8.393 -0.2451 -0.2503 -0.2926
 4365W        W 8109   6.415   0.786   9.870  0.0114  0.0973 -0.1463
 4366W        W 8110   0.662   2.508  10.788  0.2928  0.1933 -0.1941
 4367W        W 8111   3.684   8.099   1.901  0.0621 -0.1108  0.3447
 4368W        W 8112   3.250   3.457   1.157  0.3543 -0.0179  0.0556
 4369W        W 8113   5.884   1.880   2.328  0.0069  0.1087  0.0113
 4370W        W 8114   4.543   1.736   9.371  0.2216 -0.0646 -0.1119
 4371W        W 8115   9.163   1.531   3.327 -0.0102 -0.1101  0.1013
 4372W        W 8116   9.017   5.475  10.412 -0.2008 -0.1100 -0.1419
 4373W        W 8117   6.114   4.702   9.424 -0.0412  0.1979  0.0048
 4374W        W 8118   0.799   6.289   0.700 -0.2384  0.1920 -0.0087
 4375W        W 8119   2.857   6.554  11.442  0.0945 -0.1090  0.0043
 4376W        W 8120   0.718   6.679  10.556 -0.1027 -0.0539 -0.1466
 4377W        W 8121   8.865   1.868  11.950 -0.2293  0.1977 -0.0733
 4378W        W 8122   8.533   6.045   1.075 -0.1086 -0.1360  0.2157
 4379W        W 8123   7.836   7.608   2.552 -0.0529  0.3750  0.0805
 4380W        W 8124   2.319   9.472  11.499 -0.0818  0.1099  0.0997
 4381W        W 8125   4.330   0.047   9.506  0.1836  0.0684 -0.3112
 4382W        W 8126   5.804   8.096   8.218  0.1599  0.0222  0.0194
 4383W        W 8127   0.423   5.280  11.712 -0.1695 -0.1488 -0.0765
 4384W        W 8128   6.102   2.457   3.975  0.0127  0.0074 -0.0098
 4385W        W 8129   4.734   7.448  10.746  0.0169 -0.1499 -0.1904
 4386W        W 8130   2.226   9.910  11.663 -0.3452 -0.2586  0.0824
 4387W        W 8131   4.690   8.039   3.813 -0.1374 -0.2456  0.1366
 4388W        W 8132   7.583   5.245  10.019  0.0247  0.2762 -0.0938
 4389W        W 8133   4.349   8.691   9.798 -0.0157 -0.1538 -0.0324
 4390W        W 8134   5.890   2.770   3.078  0.2209 -0.3279  0.1613
 4391W        W 8135   8.492   0.341   3.337 -0.0010  0.1653 -0.1229
 4392W        W 8136   0.330   3.024  10.830 -0.0486 -0.1932 -0.1133
 4393W        W 8137   9.185   1.827  10.834  0.2493 -0.1404 -0.1522
 4394W        W 8138   1.744   4.139  11.702 -0.1958  0.0337  0.1114
 4395W        W 8139   2.250   9.178  10.919 -0.2663 -0.1767 -0.0538
 4396W        W 8140   7.995   6.482  12.060  0.0550 -0.2791  0.1914
 4397W        W 8141   1.141   2.879   3.711  0.1818 -0.4925  0.3913
 4398W        W 8142   7.842   9.100   3.728  0.1611 -0.0677 -0.1657
 4399W        W 8143   2.337   5.487   1.233  0.1329  0.1130  0.0448
 4400W        W 8144   5.731   9.253  12.345 -0.1960 -0.1604 -0.1817
 4401W        W 8145   2.525   3.418   9.396  0.1467 -0.1563 -0.0634
 4402W        W 8146   8.262   8.254  12.052 -0.0300 -0.0934 -0.4052
 4403W        W 8147   9.868   5.560  12.386  0.0434 -0.1792 -0.0086
 4404W        W 8148   7.691   3.951   2.870 -0.0458 -0.0919  0.3188
 4405W        W 8149   6.343   6.551   2.177 -0.0448 -0.1398 -0.0198
 4406W        W 8150   8.076   9.179  12.743  0.1181  0.1437 -0.2526
 4407W        W 8151   4.243   1.203   9.471  0.3673  0.4890  0.0418
 4408W        W 8152   4.886   1.617   0.974 -0.2152  0.0126  0.0548
 4409W        W 8153   1.215   1.567  11.157 -0.1123 -0.0017  0.0766
 4410W        W 8154   8.051   1.141  11.067 -0.2090  0.0729  0.1815
 4411W        W 8155   0.149   0.687   0.681 -0.0320  0.2108  0.0686
 4412W        W 8156   0.694   3.947   8.464  0.3371  0.2211 -0.0710
 4413W        W 8157   6.225   8.566   0.014 -0.1758  0.1466 -0.0591
 4414W        W 8158   3.575   5.138   8.217 -0.0085 -0.3426 -0.2288
 4415W        W 8159   9.758   4.128   3.577  0.0084 -0.0557  0.3217
 4416W        W 8160   0.096   4.624  10.459 -0.2323  0.0799 -0.1452
 4417W        W 8161   3.206   8.540  11.905 -0.3707 -0.3405 -0.0628
 4418W        W 8162   5.978   6.232   0.786 -0.0537 -0.0156  0.0500
 4419W        W 8163   1.180   9.843  11.970 -0.0227 -0.1893  0.2827
 4420W        W 8164   3.994   8.389  11.249  0.2680  0.0983 -0.3373
 4421W        W 8165   6.503   3.576   1.252  0.3152  0.0668  0.1579
 4422W        W 8166   9.176   6.257   2.290  0.0623  0.1027  0.0735
 4423W        W 8167   8.591   2.027   9.820  0.0009  0.2648  0.0950
 4424W        W 8168   9.085   2.117   9.699 -0.1963 -0.0101 -0.3642
 4425W        W 8169   8.369   5.385   3.094  0.1975 -0.2405 -0.0118
 4426W        W 8170   4.580   6.278   9.597  0.1137  0.0298  0.0121
 4427W        W 8171   4.891   5.214   1.954 -0.0117 -0.2497 -0.0204
 4428W        W 8172   2.921   2.719   0.974 -0.0392  0.0067 -0.0567
 4429W        W 8173   5.908   9.224  10.210 -0.0391  0.0924  0.1248
 4430W        W 8174   6.043   4.001   9.898  0.4601 -0.0284 -0.4243
 4431W        W 8175   3.853   3.648   1.807  0.0861 -0.1657  0.0711
 4432W        W 8176   6.788   9.865   9.980 -0.2288 -0.1793  0.1321
 4433W        W 8177   6.343   3.669  11.305  0.0862  0.4937 -0.0476
 4434W        W 8178   2.023   4.755  12.354  0.0308 -0.0552 -0.0263
 4435W        W 8179   3.732   2.988   0.814 -0.0839  0.1434  0.2346
 4436W        W 8180   2.340   6.917   9.596  0.1574  0.3677 -0.0019
 4437W        W 8181   1.818   2.856   0.389  0.1118  0.1029  0.1483
 4438W        W 8182   3.626   6.509   9.698  0.0943 -0.1701  0.3824
 4439W        W 8183   8.732   1.051   2.341 -0.1007 -0.0730  0.0395
 4440W        W 8184   2.967   0.938   7.692  0.4615  0.0697  0.0534
 4441W        W 8185   6.885   3.641   1.632  0.0281  0.1477 -0.1180
 4442W        W 8186   3.817   6.307   9.069 -0.1001 -0.0322  0.3745
 4443W        W 8187   3.328   9.372   0.488  0.2094  0.2190 -0.1725
 4444W        W 8188   4.637   6.773   4.405  0.0407 -0.0949  0.3622
 4445W        W 8189   6.936   7.768   2.490  0.0620  0.3101 -0.3797
 4446W        W 8190   8.511   4.525   3.288 -0.0077 -0.0673  0.0896
 4447W        W 8191   0.058   3.102  10.413  0.3022  0.2668 -0.0479
 4448W        W 8192   3.146   4.317   3.250  0.0528 -0.1964  0.3577
 4449W        W 8193   8.377   6.591  11.240  0.2210 -0.0044 -0.1858
 4450W        W 8194   2.361   8.441   3.142  0.2095  0.1809  0.0586
 4451W        W 8195   4.008   2.190   8.799  0.0008 -0.0166  0.1388
 4452W        W 8196   5.343   6.716  10.699 -0.0684 -0.0202  0.2375
 4453W        W 8197   9.775   6.728   0.873 -0.0348  0.1446  0.0693
 4454W        W 8198   0.199   6.464  10.273 -0.1720  0.0332 -0.0003
 4455W        W 8199   7.371   9.910   2.808  0.0256  0.1312  0.3891
 4456W        W 8200   2.902   3.715   0.815 -0.1181 -0.2890 -0.0740
 4457W        W 8201   8.225   8.084   4.353 -0.2695 -0.0483 -0.1430
 4458W        W 8202   5.738   9.741   4.069 -0.0247  0.2378  0.1121
 4459W        W 8203   8.435   8.996   2.261  0.1032 -0.0715  0.0642
 4460W        W 8204   9.569   0.606  11.328  0.0760 -0.2009  0.1046
 4461W        W 8205   7.578   4.587   9.155  0.1357 -0.1179  0.0242
 4462W        W 8206   1.144   3.676   8.606 -0.0690 -0.1944 -0.0132
 4463W        W 8207   7.192   2.867   9.947 -0.1491 -0.0203  0.0556
 4464W        W 8208   3.907   0.421   9.547  0.1324  0.2365 -0.0548
 4465W        W 8209   4.248   2.305   2.791 -0.2178  0.1550  0.2130
 4466W        W 8210   6.126   7.998   9.753  0.0398  0.0389  0.2907
 4467W        W 8211   8.119   3.911   0.114  0.1357 -0.3264  0.1464
 4468W        W 8212   5.719   3.864   0.339  0.0527 -0.0185 -0.2512
 4469W        W 8213   9.823   2.860  11.746 -0.3091  0.1067 -0.3048
 4470W        W 8214   7.964   9.668  12.723  0.2507 -0.2712  0.1636
 4471W        W 8215   7.176   8.481  10.693 -0.1969 -0.2683 -0.0217
 4472W        W 8216   9.455   2.084   3.996 -0.1396 -0.0754 -0.0080
 4473W        W 8217   5.421   1.444   1.520 -0.1466  0.1962  0.1682
 4474W        W 8218   0.935   5.255  11.618  0.0275  0.0121  0.2785
 4475W        W 8219   4.995   0.702  12.246 -0.0656 -0.0966 -0.1281
 4476W        W 8220   6.828   6.772   0.274 -0.0507 -0.2238 -0.0585
 4477W        W 8221   5.436   4.436  12.600  0.1105  0.2426 -0.0766
 4478W        W 8222   7.587   0.990  12.059 -0.0253  0.0349  0.1337
 4479W        W 8223   7.182   6.935   9.752 -0.2772  0.2451 -0.1032
 4480W        W 8224   0.575   2.074  11.741 -0.1469  0.0015  0.2812
 4481W        W 8225   5.083   2.007   8.773  0.4413  0.1488  0.0070
 4482W        W 8226   2.661   9.327  12.478 -0.2929  0.0855 -0.0581
 4483W        W 8227   6.437   8.424  12.322 -0.0581  0.0381  0.0648
 4484W        W 8228   8.162   2.386  11.774  0.0864 -0.2367 -0.0444
 4485W        W 8229   2.783   6.663  10.826  0.2807 -0.0919  0.2182
 4486W        W 8230   1.356   2.121   4.055  0.0106 -0.4121 -0.2613
 4487W        W 8231   8.763   3.361   1.156 -0.1110 -0.3155 -0.1221
 4488W        W 8232   6.912   5.998   2.514 -0.2855 -0.3434  0.1653
 4489W        W 8233   0.656   6.858   3.214 -0.0268  0.0224  0.0072
 4490W        W 8234   5.766   2.650   0.735  0.1237 -0.0327  0.1273
 4491W        W 8235   2.734   6.378   0.773  0.1608  0.0521 -0.0008
 4492W        W 8236   5.096   7.483   0.248 -0.0504 -0.1888  0.2211
 4493W        W 8237   8.766   8.823   3.168  0.0107 -0.2014  0.3097
 4494W        W 8238   7.185   3.336   2.282 -0.1273  0.2431  0.0591
 4495W        W 8239   7.408   5.979   2.581  0.0096  0.3662  0.2610
 4496W        W 8240   6.244   0.098  12.238  0.0722  0.1950  0.1030
 4497W        W 8241   6.524   5.028   0.362  0.1274  0.2355 -0.1724
 4498W        W 8242   7.368   7.829   2.699  0.1870 -0.1403  0.3841
 4499W        W 8243   5.877   8.381  12.491 -0.2371 -0.1464  0.0114
 4500W        W 8244   5.400   3.598  10.378  0.2586 -0.2347 -0.0866
 4501W        W 8245   2.658   3.355  10.720  0.2864 -0.0129 -0.0322
 4502W        W 8246   7.067   0.838   3.081  0.3228  0.3094 -0.2135
 4503W        W 8247   2.758   2.063   0.298  0.1502  0.0049  0.0141
 4504W        W 8248   5.937   2.275  11.715 -0.2932 -0.0087 -0.1023
 4505W        W 8249   0.250   0.296  12.734  0.1079  0.0943  0.0960
 4506W        W 8250   1.448   0.456   3.268  0.1027  0.0909  0.0227
 4507W        W 8251   7.976   5.613   4.951  0.2122 -0.2927  0.2584
 4508W        W 8252   8.754   5.016  11.129 -0.0689 -0.0713  0.1163
 4509W        W 8253   5.767   2.469  10.276  0.4047 -0.1076  0.3383
 4510W        W 8254   2.960   0.927   9.634 -0.1660 -0.1748  0.0659
 4511W        W 8255   0.987   3.047   3.262  0.2304 -0.0703  0.0994
 4512W        W 8256   5.728   2.894   3.647  0.0696  0.2677  0.0758
 4513W        W 8257   6.569   1.042   4.269  0.0412 -0.1240 -0.5578
 4514W        W 8258   5.115   7.245   3.245 -0.3000 -0.0576 -0.1282
 4515W        W 8259   5.783   7.890   2.882 -0.2682  0.1393  0.2323
 4516W        W 8260   2.215   6.283   9.297  0.2077 -0.1643  0.3346
 4517W        W 8261   1.962   7.506  10.667  0.2137 -0.1670  0.4000
 4518W        W 8262   1.042   6.017   1.148 -0.0695  0.1235 -0.0216
 4519W        W 8263   3.402   8.434   4.492 -0.1388 -0.3131  0.0852
 4520W        W 8264   6.190   0.126   4.075 -0.2385  0.1274  0.2846
 4521W        W 8265   2.930   1.335  11.446  0.1123 -0.0317  0.1720
 4522W        W 8266   0.486   1.478   0.661 -0.2031  0.0527 -0.2780
 4523W        W 8267   3.033   0.314   1.230 -0.1040  0.3484  0.1585
 4524W        W 8268   2.474   7.455   9.540  0.1889  0.1672 -0.1435
 4525W        W 8269   8.526   1.713  12.324 -0.2193  0.2863 -0.4139
 4526W        W 8270   7.908   5.867   3.694 -0.0885  0.2367 -0.4731
 4527W        W 8271   2.760   0.361   2.785  0.0253 -0.1702 -0.6830
 4528W        W 8272   5.106   6.331  12.604  0.2584 -0.0320  0.1289
 4529W        W 8273   6.496   8.491  11.349  0.1661  0.0771 -0.1214
 4530W        W 8274   3.785   6.997  10.391 -0.1385 -0.1433  0.0848
 4531W        W 8275   1.599   3.434   2.277  0.1053  0.0558 -0.0015
 4532W        W 8276   9.925   7.662  10.501 -0.0339 -0.1649  0.1068
 4533W        W 8277   8.341   6.048   1.531  0.1117 -0.1590 -0.1712
 4534W        W 8278   3.823   4.968   9.223 -0.0820 -0.3426  0.2313
 4535W        W 8279   6.159   1.640   0.379  0.1505  0.0047  0.0769
 4536W        W 8280   1.507   1.652  10.152 -0.0729  0.1454 -0.2575
 4537W        W 8281   6.291   1.727   9.810 -0.0581  0.1162  0.3111
 4538W        W 8282   9.308   5.511   2.765 -0.2269 -0.0086 -0.3882
 4539W        W 8283   4.470   3.892   0.975  0.1143  0.1249 -0.1401
 4540W        W 8284   8.965   2.365  10.701 -0.1682 -0.1231  0.1022
 4541W        W 8285   5.264   5.078   4.536 -0.0197  0.2829  0.3417
 4542W        W 8286   4.152   0.009   0.877 -0.2204 -0.2806  0.1472
 4543W        W 8287   5.388   6.742  12.440  0.1934 -0.1215  0.1924
 4544W        W 8288   1.178   1.195   2.919  0.2610  0.1289  0.2345
 4545W        W 8289   6.154   1.424   2.201 -0.0432 -0.1687 -0.2133
 4546W        W 8290   2.828   2.474  10.825 -0.3927 -0.0638  0.2077
 4547W        W 8291   6.966   6.987   1.343  0.3604 -0.0783  0.0791
 4548W        W 8292   2.435   7.577   1.488  0.0833 -0.3007 -0.2564
 4549W        W 8293   1.853   3.071   0.868  0.1576  0.1524  0.0428
 4550W        W 8294   9.069   4.647  11.018 -0.0749 -0.1194  0.2407
 4551W        W 8295   8.292   6.831   0.199  0.0768  0.2546 -0.0171
 4552W        W 8296   6.671   9.355  11.864  0.0834  0.1600 -0.0821
 4553W        W 8297   2.487   7.340  11.933 -0.4042 -0.2825  0.0439
 4554W        W 8298   3.493   2.037  11.373 -0.1622  0.1466  0.0269
 4555W        W 8299   3.609   8.911  10.171  0.0767  0.1439  0.0910
 4556W        W 8300   9.640   7.326   1.784 -0.1591 -0.0180  0.0519
 4557W        W 8301   4.183   6.956  11.773  0.0517  0.0968 -0.1818
 4558W        W 8302   6.776   4.777   0.009  0.1026 -0.2844  0.0009
 4559W        W 8303   7.239   2.611  12.448 -0.2251 -0.2752 -0.1460
 4560W        W 8304   7.061   4.258  10.164 -0.0616  0.0452 -0.4282
 4561W        W 8305   5.359   0.355  10.332  0.0320 -0.3439  0.0172
 4562W        W 8306   7.024   2.984  12.791 -0.0562  0.1400  0.1273
 4563W        W 8307   6.209   9.465  11.680  0.1620  0.1599 -0.0578
 4564W        W 8308   3.099   1.845   9.146 -0.0235  0.5211  0.3586
 4565W        W 8309   3.782   8.564   2.707  0.1936 -0.1395 -0.1558
 4566W        W 8310   9.670   1.397   8.459  0.1823 -0.3759  0.0148
 4567W        W 8311   5.340   5.388   1.870  0.0220  0.1797 -0.1774
 4568W        W 8312   2.178   1.541  11.359  0.1658 -0.1439 -0.0135
 4569W        W 8313   6.492   4.498   2.634 -0.1272 -0.0504 -0.0795
 4570W        W 8314   3.528   2.592  10.186 -0.1748 -0.1813  0.0557
 4571W        W 8315   5.992   1.631   8.865  0.0259  0.1177 -0.2909
 4572W        W 8316   4.079   1.648   9.395 -0.0694 -0.0616 -0.1212
 4573W        W 8317   4.945   0.211  11.167  0.3465  0.2149 -0.0213
 4574W        W 8318   7.891   1.427  11.901  0.0799  0.0310 -0.1864
 4575W        W 8319   9.108   0.375   8.182 -0.2715  0.0824 -0.3150
 4576W        W 8320   3.353   4.614   8.884  0.3107 -0.2775 -0.1909
 4577W        W 8321   1.501   5.595   2.312  0.3800  0.4649  0.0326
 4578W        W 8322   7.104   0.613   9.000  0.0101  0.0278 -0.2395
 4579W        W 8323   0.594   5.752   9.903 -0.3211  0.0000 -0.0051
 4580W        W 8324   4.123   8.677   1.620  0.3143  0.1809 -0.0266
 4581W        W 8325   7.151   4.651  10.506 -0.1454 -0.3397  0.5443
 4582W        W 8326   8.717   4.608  10.161 -0.1729 -0.0523  0.1608
 4583W        W 8327   7.966   4.152  11.595 -0.1942 -0.0081 -0.2159
 4584W        W 8328   6.176   4.010   0.519 -0.2402  0.2128 -0.2080
 4585W        W 8329   0.726   0.380  12.744 -0.1212  0.1415  0.0770
 4586W        W 8330   6.037   7.694   8.477 -0.0618 -0.0773 -0.1284
 4587W        W 8331   1.486   1.157  10.283  0.4410  0.2020 -0.1571
 4588W        W 8332   3.767   4.108   3.259 -0.1447  0.0488 -0.2049
 4589W        W 8333   7.804   8.583   1.099  0.0630 -0.1204  0.3385
 4590W        W 8334   7.503   8.877   0.813  0.2204  0.0995 -0.4090
 4591W        W 8335   4.502   2.825   3.202  0.2095  0.0061 -0.1668
 4592W        W 8336   0.078   5.016   2.461 -0.2265  0.1448  0.0681
 4593W        W 8337   1.442   2.460  11.530 -0.0651 -0.2182  0.1773
 4594W        W 8338   2.724   3.938   0.395  0.0046 -0.0382  0.0170
 4595W        W 8339   9.467   3.822   3.855  0.1073  0.2349  0.0962
 4596W        W 8340   2.986   9.104   3.756  0.1040  0.1098  0.5009
 4597W        W 8341   5.209   5.234   9.713  0.1713  0.1814 -0.2659
 4598W        W 8342   6.316   0.282   2.954  0.0227 -0.1741  0.0538
 4599W        W 8343   7.499   6.200   4.310 -0.0095 -0.1167  0.1227
 4600W        W 8344   5.894   4.941   4.243 -0.1456 -0.2149 -0.0988
 4601W        W 8345   2.686   0.393   3.352  0.0332 -0.0945 -0.0410
 4602W        W 8346   7.826   1.153   7.679 -0.2172  0.2133  0.0111
 4603W        W 8347   3.109   1.531   9.588 -0.1907  0.1324  0.0166
 4604W        W 8348   9.241   2.452   2.882  0.1947 -0.0618  0.5438
 4605W        W 8349   2.274   3.297   1.220 -0.1887 -0.1010 -0.0095
 4606W        W 8350   8.831   7.917   8.891  0.1411  0.1669  0.0122
 4607W        W 8351   5.753   7.900  12.471  0.4430  0.1696  0.0467
 4608W        W 8352   4.420   6.795   3.968 -0.1152 -0.1572 -0.0671
 4609W        W 8353   9.256   3.446  11.499 -0.3223 -0.0499 -0.0422
 4610W        W 8354   4.583   4.976   0.157 -0.1689  0.1137  0.0267
 4611W        W 8355   6.173   2.793  12.385 -0.2395  0.2353 -0.2793
 4612W        W 8356   4.784   8.007   4.378  0.0181  0.3395  0.1304
 4613W        W 8357   4.099   5.822   3.234  0.2084 -0.2701 -0.4825
 4614W        W 8358   5.378   0.837  10.492  0.2400 -0.1124 -0.4147
 4615W        W 8359   6.467   4.569   0.645  0.1752  0.2950  0.0734
 4616W        W 8360   0.501   0.022   9.742 -0.0061 -0.1046  0.1188
 4617W        W 8361   4.992   6.613   4.022 -0.0198  0.1972  0.0544
 4618W        W 8362   4.362   0.620   0.414 -0.0322  0.1120  0.0321
 4619W        W 8363   9.241   5.627  10.817  0.2060  0.2249  0.1817
 4620W        W 8364   8.246   6.710   1.092 -0.1686  0.0000 -0.3411
 4621W        W 8365   4.080   1.847  10.375 -0.2330  0.2221  0.5284
 4622W        W 8366   5.566   5.159   0.440 -0.0760  0.0327  0.1122
 4623W        W 8367   9.603   7.972   2.323  0.1539 -0.1486 -0.2520
 4624W        W 8368   5.683   3.596   9.229 -0.0166 -0.1459 -0.2787
 4625W        W 8369   6.322   1.872  11.930  0.0621 -0.1003 -0.0244
 4626W        W 8370   1.248   7.074   9.892 -0.1628  0.3135 -0.1661
 4627W        W 8371   4.897   6.789   3.236  0.0201  0.2436 -0.1033
 4628W        W 8372   0.986   1.884   0.025 -0.4295 -0.5134 -0.4934
 4629W        W 8373   6.600   6.564   5.543 -0.1653  0.2326 -0.2263
 4630W        W 8374   6.336   0.381   8.187  0.3798 -0.2480 -0.0503
 4631W        W 8375   2.747   7.126   2.476  0.1161 -0.0490 -0.0464
 4632W        W 8376   3.979   0.637   4.381  0.1087 -0.0780 -0.0098
 4633W        W 8377   0.121   0.335   8.987 -0.2493 -0.0212 -0.1357
 4634W        W 8378   8.341   1.905  11.739  0.4542 -0.1914 -0.3557
 4635W        W 8379   0.461   4.780  10.853 -0.2266  0.1997 -0.1644
 4636W        W 8380   8.035   9.461   2.242  0.0425 -0.0874 -0.0748
 4637W        W 8381   2.358   8.353   4.106 -0.0494  0.2222  0.2365
 4638W        W 8382   1.095   4.557   9.416 -0.3471 -0.0902 -0.0633
 4639W        W 8383   8.992   3.437  12.726 -0.0721  0.1275 -0.0088
 4640W        W 8384   1.438   2.273   2.491  0.0140 -0.4683  0.0422
 4641W        W 8385   0.554   8.784   2.122 -0.2354  0.0534  0.1179
 4642W        W 8386   4.271   1.165   2.868  0.1416  0.1533  0.1703
 4643W        W 8387   9.707   5.003   0.901  0.0556  0.2389  0.0176
 4644W        W 8388   5.032   5.210   0.098 -0.3023 -0.0148 -0.1699
 4645W        W 8389   9.774   2.732  12.629  0.0122  0.0314  0.0314
 4646W        W 8390   7.931   3.778   0.797  0.1192 -0.1343 -0.0267
 4647W        W 8391   4.655   1.426  11.807 -0.0510 -0.2774  0.0402
 4648W        W 8392   5.481   0.293   4.718 -0.1688 -0.1665  0.1161
 4649W        W 8393   9.197   8.869   2.893  0.1035  0.0167 -0.2123
 4650W        W 8394   8.121   4.554   1.288  0.1788  0.1204 -0.0668
 4651W        W 8395   8.437   7.262  10.275  0.2271 -0.1758 -0.0800
 4652W        W 8396   0.261   2.997   9.358 -0.0132 -0.2951  0.2073
 4653W        W 8397   2.622   5.425   1.737 -0.3678  0.2763 -0.0005
 4654W        W 8398   8.257   7.078   0.647 -0.1405  0.2379 -0.0849
 4655W        W 8399   9.549   5.481   3.231  0.3394 -0.0272  0.2522
 4656W        W 8400   5.141   8.407   0.311 -0.0335 -0.1948 -0.1440
 4657W        W 8401   5.860   3.552   1.338 -0.1506 -0.1703 -0.1840
 4658W        W 8402   9.084   3.312   2.295  0.1298  0.3192  0.0430
 4659W        W 8403   1.138   1.516   7.790  0.1394  0.0899 -0.0925
 4660W        W 8404   2.217   6.984   1.456  0.3751 -0.1293  0.3489
 4661W        W 8405   6.646   0.856   8.917 -0.1928 -0.5870 -0.1569
 4662W        W 8406   5.472   1.979   3.235 -0.1146 -0.0017  0.0654
 4663W        W 8407   1.613   3.291  10.702 -0.0411  0.2157 -0.3965
 4664W        W 8408   7.929   5.494  12.777  0.0457 -0.0002  0.3601
 4665W        W 8409   9.675   7.778  11.921  0.2824 -0.1298 -0.1537
 4666W        W 8410   8.154   3.362   8.674 -0.1229 -0.0458 -0.0716
 4667W        W 8411   6.726   0.008   3.723 -0.3503 -0.0362  0.2318
 4668W        W 8412   3.764   8.241   0.317 -0.1871  0.0596  0.0105
 4669W        W 8413   0.030   2.809  11.230  0.0284  0.3508  0.3805
 4670W        W 8414   9.744   1.025  12.450 -0.1050 -0.0844 -0.1369
 4671W        W 8415   9.111   9.636  12.103 -0.1927 -0.1259  0.1709
 4672W        W 8416   4.090   5.352   1.504  0.1669  0.0640 -0.1362
 4673W        W 8417   8.816   3.822  11.580 -0.1191  0.2587  0.0391
 4674W        W 8418   2.097   9.182   0.404 -0.1576  0.0523 -0.1674
 4675W        W 8419   2.711   4.673   0.750  0.3045  0.0013 -0.0007
 4676W        W 8420   8.493   1.349  10.239 -0.2759  0.1044 -0.0077
 4677W        W 8421   2.393   8.011   9.870  0.1193  0.0101 -0.1593
 4678W        W 8422   8.634   3.575   1.769  0.0999 -0.3607 -0.1990
 4679W        W 8423   7.856   7.921   1.661 -0.2938  0.0219  0.0507
 4680W        W 8424   3.609   1.670   9.194  0.1377  0.3497 -0.0384
 4681W        W 8425   2.755   8.286   1.828 -0.2822 -0.1989 -0.1180
 4682W        W 8426   0.491   6.654  12.604  0.0226  0.0776  0.1115
 4683W        W 8427   7.597   4.667   3.011 -0.0647 -0.0845 -0.0483
 4684W        W 8428   2.570   0.890   1.062  0.0255 -0.0718  0.0905
 4685W        W 8429   5.866   1.732   8.348 -0.2873  0.0233  0.0816
 4686W        W 8430   4.042   6.186  10.443  0.1704 -0.2075 -0.0480
 4687W        W 8431   8.610   7.837  12.373  0.0335  0.0455 -0.2694
 4688W        W 8432   5.210   1.082   2.012  0.2795  0.0840  0.2370
 4689W        W 8433   5.002   6.853   9.024  0.1474 -0.1101  0.1938
 4690W        W 8434   7.931   2.847  11.737 -0.1021  0.0216 -0.0508
 4691W        W 8435   3.564   0.767   2.771  0.0339 -0.0187  0.1607
 4692W        W 8436   1.121   6.462   9.344 -0.0101 -0.0748 -0.3161
 4693W        W 8437   9.872   8.983  10.422  0.2305  0.1062  0.1649
 4694W        W 8438   0.121   8.338  12.498 -0.3232 -0.2294  0.1366
 4695W        W 8439   9.884   8.481  11.985  0.0178  0.0927 -0.1132
 4696W        W 8440   4.158   7.356   0.821 -0.0171  0.1723  0.0717
 4697W        W 8441   2.575   3.244   4.473 -0.0168 -0.0906 -0.0432
 4698W        W 8442   1.252   3.045  12.068 -0.1439  0.0893 -0.2133
 4699W        W 8443   5.378   4.196   3.391  0.1597 -0.0840  0.2492
 4700W        W 8444   4.069   5.865   1.086 -0.0269 -0.0465 -0.1825
 4701W        W 8445   7.756   3.668   4.539 -0.0029 -0.1003 -0.0789
 4702W        W 8446   2.710   8.752   3.373 -0.0353 -0.1441  0.1125
 4703W        W 8447   9.280   7.532   1.458 -0.2668  0.0135 -0.1419
 4704W        W 8448   9.097   4.171   0.915 -0.2813  0.2830 -0.0875
 4705W        W 8449   8.524   9.476   2.352  0.0146 -0.0112  0.0589
 4706W        W 8450   3.867   1.103   2.300 -0.1886 -0.2728  0.2205
 4707W        W 8451   6.519   4.424  10.273  0.0200 -0.0770  0.1074
 4708W        W 8452   4.047   9.010   2.703 -0.1933  0.0496 -0.0289
 4709W        W 8453   8.906   2.679  11.419 -0.0735 -0.0282  0.3676
 4710W        W 8454   8.880   3.587  10.756  0.1272  0.0636  0.1160
 4711W        W 8455   0.655   0.139  10.177 -0.1593  0.0626  0.1116
 4712W        W 8456   8.860   9.657   9.462 -0.1740  0.2050  0.1515
 4713W        W 8457   2.375   9.433   2.405 -0.0382  0.2898 -0.2609
 4714W        W 8458   1.184   9.048  12.345 -0.3662  0.0404 -0.0921
 4715W        W 8459   7.224   8.632   3.608 -0.0329 -0.2043 -0.1468
 4716W        W 8460   3.589   2.088   3.878  0.0445  0.1323 -0.0631
 4717W        W 8461   6.830   9.906  10.995 -0.0640 -0.1114  0.1049
 4718W        W 8462   6.301   8.748   2.639 -0.1074  0.1237 -0.0684
 4719W        W 8463   2.976   4.550   1.768 -0.1822 -0.0077  0.2295
 4720W        W 8464   6.891   1.762   9.689  0.1052  0.3714 -0.1434
 4721W        W 8465   3.748   2.696   1.718  0.1509 -0.1633 -0.1261
 4722W        W 8466   1.091   2.648   2.599 -0.1932  0.7164 -0.1908
 4723W        W 8467   7.586   4.927   9.641  0.0768 -0.2379  0.0350
 4724W        W 8468   6.482   1.041   3.778 -0.2776 -0.0853  0.0498
 4725W        W 8469   4.319   4.429   1.038  0.0856 -0.0354  0.1440
 4726W        W 8470   5.814   0.282  12.371  0.0974 -0.1053 -0.0546
 4727W        W 8471   0.658   6.304   9.400  0.1758 -0.3127  0.0749
 4728W        W 8472   7.488   0.897   9.876  0.4280 -0.1963 -0.1313
 4729W        W 8473   4.853   2.262  10.363  0.1366 -0.1551 -0.4245
 4730W        W 8474   8.257   9.554   0.814 -0.0850  0.0864 -0.0011
 4731W        W 8475   0.160   0.453   2.825 -0.1902  0.0270  0.2978
 4732W        W 8476   0.941   0.174   0.337 -0.1664  0.0094 -0.2009
 4733W        W 8477   5.526   1.286  11.899  0.1151 -0.0458 -0.0422
 4734W        W 8478   9.577   2.694   1.915  0.1573  0.1947 -0.2175
 4735W        W 8479   5.929   7.368  10.988  0.0050  0.1089 -0.2167
 4736W        W 8480   3.562   6.325  11.908 -0.3064  0.0458  0.2114
 4737W        W 8481   2.486   1.221   2.941 -0.0368  0.0949  0.3298
 4738W        W 8482   4.380   9.199   3.085 -0.0528 -0.0564 -0.2027
 4739W        W 8483   1.929   5.190  11.460  0.0367  0.5512 -0.0981
 4740W        W 8484   9.284   0.606   2.582 -0.0296  0.1526  0.0891
 4741W        W 8485   6.436   9.618   3.864 -0.0259  0.0619  0.1130
 4742W        W 8486   3.576   4.779   4.167 -0.1718  0.0602 -0.0527
 4743W        W 8487   7.151   9.023   9.853  0.1195  0.2413 -0.0698
 4744W        W 8488   0.104   1.785   9.071 -0.1302  0.1630  0.0010
 4745W        W 8489   4.289   6.126   0.102 -0.0190  0.0386 -0.0411
 4746W        W 8490   9.084   5.770  12.304  0.0877 -0.1364  0.0532
 4747W        W 8491   6.097   6.052   3.100 -0.1033 -0.1052  0.1384
 4748W        W 8492   1.023   7.449   1.869  0.2334  0.1548  0.0075
 4749W        W 8493   6.294   1.505   3.721  0.0280 -0.0551  0.0662
 4750W        W 8494   8.399   4.820   4.333 -0.0768  0.1908 -0.0890
 4751W        W 8495   9.519   5.100   3.540 -0.0408  0.1137  0.1324
 4752W        W 8496   9.676   2.739   1.454 -0.1046 -0.0160  0.0568
 4753W        W 8497   4.246   9.501  10.304  0.1083 -0.0213 -0.0912
 4754W        W 8498   7.501   9.426   9.067 -0.1995  0.0422  0.0451
 4755W        W 8499   0.894   9.808   9.228  0.2008  0.2207 -0.0188
 4756W        W 8500   8.778   9.452   3.550 -0.0524 -0.0131  0.1296
 4757W        W 8501   0.919   7.890  10.635  0.2716  0.2333  0.1390
 4758W        W 8502   8.034   2.319   8.859 -0.2882  0.2294  0.0077
 4759W        W 8503   1.002   6.711   0.513 -0.0018 -0.1730  0.0184
 4760W        W 8504   6.633   7.880   3.736 -0.2511 -0.0603 -0.2538
 4761W        W 8505   1.075   6.680   2.276 -0.0636 -0.1440 -0.2229
 4762W        W 8506   6.953   0.948   3.626 -0.1211 -0.1340  0.0358
 4763W        W 8507   9.341   3.871  10.724  0.1521 -0.2008  0.2276
 4764W        W 8508   7.798   4.995   2.625 -0.0198  0.0630  0.1304
 4765W        W 8509   0.954   0.495  12.324  0.3452 -0.0553 -0.1697
 4766W        W 8510   6.474   4.211   4.567 -0.0434  0.2272 -0.1783
 4767W        W 8511   6.900   5.799   4.841 -0.0133 -0.1337 -0.1349
 4768W        W 8512   0.902   3.876   2.110  0.1372 -0.0104  0.2299
 4769W        W 8513   8.169   0.461   2.977 -0.0346  0.0710  0.0035
 4770W        W 8514   2.317   4.224   1.415  0.2158 -0.0594  0.0859
 4771W        W 8515   9.602   0.352   9.751 -0.1568  0.1293  0.2008
 4772W        W 8516   5.371   6.903  11.162  0.2862 -0.2525  0.1886
 4773W        W 8517   7.549   3.590   4.993 -0.0165  0.1917  0.2746
 4774W        W 8518   1.848   4.796   2.795 -0.1183  0.3079 -0.0727
 4775W        W 8519   7.232   9.254  12.564 -0.0397 -0.2130 -0.0868
 4776W        W 8520   5.141   2.022   0.682 -0.1118  0.0719 -0.0304
 4777W        W 8521   1.993   0.910  12.330  0.2202  0.2458 -0.1621
 4778W        W 8522   4.767   8.295  10.251 -0.0685  0.0142  0.1684
 4779W        W 8523   8.834   0.347   8.634  0.1011 -0.0215 -0.2061
 4780W        W 8524   1.087   7.817   2.759  0.0961 -0.2905  0.0546
 4781W        W 8525   4.529   1.985  11.940 -0.2259 -0.1703  0.0346
 4782W        W 8526   7.178   8.418  10.145  0.0961 -0.4145  0.2028
 4783W        W 8527   3.845   9.492   2.470  0.1072  0.0212 -0.2299
 4784W        W 8528   7.920   7.193   8.818 -0.1311 -0.1794 -0.0645
 4785W        W 8529   6.266   2.633   0.805 -0.0410 -0.0348  0.0407
 4786W        W 8530   1.177   0.038   1.732 -0.1607 -0.0525  0.1471
 4787W        W 8531   6.355   4.913   4.514  0.1395  0.1448  0.1125
 4788W        W 8532   3.099   4.225   4.111 -0.0553  0.0758 -0.1969
 4789W        W 8533   5.354   4.303   2.484  0.0599 -0.1449 -0.1178
 4790W        W 8534   4.799   3.380   9.158 -0.3741  0.1925 -0.1263
 4791W        W 8535   7.760   3.008   0.242  0.2005  0.1776 -0.1297
 4792W        W 8536   9.203   7.781  11.163  0.1705  0.0850  0.1616
 4793W        W 8537   1.338   3.066   2.826 -0.1366  0.1728 -0.0121
 4794W        W 8538   6.012   5.575   2.503 -0.0837  0.0552 -0.2632
 4795W        W 8539   5.369   7.733   9.512  0.0239 -0.0202 -0.2582
 4796W        W 8540   8.602   9.167  10.058 -0.1839  0.2610 -0.1507
 4797W        W 8541   2.511   7.160  12.604  0.0192 -0.3112  0.0950
 4798W        W 8542   2.947   3.979   2.228 -0.1768  0.0280 -0.2465
 4799W        W 8543   6.724   4.036   8.120  0.1484  0.1480  0.1030
 4800W        W 8544   9.672   4.022   2.646  0.1977 -0.0966 -0.2731
 4801W        W 8545   9.403   8.257   0.557 -0.4038  0.3027  0.0595
 4802W        W 8546   2.086   1.366   8.710 -0.0049 -0.2385 -0.1259
 4803W        W 8547   0.417   8.998   1.555  0.1493  0.0655 -0.0796
 4804W        W 8548   7.617   4.746  12.564  0.0540 -0.0156 -0.4957
 4805W        W 8549   3.039   2.275   3.771  0.1107  0.0055 -0.1976
 4806W        W 8550   8.158   9.539  11.727  0.2458 -0.0582 -0.0298
 4807W        W 8551   1.495   2.507   0.171  0.1850  0.1726  0.1081
 4808W        W 8552   3.661   7.757   3.405 -0.4328 -0.0824  0.2724
 4809W        W 8553   1.145   8.901  11.692 -0.1055  0.0860  0.1812
 4810W        W 8554   1.044   8.602   1.207 -0.3304 -0.0058 -0.2275
 4811W        W 8555   9.862   0.913   0.148 -0.0826 -0.2900 -0.2327
 4812W        W 8556   9.935   2.085  10.777 -0.0850  0.1161 -0.1244
 4813W        W 8557   3.031   5.535   2.764  0.0387  0.0897 -0.1047
 4814W        W 8558   9.762   2.928   4.166 -0.3991 -0.4034  0.1019
 4815W        W 8559   2.293   1.123  10.436 -0.4650  0.0092 -0.3567
 4816W        W 8560   1.063   6.304   3.036 -0.0073 -0.1614  0.1049
 4817W        W 8561   6.959   9.861   3.218  0.0863  0.0751 -0.1859
 4818W        W 8562   8.015   5.841  10.404  0.1989  0.2655  0.0749
 4819W        W 8563   2.760   5.285  10.556  0.2929  0.2595  0.1019
 4820W        W 8564   5.328   8.626  10.737 -0.1223 -0.1841  0.0206
 4821W        W 8565   8.393   0.658   0.813 -0.1076  0.0340  0.2203
 4822W        W 8566   5.323   6.309   3.694 -0.0508  0.1408 -0.2605
 4823W        W 8567   6.091   4.436   2.908  0.1733  0.0104 -0.2095
 4824W        W 8568   2.268   1.967   4.343  0.0078  0.0656 -0.1932
 4825W        W 8569   0.576   7.320  11.385  0.3152  0.3335 -0.1377
 4826W        W 8570   2.196   4.136  11.920  0.1892  0.0283 -0.5413
 4827W        W 8571   5.729   0.489   7.518 -0.2180 -0.0859  0.2968
 4828W        W 8572   6.003   7.193   0.373 -0.3725  0.1549 -0.0963
 4829W        W 8573   3.432   4.099  10.574  0.2416 -0.0333 -0.1054
 4830W        W 8574   9.411   8.464   2.584  0.0111 -0.1382 -0.0515
 4831W        W 8575   5.001   5.862  11.221  0.0352  0.1780 -0.2486
 4832W        W 8576   3.206   7.756   2.946  0.0828  0.3054 -0.4652
 4833W        W 8577   3.750   9.160   9.554 -0.1528  0.0962  0.0354
 4834W        W 8578   3.199   8.163   1.493  0.5024  0.0209  0.1114
 4835W        W 8579   5.612   3.478   2.869  0.0484 -0.1887  0.0162
 4836W        W 8580   0.670   2.028   3.274 -0.0944 -0.1056  0.0467
 4837W        W 8581   6.236   8.440   3.038  0.2695  0.1284 -0.1413
 4838W        W 8582   6.180   8.493   4.385 -0.1226 -0.0366  0.2969
 4839W        W 8583   0.853   3.246   2.717  0.0140 -0.0192  0.1678
 4840W        W 8584   9.909   1.425  11.311 -0.1237  0.1139  0.1974
 4841W        W 8585   1.787   5.855  12.086  0.2637  0.1906 -0.1181
 4842W        W 8586   8.144   8.754  12.295  0.0338  0.2764 -0.0935
 4843W        W 8587   8.049   2.696  12.238 -0.1806 -0.0443  0.0748
 4844W        W 8588   6.974   4.896  10.981  0.0434 -0.0227 -0.3109
 4845W        W 8589   0.901   2.429   8.176 -0.4015  0.0366 -0.0082
 4846W        W 8590   6.685   0.484   9.207  0.3351 -0.0790  0.1044
 4847W        W 8591   5.931   3.865   8.882 -0.0642 -0.1978  0.3550
 4848W        W 8592   8.297   8.643   1.160 -0.1127 -0.0295  0.4554
 4849W        W 8593   1.591   0.965  12.037  0.1243  0.2031  0.1036
 4850W        W 8594   6.149   6.868  11.826 -0.0566 -0.0478  0.0426
 4851W        W 8595   8.315   6.278   2.916 -0.0609  0.1228 -0.1084
 4852W        W 8596   2.302   0.591   9.017  0.0255  0.4150 -0.0746
 4853W        W 8597   9.855   7.575   2.216  0.0171 -0.1880 -0.3899
 4854W        W 8598   0.312   2.924   8.608 -0.0826  0.1397 -0.0700
 4855W        W 8599   8.950   8.468   0.585  0.3871 -0.2351 -0.1160
 4856W        W 8600   6.669   9.943   4.211  0.0126 -0.2926  0.0108
 4857W        W 8601   1.339   1.930   7.974  0.1133  0.0901  0.2471
 4858W        W 8602   3.962   5.589   4.243  0.2368  0.0398 -0.1769
 4859W        W 8603   9.415   5.764  10.271 -0.3534 -0.2821  0.4253
 4860W        W 8604   0.646   8.265   2.056  0.1929 -0.0945 -0.1244
 4861W        W 8605   0.542   4.402   9.432  0.2424  0.2922 -0.0841
 4862W        W 8606   8.949   0.533   0.684  0.3580  0.0054 -0.0550
 4863W        W 8607   6.006   6.517   9.346 -0.0480  0.0955 -0.1569
 4864W        W 8608   4.006   4.212   2.499  0.1087  0.0654 -0.0251
 4865W        W 8609   5.357   6.371   1.888  0.0985  0.0023 -0.0857
 4866W        W 8610   5.456   8.223   2.376  0.4918 -0.1741 -0.1592
 4867W        W 8611   0.108   5.029   0.567 -0.1729  0.1929 -0.3410
 4868W        W 8612   1.817   1.948  11.345  0.0763  0.1533  0.0153
 4869W        W 8613   8.872   5.613  11.895  0.2731  0.1223 -0.0075
 4870W        W 8614   8.698   6.076   9.618 -0.0364  0.0697  0.0773
 4871W        W 8615   5.677   2.122   3.967 -0.2763  0.1670 -0.1056
 4872W        W 8616   4.163   7.523  10.994  0.1569  0.2225 -0.2959
 4873W        W 8617   9.539   7.155   1.304  0.0077 -0.0667 -0.3329
 4874W        W 8618   4.264   4.366   4.658  0.2102 -0.3381  0.1473
 4875W        W 8619   4.458   5.388   4.345  0.1391  0.2309 -0.0256
 4876W        W 8620   5.711   0.023   8.760 -0.1908 -0.1729  0.1175
 4877W        W 8621   1.142   0.067   3.131 -0.0453 -0.0087  0.0280
 4878W        W 8622   7.310   6.683   0.679  0.1039  0.1831  0.3236
 4879W        W 8623   7.206   0.280  12.547  0.1168 -0.0309 -0.1739
 4880W        W 8624   1.622   4.888  12.696  0.1024  0.0806  0.0462
 4881W        W 8625   4.758   6.143   0.101 -0.1348  0.3145  0.3354
 4882W        W 8626   7.483   7.840   4.069  0.1213  0.0039 -0.2398
 4883W        W 8627   8.761   4.105  12.049 -0.2056 -0.0996  0.0666
 4884W        W 8628   3.889   8.808   1.147  0.1866  0.2642 -0.1529
 4885W        W 8629   3.484   4.720   1.963 -0.2332  0.1546  0.0548
 4886W        W 8630   3.056   8.449  10.390  0.3112  0.0971  0.3620
 4887W        W 8631   5.337   1.347   9.617 -0.0534 -0.0844  0.1221
 4888W        W 8632   7.677   8.637   3.755 -0.0265 -0.2877  0.0250
 4889W        W 8633   6.366   9.242   9.857  0.0223 -0.3382 -0.0677
 4890W        W 8634   3.460   0.227   2.754 -0.2106 -0.1913 -0.1113
 4891W        W 8635   4.267   3.046  10.829  0.1718 -0.1881  0.0037
 4892W        W 8636   0.779   9.580   9.690 -0.0692  0.1638 -0.0575
 4893W        W 8637   5.280   4.814   9.993  0.1783 -0.3359 -0.0205
 4894W        W 8638   6.507   5.470   0.675 -0.0426  0.0475  0.1214
 4895W        W 8639   6.601   2.876   2.043 -0.1827 -0.0331 -0.3664
 4896W        W 8640   0.397   5.524  12.532 -0.0765  0.1980 -0.2510
 4897W        W 8641   3.985   8.373  12.096  0.2604 -0.2090  0.1540
 4898W        W 8642   7.561   7.774  10.123  0.0039 -0.1846  0.3358
 4899W        W 8643   8.828   7.223   3.077  0.2460 -0.0727 -0.0996
 4900W        W 8644   3.114   3.296   9.212 -0.0870  0.2853 -0.1719
 4901W        W 8645   3.929   0.646  12.344  0.0604  0.3381  0.1919
 4902W        W 8646   2.740   4.175   0.851 -0.1303  0.2213 -0.2052
 4903W        W 8647   1.722   9.773   1.896 -0.1268 -0.0710 -0.0182
 4904W        W 8648   0.187   3.539  11.234 -0.0203 -0.4876 -0.2202
 4905W        W 8649   7.508   5.210   4.070  0.0716  0.0306 -0.3510
 4906W        W 8650   4.561   8.908   2.430 -0.2093  0.1516  0.2695
 4907W        W 8651   8.455   4.937   1.221 -0.0147  0.0014  0.1203
 4908W        W 8652   5.831   2.990   4.964  0.1626 -0.3208  0.2006
 4909W        W 8653   3.866   8.770   9.269  0.0608  0.2439  0.0056
 4910W        W 8654   9.698   5.102  11.437  0.2127 -0.4222  0.0213
 4911W        W 8655   2.706   6.166  12.143 -0.0353 -0.4901 -0.0223
 4912W        W 8656   0.060   9.767  12.627  0.3325 -0.3319  0.0517
 4913W        W 8657   5.189   8.817   2.437 -0.0998  0.5910  0.3259
 4914W        W 8658   7.596   5.182   0.798 -0.0925 -0.0067  0.1115
 4915W        W 8659   1.184   6.692  11.890 -0.1706  0.2107  0.0524
 4916W        W 8660   9.386   7.589  12.645  0.4990  0.0236 -0.0055
 4917W        W 8661   2.028   8.123  11.054 -0.2782  0.3388  0.2348
 4918W        W 8662   6.893   0.892   8.091  0.0526 -0.2787 -0.1637
 4919W        W 8663   9.118   7.067   1.592  0.2520 -0.2050 -0.0879
 4920W        W 8664   0.699   5.095   1.208  0.0803  0.2822 -0.3969
 4921W        W 8665   1.734   0.540   2.582  0.0469 -0.1777 -0.1626
 4922W        W 8666   4.603   3.010   8.774 -0.2599 -0.1548 -0.0799
 4923W        W 8667   9.469   4.568   1.737  0.3144  0.1520 -0.1567
 4924W        W 8668   3.344   3.468   4.124  0.0155 -0.0362  0.4764
 4925W        W 8669   3.110   4.671  12.707 -0.1564 -0.0315  0.2859
 4926W        W 8670   2.108   3.324  12.514  0.2082  0.1968  0.0722
 4927W        W 8671   0.360   6.946   0.943  0.0058  0.0226  0.1570
 4928W        W 8672   6.971   9.715   0.621  0.3086 -0.1328  0.0856
 4929W        W 8673   2.658   5.828  11.774  0.3162  0.2013 -0.1174
 4930W        W 8674   5.972   1.805   0.823  0.1838  0.1822  0.0816
 4931W        W 8675   9.675   3.771  11.178  0.0532  0.1518  0.0522
 4932W        W 8676   9.683   8.593  11.553  0.3035  0.0456 -0.1648
 4933W        W 8677   2.351   6.743  10.114 -0.0999 -0.0706 -0.1659
 4934W        W 8678   5.218   2.209   2.857  0.1532  0.3550  0.2043
 4935W        W 8679   3.161   6.555  10.458  0.1024 -0.1449  0.0190
 4936W        W 8680   8.861   8.871  10.580  0.5115  0.0776  0.0203
 4937W        W 8681   7.317   8.330   4.146  0.2717  0.3668  0.1027
 4938W        W 8682   3.454   2.585   0.912 -0.0759 -0.3497  0.1049
 4939W        W 8683   5.220   3.491   2.080 -0.4426 -0.0258 -0.1366
 4940W        W 8684   7.160   3.512   0.586  0.1341 -0.2907  0.2359
 4941W        W 8685   4.592   5.020   9.638 -0.2838 -0.0008  0.3369
 4942W        W 8686   7.079   5.151   9.688  0.3973  0.1432 -0.2149
 4943W        W 8687   8.170   5.451  11.641  0.2174 -0.2330  0.2505
 4944W        W 8688   4.552   2.528   1.039 -0.0136 -0.2373 -0.2608
 4945W        W 8689   5.596   1.310   9.188 -0.3378  0.0967 -0.0285
 4946W        W 8690   1.755   6.985   1.818 -0.0288 -0.0495  0.1244
 4947W        W 8691   3.670   6.547   1.776  0.0284  0.0912 -0.1929
 4948W        W 8692   2.652   3.110   9.021  0.0385 -0.3039 -0.0390
 4949W        W 8693   4.321   6.734   3.262  0.1544 -0.1813 -0.3099
 4950W        W 8694   7.216   0.138   4.649 -0.3770 -0.0178 -0.0997
 4951W        W 8695   8.189   9.045  11.498 -0.3209  0.2354 -0.0846
 4952W        W 8696   6.597   9.426   9.132  0.1586  0.1411 -0.1516
 4953W        W 8697   0.558   7.277   1.815  0.0249 -0.0559 -0.3970
 4954W        W 8698   0.413   6.262   1.856 -0.2036 -0.2880 -0.0313
 4955W        W 8699   2.285   6.858   3.711  0.0333 -0.0315 -0.1742
 4956W        W 8700   4.798   9.519   0.517  0.0283 -0.1875 -0.0315
 4957W        W 8701   8.360   5.308  12.579 -0.3096  0.1443 -0.4072
 4958W        W 8702   1.327   3.035   0.151  0.0899  0.1378 -0.0579
 4959W        W 8703   6.412   2.815  11.133 -0.1676 -0.1312  0.1345
 4960W        W 8704   4.163   5.865   1.754  0.1004 -0.1382  0.0608
 4961W        W 8705   7.102   8.509   0.073 -0.2480 -0.0334 -0.1405
 4962W        W 8706   4.169   9.567   4.730  0.1204 -0.0057  0.1111
 4963W        W 8707   1.934   4.271  12.696  0.0836 -0.0701 -0.0433
 4964W        W 8708   9.625   0.074   0.012 -0.1914 -0.0051  0.0963
 4965W        W 8709   9.142   8.208   0.965 -0.0221  0.2793 -0.2041
 4966W        W 8710   4.441   1.649   4.091 -0.1828  0.3281 -0.0910
 4967W        W 8711   4.717   5.185   2.737 -0.0396  0.0759  0.0610
 4968W        W 8712   4.381   7.062   1.136  0.0224 -0.1503  0.0995
 4969W        W 8713   1.545   1.524  11.480 -0.0399  0.2488 -0.3079
 4970W        W 8714   9.938   7.495   9.505 -0.1069 -0.0865  0.0507
 4971W        W 8715   4.927   2.706   8.090 -0.1867 -0.3304 -0.0020
 4972W        W 8716   9.555   5.839  12.044 -0.2380  0.1915 -0.1597
 4973W        W 8717   8.217   4.929   2.967  0.3968  0.1579 -0.0743
 4974W        W 8718   4.825   3.739   3.100  0.1801  0.0515  0.2519
 4975W        W 8719   1.561   7.376   2.591  0.0436 -0.1754 -0.2052
 4976W        W 8720   6.939   9.769   1.778 -0.2647 -0.0103 -0.0474
 4977W        W 8721   8.252   7.624   3.744 -0.2362 -0.2051 -0.1507
 4978W        W 8722   8.277   9.512  11.247 -0.2946 -0.2717 -0.1537
 4979W        W 8723   9.031   7.203   1.087  0.1187  0.0641  0.0451
 4980W        W 8724   0.685   2.794   2.913 -0.1479 -0.1834  0.1895
 4981W        W 8725   7.553   7.526   0.266  0.1221  0.1849 -0.3866
 4982W        W 8726   9.425   7.356   9.957 -0.0764  0.2342 -0.0132
 4983W        W 8727   9.928   9.464  11.732  0.1424  0.2254  0.3983
 4984W        W 8728   9.384   0.898   2.108  0.1217 -0.1597  0.1172
 4985W        W 8729   6.307   4.604   0.136  0.2238  0.0173 -0.2953
 4986W        W 8730   6.477   2.525   9.316 -0.3230 -0.2306  0.0487
 4987W        W 8731   4.950   8.141   8.915  0.0245  0.0440  0.0445
 4988W        W 8732   3.465   6.968   1.906  0.0445  0.1503 -0.0986
 4989W        W 8733   3.728   3.494   1.375 -0.1351 -0.0039 -0.3383
 4990W        W 8734   3.835   6.621   3.232  0.6269 -0.0507  0.2933
 4991W        W 8735   8.022   1.968   2.537 -0.1836  0.0987  0.1162
 4992W        W 8736   7.081   4.807   1.223 -0.3226 -0.1691  0.0842
 4993W        W 8737   5.100   0.748   4.542 -0.0252  0.0239 -0.1595
 4994W        W 8738   2.078   2.204   8.641  0.2056 -0.0596  0.0470
 4995W        W 8739   0.386   7.330  10.310 -0.0348  0.0213  0.1472
 4996W        W 8740   4.558   5.352   3.131 -0.4405 -0.1036 -0.1885
 4997W        W 8741   0.222   0.545  10.431  0.0124 -0.0736  0.1180
 4998W        W 8742   9.034   6.481   9.357  0.1453 -0.0933  0.2304
 4999W        W 8743   1.952   4.525   1.477  0.1467  0.0449 -0.1107
 5000W        W 8744   9.588   5.723   0.454  0.1362 -0.0798 -0.1018
 5001W        W 8745   4.320   4.583   0.306 -0.1073 -0.0165 -0.0751
 5002W        W 8746   7.807   0.305  11.149  0.2064 -0.0054 -0.0606
 5003W        W 8747   2.601   1.939   1.629 -0.1428 -0.1888  0.0202
 5004W        W 8748   1.389   3.321   0.571 -0.2661 -0.2851 -0.3414
 5005W        W 8749   7.865   1.386   0.898  0.0091  0.2814  0.1275
 5006W        W 8750   8.181   4.946  11.947 -0.2108  0.2230  0.0307
 5007W        W 8751   6.834   6.662   9.553  0.1015  0.1241  0.0863
 5008W        W 8752   8.737   0.916  12.646 -0.2341  0.0081 -0.0189
 5009W        W 8753   8.490   6.572  12.121  0.3587 -0.2633  0.2355
 5010W        W 8754   8.422   3.799   0.545 -0.1353  0.2383 -0.0150
 5011W        W 8755   6.115   8.119  11.966  0.1298 -0.0706  0.1750
 5012W        W 8756   5.804   8.706   9.966 -0.2665 -0.0797  0.0534
 5013W        W 8757   4.145   4.555  12.293 -0.0130 -0.2126 -0.1231
 5014W        W 8758   5.816   9.379   4.348  0.1647  0.4604  0.0555
 5015W        W 8759   8.722   0.023   9.883 -0.0837  0.0659  0.1278
 5016W        W 8760   7.653   2.144   1.093 -0.0397  0.2237  0.0763
 5017W        W 8761   8.294   9.283   3.609 -0.2739 -0.0659 -0.0818
 5018W        W 8762   2.435   3.413   9.893  0.1153 -0.1594 -0.1484
 5019W        W 8763   5.657   0.358   3.759 -0.1021 -0.5237 -0.1686
 5020W        W 8764   2.470   3.793   1.239 -0.0208  0.2134  0.0831
 5021W        W 8765   0.126   6.581   9.352  0.1633 -0.3442 -0.0106
 5022W        W 8766   1.023   1.556  10.135  0.0608 -0.0312  0.0254
 5023W        W 8767   5.989   5.569   9.116 -0.2114  0.2485 -0.0649
 5024W        W 8768   8.029   9.948  10.288 -0.3816  0.2875 -0.1065
 5025W        W 8769   6.663   8.969   2.295 -0.1918  0.0389  0.0742
 5026W        W 8770   8.978   6.761   0.382 -0.0146 -0.0237  0.2175
 5027W        W 8771   4.820   8.949   4.087  0.0134 -0.1567  0.0145
 5028W        W 8772   4.439   0.603  10.790  0.1286  0.1836 -0.0239
 5029W        W 8773   0.960   0.090   0.873  0.1119  0.1014 -0.1331
 5030W        W 8774   7.433   9.431   9.581 -0.1543  0.1130  0.2088
 5031W        W 8775   8.881   2.390  12.652 -0.3116  0.2935 -0.1546
 5032W        W 8776   8.807   7.892   9.427  0.0311  0.0719 -0.5277
 5033W        W 8777   0.825   9.774   4.179  0.1807 -0.0598 -0.2379
 5034W        W 8778   7.997   0.720   9.577  0.1513  0.3476  0.0572
 5035W        W 8779   9.725   5.402   2.413  0.1451 -0.2234  0.1079
 5036W        W 8780   7.658   0.197   3.808  0.1649 -0.2158  0.2897
 5037W        W 8781   9.287   7.553   0.351  0.3250  0.2352  0.2530
 5038W        W 8782   8.356   6.321  11.719 -0.2625  0.4272 -0.1216
 5039W        W 8783   2.073   9.253   2.803 -0.2406  0.0246 -0.1464
 5040W        W 8784   7.518   5.389   0.384 -0.0748  0.3802 -0.0029
 5041W        W 8785   4.821   2.863   0.856  0.1945 -0.1154 -0.0740
 5042W        W 8786   6.088   0.781   8.451 -0.3874 -0.0171 -0.2702
 5043W        W 8787   3.939   6.448   4.024  0.2341 -0.1552  0.1450
 5044W        W 8788   3.758   8.246  10.140 -0.2168 -0.2945 -0.0240
 5045W        W 8789   6.876   7.233   3.508  0.1070 -0.0140  0.1012
 5046W        W 8790   5.237   9.623   8.648 -0.1532  0.2275 -0.1073
 5047W        W 8791   1.742   1.688   3.168  0.2842 -0.1705 -0.2048
 5048W        W 8792   9.873   6.308   1.608 -0.2531 -0.0823  0.1697
 5049W        W 8793   3.821   0.417   1.829 -0.0080  0.2408  0.1879
 5050W        W 8794   6.295   2.646   3.412 -0.0643 -0.2097 -0.0557
 5051W        W 8795   2.804   0.847  11.712 -0.1438  0.2525  0.2298
 5052W        W 8796   0.519   6.796   0.388 -0.0356 -0.1247  0.0656
 5053W        W 8797   3.719   2.246   2.852 -0.3825 -0.2267  0.3020
 5054W        W 8798   0.206   7.831   2.628  0.1644 -0.2025 -0.1550
 5055W        W 8799   7.335   7.692   0.724  0.4382  0.1140  0.0024
 5056W        W 8800   6.367   2.283   7.571  0.1499  0.2923 -0.0640
 5057W        W 8801   8.295   1.876   1.597  0.3044  0.2470 -0.0106
 5058W        W 8802   0.035   2.898   3.159 -0.0984 -0.0927 -0.1010
 5059W        W 8803   9.124   3.442   3.685  0.0814  0.3531 -0.2056
 5060W        W 8804   3.202   1.846   0.342  0.0226 -0.0121 -0.0609
 5061W        W 8805   0.833   1.833   9.746 -0.3558 -0.1185  0.0212
 5062W        W 8806   7.842   3.901  12.427 -0.1048 -0.0610  0.1209
 5063W        W 8807   7.308   0.012  11.082 -0.2612 -0.2209 -0.3612
 5064W        W 8808   7.149   5.882  10.690 -0.1813 -0.5681  0.2581
 5065W        W 8809   3.111   7.143   1.093 -0.0091 -0.1283 -0.0625
 5066W        W 8810   9.358   0.899  10.397  0.2797 -0.2277  0.2185
 5067W        W 8811   8.080   3.986   2.588  0.3462 -0.1674 -0.0205
 5068W        W 8812   2.369   9.718  12.516 -0.0676  0.1649 -0.0719
 5069W        W 8813   9.424   3.834   1.352  0.0416  0.0256  0.2058
 5070W        W 8814   9.178   6.977   9.709  0.2176 -0.0814  0.1710
 5071W        W 8815   6.474   8.187   0.741  0.0552  0.0889 -0.0291
 5072W        W 8816   0.087   0.168   9.508 -0.2519 -0.1544 -0.1867
 5073W        W 8817   2.972   6.853   1.454 -0.3813  0.0648 -0.2726
 5074W        W 8818   8.669   3.223  11.714 -0.1484 -0.0073  0.0259
 5075W        W 8819   4.131   4.044   1.348 -0.0990  0.1175 -0.3232
 5076W        W 8820   6.896   5.762   9.712  0.2389  0.0805 -0.0330
 5077W        W 8821   0.237   2.675   0.109 -0.1527  0.1928 -0.2716
 5078W        W 8822   2.870   3.536   4.251  0.1598 -0.0359  0.0751
 5079W        W 8823   8.006   8.556  10.377 -0.0173  0.1768 -0.1050
 5080W        W 8824   2.699   2.916   0.310  0.1503  0.1524  0.1371
 5081W        W 8825   1.576   1.319   2.054 -0.0493  0.0531  0.1545
 5082W        W 8826   5.166   7.609   2.845 -0.2718  0.1749  0.0321
 5083W        W 8827   9.311   3.152   0.170  0.2015  0.0823  0.1289
 5084W        W 8828   3.307   6.196   0.061 -0.2315 -0.1969 -0.0272
 5085W        W 8829   8.339   3.063   3.952  0.1941 -0.4149  0.4329
 5086W        W 8830   3.098   2.910  10.906 -0.1881 -0.0682  0.0872
 5087W        W 8831   2.065   6.503   1.395 -0.3132  0.0717  0.0401
 5088W        W 8832   5.190   4.418   1.618  0.0716  0.0189 -0.1222
 5089W        W 8833   4.259   4.467   1.579  0.3894 -0.0516 -0.1403
 5090W        W 8834   9.353   3.111   1.794  0.1110  0.0705 -0.2184
 5091W        W 8835   8.632   3.226   8.510  0.1976 -0.4291 -0.1654
 5092W        W 8836   9.016   0.986   1.388  0.1818  0.1230 -0.3866
 5093W        W 8837   3.645   9.193   3.753  0.1392 -0.2317  0.0527
 5094W        W 8838   8.949   7.829   1.192 -0.2075  0.0899 -0.0576
 5095W        W 8839   1.345   2.157   3.525  0.2697  0.0120 -0.1524
 5096W        W 8840   4.778   2.567  10.862  0.0667  0.3140  0.1368
 5097W        W 8841   9.666   3.648   3.399 -0.1695 -0.1668 -0.1820
 5098W        W 8842   0.618   9.621   1.099 -0.2888 -0.2913 -0.3931
 5099W        W 8843   2.629   0.425   0.768 -0.0819  0.1083 -0.3775
 5100W        W 8844   9.534   3.607   0.964  0.1816 -0.1346  0.1117
 5101W        W 8845   9.530   1.170  11.535 -0.0504  0.1294  0.2439
 5102W        W 8846   7.581   3.372   9.186  0.1536  0.3832  0.0197
 5103W        W 8847   3.707   6.965  11.670  0.4449 -0.1180  0.0074
 5104W        W 8848   2.448   5.059   1.997  0.0839 -0.2974 -0.1421
 5105W        W 8849   8.674   5.304  11.564 -0.3267  0.3075  0.2865
 5106W        W 8850   4.769   5.217   0.710 -0.1738 -0.0333  0.0645
 5107W        W 8851   3.518   1.731   3.096 -0.2323 -0.0970  0.1246
 5108W        W 8852   8.495   7.403  12.623 -0.0817  0.1449  0.2175
 5109W        W 8853   6.017   3.019  10.740  0.2491 -0.3410  0.0432
 5110W        W 8854   4.052   9.674   0.409 -0.1590  0.0655  0.1466
 5111W        W 8855   3.194   6.043  12.206 -0.0799  0.1592  0.1351
 5112W        W 8856   0.604   4.953   0.096  0.1689 -0.3191  0.1130
 5113W        W 8857   5.922   6.270   9.740  0.0427 -0.3052 -0.1787
 5114W        W 8858   1.291   0.413   0.656 -0.1092  0.0208 -0.2639
 5115W        W 8859   4.661   1.850   8.938  0.1075  0.0199  0.2507
 5116W        W 8860   5.696   5.415   4.090  0.0249  0.2008 -0.0456
 5117W        W 8861   2.365   5.607  12.703 -0.3411 -0.1300 -0.0274
 5118W        W 8862   9.007   8.826  10.028 -0.1687 -0.0726 -0.2411
 5119W        W 8863   9.297   5.026   9.549  0.0965 -0.2098 -0.0362
 5120W        W 8864   7.136   9.597  10.635 -0.0530 -0.0916  0.0655
 5121W        W 8865   1.245   1.577  10.575 -0.2077  0.1460 -0.0194
 5122W        W 8866   1.020   1.772  12.167 -0.0919  0.2028  0.3477
 5123W        W 8867   7.093   0.271  10.655  0.2241  0.1634  0.1390
 5124W        W 8868   7.523   8.358   3.193  0.2567 -0.0232 -0.1299
 5125W        W 8869   3.689   6.265  12.402 -0.0248 -0.4533  0.0954
 5126W        W 8870   0.161   7.622  10.002 -0.0629 -0.0849 -0.0269
 5127W        W 8871   0.267   0.008   4.081  0.0848 -0.0945  0.1615
 5128W        W 8872   5.545   1.625   4.847  0.1297  0.0477  0.1166
 5129W        W 8873   7.063   0.362   2.828  0.0775 -0.2226  0.0357
 5130W        W 8874   1.042   9.779  10.053 -0.0391 -0.0193 -0.3435
 5131W        W 8875   0.710   1.870   0.416  0.3428 -0.0807 -0.0340
 5132W        W 8876   7.689   3.159   3.820 -0.1640 -0.0466 -0.0683
 5133W        W 8877   5.121   2.917   4.199  0.0226 -0.1811 -0.0209
 5134W        W 8878   0.024   5.850   3.427 -0.1969 -0.1290  0.3603
 5135W        W 8879   9.771   4.840   3.791  0.0399  0.3535 -0.2326
 5136W        W 8880   7.076   9.714   2.358 -0.0063  0.2329  0.0693
 5137W        W 8881   3.583   6.897   2.718  0.1651  0.1282  0.0644
 5138W        W 8882   0.037   2.596   9.691 -0.0407  0.2303 -0.2512
 5139W        W 8883   9.517   9.436   2.316 -0.0496 -0.0384 -0.2207
 5140W        W 8884   9.192   2.916   3.601 -0.0656  0.2068  0.0765
 5141W        W 8885   6.145   3.485   2.747 -0.2808 -0.1105  0.2562
 5142W        W 8886   4.506   7.124  11.073 -0.0795  0.1985 -0.2302
 5143W        W 8887   6.714   8.557   9.861 -0.2875  0.0094 -0.0231
 5144W        W 8888   3.541   2.150   3.370 -0.1482 -0.3892  0.3125
 5145W        W 8889   1.716   9.687  10.029  0.0141  0.0603  0.3547
 5146W        W 8890   2.697   3.439   2.293  0.0579 -0.1792  0.2152
 5147W        W 8891   5.084   8.664   0.796  0.1023  0.0382 -0.0855
 5148W        W 8892   4.073   6.223   2.919 -0.1808  0.6199  0.1661
 5149W        W 8893   4.269   0.104   8.594 -0.0862  0.1942 -0.2651
 5150W        W 8894   1.438   1.913   9.057  0.0355  0.2171  0.2136
 5151W        W 8895   6.844   1.871  12.801 -0.0791  0.1140  0.0418
 5152W        W 8896   3.071   6.124  10.832 -0.1326  0.2290  0.1043
 5153W        W 8897   4.056   3.814   3.526 -0.2511  0.0762 -0.2590
 5154W        W 8898   5.480   1.717   2.679 -0.0621 -0.1209 -0.1384
 5155W        W 8899   5.874   6.049  10.552 -0.0653 -0.2417  0.0778
 5156W        W 8900   2.818   5.915  12.647 -0.0564  0.0489  0.3416
 5157W        W 8901   8.278   8.695   3.648 -0.3909  0.0300 -0.1960
 5158W        W 8902   9.781   0.290   4.280 -0.1058  0.2338 -0.3951
 5159W        W 8903   4.747   8.317  12.736  0.1292  0.2973  0.2830
 5160W        W 8904   5.407   5.788  12.406  0.2173 -0.1935  0.2258
 5161W        W 8905   9.911   9.089  11.326 -0.4021  0.0206 -0.1589
 5162W        W 8906   4.729   5.617  11.650  0.0365  0.0617 -0.0068
 5163W        W 8907   4.095   5.996  12.279 -0.1496 -0.0877 -0.0983
 5164W        W 8908   5.042   2.997   2.915 -0.0534  0.1066  0.2457
 5165W        W 8909   8.634   3.415   3.435 -0.1347 -0.0033  0.0899
 5166W        W 8910   9.753   9.472   1.895  0.1617 -0.0596  0.4326
 5167W        W 8911   3.057   8.547   0.729 -0.4088 -0.1530 -0.2428
 5168W        W 8912   5.930   0.385   2.700  0.0095  0.0108  0.1641
 5169W        W 8913   2.762   9.462   1.086 -0.1578  0.3131 -0.1168
 5170W        W 8914   0.907   0.594   9.281  0.1594 -0.0733 -0.5420
 5171W        W 8915   7.510   8.150   1.200  0.0475  0.0217  0.0031
 5172W        W 8916   3.411   0.616   1.488 -0.2647 -0.2739  0.1668
 5173W        W 8917   7.672   0.821   0.344 -0.0073  0.3363 -0.3133
 5174W        W 8918   1.085   3.820  11.064  0.3906  0.2286 -0.0051
 5175W        W 8919   1.714   8.346   0.761 -0.2389 -0.1815  0.1771
 5176W        W 8920   8.694   7.214   0.336  0.2017  0.2175 -0.2252
 5177W        W 8921   8.311   3.431   4.833 -0.0229 -0.2627  0.1896
 5178W        W 8922   3.174   2.049   4.180 -0.2107 -0.2255  0.2559
 5179W        W 8923   8.677   6.886   1.354 -0.0488 -0.3380 -0.1963
 5180W        W 8924   3.688   1.779   2.227  0.0059  0.0101  0.1721
 5181W        W 8925   0.366   4.380   1.548 -0.2606  0.0090 -0.0332
 5182W        W 8926   5.735   3.575   4.201 -0.1191 -0.2038  0.2216
 5183W        W 8927   5.799   3.101   1.004  0.0932  0.3691 -0.1089
 5184W        W 8928   9.908   3.350   9.423 -0.0482 -0.1382  0.0437
 5185W        W 8929   5.455   8.340   9.018  0.0153  0.3128 -0.2639
 5186W        W 8930   8.321   3.745   3.725  0.1260 -0.0213 -0.0233
 5187W        W 8931   3.290   5.686  10.974 -0.0030  0.3850 -0.0386
 5188W        W 8932   6.541   7.502   3.276 -0.1366 -0.0372 -0.1849
 5189W        W 8933   7.871   2.595   9.796  0.1876 -0.1605  0.0918
 5190W        W 8934   7.102   8.221   2.904 -0.0637  0.1164 -0.1240
 5191W        W 8935   5.930   8.091   0.665  0.0437  0.0420  0.3499
 5192W        W 8936   9.859   5.359   2.858  0.2873  0.3618  0.1610
 5193W        W 8937   2.891   1.598   8.761 -0.3085  0.0522 -0.1252
 5194W        W 8938   3.211   9.716   4.728  0.0314 -0.1524 -0.1457
 5195W        W 8939   7.190   5.489  10.089  0.1584 -0.1346  0.0222
 5196W        W 8940   1.553   1.827  12.255 -0.1120  0.1882 -0.0463
 5197W        W 8941   9.163   3.886  11.199  0.0510 -0.0655  0.0543
 5198W        W 8942   1.527   5.805  11.203 -0.2251 -0.2390  0.2170
 5199W        W 8943   1.760   6.132   0.792  0.0092 -0.0416  0.1136
 5200W        W 8944   1.937   7.652   2.880 -0.0354  0.2059 -0.0416
 5201W        W 8945   4.853   2.800  11.376 -0.3140  0.1329  0.1006
 5202W        W 8946   4.862   2.152   9.338  0.1397  0.1783 -0.1813
 5203W        W 8947   2.471   1.611   3.211 -0.2657  0.0672 -0.2494
 5204W        W 8948   6.747   0.369   4.702 -0.2134 -0.0087  0.0627
 5205W        W 8949   4.675   8.584   0.345 -0.0238  0.1653 -0.0980
 5206W        W 8950   3.910   1.303   8.988 -0.0065  0.2990  0.0966
 5207W        W 8951   8.668   5.421   2.398 -0.1117  0.1095  0.0794
 5208W        W 8952   3.884   5.802   8.920  0.1588 -0.1043  0.4628
 5209W        W 8953   5.394   0.528  11.440 -0.1565  0.2185  0.1256
 5210W        W 8954   7.936   0.922   2.563  0.1232 -0.0581 -0.1660
 5211W        W 8955   9.021   3.519  11.919 -0.1739  0.0878 -0.0430
 5212W        W 8956   4.251   3.812   9.452  0.1081  0.0543  0.2465
 5213W        W 8957   8.824   3.865   3.823  0.0100  0.2007  0.3107
 5214W        W 8958   3.726   8.909   1.848 -0.0064  0.1391 -0.2089
 5215W        W 8959   2.082   5.714   3.189 -0.1543 -0.0574 -0.2160
 5216W        W 8960   4.901   1.542   9.922  0.2827  0.0579  0.3065
 5217W        W 8961   4.167   8.716   3.086  0.1826 -0.0324 -0.1394
 5218W        W 8962   2.074   6.615   1.863  0.2273 -0.0910  0.0488
 5219W        W 8963   9.537   4.121  11.426 -0.1326 -0.0102 -0.2696
 5220W        W 8964   9.844   3.418   3.901 -0.0300  0.0815  0.2424
 5221W        W 8965   8.893   8.053  10.750 -0.1449  0.1440  0.5179
 5222W        W 8966   3.355   2.115   1.111  0.0428  0.3386  0.0671
 5223W        W 8967   9.581   0.525   2.985 -0.0769  0.1349 -0.0293
 5224W        W 8968   9.384   7.745   3.593  0.0019 -0.1298  0.2587
 5225W        W 8969   8.081   3.074  10.404 -0.0927 -0.1780  0.0032
 5226W        W 8970   4.289   1.681   0.884  0.1232 -0.0211  0.2978
 5227W        W 8971   8.589   0.475  10.773  0.1539  0.1280 -0.0633
 5228W        W 8972   9.651   0.707   4.085 -0.0443  0.2208  0.2066
 5229W        W 8973   9.159   4.031  12.684  0.1881  0.0456  0.3283
 5230W        W 8974   3.807   4.918   2.813 -0.3495 -0.4329  0.2643
 5231W        W 8975   2.635   5.191   0.665  0.4094  0.0742 -0.0383
 5232W        W 8976   9.484   4.156   3.136 -0.1011 -0.0334  0.3221
 5233W        W 8977   6.615   5.764   2.160 -0.1253 -0.0729 -0.0180
 5234W        W 8978   7.361   5.235   2.060 -0.1721 -0.3114  0.1875
 5235W        W 8979   5.207   2.207  10.841  0.0181 -0.1417  0.0603
 5236W        W 8980   8.283   3.789   4.544 -0.1310  0.0835  0.0184
 5237W        W 8981   2.708   1.123   3.992 -0.1030  0.0687 -0.1214
 5238W        W 8982   9.266   7.301  10.919  0.0098  0.2328  0.4604
 5239W        W 8983   8.474   9.559   9.758 -0.2554 -0.2105  0.0411
 5240W        W 8984   4.925   2.407   8.469 -0.0118 -0.4144  0.0707
 5241W        W 8985   6.645   5.065   1.460 -0.0117  0.3289 -0.0757
 5242W        W 8986   5.054   6.516   1.043  0.3407  0.1728 -0.0152
 5243W        W 8987   9.404   2.771   8.010  0.1879 -0.1376 -0.2235
 5244W        W 8988   6.366   5.047  12.715  0.0931  0.1760 -0.1654
 5245W        W 8989   3.210   5.412   3.472  0.0145 -0.0647  0.0997
 5246W        W 8990   0.204   2.246  12.553  0.0746  0.0958  0.0533
 5247W        W 8991   2.451   5.256  11.021  0.0970  0.4066  0.0197
 5248W        W 8992   5.428   2.453   8.562  0.0178  0.0106  0.1695
 5249W        W 8993   9.597   8.904   2.303 -0.0319  0.0554  0.0565
 5250W        W 8994   5.781   6.331   4.019 -0.1305 -0.1344 -0.1992
 5251W        W 8995   0.355   5.147   2.043  0.0851 -0.0406  0.1393
 5252W        W 8996   8.039   9.453   0.358  0.3915 -0.2538  0.1100
 5253W        W 8997   4.180   8.666  10.853  0.1070 -0.2919 -0.1230
 5254W        W 8998   9.128   3.679   4.219  0.0159 -0.2833 -0.2068
 5255W        W 8999   0.343   2.725  12.459  0.0766 -0.0164 -0.0181
 5256W        W 9000   8.787   6.101  12.080 -0.2235  0.0028  0.2476
 5257W        W 9001   5.013   6.439   0.351  0.1212 -0.2802  0.2214
 5258W        W 9002   1.263   3.410   9.630 -0.0597  0.2128  0.0555
 5259W        W 9003   8.607   6.601  10.782  0.1852 -0.1417 -0.0298
 5260W        W 9004   4.400   2.851  11.330  0.1411  0.0413 -0.2414
 5261W        W 9005   2.127   3.336  10.739  0.0095 -0.0689 -0.2530
 5262W        W 9006   7.944   6.620   3.005 -0.2569 -0.2857  0.0002
 5263W        W 9007   3.105   4.808  12.237  0.2545 -0.3781 -0.1630
 5264W        W 9008   3.911   9.382  12.348 -0.0435 -0.1460 -0.0168
 5265W        W 9009   2.377   2.245   7.940 -0.1003 -0.3539 -0.1179
 5266W        W 9010   8.883   3.227  12.262 -0.0432  0.0201 -0.4190
 5267W        W 9011   8.198   8.796  10.787 -0.0581 -0.2383  0.5640
 5268W        W 9012   1.037   5.928  10.162 -0.0585  0.1683 -0.1160
 5269W        W 9013   2.643   6.529   9.749 -0.2171  0.1010 -0.1316
 5270W        W 9014   7.445   5.632   4.948  0.1051 -0.0762 -0.0711
 5271W        W 9015   2.714   1.168  10.099 -0.3700 -0.0351 -0.1300
 5272W        W 9016   9.417   2.518   0.984 -0.0685 -0.0765  0.2229
 5273W        W 9017   1.626   1.478   2.695 -0.0827  0.4356 -0.2409
 5274W        W 9018   9.752   8.627   0.618  0.1916 -0.0202 -0.1243
 5275W        W 9019   5.343   4.654   4.933  0.2470  0.1435  0.0479
 5276W        W 9020   4.708   0.474   0.817 -0.2150 -0.2949  0.1944
 5277W        W 9021   3.561   2.737   2.187 -0.0219 -0.2068 -0.3347
 5278W        W 9022   8.356   1.735   4.692 -0.0100 -0.1257  0.0340
 5279W        W 9023   9.612   0.029   1.697 -0.0269 -0.1966 -0.0718
 5280W        W 9024   7.950   2.607   1.011 -0.0661  0.0459 -0.2771
 5281W        W 9025   2.676   5.062  10.135  0.1692 -0.0601 -0.2001
 5282W        W 9026   7.963   5.505   0.484 -0.0227  0.0590 -0.5287
 5283W        W 9027   8.420   9.500   4.047 -0.2581  0.3863  0.0754
 5284W        W 9028   7.077   5.960  10.218 -0.1942  0.0450 -0.1116
 5285W        W 9029   0.127   0.692  12.329 -0.2205 -0.0148  0.1120
 5286W        W 9030   7.065   1.025   1.010  0.2021  0.3462 -0.0670
 5287W        W 9031   4.285   3.361   3.868  0.0585 -0.2588  0.0498
 5288W        W 9032   5.919   9.332   0.031 -0.2405  0.0542  0.2282
 5289W        W 9033   8.728   8.845  11.530 -0.0646  0.1755 -0.0990
 5290W        W 9034   3.262   1.863  12.374 -0.2221  0.0983 -0.0884
 5291W        W 9035   7.669   9.537  10.323 -0.1766  0.0341  0.1786
 5292W        W 9036   6.209   1.157   0.306  0.1947 -0.0023 -0.1881
 5293W        W 9037   1.537   8.869   9.963 -0.2734 -0.0279  0.0977
 5294W        W 9038   4.224   7.073  12.766  0.1071  0.1201 -0.2453
 5295W        W 9039   0.802   2.478   3.921  0.2828 -0.5005 -0.2433
 5296W        W 9040   1.355   5.945   2.957  0.0425  0.1202 -0.1813
 5297W        W 9041   3.663   9.097   2.302  0.0755  0.0815 -0.3873
 5298W        W 9042   3.783   3.739   0.400 -0.0585 -0.2792 -0.0160
 5299W        W 9043   8.768   3.843   1.330  0.1126  0.0418 -0.1244
 5300W        W 9044   6.199   6.261   4.285  0.2012  0.1069 -0.1117
 5301W        W 9045   9.691   4.733   9.681  0.3584 -0.3710  0.0478
 5302W        W 9046   5.512   5.387  10.920  0.0456  0.1108 -0.1070
 5303W        W 9047   9.431   1.882   2.774  0.0959 -0.3660 -0.1613
 5304W        W 9048   5.945   2.006  12.327 -0.0083 -0.0437  0.1054
 5305W        W 9049   7.495   2.721   9.425  0.1327  0.2955 -0.0410
 5306W        W 9050   8.023   4.671   3.405  0.2054 -0.0283  0.1350
 5307W        W 9051   3.167   7.334   3.605  0.1440 -0.0734  0.1417
 5308W        W 9052   0.368   4.156   3.510  0.0566 -0.0764 -0.1355
 5309W        W 9053   7.024   7.581   3.108 -0.0826  0.2267 -0.1001
 5310W        W 9054   0.878   6.258   2.526  0.1183 -0.1227  0.1769
 5311W        W 9055   9.194   2.449  11.712 -0.1871  0.2251 -0.2454
 5312W        W 9056   2.175   1.747  11.815  0.0141 -0.0464  0.2830
 5313W        W 9057   4.803   8.015  10.859 -0.0796 -0.1847  0.0451
 5314W        W 9058   4.642   6.251  10.954  0.0764  0.3969 -0.0972
 5315W        W 9059   9.566   0.013   2.204 -0.3440  0.0196  0.0945
 5316W        W 9060   3.355   1.054   2.395  0.0732 -0.0066  0.1920
 5317W        W 9061   5.631   5.755   0.452  0.0140 -0.0171 -0.2376
 5318W        W 9062   7.489   7.272  10.043 -0.1528  0.2529 -0.1669
 5319W        W 9063   0.141   1.176   9.401 -0.0790 -0.1441 -0.3928
 5320W        W 9064   9.167   3.057   9.534  0.1787  0.2904 -0.0157
 5321W        W 9065   4.789   8.826   1.201 -0.0669  0.0029 -0.2597
 5322W        W 9066   9.624   2.699   2.730 -0.2720  0.0852 -0.0831
 5323W        W 9067   7.406   2.849   1.811 -0.0606  0.2604 -0.4109
 5324W        W 9068   3.009   7.952   3.552 -0.1410 -0.1724  0.0504
 5325W        W 9069   9.945   3.922  10.849 -0.0331 -0.1806  0.0175
 5326W        W 9070   6.418   2.059   4.604  0.0088 -0.3488  0.1397
 5327W        W 9071   5.435   3.464   1.052  0.1993 -0.0910 -0.1379
 5328W        W 9072   8.159   4.234   3.644 -0.1072 -0.1189  0.3183
 5329W        W 9073   2.560   9.817   9.715 -0.0051  0.1696  0.1872
 5330W        W 9074   1.731   7.542  12.678  0.2246 -0.0954 -0.2074
 5331W        W 9075   6.758   2.936  10.241 -0.0828 -0.1661  0.0067
 5332W        W 9076   6.671   3.645   0.561 -0.0982 -0.1029  0.2047
 5333W        W 9077   3.211   9.418   4.111 -0.0494 -0.2125 -0.0734
 5334W        W 9078   5.941   9.064   8.495 -0.0404  0.0190 -0.0751
 5335W        W 9079   6.711   5.045   0.819 -0.0032  0.1979  0.0140
 5336W        W 9080   8.237   6.497   0.632  0.2343 -0.2518 -0.1325
 5337W        W 9081   4.534   2.429   2.332  0.1424  0.4315 -0.1664
 5338W        W 9082   9.091   4.083   9.811  0.0183 -0.1812 -0.2076
 5339W        W 9083   7.045   6.537   2.460  0.1271 -0.2183 -0.2982
 5340W        W 9084   8.744   7.635  11.909 -0.4051 -0.0255 -0.1862
 5341W        W 9085   5.115   9.119  11.137 -0.0687 -0.0494 -0.0927
 5342W        W 9086   0.015   6.605   9.833  0.0716 -0.2760  0.2142
 5343W        W 9087   8.626   3.649   8.761 -0.1330  0.2880 -0.0133
 5344W        W 9088   4.217   3.288   9.848  0.1668  0.4220 -0.0987
 5345W        W 9089   7.329   1.780   0.382  0.5679  0.3485 -0.0649
 5346W        W 9090   4.212   6.581  12.653 -0.2529 -0.0546 -0.1306
 5347W        W 9091   5.376   9.889   9.491  0.0362 -0.0547 -0.0607
 5348W        W 9092   0.152   2.245   8.685  0.2015  0.2756  0.0301
 5349W        W 9093   9.617   7.953   3.210  0.3697  0.0038 -0.0690
 5350W        W 9094   3.286   1.148   0.631 -0.0007 -0.0104  0.3343
 5351W        W 9095   6.857   4.012   3.272  0.1477  0.1746  0.1833
 5352W        W 9096   0.663   3.386   8.479  0.1674  0.2249  0.0634
 5353W        W 9097   5.097   6.676  11.567 -0.2850 -0.1057 -0.2619
 5354W        W 9098   4.627   9.279   3.550  0.2073  0.1451 -0.0856
 5355W        W 9099   0.109   9.855   1.956  0.1487  0.0494 -0.1441
 5356W        W 9100   7.657   2.252   2.933  0.0844 -0.0379  0.2285
 5357W        W 9101   1.178   2.694   2.014  0.1386  0.1593 -0.0146
 5358W        W 9102   2.737   6.418   2.211 -0.0284  0.0183 -0.4027
 5359W        W 9103   8.320   6.746   3.890  0.0779  0.2798 -0.0351
 5360W        W 9104   7.171   0.758   1.503 -0.1725 -0.0106 -0.0691
 5361W        W 9105   2.079   2.903   2.000 -0.0359  0.7215  0.0236
 5362W        W 9106   2.378   1.333   2.371  0.2141  0.0684  0.1325
 5363W        W 9107   7.355   6.229   0.831  0.0435 -0.0875  0.0865
 5364W        W 9108   8.788   1.287   8.045  0.0323  0.1808  0.0942
 5365W        W 9109   7.807   2.598   4.507 -0.1970 -0.0228 -0.3559
 5366W        W 9110   1.714   3.865   0.398 -0.1027 -0.0983 -0.0158
 5367W        W 9111   2.287   0.703   0.019  0.0982  0.1762 -0.0648
 5368W        W 9112   5.584   1.107   0.780 -0.2683 -0.0363  0.1057
 5369W        W 9113   6.904   4.887  11.903  0.1136  0.2931 -0.2606
 5370W        W 9114   6.992   3.114   1.838 -0.0570  0.2875  0.2112
 5371W        W 9115   2.379   8.427   2.190 -0.0902 -0.0082 -0.0862
 5372W        W 9116   2.042   3.157   8.485  0.0022  0.1451 -0.1235
 5373W        W 9117   6.020   2.943   4.467  0.0102  0.0394 -0.0941
 5374W        W 9118   0.507   6.078   3.156 -0.1439  0.0506  0.0497
 5375W        W 9119   0.806   0.436   2.216 -0.1546 -0.0697 -0.0345
 5376W        W 9120   3.388   9.310  12.292  0.1886 -0.0133 -0.0341
 5377W        W 9121   0.432   6.314   9.858  0.2380 -0.1366 -0.0248
 5378W        W 9122   7.990   9.002   2.008  0.1606  0.6610  0.0551
 5379W        W 9123   6.268   0.546   1.375 -0.0369  0.1400 -0.0113
 5380W        W 9124   1.634   8.320  10.889 -0.0496 -0.0322  0.0488
 5381W        W 9125   7.482   6.429   3.378 -0.0260  0.0527 -0.0793
 5382W        W 9126   3.307   9.138   9.810 -0.0354 -0.1589 -0.3518
 5383W        W 9127   6.881   1.013  11.293  0.2011 -0.0870  0.0758
 5384W        W 9128   4.436   0.257  11.795 -0.0700 -0.0167 -0.1741
 5385W        W 9129   4.257   2.803   1.931 -0.0025  0.1781  0.0088
 5386W        W 9130   3.635   0.966   4.203  0.1523  0.0836  0.3107
 5387W        W 9131   7.902   5.799   1.383  0.2215  0.2796 -0.2055
 5388W        W 9132   8.891   0.847   8.776 -0.1257 -0.1558  0.0390
 5389W        W 9133   8.028   3.904   3.283  0.3488  0.1089  0.0601
 5390W        W 9134   8.969   2.361   8.964 -0.0079  0.1660 -0.1299
 5391W        W 9135   2.336   3.786   1.764  0.0069 -0.1804  0.2919
 5392W        W 9136   2.533   3.624  11.509  0.0826  0.0329 -0.3461
 5393W        W 9137   6.936   1.141   1.841 -0.0864 -0.0622 -0.1485
 5394W        W 9138   7.311   3.245  11.328  0.2854  0.0368 -0.0963
 5395W        W 9139   8.649   4.864   1.716 -0.0754 -0.0853  0.3466
 5396W        W 9140   9.934   6.366   2.080  0.1017 -0.0303 -0.1783
 5397W        W 9141   7.883   6.485   9.525  0.0739  0.3083  0.0822
 5398W        W 9142   6.279   8.006  11.468 -0.1063  0.1669 -0.0748
 5399W        W 9143   3.943   0.888   1.607 -0.1782  0.2693  0.1909
 5400W        W 9144   0.811   0.034   3.681 -0.1423 -0.2711 -0.3366
 5401W        W 9145   4.599   4.996  10.517  0.0225 -0.1704  0.2385
 5402W        W 9146   4.445   5.633   1.380 -0.0606  0.1676  0.0570
 5403W        W 9147   2.619   9.645   8.834  0.0769 -0.0257  0.0852
 5404W        W 9148   5.683   5.159   2.315 -0.0352 -0.0481 -0.1646
 5405W        W 9149   0.042   0.830  11.360 -0.0609  0.0869 -0.2313
 5406W        W 9150   0.556   1.914   1.417  0.1048 -0.2288 -0.1056
 5407W        W 9151   9.178   6.032   9.424 -0.0361  0.1834 -0.3409
 5408W        W 9152   5.902   1.775   3.507  0.1816 -0.1873  0.2846
 5409W        W 9153   3.712   7.690   9.471  0.1896 -0.1025  0.1866
 5410W        W 9154   0.429   7.387   1.226 -0.2030  0.2414  0.2247
 5411W        W 9155   9.889   5.420  11.868  0.4764 -0.0964  0.0240
 5412W        W 9156   5.959   7.600  11.571 -0.1097 -0.0666 -0.3234
 5413W        W 9157   0.200   5.708   4.046 -0.0700 -0.1577 -0.2195
 5414W        W 9158   1.419   5.051  10.830 -0.3145 -0.3191  0.4794
 5415W        W 9159   6.708   6.279   8.779  0.3946  0.1472 -0.2651
 5416W        W 9160   8.202   9.576   2.740  0.2870 -0.0615  0.3201
 5417W        W 9161   3.701   1.129   8.470  0.0388  0.0436 -0.2133
 5418W        W 9162   0.344   3.687   9.301  0.1035 -0.1293  0.0954
 5419W        W 9163   9.318   7.493   3.142  0.1401 -0.2100 -0.3919
 5420W        W 9164   8.552   0.116   9.369 -0.1518  0.4050 -0.1661
 5421W        W 9165   6.859   8.833  10.325 -0.0126 -0.2728  0.0700
 5422W        W 9166   8.330   5.604   3.644 -0.0402 -0.3584  0.0279
 5423W        W 9167   1.329   7.194  12.419 -0.0574 -0.0061  0.2187
 5424W        W 9168   7.970   8.701   9.380 -0.3765  0.1026  0.2442
 5425W        W 9169   1.673   1.319  12.433  0.1843 -0.3048 -0.0114
 5426W        W 9170   8.413   1.793   2.934  0.0634 -0.2914  0.1059
 5427W        W 9171   6.718   1.732  10.988  0.2082  0.0535  0.0821
 5428W        W 9172   2.102   6.889   0.969 -0.2323  0.0123  0.1570
 5429W        W 9173   8.268   4.034  11.960  0.1425  0.1734 -0.0097
 5430W        W 9174   6.412   2.010   9.372  0.0761  0.1109  0.1266
 5431W        W 9175   2.146   1.075   1.961  0.0977 -0.3094 -0.0519
 5432W        W 9176   5.516   4.391   2.022  0.3245  0.0100  0.0296
 5433W        W 9177   2.098   6.228   2.826  0.0052 -0.0619 -0.1718
 5434W        W 9178   7.071   0.947   9.445 -0.0502  0.1222  0.1042
 5435W        W 9179   6.524   2.761   3.952  0.1438  0.1458  0.0602
 5436W        W 9180   2.873   9.523   2.502  0.0134  0.1282  0.1540
 5437W        W 9181   3.368   5.828  11.541  0.1565 -0.1608  0.1931
 5438W        W 9182   2.235   5.387   0.362  0.3865 -0.1989  0.2159
 5439W        W 9183   5.785   8.359   0.214  0.1408  0.3061 -0.0209
 5440W        W 9184   5.628   9.504   2.002 -0.0247  0.6391  0.0014
 5441W        W 9185   3.502   9.784  10.709 -0.1852  0.1045 -0.4194
 5442W        W 9186   3.144   0.766  10.605 -0.4215  0.1987  0.1160
 5443W        W 9187   6.699   5.229   2.008  0.1387  0.0265 -0.1319
 5444W        W 9188   3.750   4.324   4.328 -0.1884 -0.1935  0.3443
 5445W        W 9189   8.501   5.814  11.744  0.1017 -0.1435 -0.0749
 5446W        W 9190   9.017   8.356  12.301 -0.1684  0.0603 -0.1252
 5447W        W 9191   4.630   9.394   2.021  0.0901  0.0363 -0.0621
 5448W        W 9192   1.951   2.393   2.336 -0.0892 -0.1892 -0.1073
 5449W        W 9193   7.976   6.056   9.944  0.1762  0.2427 -0.0924
 5450W        W 9194   5.735   8.024  11.720  0.1054 -0.0332  0.2843
 5451W        W 9195   4.530   0.077  10.923 -0.3379  0.1587  0.0546
 5452W        W 9196   4.645   9.916  12.789 -0.3160  0.1896  0.2743
 5453W        W 9197   2.784   0.723   1.476 -0.1182 -0.0505 -0.1614
 5454W        W 9198   0.369   1.950   0.975 -0.0207 -0.2976  0.1490
 5455W        W 9199   2.845   0.903   0.619 -0.0004  0.0115  0.1049
 5456W        W 9200   2.650   1.102   3.407 -0.1554  0.0969 -0.2518
 5457W        W 9201   0.227   1.112   0.443 -0.0929 -0.0268  0.0678
 5458W        W 9202   3.917   5.169  11.407  0.0163  0.5584 -0.1774
 5459W        W 9203   5.578   3.425  12.313 -0.0388  0.1834 -0.0926
 5460W        W 9204   4.943   8.986   2.823  0.0916  0.0026  0.2290
 5461W        W 9205   6.329   9.028  11.530  0.1062  0.6217 -0.0051
 5462W        W 9206   9.671   3.017   9.670  0.0744  0.1510  0.1460
 5463W        W 9207   4.237   8.298   0.080 -0.2313  0.1316  0.0079
 5464W        W 9208   2.603   0.915   1.960  0.1501  0.0682  0.0408
 5465W        W 9209   7.041   4.765   2.184  0.0323 -0.0735 -0.0078
 5466W        W 9210   1.308   7.133   2.239 -0.2027 -0.3174  0.0268
 5467W        W 9211   1.662   2.858  11.780 -0.1258  0.2436 -0.4751
 5468W        W 9212   7.015   5.701  11.330  0.1783  0.1185 -0.0341
 5469W        W 9213   3.048   4.321   0.519 -0.1125  0.2458 -0.0485
 5470W        W 9214   4.422   8.947  12.683  0.4396  0.1456  0.0899
 5471W        W 9215   5.304   8.169  11.544 -0.0401  0.0934  0.1553
 5472W        W 9216   2.928   6.769   1.996 -0.1483  0.0681 -0.0245
 5473W        W 9217   5.867   3.281   3.219  0.1281 -0.0269 -0.1960
 5474W        W 9218   0.151   8.970   2.434  0.1164 -0.3694 -0.4647
 5475W        W 9219   5.935   5.227   4.602  0.0508 -0.1679  0.0774
 5476W        W 9220   8.293   4.335   0.435  0.1211  0.0661  0.0510
 5477W        W 9221   2.144   5.145   1.568  0.4488  0.1397  0.0697
 5478W        W 9222   0.203   4.036  11.299  0.0168 -0.0657 -0.0193
 5479W        W 9223   1.142   9.014   1.474  0.5661  0.1299  0.1764
 5480W        W 9224   3.699   6.276   3.582  0.3041 -0.0110  0.1504
 5481W        W 9225   6.902   8.795   1.461  0.1773  0.0254 -0.1830
 5482W        W 9226   5.465   3.541  11.259 -0.0950  0.2945 -0.1241
 5483W        W 9227   4.596   5.951   4.517 -0.2506  0.1204  0.1537
 5484W        W 9228   8.746   2.339   2.035  0.3118 -0.0778 -0.0781
 5485W        W 9229   7.132   1.605   2.532 -0.1282 -0.0258 -0.0440
 5486W        W 9230   5.245   2.207  12.504  0.1658 -0.0533  0.2473
 5487W        W 9231   3.074   1.954   3.364 -0.2421  0.1989 -0.0148
 5488W        W 9232   1.151   7.991   0.424 -0.1187 -0.1244  0.0080
 5489W        W 9233   3.055   6.912   3.796  0.0707 -0.0736 -0.1980
 5490W        W 9234   9.419   1.930   1.138 -0.2206 -0.3733 -0.0094
 5491W        W 9235   4.672   2.331  11.607 -0.1926 -0.0648  0.1623
 5492W        W 9236   2.248   4.257   0.338 -0.2012 -0.0521 -0.1607
 5493W        W 9237   7.543   0.111   8.427  0.0888  0.4156  0.1706
 5494W        W 9238   3.457   9.942  11.587 -0.4510 -0.1013 -0.1309
 5495W        W 9239   1.546   1.507   8.782  0.0431  0.3229  0.3541
 5496W        W 9240   6.701   0.912   1.449  0.0650  0.1469 -0.1825
 5497W        W 9241   1.954   8.716   0.424 -0.0054  0.0724  0.1967
 5498W        W 9242   7.051   5.592   2.836  0.1113 -0.0321  0.1431
 5499W        W 9243   0.698   3.422   1.281  0.1359 -0.0863 -0.0783
 5500W        W 9244   5.802   5.105   1.770 -0.1150  0.1260 -0.2172
 5501W        W 9245   3.768   1.910   0.793 -0.3572  0.0294 -0.1956
 5502W        W 9246   5.226   4.458  11.627 -0.5057  0.2263 -0.1218
 5503W        W 9247   8.242   2.948   9.599 -0.1686  0.2666  0.2706
 5504W        W 9248   9.185   7.232   2.733 -0.3690  0.1560 -0.1581
 5505W        W 9249   8.159   6.226   0.214  0.0090 -0.1542 -0.1543
 5506W        W 9250   9.275   6.228  12.334  0.2617 -0.0892 -0.2544
 5507W        W 9251   1.019   4.796   0.850  0.1828 -0.1193 -0.1008
 5508W        W 9252   4.237   1.659   0.390 -0.2557  0.0600  0.3589
 5509W        W 9253   2.776   2.682   3.709  0.1249  0.0249 -0.0245
 5510W        W 9254   8.771   8.952   3.668 -0.0157 -0.0035 -0.1665
 5511W        W 9255   1.994   2.046   0.925 -0.0189 -0.2135  0.1551
 5512W        W 9256   3.862   6.940   0.366 -0.0856  0.0733  0.0778
 5513W        W 9257   7.813   3.558   2.433 -0.0882  0.0234  0.0949
 5514W        W 9258   6.155   8.862   3.560 -0.0496  0.0688  0.0672
 5515W        W 9259   4.410   3.921   2.199 -0.1088  0.1006  0.1800
 5516W        W 9260   0.691   6.724   1.815  0.1330  0.0930 -0.0652
 5517W        W 9261   4.361   9.297   3.973 -0.2554 -0.1445  0.1090
 5518W        W 9262   8.835   0.862   4.541  0.0148 -0.2071  0.1368
 5519W        W 9263   8.434   3.568   0.095 -0.3503  0.0222 -0.0694
 5520W        W 9264   7.116   7.061   2.473 -0.0189 -0.0771  0.2399
 5521W        W 9265   9.387   3.254   4.096 -0.0740 -0.1173  0.2248
 5522W        W 9266   3.084   0.157   3.855 -0.0054  0.0234 -0.1145
 5523W        W 9267   9.649   6.558  12.454 -0.0020  0.4406  0.1614
 5524W        W 9268   5.125   1.614  12.024 -0.0068 -0.0740 -0.0658
 5525W        W 9269   0.373   1.666   9.558  0.0306 -0.1892  0.0282
 5526W        W 9270   7.584   1.898   2.294  0.0082  0.0428  0.1072
 5527W        W 9271   7.283   1.402   9.510 -0.1009 -0.2385  0.0800
 5528W        W 9272   3.035   5.048   0.949 -0.1602 -0.0502 -0.0228
 5529W        W 9273   3.501   5.575   0.235  0.1005 -0.1243 -0.3959
 5530W        W 9274   3.506   0.363   9.213  0.0369 -0.3459  0.3555
 5531W        W 9275   1.791   0.294  10.593  0.1645 -0.1100 -0.3164
 5532W        W 9276   3.803   9.134  11.515 -0.1639  0.0246  0.0587
 5533W        W 9277   4.129   5.179  10.291  0.3494  0.0965 -0.0724
 5534W        W 9278   2.165   1.211  10.921 -0.1970  0.0520  0.2317
 5535W        W 9279   2.836   3.343   0.439  0.0916  0.2828 -0.1300
 5536W        W 9280   4.408   4.194  10.094  0.1759  0.2473 -0.0219
 5537W        W 9281   8.335   4.166  12.459  0.0673  0.1320  0.1276
 5538W        W 9282   8.324   8.388   9.524  0.4146  0.2304  0.2467
 5539W        W 9283   1.524   5.014   3.225  0.0697 -0.2793 -0.1881
 5540W        W 9284   7.357   4.059  12.111 -0.0761  0.1724  0.0002
 5541W        W 9285   6.877   4.378  11.245 -0.1356 -0.1663 -0.2676
 5542W        W 9286   9.324   1.369  10.119  0.0652 -0.0115 -0.1249
 5543W        W 9287   2.135   8.408   1.115 -0.1301 -0.1650 -0.0022
 5544W        W 9288   3.006   0.892  11.060 -0.1286 -0.5374 -0.0236
 5545W        W 9289   8.673   1.516   3.845 -0.1666 -0.0492 -0.1663
 5546W        W 9290   8.247   7.177   1.164  0.3128 -0.3241 -0.1013
 5547W        W 9291   9.919   9.369   0.637 -0.0698  0.3879 -0.2175
 5548W        W 9292   1.306   5.588   1.461  0.0923  0.0808  0.3897
 5549W        W 9293   7.363   5.978  11.605  0.1011 -0.0593 -0.1315
 5550W        W 9294   1.257   9.501   9.124  0.1378 -0.1210  0.1071
 5551W        W 9295   5.407   2.206   9.452  0.0692 -0.2822  0.0324
 5552W        W 9296   1.771   2.896  12.704 -0.0249 -0.0151  0.0540
 5553W        W 9297   1.367   5.221   0.652  0.1567  0.0717  0.1265
 5554W        W 9298   4.800   9.282  10.128  0.0189 -0.3172 -0.0157
 5555W        W 9299   0.271   5.726  12.063 -0.2489  0.0231 -0.0294
 5556W        W 9300   4.337   3.639   1.638 -0.0683  0.0013 -0.2452
 5557W        W 9301   8.523   1.273  11.342 -0.1834  0.0831  0.0999
 5558W        W 9302   2.343   4.304   9.343 -0.3866  0.0723 -0.1450
 5559W        W 9303   7.166   5.822   1.360 -0.1289  0.0930  0.2556
 5560W        W 9304   0.677   2.015  12.516 -0.2849  0.1568  0.2409
 5561W        W 9305   6.457   6.555  11.155  0.2387 -0.3328  0.3443
 5562W        W 9306   5.681   7.734   9.928  0.0486 -0.1927 -0.4647
 5563W        W 9307   8.373   5.837   2.759 -0.0472 -0.1816  0.0201
 5564W        W 9308   5.800   8.995  11.673  0.1346  0.3732  0.2547
 5565W        W 9309   3.103   9.809  11.966 -0.0275 -0.0613  0.2307
 5566W        W 9310   7.391   8.132   3.599 -0.0900 -0.0960  0.0803
 5567W        W 9311   1.949   0.433  12.123 -0.1604  0.5492  0.0568
 5568W        W 9312   4.450   7.023   0.461  0.0463  0.1194 -0.1402
 5569W        W 9313   2.977   9.809  10.562 -0.2143 -0.2878  0.1945
 5570W        W 9314   3.201   7.629   1.228 -0.0521 -0.0143  0.3766
 5571W        W 9315   7.232   2.705   2.794 -0.0659 -0.3922 -0.3458
 5572W        W 9316   2.981   6.536   8.860  0.0718 -0.2606 -0.2950
 5573W        W 9317   5.527   1.980   7.882 -0.0777 -0.0065 -0.0848
 5574W        W 9318   3.102   2.153  12.730 -0.0514  0.2663  0.0095
 5575W        W 9319   3.753   1.106   9.701 -0.1312 -0.0347  0.0769
 5576W        W 9320   0.210   6.711  12.206 -0.0286 -0.0761 -0.2902
 5577W        W 9321   1.920   5.429  12.375 -0.0062 -0.1815 -0.2508
 5578W        W 9322   6.524   6.463   1.001  0.1793  0.1642 -0.2738
 5579W        W 9323   6.355   3.349   1.622 -0.2130  0.0112 -0.0777
 5580W        W 9324   1.705   9.102   0.676 -0.0790  0.0541  0.1926
 5581W        W 9325   0.877   9.891  11.477 -0.2106 -0.3808  0.0077
 5582W        W 9326   5.211   2.592  12.097  0.1679  0.0265  0.0931
 5583W        W 9327   0.451   4.949  11.324 -0.1656  0.2408 -0.2642
 5584W        W 9328   1.293   8.717  10.817 -0.1812 -0.3693 -0.1022
 5585W        W 9329   9.859   2.343   2.503  0.2253  0.5679  0.0280
 5586W        W 9330   3.475   6.480   8.670  0.1321  0.1290 -0.3524
 5587W        W 9331   2.661   0.131  12.751  0.0683 -0.2518 -0.0549
 5588W        W 9332   0.031   8.599   3.356 -0.0652  0.0343 -0.0286
 5589W        W 9333   8.870   5.333  12.382  0.0322  0.0307 -0.0578
 5590W        W 9334   0.891   8.541   2.979  0.6736 -0.0668  0.1676
 5591W        W 9335   5.505   9.636  10.965 -0.2325  0.4515 -0.1989
 5592W        W 9336   8.794   9.870  12.478 -0.1492  0.0775  0.2232
 5593W        W 9337   9.373   9.262  12.259  0.0269 -0.2129  0.2937
 5594W        W 9338   6.827   2.386   2.778  0.0444  0.1344  0.1453
 5595W        W 9339   0.359   5.536   2.315  0.1210 -0.0735  0.1048
 5596W        W 9340   5.091   7.726  11.478 -0.0873  0.1468  0.3903
 5597W        W 9341   1.767   5.058   9.873 -0.0504  0.0329 -0.0739
 5598W        W 9342   1.819   7.098   2.980 -0.1467 -0.0973  0.2231
 5599W        W 9343   1.364   4.449  11.800 -0.0806  0.4001 -0.1664
 5600W        W 9344   7.945   2.626   9.307 -0.2470 -0.0543  0.2751
 5601W        W 9345   7.452   8.738   2.306 -0.0457 -0.1301  0.0005
 5602W        W 9346   4.455   0.132   3.363 -0.1392  0.0670  0.2464
 5603W        W 9347   6.124   7.763   1.063  0.0093 -0.0384  0.0383
 5604W        W 9348   2.258   2.924  12.715 -0.1068  0.1329  0.1302
 5605W        W 9349   7.219   9.510  12.106 -0.0350 -0.0717 -0.0164
 5606W        W 9350   4.582   9.819  11.475  0.2156  0.0124  0.1453
 5607W        W 9351   1.990   8.104   3.711 -0.2301  0.2104 -0.2375
 5608W        W 9352   7.683   2.224   9.242 -0.0648  0.0208 -0.0785
 5609W        W 9353   0.249   5.265   1.513 -0.0675  0.0021  0.4367
 5610W        W 9354   4.761   5.722   4.023 -0.0087 -0.1574  0.0693
 5611W        W 9355   2.050   6.171  11.792 -0.1138 -0.0814  0.2201
 5612W        W 9356   1.620   9.236   2.745  0.0184 -0.0247  0.1338
 5613W        W 9357   3.937   5.442   2.991  0.1528  0.0204 -0.2971
 5614W        W 9358   6.315   7.634  10.697 -0.0793  0.2291 -0.2457
 5615W        W 9359   2.879   3.877   9.276  0.2076 -0.1675 -0.0423
 5616W        W 9360   9.333   3.546   4.720 -0.1622 -0.2193  0.2145
 5617W        W 9361   9.810   8.730  10.874  0.2988 -0.2230  0.1479
 5618W        W 9362   7.824   6.733  11.135 -0.1221  0.0224  0.1644
 5619W        W 9363   2.399   7.702   2.399 -0.1750 -0.0874  0.1964
 5620W        W 9364   5.882   1.173  12.262 -0.2338 -0.0553  0.0365
 5621W        W 9365   7.634   4.571  11.722 -0.0277  0.0853  0.4037
 5622W        W 9366   4.906   7.566   3.665  0.3446  0.0833  0.3827
 5623W        W 9367   3.443   7.812  11.797  0.1577 -0.2546  0.1200
 5624W        W 9368   6.653   5.565   1.170 -0.0191  0.2409  0.1436
 5625W        W 9369   6.113   9.505   2.329 -0.3726 -0.0790  0.1817
 5626W        W 9370   1.726   6.628   2.924 -0.2204  0.4774 -0.0246
 5627W        W 9371   8.409   0.147   0.795 -0.2559  0.1370 -0.3151
 5628W        W 9372   6.079   4.514  12.024  0.2184 -0.1319  0.0448
 5629W        W 9373   5.626   6.851  11.560  0.0054  0.2233 -0.1844
 5630W        W 9374   7.224   0.711   2.073  0.1106 -0.0735 -0.3501
 5631W        W 9375   3.061   4.610   3.815 -0.1060 -0.0259 -0.0663
 5632W        W 9376   1.536   7.845   9.520 -0.1401  0.2930 -0.0797
 5633W        W 9377   4.091   2.886   2.867  0.0635  0.3815  0.0851
 5634W        W 9378   5.545   8.968   1.974  0.2429 -0.0772 -0.3680
 5635W        W 9379   5.361   8.194   4.402  0.3675 -0.2598 -0.2944
 5636W        W 9380   1.812   9.627   3.624 -0.0429 -0.0989 -0.0595
 5637W        W 9381   5.012   4.778   9.491 -0.0166 -0.2900  0.1131
 5638W        W 9382   1.922   2.176   0.232 -0.2858 -0.1021 -0.0374
 5639W        W 9383   5.982   4.785   3.243 -0.0946  0.2259 -0.1149
 5640W        W 9384   7.475   5.403   2.535  0.2252  0.0468 -0.2868
 5641W        W 9385   8.360   7.654  11.224  0.1448 -0.3925  0.2487
 5642W        W 9386   3.045   2.613   2.246  0.2034 -0.4123 -0.0680
 5643W        W 9387   8.003   1.396   0.398 -0.3256  0.1071  0.0155
 5644W        W 9388   0.654   7.470   2.670 -0.2816 -0.2147  0.1919
 5645W        W 9389   7.365   0.047   1.995  0.0044  0.0386  0.1903
 5646W        W 9390   0.953   2.243   9.536 -0.3132  0.0180 -0.0249
 5647W        W 9391   8.769   6.119   2.944  0.4117 -0.3969 -0.0867
 5648W        W 9392   9.853   9.119   9.729  0.2860  0.2342 -0.0194
 5649W        W 9393   3.412   2.627  10.662  0.1704 -0.0561 -0.2183
 5650W        W 9394   9.772   0.995   2.787 -0.0045 -0.1756  0.1701
 5651W        W 9395   7.580   7.358   4.022 -0.0998 -0.2584  0.1146
 5652W        W 9396   0.646   2.581   0.412  0.0624 -0.0498  0.0701
 5653W        W 9397   2.496   5.965   9.604  0.1141 -0.1551  0.1187
 5654W        W 9398   4.441   0.844   1.524 -0.1116 -0.0754 -0.2645
 5655W        W 9399   0.272   5.988  10.197  0.1020 -0.0963 -0.0233
 5656W        W 9400   4.729   8.035   0.362 -0.2711 -0.1128  0.1444
 5657W        W 9401   9.465   3.624   9.414 -0.3530  0.1880 -0.0360
 5658W        W 9402   3.337   5.044   0.125 -0.2191 -0.0522  0.0138
 5659W        W 9403   1.232   5.512   9.235  0.1708 -0.2848 -0.0909
 5660W        W 9404   9.808   2.930   0.383 -0.2061 -0.3666 -0.1666
 5661W        W 9405   5.050   0.008   0.533  0.3332  0.0160 -0.0968
 5662W        W 9406   2.174   1.951   4.852 -0.0805 -0.2620 -0.1901
 5663W        W 9407   5.014   8.354  12.321 -0.1044  0.1675  0.1568
 5664W        W 9408   1.238   2.245  12.593  0.0246 -0.0968  0.1714
 5665W        W 9409   2.981   1.516   3.052  0.0449 -0.0887 -0.2295
 5666W        W 9410   2.242   4.628  12.792 -0.0242 -0.2003 -0.0642
 5667W        W 9411   6.787   3.188   1.399 -0.0907  0.0650 -0.1820
 5668W        W 9412   2.850   4.375  12.351 -0.1783 -0.2563  0.1097
 5669W        W 9413   8.829   6.430  12.452 -0.1844  0.0715 -0.4946
 5670W        W 9414   5.139   6.918   4.432 -0.2140  0.5046  0.0427
 5671W        W 9415   9.373   4.283   0.333 -0.0854 -0.1347 -0.0387
 5672W        W 9416   5.184   7.800   4.099 -0.0010 -0.2465 -0.1774
 5673W        W 9417   4.431   4.848  11.005 -0.1674 -0.4545  0.0106
 5674W        W 9418   4.657   3.520   3.528 -0.0574  0.1369 -0.2910
 5675W        W 9419   1.517   7.498   3.148  0.2589  0.0111  0.1413
 5676W        W 9420   3.369   7.579  12.678 -0.1415 -0.0634  0.0119
 5677W        W 9421   8.010   3.720  10.674 -0.0670  0.0667 -0.0850
 5678W        W 9422   9.675   7.860   0.232  0.1500  0.1690 -0.0211
 5679W        W 9423   5.924   1.296   1.710  0.0662 -0.2175  0.0066
 5680W        W 9424   9.403   6.508   0.526  0.2325  0.2501  0.2329
 5681W        W 9425   9.829   0.739   9.611  0.0202  0.2121  0.2243
 5682W        W 9426   9.515   4.673   1.214  0.0663  0.0812 -0.3642
 5683W        W 9427   3.209   1.024   3.217  0.1202  0.0626 -0.0456
 5684W        W 9428   6.655   9.374   3.084  0.0178 -0.1649 -0.2982
 5685W        W 9429   4.011   1.961  10.935  0.0906  0.0094 -0.0894
 5686W        W 9430   7.845   0.193  11.908  0.3840 -0.0346  0.2707
 5687W        W 9431   3.749   4.273   4.878 -0.0205 -0.2216  0.0798
 5688W        W 9432   5.094   1.511  12.565 -0.0229 -0.0418  0.1873
 5689W        W 9433   5.847   8.233  10.039 -0.0016 -0.1234 -0.0432
 5690W        W 9434   6.751   7.476   4.097  0.0160 -0.0510  0.1159
 5691W        W 9435   6.236   7.996  12.439 -0.0539  0.3826 -0.0513
 5692W        W 9436   6.424   3.562   8.662 -0.1731  0.1651 -0.1448
 5693W        W 9437   6.085   1.103   9.234  0.1574 -0.0266 -0.0046
 5694W        W 9438   6.242   1.375  11.704  0.0737  0.1864 -0.0244
 5695W        W 9439   8.387   9.684   9.124  0.0500  0.0426 -0.0164
 5696W        W 9440   5.122   4.106  12.461 -0.0692 -0.0616  0.1322
 5697W        W 9441   8.582   8.168   0.976  0.0363  0.0067 -0.3286
 5698W        W 9442   2.309   0.125   0.249  0.1152  0.1874 -0.0795
 5699W        W 9443   6.511   7.977  10.999  0.1446 -0.0607 -0.0665
 5700W        W 9444   2.088   3.310  11.577  0.0276 -0.0073 -0.2082
 5701W        W 9445   0.520   0.554   1.539  0.1861  0.1108 -0.2613
 5702W        W 9446   9.810   9.251   1.429  0.2245 -0.0140  0.1559
 5703W        W 9447   0.835   4.602   2.207  0.4489 -0.2353  0.3251
 5704W        W 9448   4.041   8.971   3.980  0.1509  0.2322 -0.0991
 5705W        W 9449   4.474   3.645   2.677  0.3825  0.1051 -0.0414
 5706W        W 9450   8.295   4.482   2.540 -0.2396  0.0700  0.1234
 5707W        W 9451   8.918   4.175  10.827  0.2383 -0.2856  0.2330
 5708W        W 9452   1.104   5.394   3.883  0.0963  0.0214  0.1103
 5709W        W 9453   3.081   3.868   4.540  0.0222  0.0384 -0.1137
 5710W        W 9454   7.978   7.346   9.883  0.1264  0.0288  0.1102
 5711W        W 9455   0.888   5.263   0.495 -0.1569 -0.0507 -0.0264
 5712W        W 9456   5.497   1.320  10.889 -0.0676 -0.1530 -0.1025
 5713W        W 9457   3.000   9.295   1.525 -0.0702 -0.1998  0.5561
 5714W        W 9458   4.661   0.965   0.655 -0.0575  0.0545 -0.1247
 5715W        W 9459   0.811   6.738   1.039 -0.0783  0.3018 -0.0232
 5716W        W 9460   1.931   1.184   2.430 -0.0874  0.0605 -0.0835
 5717W        W 9461   4.653   3.277   1.584 -0.0991 -0.1302  0.0453
 5718W        W 9462   2.413   1.313   1.342  0.0036  0.1099 -0.0983
 5719W        W 9463   4.816   1.046   4.264  0.1773 -0.1596 -0.3163
 5720W        W 9464   5.038   3.197  10.395 -0.3601 -0.2588 -0.0519
 5721W        W 9465   1.366   4.756   0.359 -0.1336 -0.1590 -0.0852
 5722W        W 9466   1.175   2.130  11.821  0.1055  0.2091 -0.1240
 5723W        W 9467   8.307   6.457   9.894  0.3676  0.2116  0.1120
 5724W        W 9468   8.604   2.125   3.816 -0.0927  0.1444 -0.0301
 5725W        W 9469   3.106   7.820   4.328 -0.3056 -0.0787  0.2330
 5726W        W 9470   1.552   6.185   2.129 -0.1080  0.0864 -0.0128
 5727W        W 9471   2.438   1.789   8.755 -0.1850 -0.1963 -0.0297
 5728W        W 9472   1.578   3.443   1.071 -0.0086  0.1168 -0.3780
 5729W        W 9473   0.950   6.715   2.764  0.2971  0.0047  0.3508
 5730W        W 9474   6.287   9.024   5.179 -0.0634 -0.1068 -0.3606
 5731W        W 9475   6.843   1.412   4.052  0.0307 -0.0460  0.0625
 5732W        W 9476   6.436   3.678  11.817 -0.0799 -0.2933  0.2229
 5733W        W 9477   7.437   0.868   3.840 -0.1549 -0.0978 -0.1084
 5734W        W 9478   0.978   9.120  10.651  0.3832 -0.0751  0.0235
 5735W        W 9479   4.763   5.615   1.010 -0.0077  0.1228  0.0902
 5736W        W 9480   8.688   4.980   3.163  0.0889 -0.0926  0.0261
 5737W        W 9481   0.010   5.477   0.644 -0.1067 -0.1265 -0.0240
 5738W        W 9482   8.084   9.545  10.624 -0.2332  0.5173  0.0300
 5739W        W 9483   7.720   1.151  11.500  0.0644 -0.0178  0.2134
 5740W        W 9484   5.207   7.297   0.710 -0.0531  0.2108  0.0693
 5741W        W 9485   2.370   0.700  10.770  0.2764 -0.2802  0.0388
 5742W        W 9486   6.046   5.197  10.998  0.3360  0.0290 -0.1345
 5743W        W 9487   1.627   5.541   0.084  0.1238 -0.0471  0.2454
 5744W        W 9488   7.483   5.895  12.540  0.1604  0.1047 -0.2325
 5745W        W 9489   1.904   3.149   3.555 -0.1448 -0.3758 -0.0666
 5746W        W 9490   3.468   8.042  10.584  0.0579  0.1281  0.1375
 5747W        W 9491   9.060   9.217  10.822 -0.1133  0.0312  0.0517
 5748W        W 9492   7.767   5.931   0.236 -0.3994  0.0461  0.1275
 5749W        W 9493   1.726   3.236   9.404 -0.0267 -0.1780  0.1907
 5750W        W 9494   7.543   1.691   9.828 -0.0068 -0.3729 -0.1080
 5751W        W 9495   3.363   1.262  10.973  0.2901 -0.1510 -0.1542
 5752W        W 9496   0.477   3.723  12.156 -0.0634 -0.0184  0.0294
 5753W        W 9497   6.545   8.920   4.465 -0.0187 -0.2599  0.1645
 5754W        W 9498   8.641   1.182   9.345  0.0493 -0.0151  0.0012
 5755W        W 9499   2.019   9.406  11.958  0.0763  0.1260  0.0320
 5756W        W 9500   6.056   8.883  11.121 -0.3531 -0.2828  0.0622
 5757W        W 9501   8.003   9.086   2.656 -0.2924 -0.3492 -0.2757
 5758W        W 9502   4.896   4.906   3.665 -0.0706 -0.2377  0.0143
 5759W        W 9503   2.163   9.662  11.045 -0.3281 -0.2948  0.1196
 5760W        W 9504   6.267   1.088   1.389  0.1108  0.0671  0.0344
 5761W        W 9505   6.596   7.799  10.319 -0.1344 -0.1074  0.2906
 5762W        W 9506   1.105   2.117   4.937  0.0553  0.1947  0.3376
 5763W        W 9507   6.533   5.761  12.567 -0.3812 -0.0740 -0.0911
 5764W        W 9508   2.388   6.571  12.043 -0.0929 -0.1559  0.0541
 5765W        W 9509   2.063   1.507   4.143 -0.0493  0.0265 -0.1542
 5766W        W 9510   0.250   6.139  10.696  0.0956  0.2723 -0.1489
 5767W        W 9511   6.557   3.826   0.042 -0.0623  0.0923 -0.2961
 5768W        W 9512   5.783   7.084   3.091 -0.1544  0.0720 -0.2245
 5769W        W 9513   4.236   5.342   0.493  0.0554 -0.0329  0.0290
 5770W        W 9514   0.942   3.826   1.580 -0.3938 -0.3454  0.0754
 5771W        W 9515   5.106   4.052  11.954 -0.2760 -0.1030 -0.1990
 5772W        W 9516   0.592   7.550  11.889 -0.3492  0.0428 -0.0696
 5773W        W 9517   4.384   2.149   9.637  0.1039  0.1917  0.0661
 5774W        W 9518   4.957   6.278   2.160  0.0282  0.2051 -0.1612
 5775W        W 9519   7.532   8.697  10.303 -0.1878  0.2664  0.1652
 5776W        W 9520   5.614   4.737   2.631  0.0443 -0.1280  0.0540
 5777W        W 9521   7.386   3.849   9.305 -0.0312 -0.1825 -0.0282
 5778W        W 9522   0.253   4.868   3.533  0.0086  0.1031  0.2745
 5779W        W 9523   3.976   3.687   2.513 -0.1043  0.1898  0.1129
 5780W        W 9524   6.544   0.876   8.441 -0.1299 -0.1991 -0.1587
 5781W        W 9525   4.308   9.338  11.452 -0.1124 -0.0281 -0.0461
 5782W        W 9526   7.533   7.421  11.500 -0.1135 -0.1935 -0.0205
 5783W        W 9527   6.865   8.380   3.875  0.1167 -0.1337 -0.2837
 5784W        W 9528   2.821   9.230   2.012  0.1274  0.0402  0.2181
 5785W        W 9529   9.190   4.484  10.483 -0.1570 -0.0292  0.0410
 5786W        W 9530   9.820   9.770  10.628 -0.0255  0.4041  0.1698
 5787W        W 9531   8.166   4.353   1.800 -0.2440 -0.2607  0.0351
 5788W        W 9532   2.000   4.759   3.268  0.2840  0.0124  0.1461
 5789W        W 9533   6.778   4.273   0.001  0.1475 -0.1696 -0.1358
 5790W        W 9534   1.969   1.614   1.639 -0.0749 -0.1337  0.1111
 5791W        W 9535   2.372   0.518  11.554  0.0951 -0.0054  0.1461
 5792W        W 9536   9.157   4.681   3.072 -0.2054 -0.0008  0.0136
 5793W        W 9537   4.568   1.554  12.803  0.0071  0.0497  0.3138
 5794W        W 9538   5.500   2.367   1.352 -0.0965  0.0564  0.0558
 5795W        W 9539   5.293   6.195   5.345  0.2008 -0.0176 -0.3544
 5796W        W 9540   7.374   1.050   3.414 -0.0402 -0.4209  0.0869
 5797W        W 9541   5.485   3.031  11.973  0.1157  0.1538  0.0163
 5798W        W 9542   0.739   8.201   1.041  0.3217  0.0270  0.2406
 5799W        W 9543   1.965   6.148   1.746  0.0703 -0.0315  0.1265
 5800W        W 9544   0.333   8.480   0.748  0.3188  0.0687 -0.0113
 5801W        W 9545   4.588   9.758   3.802  0.0165  0.0025  0.2040
 5802W        W 9546   5.848   1.635   7.779 -0.0106  0.4753 -0.0526
 5803W        W 9547   1.227   2.308   0.990  0.3469  0.0875 -0.0651
 5804W        W 9548   2.036   3.687   2.564  0.0186  0.1208 -0.1285
 5805W        W 9549   2.440   3.573   0.753  0.1275  0.2933 -0.0383
 5806W        W 9550   4.877   9.875   2.681  0.0279 -0.5303  0.2732
 5807W        W 9551   9.252   3.712  12.319  0.1395  0.4492  0.0121
 5808W        W 9552   7.645   2.194  11.201  0.0682  0.1584 -0.1090
 5809W        W 9553   2.790   9.841   9.276  0.2411 -0.0955  0.1387
 5810W        W 9554   5.633   0.768   4.134  0.0041  0.0650  0.2952
 5811W        W 9555   3.488   0.914  12.084 -0.2000 -0.1355 -0.3623
 5812W        W 9556   8.873   0.520   2.345 -0.1486  0.1145 -0.0346
 5813W        W 9557   2.787   3.566   8.901  0.1995 -0.0515 -0.1898
 5814W        W 9558   4.675   4.646   2.682  0.0597  0.1309 -0.1767
 5815W        W 9559   6.170   1.977   4.067 -0.0514  0.0642  0.0382
 5816W        W 9560   2.238   5.561  11.920 -0.1634  0.2080 -0.2707
 5817W        W 9561   3.943   9.613  11.657  0.0794 -0.0845 -0.0411
 5818W        W 9562   6.489   0.920  10.970 -0.0139  0.1973  0.3115
 5819W        W 9563   7.981   9.799   8.583 -0.0181  0.0077 -0.2070
 5820W        W 9564   9.147   7.855  12.237 -0.1992 -0.0079 -0.1830
 5821W        W 9565   5.857   3.057   2.596 -0.3341 -0.0252  0.0486
 5822W        W 9566   3.163   2.524   2.736 -0.2609 -0.0452 -0.1184
 5823W        W 9567   4.558   4.667  11.972  0.1822  0.2057  0.0786
 5824W        W 9568   6.666   0.648   2.841 -0.3406 -0.3107 -0.0627
 5825W        W 9569   1.584   7.141  11.672  0.3025  0.2230 -0.1180
 5826W        W 9570   6.313   5.332   1.702  0.1882  0.0763 -0.1572
 5827W        W 9571   4.341   4.126  12.605  0.1440  0.0179  0.1034
 5828W        W 9572   7.373   8.114   0.263  0.1810 -0.0817  0.0928
 5829W        W 9573   2.673   8.658  10.621  0.0736  0.1483  0.0435
 5830W        W 9574   1.442   3.396  11.744 -0.1411 -0.5075  0.0824
 5831W        W 9575   2.729   4.478   1.283  0.1619  0.1183  0.1313
 5832W        W 9576   5.847   2.094  10.578 -0.3526 -0.2252  0.1535
 5833W        W 9577   1.386   2.253   1.500  0.1290 -0.1378 -0.1866
 5834W        W 9578   0.020   8.181   0.509 -0.0282 -0.1795  0.1165
 5835W        W 9579   8.326   4.404   9.799  0.5129  0.0901  0.1611
 5836W        W 9580   3.064   7.034   0.567  0.2162 -0.0662 -0.3420
 5837W        W 9581   5.920   1.828   2.865 -0.0701 -0.4415  0.0142
 5838W        W 9582   0.601   0.889   1.156 -0.2317 -0.0232  0.0287
 5839W        W 9583   6.262   9.423  11.147 -0.0513 -0.0749 -0.1237
 5840W        W 9584   2.104   5.572   9.536  0.2267 -0.1357 -0.3643
 5841W        W 9585   3.262   2.762   9.469 -0.0511 -0.0740  0.2016
 5842W        W 9586   1.746   6.605   1.067  0.1246 -0.2781  0.1090
 5843W        W 9587   8.963   3.972  10.376  0.0401 -0.3877  0.2440
 5844W        W 9588   1.387   0.988   0.437  0.1742 -0.1410  0.1677
 5845W        W 9589   7.615   3.759   0.328 -0.0569  0.2376 -0.0017
 5846W        W 9590   3.718   0.007   1.209 -0.0176  0.3753 -0.2303
 5847W        W 9591   5.131   5.227   3.257 -0.2243  0.1310  0.1929
 5848W        W 9592   7.432   2.403   9.902  0.0251 -0.0613  0.1077
 5849W        W 9593   1.655   4.832   0.797  0.1348 -0.0008  0.2045
 5850W        W 9594   2.444   1.280  11.767 -0.2717 -0.3777  0.1499
 5851W        W 9595   1.564   6.684   2.141 -0.1724 -0.2672 -0.0006
 5852W        W 9596   5.815   0.073  10.946  0.0076 -0.2107  0.0998
 5853W        W 9597   2.568   0.895   9.357  0.0790  0.1669  0.0369
 5854W        W 9598   1.708   9.609   1.317  0.0419  0.0561  0.0727
 5855W        W 9599   2.684   3.869  10.625 -0.0912 -0.2391  0.1982
 5856W        W 9600   0.442   1.634   3.503  0.1071  0.2098 -0.2244
 5857W        W 9601   9.843   3.563  10.407 -0.0486  0.3137  0.1413
 5858W        W 9602   2.504   7.380   0.246 -0.0528  0.0693 -0.3640
 5859W        W 9603   2.654   5.225  11.935 -0.0272 -0.0928 -0.0033
 5860W        W 9604   6.388   0.960  11.486 -0.3058  0.1759 -0.2368
 5861W        W 9605   2.940   4.556   9.497  0.1862  0.1739 -0.0323
 5862W        W 9606   6.069   7.101  11.380  0.1105 -0.0420  0.0006
 5863W        W 9607   0.789   6.825   9.615  0.1321  0.2464  0.0190
 5864W        W 9608   5.565   9.950   2.904 -0.1124 -0.0689  0.1545
 5865W        W 9609   1.830   8.740  10.909  0.1314  0.3646  0.2745
 5866W        W 9610   9.540   1.349   3.097  0.0716  0.0696  0.0021
 5867W        W 9611   0.258   3.344  12.363 -0.0950  0.1758  0.1657
 5868W        W 9612   3.670   5.328  10.898 -0.0264 -0.1219  0.0524
 5869W        W 9613   7.903   0.261   1.849  0.0429  0.2359  0.0833
 5870W        W 9614   6.793   2.755   3.384 -0.2262  0.0260 -0.0162
 5871W        W 9615   8.722   3.563  10.198  0.1064  0.2639  0.1932
 5872W        W 9616   8.424   2.209   3.370  0.2315  0.1553  0.0766
 5873W        W 9617   3.591   8.151   9.678 -0.1503 -0.1086 -0.0337
 5874W        W 9618   3.934   2.921   0.328 -0.1929 -0.0280  0.1085
 5875W        W 9619   9.048   1.339   9.604 -0.1149 -0.0687 -0.2761
 5876W        W 9620   0.345   9.225   1.081 -0.2306  0.4158  0.1547
 5877W        W 9621   0.609   2.836   3.586 -0.1842  0.0626 -0.3240
 5878W        W 9622   3.891   4.975  12.167  0.1441 -0.4455 -0.0911
 5879W        W 9623   7.023   9.036   3.261  0.2995 -0.0869  0.0506
 5880W        W 9624   8.861   1.449   8.942 -0.1803  0.1439  0.1894
 5881W        W 9625   8.874   9.733   0.111  0.2181 -0.0668 -0.2831
 5882W        W 9626   4.475   4.185   2.680 -0.0850 -0.4184  0.2623
 5883W        W 9627   8.090   8.817   9.948  0.2638  0.1342  0.2834
 5884W        W 9628   9.567   1.953   2.303  0.1045 -0.0509 -0.2610
 5885W        W 9629   0.574   4.393  11.209 -0.0604  0.1913  0.2833
 5886W        W 9630   0.623   5.060   3.967 -0.4729 -0.1279 -0.1787
 5887W        W 9631   4.776   4.990  10.069  0.1229 -0.2748 -0.1182
 5888W        W 9632   6.181   5.398   1.154  0.0896  0.2307 -0.1487
 5889W        W 9633   6.204   9.663   1.016 -0.3081  0.0340  0.1281
 5890W        W 9634   5.177   8.959  11.782 -0.1045 -0.2026  0.2081
 5891W        W 9635   9.099   5.817   3.169 -0.0560 -0.2642 -0.1067
 5892W        W 9636   7.616   9.198   2.355  0.0962 -0.2044  0.0344
 5893W        W 9637   5.182   9.335   2.000  0.1044  0.1250  0.1115
 5894W        W 9638   1.639   2.919  10.026 -0.2004 -0.1758  0.2189
 5895W        W 9639   7.152   9.240   0.581 -0.1188 -0.2044 -0.0386
 5896W        W 9640   5.391   0.232   1.464  0.0701 -0.1037  0.0360
 5897W        W 9641   8.851   5.241   9.780 -0.2048 -0.0792 -0.2666
 5898W        W 9642   9.888   4.519  12.608  0.0316 -0.0148 -0.2956
 5899W        W 9643   2.317   1.572  12.524  0.0935  0.0480  0.6128
 5900W        W 9644   5.782   9.283  11.261 -0.0079  0.2115 -0.2332
 5901W        W 9645   4.288   0.943  12.525 -0.2323  0.0815 -0.2685
 5902W        W 9646   9.093   2.629  10.307  0.5919 -0.1568  0.1085
 5903W        W 9647   3.550   2.917   4.059  0.1228  0.0089 -0.0397
 5904W        W 9648   6.504   2.232   9.864 -0.1598  0.0916 -0.1258
 5905W        W 9649   7.270   3.937   3.499  0.2435  0.0501  0.1169
 5906W        W 9650   9.600   1.677  11.703 -0.0011  0.0503 -0.2308
 5907W        W 9651   4.021   4.381   8.065 -0.1598  0.2577 -0.0067
 5908W        W 9652   6.478   2.240  10.702  0.3368 -0.0361 -0.0185
 5909W        W 9653   5.873   0.850   2.645  0.0558  0.1976 -0.2321
 5910W        W 9654   4.478   5.991   3.669  0.2256 -0.0827 -0.4316
 5911W        W 9655   7.144   9.210  11.706 -0.0274 -0.0443  0.0013
 5912W        W 9656   0.567   3.831  11.064 -0.2706 -0.3006 -0.1091
 5913W        W 9657   1.737   7.422   0.807  0.2864  0.1670 -0.4442
 5914W        W 9658   8.747   6.472   3.887  0.1570 -0.1489 -0.0353
 5915W        W 9659   6.844   1.116  12.198  0.0282 -0.1926 -0.1092
 5916W        W 9660   2.655   9.609   0.095 -0.1994 -0.1044  0.4037
 5917W        W 9661   0.627   9.218   0.650  0.0334  0.3369  0.0871
 5918W        W 9662   6.993   8.112   0.878  0.0472  0.1345 -0.2691
 5919W        W 9663   0.120   1.702   8.510 -0.1813 -0.0517 -0.1471
 5920W        W 9664   3.641   8.288  10.924  0.1325 -0.0150  0.0083
 5921W        W 9665   9.628   1.857   1.618  0.1681  0.2021 -0.2386
 5922W        W 9666   4.421   2.771   0.034  0.1797  0.0892  0.2772
 5923W        W 9667   7.927   1.759   8.853  0.0027 -0.2523 -0.1433
 5924W        W 9668   8.276   0.877   3.491 -0.0188 -0.1083  0.1655
 5925W        W 9669   3.758   1.359  11.238 -0.1670 -0.2021 -0.0002
 5926W        W 9670   0.456   4.258   0.557 -0.1697 -0.2458  0.0583
 5927W        W 9671   1.979   5.972  10.943  0.2770  0.1116 -0.0306
 5928W        W 9672   9.712   2.261   2.992  0.1902 -0.0175  0.0210
 5929W        W 9673   5.780   5.974   1.254 -0.4481  0.1441  0.1155
 5930W        W 9674   4.252   3.022   0.995 -0.1317  0.0202 -0.0436
 5931W        W 9675   2.477   9.131   9.113  0.1430 -0.0690 -0.2312
 5932W        W 9676   8.517   3.486   4.202 -0.0623  0.1580  0.0586
 5933W        W 9677   5.902   6.612  10.549  0.0513 -0.3502 -0.3511
 5934W        W 9678   3.469   1.585  12.724  0.0053 -0.0759 -0.1462
 5935W        W 9679   7.957   9.662   3.684 -0.1216 -0.0422 -0.1908
 5936W        W 9680   5.779   4.030  10.381  0.0375  0.1325 -0.0549
 5937W        W 9681   8.893   0.415   4.207  0.1671  0.0054  0.0411
 5938W        W 9682   6.924   8.733  11.158 -0.0791 -0.2645 -0.0799
 5939W        W 9683   6.996   0.181  11.435  0.1780 -0.1789 -0.0411
 5940W        W 9684   4.867   8.918   2.039 -0.0973  0.0514 -0.0340
 5941W        W 9685   6.244   2.352  12.112  0.1211 -0.0296 -0.0616
 5942W        W 9686   9.242   4.290   3.710  0.0404 -0.0335 -0.3584
 5943W        W 9687   6.004   7.851  11.018 -0.3138 -0.0644  0.1442
 5944W        W 9688   9.707   5.390  10.910  0.1048  0.3726 -0.1871
 5945W        W 9689   1.731   6.940  10.060 -0.1340  0.2786  0.1957
 5946W        W 9690   5.481   7.830   9.063  0.2031  0.3741 -0.1484
 5947W        W 9691   4.020   2.735   3.949  0.1514  0.1693  0.0609
 5948W        W 9692   5.905   4.799  12.684 -0.0412 -0.2775  0.0084
 5949W        W 9693   7.098   0.253   8.622 -0.1589 -0.0611  0.0495
 5950W        W 9694   0.271   7.099   9.627  0.2334  0.0363 -0.3645
 5951W        W 9695   3.392   6.971   8.438  0.2257 -0.1401  0.0368
 5952W        W 9696   8.439   6.413   3.441 -0.2623  0.0741  0.2620
 5953W        W 9697   7.300   8.704  12.473 -0.3540  0.2715 -0.0270
 5954W        W 9698   2.053   1.904  12.255 -0.2036 -0.0044  0.1909
 5955W        W 9699   7.284   3.477   4.557  0.0127  0.0246 -0.2873
 5956W        W 9700   7.699   2.436  11.710  0.0404 -0.1648 -0.0817
 5957W        W 9701   4.596   8.871   0.781 -0.0788 -0.1618 -0.2767
 5958W        W 9702   3.592   0.497   3.156  0.2407 -0.1495  0.0989
 5959W        W 9703   6.745   9.237  11.352 -0.2112 -0.2752  0.2334
 5960W        W 9704   4.303   2.084   0.059  0.0796  0.1363  0.3211
 5961W        W 9705   1.528   1.286   1.474  0.0647 -0.1629 -0.2161
 5962W        W 9706   5.056   3.313   3.317 -0.1002 -0.0073  0.0243
 5963W        W 9707   3.629   0.865   1.956  0.2263 -0.1509 -0.2196
 5964W        W 9708   5.536   8.950   3.945  0.1657 -0.2241 -0.0057
 5965W        W 9709   7.192   9.597  10.091  0.2649  0.0558  0.1409
 5966W        W 9710   3.888   0.007   2.630 -0.2520  0.1737 -0.3496
 5967W        W 9711   4.090   4.644  11.828  0.4082  0.0130  0.1579
 5968W        W 9712   0.275   3.871   8.738 -0.0518  0.0835  0.0286
 5969W        W 9713   2.374   3.600   7.998 -0.0932  0.0881  0.2339
 5970W        W 9714   9.716   7.372   0.154  0.1080  0.0491  0.1994
 5971W        W 9715   2.494   8.321   9.483  0.0938  0.2594 -0.3115
 5972W        W 9716   4.720   4.446  12.436 -0.5626  0.0340 -0.0952
 5973W        W 9717   5.070   1.115  11.082 -0.0226 -0.1740 -0.3414
 5974W        W 9718   3.018   1.720  10.663 -0.0442  0.2804  0.0005
 5975W        W 9719   5.288   2.399   1.801 -0.1023 -0.2534 -0.0343
 5976W        W 9720   6.708   6.641  10.029  0.3667  0.2442 -0.1452
 5977W        W 9721   0.949   3.530   4.153 -0.2074 -0.4930  0.0039
 5978W        W 9722   2.036   9.791   2.754 -0.0483  0.1452  0.0205
 5979W        W 9723   4.629   7.741   8.854  0.0022 -0.0162  0.1704
 5980W        W 9724   4.782   7.117   4.828  0.4100 -0.1750 -0.0678
 5981W        W 9725   7.128   1.874   3.810  0.0906  0.1608 -0.0798
 5982W        W 9726   4.953   1.795  10.371 -0.0506 -0.3731 -0.0916
 5983W        W 9727   7.183   9.939   3.681 -0.4754  0.1492 -0.2476
 5984W        W 9728   5.934   3.149  12.036  0.0445 -0.1103  0.1494
 5985W        W 9729   2.682   0.557  10.306  0.1352  0.2694  0.1950
 5986W        W 9730   4.122   6.825   0.803  0.2093  0.0146 -0.1739
 5987W        W 9731   5.816   0.387   1.243  0.0439  0.2318  0.0858
 5988W        W 9732   8.475   8.624   0.669 -0.1595  0.0190  0.0681
 5989W        W 9733   1.708   9.906  10.967  0.2995  0.1102 -0.1298
 5990W        W 9734   6.037   3.655   1.777 -0.1799 -0.1334 -0.1225
 5991W        W 9735   8.750   8.243   9.796  0.1353  0.1136  0.0194
 5992W        W 9736   6.891   8.025   3.305 -0.0828 -0.2394 -0.2147
 5993W        W 9737   6.319   3.325  10.410  0.4100 -0.4537  0.1358
 5994W        W 9738   6.788   9.323  10.221  0.1838 -0.3416  0.2812
 5995W        W 9739   7.976   3.316   1.039  0.1678  0.1375  0.1051
 5996W        W 9740   7.716   1.488   2.683  0.0961 -0.1904 -0.1138
 5997W        W 9741   7.066   0.308   4.235  0.2610 -0.3197  0.2545
 5998W        W 9742   1.077   0.397  10.095  0.3020 -0.2693  0.1019
 5999W        W 9743   2.252   0.335  12.465 -0.1589  0.2163  0.3918
 6000W        W 9744   0.736   8.764  12.003 -0.1281 -0.0216  0.3736
 6001W        W 9745   9.245   2.702  10.973 -0.1277 -0.1463 -0.0761
 6002W        W 9746   2.632   1.574  10.968  0.2330  0.1015 -0.0532
 6003W        W 9747   0.077   3.412   0.321 -0.3669 -0.0106 -0.0976
 6004W        W 9748   0.743   5.577   1.351  0.2618  0.1803 -0.1458
 6005W        W 9749   2.911   4.552   2.832  0.1899 -0.1862  0.0818
 6006W        W 9750   6.726   6.027   9.349  0.5185  0.0038  0.2491
 6007W        W 9751   4.772   0.877   2.854 -0.1804  0.1608 -0.0271
 6008W        W 9752   6.929   1.823   9.177  0.0150  0.1036  0.0930
 6009W        W 9753   5.817   8.538   2.091  0.0770  0.1583 -0.3977
 6010W        W 9754   9.893   1.480   0.645 -0.2941  0.1050  0.2093
 6011W        W 9755   7.746   3.133   9.596 -0.0559  0.0918  0.0245
 6012W        W 9756   0.538   9.549  10.117  0.1131 -0.3744 -0.0260
 6013W        W 9757   0.213   7.264  10.761  0.1180  0.0537  0.0132
 6014W        W 9758   7.937   9.187  11.083  0.2762  0.1233  0.2795
 6015W        W 9759   3.994   7.248   2.099  0.0554 -0.0894  0.0136
 6016W        W 9760   9.114   3.671   1.863 -0.1374  0.1503 -0.3850
 6017W        W 9761   7.079   7.066   3.984 -0.0723  0.1989  0.1859
 6018W        W 9762   3.357   1.384  12.154 -0.4904 -0.3242  0.1407
 6019W        W 9763   2.507   2.106   8.396  0.0017  0.2935 -0.1643
 6020W        W 9764   6.400   7.488   1.481  0.0163  0.0818  0.0992
 6021W        W 9765   0.371   3.640   2.915  0.1697  0.0243  0.1081
 6022W        W 9766   9.866   4.915   3.162  0.1268  0.0308 -0.1867
 6023W        W 9767   1.840   1.959   3.948 -0.2307  0.1104  0.0155
 6024W        W 9768   2.621   6.500   2.726  0.2493  0.2337  0.0135
 6025W        W 9769   7.091   2.905  11.792  0.1027  0.1364  0.3994
 6026W        W 9770   8.142   0.348  11.517 -0.2222  0.1165  0.1856
 6027W        W 9771   8.950   1.424  11.051 -0.2465 -0.4465  0.0151
 6028W        W 9772   0.401   1.152   3.488 -0.2187 -0.1302  0.0430
 6029W        W 9773   0.907   9.199   1.049  0.2511 -0.1104  0.1115
 6030W        W 9774   5.628   4.959   9.655  0.1904 -0.5195  0.0363
 6031W        W 9775   4.800   0.631   9.208  0.0066  0.1341 -0.2462
 6032W        W 9776   3.386   1.538  11.517  0.1267  0.0282 -0.2326
 6033W        W 9777   9.845   7.064  12.150  0.1026  0.1314 -0.0719
 6034W        W 9778   2.562   2.474   2.351  0.0940 -0.2567  0.2889
 6035W        W 9779   4.520   7.176   2.000 -0.2221 -0.0895  0.1075
 6036W        W 9780   8.360   4.992  10.811 -0.2386  0.0145  0.4142
 6037W        W 9781   8.613   7.634   9.985  0.1265  0.4561 -0.0339
 6038W        W 9782   9.686   8.479   2.146  0.0652  0.1514  0.0381
 6039W        W 9783   4.667   0.747   0.060 -0.0723 -0.1124  0.1608
 6040W        W 9784   2.451   1.077  12.379 -0.0003  0.3235 -0.1777
 6041W        W 9785   4.763   8.583  10.863 -0.1438  0.2190  0.3332
 6042W        W 9786   7.150   8.717   8.997  0.0139 -0.0135 -0.3641
 6043W        W 9787   5.751   6.750  12.111 -0.0354 -0.1385 -0.5665
 6044W        W 9788   3.251   0.929  11.541 -0.2239  0.0746  0.3877
 6045W        W 9789   0.823   9.604   3.299  0.1953  0.0475  0.1534
 6046W        W 9790   6.411   3.091   0.670  0.2590 -0.0593 -0.3010
 6047W        W 9791   3.850   3.589   9.724  0.0686  0.1749 -0.2423
 6048W        W 9792   5.774   7.619  10.624  0.2275 -0.2097  0.0263
 6049W        W 9793   2.199   0.855  11.878  0.2519 -0.4294  0.2344
 6050W        W 9794   2.356   4.526   3.516  0.1913  0.2269 -0.0899
 6051W        W 9795   5.053   9.846  10.235 -0.1650 -0.1699 -0.1490
 6052W        W 9796   9.521   7.045  12.534  0.1170 -0.0997  0.0727
 6053W        W 9797   9.636   7.139   3.006  0.3541  0.1154 -0.1266
 6054W        W 9798   5.463   3.795   9.888 -0.0860 -0.2307  0.1792
 6055W        W 9799   1.655   3.976  10.011 -0.0670  0.1306  0.0930
 6056W        W 9800   4.823   9.084   0.206  0.0802 -0.0125 -0.1313
 6057W        W 9801   1.554   3.943   0.868 -0.0715  0.1552 -0.0854
 6058W        W 9802   0.170   7.348   2.668  0.0396  0.0058  0.1618
 6059W        W 9803   7.404   7.957  11.339 -0.2437  0.0263  0.1163
 6060W        W 9804   0.887   5.423  10.120 -0.2822 -0.1263 -0.2784
 6061W        W 9805   4.580   6.318   3.037  0.1476  0.1900 -0.0842
 6062W        W 9806   3.492   2.467  12.359  0.3857  0.0142 -0.2148
 6063W        W 9807   4.869   0.207  12.042  0.0155 -0.2281 -0.2423
 6064W        W 9808   7.716   4.174   4.307 -0.1799 -0.2752  0.0098
 6065W        W 9809   5.744   8.478   3.115 -0.1179 -0.2436 -0.3366
 6066W        W 9810   4.487   0.593  12.191 -0.1222 -0.1060  0.0345
 6067W        W 9811   6.119   3.997   1.397  0.0033 -0.1319 -0.4352
 6068W        W 9812   9.123   0.411   3.250 -0.0324 -0.0720 -0.3944
 6069W        W 9813   8.868   2.579   9.843  0.2210 -0.0010 -0.0715
 6070W        W 9814   0.469   5.823   9.420 -0.0414 -0.0617 -0.1424
 6071W        W 9815   3.325   3.196   9.731 -0.2589  0.0333  0.2720
 6072W        W 9816   7.307   9.456   1.973  0.2318  0.0275 -0.2021
 6073W        W 9817   0.985   4.541  12.184 -0.0485 -0.1570 -0.0142
 6074W        W 9818   8.719   9.662   2.782  0.0726  0.0039 -0.0109
 6075W        W 9819   3.306   6.439   2.103 -0.0392  0.0978  0.3131
 6076W        W 9820   5.526   0.659  12.516  0.0082  0.1430  0.2432
 6077W        W 9821   3.291   7.042  10.653  0.0980  0.3869 -0.2493
 6078W        W 9822   8.915   0.031   0.608  0.0736  0.0010 -0.1436
 6079W        W 9823   6.225   7.647   0.443  0.0956  0.0457  0.1198
 6080W        W 9824   2.366   4.731   4.315  0.0862 -0.0851  0.0303
 6081W        W 9825   2.581   4.034   8.145  0.1054 -0.1027  0.2010
 6082W        W 9826   8.234   8.125   0.664  0.0270 -0.1528  0.1101
 6083W        W 9827   6.325   2.560   2.888 -0.0079 -0.2115  0.0134
 6084W        W 9828   4.601   6.336   4.132 -0.0843 -0.0194 -0.1841
 6085W        W 9829   8.825   3.644   0.760 -0.0019 -0.0515 -0.0821
 6086W        W 9830   4.089   5.212   2.012  0.3353 -0.0167  0.2124
 6087W        W 9831   8.401   7.238   2.627  0.3071 -0.3279  0.2403
 6088W        W 9832   3.259   4.926   2.630  0.2362 -0.4871  0.1313
 6089W        W 9833   9.754   1.978  12.407  0.0067  0.0886  0.1218
 6090W        W 9834   0.429   6.114  12.628  0.0851 -0.0030  0.1700
 6091W        W 9835   3.401   5.917   2.265  0.2556  0.0188  0.2244
 6092W        W 9836   4.186   9.781  11.178  0.2652  0.0435  0.0871
 6093W        W 9837   2.778   7.887   9.543  0.1089 -0.2571  0.2241
 6094W        W 9838   4.934   4.949  10.917  0.1035 -0.0707  0.2099
 6095W        W 9839   0.391   0.102  11.548 -0.0459  0.1253  0.0531
 6096W        W 9840   0.175   9.951  10.271  0.1322 -0.1942  0.1273
 6097W        W 9841   0.219   2.423  11.617  0.0580 -0.0188 -0.0009
 6098W        W 9842   2.197   0.183  10.943 -0.0985 -0.0510  0.0233
 6099W        W 9843   1.011   8.161   1.480 -0.0088  0.2762  0.1734
 6100W        W 9844   2.868   2.924   3.136  0.2957 -0.4571  0.1368
 6101W        W 9845   8.066   6.870  10.145 -0.1855 -0.1519  0.0167
 6102W        W 9846   3.841   0.722   8.263 -0.2354 -0.0183  0.1207
 6103W        W 9847   7.647   5.574   4.408 -0.0631  0.1920  0.0813
 6104W        W 9848   0.054   8.149  11.655 -0.1224  0.2582  0.1579
 6105W        W 9849   4.320   5.865  10.077 -0.0733  0.1846  0.1390
 6106W        W 9850   1.503   8.385   2.783  0.1693  0.4014  0.0726
 6107W        W 9851   7.126   6.100   3.010 -0.1694  0.2931 -0.2887
 6108W        W 9852   6.078   4.316   4.918  0.0155 -0.0574  0.1878
 6109W        W 9853   6.767   6.598   4.014  0.0212 -0.0486  0.1114
 6110W        W 9854   9.723   4.666   2.386  0.0871 -0.0414  0.4263
 6111W        W 9855   1.673   5.563   2.922  0.0883 -0.1397 -0.1593
 6112W        W 9856   6.840   0.372   3.336  0.1215  0.2460 -0.1461
 6113W        W 9857   6.474   5.424   2.519 -0.1856 -0.0647  0.4290
 6114W        W 9858   9.431   2.903   2.332  0.0956  0.0639 -0.1402
 6115W        W 9859   0.789   1.137   8.150  0.1557 -0.0372 -0.0784
 6116W        W 9860   0.548   8.617   9.901  0.0395 -0.1947 -0.0642
 6117W        W 9861   5.868   7.722   2.356  0.1410 -0.0174 -0.0494
 6118W        W 9862   2.516   4.941   1.126  0.0456  0.0980 -0.0384
 6119W        W 9863   3.191   8.733  12.662 -0.0460  0.2631 -0.1384
 6120W        W 9864   6.004   4.656  11.149 -0.1751  0.1038  0.0346
 6121W        W 9865   6.201   3.481   9.119 -0.2051 -0.4413  0.0894
 6122W        W 9866   9.303   6.782  10.752  0.1419  0.1006  0.0184
 6123W        W 9867   4.484   9.907   8.135 -0.0064 -0.0952  0.0512
 6124W        W 9868   6.350   8.500   2.208 -0.2173 -0.0623  0.3193
 6125W        W 9869   2.496   5.986   3.463 -0.2237  0.0319  0.2966
 6126W        W 9870   3.263   4.204   9.208  0.0142 -0.0220 -0.0567
 6127W        W 9871   4.420   2.133   8.515  0.0985  0.0363  0.1215
 6128W        W 9872   9.396   2.180  10.109 -0.0517 -0.1209 -0.0489
 6129W        W 9873   3.157   1.930   4.652  0.0771 -0.1221 -0.1877
 6130W        W 9874   0.448   6.470   2.854 -0.1956 -0.1554 -0.1543
 6131W        W 9875   2.138   9.279   9.459 -0.1607  0.1430 -0.3094
 6132W        W 9876   7.741   6.196  11.218 -0.1109 -0.0026  0.1190
 6133W        W 9877   1.715   0.067   2.442  0.0183  0.2390  0.2904
 6134W        W 9878   8.510   1.935   1.144 -0.4565 -0.1004  0.0346
 6135W        W 9879   6.207   7.966   3.193 -0.1443  0.0889 -0.3032
 6136W        W 9880   2.350   8.048   0.098  0.3974 -0.0963  0.0361
 6137W        W 9881   6.804   6.720  10.595 -0.3099 -0.0935 -0.1245
 6138W        W 9882   3.383   5.183   3.031 -0.1459 -0.3116 -0.3275
 6139W        W 9883   5.130   0.741   8.367 -0.0943 -0.2448 -0.0479
 6140W        W 9884   5.184   5.359  12.435 -0.0810 -0.2815  0.4526
 6141W        W 9885   9.937   3.120   8.946 -0.0090 -0.1946 -0.1066
 6142W        W 9886   2.567   4.323   9.844  0.1376 -0.0364 -0.0246
 6143W        W 9887   4.608   3.513   9.617  0.1010  0.1651  0.0044
 6144W        W 9888   4.919   5.676   1.639  0.1977 -0.0158  0.1231
 6145W        W 9889   7.809   4.202   9.498 -0.0580 -0.2947 -0.0092
 6146W        W 9890   3.486   3.905   2.342 -0.1632 -0.0765 -0.1451
 6147W        W 9891   6.541   5.834   5.153 -0.0516  0.1404 -0.1334
 6148W        W 9892   3.270   4.317   1.353 -0.0061 -0.2131 -0.0714
 6149W        W 9893   2.648   8.866  12.611  0.0797 -0.1677  0.0059
 6150W        W 9894   3.196   7.947  10.963  0.1162 -0.0011 -0.1200
 6151W        W 9895   9.008   6.073  12.768 -0.7067 -0.1525  0.1732
 6152W        W 9896   1.698   2.410   9.684  0.0230  0.1625  0.0071
 6153W        W 9897   2.007   5.522  11.158  0.3346 -0.0953  0.0171
 6154W        W 9898   3.201   1.683  10.093 -0.0429 -0.0999 -0.0349
 6155W        W 9899   0.225   0.168   0.426  0.2902  0.0792 -0.0605
 6156W        W 9900   6.538   9.841   2.236  0.0834  0.0814  0.3742
 6157W        W 9901   4.666   5.313  12.570  0.0336 -0.2022  0.1498
 6158W        W 9902   6.460   3.940   2.516 -0.2030 -0.1101 -0.0473
 6159W        W 9903   9.234   3.974  11.788  0.3357 -0.1349  0.2029
 6160W        W 9904   1.967   7.483   1.720 -0.1570 -0.2770 -0.2756
 6161W        W 9905   1.149   3.587   2.531  0.0994  0.0558  0.0287
 6162W        W 9906   3.240   8.948  10.739 -0.0531  0.2882 -0.1469
 6163W        W 9907   3.140   4.155   8.724  0.0808  0.0140 -0.1774
 6164W        W 9908   2.443   0.254   9.353  0.2076  0.2079  0.0870
 6165W        W 9909   5.501   9.487   3.696 -0.2025 -0.2473  0.0726
 6166W        W 9910   2.441   4.044  12.754  0.0071 -0.2577  0.0989
 6167W        W 9911   2.059   7.192  11.356 -0.1799  0.2433  0.0962
 6168W        W 9912   5.569   0.962  11.195  0.3966  0.0467  0.1460
 6169W        W 9913   2.528   7.808   0.531 -0.1332 -0.1436 -0.0437
 6170W        W 9914   7.182   6.478  12.605  0.2919  0.1633 -0.1987
 6171W        W 9915   6.993   9.791  12.544 -0.0940 -0.1944  0.0792
 6172W        W 9916   6.911   3.484  12.103  0.0120  0.2004  0.3335
 6173W        W 9917   7.938   3.721   9.160 -0.0206  0.3161  0.1885
 6174W        W 9918   9.361   1.374  10.647 -0.4718  0.0043 -0.0283
 6175W        W 9919   8.142   1.448   8.553  0.2232  0.0797 -0.2393
 6176W        W 9920   9.723   6.862   3.874 -0.0310  0.0920  0.1535
 6177W        W 9921   5.661   1.883   0.454  0.0920 -0.1468 -0.1918
 6178W        W 9922   8.242   1.951   8.495  0.2364 -0.0385  0.0868
 6179W        W 9923   2.374   0.818   3.756 -0.0099 -0.2125 -0.1039
 6180W        W 9924   9.944   3.915   3.978 -0.3835  0.1333 -0.0733
 6181W        W 9925   8.423   0.916   8.932 -0.3850 -0.0391  0.2374
 6182W        W 9926   2.520   8.050  10.335  0.0201  0.2006  0.1225
 6183W        W 9927   4.749   5.923  10.608  0.0242  0.2027 -0.0542
 6184W        W 9928   9.066   2.925  11.911 -0.0239 -0.1132 -0.0885
 6185W        W 9929   5.476   6.837   3.945  0.2938  0.0990 -0.0623
 6186W        W 9930   8.548   8.755   9.732 -0.1174 -0.1456  0.1610
 6187W        W 9931   6.648   4.035   9.982  0.0323  0.2672  0.4082
 6188W        W 9932   6.707   9.152   4.893  0.1815 -0.0207 -0.1385
 6189W        W 9933   8.259   5.879   9.541 -0.1585  0.0782 -0.0051
 6190W        W 9934   1.453   0.064  10.213  0.2489 -0.0614 -0.1567
 6191W        W 9935   1.657   6.208   3.281  0.0222 -0.0587  0.0006
 6192W        W 9936   0.213   4.102   8.264 -0.1998  0.0140 -0.1133
 6193W        W 9937   9.083   8.534   0.049 -0.2547 -0.0911  0.2603
 6194W        W 9938   6.251   2.126   0.432  0.2208  0.0883  0.1927
 6195W        W 9939   5.184   8.162   9.376  0.1090 -0.0057 -0.3326
 6196W        W 9940   5.544   2.062  12.020 -0.0954 -0.2219  0.0140
 6197W        W 9941   4.946   9.604  11.947  0.0050 -0.0471 -0.0173
 6198W        W 9942   1.093   2.203   8.561  0.2389  0.0535 -0.5004
 6199W        W 9943   6.545   6.147   3.774  0.0367  0.0420  0.1268
 6200W        W 9944   9.042   4.577  11.905  0.3317  0.2630 -0.1437
 6201W        W 9945   1.022   0.493   1.229 -0.3927  0.1667  0.1811
 6202W        W 9946   5.006   0.257   1.119  0.0912 -0.1885  0.0148
 6203W        W 9947   9.581   7.355   3.929  0.1869  0.4092 -0.3604
 6204W        W 9948   7.133   2.497   2.086 -0.2483  0.1946  0.0735
 6205W        W 9949   8.606   6.713  10.292  0.0836 -0.0100  0.1609
 6206W        W 9950   1.314   3.331  11.245  0.1094 -0.0558 -0.1568
 6207W        W 9951   7.148   0.466   3.717  0.1281 -0.3582  0.0895
 6208W        W 9952   5.009   7.833   3.246  0.0296  0.0381  0.4343
 6209W        W 9953   1.227   0.242  12.637  0.1718  0.3005 -0.3941
 6210W        W 9954   9.071   4.318  11.472 -0.1036 -0.4588  0.4915
 6211W        W 9955   2.052   8.816   0.903  0.0586 -0.1063 -0.0279
 6212W        W 9956   5.251   0.022   9.013  0.1739 -0.1261  0.1433
 6213W        W 9957   3.025   4.470   9.984 -0.2943  0.1315  0.0975
 6214W        W 9958   0.603   2.507   8.583 -0.0124  0.0705 -0.0347
 6215W        W 9959   6.244   9.607  12.606 -0.0989  0.0832  0.2204
 6216W        W 9960   4.790   4.495  11.130 -0.1701  0.1985 -0.0153
 6217W        W 9961   2.981   9.406   2.978  0.2176 -0.1043  0.0106
 6218W        W 9962   8.304   1.705   4.179  0.1811  0.0014 -0.0134
 6219W        W 9963   4.825   7.800   8.227 -0.3349 -0.2402 -0.2102
 6220W        W 9964   4.914   0.536  11.606  0.0082 -0.1540  0.2508
 6221W        W 9965   9.001   9.845  11.654  0.2686 -0.1194  0.1703
 6222W        W 9966   5.123   5.863   9.521  0.1186 -0.0894 -0.1317
 6223W        W 9967   1.549   2.628  10.754  0.0521  0.1166  0.0238
 6224W        W 9968   4.123   7.678   1.286  0.3516  0.1817 -0.2535
 6225W        W 9969   3.561   1.269   2.911 -0.0939  0.1069 -0.0693
 6226W        W 9970   3.084   1.383   0.190  0.1158  0.1487 -0.1495
 6227W        W 9971   9.791   2.225   1.895  0.2418 -0.2282 -0.1623
 6228W        W 9972   5.610   0.813   0.408  0.2321  0.2735 -0.3581
 6229W        W 9973   7.202   3.729   2.747  0.1636  0.2799 -0.0068
 6230W        W 9974   7.062   0.784   8.561  0.0627  0.1482 -0.2955
 6231W        W 9975   7.436   5.839   3.387  0.0128 -0.0233  0.1139
 6232W        W 9976   5.525   0.055   0.430  0.0051 -0.2348 -0.2058
 6233W        W 9977   2.917   6.019   2.538 -0.1002  0.1993 -0.0989
 6234W        W 9978   1.885   4.027   1.614  0.0487  0.1153  0.0550
 6235W        W 9979   3.578   2.514  11.832  0.1085 -0.0631 -0.2902
 6236W        W 9980   0.845   3.479  10.324 -0.0169  0.2816  0.3578
 6237W        W 9981   7.560   0.945   9.366  0.0926  0.0351  0.2185
 6238W        W 9982   4.698   7.225   0.072 -0.2174 -0.1113 -0.1126
 6239W        W 9983   4.276   7.477  11.480 -0.1607 -0.1541  0.0307
 6240W        W 9984   1.205   4.152  10.181 -0.0936  0.1208 -0.1134
 6241W        W 9985   3.862   0.342   8.854  0.0226 -0.0344 -0.0789
 6242W        W 9986   1.907   0.810  10.521  0.0964  0.0930 -0.0128
 6243W        W 9987   3.759   3.041   3.206  0.2792  0.3563 -0.2627
 6244W        W 9988   2.669   1.665   0.076 -0.1850 -0.0051  0.0409
 6245W        W 9989   3.148   4.399  11.890 -0.2339 -0.3377  0.0293
 6246W        W 9990   8.555   8.394  10.655  0.2032 -0.1384 -0.4951
 6247W        W 9991   5.278   4.782   0.652 -0.0253  0.1308 -0.2267
 6248W        W 9992   0.170   6.906  10.440  0.0829 -0.1171 -0.0857
 6249W        W 9993   8.677   6.414   0.194  0.1053 -0.0263 -0.1407
 6250W        W 9994   5.510   6.361  11.687 -0.4220  0.1268  0.0021
 6251W        W 9995   3.720   7.740  11.022  0.0852 -0.1051  0.0363
 6252W        W 9996   6.974   4.602   2.679  0.0726 -0.1026  0.0245
 6253W        W 9997   2.159   1.573   9.511 -0.0186  0.2900 -0.1953
 6254W        W 9998   0.494   4.151   2.931  0.1444 -0.1806 -0.0975
 6255W        W 9999   5.428   5.541   0.061  0.0008  0.1814  0.2443
 6256W        W10000   8.573   7.729  10.519  0.1528  0.2759  0.0119
 6257W        W10001   2.310   4.429   8.861 -0.0195  0.1102  0.2430
 6258W        W10002   1.476   4.517   1.166 -0.0092 -0.0037  0.1163
 6259W        W10003   1.148   1.219   8.486 -0.1026 -0.1389 -0.0221
 6260W        W10004   5.539   1.605  12.336  0.1419  0.0175  0.0882
 6261W        W10005   2.947   7.602  11.968 -0.0027  0.3054 -0.0163
 6262W        W10006   6.591   0.923   9.428 -0.2332  0.1077  0.1707
 6263W        W10007   7.578   8.993   3.327 -0.1256  0.4507 -0.1192
 6264W        W10008   5.669   5.378   9.935 -0.1427  0.0473  0.1388
 6265W        W10009   3.611   5.365   2.618 -0.1353  0.1741  0.0180
 6266W        W10010   6.483   8.318   4.804  0.0397  0.3351 -0.0185
 6267W        W10011   2.892   4.982   1.974  0.0529 -0.2671  0.1806
 6268W        W10012   7.948   2.495   0.311  0.2451  0.0720 -0.2673
 6269W        W10013   2.593   8.228   0.873  0.0206 -0.1455 -0.2200
 6270W        W10014   6.088   6.675   1.163 -0.0437  0.0245 -0.0416
 6271W        W10015   1.194   6.944  11.248  0.0679 -0.0175  0.0561
 6272W        W10016   4.438   0.370  11.314  0.1361 -0.0205 -0.1793
 6273W        W10017   8.087   1.556  11.444 -0.0307 -0.0850 -0.2335
 6274W        W10018   9.360   2.424   2.357 -0.4181 -0.0406  0.4468
 6275W        W10019   1.005   9.542   0.694 -0.4060 -0.3058 -0.1868
 6276W        W10020   0.870   5.368  12.592 -0.0140 -0.1829 -0.3638
 6277W        W10021   4.916   1.230   0.140  0.1595  0.1576 -0.1086
 6278W        W10022   6.231   6.043   9.433  0.1291  0.0686  0.2431
 6279W        W10023   9.594   1.368  12.095 -0.1412  0.0535  0.1356
 6280W        W10024   1.449   1.730   1.764  0.1413  0.2933  0.0752
 6281W        W10025   6.256   3.902   9.482 -0.0217 -0.2172  0.0018
 6282W        W10026   9.199   1.661   1.876 -0.1633 -0.0798 -0.0955
 6283W        W10027   0.857   3.617   9.431  0.0095 -0.1769 -0.0135
 6284W        W10028   7.199   3.440   3.622 -0.3717 -0.0272  0.1347
 6285W        W10029   2.415   8.559  10.095 -0.1650  0.3045 -0.2058
 6286W        W10030   0.744   8.726  10.705  0.0004 -0.0503 -0.1929
 6287W        W10031   3.391   9.916   4.193 -0.1597  0.0901  0.0771
 6288W        W10032   8.594   4.035   8.444 -0.0557 -0.0249  0.0502
 6289W        W10033   1.838   0.494  12.667  0.0389 -0.0054 -0.2311
 6290W        W10034   9.608   1.869   3.271 -0.0772 -0.2113  0.0732
 6291W        W10035   1.772   4.181  12.264  0.3105 -0.2073  0.0464
 6292W        W10036   5.361   4.043   1.089 -0.2192 -0.0353 -0.1471
 6293W        W10037   1.811   1.179   4.462  0.2017 -0.0360  0.1142
 6294W        W10038   7.207   6.810  11.905 -0.1527 -0.5548  0.1468
 6295W        W10039   2.511   5.298   9.141 -0.0660  0.1441  0.1098
 6296W        W10040   5.936   7.400   2.743  0.0942  0.0775  0.4353
 6297W        W10041   1.935   8.073   1.468 -0.0416 -0.1202 -0.1619
 6298W        W10042   9.911   4.294   8.689  0.0754 -0.1002  0.0462
 6299W        W10043   3.596   3.439  12.731  0.0120  0.2675  0.0818
 6300W        W10044   3.809   6.399   0.126 -0.2345 -0.0016 -0.0449
 6301W        W10045   1.853   3.588   3.857 -0.2392 -0.3253  0.1429
 6302W        W10046   2.368   2.858   0.990  0.2446 -0.1862  0.0631
 6303W        W10047   4.626   3.298   3.039 -0.4036 -0.0555  0.1435
 6304W        W10048   4.313   0.752  11.667 -0.2620 -0.0830  0.1031
 6305W        W10049   0.389   7.244  12.297 -0.0714 -0.0352 -0.2928
 6306W        W10050   0.480   8.713   2.712  0.0922  0.0894 -0.0746
 6307W        W10051   2.922   7.476   0.705 -0.0185 -0.0706 -0.1743
 6308W        W10052   7.610   1.851  12.243 -0.1515  0.0078 -0.0661
 6309W        W10053   4.996   8.748  10.093 -0.1064  0.1751  0.1305
 6310W        W10054   5.803   2.616  12.054  0.2547 -0.0664 -0.1746
 6311W        W10055   0.800   1.263  11.883 -0.5261  0.0021 -0.1673
 6312W        W10056   9.508   5.329  10.479  0.1519  0.2254  0.3803
 6313W        W10057   9.878   0.903   2.311  0.1640  0.1491  0.0692
 6314W        W10058   9.488   7.777  10.257 -0.0153  0.3447 -0.1278
 6315W        W10059   5.708   1.868  11.070 -0.3800  0.0280  0.1151
 6316W        W10060   4.581   5.958  11.939 -0.0125  0.0240 -0.0487
 6317W        W10061   6.102   0.396   9.964 -0.2667 -0.2706 -0.1688
 6318W        W10062   4.181   7.835  11.988 -0.0294  0.1522 -0.0282
 6319W        W10063   5.809   9.476   8.095  0.1536  0.0878 -0.0161
 6320W        W10064   2.965   7.072  11.330 -0.0904  0.2100 -0.0308
 6321W        W10065   1.971   8.246   2.863 -0.0825 -0.1889  0.0887
 6322W        W10066   0.457   1.387   8.963 -0.0110 -0.1861 -0.2991
 6323W        W10067   9.273   5.265  11.193  0.2384 -0.3260  0.1894
 6324W        W10068   0.471   4.810   9.759  0.1618 -0.0051 -0.0977
 6325W        W10069   7.777   7.717  10.650 -0.1095  0.1242  0.4865
 6326W        W10070   0.382   5.282   9.840  0.0546 -0.4044 -0.0712
 6327W        W10071   6.259   0.063  11.146 -0.1580  0.1981  0.0120
 6328W        W10072   1.928   0.638   3.949  0.0841  0.0218  0.0250
 6329W        W10073   3.340   4.800   9.371  0.0113  0.0750 -0.1597
 6330W        W10074   9.675   5.680   0.991  0.2452  0.0224  0.1457
 6331W        W10075   0.070   6.806   3.060 -0.2718  0.0873  0.1340
 6332W        W10076   7.798   7.263  11.022  0.0531  0.0231 -0.0252
 6333W        W10077   4.375   3.607  11.051  0.2986  0.3036 -0.1331
 6334W        W10078   3.612   7.880   1.407 -0.0370 -0.2465 -0.3545
 6335W        W10079   7.566   1.702   3.570 -0.0637  0.0039  0.0956
 6336W        W10080   0.150   2.994   1.258 -0.1739 -0.0049 -0.0759
 6337W        W10081   3.426   5.313   0.677 -0.2257 -0.1419  0.1276
 6338W        W10082   0.719   0.978   1.622 -0.5753  0.1426  0.0278
 6339W        W10083   6.307   4.432   1.596 -0.0467 -0.2347 -0.0951
 6340W        W10084   9.515   6.190   0.020  0.1186 -0.1636  0.2040
 6341W        W10085   2.733   9.681  11.645 -0.1213  0.1849  0.1446
 6342W        W10086   1.279   3.441   1.472  0.1863 -0.0547 -0.1373
 6343W        W10087   2.294   7.279   2.623  0.0355  0.0917  0.0125
 6344W        W10088   4.788   3.689   4.063 -0.1651 -0.0911 -0.0874
 6345W        W10089   2.127   4.589  10.522  0.1399 -0.1679  0.1177
 6346W        W10090   1.982   6.115   9.730  0.4727 -0.1592 -0.0252
 6347W        W10091   4.983   6.035   1.278  0.0154  0.2817  0.0613
 6348W        W10092   6.210   7.337   9.641  0.0495 -0.3510  0.1541
 6349W        W10093   0.872   0.655   3.123 -0.0476  0.0252  0.2703
 6350W        W10094   9.686   8.234  11.134  0.1313 -0.2554  0.0335
 6351W        W10095   6.074   2.981   1.997  0.0321 -0.0017  0.0398
 6352W        W10096   1.386   5.872  12.499  0.2420 -0.0390 -0.0984
 6353W        W10097   9.799   9.869   0.534 -0.3851  0.2448 -0.3142
 6354W        W10098   5.441   8.422   3.517 -0.2007  0.2590 -0.1686
 6355W        W10099   4.220   0.436   9.961 -0.1219  0.1784  0.1619
 6356W        W10100   8.037   8.355   1.538 -0.1391  0.0559  0.0604
 6357W        W10101   1.488   8.422   9.713 -0.0644 -0.1458  0.0057
 6358W        W10102   1.019   7.400  11.138 -0.0264 -0.1553  0.1849
 6359W        W10103   1.481   3.020   3.290 -0.1413 -0.1286 -0.0369
 6360W        W10104   0.062   1.500   2.451  0.2817  0.0578  0.2288
 6361W        W10105   1.218   1.201   2.392  0.4087  0.1069  0.0441
 6362W        W10106   0.786   4.581   2.767 -0.1218 -0.1586 -0.3036
 6363W        W10107   6.640   1.833   0.477 -0.0582  0.2216 -0.0043
 6364W        W10108   6.076   6.735   0.193  0.1571 -0.2734  0.0162
 6365W        W10109   7.319   6.585   3.890  0.2370  0.0615  0.1551
 6366W        W10110   5.602   3.267  10.083 -0.0679 -0.4228 -0.3070
 6367W        W10111   0.627   4.982   9.335  0.0627  0.1082 -0.1635
 6368W        W10112   5.440   2.988   1.370  0.0420  0.0096  0.1670
 6369W        W10113   1.489   5.264  11.311  0.1864 -0.2201  0.2904
 6370W        W10114   0.182   8.523   0.204 -0.3432 -0.0984 -0.0163
 6371W        W10115   0.051   5.089  10.631 -0.3567 -0.0906  0.4401
 6372W        W10116   6.115   2.203   1.000 -0.0770 -0.0992  0.3231
 6373W        W10117   4.331   4.934   1.647  0.0575  0.2503  0.0212
 6374W        W10118   4.037   3.801  10.142 -0.3076  0.1990  0.0549
 6375W        W10119   0.726   8.727   0.447 -0.1107 -0.0625  0.1077
 6376W        W10120   0.223   7.888   0.926  0.0937  0.0848  0.2049
 6377W        W10121   8.180   3.396   3.261  0.3713  0.0207  0.0298
 6378W        W10122   3.487   3.850   8.386  0.3363  0.3693 -0.0613
 6379W        W10123   6.771   9.905  10.443 -0.2791 -0.1173  0.2088
 6380W        W10124   1.191   6.384   0.105  0.3058 -0.1578  0.2226
 6381W        W10125   2.362   2.485   0.266 -0.2193 -0.0211 -0.1527
 6382W        W10126   7.314   0.641  10.241  0.1690 -0.3969 -0.1753
 6383W        W10127   3.375   8.671   2.307 -0.0424  0.2264 -0.1128
 6384W        W10128   3.207   2.931   4.992 -0.2167 -0.1295  0.2142
 6385W        W10129   7.640   9.896   9.947 -0.0568 -0.0305 -0.0395
 6386W        W10130   6.118   3.183   8.725  0.2341 -0.1048  0.3216
 6387W        W10131   0.120   5.832   2.663  0.2797  0.2929 -0.2585
 6388W        W10132   1.622   8.557  10.426  0.3297 -0.0998 -0.0279
 6389W        W10133   9.835   3.592   8.992  0.0086 -0.0116 -0.1373
 6390W        W10134   4.954   3.707   1.028 -0.0704 -0.2277  0.3482
 6391W        W10135   7.801   8.923   0.313 -0.1031 -0.4386 -0.0650
 6392W        W10136   3.110   7.340   4.164 -0.7542  0.0249  0.0956
 6393W        W10137   0.865   7.784  11.532  0.1462  0.2089  0.0711
 6394W        W10138   1.773   9.298   1.721 -0.1155 -0.2047 -0.0356
 6395W        W10139   8.020   4.137  10.413 -0.1694 -0.6043  0.0593
 6396W        W10140   9.332   9.826  10.461 -0.2761  0.0059  0.4246
 6397W        W10141   7.799   6.554   3.939 -0.2403 -0.2506  0.0889
 6398W        W10142   8.946   2.753   3.153 -0.3015 -0.4171 -0.0973
 6399W        W10143   8.289   9.865   1.729  0.0672  0.2253  0.0589
 6400W        W10144   9.580   7.894   9.722  0.1326 -0.0118  0.3347
 6401W        W10145   6.972   2.329   9.682 -0.0140 -0.1357  0.0507
 6402W        W10146   6.308   7.454   3.797 -0.1294 -0.1535 -0.0100
 6403W        W10147   7.050   2.605   4.994  0.0783 -0.1615  0.1147
 6404W        W10148   9.947   7.569   0.602 -0.0670  0.0161 -0.2802
 6405W        W10149   1.122   3.493   3.116 -0.0612  0.3919  0.1575
 6406W        W10150   3.499   1.888  11.887 -0.1062  0.2430  0.1326
 6407W        W10151   5.475   9.010   2.937 -0.1559  0.1248  0.1001
 6408W        W10152   6.704   1.357   1.190  0.0235  0.4783 -0.2015
 6409W        W10153   6.216   0.067   1.380 -0.0014  0.0326 -0.1192
 6410W        W10154   3.495   9.065   0.027  0.0351 -0.3910  0.2180
 6411W        W10155   9.009   9.307   3.023  0.0465 -0.2860  0.4704
 6412W        W10156   3.673   7.399   2.725 -0.3243 -0.0405  0.0121
 6413W        W10157   3.832   5.670   0.657  0.0650  0.0152 -0.1816
 6414W        W10158   9.842   4.954   1.973  0.1975 -0.1900  0.3666
 6415W        W10159   8.025   3.487   4.096  0.1418 -0.3175  0.0966
 6416W        W10160   7.308   1.282   2.916  0.1744  0.0519  0.0734
 6417W        W10161   4.813   0.604   4.035  0.0244  0.2050 -0.4260
 6418W        W10162   7.314   7.397  11.042 -0.1351  0.1170  0.1338
 6419W        W10163   4.863   4.333   2.313 -0.0514 -0.0414  0.1368
 6420W        W10164   1.422   1.179  10.792  0.0842  0.0162 -0.0452
 6421W        W10165   3.425   7.361   4.902 -0.3241 -0.1979 -0.3874
 6422W        W10166   3.255   2.192  10.157  0.1529  0.0971 -0.3613
 6423W        W10167   2.572   1.298   9.585 -0.2383 -0.0528  0.2292
 6424W        W10168   5.884   0.492  11.432  0.0296  0.1465 -0.2450
 6425W        W10169   1.675   6.962  12.150 -0.1700  0.0810 -0.0621
 6426W        W10170   6.208   2.281  10.228  0.1077  0.2850 -0.2555
 6427W        W10171   4.585   8.671   8.074  0.1734  0.0283  0.1577
 6428W        W10172   1.626   0.121   1.521  0.0610 -0.0149  0.0618
 6429W        W10173   2.349   9.806  10.122  0.1529  0.1037 -0.2217
 6430W        W10174   4.842   8.409   4.633 -0.3300  0.0627  0.0616
 6431W        W10175   7.042   9.670  11.587  0.0255  0.1619  0.0391
 6432W        W10176   0.152   5.397  11.236  0.3632 -0.0762 -0.0895
 6433W        W10177   8.736   8.830   1.904  0.3475  0.5219  0.3323
 6434W        W10178   1.764   2.717   2.683 -0.1335 -0.1884 -0.0800
 6435W        W10179   9.746   0.419   2.523  0.1209  0.0130  0.1524
 6436W        W10180   4.227   1.545   2.328 -0.0614  0.1165 -0.2935
 6437W        W10181   6.065   7.528  12.609 -0.0767 -0.1968  0.5440
 6438W        W10182   5.429   2.720   2.759  0.2264  0.1423  0.3333
 6439W        W10183   3.868   1.013  10.770  0.1953  0.1529  0.1218
 6440W        W10184   7.297   4.155   3.995  0.0585 -0.0308 -0.3585
 6441W        W10185   2.776   0.058   0.436  0.0414 -0.0095 -0.1504
 6442W        W10186   4.540   8.103   1.936  0.2335 -0.3525 -0.0960
 6443W        W10187   1.140   7.581   2.343  0.0245 -0.0229  0.0779
 6444W        W10188   6.941   1.603   8.240  0.3664 -0.0823  0.6364
 6445W        W10189   4.343   0.319   1.687  0.2615 -0.2031  0.2245
 6446W        W10190   0.639   2.930   1.377 -0.1779  0.0643 -0.4179
 6447W        W10191   2.938   1.288   0.972 -0.0480 -0.1499  0.0912
 6448W        W10192   6.651   2.295   1.866 -0.1119 -0.0712 -0.0398
 6449W        W10193   7.909   6.499   2.562 -0.0396  0.1920  0.1545
 6450W        W10194   9.264   9.663   1.960 -0.0528 -0.0551 -0.0507
 6451W        W10195   0.904   6.695  10.052 -0.0752  0.2634  0.4192
 6452W        W10196   6.833   9.019   2.759 -0.2901 -0.0539  0.0433
 6453W        W10197   1.963   0.699   4.414  0.2116 -0.3055  0.0751
 6454W        W10198   1.188   9.291   9.994 -0.2356 -0.3582  0.1769
 6455W        W10199   3.131   2.091   1.543 -0.1938 -0.2340  0.0829
 6456W        W10200   4.707   0.309  10.280 -0.2613  0.0601  0.0812
 6457W        W10201   4.271   4.613  10.406  0.0290 -0.3335  0.1309
 6458W        W10202   6.814   5.832   0.388 -0.0220  0.2011  0.0414
 6459W        W10203   5.196   8.908   1.555  0.1594 -0.0885 -0.3144
 6460W        W10204   0.500   3.105  10.194  0.1903 -0.0564  0.2037
 6461W        W10205   5.953   3.466   4.795 -0.0220 -0.1243 -0.1646
 6462W        W10206   5.459   8.452  10.245  0.0174  0.3101  0.0726
 6463W        W10207   8.356   1.457   9.007 -0.0260  0.3291  0.1250
 6464W        W10208   8.063   8.161  11.327  0.0471  0.0000  0.0866
 6465W        W10209   6.568   0.480   4.252 -0.0011 -0.1512  0.0207
 6466W        W10210   7.607   9.478  11.348  0.3386 -0.2365  0.1361
 6467W        W10211   7.679   9.528   2.802 -0.2403 -0.1128  0.3834
 6468W        W10212   5.182   6.813   9.592 -0.1686  0.0982  0.1563
 6469W        W10213   6.289   9.705   2.769  0.0827  0.1427 -0.0314
 6470W        W10214   6.432   8.941  11.998 -0.2144  0.1877  0.0961
 6471W        W10215   0.607   2.292   2.794  0.1381 -0.0681 -0.0708
 6472W        W10216   9.719   9.094   2.712 -0.0530  0.4018 -0.0097
 6473W        W10217   2.952   5.127   9.350  0.1319  0.2761  0.0739
 6474W        W10218   3.302   9.364  10.435 -0.0623 -0.1186 -0.3550
 6475W        W10219   8.501   9.672  10.232 -0.0843 -0.0710  0.0554
 6476W        W10220   4.634   5.866   1.999  0.1009 -0.0868  0.0033
 6477W        W10221   1.817   4.855   1.902  0.1306 -0.0448  0.1091
 6478W        W10222   0.833   1.423  10.851  0.0725 -0.0055 -0.3096
 6479W        W10223   9.479   7.432   0.894  0.0738  0.0574  0.0945
 6480W        W10224   5.334   1.069   8.752  0.1808  0.1731 -0.1660
 6481W        W10225   5.457   3.048   3.200 -0.2935  0.2094 -0.3548
 6482W        W10226   8.761   5.033   0.010  0.1753  0.2140  0.0007
 6483W        W10227   2.879   2.063   9.504  0.4215 -0.1722 -0.3909
 6484W        W10228   8.068   0.311   4.872 -0.1863 -0.1912 -0.0673
 6485W        W10229   7.758   8.655   2.826  0.0130  0.0804  0.0599
 6486W        W10230   8.288   3.893   1.569  0.1353 -0.0243  0.1484
 6487W        W10231   8.460   4.104   2.154  0.0359 -0.2353 -0.0259
 6488W        W10232   6.035   4.087  11.499 -0.2426 -0.0520  0.0297
 6489W        W10233   8.812   5.941   1.485 -0.0096  0.3450  0.2320
 6490W        W10234   5.915   5.816  12.786  0.2411  0.2934 -0.1693
 6491W        W10235   6.394   4.910  10.055  0.1052  0.0678 -0.3304
 6492W        W10236   3.354   9.564   2.264 -0.1629 -0.3468  0.3017
 6493W        W10237   6.419   5.989   0.899 -0.1824 -0.2764 -0.2233
 6494W        W10238   0.779   7.702   0.184  0.0224 -0.0543  0.0596
 6495W        W10239   7.101   3.386  10.838  0.0234  0.0927  0.0247
 6496W        W10240   4.122   4.076   1.841  0.0784  0.4478 -0.0490
 6497W        W10241   4.528   5.810  12.391  0.2006  0.2363  0.1816
 6498W        W10242   5.744   0.924   9.598 -0.0603  0.0979 -0.1618
 6499W        W10243   5.068   7.808   1.142  0.0156  0.0497  0.1249
 6500W        W10244   6.366   7.273   9.155 -0.0062  0.0838  0.1962
 6501W        W10245   3.503   6.974  11.229 -0.1522 -0.1113  0.0100
 6502W        W10246   3.390   7.529   0.750  0.0288  0.1163  0.1577
 6503W        W10247   0.177   4.058  12.389 -0.2657  0.2056 -0.1116
 6504W        W10248   7.240   4.472   4.411 -0.0040 -0.3102 -0.0049
 6505W        W10249   9.422   9.582  11.644  0.1066 -0.0785 -0.3234
 6506W        W10250   2.676   1.798  11.535  0.1300  0.0175  0.1431
 6507W        W10251   1.381   4.249   0.337 -0.1553 -0.0391  0.1038
 6508W        W10252   2.325   0.459   4.702  0.2758  0.1264 -0.2419
 6509W        W10253   6.968   2.623   4.077 -0.3378 -0.1780 -0.5151
 6510W        W10254   0.209   1.836   0.398  0.0673 -0.1380 -0.1489
 6511W        W10255   9.740   8.576   1.547 -0.1458 -0.1891  0.2625
 6512W        W10256   8.356   4.610   0.832  0.1062  0.0005  0.3033
 6513W        W10257   2.961   2.421   3.247 -0.0966  0.1331  0.0172
 6514W        W10258   8.206   1.488   3.509 -0.1294  0.3039 -0.1535
 6515W        W10259   5.834   8.950   1.335  0.1540  0.0780 -0.2427
 6516W        W10260   4.706   2.611   2.816  0.0094 -0.3778 -0.1045
 6517W        W10261   7.645   4.146   1.282  0.1986  0.0365  0.0275
 6518W        W10262   5.138   4.656   9.012  0.0752 -0.0770 -0.3451
 6519W        W10263   3.970   1.498   0.017  0.0699 -0.1254  0.0145
 6520W        W10264   2.788   5.861   1.601 -0.0806  0.2410 -0.0932
 6521W        W10265   7.817   5.168  10.731  0.1241 -0.1082 -0.2198
 6522W        W10266   5.302   7.020   4.953  0.0940  0.1081 -0.1560
 6523W        W10267   1.916   7.053   2.329 -0.2047  0.2866  0.0576
 6524W        W10268   7.563   0.856   1.265 -0.1609 -0.0179  0.0529
 6525W        W10269   9.880   9.401   3.097  0.1291 -0.3211 -0.0370
 6526W        W10270   4.266   5.879  10.744  0.4396  0.0362  0.1162
 6527W        W10271   1.243   8.818   2.922 -0.3494  0.1755  0.2069
 6528W        W10272   9.346   2.214   0.500 -0.1184  0.2879 -0.1238
 6529W        W10273   2.725   0.619  12.584  0.0579  0.3028 -0.1409
 6530W        W10274   9.065   9.861   1.453  0.2821  0.1933  0.1863
 6531W        W10275   3.288   9.914   9.264  0.1218 -0.0944  0.2231
 6532W        W10276   4.585   1.585   1.976 -0.1807 -0.3836  0.3065
 6533W        W10277   7.844   8.621  11.247 -0.0090  0.2084  0.0240
 6534W        W10278   3.100   1.715  11.147 -0.2795  0.0267  0.3515
 6535W        W10279   4.045   2.370  10.134 -0.2636 -0.1820 -0.3515
 6536W        W10280   3.159   7.582   9.756  0.1415  0.2959  0.3025
 6537W        W10281   3.578   1.033  10.346  0.0816  0.0038  0.2630
 6538W        W10282   2.034   2.886   1.453  0.0048 -0.2509  0.0115
 6539W        W10283   5.489   6.118   0.003 -0.0856 -0.0541  0.2281
 6540W        W10284   6.981   8.135  11.024 -0.1504  0.1897  0.0050
 6541W        W10285   4.948   7.767  10.397 -0.2767 -0.3828  0.1165
 6542W        W10286   5.488   0.038   0.964 -0.3664  0.0795 -0.2812
 6543W        W10287   4.988   1.748   2.711  0.2358 -0.0236  0.2715
 6544W        W10288   9.604   4.809  10.310  0.1901  0.0909  0.0221
 6545W        W10289   2.485   7.467   8.642 -0.0160  0.3408  0.2493
 6546W        W10290   6.511   8.339   3.481  0.0237  0.1676 -0.0449
 6547W        W10291   4.168   8.543   0.471 -0.1905  0.1336 -0.2010
 6548W        W10292   7.389   8.122   1.711 -0.0468  0.0006 -0.0862
 6549W        W10293   8.938   2.455   7.937  0.1291  0.3594 -0.0244
 6550W        W10294   0.299   9.797   2.985  0.2704  0.1469  0.1084
 6551W        W10295   7.307   5.057   2.843  0.1372  0.0162 -0.0490
 6552W        W10296   5.125   4.922  10.493 -0.2980  0.0667  0.0324
 6553W        W10297   7.680   1.498   1.394 -0.2459  0.2033  0.0269
 6554W        W10298   9.934   8.187  10.712 -0.1643 -0.1000  0.0881
 6555W        W10299   8.735   1.225   3.395 -0.2559 -0.1309 -0.1431
 6556W        W10300   3.081   8.953  10.232 -0.0819 -0.3388 -0.1493
 6557W        W10301   6.675   2.713   0.500  0.1361  0.0989  0.2339
 6558W        W10302   1.069   0.179  10.562 -0.0816 -0.4528  0.0636
 6559W        W10303   6.437   3.687  10.793 -0.1338  0.0088  0.0241
 6560W        W10304   5.094   3.124  12.254  0.2097 -0.0712 -0.1988
 6561W        W10305   0.499   3.631  11.662  0.0177  0.1530 -0.3485
 6562W        W10306   8.656   6.933  12.668  0.2874 -0.2093  0.4108
 6563W        W10307   4.469   8.498  11.224 -0.2882 -0.0022 -0.1886
 6564W        W10308   3.888   7.763  12.765  0.4581 -0.0588  0.2115
 6565W        W10309   0.951   8.080  12.564 -0.0361 -0.0982  0.1877
 6566W        W10310   9.678   9.327  12.591  0.2910 -0.1085 -0.3290
 6567W        W10311   4.893   4.743   1.973 -0.3003  0.0527 -0.0441
 6568W        W10312   5.918   2.122   9.220  0.0044 -0.1111  0.1094
 6569W        W10313   1.265   0.847   0.883 -0.0490 -0.0265 -0.0017
 6570W        W10314   2.484   8.471  11.599  0.2300 -0.2582  0.1853
 6571W        W10315   1.239   0.204   2.545  0.0518 -0.3357 -0.3014
 6572W        W10316   3.183   2.911   8.354  0.0406  0.1690 -0.1135
 6573W        W10317   5.920   6.250   0.303 -0.2556  0.0047  0.1473
 6574W        W10318   7.735   5.372   3.591 -0.1650  0.0703 -0.3586
 6575W        W10319   7.707   8.205  10.909 -0.1216  0.1350 -0.1648
 6576W        W10320   3.012   7.471   0.207  0.2074  0.0230  0.2219
 6577W        W10321   8.589   5.510   0.556 -0.0028 -0.0637 -0.2626
 6578W        W10322   4.220   8.052  12.426  0.0155 -0.0982 -0.0652
 6579W        W10323   2.382   9.591   0.493  0.0241 -0.2061 -0.0155
 6580W        W10324   6.053   2.506  10.861  0.3515  0.0393  0.1218
 6581W        W10325   3.806   0.192  12.558 -0.2093 -0.1827  0.1527
 6582W        W10326   6.124   9.511   1.458 -0.0092  0.0026 -0.4615
 6583W        W10327   7.927   8.884   1.511  0.0258 -0.1398 -0.2548
 6584W        W10328   1.936   3.719  11.814 -0.2616  0.1350 -0.1488
 6585W        W10329   7.432   7.797   3.214  0.1422 -0.0107  0.0162
 6586W        W10330   8.417   7.165   3.655  0.1908  0.1035 -0.1339
 6587W        W10331   4.045   0.188   0.243 -0.0998 -0.1562 -0.0242
 6588W        W10332   5.147   7.582  12.444  0.1775 -0.0774 -0.0398
 6589W        W10333   0.538   8.192  10.792  0.1161  0.1046  0.4347
 6590W        W10334   6.002   2.750   8.343  0.0942  0.0960  0.2344
 6591W        W10335   5.902   5.232   8.632  0.0251  0.0928 -0.1174
 6592W        W10336   3.419   7.780   2.440 -0.0674  0.0434 -0.1078
 6593W        W10337   5.527   4.800  10.801 -0.1826 -0.1472  0.3233
 6594W        W10338   8.910   6.003  10.891  0.1387  0.0765  0.1249
 6595W        W10339   0.954   2.523   3.412 -0.2067  0.1852 -0.1885
 6596W        W10340   6.423   4.630   1.180 -0.1685  0.1566 -0.0699
 6597W        W10341   4.673   6.960   9.382 -0.1353  0.2200 -0.0908
 6598W        W10342   5.728   4.866   0.872 -0.2166  0.0519  0.0573
 6599W        W10343   6.275   7.391   1.988 -0.2752 -0.0613 -0.1437
 6600W        W10344   9.931   5.428   1.983  0.0537 -0.3361 -0.0278
 6601W        W10345   3.390   6.565   3.059 -0.2614 -0.0454 -0.1871
 6602W        W10346   8.799   6.101  11.474  0.2745 -0.1295 -0.2323
 6603W        W10347   3.984   0.741   0.104  0.4368 -0.1539 -0.0531
 6604W        W10348   4.827   9.339   1.580  0.0058 -0.3068  0.2433
 6605W        W10349   6.403   2.857   7.557  0.1477  0.0172 -0.0775
 6606W        W10350   6.180   2.477   2.016  0.3222 -0.0963  0.1340
 6607W        W10351   4.790   3.185  11.069  0.3417  0.0636  0.1555
 6608W        W10352   9.498   5.925   3.496  0.6942  0.1777  0.2372
 6609W        W10353   1.899   5.742  11.547  0.1979 -0.1027 -0.2149
 6610W        W10354   9.535   3.311   0.586 -0.2455  0.1271 -0.1753
 6611W        W10355   7.191   4.434   3.555  0.0955 -0.0486 -0.3006
 6612W        W10356   0.196   8.937   0.714  0.0277 -0.1188  0.5774
 6613W        W10357   2.850   8.221  10.003  0.0662 -0.0299  0.0269
 6614W        W10358   6.627   6.938   1.863  0.0630 -0.1952 -0.5148
 6615W        W10359   8.927   9.039   1.467 -0.1055 -0.3016  0.0598
 6616W        W10360   1.839   1.509   3.668 -0.1285  0.2650 -0.0662
 6617W        W10361   7.849   1.156   3.651  0.2365 -0.1547  0.2148
 6618W        W10362   2.110   1.224   0.004  0.1601  0.0207  0.3227
 6619W        W10363   1.506   4.404   3.262 -0.0812  0.0367 -0.1741
 6620W        W10364   6.534   2.452   1.255 -0.1309  0.0450 -0.1682
 6621W        W10365   9.376   2.332   1.433  0.0133  0.0376  0.0976
 6622W        W10366   6.949   1.567   0.816  0.2501  0.1765 -0.0100
 6623W        W10367   9.679   4.096  12.611  0.1708 -0.0975 -0.0779
 6624W        W10368   7.175   7.464   4.311 -0.3319 -0.1084 -0.1538
 6625W        W10369   2.517   7.497  10.528  0.0215 -0.0554  0.1239
 6626W        W10370   0.400   9.727   2.483 -0.0861 -0.0907 -0.0223
 6627W        W10371   7.508   1.793   9.099  0.2394  0.1925 -0.0215
 6628W        W10372   3.283   5.973   9.837  0.5545  0.2955 -0.1512
 6629W        W10373   0.686   2.560   1.722  0.0883  0.4454 -0.0932
 6630W        W10374   9.943   1.450   1.597 -0.2011 -0.2295 -0.2137
 6631W        W10375   2.925   9.342  12.035 -0.0306  0.1613 -0.1042
 6632W        W10376   6.175   5.021  11.453  0.0977  0.2236 -0.1162
 6633W        W10377   9.056   2.280   4.306  0.2831 -0.0505 -0.1376
 6634W        W10378   1.378   4.729   1.965  0.1338 -0.2286 -0.1713
 6635W        W10379   2.235   2.014   3.162  0.0770  0.0181 -0.0380
 6636W        W10380   9.792   0.944   1.841 -0.2427  0.1692  0.0241
 6637W        W10381   3.168   3.146   0.741 -0.2570 -0.2098 -0.0018
 6638W        W10382   6.882   7.714  10.716 -0.2952  0.1778  0.0738
 6639W        W10383   0.489   2.480   1.121 -0.0833 -0.1556  0.0356
 6640W        W10384   3.757   3.021   9.590 -0.0584 -0.1773  0.1843
 6641W        W10385   5.190   3.401   4.357 -0.1051 -0.0822 -0.0611
 6642W        W10386   2.978   5.982   0.357 -0.2140 -0.1381  0.0060
 6643W        W10387   0.910   3.253  12.459 -0.1053  0.3293 -0.3376
 6644W        W10388   0.201   0.614  10.958  0.0643  0.1152  0.0071
 6645W        W10389   6.221   5.763   1.521 -0.1858 -0.0432 -0.2408
 6646W        W10390   1.607   3.704  12.210  0.3399 -0.5032 -0.0970
 6647W        W10391   6.344   6.050  10.613  0.0960  0.0958 -0.0499
 6648W        W10392   9.331   0.096  11.419 -0.2029  0.2336 -0.0527
 6649W        W10393   3.838   6.077  11.487  0.1248 -0.0397  0.2431
 6650W        W10394   4.230   0.638   8.644 -0.1218 -0.1056  0.0844
 6651W        W10395   1.241   4.600  10.433 -0.2216  0.2075  0.4510
 6652W        W10396   2.809   4.214   3.627  0.0844  0.0066 -0.0339
 6653W        W10397   4.045   2.031   2.465  0.0759 -0.0993  0.0902
 6654W        W10398   0.953   9.511   2.008 -0.0104 -0.0357  0.0263
 6655W        W10399   3.544   7.294   0.322  0.0583 -0.1989  0.0489
 6656W        W10400   7.553   6.811   8.860 -0.1370 -0.3171 -0.0121
 6657W        W10401   7.257   2.003   0.831 -0.5989 -0.0649  0.1714
 6658W        W10402   2.562   7.408  11.389 -0.1625  0.1996  0.0155
 6659W        W10403   4.545   7.862   0.948  0.0726  0.0627  0.1333
 6660W        W10404   2.110   3.968   5.132  0.0437  0.0528  0.0614
 6661W        W10405   7.121   9.132   2.356 -0.2344 -0.1789 -0.2433
 6662W        W10406   2.562   5.304   2.728  0.0495 -0.3108 -0.0320
 6663W        W10407   8.168   8.003  10.657  0.0003 -0.0521 -0.4847
 6664W        W10408   6.306   2.155   3.621  0.3827 -0.0979  0.0072
 6665W        W10409   1.394   6.579   9.841  0.4471  0.1630 -0.0384
 6666W        W10410   7.523   1.297   0.380  0.0093  0.2681 -0.2471
 6667W        W10411   7.891   8.213   3.492  0.0768 -0.1502 -0.2000
 6668W        W10412   4.271   8.487   2.519  0.1331 -0.0371  0.0128
 6669W        W10413   9.746   0.933   8.627 -0.3665  0.2074 -0.1675
 6670W        W10414   4.444   7.061   2.932 -0.1098 -0.2264  0.0457
 6671W        W10415   6.075   6.220   3.557  0.0621 -0.1467 -0.2828
 6672W        W10416   7.658   1.182   8.472 -0.2748 -0.1045 -0.0873
 6673W        W10417   9.555   5.017   2.751  0.1577 -0.1097  0.0855
 6674W        W10418   0.836   3.944  10.656 -0.0274 -0.1375  0.0851
 6675W        W10419   4.536   9.787  10.013  0.0527 -0.0306 -0.0537
 6676W        W10420   2.586   2.903   1.448  0.2326  0.0719  0.0689
 6677W        W10421   2.616   4.807  12.497 -0.4002  0.0765  0.0481
 6678W        W10422   7.847   2.116   9.716 -0.3407 -0.1892 -0.0061
 6679W        W10423   7.394   3.407   1.627 -0.3315 -0.1109 -0.0479
 6680W        W10424   4.539   1.271  10.837 -0.3222  0.0175 -0.0866
 6681W        W10425   5.132   0.824  12.719  0.0315  0.1982  0.1776
 6682W        W10426   6.227   4.074  12.027  0.0449  0.2829 -0.0470
 6683W        W10427   6.702   0.694   1.931 -0.3748  0.2904  0.4473
 6684W        W10428   1.732   1.578   4.694  0.4830  0.0991 -0.0294
 6685W        W10429   6.835   3.245   9.865 -0.1541  0.1985  0.0442
 6686W        W10430   2.308   1.611   0.780 -0.0563 -0.0658 -0.1293
 6687W        W10431   4.503   1.798  10.816  0.2615 -0.1103 -0.0321
 6688W        W10432   4.473   0.689   3.698 -0.1441  0.2133  0.1274
 6689W        W10433   7.821   0.598   0.916 -0.0224  0.1119  0.1600
 6690W        W10434   2.911   7.772   2.537 -0.0344 -0.1954 -0.2843
 6691W        W10435   6.725   4.563   1.823 -0.2729 -0.1471  0.0752
 6692W        W10436   8.742   6.048   9.105  0.1651 -0.0757 -0.1507
 6693W        W10437   0.492   5.177   8.774 -0.1052  0.0689  0.1056
 6694W        W10438   3.824   4.068  12.020  0.2442  0.0705  0.1989
 6695W        W10439   5.817   4.313   2.432  0.1713  0.1036  0.1004
 6696W        W10440   0.411   5.608   3.238  0.0916  0.3330  0.3637
 6697W        W10441   9.241   7.047   4.185 -0.0057  0.4370 -0.0379
 6698W        W10442   1.975   6.520  10.979 -0.0361 -0.2146 -0.1404
 6699W        W10443   6.612   3.045  10.730  0.0739 -0.0654  0.1110
 6700W        W10444   2.991   2.674  10.399 -0.0026 -0.0037 -0.1475
 6701W        W10445   7.601   2.101   8.672  0.0352 -0.0009  0.1229
 6702W        W10446   2.122   2.518   9.462  0.1848  0.0154  0.3500
 6703W        W10447   9.743   3.683  11.643 -0.0932  0.1557  0.0491
 6704W        W10448   5.874   6.848   2.639 -0.1065  0.0428  0.0411
 6705W        W10449   8.484   2.492   1.081 -0.0515 -0.2292  0.0254
 6706W        W10450   5.583   2.136   0.929  0.1075 -0.3196  0.4108
 6707W        W10451   2.736   1.824   7.861 -0.0032  0.2153  0.1508
 6708W        W10452   6.910   6.311   0.629 -0.1361 -0.0277 -0.0280
 6709W        W10453   4.478   0.733  10.310  0.2768 -0.2118 -0.1517
 6710W        W10454   4.255   4.821   4.829 -0.0799  0.2942  0.1084
 6711W        W10455   7.471   8.288   2.577 -0.0063  0.1917 -0.1244
 6712W        W10456   4.062   6.276  11.095  0.0724  0.2968 -0.0076
 6713W        W10457   0.207   0.926   8.947  0.0682 -0.0103 -0.1152
 6714W        W10458   1.589   2.093  10.885  0.0253 -0.2024  0.2539
 6715W        W10459   2.603   7.719   1.049  0.1788 -0.0209 -0.0909
 6716W        W10460   3.040   2.656  12.559 -0.0216  0.0681 -0.2154
 6717W        W10461   8.944   5.168   3.896 -0.2076 -0.0098  0.5302
 6718W        W10462   5.724   2.412  12.542 -0.0460  0.0442  0.4280
 6719W        W10463   7.835   4.719   0.906 -0.0909 -0.2247 -0.0247
 6720W        W10464   4.288   3.572   8.903  0.1015  0.2086 -0.3328
 6721W        W10465   0.816   7.215   0.881 -0.1890 -0.1685 -0.0860
 6722W        W10466   1.558   9.051  11.875  0.1529  0.2816  0.2104
 6723W        W10467   3.383   9.449   3.306  0.0878  0.3383  0.0219
 6724W        W10468   7.396   1.461  11.787  0.0987 -0.0973 -0.2538
 6725W        W10469   3.274   4.024   0.985 -0.0272  0.0855 -0.2025
 6726W        W10470   5.455   5.924  11.940  0.0573  0.0641 -0.1046
 6727W        W10471   3.575   4.491   2.593 -0.1771 -0.0842  0.0889
 6728W        W10472   3.343   9.228   1.932  0.1049 -0.0461  0.0107
 6729W        W10473   7.420   4.041   4.674 -0.2206  0.0210 -0.0582
 6730W        W10474   8.234   2.298   2.820 -0.0420 -0.2596  0.0105
 6731W        W10475   9.442   3.173   9.124 -0.0198  0.0231  0.0342
 6732W        W10476   9.394   8.939  10.484  0.4003 -0.1470 -0.2663
 6733W        W10477   9.368   5.708  12.696  0.0311  0.1033 -0.1139
 6734W        W10478   6.192   9.648   4.356  0.0464 -0.2747 -0.0132
 6735W        W10479   7.059   7.679   9.628  0.0260 -0.0408 -0.1102
 6736W        W10480   2.859   3.646  11.084 -0.2421  0.1634  0.0817
 6737W        W10481   2.089   7.182   0.142 -0.1544  0.5380 -0.0143
 6738W        W10482   4.911   6.377   4.531  0.1595 -0.3157 -0.1273
 6739W        W10483   6.136   1.127   3.447 -0.0106 -0.0439  0.0684
 6740W        W10484   1.155   4.872   2.425  0.2231 -0.2935  0.1674
 6741W        W10485   5.973   4.153   1.840 -0.1062 -0.2910 -0.3477
 6742W        W10486   6.471   5.966   9.992 -0.2801 -0.1686 -0.2906
 6743W        W10487   1.110   1.225  12.291  0.1689  0.2990  0.2923
 6744W        W10488   5.186   8.768   3.287 -0.0692  0.1395 -0.0568
 6745W        W10489   5.737   0.761  11.987  0.1308 -0.3201 -0.0588
 6746W        W10490   7.813   7.133   0.086  0.1300 -0.0700  0.0666
 6747W        W10491   2.242   3.444   4.246 -0.1705 -0.0028 -0.0487
 6748W        W10492   7.247   6.436  10.665  0.0646 -0.1209  0.0662
 6749W        W10493   8.529   4.054   9.068 -0.1398 -0.1428 -0.1018
 6750W        W10494   0.687   7.879   2.353  0.2365 -0.0382  0.1005
 6751W        W10495   3.817   7.629   3.938 -0.1828  0.1824 -0.3413
 6752W        W10496   1.633   5.635   3.408  0.2622 -0.1553 -0.1285
 6753W        W10497   2.804   4.753  11.794  0.0914  0.1871  0.0151
 6754W        W10498   7.274   4.749  10.053  0.1346  0.1503  0.5460
 6755W        W10499   6.785   2.307   8.867  0.1803 -0.0031 -0.1930
 6756W        W10500   3.568   8.416   9.175  0.2249 -0.1219  0.0666
 6757W        W10501   7.241   8.570  11.815  0.0002  0.0522 -0.0273
 6758W        W10502   5.732   2.705   2.245  0.0770 -0.2490  0.1995
 6759W        W10503   5.523   5.015  12.483  0.0505 -0.1062 -0.0734
 6760W        W10504   0.780   9.102  10.138  0.2421 -0.2059 -0.1372
 6761W        W10505   4.532   6.640  11.959  0.3259  0.2929  0.1046
 6762W        W10506   6.097   3.321  12.535 -0.1602  0.1492 -0.1499
 6763W        W10507   7.367   0.027   0.819 -0.1305 -0.2832 -0.1275
 6764W        W10508   4.986   8.898   8.269  0.0541  0.0535  0.0463
 6765W        W10509   8.665   3.130   9.071  0.1172  0.1677  0.1688
 6766W        W10510   3.596   4.927  11.753 -0.1431 -0.0906  0.1720
 6767W        W10511   3.322   1.567   1.310 -0.1919 -0.1245  0.2585
 6768W        W10512   4.906   7.327   1.650 -0.3165 -0.1169  0.2142
 6769W        W10513   2.299   1.860   1.268 -0.0148  0.0881  0.0267
 6770W        W10514   4.027   4.654   3.957  0.1812 -0.4725  0.1699
 6771W        W10515   5.880   8.904   0.355 -0.0583 -0.2750  0.0288
 6772W        W10516   4.122   2.219   1.047  0.3167  0.1674 -0.0124
 6773W        W10517   0.072   1.633   1.177  0.2172 -0.2402 -0.2109
 6774W        W10518   1.851   8.623   1.992  0.2487 -0.1248 -0.2149
 6775W        W10519   2.271   7.927   1.864  0.0652 -0.1208 -0.0718
 6776W        W10520   2.688   4.160   1.767 -0.5026  0.6280 -0.1283
 6777W        W10521   3.198   9.571   8.912  0.1546 -0.1494  0.0670
 6778W        W10522   0.039   2.092   1.421 -0.2334  0.0294  0.2037
 6779W        W10523   0.116   7.861  11.067  0.2828 -0.1159  0.2969
 6780W        W10524   5.303   2.845  11.594 -0.0701  0.0207  0.1257
 6781W        W10525   7.923   2.523  10.385  0.0985  0.0975  0.0662
 6782W        W10526   9.499   2.286  10.616 -0.1338  0.2310 -0.3180
 6783W        W10527   7.229   0.455  11.836 -0.1878 -0.0546 -0.0630
 6784W        W10528   6.539   1.393   9.327 -0.1876 -0.1154  0.3681
 6785W        W10529   6.009   7.095  12.319  0.0057 -0.1494 -0.0246
 6786W        W10530   6.468   0.359  11.462 -0.3478  0.0460  0.0885
 6787W        W10531   9.070   2.243  11.215  0.4032 -0.0760  0.0048
 6788W        W10532   1.836   2.282   9.112  0.1863 -0.0074  0.2057
 6789W        W10533   3.401   5.207   1.915  0.1564 -0.1300  0.1574
 6790W        W10534   5.611   2.313   0.210  0.0695  0.0587 -0.3713
 6791W        W10535   7.555   9.344  10.789  0.0074  0.0101 -0.3293
 6792W        W10536   4.702   0.951   8.383  0.2802 -0.1227  0.3201
 6793W        W10537   7.749   3.631   1.387 -0.5363 -0.2389 -0.1740
 6794W        W10538   1.113   0.816  11.987 -0.1464 -0.1351  0.1485
 6795W        W10539   1.347   3.170   4.206 -0.2479  0.1188  0.1592
 6796W        W10540   7.778   9.564   1.082  0.1673 -0.1454 -0.1148
 6797W        W10541   3.590   5.949   1.006  0.0867  0.2003  0.0443
 6798W        W10542   1.233   2.504  11.115 -0.1625  0.1065 -0.2960
 6799W        W10543   5.698   9.442   0.608  0.2449 -0.1102 -0.3050
 6800W        W10544   5.510   7.284   9.142 -0.1409  0.2603 -0.1968
 6801W        W10545   3.790   2.218   2.002  0.1192 -0.4903 -0.0120
 6802W        W10546   0.437   7.902  10.403 -0.1120  0.0904  0.2388
 6803W        W10547   6.587   6.217   4.776 -0.0589  0.1682  0.0219
 6804W        W10548   5.198   5.938   4.560  0.1977 -0.1557 -0.0851
 6805W        W10549   1.854   2.241  12.569 -0.0405  0.1512  0.3259
 6806W        W10550   1.861   6.452  12.178 -0.0348 -0.2037  0.4689
 6807W        W10551   9.259   5.543   3.695 -0.0046  0.1612 -0.2231
 6808W        W10552   6.986   3.582   9.186  0.0214  0.0653 -0.1873
 6809W        W10553   4.240   9.179   1.182 -0.1157  0.2411  0.1598
 6810W        W10554   0.924   1.495   3.648  0.2666 -0.1889 -0.3124
 6811W        W10555   5.589   1.963  11.546  0.3249 -0.0352  0.1338
 6812W        W10556   1.131   2.479  10.573 -0.0700  0.1707 -0.2292
 6813W        W10557   8.280   6.267   2.126  0.1731 -0.2641  0.0761
 6814W        W10558   4.066   9.193  11.920  0.1539 -0.2458 -0.2841
 6815W        W10559   0.485   8.253   2.630  0.2547 -0.1567  0.0163
 6816W        W10560   0.083   9.379  10.907  0.0768  0.0964 -0.2006
 6817W        W10561   5.051   1.433  10.699  0.0027 -0.0733  0.2000
 6818W        W10562   6.596   5.669   3.933 -0.1815 -0.1203 -0.0446
 6819W        W10563   1.745   7.132   1.275 -0.5436  0.0930 -0.0815
 6820W        W10564   2.344   2.322   3.947 -0.1743 -0.2035  0.3818
 6821W        W10565   7.056   8.978  10.754 -0.0645  0.2036 -0.0012
 6822W        W10566   7.505   6.427  11.886 -0.1086  0.0677  0.1382
 6823W        W10567   5.792   5.453  11.343  0.3893 -0.0497 -0.3973
 6824W        W10568   7.311   4.197   5.113 -0.1235  0.2017  0.0885
 6825W        W10569   4.889   6.961  11.974 -0.1373  0.0093 -0.0646
 6826W        W10570   6.476   8.851   3.087 -0.0978  0.1871 -0.1394
 6827W        W10571   6.531   7.709  11.870 -0.2080 -0.1980  0.3513
 6828W        W10572   9.646   2.184  11.698  0.4236 -0.0207 -0.3126
 6829W        W10573   6.971   2.265   0.532  0.0010 -0.1983 -0.0043
 6830W        W10574   8.458   4.384  10.578 -0.0024 -0.3336  0.0243
 6831W        W10575   9.563   4.078   1.798 -0.1109  0.0993  0.2906
 6832W        W10576   1.512   8.346   1.228 -0.3695  0.1112 -0.0422
 6833W        W10577   9.642   4.742  10.801 -0.1134 -0.1034  0.3478
 6834W        W10578   8.882   0.095  10.336  0.1648 -0.1385  0.0549
 6835W        W10579   3.086   0.985   8.579  0.2703  0.0132  0.2854
 6836W        W10580   1.835   4.711  11.360 -0.3128  0.3950 -0.1778
 6837W        W10581   3.809   8.748  11.799 -0.0854  0.0088 -0.0396
 6838W        W10582   0.103   4.897   9.373 -0.0797  0.0437 -0.0273
 6839W        W10583   3.503   9.546   1.548 -0.0202  0.1107 -0.2951
 6840W        W10584   9.547   3.620   0.189  0.0875  0.3513  0.3230
 6841W        W10585   5.867   6.534  12.580  0.0604  0.0550  0.4601
 6842W        W10586   8.498   2.430  11.175 -0.3227  0.4174 -0.1015
 6843W        W10587   9.118   5.636   0.330  0.2516 -0.3008  0.2832
 6844W        W10588   2.243   7.644  12.641 -0.0281 -0.1055  0.1975
 6845W        W10589   3.822   9.601   3.478 -0.1863 -0.0064 -0.0965
 6846W        W10590   0.950   9.483   3.770  0.0997  0.1580 -0.1008
 6847W        W10591   2.488   6.070  10.803  0.2282  0.0258  0.3473
 6848W        W10592   3.708   7.232  10.850  0.3139 -0.1010 -0.0319
 6849W        W10593   5.648   3.451   0.618 -0.2737  0.0203  0.1654
 6850W        W10594   9.075   5.840   1.903  0.2163 -0.1939  0.1696
 6851W        W10595   0.910   2.331   9.032 -0.1249 -0.2957  0.1127
 6852W        W10596   8.706   2.192   9.376  0.0397  0.0123 -0.0936
 6853W        W10597   9.321   6.121   1.490  0.2145 -0.1416 -0.1351
 6854W        W10598   3.670   3.644   0.895 -0.0027 -0.1231  0.1690
 6855W        W10599   2.207   6.377   0.518 -0.1341 -0.3953  0.1465
 6856W        W10600   0.879   3.156   7.865 -0.1989 -0.0475 -0.1173
 6857W        W10601   9.494   5.884   2.426 -0.0789  0.1270 -0.3163
 6858W        W10602   4.492   4.979   1.179 -0.0654  0.1967  0.4928
 6859W        W10603   3.576   7.100   3.998  0.2439 -0.0576  0.2516
 6860W        W10604   0.836   1.179   4.282  0.0582 -0.2650 -0.1189
 6861W        W10605   2.959   9.118   8.886 -0.0493 -0.2627  0.1033
 6862W        W10606   4.068   6.599   9.424  0.2589  0.0045 -0.2007
 6863W        W10607   2.360   9.380   9.883 -0.4022 -0.1862 -0.0109
 6864W        W10608   6.308   2.733  10.463  0.0901 -0.0894  0.0131
 6865W        W10609   9.019   6.455  11.097 -0.4840 -0.0598  0.1915
 6866W        W10610   2.861   1.799   0.711 -0.0553 -0.0134  0.0926
 6867W        W10611   9.021   2.422  12.187 -0.0905 -0.1200 -0.0361
 6868W        W10612   0.110   4.999  12.682  0.1178 -0.0695 -0.2740
 6869W        W10613   0.263   1.190   2.043  0.0634 -0.2397 -0.1024
 6870W        W10614   5.660   8.096   1.904  0.2210  0.1154 -0.2102
 6871W        W10615   7.701   7.679   1.123  0.1102 -0.2874 -0.1214
 6872W        W10616   8.610   4.774   0.417 -0.0246  0.0107 -0.0830
 6873W        W10617   2.704   2.053   2.976 -0.5093  0.0940 -0.1825
 6874W        W10618   9.061   6.553   1.559 -0.0988 -0.0680 -0.1644
 6875W        W10619   8.777   1.194  12.173  0.1190 -0.0489  0.2210
 6876W        W10620   5.158   8.207  10.590 -0.0943  0.0375  0.0832
 6877W        W10621   7.093   6.572   4.400 -0.5226  0.1592  0.2105
 6878W        W10622   6.736   4.448   3.098 -0.1124  0.2098 -0.1287
 6879W        W10623   9.909   3.587   2.614  0.1256 -0.2672  0.3502
 6880W        W10624   5.113   0.077  11.621  0.0496  0.0624  0.0628
 6881W        W10625   2.732   5.024   4.528 -0.0648 -0.0898  0.1191
 6882W        W10626   7.672   7.470   9.164  0.0137  0.1313  0.0260
 6883W        W10627   7.793   9.775  11.005  0.1635 -0.1267 -0.0356
 6884W        W10628   4.672   7.760   2.817  0.2901  0.2524  0.1583
 6885W        W10629   7.539   2.196   3.397 -0.3254  0.1125  0.1669
 6886W        W10630   1.640   9.647   3.081  0.0643  0.4945 -0.1597
 6887W        W10631   1.933   0.510   8.685  0.2142 -0.2714  0.0595
 6888W        W10632   9.373   6.274  10.757  0.0360 -0.0319  0.0918
 6889W        W10633   7.346   8.093   9.745 -0.0020  0.0829 -0.0084
 6890W        W10634   0.696   0.984   9.612  0.2253 -0.0658 -0.3497
 6891W        W10635   0.986   9.000   1.964  0.1945  0.0942  0.1897
 6892W        W10636   2.542   2.512  12.557  0.0038  0.1087 -0.3121
 6893W        W10637   3.743   0.956   0.553  0.0468 -0.0055  0.0191
 6894W        W10638   1.806   1.995   1.401 -0.2664 -0.1158 -0.1459
 6895W        W10639   1.206   7.456  10.452  0.0388  0.3354  0.0387
 6896W        W10640   0.789   5.843   2.828  0.0024 -0.2859 -0.0445
 6897W        W10641   3.311   9.085  11.775 -0.3225  0.2888 -0.1064
 6898W        W10642   5.887   2.926  10.260 -0.1019 -0.0092 -0.1467
 6899W        W10643   5.011   4.609   0.000  0.0922 -0.0924  0.0403
 6900W        W10644   7.075   2.023   3.297  0.0722 -0.2237 -0.1010
 6901W        W10645   8.830   4.798  10.610  0.0614 -0.0910 -0.0527
 6902W        W10646   6.317   0.996   1.937 -0.1946  0.0195 -0.1565
 6903W        W10647   8.962   9.512   9.912  0.0123 -0.0739  0.0569
 6904W        W10648   5.621   4.642  12.117 -0.0024 -0.1696 -0.1576
 6905W        W10649   0.784   3.269  11.936 -0.2781 -0.1064  0.2339
 6906W        W10650   7.989   0.711  10.666 -0.0717  0.1361  0.6145
 6907W        W10651   4.503   6.735  11.450  0.0119 -0.1495 -0.2217
 6908W        W10652   4.776   9.068   9.154 -0.3411 -0.3615  0.0019
 6909W        W10653   4.870   1.045   8.889  0.0117  0.1588  0.2632
 6910W        W10654   5.104   7.289   9.449 -0.1877 -0.0716  0.3209
 6911W        W10655   7.405   4.452   8.608  0.0151 -0.1369  0.0282
 6912W        W10656   5.819   6.774   0.618  0.0763 -0.2195  0.1825
 6913W        W10657   1.408   8.684   9.210  0.3094  0.0273  0.1888
 6914W        W10658   6.519   2.418   2.342  0.0692  0.1174 -0.1219
 6915W        W10659   6.906   2.469  10.190  0.0870 -0.2252  0.3876
 6916W        W10660   8.564   9.086  12.018 -0.1759 -0.0896 -0.2697
 6917W        W10661   1.659   7.710   1.282  0.1915 -0.3647  0.2565
 6918W        W10662   9.326   4.453   9.407 -0.0516 -0.1816  0.1456
 6919W        W10663   5.732   8.753   9.480 -0.1008 -0.1123  0.0518
 6920W        W10664   2.193   8.936   1.783 -0.0572  0.1485 -0.1641
 6921W        W10665   7.166   7.586   3.815 -0.0835 -0.0545 -0.1487
 6922W        W10666   5.728   0.137   8.271 -0.0716  0.0835 -0.0909
 6923W        W10667   8.756   7.531  10.922 -0.0348  0.2985 -0.5237
 6924W        W10668   3.800   6.105   1.495  0.4265 -0.0644  0.1880
 6925W        W10669   4.862   5.516   9.075 -0.0818 -0.2384 -0.1145
 6926W        W10670   8.410   9.897  11.572 -0.0556 -0.0253 -0.1357
 6927W        W10671   9.044   5.102   2.728  0.2730 -0.1061  0.0871
 6928W        W10672   2.774   7.816  12.675  0.0408  0.2269 -0.0764
 6929W        W10673   9.152   6.823   3.045 -0.1553 -0.1263  0.2131
 6930W        W10674   7.797   3.315   2.834  0.1508 -0.0147 -0.3396
 6931W        W10675   5.336   0.935  11.653  0.1440 -0.0061 -0.0282
 6932W        W10676   4.508   8.886  10.232 -0.1193  0.2603 -0.0259
 6933W        W10677   4.834   8.947   9.651 -0.2091  0.1132  0.4968
 6934W        W10678   8.545   9.109  11.068  0.1784 -0.0286 -0.0202
 6935W        W10679   1.726   5.971   2.645  0.2133 -0.3065  0.4373
 6936W        W10680   6.840   1.698   1.495  0.0638  0.2433 -0.1753
 6937W        W10681   2.327   2.501   3.324 -0.1622  0.1984  0.2773
 6938W        W10682   2.120   0.596  10.114  0.4610  0.0214  0.3700
 6939W        W10683   2.061   3.924  11.361  0.0691 -0.1129 -0.0392
 6940W        W10684   7.135   5.880   4.409  0.0108 -0.0032 -0.0095
 6941W        W10685   9.348   2.016   9.224 -0.4682 -0.1358 -0.1334
 6942W        W10686   5.643   6.524   0.974  0.1382  0.1463 -0.2244
 6943W        W10687   3.467   4.020   0.004 -0.3059  0.0808  0.0384
 6944W        W10688   1.387   0.517  10.912  0.1346 -0.1008  0.0142
 6945W        W10689   6.439   5.026   8.627 -0.0520  0.2582  0.1574
 6946W        W10690   8.686   7.406   1.402 -0.0600 -0.1319 -0.3192
 6947W        W10691   7.076   0.182   9.230 -0.0306 -0.0987  0.0923
 6948W        W10692   5.479   5.598   2.484 -0.2133  0.0687  0.0385
 6949W        W10693   5.102   4.152  11.261  0.2334 -0.2005 -0.0721
 6950W        W10694   1.350   6.177  12.108 -0.2778 -0.1065 -0.0852
 6951W        W10695   8.927   4.661   9.669  0.0831 -0.1043 -0.1604
 6952W        W10696   3.857   2.253  12.140  0.0378 -0.1251 -0.0691
 6953W        W10697   3.796   6.723  10.850  0.0972  0.0786 -0.1756
 6954W        W10698   0.784   2.179   0.789 -0.4062  0.0551 -0.0160
 6955W        W10699   4.195   3.786  11.623 -0.4792 -0.0160 -0.1028
 6956W        W10700   5.732   0.226  11.852 -0.1959 -0.1598 -0.2505
 6957W        W10701   8.208   9.398   4.449  0.0790  0.2229  0.1219
 6958W        W10702   2.338   3.551  10.343  0.3806  0.1778 -0.1415
 6959W        W10703   2.358   3.125   3.871 -0.3004 -0.0266  0.0045
 6960W        W10704   5.956   8.454   3.716  0.0762  0.1923  0.0946
 6961W        W10705   8.794   6.545   9.793  0.1922 -0.0087 -0.1552
 6962W        W10706   5.517   5.680  10.359  0.1713  0.0183  0.0788
 6963W        W10707   8.419   1.659   9.456  0.2295  0.0828  0.1469
 6964W        W10708   5.349   0.960   1.513 -0.0427 -0.1678  0.0592
 6965W        W10709   2.883   5.055  11.332 -0.3846 -0.1349 -0.0670
 6966W        W10710   1.588   6.550   1.635  0.1975  0.0275  0.3654
 6967W        W10711   0.925   5.007   2.979 -0.2453 -0.0452 -0.0237
 6968W        W10712   6.394   8.597   8.823 -0.1304 -0.2460 -0.0725
 6969W        W10713   9.343   2.622   9.807 -0.3642  0.0871  0.1906
 6970W        W10714   1.290   3.713   9.126  0.0407  0.1421 -0.0924
 6971W        W10715   5.607   0.826   4.625 -0.2479  0.0516  0.5231
 6972W        W10716   8.007   1.774   1.172 -0.0835 -0.2504 -0.1342
 6973W        W10717   9.781   9.028   0.309 -0.0735 -0.0341  0.3054
 6974W        W10718   9.935   8.795  12.679  0.1035 -0.2600  0.1947
 6975W        W10719   4.178   7.864   9.043 -0.0124 -0.0471  0.0687
 6976W        W10720   6.274   5.434   3.067  0.1904 -0.1489 -0.4616
 6977W        W10721   1.081   3.173   1.073  0.0500  0.0851 -0.0036
 6978W        W10722   5.323   8.489   2.863 -0.0158  0.1334  0.0546
 6979W        W10723   9.616   0.698   0.855 -0.2147  0.2774 -0.0921
 6980W        W10724   1.835   6.276  11.371  0.0016  0.1175 -0.2432
 6981W        W10725   1.823   6.622  10.508  0.0922  0.3438  0.1357
 6982W        W10726   9.396   0.602  12.198  0.0147  0.0687  0.1801
 6983W        W10727   6.706   6.052   1.353  0.0038  0.0894 -0.0170
 6984W        W10728   4.862   0.683   7.914 -0.1427  0.0425  0.0270
 6985W        W10729   6.344   7.616   2.512 -0.1463  0.0524  0.4687
 6986W        W10730   0.376   7.862   0.392  0.2409 -0.2663  0.0798
 6987W        W10731   2.193   2.401   1.300 -0.0408  0.1373  0.2206
 6988W        W10732   9.224   3.840   3.412  0.4237  0.3611 -0.0215
 6989W        W10733   4.669   3.969  12.237  0.0657 -0.1198 -0.1689
 6990W        W10734   4.028   1.040   3.628  0.2117  0.0251  0.0585
 6991W        W10735   9.370   0.179   4.025  0.2767 -0.0455 -0.2729
 6992W        W10736   2.592   3.278   3.069 -0.5005 -0.0612 -0.0239
 6993W        W10737   5.479   3.098   4.656  0.1618  0.0599 -0.0400
 6994W        W10738   6.599   2.762  12.629 -0.3619 -0.0847 -0.1138
 6995W        W10739   8.006   2.469   3.263  0.0114 -0.0717  0.2483
 6996W        W10740   7.347   8.922   0.128 -0.2319  0.0295  0.2041
 6997W        W10741   3.378   8.047   0.732 -0.1899  0.0515  0.3628
 6998W        W10742   3.993   4.007   0.748  0.0447 -0.0497 -0.0014
 6999W        W10743   1.387   4.362  12.638 -0.1383 -0.1378 -0.2484
 7000W        W10744   4.965   6.581   5.181  0.1389  0.2455  0.0257
 7001W        W10745   1.181   5.968  10.704  0.2248 -0.0440 -0.1657
 7002W        W10746   4.851   0.786   3.379  0.0811  0.0765 -0.3334
 7003W        W10747   7.417   4.232   9.790  0.1457  0.0569 -0.1508
 7004W        W10748   8.458   0.688  12.302 -0.1136  0.0489 -0.3384
 7005W        W10749   9.396   5.375  12.252 -0.1190  0.1021  0.0331
 7006W        W10750   9.112   7.697   0.761  0.2543 -0.1562  0.1291
 7007W        W10751   0.018   4.478  11.405 -0.0567  0.1004  0.1508
 7008W        W10752   9.491   1.602   3.689  0.3261 -0.2411 -0.2000
 7009W        W10753   5.514   1.303  10.360 -0.1252  0.3431  0.0900
 7010W        W10754   7.163   2.006   1.864  0.0890 -0.1127  0.0338
 7011W        W10755   2.636   2.595   2.863  0.4957 -0.2233 -0.0608
 7012W        W10756   6.663   5.021  12.309 -0.1264  0.0083 -0.2470
 7013W        W10757   9.756   6.029  10.483  0.2087  0.0224 -0.2002
 7014W        W10758   0.423   1.882  10.043 -0.1057 -0.0714  0.0676
 7015W        W10759   5.988   8.913   4.241 -0.2361 -0.0677 -0.3125
 7016W        W10760   8.878   8.031   1.624 -0.0664  0.0009 -0.0069
 7017W        W10761   0.096   9.344  12.181  0.2317  0.0046  0.0219
 7018W        W10762   3.734   2.175  10.546 -0.1664  0.2705 -0.0714
 7019W        W10763   0.030   4.450   3.286  0.4361  0.3175 -0.1897
 7020W        W10764   5.463   2.885   0.356  0.0886  0.0736  0.0855
 7021W        W10765   5.636   9.168   9.147 -0.0767 -0.0840 -0.0759
 7022W        W10766   9.911   2.513   1.068 -0.1646 -0.0881  0.0610
 7023W        W10767   9.691   2.755   9.263  0.2550 -0.0054  0.0117
 7024W        W10768   3.559   0.522   0.334  0.1221 -0.1682  0.0478
 7025W        W10769   9.091   3.002   2.699 -0.0635 -0.1291 -0.1917
 7026W        W10770   5.423   4.870   1.998 -0.0708 -0.2903  0.1793
 7027W        W10771   0.958   1.880   1.709 -0.1798 -0.2561  0.1198
 7028W        W10772   4.122   2.876   3.516 -0.2102 -0.0766  0.1531
 7029W        W10773   4.501   1.097  12.077 -0.0727  0.3779  0.1448
 7030W        W10774   6.048   4.944  10.551 -0.1615 -0.0300 -0.2217
 7031W        W10775   4.510   8.961   1.626  0.0125 -0.1404 -0.0048
 7032W        W10776   9.018   8.146   2.387 -0.3982  0.0614 -0.1038
 7033W        W10777   6.195   0.538   9.475  0.2795 -0.2733 -0.1608
 7034W        W10778   4.819   1.733   1.487 -0.2630 -0.1318 -0.0323
 7035W        W10779   2.502   8.898   1.213  0.2007  0.0462  0.3563
 7036W        W10780   9.499   2.447   4.402 -0.1980  0.2902  0.2186
 7037W        W10781   6.901   5.802   3.563 -0.2634 -0.1365 -0.0855
 7038W        W10782   3.303   2.927  12.213  0.1133  0.1689 -0.2649
 7039W        W10783   7.247   6.016  12.144 -0.3258  0.0540  0.3309
 7040W        W10784   8.817   2.791   0.213  0.1281  0.3741 -0.1134
 7041W        W10785   1.759   1.544  11.014 -0.0329 -0.1978  0.1012
 7042W        W10786   7.245   3.067   4.221 -0.1326  0.1271 -0.0055
 7043W        W10787   6.933   9.061   4.040  0.0243 -0.1579  0.2964
 7044W        W10788   1.174   8.431   0.780  0.3113 -0.1156 -0.0316
 7045W        W10789   6.835   2.580  10.647  0.0774 -0.2578 -0.3242
 7046W        W10790   1.498   6.773  10.874  0.2103 -0.1984 -0.0057
 7047W        W10791   9.371   1.132   0.051 -0.1044  0.1397 -0.0956
 7048W        W10792   0.766   6.184  10.504  0.0934 -0.0952  0.1751
 7049W        W10793   2.468   5.497  11.467  0.0781  0.2850 -0.1985
 7050W        W10794   4.911   7.845   1.602 -0.0784  0.1612  0.0598
 7051W        W10795   7.087   3.783  10.100 -0.1139  0.1830 -0.0621
 7052W        W10796   2.972   5.529  11.509 -0.1028 -0.0395  0.2586
 7053W        W10797   3.541   3.453  11.471  0.5023 -0.0009 -0.1781
 7054W        W10798   6.697   8.513   0.989  0.0261 -0.2620  0.0857
 7055W        W10799   1.908   9.036   2.298 -0.2658 -0.1707 -0.0252
 7056W        W10800   1.843   1.519   1.125 -0.3357 -0.0390  0.0234
 7057W        W10801   5.058   6.089  11.699 -0.1554  0.0210  0.0083
 7058W        W10802   1.862   9.235  10.177  0.0841  0.0010  0.2480
 7059W        W10803   3.742   8.250  11.667  0.1063  0.0129 -0.0188
 7060W        W10804   3.892   1.739  11.475 -0.2644 -0.1543  0.2344
 7061W        W10805   8.085   1.928   3.712 -0.0372 -0.5358  0.0876
 7062W        W10806   4.195   7.753   3.034 -0.2287 -0.0730 -0.1244
 7063W        W10807   1.849   4.211   1.155 -0.3320  0.0385  0.0210
 7064W        W10808   6.537   7.664   0.008  0.3776  0.0163 -0.0603
 7065W        W10809   5.701   7.573   0.422 -0.0511 -0.0657  0.1050
 7066W        W10810   1.730   0.799   2.134  0.0563  0.0010  0.1484
 7067W        W10811   0.369   7.946   3.469  0.0621  0.0164  0.1881
 7068W        W10812   4.971   2.791   2.437  0.2024 -0.2951 -0.1858
 7069W        W10813   5.019   3.583  12.557  0.4528  0.0992 -0.3075
 7070W        W10814   6.271   9.214   8.868  0.2404  0.0004 -0.0145
 7071W        W10815   6.119   5.152   9.653 -0.2633  0.2724  0.2989
 7072W        W10816   8.113   8.710  12.772 -0.1238  0.2397 -0.2165
 7073W        W10817   7.336   9.434   3.273 -0.1004 -0.3790 -0.2423
 7074W        W10818   4.513   1.993  10.143 -0.0691 -0.0530  0.1710
 7075W        W10819   6.122   5.608   9.705  0.0240  0.1187 -0.0002
 7076W        W10820   5.533   3.879  12.536  0.1039  0.0883  0.0371
 7077W        W10821   2.347   8.725   2.641 -0.1484  0.1753  0.0363
 7078W        W10822   2.205   0.561   0.485  0.0269  0.1899 -0.1811
 7079W        W10823   2.997   3.013   4.011 -0.1744 -0.3327 -0.0263
 7080W        W10824   2.034   9.188   1.190  0.0175 -0.0277 -0.2369
 7081W        W10825   0.544   9.784   0.629  0.0513  0.3606 -0.0418
 7082W        W10826   9.817   1.582  10.851  0.2653 -0.0195  0.0087
 7083W        W10827   7.064   5.231  11.370 -0.0761  0.3571 -0.0549
 7084W        W10828   4.491   5.656   0.125 -0.0605  0.0530 -0.3058
 7085W        W10829   6.058   5.828  11.795  0.1592  0.2123  0.2027
 7086W        W10830   6.392   8.666   3.972  0.1619  0.0570  0.1419
 7087W        W10831   6.329   1.869  12.706  0.0701  0.0560 -0.1249
 7088W        W10832   6.051   2.381   2.523 -0.1479  0.0167 -0.4548
 7089W        W10833   9.047   9.293  10.322 -0.2583  0.2577  0.1291
 7090W        W10834   3.963   4.658  11.313 -0.0739 -0.0103 -0.3431
 7091W        W10835   4.983   0.718  10.223  0.1078  0.0865 -0.2470
 7092W        W10836   6.343   1.393  10.767 -0.2365 -0.0099 -0.1170
 7093W        W10837   6.370   9.306  10.567 -0.1290 -0.1765 -0.0588
 7094W        W10838   1.591   0.090  12.329  0.1811  0.2212 -0.1803
 7095W        W10839   9.747   3.182  11.443 -0.0193  0.0955  0.3179
 7096W        W10840   6.088   1.216  10.256  0.1163  0.1736 -0.0335
 7097W        W10841   7.333   3.361  10.016 -0.1048 -0.0636 -0.4749
 7098W        W10842   1.385   2.053  10.446  0.1108  0.1244  0.3123
 7099W        W10843   9.932   4.742   1.496 -0.3482 -0.0472  0.0671
 7100W        W10844   8.884   8.100  11.815  0.0365 -0.4587  0.0169
 7101W        W10845   6.910   5.831   0.872  0.3767  0.1122 -0.1091
 7102W        W10846   4.591   5.445   2.286  0.0685  0.2901 -0.2164
 7103W        W10847   7.253   3.238   9.542 -0.3119 -0.2302  0.1722
 7104W        W10848   7.231   6.131  11.103  0.2956 -0.1569 -0.0939
 7105W        W10849   5.511   7.914  10.345 -0.1117 -0.1750  0.0794
 7106W        W10850   2.915   8.912   9.363 -0.2887  0.1432  0.1739
 7107W        W10851   4.308   8.207   9.893 -0.0569 -0.0943 -0.1064
 7108W        W10852   5.325   9.435   0.291 -0.0881 -0.1933  0.1037
 7109W        W10853   8.872   9.615  10.609  0.5524 -0.0045  0.2022
 7110W        W10854   4.818   5.081  11.692  0.2048  0.2559  0.1413
 7111W        W10855   3.656   7.426  11.370 -0.2278  0.2607 -0.0786
 7112W        W10856   9.105   3.342   3.177  0.0011  0.3007 -0.2822
 7113W        W10857   2.683   1.101   0.077  0.4739  0.0291  0.2119
 7114W        W10858   8.832   3.174  10.502  0.1526  0.3264  0.5585
 7115W        W10859   1.308   6.435  11.322  0.3282  0.2676 -0.0428
 7116W        W10860   2.519   6.118   0.164 -0.0826  0.0884 -0.1452
 7117W        W10861   5.803   9.668   9.235  0.0427 -0.1206  0.0677
 7118W        W10862   4.726   2.112   2.896  0.2450 -0.0745 -0.2866
 7119W        W10863   5.529   6.128  10.084 -0.2570 -0.0891 -0.0310
 7120W        W10864   4.853   2.456   4.551 -0.6675 -0.0672 -0.0139
 7121W        W10865   2.168   5.256   0.827 -0.0393  0.2758 -0.1218
 7122W        W10866   3.105   8.969   3.208 -0.2981  0.0558 -0.1561
 7123W        W10867   0.369   1.032  11.618  0.1775  0.3760 -0.1913
 7124W        W10868   1.070   6.549   1.430  0.3009  0.3572 -0.0268
 7125W        W10869   1.409   3.977   1.342 -0.0826 -0.0677  0.2032
 7126W        W10870   2.651   5.737  10.513 -0.0890  0.1521  0.2134
 7127W        W10871   5.396   1.230   0.045 -0.1796 -0.0090 -0.0187
 7128W        W10872   4.405   2.346   3.278 -0.2737  0.1428  0.1312
 7129W        W10873   5.111   8.664  11.256  0.1854  0.1348  0.0786
 7130W        W10874   9.051   8.477   1.492 -0.0481 -0.1117 -0.1342
 7131W        W10875   4.964   7.483  11.968  0.3537 -0.3166 -0.1590
 7132W        W10876   5.792   6.006   2.596 -0.1836  0.1872 -0.0489
 7133W        W10877   1.432   3.703   4.037 -0.1274  0.1814  0.0325
 7134W        W10878   6.745   5.137   4.831  0.0686  0.1822 -0.0166
 7135W        W10879   1.961   0.157  10.116 -0.0378 -0.0886  0.0298
 7136W        W10880   5.907   8.641   0.946 -0.1772 -0.1528  0.1686
 7137W        W10881   6.701   2.571  12.191 -0.1088 -0.0574  0.1965
 7138W        W10882   6.648   7.397   2.800 -0.1472  0.2314 -0.0313
 7139W        W10883   9.732   3.290   2.134  0.1696 -0.1122  0.1713
 7140W        W10884   0.536   9.018  11.465  0.1192  0.1239 -0.1101
 7141W        W10885   7.540   4.701  10.796 -0.2189  0.1942 -0.0157
 7142W        W10886   1.358   2.355   9.250  0.2091  0.0640 -0.1016
 7143W        W10887   0.493   4.622   3.172 -0.1903 -0.2066 -0.0107
 7144W        W10888   4.212   2.875  10.313  0.2530  0.0536  0.0204
 7145W        W10889   1.072   7.381   3.783 -0.0057 -0.0302 -0.2194
 7146W        W10890   1.653   7.726  11.673  0.0202 -0.1962  0.2360
 7147W        W10891   6.624   1.775   3.409  0.0084  0.1891 -0.3219
 7148W        W10892   2.178   5.283   9.955  0.1651 -0.0811  0.0519
 7149W        W10893   7.503   2.841   2.336 -0.0158 -0.0417  0.1007
 7150W        W10894   4.167   1.443  12.337 -0.2833  0.0476  0.2424
 7151W        W10895   6.201   8.497   0.500  0.2781  0.1457  0.0867
 7152W        W10896   3.392   2.004   9.634  0.1535  0.0157  0.1321
 7153W        W10897   5.598   9.149  10.780 -0.0132 -0.1003 -0.0953
 7154W        W10898   5.007   9.538   3.713 -0.1326 -0.2950  0.2126
 7155W        W10899   3.174   5.212   9.832 -0.0149 -0.1857  0.0823
 7156W        W10900   5.052   2.737   1.523 -0.2208 -0.0663 -0.0880
 7157W        W10901   1.399   5.782   3.944  0.2137 -0.0374 -0.0675
 7158W        W10902   5.360   4.556   1.141 -0.0060 -0.3106 -0.1445
 7159W        W10903   6.331   3.068   9.376 -0.1576 -0.1791 -0.1830
 7160W        W10904   8.802   8.624  10.973 -0.0499  0.2702 -0.1664
 7161W        W10905   7.783   7.023   1.009 -0.1033 -0.2075  0.2996
 7162W        W10906   1.900   0.328   2.038  0.1531  0.3394 -0.1008
 7163W        W10907   7.864   3.555   3.601 -0.0004 -0.1380  0.1016
 7164W        W10908   0.527   1.576   2.224  0.2628  0.0570 -0.0436
 7165W        W10909   8.362   3.213  12.274  0.2061  0.1522 -0.0130
 7166W        W10910   5.931   8.579   8.893  0.1498 -0.1491  0.1659
 7167W        W10911   0.923   4.565   4.096 -0.2700 -0.0176  0.0837
 7168W        W10912   3.148   0.843   1.104 -0.3185 -0.1579  0.3710
 7169W        W10913   2.734   1.085  10.632  0.0363  0.2029 -0.1276
 7170W        W10914   6.149   9.787   0.249 -0.0856 -0.0445  0.1481
 7171W        W10915   5.084   9.747   1.760  0.1188 -0.0534 -0.0100
 7172W        W10916   1.602   1.394   0.142 -0.2228  0.1320 -0.3293
 7173W        W10917   7.194   5.420   4.556  0.0232 -0.0160 -0.3437
 7174W        W10918   7.562   5.506  12.071  0.3615 -0.2801  0.0455
 7175W        W10919   0.673   9.735  11.903 -0.0004 -0.4017  0.1660
 7176W        W10920   5.353   1.658  10.076 -0.2271 -0.0156 -0.0778
 7177W        W10921   8.012   0.187  10.713  0.0942 -0.2768 -0.1615
 7178W        W10922   9.717   8.394   1.081 -0.0021 -0.0987  0.3631
 7179W        W10923   5.976   3.552   3.793  0.1551 -0.2574  0.4660
 7180W        W10924   6.454   7.466  11.193  0.1292 -0.1681 -0.1942
 7181W        W10925   7.386   8.116  12.055 -0.1294  0.0052  0.1455
 7182W        W10926   8.272   3.132   8.162 -0.1291 -0.2515 -0.1945
 7183W        W10927   8.093   4.783  12.508 -0.0484  0.0916 -0.3016
 7184W        W10928   1.986   9.625   0.789 -0.0784  0.1196  0.3101
 7185W        W10929   0.112   7.466  11.910 -0.2461  0.3137 -0.0694
 7186W        W10930   7.005   7.092   3.003 -0.0149  0.1662 -0.3952
 7187W        W10931   7.992   4.787   2.219  0.1890  0.2379 -0.0713
 7188W        W10932   2.135   3.830   9.978 -0.2904  0.1434 -0.1920
 7189W        W10933   2.395   6.063   1.418 -0.0065 -0.0113  0.0007
 7190W        W10934   3.980   8.062   2.686 -0.1199 -0.2470 -0.4161
 7191W        W10935   8.484   6.226  10.444  0.0882 -0.1656  0.0011
 7192W        W10936   5.329   4.522   4.430  0.2390  0.3915 -0.2743
 7193W        W10937   4.218   7.792   3.700  0.0502  0.0132  0.1619
 7194W        W10938   3.015   1.494   4.837  0.0373 -0.0480 -0.2883
 7195W        W10939   0.465   3.754   0.358 -0.1117 -0.1121 -0.2161
 7196W        W10940   3.882   0.966   3.121  0.0154  0.3022 -0.1496
 7197W        W10941   5.537   4.437  11.229 -0.1704 -0.0114 -0.3373
 7198W        W10942   2.055   3.965   4.090 -0.1837 -0.4143  0.0623
 7199W        W10943   5.338   7.163  12.206  0.0162 -0.1223  0.1285
 7200W        W10944   3.712   4.610   3.578  0.0051  0.0499  0.4097
 7201W        W10945   0.884   3.415   3.579 -0.1517  0.2639 -0.2235
 7202W        W10946   7.364   2.498  10.417 -0.0941  0.0422  0.1391
 7203W        W10947   9.246   8.674   0.979  0.5192 -0.1079 -0.3050
 7204W        W10948   2.753   0.715   8.879  0.0996 -0.3824  0.1823
 7205W        W10949   3.735   6.597  11.358 -0.2015  0.1269 -0.2494
 7206W        W10950   1.009   9.499  12.477 -0.0506  0.5317 -0.4110
 7207W        W10951   8.495   9.240  10.545  0.0050  0.0673  0.1955
 7208W        W10952   6.841   5.101   2.595 -0.0434  0.0620 -0.0727
 7209W        W10953   0.807   1.085  12.804  0.2231 -0.6200 -0.0448
 7210W        W10954   8.748   9.480   8.556 -0.0496  0.0651 -0.2005
 7211W        W10955   5.867   0.294   1.713 -0.1060 -0.0984 -0.0122
 7212W        W10956   5.089   6.334  11.134 -0.3296  0.0196 -0.0424
 7213W        W10957   5.498   7.434  12.723  0.0045  0.1616 -0.3736
 7214W        W10958   9.106   0.218   0.104  0.1699  0.4397  0.0699
 7215W        W10959   8.184   3.500  11.149  0.3480 -0.0761  0.1864
 7216W        W10960   5.338   9.917  12.066  0.1164  0.0928 -0.0429
 7217W        W10961   4.712   2.471  12.090  0.0469  0.1201 -0.1881
 7218W        W10962   8.224   6.228   3.844 -0.0130 -0.2492  0.0937
 7219W        W10963   5.077   5.652  11.983 -0.0790  0.1108 -0.2339
 7220W        W10964   3.163   0.850   9.111 -0.1690  0.1045  0.1652
 7221W        W10965   5.324   7.634   1.865  0.2365  0.1660  0.3265
 7222W        W10966   8.116   0.589  11.969 -0.1576 -0.2103  0.0152
 7223W        W10967   3.519   0.657  12.576  0.1818  0.0790  0.0797
 7224W        W10968   9.092   0.474  10.581  0.2935 -0.1484 -0.3394
 7225W        W10969   0.942   4.234   1.254 -0.3660 -0.0548  0.0747
 7226W        W10970   0.213   9.545   0.266 -0.2332 -0.1175  0.0415
 7227W        W10971   9.228   9.607   9.161 -0.1612  0.1296 -0.1002
 7228W        W10972   8.350   6.788   2.688 -0.1214 -0.0446 -0.1299
 7229W        W10973   6.560   4.822   2.279 -0.1480 -0.1170 -0.0837
 7230ION    NA+10974   9.207   6.001   4.003  0.0962 -0.1647  0.0681
 7231ION    NA+10975   8.682   6.604   2.986  0.2017 -0.1573  0.0861
 7232ION    NA+10976   7.893   7.901   9.034  0.1196  0.0271  0.1289
 7233ION    NA+10977   5.510   1.631   0.849  0.0901  0.1581  0.1670
 7234ION    NA+10978   4.368   9.760   1.756  0.2154 -0.2072 -0.0427
 7235ION    NA+10979   4.798   5.859   9.885 -0.1031  0.0546  0.0035
 7236ION    NA+10980   9.581   7.105   0.555  0.0072 -0.1265  0.0101
 7237ION    NA+10981   0.532   3.311   9.736 -0.0520  0.0800  0.0832
 7238ION    NA+10982   2.776   8.911  11.081  0.4942  0.2329  0.3110
 7239ION    NA+10983   6.959   9.001   0.965 -0.1733 -0.1662  0.2465
 7240ION    NA+10984   8.301   1.572  10.958  0.0611  0.0017  0.1086
 7241ION    NA+10985   6.470   3.657  12.326  0.0858  0.2634  0.1565
 7242ION    NA+10986   8.199   7.443  10.770 -0.0651 -0.3340  0.1846
 7243ION    NA+10987   5.204   2.887   3.664  0.2160 -0.0036  0.1090
 7244ION    NA+10988   8.776   3.623   4.710  0.0237  0.4999  0.1023
 7245ION    NA+10989   2.169   3.803   4.654 -0.0033 -0.1019 -0.0652
 7246ION    NA+10990   4.737   1.405   2.447  0.1222  0.3780  0.1572
 7247ION    NA+10991   9.693   8.360   9.561 -0.0900  0.3246  0.2036
 7248ION    NA+10992   2.599   5.364   8.647 -0.1495  0.1912  0.3841
 7249ION    NA+10993   3.927   7.703   2.323 -0.0476 -0.2440 -0.0127
 7250ION    NA+10994   7.300   0.601   0.790  0.0387  0.0405 -0.1427
 7251ION    NA+10995   6.448   4.075   0.939  0.0756 -0.1071 -0.1670
 7252ION    NA+10996   3.490   5.549  10.462 -0.1814 -0.0367  0.1623
 7253ION    NA+10997   4.154   8.491   3.968 -0.0494 -0.2132 -0.2215
 7254ION    NA+10998   7.987   0.093   0.196 -0.0633  0.1480 -0.0813
 7255ION    NA+10999   8.119   1.987  12.230  0.1954 -0.3342 -0.0496
 7256ION    NA+11000   4.553   3.690  12.746 -0.1803  0.1269  0.1205
 7257ION    NA+11001   5.798   8.764   2.643 -0.3181  0.1421  0.1385
 7258ION    NA+11002   1.237   5.996   3.495 -0.0306 -0.0074  0.2644
 7259ION    NA+11003   3.033   0.476   8.415  0.0949 -0.1156 -0.0140
 7260ION    NA+11004   3.149   0.292   0.071  0.1478  0.0884  0.3182
 7261ION    NA+11005   4.539   0.378   2.625 -0.3155  0.1266 -0.0378
 7262ION    NA+11006   7.736   8.056   4.487 -0.2160 -0.2133 -0.0067
 7263ION    NA+11007   0.493   1.923   4.043 -0.0914 -0.3062  0.4188
 7264ION    NA+11008   9.380   9.473   4.177 -0.2510  0.1363 -0.1865
 7265ION    NA+11009   0.993   9.075   3.346  0.2880  0.2124 -0.4736
 7266ION    NA+11010   2.578   5.143   0.098 -0.3041  0.0373  0.0049
 7267ION    NA+11011   7.058   3.764   0.133 -0.0341 -0.0730 -0.0654
 7268ION    NA+11012   8.105   6.909  12.478 -0.3807 -0.1159  0.0546
 7269ION    NA+11013   4.226   5.696   4.677  0.1106  0.1966  0.0993
 7270ION    NA+11014   4.913   2.861   0.201 -0.0736  0.4878 -0.0696
 7271ION    NA+11015   2.825   0.240   1.728  0.5544 -0.4175 -0.0771
 7272ION    NA+11016   1.367   7.727   3.599  0.1765 -0.0187  0.1128
 7273ION    NA+11017   0.935   2.346  12.191  0.1568  0.0156 -0.4379
 7274ION    NA+11018   6.322   7.127  12.717 -0.2107 -0.3576 -0.3358
 7275ION    NA+11019   9.862   2.946   8.359  0.0423  0.0783 -0.2864
 7276ION    NA+11020   5.548   4.343   0.698  0.0373  0.2064  0.1941
 7277ION    NA+11021   5.662   9.950   7.770 -0.1702 -0.3075 -0.2415
 7278ION    NA+11022   9.652   7.153   2.467 -0.1292  0.0746 -0.0603
 7279ION    NA+11023   5.697   9.484   9.722  0.0827 -0.1109  0.2150
 7280ION    NA+11024   1.904   2.245   3.492 -0.3616  0.1822  0.0175
 7281ION    NA+11025   3.691   9.556  11.172 -0.0619  0.0309 -0.0678
 7282ION    NA+11026   4.795   6.944   2.388  0.1853  0.3218  0.1197
 7283ION    NA+11027   4.907   9.533   4.675  0.0876 -0.0194  0.0223
 7284ION    NA+11028   4.951   5.915   3.615  0.1647 -0.2328 -0.3193
 7285ION    NA+11029   8.179   3.324  11.616  0.1190 -0.1092 -0.0811
 7286ION    NA+11030   4.042   1.473   3.257  0.2303  0.1319  0.0947
 7287ION    NA+11031   8.692   6.795   0.824  0.1855  0.1327 -0.0513
 7288ION    NA+11032   8.263   8.531   4.129  0.1738  0.2336 -0.3649
 7289ION    NA+11033   7.629   8.886   8.959 -0.1523  0.0354 -0.0741
 7290ION    NA+11034   8.784   3.466   2.679 -0.2597 -0.0400 -0.1795
 7291ION    NA+11035   4.755   1.559   4.648  0.2448 -0.1127 -0.1377
 7292ION    NA+11036   0.238   5.329   9.237 -0.1980 -0.1408 -0.1872
 7293ION    NA+11037   6.342   1.689  10.302 -0.0959  0.2866 -0.2516
 7294ION    NA+11038   3.998   4.204   0.260 -0.2810  0.1045 -0.2660
 7295ION    NA+11039   0.966   4.680  11.688  0.1703  0.0975  0.0909
 7296ION    NA+11040   0.954   3.414   0.147  0.2244  0.2123 -0.0619
 7297ION    NA+11041   0.388   1.598  11.063  0.1346 -0.2801 -0.2230
 7298ION    NA+11042   6.392   6.226  11.693  0.0767 -0.0922 -0.0043
 7299ION    NA+11043   5.304   0.391   3.362 -0.0768 -0.0659 -0.0341
 7300ION    NA+11044   7.898   4.952   3.873  0.2406  0.1418  0.0543
 7301ION    NA+11045   3.416   2.439   8.121 -0.2102 -0.2789 -0.3161
 7302ION    NA+11046   1.370   5.376  12.449 -0.0040 -0.0270  0.1264
 7303ION    NA+11047   6.988   2.084  10.714 -0.0623  0.0664  0.0675
 7304ION    NA+11048   6.639   2.116  12.374 -0.0515 -0.2656  0.1237
 7305ION    NA+11049   1.298   1.990  11.363 -0.0540  0.1933 -0.0627
 7306ION    CL-11050   4.810   5.464   9.573  0.0538 -0.2900 -0.2194
 7307ION    CL-11051   7.788   1.560  10.823  0.0186  0.1849  0.1086
 7308ION    CL-11052   8.473   8.105  10.199  0.2452 -0.0908  0.3037
 7309ION    CL-11053   0.346   2.258   3.693 -0.0515 -0.2305  0.1339
 7310ION    CL-11054   4.520   8.327   0.742 -0.0533 -0.1568 -0.4611
 7311ION    CL-11055   8.561   3.133   3.023 -0.3352 -0.2849 -0.0380
 7312ION    CL-11056   4.469   8.856   3.696  0.1055  0.0904  0.0874
 7313ION    CL-11057   5.242   2.598  12.762  0.3566 -0.0372 -0.2213
 7314ION    CL-11058   6.880   3.885  12.447  0.0338  0.2095 -0.1304
 7315ION    CL-11059   3.103   9.717   9.677 -0.0803 -0.0377 -0.0514
 7316ION    CL-11060   1.642   6.196   1.311  0.0485 -0.1382  0.0065
 7317ION    CL-11061   8.770   8.654   1.115  0.0504  0.3067 -0.0665
 7318ION    CL-11062   2.589   8.069  12.281 -0.1987  0.1971 -0.1325
 7319ION    CL-11063   0.780   2.962   0.064  0.2074 -0.2229  0.1870
 7320ION    CL-11064   7.891   7.308  10.365 -0.4623  0.1316 -0.2976
 7321ION    CL-11065   3.046   3.034   1.382 -0.1703  0.4120 -0.0564
 7322ION    CL-11066   1.226   3.767   0.533  0.1148 -0.1233  0.1984
 7323ION    CL-11067   9.115   7.167   0.602  0.1196 -0.0348 -0.0143
 7324ION    CL-11068   4.104   3.333   9.320 -0.0246  0.1746 -0.0169
 7325ION    CL-11069   6.141   0.144   8.597 -0.1670  0.0980  0.1864
 7326ION    CL-11070   4.130   9.656   1.277  0.0307 -0.2376  0.1794
 7327ION    CL-11071   6.932   3.807   0.985  0.2167  0.0815 -0.2171
 7328ION    CL-11072   0.570   2.827   9.778  0.2324  0.1052  0.0560
 7329ION    CL-11073   8.905   3.759   0.265  0.2184  0.2714  0.2753
 7330ION    CL-11074   7.717   4.489   3.775  0.4505 -0.0339 -0.3591
 7331ION    CL-11075   7.214   8.603   1.087  0.1512 -0.1435  0.1756
 7332ION    CL-11076   4.697   4.619   1.413 -0.3450  0.0792  0.1354
 7333ION    CL-11077   2.058   3.673   9.412  0.0198  0.1655 -0.0456
 7334ION    CL-11078   7.990   5.420   4.051  0.1222  0.0233  0.1133
 7335ION    CL-11079   6.254   6.566  12.229 -0.0303 -0.0523 -0.2562
 7336ION    CL-11080   7.683   0.327   0.537  0.0762  0.2033 -0.0928
 7337ION    CL-11081   3.045   5.617   0.743 -0.0241  0.0113  0.1528
 7338ION    CL-11082   6.656   4.889   3.470 -0.0243 -0.0601  0.1819
 7339ION    CL-11083   4.562   7.366   2.479 -0.0338 -0.0858  0.4078
 7340ION    CL-11084   2.096   5.099  12.765  0.1391 -0.0329  0.1186
 7341ION    CL-11085   7.855   5.516   9.610  0.2318 -0.0579  0.0732
 7342ION    CL-11086   1.714   2.299  10.216 -0.0970 -0.1913 -0.1373
 7343ION    CL-11087   1.103   5.013  12.076 -0.2661  0.1311  0.3199
 7344ION    CL-11088   7.573   0.462   2.888 -0.2674 -0.1207 -0.0751
 7345ION    CL-11089   6.446   5.987  11.229 -0.0226  0.0011  0.4590
 7346ION    CL-11090   4.623   0.008   2.225 -0.1736 -0.1265  0.0774
 7347ION    CL-11091   5.566   6.640   2.935  0.1490 -0.1740  0.1351
 7348ION    CL-11092   4.748   1.373   2.994 -0.0748 -0.2176 -0.1151
 7349ION    CL-11093   1.653   7.488  12.138 -0.0489  0.1302 -0.1650
 7350ION    CL-11094   7.179   2.114  12.306 -0.0157 -0.0041 -0.0989
 7351ION    CL-11095   1.090   2.074  10.915 -0.0876 -0.1728  0.0769
 7352ION    CL-11096   5.843   1.789  10.159 -0.0117 -0.1620 -0.0503
 7353ION    CL-11097   7.343   8.460  11.194 -0.1074 -0.4257 -0.0066
 7354ION    CL-11098   9.198   2.812   8.954  0.0417 -0.2128  0.2941
 7355ION    CL-11099   6.899   2.156   1.126 -0.3202  0.0096  0.1994
 7356ION    CL-11100   5.401   7.341   4.101 -0.2602 -0.1657 -0.0511
 7357ION    CL-11101   8.369   6.956   3.136  0.0091 -0.1462  0.1514
 7358ION    CL-11102   5.289   0.652   2.950  0.0848  0.0755 -0.3604
 7359ION    CL-11103   7.273   2.844   3.702  0.4124 -0.2249 -0.2708
 7360ION    CL-11104   0.604   8.028  11.832  0.0614 -0.1689  0.1420
 7361ION    CL-11105   0.428   1.538  11.560  0.2177  0.1756 -0.6710
 7362ION    CL-11106   1.699   4.724   3.643 -0.0777  0.0399  0.3917
 7363ION    CL-11107   5.846   7.540   4.001  0.2598  0.0935 -0.1933
 7364ION    CL-11108   9.384   5.373  11.750 -0.1460 -0.1421 -0.0528
 7365ION    CL-11109   4.746   2.411   0.569  0.1969  0.0088  0.1755
 7366ION    CL-11110   2.295   9.340  10.405 -0.3110  0.0651 -0.3575
 7367ION    CL-11111   5.019   6.443   9.321 -0.0907 -0.1274 -0.0815
 7368ION    CL-11112   6.383   6.912   9.439  0.1754 -0.0350 -0.3723
 7369ION    CL-11113   8.286   4.039   9.541  0.1618 -0.1134  0.1133
 7370ION    CL-11114   6.863   1.606  10.461 -0.2018 -0.0153  0.1256
 7371ION    CL-11115   2.330   2.167   9.130  0.1846  0.2968  0.0043
 7372ION    CL-11116   3.120   0.882   1.933  0.0386 -0.2491 -0.3768
 7373ION    CL-11117   5.770   6.226   4.663  0.1606  0.2287  0.0840
 7374ION    CL-11118   3.608   3.354   2.798  0.0131 -0.0844  0.0366
 7375ION    CL-11119   7.887   8.200   4.028  0.2814  0.1358  0.1184
 7376ION    CL-11120   0.195   1.740  10.499 -0.2425 -0.2753  0.2169
 7377ION    CL-11121   3.245   9.015  11.209  0.1494 -0.1425 -0.2513
 7378ION    CL-11122   5.206   4.389   3.910  0.0342  0.3006 -0.0208
 7379ION    CL-11123   9.918   1.385   0.051  0.0055 -0.3654  0.5756
 7380ION    CL-11124   4.768   5.825   3.164  0.2474  0.1117  0.3157
 7381ION    CL-11125   3.977   3.812  12.744 -0.0466  0.3297  0.2318
   9.95338   9.95338  12.80678
