Protein in INSANE! Membrane UpperLeaflet>POPC=1.0 LowerLeaflet>POPC=1.0
11530
    1AU     AUC    1   5.255   5.281   6.002
    1AU     AUC    2   5.555   5.321   5.831
    1AU     AUC    3   5.535   5.300   6.169
    1AU     AUC    4   4.964   5.263   5.840
    1AU     AUC    5   4.966   5.264   6.190
    1AU     AUC    6   5.065   5.527   6.021
    1AU     AUC    7   5.406   5.558   6.004
    1AU     AUC    8   5.097   4.997   6.007
    1AU     AUC    9   5.458   5.045   5.993
    1AU     AUC   10   5.293   5.113   6.271
    1AU     AUC   11   5.238   5.440   6.281
    1AU     AUC   12   5.270   5.122   5.724
    1AU     AUC   13   5.269   5.458   5.732
    1AU     AUC   14   5.860   5.350   5.674
    1AU     AUC   15   5.902   5.343   5.994
    1AU     AUC   16   5.840   5.305   6.362
    1AU     AUC   17   4.662   5.239   5.670
    1AU     AUC   18   4.627   5.288   6.037
    1AU     AUC   19   4.685   5.254   6.368
    1AU     AUC   20   4.895   5.829   6.005
    1AU     AUC   21   5.238   5.891   5.995
    1AU     AUC   22   5.552   5.873   6.013
    1AU     AUC   23   4.926   4.677   6.015
    1AU     AUC   24   5.272   4.717   6.002
    1AU     AUC   25   5.664   4.766   5.962
    1AU     AUC   26   5.312   4.890   6.557
    1AU     AUC   27   5.258   5.214   6.600
    1AU     AUC   28   5.252   5.593   6.569
    1AU     AUC   29   5.266   4.930   5.437
    1AU     AUC   30   5.262   5.274   5.419
    1AU     AUC   31   5.282   5.633   5.434
    1AU     AUC   32   5.593   5.060   6.464
    1AU     AUC   33   5.561   5.425   6.509
    1AU     AUC   34   5.561   5.138   5.514
    1AU     AUC   35   5.584   5.499   5.506
    1AU     AUC   36   4.968   5.054   6.488
    1AU     AUC   37   4.961   5.415   6.497
    1AU     AUC   38   4.926   5.064   5.559
    1AU     AUC   39   4.934   5.439   5.530
    1AU     AUC   40   5.758   5.616   5.853
    1AU     AUC   41   5.703   5.586   6.210
    1AU     AUC   42   4.774   5.551   5.810
    1AU     AUC   43   4.756   5.570   6.201
    1AU     AUC   44   5.772   5.039   5.802
    1AU     AUC   45   5.786   5.014   6.130
    1AU     AUC   46   4.735   4.976   5.866
    1AU     AUC   47   4.775   4.979   6.196
    1AU     AUC   48   5.059   5.759   6.295
    1AU     AUC   49   5.394   5.761   6.309
    1AU     AUC   50   5.081   4.770   6.278
    1AU     AUC   51   5.495   4.793   6.294
    1AU     AUC   52   5.062   5.720   5.679
    1AU     AUC   53   5.454   5.762   5.678
    1AU     AUC   54   5.058   4.792   5.732
    1AU     AUC   55   5.449   4.828   5.673
    1AU    AUSL   56   5.845   5.203   6.720
    1AU    AUSL   57   5.705   4.736   6.585
    1AU     AUL   58   5.957   4.826   6.787
    1AU       S   59   6.138   4.459   6.573
    1AU     LIG   60   6.067   4.192   6.896
    1AU     LIG   61   6.152   3.783   7.085
    1AU       S   62   6.104   5.259   6.880
    1AU     LIG   63   6.063   5.400   7.301
    1AU     LIG   64   6.144   5.151   7.682
    1AU    AUSL   65   5.456   5.014   6.806
    1AU    AUSL   66   5.117   5.347   6.883
    1AU     AUL   67   5.313   5.188   7.137
    1AU       S   68   5.754   5.017   7.151
    1AU     LIG   69   5.632   5.142   7.551
    1AU     LIG   70   5.727   5.048   7.995
    1AU       S   71   4.574   5.141   7.188
    1AU     LIG   72   4.715   5.427   7.536
    1AU     LIG   73   4.649   5.437   8.002
    1AU    AUSL   74   5.461   5.432   6.671
    1AU    AUSL   75   5.868   5.624   6.637
    1AU     AUL   76   5.682   5.448   6.960
    1AU       S   77   5.295   5.694   7.126
    1AU     LIG   78   5.619   5.642   7.419
    1AU     LIG   79   5.845   5.548   7.803
    1AU       S   80   5.993   5.783   6.847
    1AU     LIG   81   6.402   5.760   6.916
    1AU     LIG   82   6.806   5.939   7.047
    1AU    AUSL   83   5.811   5.387   5.263
    1AU    AUSL   84   5.697   5.824   5.331
    1AU     AUL   85   5.834   5.679   5.007
    1AU       S   86   5.713   5.276   4.806
    1AU     LIG   87   6.052   5.309   4.486
    1AU     LIG   88   6.202   5.127   4.072
    1AU       S   89   6.067   5.954   5.297
    1AU     LIG   90   5.884   6.201   5.028
    1AU     LIG   91   6.058   6.570   4.812
    1AU    AUSL   92   5.467   5.135   5.227
    1AU    AUSL   93   5.800   5.063   5.547
    1AU     AUL   94   5.894   5.079   5.178
    1AU       S   95   5.880   4.293   5.208
    1AU     LIG   96   6.325   4.184   5.087
    1AU     LIG   97   6.594   4.192   4.695
    1AU       S   98   5.525   4.930   4.904
    1AU     LIG   99   5.549   4.645   4.512
    1AU     LIG  100   5.743   4.848   4.139
    1AU    AUSL  101   5.403   5.565   5.160
    1AU    AUSL  102   5.082   5.002   5.135
    1AU     AUL  103   5.256   5.310   4.929
    1AU       S  104   4.877   5.030   4.829
    1AU     LIG  105   5.157   5.025   4.485
    1AU     LIG  106   5.027   5.045   4.024
    1AU       S  107   5.650   5.072   4.712
    1AU     LIG  108   5.565   5.302   4.315
    1AU     LIG  109   5.848   5.510   3.997
    1AU    AUSL  110   4.750   5.226   6.692
    1AU    AUSL  111   4.990   5.677   6.654
    1AU     AUL  112   4.849   5.537   6.963
    1AU       S  113   4.511   5.217   6.887
    1AU     LIG  114   4.338   5.571   7.194
    1AU     LIG  115   4.219   5.464   7.669
    1AU       S  116   4.587   5.904   6.794
    1AU     LIG  117   4.460   6.183   7.099
    1AU     LIG  118   4.267   6.454   7.443
    1AU    AUSL  119   5.039   4.922   6.849
    1AU    AUSL  120   4.647   4.830   6.558
    1AU     AUL  121   4.720   4.801   6.848
    1AU       S  122   4.490   4.420   6.675
    1AU     LIG  123   4.030   4.484   6.812
    1AU     LIG  124   3.712   4.383   7.172
    1AU       S  125   4.830   5.099   7.173
    1AU     LIG  126   5.011   5.002   7.545
    1AU     LIG  127   4.760   4.935   7.919
    1AU    AUSL  128   4.710   5.160   5.285
    1AU    AUSL  129   4.972   4.848   5.519
    1AU     AUL  130   4.821   4.765   5.204
    1AU       S  131   4.512   5.093   5.042
    1AU     LIG  132   4.359   5.460   4.791
    1AU     LIG  133   4.236   5.551   4.331
    1AU       S  134   4.385   4.553   5.239
    1AU     LIG  135   4.406   4.101   5.120
    1AU     LIG  136   4.241   3.755   4.843
    1AU    AUSL  137   5.063   5.404   5.338
    1AU    AUSL  138   4.619   5.548   5.425
    1AU     AUL  139   4.812   5.449   5.063
    1AU       S  140   4.441   5.683   5.238
    1AU     LIG  141   4.146   6.003   5.091
    1AU     LIG  142   4.044   6.207   4.673
    1AU       S  143   4.610   5.001   4.784
    1AU     LIG  144   4.719   5.317   4.449
    1AU     LIG  145   4.657   5.445   4.018
    1AU    AUSL  146   5.934   5.900   6.050
    1AU    AUSL  147   5.935   5.607   5.608
    1AU     AUL  148   6.092   5.993   5.766
    1AU       S  149   6.181   5.656   5.424
    1AU     LIG  150   6.325   5.635   4.975
    1AU     LIG  151   6.349   6.084   4.831
    1AU       S  152   6.463   5.857   6.403
    1AU     LIG  153   6.562   6.233   6.117
    1AU     LIG  154   6.870   6.293   5.782
    1AU    AUSL  155   6.205   5.566   5.922
    1AU    AUSL  156   6.219   5.179   6.162
    1AU     AUL  157   6.527   5.365   6.027
    1AU       S  158   6.376   5.778   6.157
    1AU     LIG  159   6.635   5.823   5.804
    1AU     LIG  160   7.062   5.723   5.669
    1AU       S  161   6.478   4.887   6.010
    1AU     LIG  162   6.719   4.822   6.385
    1AU     LIG  163   7.107   4.550   6.465
    1AU    AUSL  164   5.951   5.497   6.251
    1AU    AUSL  165   5.623   5.800   6.317
    1AU     AUL  166   5.976   5.902   6.391
    1AU       S  167   5.966   6.085   6.859
    1AU     LIG  168   6.359   6.243   6.709
    1AU     LIG  169   6.732   6.435   6.910
    1AU       S  170   6.310   5.565   6.427
    1AU     LIG  171   6.841   5.542   6.404
    1AU     LIG  172   7.336   5.698   6.444
    1AU    AUSL  173   4.603   5.779   6.038
    1AU    AUSL  174   4.616   5.561   6.461
    1AU     AUL  175   4.339   5.906   6.300
    1AU       S  176   4.480   5.651   6.668
    1AU     LIG  177   4.097   5.881   6.841
    1AU     LIG  178   3.984   6.037   7.263
    1AU       S  179   4.560   6.201   6.002
    1AU     LIG  180   4.138   6.147   5.840
    1AU     LIG  181   3.810   6.376   5.613
    1AU    AUSL  182   4.520   5.414   5.802
    1AU    AUSL  183   4.676   5.919   5.648
    1AU     AUL  184   4.375   5.742   5.712
    1AU       S  185   4.222   5.288   5.455
    1AU     LIG  186   3.928   5.704   5.500
    1AU     LIG  187   3.506   5.964   5.458
    1AU       S  188   4.501   6.122   5.444
    1AU     LIG  189   4.345   6.472   5.249
    1AU     LIG  190   3.938   6.539   5.083
    1AU    AUSL  191   4.316   5.474   6.178
    1AU    AUSL  192   4.302   5.079   5.927
    1AU     AUL  193   4.121   5.395   5.898
    1AU       S  194   4.045   5.021   6.192
    1AU     LIG  195   3.801   4.979   5.817
    1AU     LIG  196   3.458   4.718   5.643
    1AU       S  197   4.091   5.511   6.378
    1AU     LIG  198   3.811   5.858   6.416
    1AU     LIG  199   3.375   6.041   6.366
    1AU    AUSL  200   5.983   4.892   5.942
    1AU    AUSL  201   5.856   5.042   6.334
    1AU     AUL  202   6.178   4.921   6.372
    1AU       S  203   6.273   4.749   5.939
    1AU     LIG  204   6.335   4.381   5.810
    1AU     LIG  205   6.696   4.131   5.647
    1AU       S  206   6.371   4.459   6.348
    1AU     LIG  207   6.584   4.394   6.769
    1AU     LIG  208   6.500   4.219   7.197
    1AU    AUSL  209   6.164   5.203   5.702
    1AU    AUSL  210   5.873   4.613   5.651
    1AU     AUL  211   6.101   4.868   5.528
    1AU       S  212   6.476   4.979   5.767
    1AU     LIG  213   6.730   4.651   5.596
    1AU     LIG  214   7.151   4.422   5.680
    1AU       S  215   6.003   4.422   5.425
    1AU     LIG  216   6.129   3.999   5.534
    1AU     LIG  217   6.165   3.684   5.195
    1AU    AUSL  218   4.661   4.848   6.027
    1AU    AUSL  219   4.550   4.951   5.608
    1AU     AUL  220   4.297   4.751   5.866
    1AU       S  221   4.388   4.798   5.414
    1AU     LIG  222   3.952   4.649   5.455
    1AU     LIG  223   3.817   4.316   5.146
    1AU       S  224   3.966   4.803   6.271
    1AU     LIG  225   3.873   4.466   5.947
    1AU     LIG  226   3.625   4.239   5.613
    1AU    AUSL  227   4.494   5.125   6.316
    1AU    AUSL  228   4.745   4.522   6.267
    1AU     AUL  229   4.434   4.708   6.305
    1AU       S  230   4.616   4.271   6.337
    1AU     LIG  231   4.146   4.273   6.354
    1AU     LIG  232   3.984   3.979   6.729
    1AU       S  233   4.154   5.048   6.434
    1AU     LIG  234   3.694   5.029   6.605
    1AU     LIG  235   3.284   4.890   6.411
    1AU    AUSL  236   5.226   5.975   6.453
    1AU    AUSL  237   4.798   5.946   6.377
    1AU     AUL  238   5.042   6.007   6.750
    1AU       S  239   4.682   6.162   6.499
    1AU     LIG  240   4.255   6.313   6.597
    1AU     LIG  241   4.055   6.470   6.973
    1AU       S  242   5.199   6.386   6.499
    1AU     LIG  243   5.387   6.790   6.730
    1AU     LIG  244   5.380   7.268   6.799
    1AU    AUSL  245   5.036   6.169   6.109
    1AU    AUSL  246   5.373   6.208   5.768
    1AU     AUL  247   5.067   6.435   5.872
    1AU       S  248   5.251   6.598   6.299
    1AU     LIG  249   4.901   6.784   6.514
    1AU     LIG  250   4.872   7.210   6.596
    1AU       S  251   5.329   6.445   5.461
    1AU     LIG  252   5.711   6.732   5.549
    1AU     LIG  253   5.857   7.222   5.511
    1AU    AUSL  254   5.496   6.164   6.167
    1AU    AUSL  255   5.500   5.840   6.739
    1AU     AUL  256   5.585   6.121   6.537
    1AU       S  257   5.707   5.939   6.978
    1AU     LIG  258   6.045   5.924   7.322
    1AU     LIG  259   6.400   6.203   7.239
    1AU       S  260   5.448   6.426   6.203
    1AU     LIG  261   5.780   6.653   6.391
    1AU     LIG  262   5.808   7.092   6.554
    1AU    AUSL  263   5.337   4.535   6.613
    1AU    AUSL  264   5.881   4.580   6.207
    1AU     AUL  265   5.668   4.365   6.510
    1AU       S  266   5.087   3.985   6.597
    1AU     LIG  267   4.954   3.605   6.794
    1AU     LIG  268   5.144   3.198   6.920
    1AU       S  269   6.091   4.421   6.267
    1AU     LIG  270   6.298   3.991   6.487
    1AU     LIG  271   6.585   3.867   6.840
    1AU    AUSL  272   5.138   4.383   6.253
    1AU    AUSL  273   5.061   4.796   6.450
    1AU     AUL  274   4.979   4.464   6.604
    1AU       S  275   5.081   4.084   6.336
    1AU     LIG  276   4.904   3.631   6.285
    1AU     LIG  277   4.753   3.221   6.497
    1AU       S  278   4.589   4.163   6.607
    1AU     LIG  279   4.426   3.975   6.992
    1AU     LIG  280   4.108   4.072   7.324
    1AU    AUSL  281   5.474   4.629   6.183
    1AU    AUSL  282   5.103   4.474   5.845
    1AU     AUL  283   5.428   4.280   6.044
    1AU       S  284   4.971   4.133   5.867
    1AU     LIG  285   4.774   3.696   5.807
    1AU     LIG  286   4.911   3.411   5.497
    1AU       S  287   5.328   3.947   6.417
    1AU     LIG  288   5.372   3.494   6.474
    1AU     LIG  289   5.634   3.324   6.807
    1AU    AUSL  290   5.312   5.941   5.442
    1AU    AUSL  291   5.628   5.868   5.767
    1AU     AUL  292   5.678   6.142   5.537
    1AU       S  293   5.336   6.158   5.203
    1AU     LIG  294   5.588   6.601   5.068
    1AU     LIG  295   5.459   7.030   5.213
    1AU       S  296   6.360   5.934   5.364
    1AU     LIG  297   6.312   6.406   5.262
    1AU     LIG  298   6.549   6.681   4.964
    1AU    AUSL  299   5.064   5.898   5.797
    1AU    AUSL  300   4.942   5.811   5.316
    1AU     AUL  301   4.963   6.131   5.519
    1AU       S  302   5.147   6.414   5.178
    1AU     LIG  303   4.937   6.761   5.417
    1AU     LIG  304   5.035   7.220   5.498
    1AU       S  305   4.687   5.943   5.157
    1AU     LIG  306   4.542   6.230   4.837
    1AU     LIG  307   4.327   6.644   4.747
    1AU    AUSL  308   5.234   4.539   5.425
    1AU    AUSL  309   4.706   4.556   5.723
    1AU     AUL  310   4.938   4.416   5.489
    1AU       S  311   4.466   4.479   5.509
    1AU     LIG  312   4.120   4.174   5.537
    1AU     LIG  313   3.935   3.807   5.279
    1AU       S  314   5.185   4.019   5.670
    1AU     LIG  315   4.868   3.914   5.351
    1AU     LIG  316   4.823   3.583   5.009
    1AU    AUSL  317   5.481   4.659   5.769
    1AU    AUSL  318   5.588   4.747   5.342
    1AU     AUL  319   5.545   4.388   5.552
    1AU       S  320   5.217   3.864   5.900
    1AU     LIG  321   5.403   3.569   5.568
    1AU     LIG  322   5.326   3.201   5.272
    1AU       S  323   5.793   4.590   5.167
    1AU     LIG  324   5.982   4.375   4.738
    1AU     LIG  325   6.161   3.912   4.661
    2POPC   NC3  326   3.423   8.774   8.023
    2POPC   PO4  327   3.980   8.363   8.182
    2POPC   GL1  328   3.818   8.682   7.699
    2POPC   GL2  329   3.454   8.662   7.543
    2POPC   C1A  330   3.797   8.745   7.218
    2POPC   D2A  331   3.754   8.458   6.940
    2POPC   C3A  332   3.498   8.445   6.611
    2POPC   C4A  333   3.572   8.554   6.212
    2POPC   C1B  334   3.247   8.624   7.204
    2POPC   C2B  335   3.204   8.821   6.866
    2POPC   C3B  336   3.150   8.769   6.486
    2POPC   C4B  337   3.198   8.885   6.104
    3POPC   NC3  338   1.148   5.034   8.167
    3POPC   PO4  339   0.540   4.668   8.167
    3POPC   GL1  340   0.875   4.810   7.752
    3POPC   GL2  341   1.086   5.100   7.680
    3POPC   C1A  342   1.095   4.702   7.347
    3POPC   D2A  343   0.946   4.825   6.937
    3POPC   C3A  344   1.064   4.617   6.551
    3POPC   C4A  345   1.120   4.803   6.130
    3POPC   C1B  346   1.349   5.160   7.328
    3POPC   C2B  347   1.441   5.034   6.929
    3POPC   C3B  348   1.271   5.066   6.564
    3POPC   C4B  349   1.410   5.203   6.207
    4POPC   NC3  350   9.410   1.830   8.147
    4POPC   PO4  351   8.876   2.170   7.936
    4POPC   GL1  352   9.056   1.967   7.612
    4POPC   GL2  353   9.319   1.752   7.659
    4POPC   C1A  354   9.175   2.025   7.211
    4POPC   D2A  355   9.307   1.832   6.831
    4POPC   C3A  356   9.491   2.077   6.508
    4POPC   C4A  357   9.666   2.267   6.156
    4POPC   C1B  358   9.357   1.530   7.284
    4POPC   C2B  359   9.715   1.622   7.038
    4POPC   C3B  360   9.756   1.630   6.572
    4POPC   C4B  361   9.939   1.414   6.222
    5POPC   NC3  362   0.204   7.806   8.376
    5POPC   PO4  363   0.031   7.337   8.049
    5POPC   GL1  364   0.213   7.600   7.631
    5POPC   GL2  365   0.295   7.965   7.504
    5POPC   C1A  366   0.385   7.598   7.173
    5POPC   D2A  367   0.593   7.791   6.814
    5POPC   C3A  368   0.561   7.675   6.350
    5POPC   C4A  369   0.231   7.730   5.991
    5POPC   C1B  370   0.342   8.320   7.273
    5POPC   C2B  371   0.446   8.283   6.873
    5POPC   C3B  372   0.281   8.072   6.528
    5POPC   C4B  373   0.391   8.157   6.156
    6POPC   NC3  374   2.978   1.490   8.128
    6POPC   PO4  375   3.625   1.651   8.264
    6POPC   GL1  376   3.550   1.444   7.887
    6POPC   GL2  377   3.635   1.089   7.853
    6POPC   C1A  378   3.509   1.514   7.462
    6POPC   D2A  379   3.465   1.680   7.045
    6POPC   C3A  380   3.675   1.546   6.655
    6POPC   C4A  381   3.500   1.504   6.233
    6POPC   C1B  382   3.430   1.007   7.436
    6POPC   C2B  383   3.537   1.184   7.012
    6POPC   C3B  384   3.393   1.102   6.574
    6POPC   C4B  385   3.562   1.014   6.161
    7POPC   NC3  386   8.584   9.146   8.139
    7POPC   PO4  387   9.015   9.581   8.367
    7POPC   GL1  388   8.865   9.461   7.843
    7POPC   GL2  389   8.768   9.177   7.649
    7POPC   C1A  390   8.787   9.629   7.417
    7POPC   D2A  391   8.699   9.651   6.966
    7POPC   C3A  392   8.731   9.365   6.646
    7POPC   C4A  393   8.699   9.525   6.242
    7POPC   C1B  394   8.540   9.195   7.256
    7POPC   C2B  395   8.381   9.029   6.878
    7POPC   C3B  396   8.226   9.190   6.507
    7POPC   C4B  397   8.291   9.308   6.077
    8POPC   NC3  398   6.200   0.402   8.166
    8POPC   PO4  399   6.756  10.463   8.062
    8POPC   GL1  400   6.633   0.208   7.649
    8POPC   GL2  401   6.378   0.459   7.698
    8POPC   C1A  402   6.527   0.458   7.218
    8POPC   D2A  403   6.347   0.731   6.894
    8POPC   C3A  404   6.510   0.696   6.485
    8POPC   C4A  405   6.750   0.542   6.120
    8POPC   C1B  406   6.217   0.087   7.412
    8POPC   C2B  407   6.343  10.457   7.001
    8POPC   C3B  408   6.410   0.207   6.634
    8POPC   C4B  409   6.288   0.295   6.209
    9POPC   NC3  410   8.977   4.736   8.144
    9POPC   PO4  411   8.600   5.241   7.963
    9POPC   GL1  412   8.925   5.090   7.728
    9POPC   GL2  413   8.762   4.787   7.657
    9POPC   C1A  414   8.892   5.173   7.295
    9POPC   D2A  415   8.685   5.053   6.929
    9POPC   C3A  416   8.746   4.889   6.540
    9POPC   C4A  417   8.817   4.962   6.106
    9POPC   C1B  418   8.540   4.736   7.290
    9POPC   C2B  419   8.325   4.716   6.885
    9POPC   C3B  420   8.347   4.567   6.444
    9POPC   C4B  421   8.384   4.663   5.978
   10POPC   NC3  422   4.209   9.483   7.933
   10POPC   PO4  423   3.633   9.210   8.162
   10POPC   GL1  424   3.768   9.579   7.668
   10POPC   GL2  425   4.148   9.614   7.438
   10POPC   C1A  426   3.719   9.542   7.203
   10POPC   D2A  427   4.028   9.451   6.875
   10POPC   C3A  428   3.788   9.484   6.495
   10POPC   C4A  429   3.961   9.495   6.031
   10POPC   C1B  430   4.446   9.287   7.181
   10POPC   C2B  431   4.623   8.996   6.865
   10POPC   C3B  432   4.474   8.845   6.489
   10POPC   C4B  433   4.215   9.228   6.402
   11POPC   NC3  434   9.859   5.513   8.357
   11POPC   PO4  435   9.636   5.257   7.794
   11POPC   GL1  436   9.891   5.367   7.509
   11POPC   GL2  437  10.146   5.517   7.721
   11POPC   C1A  438   9.774   5.194   7.114
   11POPC   D2A  439   9.655   5.487   6.808
   11POPC   C3A  440   9.644   5.405   6.385
   11POPC   C4A  441   9.836   5.649   6.085
   11POPC   C1B  442  10.293   5.694   7.336
   11POPC   C2B  443  10.103   5.880   6.952
   11POPC   C3B  444  10.076   5.746   6.537
   11POPC   C4B  445  10.302   5.849   6.151
   12POPC   NC3  446   6.293   1.564   8.278
   12POPC   PO4  447   5.954   2.110   8.294
   12POPC   GL1  448   6.285   1.874   7.884
   12POPC   GL2  449   6.517   2.102   7.731
   12POPC   C1A  450   6.217   1.706   7.405
   12POPC   D2A  451   6.459   1.678   6.974
   12POPC   C3A  452   6.238   1.593   6.569
   12POPC   C4A  453   6.262   1.686   6.134
   12POPC   C1B  454   6.416   2.160   7.279
   12POPC   C2B  455   6.648   2.167   6.889
   12POPC   C3B  456   6.580   1.956   6.509
   12POPC   C4B  457   6.630   2.014   6.076
   13POPC   NC3  458   1.442   0.918   8.045
   13POPC   PO4  459   2.100   0.852   8.042
   13POPC   GL1  460   1.971   1.076   7.660
   13POPC   GL2  461   2.275   1.260   7.651
   13POPC   C1A  462   1.721   1.076   7.286
   13POPC   D2A  463   1.639   0.839   6.872
   13POPC   C3A  464   1.894   0.876   6.469
   13POPC   C4A  465   1.721   0.842   6.020
   13POPC   C1B  466   2.146   1.412   7.272
   13POPC   C2B  467   1.976   1.245   6.878
   13POPC   C3B  468   1.755   1.354   6.508
   13POPC   C4B  469   1.996   1.257   6.133
   14POPC   NC3  470   7.139   2.038   8.100
   14POPC   PO4  471   6.694   1.463   8.108
   14POPC   GL1  472   6.851   1.696   7.736
   14POPC   GL2  473   7.203   1.789   7.670
   14POPC   C1A  474   6.841   1.856   7.297
   14POPC   D2A  475   6.983   1.764   6.876
   14POPC   C3A  476   7.063   2.088   6.559
   14POPC   C4A  477   7.061   1.829   6.249
   14POPC   C1B  478   7.357   1.694   7.264
   14POPC   C2B  479   7.611   1.582   6.902
   14POPC   C3B  480   7.503   1.779   6.523
   14POPC   C4B  481   7.513   2.074   6.188
   15POPC   NC3  482   6.436   9.175   8.064
   15POPC   PO4  483   6.926   9.631   8.162
   15POPC   GL1  484   6.625   9.583   7.753
   15POPC   GL2  485   6.349   9.372   7.608
   15POPC   C1A  486   6.526   9.742   7.316
   15POPC   D2A  487   6.538   9.577   6.889
   15POPC   C3A  488   6.533   9.813   6.524
   15POPC   C4A  489   6.505   9.767   6.079
   15POPC   C1B  490   6.248   9.259   7.189
   15POPC   C2B  491   6.067   9.379   6.791
   15POPC   C3B  492   6.263   9.329   6.395
   15POPC   C4B  493   6.193   9.371   5.947
   16POPC   NC3  494   9.497   3.344   8.160
   16POPC   PO4  495   9.818   3.936   8.088
   16POPC   GL1  496   9.723   3.566   7.770
   16POPC   GL2  497   9.366   3.558   7.687
   16POPC   C1A  498   9.680   3.329   7.349
   16POPC   D2A  499   9.552   3.477   6.912
   16POPC   C3A  500   9.766   3.547   6.527
   16POPC   C4A  501   9.581   3.552   6.108
   16POPC   C1B  502   9.196   3.398   7.267
   16POPC   C2B  503   9.038   3.462   6.872
   16POPC   C3B  504   9.243   3.475   6.491
   16POPC   C4B  505   9.183   3.215   6.126
   17POPC   NC3  506   0.495   5.772   8.331
   17POPC   PO4  507  10.349   5.520   8.221
   17POPC   GL1  508   0.164   5.501   7.830
   17POPC   GL2  509   0.482   5.739   7.814
   17POPC   C1A  510   0.281   5.446   7.348
   17POPC   D2A  511   0.121   5.677   6.945
   17POPC   C3A  512   0.178   5.821   6.511
   17POPC   C4A  513   0.207   5.509   6.185
   17POPC   C1B  514   0.622   5.879   7.393
   17POPC   C2B  515   0.638   5.671   6.980
   17POPC   C3B  516   0.592   5.538   6.542
   17POPC   C4B  517   0.621   5.787   6.156
   18POPC   NC3  518  10.179   0.455   8.256
   18POPC   PO4  519   9.629   0.139   8.032
   18POPC   GL1  520   9.998   0.145   7.761
   18POPC   GL2  521  10.190   0.424   7.713
   18POPC   C1A  522   9.927   0.217   7.298
   18POPC   D2A  523  10.034   0.528   7.027
   18POPC   C3A  524  10.092   0.529   6.616
   18POPC   C4A  525  10.203   0.398   6.223
   18POPC   C1B  526  10.449   0.457   7.320
   18POPC   C2B  527   0.066   0.602   6.882
   18POPC   C3B  528   0.025   0.756   6.445
   18POPC   C4B  529  10.483   0.731   5.955
   19POPC   NC3  530   1.498  10.433   8.049
   19POPC   PO4  531   2.196  10.303   7.994
   19POPC   GL1  532   1.831  10.285   7.670
   19POPC   GL2  533   1.730   9.941   7.532
   19POPC   C1A  534   1.636  10.363   7.253
   19POPC   D2A  535   1.543  10.226   6.851
   19POPC   C3A  536   1.774  10.468   6.542
   19POPC   C4A  537   1.630  10.465   6.129
   19POPC   C1B  538   2.022  10.016   7.250
   19POPC   C2B  539   1.922   9.919   6.850
   19POPC   C3B  540   1.709  10.000   6.414
   19POPC   C4B  541   2.031   9.904   6.107
   20POPC   NC3  542   0.504   6.716   8.206
   20POPC   PO4  543   0.822   6.065   8.156
   20POPC   GL1  544   0.671   6.286   7.774
   20POPC   GL2  545   0.315   6.383   7.729
   20POPC   C1A  546   0.645   6.413   7.331
   20POPC   D2A  547   0.455   6.560   6.951
   20POPC   C3A  548   0.645   6.511   6.563
   20POPC   C4A  549   0.469   6.267   6.227
   20POPC   C1B  550   0.098   6.600   7.336
   20POPC   C2B  551   0.025   6.844   6.966
   20POPC   C3B  552   0.113   6.695   6.582
   20POPC   C4B  553   0.320   6.764   6.207
   21POPC   NC3  554   2.413   2.048   8.108
   21POPC   PO4  555   2.499   1.402   8.081
   21POPC   GL1  556   2.661   1.676   7.758
   21POPC   GL2  557   2.708   2.054   7.663
   21POPC   C1A  558   2.650   1.602   7.343
   21POPC   D2A  559   2.784   1.792   6.974
   21POPC   C3A  560   2.592   1.696   6.607
   21POPC   C4A  561   2.525   1.522   6.232
   21POPC   C1B  562   2.445   2.054   7.290
   21POPC   C2B  563   2.323   2.079   6.864
   21POPC   C3B  564   2.442   2.169   6.459
   21POPC   C4B  565   2.847   2.051   6.317
   22POPC   NC3  566   9.228  10.427   8.165
   22POPC   PO4  567   9.321   9.902   7.964
   22POPC   GL1  568   9.399  10.282   7.693
   22POPC   GL2  569   9.724  10.306   7.507
   22POPC   C1A  570   9.330  10.434   7.248
   22POPC   D2A  571   9.516  10.376   6.854
   22POPC   C3A  572   9.166  10.377   6.557
   22POPC   C4A  573   9.032   0.076   6.166
   22POPC   C1B  574   9.588   9.956   7.305
   22POPC   C2B  575   9.668   9.836   6.885
   22POPC   C3B  576   9.522   9.985   6.541
   22POPC   C4B  577   9.685  10.348   6.290
   23POPC   NC3  578   9.683   8.517   8.072
   23POPC   PO4  579   9.201   8.242   7.777
   23POPC   GL1  580   9.490   8.526   7.599
   23POPC   GL2  581   9.477   8.879   7.740
   23POPC   C1A  582   9.710   8.507   7.218
   23POPC   D2A  583   9.533   8.505   6.863
   23POPC   C3A  584   9.796   8.465   6.567
   23POPC   C4A  585   9.699   8.353   6.194
   23POPC   C1B  586   9.642   8.985   7.363
   23POPC   C2B  587   9.489   9.004   6.957
   23POPC   C3B  588   9.641   8.953   6.536
   23POPC   C4B  589   9.379   8.782   6.236
   24POPC   NC3  590   5.462   2.108   8.275
   24POPC   PO4  591   6.007   2.286   7.798
   24POPC   GL1  592   5.667   2.414   7.554
   24POPC   GL2  593   5.589   2.769   7.602
   24POPC   C1A  594   5.721   2.491   7.120
   24POPC   D2A  595   5.716   2.318   6.746
   24POPC   C3A  596   5.753   2.527   6.387
   24POPC   C4A  597   5.559   2.727   6.013
   24POPC   C1B  598   5.594   2.982   7.188
   24POPC   C2B  599   5.504   2.829   6.752
   24POPC   C3B  600   5.715   3.047   6.387
   24POPC   C4B  601   6.008   3.110   6.049
   25POPC   NC3  602   7.550   4.078   8.141
   25POPC   PO4  603   7.107   3.723   7.871
   25POPC   GL1  604   7.342   3.897   7.564
   25POPC   GL2  605   7.256   4.206   7.674
   25POPC   C1A  606   7.497   4.256   7.246
   25POPC   D2A  607   7.504   4.435   6.811
   25POPC   C3A  608   7.430   4.134   6.470
   25POPC   C4A  609   7.201   4.082   6.068
   25POPC   C1B  610   7.007   4.065   7.240
   25POPC   C2B  611   7.030   4.129   6.785
   25POPC   C3B  612   6.797   4.144   6.379
   25POPC   C4B  613   6.788   4.439   6.053
   26POPC   NC3  614   2.640   9.962   7.983
   26POPC   PO4  615   3.118   0.032   8.203
   26POPC   GL1  616   3.049  10.362   7.805
   26POPC   GL2  617   2.695  10.426   7.759
   26POPC   C1A  618   2.996  10.250   7.358
   26POPC   D2A  619   3.127  10.244   6.941
   26POPC   C3A  620   2.821  10.244   6.660
   26POPC   C4A  621   2.640  10.398   6.331
   26POPC   C1B  622   2.448  10.289   7.382
   26POPC   C2B  623   2.426  10.113   6.955
   26POPC   C3B  624   2.255  10.125   6.541
   26POPC   C4B  625   2.465   9.846   6.335
   27POPC   NC3  626   1.044   0.235   8.111
   27POPC   PO4  627   0.962   0.946   8.041
   27POPC   GL1  628   1.144   0.616   7.733
   27POPC   GL2  629   1.249   0.289   7.665
   27POPC   C1A  630   0.955   0.479   7.318
   27POPC   D2A  631   1.078   0.498   6.870
   27POPC   C3A  632   0.906   0.265   6.493
   27POPC   C4A  633   0.870   0.512   6.083
   27POPC   C1B  634   1.467   0.361   7.289
   27POPC   C2B  635   1.483   0.212   6.900
   27POPC   C3B  636   1.416   0.348   6.498
   27POPC   C4B  637   1.409   0.425   6.086
   28POPC   NC3  638   4.388  10.307   8.103
   28POPC   PO4  639   3.878   9.895   8.076
   28POPC   GL1  640   3.998  10.050   7.672
   28POPC   GL2  641   4.165  10.344   7.643
   28POPC   C1A  642   3.925  10.136   7.209
   28POPC   D2A  643   3.876   9.932   6.774
   28POPC   C3A  644   4.191   9.827   6.430
   28POPC   C4A  645   4.199   9.937   5.962
   28POPC   C1B  646   4.420  10.144   7.331
   28POPC   C2B  647   4.509  10.264   6.897
   28POPC   C3B  648   4.216  10.351   6.565
   28POPC   C4B  649   4.253  10.402   6.145
   29POPC   NC3  650   8.443   1.887   8.072
   29POPC   PO4  651   8.382   2.582   8.350
   29POPC   GL1  652   8.369   2.325   7.817
   29POPC   GL2  653   8.541   2.008   7.616
   29POPC   C1A  654   8.257   2.186   7.282
   29POPC   D2A  655   8.347   2.285   6.816
   29POPC   C3A  656   8.481   2.010   6.465
   29POPC   C4A  657   8.557   1.994   6.005
   29POPC   C1B  658   8.685   1.887   7.242
   29POPC   C2B  659   8.804   2.011   6.855
   29POPC   C3B  660   8.939   1.796   6.487
   29POPC   C4B  661   9.035   2.150   6.278
   30POPC   NC3  662   3.352   4.184   7.958
   30POPC   PO4  663   3.753   3.668   8.080
   30POPC   GL1  664   3.680   3.832   7.619
   30POPC   GL2  665   3.364   4.012   7.474
   30POPC   C1A  666   3.690   3.854   7.137
   30POPC   D2A  667   3.437   4.124   6.840
   30POPC   C3A  668   3.635   4.189   6.425
   30POPC   C4A  669   3.702   3.973   6.039
   30POPC   C1B  670   3.173   4.395   7.289
   30POPC   C2B  671   3.162   4.618   6.875
   30POPC   C3B  672   3.168   4.390   6.485
   30POPC   C4B  673   3.354   4.451   6.073
   31POPC   NC3  674   3.615   1.189   8.368
   31POPC   PO4  675   4.245   1.412   8.117
   31POPC   GL1  676   4.134   1.296   7.739
   31POPC   GL2  677   4.299   0.955   7.737
   31POPC   C1A  678   3.906   1.148   7.397
   31POPC   D2A  679   3.929   0.836   7.058
   31POPC   C3A  680   3.889   1.005   6.634
   31POPC   C4A  681   3.955   1.290   6.289
   31POPC   C1B  682   4.408   1.125   7.324
   31POPC   C2B  683   4.501   0.997   6.920
   31POPC   C3B  684   4.388   1.112   6.537
   31POPC   C4B  685   4.262   0.889   6.230
   32POPC   NC3  686   1.988   9.229   8.176
   32POPC   PO4  687   2.211   8.600   8.179
   32POPC   GL1  688   1.868   8.686   7.842
   32POPC   GL2  689   1.619   8.951   7.891
   32POPC   C1A  690   1.811   8.546   7.394
   32POPC   D2A  691   2.027   8.340   7.034
   32POPC   C3A  692   1.997   8.573   6.656
   32POPC   C4A  693   2.299   8.827   6.412
   32POPC   C1B  694   1.600   9.020   7.435
   32POPC   C2B  695   1.655   8.896   7.000
   32POPC   C3B  696   1.499   8.784   6.582
   32POPC   C4B  697   1.739   8.678   6.224
   33POPC   NC3  698   0.205   5.038   8.113
   33POPC   PO4  699   0.749   5.413   8.167
   33POPC   GL1  700   0.586   5.224   7.752
   33POPC   GL2  701   0.382   4.908   7.672
   33POPC   C1A  702   0.722   5.113   7.319
   33POPC   D2A  703   0.553   5.165   6.901
   33POPC   C3A  704   0.759   5.051   6.502
   33POPC   C4A  705   0.641   4.997   6.061
   33POPC   C1B  706   0.234   4.907   7.263
   33POPC   C2B  707   0.095   4.969   6.846
   33POPC   C3B  708   0.230   4.981   6.398
   33POPC   C4B  709   0.276   4.636   6.070
   34POPC   NC3  710   9.934   4.957   7.979
   34POPC   PO4  711   0.037   4.624   7.990
   34POPC   GL1  712  10.320   4.729   7.691
   34POPC   GL2  713  10.378   5.064   7.712
   34POPC   C1A  714  10.280   4.624   7.285
   34POPC   D2A  715  10.110   4.842   6.954
   34POPC   C3A  716  10.229   4.787   6.531
   34POPC   C4A  717  10.313   4.869   6.106
   34POPC   C1B  718  10.305   5.171   7.304
   34POPC   C2B  719  10.218   5.365   6.931
   34POPC   C3B  720  10.414   5.362   6.572
   34POPC   C4B  721  10.121   5.275   6.318
   35POPC   NC3  722   7.847   0.764   8.098
   35POPC   PO4  723   8.107   0.230   7.971
   35POPC   GL1  724   8.132   0.507   7.603
   35POPC   GL2  725   7.798   0.708   7.569
   35POPC   C1A  726   8.130   0.455   7.137
   35POPC   D2A  727   8.237   0.724   6.797
   35POPC   C3A  728   8.054   0.643   6.395
   35POPC   C4A  729   8.310   0.623   6.024
   35POPC   C1B  730   7.709   0.285   7.359
   35POPC   C2B  731   7.784  10.489   7.008
   35POPC   C3B  732   7.713  10.496   6.567
   35POPC   C4B  733   7.744   0.274   6.184
   36POPC   NC3  734   8.106   5.775   8.595
   36POPC   PO4  735   8.000   5.392   8.071
   36POPC   GL1  736   8.107   5.468   7.655
   36POPC   GL2  737   8.114   5.820   7.680
   36POPC   C1A  738   7.913   5.517   7.232
   36POPC   D2A  739   7.646   5.291   6.905
   36POPC   C3A  740   7.752   5.338   6.474
   36POPC   C4A  741   8.090   5.563   6.365
   36POPC   C1B  742   8.070   6.006   7.300
   36POPC   C2B  743   7.761   5.964   6.971
   36POPC   C3B  744   7.899   5.997   6.559
   36POPC   C4B  745   7.751   5.959   6.153
   37POPC   NC3  746   8.544   0.330   8.158
   37POPC   PO4  747   9.060   0.789   8.021
   37POPC   GL1  748   8.685   0.671   7.748
   37POPC   GL2  749   8.639   0.303   7.676
   37POPC   C1A  750   8.594   0.604   7.289
   37POPC   D2A  751   8.770   0.521   6.880
   37POPC   C3A  752   8.589   0.522   6.468
   37POPC   C4A  753   8.812   0.572   6.091
   37POPC   C1B  754   8.417   0.046   7.397
   37POPC   C2B  755   8.328  10.487   6.963
   37POPC   C3B  756   8.171   0.219   6.655
   37POPC   C4B  757   8.235   0.187   6.239
   38POPC   NC3  758   3.275   7.158   8.019
   38POPC   PO4  759   2.618   7.067   8.131
   38POPC   GL1  760   2.817   7.016   7.717
   38POPC   GL2  761   2.888   7.371   7.695
   38POPC   C1A  762   2.790   6.895   7.257
   38POPC   D2A  763   2.625   6.835   6.827
   38POPC   C3A  764   2.852   6.896   6.444
   38POPC   C4A  765   2.876   7.201   6.113
   38POPC   C1B  766   2.703   7.396   7.279
   38POPC   C2B  767   2.558   7.461   6.875
   38POPC   C3B  768   2.478   7.244   6.510
   38POPC   C4B  769   2.485   7.522   6.196
   39POPC   NC3  770   4.671   8.598   7.996
   39POPC   PO4  771   5.357   8.688   8.029
   39POPC   GL1  772   5.199   8.898   7.684
   39POPC   GL2  773   5.110   8.551   7.568
   39POPC   C1A  774   4.965   8.967   7.304
   39POPC   D2A  775   5.014   8.688   6.970
   39POPC   C3A  776   5.028   8.921   6.572
   39POPC   C4A  777   5.209   9.077   6.183
   39POPC   C1B  778   4.695   8.530   7.346
   39POPC   C2B  779   4.559   8.468   6.903
   39POPC   C3B  780   4.816   8.439   6.566
   39POPC   C4B  781   4.897   8.405   6.177
   40POPC   NC3  782   5.796   1.903   7.908
   40POPC   PO4  783   5.189   1.742   8.152
   40POPC   GL1  784   5.325   2.050   7.778
   40POPC   GL2  785   5.453   1.784   7.562
   40POPC   C1A  786   5.321   2.150   7.278
   40POPC   D2A  787   5.445   1.886   6.909
   40POPC   C3A  788   5.420   2.022   6.469
   40POPC   C4A  789   5.512   1.735   6.157
   40POPC   C1B  790   5.817   1.992   7.248
   40POPC   C2B  791   6.117   2.043   6.847
   40POPC   C3B  792   5.942   1.995   6.394
   40POPC   C4B  793   5.705   2.176   6.025
   41POPC   NC3  794   0.423   2.095   8.071
   41POPC   PO4  795   0.508   1.487   8.069
   41POPC   GL1  796   0.447   1.745   7.675
   41POPC   GL2  797   0.660   2.048   7.607
   41POPC   C1A  798   0.516   1.779   7.209
   41POPC   D2A  799   0.716   2.016   6.943
   41POPC   C3A  800   0.561   2.064   6.568
   41POPC   C4A  801   0.670   1.835   6.219
   41POPC   C1B  802   0.277   2.203   7.365
   41POPC   C2B  803   0.159   2.441   6.974
   41POPC   C3B  804   0.017   2.333   6.558
   41POPC   C4B  805   0.180   2.072   6.234
   42POPC   NC3  806   6.010   1.009   7.939
   42POPC   PO4  807   6.574   0.707   8.108
   42POPC   GL1  808   6.503   0.991   7.767
   42POPC   GL2  809   6.350   1.346   7.756
   42POPC   C1A  810   6.349   0.965   7.356
   42POPC   D2A  811   6.209   1.234   7.040
   42POPC   C3A  812   6.120   1.107   6.611
   42POPC   C4A  813   6.330   1.118   6.209
   42POPC   C1B  814   6.610   1.398   7.386
   42POPC   C2B  815   6.808   1.262   7.034
   42POPC   C3B  816   6.614   1.240   6.666
   42POPC   C4B  817   6.684   1.488   6.304
   43POPC   NC3  818   1.416   1.967   8.126
   43POPC   PO4  819   1.393   2.643   8.197
   43POPC   GL1  820   1.460   2.378   7.761
   43POPC   GL2  821   1.249   2.054   7.657
   43POPC   C1A  822   1.460   2.235   7.260
   43POPC   D2A  823   1.524   1.986   6.856
   43POPC   C3A  824   1.454   2.216   6.455
   43POPC   C4A  825   1.464   2.160   5.995
   43POPC   C1B  826   1.039   1.805   7.348
   43POPC   C2B  827   1.116   1.683   6.950
   43POPC   C3B  828   1.061   1.886   6.570
   43POPC   C4B  829   1.281   1.746   6.239
   44POPC   NC3  830   2.593   4.013   8.055
   44POPC   PO4  831   3.174   3.772   7.873
   44POPC   GL1  832   2.867   3.850   7.606
   44POPC   GL2  833   2.794   4.192   7.601
   44POPC   C1A  834   2.958   3.914   7.184
   44POPC   D2A  835   2.863   4.215   6.912
   44POPC   C3A  836   2.790   4.058   6.550
   44POPC   C4A  837   2.842   4.165   6.126
   44POPC   C1B  838   2.475   4.076   7.246
   44POPC   C2B  839   2.346   4.256   6.815
   44POPC   C3B  840   2.369   4.279   6.342
   44POPC   C4B  841   2.487   4.477   5.942
   45POPC   NC3  842   8.529   7.831   8.157
   45POPC   PO4  843   9.083   8.096   8.321
   45POPC   GL1  844   8.859   7.917   7.815
   45POPC   GL2  845   8.564   8.022   7.683
   45POPC   C1A  846   8.978   7.741   7.385
   45POPC   D2A  847   9.079   7.883   6.964
   45POPC   C3A  848   8.970   7.792   6.540
   45POPC   C4A  849   9.014   7.548   6.165
   45POPC   C1B  850   8.607   8.114   7.252
   45POPC   C2B  851   8.621   8.032   6.842
   45POPC   C3B  852   8.600   8.190   6.463
   45POPC   C4B  853   8.684   7.962   6.135
   46POPC   NC3  854   9.842  10.195   7.972
   46POPC   PO4  855  10.437   0.079   8.116
   46POPC   GL1  856   0.026  10.418   7.750
   46POPC   GL2  857  10.352  10.085   7.773
   46POPC   C1A  858  10.340  10.452   7.378
   46POPC   D2A  859  10.328   0.128   6.962
   46POPC   C3A  860  10.288   0.026   6.551
   46POPC   C4A  861  10.314  10.384   6.124
   46POPC   C1B  862  10.115   9.997   7.382
   46POPC   C2B  863   9.982  10.225   7.025
   46POPC   C3B  864  10.029  10.092   6.595
   46POPC   C4B  865  10.065   9.955   6.187
   47POPC   NC3  866   0.937   4.431   8.042
   47POPC   PO4  867   1.435   4.392   8.481
   47POPC   GL1  868   1.334   4.140   7.937
   47POPC   GL2  869   1.077   3.953   7.739
   47POPC   C1A  870   1.392   4.252   7.418
   47POPC   D2A  871   1.400   4.497   6.980
   47POPC   C3A  872   1.399   4.228   6.573
   47POPC   C4A  873   1.506   4.239   6.103
   47POPC   C1B  874   0.903   4.141   7.368
   47POPC   C2B  875   0.916   4.313   6.971
   47POPC   C3B  876   0.878   4.146   6.561
   47POPC   C4B  877   1.043   4.042   6.172
   48POPC   NC3  878   2.201   0.359   8.041
   48POPC   PO4  879   1.488   0.401   8.092
   48POPC   GL1  880   1.758   0.337   7.735
   48POPC   GL2  881   1.656   0.675   7.630
   48POPC   C1A  882   2.041   0.157   7.391
   48POPC   D2A  883   2.058  10.464   6.976
   48POPC   C3A  884   2.281   0.119   6.620
   48POPC   C4A  885   2.183   0.029   6.174
   48POPC   C1B  886   2.064   0.667   7.390
   48POPC   C2B  887   2.223   0.478   7.019
   48POPC   C3B  888   1.906   0.429   6.722
   48POPC   C4B  889   1.883   0.412   6.288
   49POPC   NC3  890   6.918   0.404   8.011
   49POPC   PO4  891   7.414   0.891   7.990
   49POPC   GL1  892   7.254   0.736   7.645
   49POPC   GL2  893   7.317   0.378   7.667
   49POPC   C1A  894   7.373   0.671   7.220
   49POPC   D2A  895   7.344   0.315   6.928
   49POPC   C3A  896   7.557   0.492   6.599
   49POPC   C4A  897   7.560   0.778   6.250
   49POPC   C1B  898   7.004   0.336   7.340
   49POPC   C2B  899   6.835   0.159   6.962
   49POPC   C3B  900   6.911   0.336   6.576
   49POPC   C4B  901   7.218   0.359   6.228
   50POPC   NC3  902   6.951   2.935   8.247
   50POPC   PO4  903   7.663   3.045   8.107
   50POPC   GL1  904   7.373   2.863   7.788
   50POPC   GL2  905   7.270   2.486   7.816
   50POPC   C1A  906   7.462   2.661   7.376
   50POPC   D2A  907   7.175   2.593   7.028
   50POPC   C3A  908   7.117   2.702   6.623
   50POPC   C4A  909   6.927   2.950   6.280
   50POPC   C1B  910   7.191   2.227   7.405
   50POPC   C2B  911   7.347   2.124   6.970
   50POPC   C3B  912   7.491   2.367   6.599
   50POPC   C4B  913   7.322   2.571   6.197
   51POPC   NC3  914   7.115   9.998   8.386
   51POPC   PO4  915   7.603   9.976   7.884
   51POPC   GL1  916   7.241  10.039   7.634
   51POPC   GL2  917   7.091  10.390   7.685
   51POPC   C1A  918   7.049   9.833   7.283
   51POPC   D2A  919   7.187   9.657   6.898
   51POPC   C3A  920   7.069   9.930   6.595
   51POPC   C4A  921   6.940  10.053   6.213
   51POPC   C1B  922   7.313  10.444   7.319
   51POPC   C2B  923   7.179  10.295   6.952
   51POPC   C3B  924   7.203  10.425   6.536
   51POPC   C4B  925   7.416  10.232   6.225
   52POPC   NC3  926  10.249   1.288   8.175
   52POPC   PO4  927   9.818   0.767   8.250
   52POPC   GL1  928  10.054   0.900   7.867
   52POPC   GL2  929  10.080   1.259   7.706
   52POPC   C1A  930  10.099   0.843   7.411
   52POPC   D2A  931  10.206   0.986   6.953
   52POPC   C3A  932   9.949   1.039   6.608
   52POPC   C4A  933  10.095   0.917   6.234
   52POPC   C1B  934  10.218   1.371   7.295
   52POPC   C2B  935  10.165   1.480   6.859
   52POPC   C3B  936  10.389   1.273   6.543
   52POPC   C4B  937   0.019   1.221   6.152
   53POPC   NC3  938   8.608   7.025   8.008
   53POPC   PO4  939   8.986   7.543   8.138
   53POPC   GL1  940   8.697   7.445   7.734
   53POPC   GL2  941   8.682   7.108   7.531
   53POPC   C1A  942   8.522   7.539   7.304
   53POPC   D2A  943   8.740   7.507   6.907
   53POPC   C3A  944   8.497   7.624   6.534
   53POPC   C4A  945   8.513   7.447   6.112
   53POPC   C1B  946   8.317   7.068   7.309
   53POPC   C2B  947   8.329   7.209   6.898
   53POPC   C3B  948   8.529   7.114   6.546
   53POPC   C4B  949   8.716   6.994   6.212
   54POPC   NC3  950   8.739   3.997   8.146
   54POPC   PO4  951   8.496   4.569   8.040
   54POPC   GL1  952   8.527   4.319   7.649
   54POPC   GL2  953   8.818   4.241   7.711
   54POPC   C1A  954   8.520   3.979   7.342
   54POPC   D2A  955   8.372   3.830   6.945
   54POPC   C3A  956   8.463   4.078   6.630
   54POPC   C4A  957   8.498   3.792   6.310
   54POPC   C1B  958   8.908   4.390   7.313
   54POPC   C2B  959   8.763   4.467   6.916
   54POPC   C3B  960   8.885   4.407   6.535
   54POPC   C4B  961   8.693   4.253   6.207
   55POPC   NC3  962   9.346   7.265   8.269
   55POPC   PO4  963   9.065   6.675   8.301
   55POPC   GL1  964   9.120   7.079   7.866
   55POPC   GL2  965   9.447   7.225   7.760
   55POPC   C1A  966   9.135   7.169   7.355
   55POPC   D2A  967   8.926   7.013   6.950
   55POPC   C3A  968   9.046   7.226   6.558
   55POPC   C4A  969   9.218   7.082   6.142
   55POPC   C1B  970   9.640   7.058   7.373
   55POPC   C2B  971   9.475   6.961   6.967
   55POPC   C3B  972   9.547   7.103   6.574
   55POPC   C4B  973   9.815   7.011   6.273
   56POPC   NC3  974  10.144   7.630   8.043
   56POPC   PO4  975  10.482   8.177   8.246
   56POPC   GL1  976  10.403   8.000   7.797
   56POPC   GL2  977  10.140   7.912   7.644
   56POPC   C1A  978  10.408   7.776   7.290
   56POPC   D2A  979   0.065   7.927   6.968
   56POPC   C3A  980  10.306   7.780   6.709
   56POPC   C4A  981  10.355   7.782   6.309
   56POPC   C1B  982   9.939   7.978   7.274
   56POPC   C2B  983  10.013   8.155   6.912
   56POPC   C3B  984   9.886   7.971   6.502
   56POPC   C4B  985   9.806   7.865   6.104
   57POPC   NC3  986   1.540   3.067   8.357
   57POPC   PO4  987   0.929   3.115   8.066
   57POPC   GL1  988   0.942   3.373   7.706
   57POPC   GL2  989   1.295   3.465   7.689
   57POPC   C1A  990   1.019   3.280   7.294
   57POPC   D2A  991   1.263   3.248   6.950
   57POPC   C3A  992   1.027   3.278   6.592
   57POPC   C4A  993   1.165   3.361   6.195
   57POPC   C1B  994   1.260   3.738   7.320
   57POPC   C2B  995   1.069   3.809   6.934
   57POPC   C3B  996   1.227   3.742   6.533
   57POPC   C4B  997   1.536   3.737   6.191
   58POPC   NC3  998  10.172   3.635   8.033
   58POPC   PO4  999   9.855   3.063   8.168
   58POPC   GL1 1000   9.994   3.114   7.723
   58POPC   GL2 1001  10.141   3.420   7.535
   58POPC   C1A 1002  10.025   2.966   7.290
   58POPC   D2A 1003   9.843   3.069   6.884
   58POPC   C3A 1004  10.099   3.138   6.540
   58POPC   C4A 1005   9.994   3.226   6.127
   58POPC   C1B 1006  10.030   3.656   7.169
   58POPC   C2B 1007  10.227   3.575   6.788
   58POPC   C3B 1008  10.229   3.644   6.346
   58POPC   C4B 1009  10.036   3.692   5.959
   59POPC   NC3 1010   7.212   7.842   8.402
   59POPC   PO4 1011   7.277   7.967   7.871
   59POPC   GL1 1012   7.086   8.015   7.556
   59POPC   GL2 1013   6.958   8.356   7.486
   59POPC   C1A 1014   7.129   7.762   7.225
   59POPC   D2A 1015   7.337   7.602   6.896
   59POPC   C3A 1016   7.169   7.677   6.469
   59POPC   C4A 1017   7.307   7.672   5.995
   59POPC   C1B 1018   7.311   8.260   7.202
   59POPC   C2B 1019   7.161   8.094   6.847
   59POPC   C3B 1020   7.194   8.185   6.485
   59POPC   C4B 1021   7.021   8.045   6.130
   60POPC   NC3 1022   2.703   6.609   8.158
   60POPC   PO4 1023   3.045   6.044   7.989
   60POPC   GL1 1024   2.798   6.268   7.660
   60POPC   GL2 1025   2.495   6.443   7.725
   60POPC   C1A 1026   2.874   6.374   7.205
   60POPC   D2A 1027   3.156   6.258   6.826
   60POPC   C3A 1028   3.022   6.401   6.396
   60POPC   C4A 1029   3.032   6.142   5.978
   60POPC   C1B 1030   2.331   6.279   7.342
   60POPC   C2B 1031   2.233   6.216   6.910
   60POPC   C3B 1032   2.436   6.413   6.522
   60POPC   C4B 1033   2.580   6.363   6.091
   61POPC   NC3 1034   8.169   4.222   7.980
   61POPC   PO4 1035   7.850   3.716   8.206
   61POPC   GL1 1036   7.799   3.837   7.772
   61POPC   GL2 1037   7.804   4.141   7.632
   61POPC   C1A 1038   7.748   3.745   7.317
   61POPC   D2A 1039   7.676   3.948   6.905
   61POPC   C3A 1040   7.957   3.904   6.550
   61POPC   C4A 1041   8.140   4.120   6.222
   61POPC   C1B 1042   8.043   4.177   7.239
   61POPC   C2B 1043   8.022   4.330   6.798
   61POPC   C3B 1044   7.823   4.460   6.398
   61POPC   C4B 1045   7.491   4.515   6.088
   62POPC   NC3 1046   0.151   0.437   7.924
   62POPC   PO4 1047   0.628   0.043   8.043
   62POPC   GL1 1048   0.556   0.213   7.646
   62POPC   GL2 1049   0.637   0.564   7.769
   62POPC   C1A 1050   0.331   0.089   7.233
   62POPC   D2A 1051   0.285   0.147   6.752
   62POPC   C3A 1052   0.287  10.455   6.341
   62POPC   C4A 1053   0.594   0.079   6.021
   62POPC   C1B 1054   0.459   0.621   7.358
   62POPC   C2B 1055   0.578   0.517   6.967
   62POPC   C3B 1056   0.655   0.687   6.592
   62POPC   C4B 1057   0.421   0.440   6.337
   63POPC   NC3 1058   0.175   4.424   8.386
   63POPC   PO4 1059   0.333   3.892   8.036
   63POPC   GL1 1060   0.556   4.070   7.724
   63POPC   GL2 1061   0.525   4.406   7.735
   63POPC   C1A 1062   0.398   4.095   7.285
   63POPC   D2A 1063   0.533   3.977   6.906
   63POPC   C3A 1064   0.373   4.097   6.508
   63POPC   C4A 1065   0.533   4.024   6.116
   63POPC   C1B 1066   0.608   4.568   7.343
   63POPC   C2B 1067   0.433   4.518   6.942
   63POPC   C3B 1068   0.544   4.584   6.530
   63POPC   C4B 1069   0.750   4.469   6.159
   64POPC   NC3 1070   3.969   0.680   8.045
   64POPC   PO4 1071   3.946   0.030   8.069
   64POPC   GL1 1072   3.904   0.277   7.734
   64POPC   GL2 1073   4.254   0.401   7.705
   64POPC   C1A 1074   3.903   0.178   7.318
   64POPC   D2A 1075   3.726   0.351   6.957
   64POPC   C3A 1076   3.836   0.256   6.531
   64POPC   C4A 1077   3.831   0.620   6.293
   64POPC   C1B 1078   4.392   0.170   7.333
   64POPC   C2B 1079   4.229   0.222   6.927
   64POPC   C3B 1080   4.198   0.583   6.675
   64POPC   C4B 1081   4.317   0.386   6.303
   65POPC   NC3 1082   4.951   9.490   8.227
   65POPC   PO4 1083   4.507   9.045   8.077
   65POPC   GL1 1084   4.864   9.308   7.752
   65POPC   GL2 1085   5.015   9.687   7.755
   65POPC   C1A 1086   5.125   9.448   7.340
   65POPC   D2A 1087   4.924   9.395   6.961
   65POPC   C3A 1088   5.170   9.429   6.604
   65POPC   C4A 1089   5.081   9.583   6.235
   65POPC   C1B 1090   4.665   9.674   7.430
   65POPC   C2B 1091   4.527   9.756   6.988
   65POPC   C3B 1092   4.669   9.638   6.575
   65POPC   C4B 1093   4.720   9.262   6.341
   66POPC   NC3 1094   2.750   4.993   8.148
   66POPC   PO4 1095   2.989   4.444   8.063
   66POPC   GL1 1096   2.819   4.704   7.729
   66POPC   GL2 1097   2.455   4.760   7.794
   66POPC   C1A 1098   2.722   5.014   7.394
   66POPC   D2A 1099   2.781   5.346   7.100
   66POPC   C3A 1100   2.884   5.107   6.731
   66POPC   C4A 1101   2.851   5.177   6.306
   66POPC   C1B 1102   2.486   4.557   7.382
   66POPC   C2B 1103   2.627   4.684   6.978
   66POPC   C3B 1104   2.596   4.719   6.531
   66POPC   C4B 1105   2.872   4.673   6.192
   67POPC   NC3 1106   8.860   8.410   8.038
   67POPC   PO4 1107   9.079   9.058   8.050
   67POPC   GL1 1108   9.007   8.742   7.677
   67POPC   GL2 1109   8.785   8.477   7.553
   67POPC   C1A 1110   9.154   8.711   7.263
   67POPC   D2A 1111   9.046   8.383   7.005
   67POPC   C3A 1112   9.066   8.543   6.603
   67POPC   C4A 1113   8.986   8.409   6.200
   67POPC   C1B 1114   8.564   8.667   7.240
   67POPC   C2B 1115   8.582   8.556   6.826
   67POPC   C3B 1116   8.617   8.704   6.401
   67POPC   C4B 1117   8.519   8.453   5.999
   68POPC   NC3 1118   5.273   0.374   7.792
   68POPC   PO4 1119   4.879  10.495   8.163
   68POPC   GL1 1120   4.727   0.185   7.766
   68POPC   GL2 1121   4.775   0.547   7.734
   68POPC   C1A 1122   4.875   0.210   7.313
   68POPC   D2A 1123   5.132   0.435   7.059
   68POPC   C3A 1124   5.111   0.410   6.635
   68POPC   C4A 1125   5.049   0.371   6.225
   68POPC   C1B 1126   4.609   0.649   7.332
   68POPC   C2B 1127   4.656   0.495   6.909
   68POPC   C3B 1128   4.678   0.676   6.519
   68POPC   C4B 1129   4.701   0.700   6.098
   69POPC   NC3 1130   9.269   5.483   7.953
   69POPC   PO4 1131   9.738   5.940   8.211
   69POPC   GL1 1132   9.713   5.791   7.797
   69POPC   GL2 1133   9.394   5.816   7.591
   69POPC   C1A 1134   9.839   5.919   7.396
   69POPC   D2A 1135   9.545   5.969   7.091
   69POPC   C3A 1136   9.623   5.980   6.670
   69POPC   C4A 1137   9.446   5.919   6.288
   69POPC   C1B 1138   9.373   5.492   7.257
   69POPC   C2B 1139   9.161   5.335   6.895
   69POPC   C3B 1140   9.170   5.499   6.507
   69POPC   C4B 1141   9.192   5.332   6.137
   70POPC   NC3 1142   4.302   2.761   8.116
   70POPC   PO4 1143   3.838   2.314   7.970
   70POPC   GL1 1144   4.181   2.512   7.665
   70POPC   GL2 1145   4.145   2.842   7.584
   70POPC   C1A 1146   4.357   2.534   7.216
   70POPC   D2A 1147   4.444   2.776   6.817
   70POPC   C3A 1148   4.251   2.786   6.438
   70POPC   C4A 1149   4.114   2.546   6.101
   70POPC   C1B 1150   3.872   2.683   7.209
   70POPC   C2B 1151   3.862   2.696   6.751
   70POPC   C3B 1152   3.756   2.889   6.366
   70POPC   C4B 1153   3.698   2.748   5.925
   71POPC   NC3 1154   6.982   6.929   8.446
   71POPC   PO4 1155   7.513   6.835   8.087
   71POPC   GL1 1156   7.539   6.683   7.691
   71POPC   GL2 1157   7.352   6.389   7.641
   71POPC   C1A 1158   7.337   6.796   7.300
   71POPC   D2A 1159   7.119   6.779   6.931
   71POPC   C3A 1160   7.281   6.793   6.523
   71POPC   C4A 1161   7.102   6.517   6.217
   71POPC   C1B 1162   7.185   6.315   7.185
   71POPC   C2B 1163   7.137   6.185   6.738
   71POPC   C3B 1164   6.978   6.043   6.338
   71POPC   C4B 1165   7.273   6.059   5.999
   72POPC   NC3 1166   1.102   5.690   8.081
   72POPC   PO4 1167   1.531   6.184   8.050
   72POPC   GL1 1168   1.578   5.853   7.725
   72POPC   GL2 1169   1.382   5.520   7.700
   72POPC   C1A 1170   1.519   5.751   7.289
   72POPC   D2A 1171   1.320   5.819   6.923
   72POPC   C3A 1172   1.514   5.945   6.544
   72POPC   C4A 1173   1.345   5.772   6.181
   72POPC   C1B 1174   1.036   5.557   7.378
   72POPC   C2B 1175   1.041   5.364   6.958
   72POPC   C3B 1176   1.098   5.537   6.555
   72POPC   C4B 1177   0.947   5.399   6.164
   73POPC   NC3 1178   3.573  10.266   8.131
   73POPC   PO4 1179   3.087   9.856   7.913
   73POPC   GL1 1180   3.447  10.005   7.664
   73POPC   GL2 1181   3.590  10.355   7.639
   73POPC   C1A 1182   3.446   9.961   7.219
   73POPC   D2A 1183   3.401   9.729   6.823
   73POPC   C3A 1184   3.282  10.018   6.508
   73POPC   C4A 1185   2.939   9.990   6.229
   73POPC   C1B 1186   3.471  10.460   7.246
   73POPC   C2B 1187   3.623  10.371   6.842
   73POPC   C3B 1188   3.715  10.279   6.418
   73POPC   C4B 1189   3.733   9.899   6.216
   74POPC   NC3 1190   0.283   8.376   7.949
   74POPC   PO4 1191   0.822   8.725   8.084
   74POPC   GL1 1192   0.722   8.529   7.728
   74POPC   GL2 1193   0.497   8.771   7.599
   74POPC   C1A 1194   0.809   8.495   7.308
   74POPC   D2A 1195   0.644   8.747   6.974
   74POPC   C3A 1196   0.768   8.583   6.600
   74POPC   C4A 1197   0.629   8.584   6.212
   74POPC   C1B 1198   0.200   8.843   7.265
   74POPC   C2B 1199   0.163   8.858   6.840
   74POPC   C3B 1200   0.228   8.595   6.525
   74POPC   C4B 1201   0.073   8.543   6.144
   75POPC   NC3 1202   1.116   6.415   8.036
   75POPC   PO4 1203   0.960   6.993   8.187
   75POPC   GL1 1204   1.224   6.865   7.765
   75POPC   GL2 1205   1.064   6.585   7.571
   75POPC   C1A 1206   1.452   6.721   7.315
   75POPC   D2A 1207   1.207   6.548   6.937
   75POPC   C3A 1208   1.401   6.539   6.493
   75POPC   C4A 1209   1.308   6.511   6.027
   75POPC   C1B 1210   1.128   6.176   7.371
   75POPC   C2B 1211   0.908   6.111   6.988
   75POPC   C3B 1212   1.040   6.142   6.568
   75POPC   C4B 1213   0.991   6.141   6.138
   76POPC   NC3 1214   0.066   4.200   7.814
   76POPC   PO4 1215  10.047   4.501   8.136
   76POPC   GL1 1216  10.042   4.290   7.724
   76POPC   GL2 1217  10.113   3.942   7.639
   76POPC   C1A 1218   9.903   4.246   7.287
   76POPC   D2A 1219  10.099   4.317   6.903
   76POPC   C3A 1220   9.882   4.398   6.562
   76POPC   C4A 1221  10.051   4.443   6.176
   76POPC   C1B 1222  10.366   4.027   7.253
   76POPC   C2B 1223   0.009   4.003   6.849
   76POPC   C3B 1224  10.359   4.134   6.444
   76POPC   C4B 1225  10.440   4.009   6.008
   77POPC   NC3 1226   1.899   5.876   8.155
   77POPC   PO4 1227   1.507   5.336   8.159
   77POPC   GL1 1228   1.873   5.445   7.818
   77POPC   GL2 1229   2.135   5.702   7.745
   77POPC   C1A 1230   1.828   5.351   7.396
   77POPC   D2A 1231   1.903   5.305   6.963
   77POPC   C3A 1232   1.637   5.445   6.629
   77POPC   C4A 1233   1.848   5.438   6.219
   77POPC   C1B 1234   2.022   5.866   7.343
   77POPC   C2B 1235   1.850   5.864   6.926
   77POPC   C3B 1236   2.027   5.793   6.534
   77POPC   C4B 1237   2.241   6.008   6.245
   78POPC   NC3 1238   8.490   3.328   7.885
   78POPC   PO4 1239   9.135   3.134   7.992
   78POPC   GL1 1240   8.909   3.340   7.647
   78POPC   GL2 1241   8.840   3.706   7.714
   78POPC   C1A 1242   8.685   3.488   7.263
   78POPC   D2A 1243   8.533   3.286   6.901
   78POPC   C3A 1244   8.711   3.351   6.491
   78POPC   C4A 1245   8.459   3.285   6.120
   78POPC   C1B 1246   9.031   3.880   7.341
   78POPC   C2B 1247   8.879   3.955   6.931
   78POPC   C3B 1248   8.961   3.902   6.496
   78POPC   C4B 1249   8.931   3.640   6.131
   79POPC   NC3 1250   9.818   4.237   8.476
   79POPC   PO4 1251   9.139   4.290   8.155
   79POPC   GL1 1252   9.288   4.081   7.734
   79POPC   GL2 1253   9.598   4.029   7.648
   79POPC   C1A 1254   9.399   4.319   7.312
   79POPC   D2A 1255   9.254   4.294   6.903
   79POPC   C3A 1256   9.390   4.485   6.528
   79POPC   C4A 1257   9.224   4.257   6.168
   79POPC   C1B 1258   9.554   3.831   7.287
   79POPC   C2B 1259   9.673   3.983   6.899
   79POPC   C3B 1260   9.476   3.970   6.525
   79POPC   C4B 1261   9.757   4.030   6.218
   80POPC   NC3 1262   6.277   6.722   7.767
   80POPC   PO4 1263   6.706   7.137   8.117
   80POPC   GL1 1264   6.676   7.132   7.656
   80POPC   GL2 1265   6.372   7.316   7.645
   80POPC   C1A 1266   6.701   6.874   7.248
   80POPC   D2A 1267   6.655   6.923   6.793
   80POPC   C3A 1268   6.605   6.628   6.444
   80POPC   C4A 1269   6.297   6.671   6.109
   80POPC   C1B 1270   6.532   7.404   7.228
   80POPC   C2B 1271   6.331   7.302   6.855
   80POPC   C3B 1272   6.315   7.106   6.455
   80POPC   C4B 1273   6.083   7.365   6.209
   81POPC   NC3 1274   0.614   1.115   8.312
   81POPC   PO4 1275  10.486   0.801   8.154
   81POPC   GL1 1276   0.045   0.954   7.730
   81POPC   GL2 1277   0.107   1.312   7.766
   81POPC   C1A 1278   0.081   0.943   7.276
   81POPC   D2A 1279   0.433   1.013   6.981
   81POPC   C3A 1280   0.392   1.107   6.549
   81POPC   C4A 1281   0.421   0.896   6.155
   81POPC   C1B 1282   0.303   1.364   7.364
   81POPC   C2B 1283   0.183   1.479   6.921
   81POPC   C3B 1284   0.306   1.579   6.445
   81POPC   C4B 1285   0.538   1.363   6.088
   82POPC   NC3 1286   9.252   6.275   8.161
   82POPC   PO4 1287   8.840   6.688   7.807
   82POPC   GL1 1288   9.013   6.285   7.696
   82POPC   GL2 1289   9.395   6.320   7.674
   82POPC   C1A 1290   9.090   6.161   7.271
   82POPC   D2A 1291   8.859   6.278   6.873
   82POPC   C3A 1292   9.133   6.295   6.501
   82POPC   C4A 1293   9.197   6.722   6.477
   82POPC   C1B 1294   9.332   6.606   7.320
   82POPC   C2B 1295   9.414   6.451   6.896
   82POPC   C3B 1296   9.637   6.459   6.485
   82POPC   C4B 1297   9.957   6.188   6.314
   83POPC   NC3 1298   9.483   0.602   7.948
   83POPC   PO4 1299   8.996   0.292   8.296
   83POPC   GL1 1300   9.136   0.269   7.787
   83POPC   GL2 1301   9.491   0.278   7.570
   83POPC   C1A 1302   9.084   0.454   7.340
   83POPC   D2A 1303   9.283   0.333   6.930
   83POPC   C3A 1304   9.155   0.454   6.522
   83POPC   C4A 1305   9.031   0.849   6.451
   83POPC   C1B 1306   9.590   0.619   7.265
   83POPC   C2B 1307   9.617   0.710   6.812
   83POPC   C3B 1308   9.642   0.667   6.377
   83POPC   C4B 1309   9.497   0.323   6.135
   84POPC   NC3 1310   7.149   7.059   7.886
   84POPC   PO4 1311   7.525   7.468   8.315
   84POPC   GL1 1312   7.392   7.482   7.799
   84POPC   GL2 1313   7.069   7.480   7.627
   84POPC   C1A 1314   7.485   7.356   7.362
   84POPC   D2A 1315   7.519   7.119   6.956
   84POPC   C3A 1316   7.580   7.308   6.567
   84POPC   C4A 1317   7.307   7.234   6.257
   84POPC   C1B 1318   7.026   7.261   7.177
   84POPC   C2B 1319   7.033   7.242   6.706
   84POPC   C3B 1320   6.842   7.052   6.321
   84POPC   C4B 1321   6.781   6.776   5.929
   85POPC   NC3 1322   7.776   1.713   8.159
   85POPC   PO4 1323   8.087   2.142   8.180
   85POPC   GL1 1324   8.034   1.912   7.710
   85POPC   GL2 1325   7.725   1.705   7.630
   85POPC   C1A 1326   8.040   1.727   7.238
   85POPC   D2A 1327   8.202   1.778   6.830
   85POPC   C3A 1328   7.993   1.607   6.460
   85POPC   C4A 1329   8.117   1.539   5.994
   85POPC   C1B 1330   7.702   2.081   7.324
   85POPC   C2B 1331   7.854   2.166   6.930
   85POPC   C3B 1332   7.931   2.115   6.529
   85POPC   C4B 1333   8.071   2.014   6.171
   86POPC   NC3 1334   7.221   9.178   8.139
   86POPC   PO4 1335   7.498   9.767   8.358
   86POPC   GL1 1336   7.461   9.495   7.842
   86POPC   GL2 1337   7.131   9.520   7.712
   86POPC   C1A 1338   7.378   9.227   7.390
   86POPC   D2A 1339   7.362   8.962   6.985
   86POPC   C3A 1340   7.338   9.166   6.607
   86POPC   C4A 1341   7.468   9.055   6.183
   86POPC   C1B 1342   6.855   9.317   7.386
   86POPC   C2B 1343   6.897   9.223   6.948
   86POPC   C3B 1344   6.918   9.434   6.514
   86POPC   C4B 1345   7.334   9.599   6.315
   87POPC   NC3 1346   6.947   1.066   8.121
   87POPC   PO4 1347   7.401   1.468   8.134
   87POPC   GL1 1348   7.261   1.295   7.719
   87POPC   GL2 1349   6.957   1.190   7.652
   87POPC   C1A 1350   7.273   1.191   7.281
   87POPC   D2A 1351   7.294   1.110   6.872
   87POPC   C3A 1352   7.125   1.378   6.558
   87POPC   C4A 1353   7.159   1.351   6.104
   87POPC   C1B 1354   6.855   0.855   7.360
   87POPC   C2B 1355   6.934   0.697   6.941
   87POPC   C3B 1356   7.107   0.794   6.526
   87POPC   C4B 1357   6.849   1.011   6.288
   88POPC   NC3 1358   2.543   0.932   8.138
   88POPC   PO4 1359   3.195   1.042   8.171
   88POPC   GL1 1360   3.107   1.227   7.732
   88POPC   GL2 1361   2.780   1.162   7.711
   88POPC   C1A 1362   3.072   1.342   7.281
   88POPC   D2A 1363   3.021   1.103   6.937
   88POPC   C3A 1364   2.869   1.253   6.563
   88POPC   C4A 1365   3.016   1.096   6.213
   88POPC   C1B 1366   2.603   1.092   7.304
   88POPC   C2B 1367   2.511   1.290   6.924
   88POPC   C3B 1368   2.344   1.154   6.531
   88POPC   C4B 1369   2.451   1.034   6.120
   89POPC   NC3 1370   0.526   9.092   8.011
   89POPC   PO4 1371   0.414   9.758   7.981
   89POPC   GL1 1372   0.617   9.446   7.678
   89POPC   GL2 1373   0.319   9.277   7.577
   89POPC   C1A 1374   0.678   9.173   7.258
   89POPC   D2A 1375   0.455   9.269   6.854
   89POPC   C3A 1376   0.511   9.031   6.473
   89POPC   C4A 1377   0.530   9.031   5.994
   89POPC   C1B 1378   0.432   9.629   7.275
   89POPC   C2B 1379   0.303   9.757   6.908
   89POPC   C3B 1380   0.479   9.787   6.539
   89POPC   C4B 1381   0.356   9.480   6.240
   90POPC   NC3 1382   5.664   9.035   8.034
   90POPC   PO4 1383   5.391   9.680   8.127
   90POPC   GL1 1384   5.503   9.496   7.719
   90POPC   GL2 1385   5.847   9.456   7.737
   90POPC   C1A 1386   5.569   9.185   7.369
   90POPC   D2A 1387   5.345   9.092   6.962
   90POPC   C3A 1388   5.569   9.099   6.561
   90POPC   C4A 1389   5.748   9.335   6.216
   90POPC   C1B 1390   5.886   9.606   7.326
   90POPC   C2B 1391   5.591   9.547   6.999
   90POPC   C3B 1392   5.657   9.631   6.620
   90POPC   C4B 1393   6.025   9.767   6.367
   91POPC   NC3 1394   3.746   2.760   7.859
   91POPC   PO4 1395   3.068   2.940   8.088
   91POPC   GL1 1396   3.292   2.921   7.732
   91POPC   GL2 1397   3.341   2.509   7.730
   91POPC   C1A 1398   3.181   2.996   7.317
   91POPC   D2A 1399   3.041   2.775   6.968
   91POPC   C3A 1400   3.178   2.910   6.565
   91POPC   C4A 1401   3.325   3.065   6.192
   91POPC   C1B 1402   3.268   2.478   7.323
   91POPC   C2B 1403   3.451   2.491   6.942
   91POPC   C3B 1404   3.466   2.479   6.518
   91POPC   C4B 1405   3.278   2.547   6.139
   92POPC   NC3 1406   1.878   8.238   8.109
   92POPC   PO4 1407   1.766   7.584   8.208
   92POPC   GL1 1408   1.609   7.799   7.796
   92POPC   GL2 1409   1.686   8.105   7.631
   92POPC   C1A 1410   1.696   7.654   7.338
   92POPC   D2A 1411   1.680   7.919   6.962
   92POPC   C3A 1412   1.679   7.766   6.526
   92POPC   C4A 1413   1.684   8.176   6.287
   92POPC   C1B 1414   2.067   7.978   7.393
   92POPC   C2B 1415   2.157   7.785   6.974
   92POPC   C3B 1416   2.097   8.041   6.615
   92POPC   C4B 1417   2.096   7.847   6.231
   93POPC   NC3 1418   7.783   7.711   7.985
   93POPC   PO4 1419   8.213   8.176   8.154
   93POPC   GL1 1420   8.065   8.025   7.724
   93POPC   GL2 1421   7.734   8.138   7.645
   93POPC   C1A 1422   8.138   7.872   7.293
   93POPC   D2A 1423   8.142   8.124   6.905
   93POPC   C3A 1424   8.131   8.000   6.489
   93POPC   C4A 1425   8.092   8.218   6.144
   93POPC   C1B 1426   7.632   7.856   7.304
   93POPC   C2B 1427   7.659   7.986   6.894
   93POPC   C3B 1428   7.636   7.851   6.498
   93POPC   C4B 1429   7.569   8.112   6.172
   94POPC   NC3 1430   0.589   7.494   7.929
   94POPC   PO4 1431   0.362   6.887   7.820
   94POPC   GL1 1432   0.715   6.945   7.610
   94POPC   GL2 1433   0.588   7.245   7.481
   94POPC   C1A 1434   0.782   6.892   7.173
   94POPC   D2A 1435   0.486   7.130   6.970
   94POPC   C3A 1436   0.497   7.031   6.593
   94POPC   C4A 1437   0.714   7.156   6.246
   94POPC   C1B 1438   0.128   7.191   7.334
   94POPC   C2B 1439  10.429   7.363   7.006
   94POPC   C3B 1440   0.200   7.471   6.665
   94POPC   C4B 1441   0.218   7.303   6.256
   95POPC   NC3 1442   2.204   7.473   8.092
   95POPC   PO4 1443   1.665   6.979   8.002
   95POPC   GL1 1444   1.738   7.076   7.599
   95POPC   GL2 1445   1.874   7.377   7.711
   95POPC   C1A 1446   1.688   7.168   7.167
   95POPC   D2A 1447   1.645   6.876   6.842
   95POPC   C3A 1448   1.601   7.044   6.471
   95POPC   C4A 1449   1.678   6.830   6.124
   95POPC   C1B 1450   2.196   7.455   7.406
   95POPC   C2B 1451   2.223   7.158   7.085
   95POPC   C3B 1452   2.001   7.260   6.725
   95POPC   C4B 1453   2.008   7.325   6.281
   96POPC   NC3 1454   4.237   3.505   8.050
   96POPC   PO4 1455   4.616   4.013   7.848
   96POPC   GL1 1456   4.328   3.692   7.590
   96POPC   GL2 1457   4.372   3.304   7.603
   96POPC   C1A 1458   4.147   3.566   7.188
   96POPC   D2A 1459   4.459   3.445   6.866
   96POPC   C3A 1460   4.456   3.698   6.534
   96POPC   C4A 1461   4.123   3.787   6.279
   96POPC   C1B 1462   4.311   3.086   7.203
   96POPC   C2B 1463   4.052   3.140   6.847
   96POPC   C3B 1464   4.128   3.295   6.451
   96POPC   C4B 1465   4.436   3.411   6.113
   97POPC   NC3 1466   5.104   2.887   8.067
   97POPC   PO4 1467   4.558   3.127   8.066
   97POPC   GL1 1468   4.679   2.842   7.671
   97POPC   GL2 1469   5.060   2.745   7.588
   97POPC   C1A 1470   4.776   2.866   7.190
   97POPC   D2A 1471   4.955   2.765   6.762
   97POPC   C3A 1472   4.747   2.712   6.377
   97POPC   C4A 1473   4.533   2.818   5.996
   97POPC   C1B 1474   5.238   2.635   7.182
   97POPC   C2B 1475   5.217   2.348   6.816
   97POPC   C3B 1476   5.254   2.542   6.393
   97POPC   C4B 1477   5.202   3.005   6.355
   98POPC   NC3 1478   1.799   6.559   8.083
   98POPC   PO4 1479   2.272   6.137   8.078
   98POPC   GL1 1480   1.974   6.210   7.735
   98POPC   GL2 1481   1.992   6.567   7.627
   98POPC   C1A 1482   1.689   6.248   7.362
   98POPC   D2A 1483   1.687   6.372   6.926
   98POPC   C3A 1484   1.902   6.321   6.538
   98POPC   C4A 1485   1.709   6.236   6.163
   98POPC   C1B 1486   1.964   6.709   7.228
   98POPC   C2B 1487   2.125   6.716   6.830
   98POPC   C3B 1488   2.094   6.824   6.427
   98POPC   C4B 1489   2.103   6.542   6.079
   99POPC   NC3 1490   1.302   2.921   7.846
   99POPC   PO4 1491   0.934   2.220   8.005
   99POPC   GL1 1492   0.986   2.501   7.654
   99POPC   GL2 1493   0.868   2.847   7.621
   99POPC   C1A 1494   0.949   2.312   7.269
   99POPC   D2A 1495   1.139   2.308   6.869
   99POPC   C3A 1496   0.977   2.401   6.470
   99POPC   C4A 1497   1.106   2.496   6.028
   99POPC   C1B 1498   1.106   2.783   7.222
   99POPC   C2B 1499   1.065   2.805   6.783
   99POPC   C3B 1500   1.247   2.851   6.411
   99POPC   C4B 1501   0.868   2.912   6.210
  100POPC   NC3 1502   8.006  10.279   8.030
  100POPC   PO4 1503   8.338   9.719   7.981
  100POPC   GL1 1504   8.046   9.959   7.647
  100POPC   GL2 1505   7.776  10.319   7.577
  100POPC   C1A 1506   8.101  10.144   7.267
  100POPC   D2A 1507   8.069  10.003   6.881
  100POPC   C3A 1508   8.171  10.217   6.514
  100POPC   C4A 1509   7.922  10.293   6.152
  100POPC   C1B 1510   7.602  10.044   7.224
  100POPC   C2B 1511   7.564  10.023   6.777
  100POPC   C3B 1512   7.766   9.899   6.437
  100POPC   C4B 1513   7.685   9.864   6.007
  101POPC   NC3 1514   1.992   1.336   8.074
  101POPC   PO4 1515   1.904   2.026   8.156
  101POPC   GL1 1516   1.754   1.923   7.733
  101POPC   GL2 1517   1.938   2.224   7.680
  101POPC   C1A 1518   1.669   1.705   7.301
  101POPC   D2A 1519   1.968   1.745   6.924
  101POPC   C3A 1520   2.077   1.744   6.475
  101POPC   C4A 1521   1.777   1.712   6.104
  101POPC   C1B 1522   1.950   2.123   7.280
  101POPC   C2B 1523   1.884   2.331   6.943
  101POPC   C3B 1524   1.951   2.315   6.560
  101POPC   C4B 1525   1.913   2.174   6.224
  102POPC   NC3 1526   0.598   3.491   8.072
  102POPC   PO4 1527  10.482   3.335   7.886
  102POPC   GL1 1528   0.082   3.691   7.618
  102POPC   GL2 1529   0.413   3.596   7.618
  102POPC   C1A 1530   0.182   3.621   7.168
  102POPC   D2A 1531   0.196   3.233   6.940
  102POPC   C3A 1532   0.105   3.324   6.509
  102POPC   C4A 1533   0.229   3.653   6.267
  102POPC   C1B 1534   0.695   3.666   7.314
  102POPC   C2B 1535   0.668   3.497   6.908
  102POPC   C3B 1536   0.697   3.664   6.506
  102POPC   C4B 1537   0.658   3.386   6.193
  103POPC   NC3 1538   0.329  10.206   8.128
  103POPC   PO4 1539   1.076  10.239   8.139
  103POPC   GL1 1540   0.829  10.265   7.684
  103POPC   GL2 1541   0.502  10.181   7.663
  103POPC   C1A 1542   0.765  10.055   7.255
  103POPC   D2A 1543   0.519  10.212   6.913
  103POPC   C3A 1544   0.713  10.276   6.521
  103POPC   C4A 1545   0.627  10.093   6.152
  103POPC   C1B 1546   0.197  10.073   7.377
  103POPC   C2B 1547  10.488  10.138   7.015
  103POPC   C3B 1548   0.064  10.114   6.624
  103POPC   C4B 1549   0.115   9.970   6.223
  104POPC   NC3 1550   7.734   1.263   7.888
  104POPC   PO4 1551   8.259   0.956   8.168
  104POPC   GL1 1552   8.209   1.023   7.706
  104POPC   GL2 1553   8.030   1.305   7.503
  104POPC   C1A 1554   8.245   0.956   7.250
  104POPC   D2A 1555   8.169   1.256   6.884
  104POPC   C3A 1556   8.142   1.132   6.466
  104POPC   C4A 1557   7.983   1.055   6.089
  104POPC   C1B 1558   7.761   1.082   7.192
  104POPC   C2B 1559   7.758   0.951   6.754
  104POPC   C3B 1560   7.612   1.247   6.438
  104POPC   C4B 1561   7.628   1.524   6.089
  105POPC   NC3 1562   6.815  10.014   7.925
  105POPC   PO4 1563   6.207   9.627   8.039
  105POPC   GL1 1564   6.223   9.922   7.711
  105POPC   GL2 1565   6.402  10.241   7.726
  105POPC   C1A 1566   6.121  10.075   7.303
  105POPC   D2A 1567   6.081   9.899   6.894
  105POPC   C3A 1568   6.098  10.237   6.603
  105POPC   C4A 1569   6.338  10.213   6.266
  105POPC   C1B 1570   6.681  10.276   7.350
  105POPC   C2B 1571   6.704  10.078   6.959
  105POPC   C3B 1572   6.708  10.299   6.605
  105POPC   C4B 1573   6.724   0.033   6.232
  106POPC   NC3 1574   4.799   1.903   7.988
  106POPC   PO4 1575   5.103   2.430   8.099
  106POPC   GL1 1576   4.869   2.286   7.670
  106POPC   GL2 1577   4.927   1.934   7.502
  106POPC   C1A 1578   4.833   2.347   7.227
  106POPC   D2A 1579   4.676   2.304   6.833
  106POPC   C3A 1580   4.875   2.229   6.445
  106POPC   C4A 1581   4.705   2.323   6.006
  106POPC   C1B 1582   4.772   1.849   7.109
  106POPC   C2B 1583   4.960   1.828   6.745
  106POPC   C3B 1584   5.033   1.719   6.362
  106POPC   C4B 1585   5.077   1.991   6.060
  107POPC   NC3 1586  10.251   8.490   8.021
  107POPC   PO4 1587   9.832   8.961   8.086
  107POPC   GL1 1588   9.977   8.758   7.687
  107POPC   GL2 1589   9.990   8.402   7.608
  107POPC   C1A 1590  10.168   8.752   7.286
  107POPC   D2A 1591   9.982   8.843   6.923
  107POPC   C3A 1592  10.224   8.741   6.612
  107POPC   C4A 1593  10.077   8.734   6.228
  107POPC   C1B 1594  10.345   8.286   7.357
  107POPC   C2B 1595  10.446   8.416   6.942
  107POPC   C3B 1596  10.320   8.264   6.524
  107POPC   C4B 1597  10.178   8.221   6.127
  108POPC   NC3 1598   1.949   9.893   7.977
  108POPC   PO4 1599   1.555   9.380   8.244
  108POPC   GL1 1600   1.772   9.447   7.776
  108POPC   GL2 1601   2.023   9.178   7.684
  108POPC   C1A 1602   1.976   9.510   7.323
  108POPC   D2A 1603   1.778   9.421   6.932
  108POPC   C3A 1604   1.902   9.558   6.506
  108POPC   C4A 1605   1.647   9.568   6.152
  108POPC   C1B 1606   2.108   8.980   7.304
  108POPC   C2B 1607   2.155   9.062   6.884
  108POPC   C3B 1608   1.889   9.074   6.559
  108POPC   C4B 1609   1.922   9.137   6.156
  109POPC   NC3 1610   0.861   9.837   7.946
  109POPC   PO4 1611   1.506   9.980   7.992
  109POPC   GL1 1612   1.253   9.993   7.668
  109POPC   GL2 1613   1.317  10.297   7.615
  109POPC   C1A 1614   1.277   9.981   7.232
  109POPC   D2A 1615   1.344   9.755   6.900
  109POPC   C3A 1616   1.063   9.903   6.622
  109POPC   C4A 1617   1.177   9.780   6.258
  109POPC   C1B 1618   1.101  10.475   7.285
  109POPC   C2B 1619   1.057  10.374   6.874
  109POPC   C3B 1620   1.237  10.352   6.446
  109POPC   C4B 1621   1.089   0.031   6.058
  110POPC   NC3 1622   7.867   9.659   8.091
  110POPC   PO4 1623   8.144   9.082   8.325
  110POPC   GL1 1624   7.987   9.164   7.879
  110POPC   GL2 1625   8.279   9.305   7.703
  110POPC   C1A 1626   7.847   9.387   7.459
  110POPC   D2A 1627   7.668   9.565   7.065
  110POPC   C3A 1628   7.769   9.439   6.649
  110POPC   C4A 1629   7.828   9.419   6.230
  110POPC   C1B 1630   8.277   9.629   7.337
  110POPC   C2B 1631   8.195   9.509   6.934
  110POPC   C3B 1632   8.304   9.694   6.542
  110POPC   C4B 1633   8.187   9.816   6.144
  111POPC   NC3 1634   9.316   7.855   8.010
  111POPC   PO4 1635   9.944   8.137   8.032
  111POPC   GL1 1636   9.652   8.025   7.683
  111POPC   GL2 1637   9.712   7.661   7.718
  111POPC   C1A 1638   9.449   8.078   7.248
  111POPC   D2A 1639   9.556   7.973   6.880
  111POPC   C3A 1640   9.365   8.137   6.544
  111POPC   C4A 1641   9.273   7.986   6.165
  111POPC   C1B 1642   9.477   7.572   7.343
  111POPC   C2B 1643   9.344   7.456   6.933
  111POPC   C3B 1644   9.442   7.614   6.530
  111POPC   C4B 1645   9.554   7.447   6.167
  112POPC   NC3 1646   8.709   1.120   8.086
  112POPC   PO4 1647   8.143   1.491   7.975
  112POPC   GL1 1648   8.467   1.492   7.689
  112POPC   GL2 1649   8.816   1.522   7.731
  112POPC   C1A 1650   8.457   1.444   7.247
  112POPC   D2A 1651   8.646   1.526   6.842
  112POPC   C3A 1652   8.500   1.500   6.406
  112POPC   C4A 1653   8.601   1.460   5.957
  112POPC   C1B 1654   8.766   1.115   7.456
  112POPC   C2B 1655   8.689   1.034   7.027
  112POPC   C3B 1656   8.606   1.038   6.634
  112POPC   C4B 1657   8.576   1.011   6.212
  113POPC   NC3 1658   5.214   0.300   8.293
  113POPC   PO4 1659   5.765   0.683   8.158
  113POPC   GL1 1660   5.690   0.657   7.702
  113POPC   GL2 1661   5.838   0.335   7.696
  113POPC   C1A 1662   5.584   0.483   7.242
  113POPC   D2A 1663   5.543   0.645   6.794
  113POPC   C3A 1664   5.525   0.544   6.322
  113POPC   C4A 1665   5.452   0.769   5.915
  113POPC   C1B 1666   6.050   0.557   7.343
  113POPC   C2B 1667   6.012   0.346   6.967
  113POPC   C3B 1668   5.924   0.358   6.568
  113POPC   C4B 1669   6.011   0.718   6.314
  114POPC   NC3 1670   2.015   3.596   8.035
  114POPC   PO4 1671   2.001   3.006   8.329
  114POPC   GL1 1672   2.169   3.155   7.832
  114POPC   GL2 1673   1.977   3.428   7.585
  114POPC   C1A 1674   2.113   3.036   7.346
  114POPC   D2A 1675   1.959   2.940   6.976
  114POPC   C3A 1676   2.159   3.094   6.641
  114POPC   C4A 1677   2.125   3.435   6.371
  114POPC   C1B 1678   1.660   3.402   7.275
  114POPC   C2B 1679   1.589   3.644   6.898
  114POPC   C3B 1680   1.606   3.377   6.555
  114POPC   C4B 1681   1.645   3.162   6.197
  115POPC   NC3 1682   7.965   2.600   8.140
  115POPC   PO4 1683   7.567   2.064   7.938
  115POPC   GL1 1684   7.847   2.399   7.687
  115POPC   GL2 1685   7.867   2.796   7.672
  115POPC   C1A 1686   7.937   2.555   7.250
  115POPC   D2A 1687   7.708   2.693   6.928
  115POPC   C3A 1688   7.985   2.628   6.605
  115POPC   C4A 1689   7.825   2.527   6.225
  115POPC   C1B 1690   8.160   2.995   7.341
  115POPC   C2B 1691   8.077   3.043   6.931
  115POPC   C3B 1692   7.793   3.107   6.617
  115POPC   C4B 1693   7.998   3.038   6.226
  116POPC   NC3 1694   2.957   9.476   8.175
  116POPC   PO4 1695   2.294   9.589   8.049
  116POPC   GL1 1696   2.493   9.375   7.716
  116POPC   GL2 1697   2.776   9.531   7.673
  116POPC   C1A 1698   2.473   9.365   7.254
  116POPC   D2A 1699   2.338   9.591   6.869
  116POPC   C3A 1700   2.354   9.351   6.487
  116POPC   C4A 1701   2.398   9.240   6.065
  116POPC   C1B 1702   2.696   9.822   7.335
  116POPC   C2B 1703   2.872   9.807   6.950
  116POPC   C3B 1704   2.820   9.585   6.606
  116POPC   C4B 1705   2.804   9.504   6.205
  117POPC   NC3 1706   9.478   2.810   7.959
  117POPC   PO4 1707   9.508   2.259   8.312
  117POPC   GL1 1708   9.443   2.252   7.819
  117POPC   GL2 1709   9.211   2.475   7.623
  117POPC   C1A 1710   9.603   2.260   7.339
  117POPC   D2A 1711   9.430   2.358   6.934
  117POPC   C3A 1712   9.523   2.599   6.579
  117POPC   C4A 1713   9.278   2.638   6.193
  117POPC   C1B 1714   9.449   2.755   7.299
  117POPC   C2B 1715   9.296   2.984   6.966
  117POPC   C3B 1716   9.159   2.976   6.577
  117POPC   C4B 1717   9.576   3.089   6.409
  118POPC   NC3 1718   5.603   8.291   7.969
  118POPC   PO4 1719   6.079   8.808   8.112
  118POPC   GL1 1720   5.995   8.589   7.747
  118POPC   GL2 1721   5.680   8.703   7.643
  118POPC   C1A 1722   6.056   8.790   7.328
  118POPC   D2A 1723   5.851   8.941   6.966
  118POPC   C3A 1724   5.922   8.720   6.561
  118POPC   C4A 1725   6.008   8.895   6.161
  118POPC   C1B 1726   5.487   8.700   7.254
  118POPC   C2B 1727   5.475   8.597   6.808
  118POPC   C3B 1728   5.377   8.617   6.381
  118POPC   C4B 1729   5.661   8.493   6.094
  119POPC   NC3 1730   1.196   9.009   8.167
  119POPC   PO4 1731   1.465   8.458   8.129
  119POPC   GL1 1732   1.382   8.503   7.726
  119POPC   GL2 1733   1.184   8.733   7.725
  119POPC   C1A 1734   1.323   8.392   7.302
  119POPC   D2A 1735   1.532   8.394   6.915
  119POPC   C3A 1736   1.283   8.321   6.572
  119POPC   C4A 1737   1.211   8.525   6.239
  119POPC   C1B 1738   1.111   8.885   7.344
  119POPC   C2B 1739   1.149   8.737   6.956
  119POPC   C3B 1740   1.040   8.992   6.654
  119POPC   C4B 1741   0.957   8.955   6.251
  120POPC   NC3 1742   2.768  10.305   8.376
  120POPC   PO4 1743   2.625   0.463   8.220
  120POPC   GL1 1744   2.801   0.432   7.819
  120POPC   GL2 1745   3.034   0.704   7.761
  120POPC   C1A 1746   2.593   0.324   7.407
  120POPC   D2A 1747   2.637   0.087   7.019
  120POPC   C3A 1748   2.767   0.283   6.659
  120POPC   C4A 1749   2.912   0.305   6.261
  120POPC   C1B 1750   2.955   0.721   7.314
  120POPC   C2B 1751   2.686   0.727   6.935
  120POPC   C3B 1752   2.718   0.762   6.488
  120POPC   C4B 1753   2.430   0.488   6.296
  121POPC   NC3 1754   4.213   8.001   8.343
  121POPC   PO4 1755   4.353   7.443   8.063
  121POPC   GL1 1756   4.333   7.366   7.647
  121POPC   GL2 1757   4.055   7.160   7.623
  121POPC   C1A 1758   4.271   7.316   7.195
  121POPC   D2A 1759   4.484   7.442   6.829
  121POPC   C3A 1760   4.373   7.229   6.447
  121POPC   C4A 1761   4.607   6.968   6.143
  121POPC   C1B 1762   3.988   6.875   7.276
  121POPC   C2B 1763   4.095   6.963   6.826
  121POPC   C3B 1764   4.019   6.867   6.374
  121POPC   C4B 1765   4.156   7.113   5.967
  122POPC   NC3 1766   8.032   3.274   8.266
  122POPC   PO4 1767   8.369   3.776   7.964
  122POPC   GL1 1768   8.200   3.609   7.598
  122POPC   GL2 1769   7.943   3.334   7.705
  122POPC   C1A 1770   8.167   3.474   7.229
  122POPC   D2A 1771   7.952   3.523   6.888
  122POPC   C3A 1772   8.187   3.432   6.550
  122POPC   C4A 1773   8.071   3.578   6.176
  122POPC   C1B 1774   7.703   3.206   7.311
  122POPC   C2B 1775   7.461   3.438   7.003
  122POPC   C3B 1776   7.532   3.610   6.568
  122POPC   C4B 1777   7.623   3.378   6.221
  123POPC   NC3 1778   2.573   8.469   8.453
  123POPC   PO4 1779   2.293   8.005   8.009
  123POPC   GL1 1780   2.545   7.827   7.696
  123POPC   GL2 1781   2.875   7.875   7.842
  123POPC   C1A 1782   2.549   7.888   7.261
  123POPC   D2A 1783   2.550   8.137   6.917
  123POPC   C3A 1784   2.579   7.902   6.570
  123POPC   C4A 1785   2.593   8.033   6.173
  123POPC   C1B 1786   3.003   7.792   7.409
  123POPC   C2B 1787   2.966   7.766   6.945
  123POPC   C3B 1788   2.929   7.544   6.525
  123POPC   C4B 1789   2.984   7.695   6.118
  124POPC   NC3 1790   2.505   8.403   7.878
  124POPC   PO4 1791   2.984   8.287   8.382
  124POPC   GL1 1792   3.031   8.361   7.847
  124POPC   GL2 1793   2.960   8.693   7.662
  124POPC   C1A 1794   2.892   8.292   7.353
  124POPC   D2A 1795   2.727   8.613   7.008
  124POPC   C3A 1796   2.695   8.494   6.531
  124POPC   C4A 1797   2.975   8.425   6.163
  124POPC   C1B 1798   2.892   9.021   7.302
  124POPC   C2B 1799   2.669   9.102   6.864
  124POPC   C3B 1800   2.762   9.065   6.440
  124POPC   C4B 1801   2.690   8.837   6.080
  125POPC   NC3 1802   7.773   6.427   8.096
  125POPC   PO4 1803   8.274   6.809   8.250
  125POPC   GL1 1804   8.073   6.713   7.774
  125POPC   GL2 1805   7.969   6.341   7.661
  125POPC   C1A 1806   8.169   6.582   7.291
  125POPC   D2A 1807   8.079   6.350   6.916
  125POPC   C3A 1808   8.010   6.513   6.502
  125POPC   C4A 1809   8.260   6.717   6.186
  125POPC   C1B 1810   7.702   6.402   7.281
  125POPC   C2B 1811   7.570   6.507   6.868
  125POPC   C3B 1812   7.525   6.332   6.453
  125POPC   C4B 1813   7.617   6.460   6.050
  126POPC   NC3 1814   2.614   5.859   7.938
  126POPC   PO4 1815   2.354   5.221   8.086
  126POPC   GL1 1816   2.406   5.277   7.679
  126POPC   GL2 1817   2.701   5.490   7.603
  126POPC   C1A 1818   2.312   5.460   7.292
  126POPC   D2A 1819   2.322   5.675   6.940
  126POPC   C3A 1820   2.590   5.537   6.646
  126POPC   C4A 1821   2.487   5.532   6.255
  126POPC   C1B 1822   2.655   5.860   7.285
  126POPC   C2B 1823   2.695   6.028   6.848
  126POPC   C3B 1824   2.739   5.975   6.406
  126POPC   C4B 1825   2.988   5.671   6.204
  127POPC   NC3 1826   9.348   9.437   8.087
  127POPC   PO4 1827   9.915   9.741   7.961
  127POPC   GL1 1828   9.672   9.500   7.656
  127POPC   GL2 1829   9.302   9.561   7.585
  127POPC   C1A 1830   9.650   9.460   7.209
  127POPC   D2A 1831   9.835   9.342   6.813
  127POPC   C3A 1832   9.854   9.589   6.459
  127POPC   C4A 1833   9.609   9.744   6.122
  127POPC   C1B 1834   9.157   9.311   7.243
  127POPC   C2B 1835   9.286   9.472   6.838
  127POPC   C3B 1836   9.367   9.410   6.423
  127POPC   C4B 1837   9.111   9.260   6.109
  128POPC   NC3 1838   4.665   1.288   7.943
  128POPC   PO4 1839   5.147   0.747   8.062
  128POPC   GL1 1840   5.184   0.863   7.628
  128POPC   GL2 1841   4.891   1.059   7.534
  128POPC   C1A 1842   5.296   0.920   7.187
  128POPC   D2A 1843   5.035   0.888   6.822
  128POPC   C3A 1844   5.124   0.857   6.356
  128POPC   C4A 1845   5.026   1.029   5.912
  128POPC   C1B 1846   5.138   1.406   7.293
  128POPC   C2B 1847   5.239   1.388   6.830
  128POPC   C3B 1848   4.871   1.280   6.545
  128POPC   C4B 1849   4.668   1.347   6.144
  129POPC   NC3 1850   8.842   9.879   8.075
  129POPC   PO4 1851   8.464  10.374   8.169
  129POPC   GL1 1852   8.779  10.311   7.796
  129POPC   GL2 1853   8.562  10.054   7.646
  129POPC   C1A 1854   9.023  10.076   7.420
  129POPC   D2A 1855   9.181   9.978   6.976
  129POPC   C3A 1856   9.025   9.823   6.563
  129POPC   C4A 1857   8.779  10.016   6.259
  129POPC   C1B 1858   8.581  10.079   7.191
  129POPC   C2B 1859   8.708  10.174   6.776
  129POPC   C3B 1860   8.621  10.455   6.439
  129POPC   C4B 1861   8.410  10.257   6.032
  130POPC   NC3 1862   3.375   3.391   8.051
  130POPC   PO4 1863   4.000   3.097   8.013
  130POPC   GL1 1864   3.780   3.312   7.681
  130POPC   GL2 1865   3.401   3.407   7.552
  130POPC   C1A 1866   3.765   3.186   7.270
  130POPC   D2A 1867   3.520   3.020   6.932
  130POPC   C3A 1868   3.473   3.328   6.614
  130POPC   C4A 1869   3.689   3.512   6.274
  130POPC   C1B 1870   3.353   3.489   7.103
  130POPC   C2B 1871   3.147   3.727   6.749
  130POPC   C3B 1872   3.232   3.851   6.328
  130POPC   C4B 1873   3.267   3.547   5.999
  131POPC   NC3 1874   5.195  10.112   8.031
  131POPC   PO4 1875   4.639   9.809   8.068
  131POPC   GL1 1876   4.772  10.144   7.707
  131POPC   GL2 1877   5.099  10.365   7.624
  131POPC   C1A 1878   4.919  10.063   7.238
  131POPC   D2A 1879   5.154   9.858   6.896
  131POPC   C3A 1880   5.067  10.031   6.492
  131POPC   C4A 1881   4.624  10.096   6.341
  131POPC   C1B 1882   5.269  10.420   7.218
  131POPC   C2B 1883   5.003  10.452   6.851
  131POPC   C3B 1884   4.740   0.066   6.492
  131POPC   C4B 1885   4.980  10.383   6.124
  132POPC   NC3 1886   6.436   7.666   8.048
  132POPC   PO4 1887   6.781   8.119   8.292
  132POPC   GL1 1888   6.629   8.077   7.777
  132POPC   GL2 1889   6.649   7.748   7.615
  132POPC   C1A 1890   6.689   8.033   7.226
  132POPC   D2A 1891   6.771   7.715   6.874
  132POPC   C3A 1892   6.730   7.980   6.541
  132POPC   C4A 1893   6.523   8.035   6.153
  132POPC   C1B 1894   6.257   7.811   7.388
  132POPC   C2B 1895   6.273   7.863   6.945
  132POPC   C3B 1896   6.315   7.693   6.529
  132POPC   C4B 1897   6.055   7.869   6.235
  133POPC   NC3 1898   5.439   1.043   8.266
  133POPC   PO4 1899   5.903   1.447   8.054
  133POPC   GL1 1900   5.833   1.420   7.646
  133POPC   GL2 1901   5.583   1.178   7.681
  133POPC   C1A 1902   5.665   1.482   7.241
  133POPC   D2A 1903   5.884   1.603   6.929
  133POPC   C3A 1904   5.703   1.541   6.578
  133POPC   C4A 1905   5.876   1.376   6.214
  133POPC   C1B 1906   5.795   0.997   7.310
  133POPC   C2B 1907   5.706   1.108   6.894
  133POPC   C3B 1908   5.602   1.037   6.472
  133POPC   C4B 1909   5.316   1.304   6.297
  134POPC   NC3 1910   4.715   7.706   7.931
  134POPC   PO4 1911   5.347   7.898   7.955
  134POPC   GL1 1912   5.183   8.019   7.604
  134POPC   GL2 1913   4.830   8.114   7.621
  134POPC   C1A 1914   5.201   7.753   7.246
  134POPC   D2A 1915   4.965   7.608   6.913
  134POPC   C3A 1916   5.158   7.635   6.521
  134POPC   C4A 1917   5.235   7.672   6.089
  134POPC   C1B 1918   4.793   8.065   7.178
  134POPC   C2B 1919   4.632   7.968   6.784
  134POPC   C3B 1920   4.779   7.935   6.393
  134POPC   C4B 1921   4.650   7.984   6.010
  135POPC   NC3 1922   1.053   8.244   8.082
  135POPC   PO4 1923   0.413   7.924   7.986
  135POPC   GL1 1924   0.753   8.030   7.668
  135POPC   GL2 1925   1.119   8.061   7.630
  135POPC   C1A 1926   0.751   7.989   7.252
  135POPC   D2A 1927   0.955   8.193   6.924
  135POPC   C3A 1928   0.814   8.106   6.478
  135POPC   C4A 1929   0.881   8.170   6.048
  135POPC   C1B 1930   1.248   7.854   7.280
  135POPC   C2B 1931   1.340   7.554   6.961
  135POPC   C3B 1932   1.192   7.821   6.667
  135POPC   C4B 1933   1.256   7.887   6.234
  136POPC   NC3 1934   8.660   6.496   8.180
  136POPC   PO4 1935   8.124   6.058   8.190
  136POPC   GL1 1936   8.494   6.115   7.844
  136POPC   GL2 1937   8.469   6.420   7.659
  136POPC   C1A 1938   8.594   6.067   7.358
  136POPC   D2A 1939   8.458   5.951   6.955
  136POPC   C3A 1940   8.413   6.166   6.577
  136POPC   C4A 1941   8.245   6.156   6.178
  136POPC   C1B 1942   8.654   6.608   7.221
  136POPC   C2B 1943   8.469   6.681   6.821
  136POPC   C3B 1944   8.689   6.567   6.456
  136POPC   C4B 1945   8.746   6.249   6.153
  137POPC   NC3 1946   5.639   7.563   8.009
  137POPC   PO4 1947   6.133   8.010   8.027
  137POPC   GL1 1948   5.823   7.939   7.659
  137POPC   GL2 1949   5.666   8.224   7.468
  137POPC   C1A 1950   5.742   7.788   7.207
  137POPC   D2A 1951   5.870   7.558   6.802
  137POPC   C3A 1952   5.651   7.579   6.397
  137POPC   C4A 1953   5.666   7.445   5.945
  137POPC   C1B 1954   5.297   8.247   7.172
  137POPC   C2B 1955   5.140   8.102   6.782
  137POPC   C3B 1956   5.294   8.109   6.357
  137POPC   C4B 1957   5.621   7.981   6.037
  138POPC   NC3 1958   8.387   5.638   8.072
  138POPC   PO4 1959   9.048   5.858   8.120
  138POPC   GL1 1960   8.892   5.773   7.685
  138POPC   GL2 1961   8.599   5.622   7.618
  138POPC   C1A 1962   8.915   5.691   7.219
  138POPC   D2A 1963   9.110   5.848   6.856
  138POPC   C3A 1964   8.841   5.887   6.506
  138POPC   C4A 1965   8.983   5.795   6.097
  138POPC   C1B 1966   8.446   5.502   7.229
  138POPC   C2B 1967   8.648   5.516   6.797
  138POPC   C3B 1968   8.694   5.393   6.383
  138POPC   C4B 1969   8.510   5.689   6.156
  139POPC   NC3 1970   3.865   8.020   7.864
  139POPC   PO4 1971   4.513   8.141   8.019
  139POPC   GL1 1972   4.318   7.909   7.627
  139POPC   GL2 1973   3.977   7.699   7.503
  139POPC   C1A 1974   4.330   7.820   7.178
  139POPC   D2A 1975   4.030   7.656   6.869
  139POPC   C3A 1976   4.256   7.744   6.492
  139POPC   C4A 1977   4.329   7.591   6.091
  139POPC   C1B 1978   3.824   8.004   7.186
  139POPC   C2B 1979   3.665   7.994   6.750
  139POPC   C3B 1980   3.841   8.122   6.375
  139POPC   C4B 1981   3.856   7.750   6.197
  140POPC   NC3 1982   3.288   7.942   8.297
  140POPC   PO4 1983   3.539   8.325   7.884
  140POPC   GL1 1984   3.417   8.138   7.541
  140POPC   GL2 1985   3.384   7.847   7.723
  140POPC   C1A 1986   3.328   8.136   7.108
  140POPC   D2A 1987   3.058   8.281   6.830
  140POPC   C3A 1988   3.075   8.048   6.492
  140POPC   C4A 1989   3.356   8.073   6.164
  140POPC   C1B 1990   3.464   7.690   7.293
  140POPC   C2B 1991   3.431   7.556   6.860
  140POPC   C3B 1992   3.420   7.643   6.412
  140POPC   C4B 1993   3.451   7.599   5.926
  141POPC   NC3 1994   3.488   9.649   8.056
  141POPC   PO4 1995   3.060   9.068   7.997
  141POPC   GL1 1996   3.250   9.349   7.724
  141POPC   GL2 1997   3.508   9.149   7.678
  141POPC   C1A 1998   3.171   9.542   7.314
  141POPC   D2A 1999   3.107   9.319   6.935
  141POPC   C3A 2000   3.244   9.297   6.521
  141POPC   C4A 2001   3.302   9.607   6.222
  141POPC   C1B 2002   3.424   9.102   7.275
  141POPC   C2B 2003   3.608   9.144   6.892
  141POPC   C3B 2004   3.641   8.968   6.515
  141POPC   C4B 2005   3.588   9.185   6.145
  142POPC   NC3 2006   3.489   6.181   8.018
  142POPC   PO4 2007   3.581   6.809   8.050
  142POPC   GL1 2008   3.229   6.675   7.726
  142POPC   GL2 2009   3.297   6.354   7.551
  142POPC   C1A 2010   3.278   6.755   7.237
  142POPC   D2A 2011   3.199   6.752   6.783
  142POPC   C3A 2012   3.475   6.687   6.405
  142POPC   C4A 2013   3.409   6.458   6.002
  142POPC   C1B 2014   3.572   6.351   7.145
  142POPC   C2B 2015   3.687   6.308   6.683
  142POPC   C3B 2016   3.844   6.333   6.239
  142POPC   C4B 2017   3.663   5.998   5.940
  143POPC   NC3 2018   1.920   2.574   8.154
  143POPC   PO4 2019   1.667   3.203   7.933
  143POPC   GL1 2020   1.794   2.813   7.726
  143POPC   GL2 2021   2.142   2.677   7.682
  143POPC   C1A 2022   1.740   2.643   7.335
  143POPC   D2A 2023   1.522   2.672   6.923
  143POPC   C3A 2024   1.748   2.780   6.538
  143POPC   C4A 2025   1.639   2.615   6.149
  143POPC   C1B 2026   2.243   2.536   7.255
  143POPC   C2B 2027   2.308   2.582   6.794
  143POPC   C3B 2028   2.304   2.665   6.357
  143POPC   C4B 2029   2.109   2.992   6.121
  144POPC   NC3 2030   2.462   3.036   8.254
  144POPC   PO4 2031   2.381   3.688   8.308
  144POPC   GL1 2032   2.524   3.533   7.866
  144POPC   GL2 2033   2.870   3.350   7.793
  144POPC   C1A 2034   2.431   3.582   7.420
  144POPC   D2A 2035   2.425   3.353   7.022
  144POPC   C3A 2036   2.563   3.569   6.654
  144POPC   C4A 2037   2.494   3.778   6.266
  144POPC   C1B 2038   2.906   3.425   7.320
  144POPC   C2B 2039   2.948   3.279   6.876
  144POPC   C3B 2040   2.981   3.377   6.399
  144POPC   C4B 2041   2.899   3.191   5.940
  145POPC   NC3 2042   0.850   2.644   8.160
  145POPC   PO4 2043   0.164   2.475   8.138
  145POPC   GL1 2044   0.380   2.816   7.848
  145POPC   GL2 2045   0.501   2.511   7.745
  145POPC   C1A 2046   0.473   3.111   7.447
  145POPC   D2A 2047   0.676   3.016   7.032
  145POPC   C3A 2048   0.549   3.066   6.598
  145POPC   C4A 2049   0.344   2.987   6.183
  145POPC   C1B 2050   0.546   2.617   7.312
  145POPC   C2B 2051   0.650   2.525   6.879
  145POPC   C3B 2052   0.481   2.569   6.473
  145POPC   C4B 2053   0.629   2.393   6.116
  146POPC   NC3 2054   7.986   8.670   8.179
  146POPC   PO4 2055   8.545   8.742   7.923
  146POPC   GL1 2056   8.259   8.499   7.736
  146POPC   GL2 2057   7.917   8.651   7.694
  146POPC   C1A 2058   8.141   8.384   7.334
  146POPC   D2A 2059   8.081   8.623   6.962
  146POPC   C3A 2060   8.147   8.524   6.546
  146POPC   C4A 2061   8.179   8.799   6.188
  146POPC   C1B 2062   8.089   8.929   7.380
  146POPC   C2B 2063   7.873   9.082   6.997
  146POPC   C3B 2064   7.796   8.913   6.560
  146POPC   C4B 2065   7.726   8.602   6.200
  147POPC   NC3 2066   1.250   9.777   8.313
  147POPC   PO4 2067   0.894   9.357   8.083
  147POPC   GL1 2068   1.260   9.513   7.836
  147POPC   GL2 2069   1.207   9.244   7.677
  147POPC   C1A 2070   1.475   9.524   7.374
  147POPC   D2A 2071   1.282   9.265   7.027
  147POPC   C3A 2072   1.402   9.347   6.575
  147POPC   C4A 2073   1.415   9.116   6.191
  147POPC   C1B 2074   0.987   9.562   7.368
  147POPC   C2B 2075   0.834   9.603   6.957
  147POPC   C3B 2076   0.851   9.438   6.537
  147POPC   C4B 2077   0.845   9.426   6.108
  148POPC   NC3 2078   9.620   4.360   8.017
  148POPC   PO4 2079   9.518   4.965   8.246
  148POPC   GL1 2080   9.480   4.788   7.793
  148POPC   GL2 2081   9.222   4.583   7.719
  148POPC   C1A 2082   9.752   4.722   7.398
  148POPC   D2A 2083   9.648   4.626   6.973
  148POPC   C3A 2084   9.719   4.938   6.652
  148POPC   C4A 2085   9.789   4.883   6.234
  148POPC   C1B 2086   9.247   4.813   7.329
  148POPC   C2B 2087   9.152   4.812   6.897
  148POPC   C3B 2088   9.240   4.984   6.503
  148POPC   C4B 2089   9.295   4.788   6.122
  149POPC   NC3 2090   0.876   1.359   7.830
  149POPC   PO4 2091   1.502   1.397   8.007
  149POPC   GL1 2092   1.272   1.108   7.609
  149POPC   GL2 2093   0.870   0.979   7.509
  149POPC   C1A 2094   1.241   0.893   7.194
  149POPC   D2A 2095   1.059   1.007   6.776
  149POPC   C3A 2096   1.376   0.960   6.423
  149POPC   C4A 2097   1.460   1.281   6.092
  149POPC   C1B 2098   0.800   1.320   7.185
  149POPC   C2B 2099   0.676   1.501   6.793
  149POPC   C3B 2100   0.899   1.415   6.442
  149POPC   C4B 2101   0.894   1.023   6.269
  150POPC   NC3 2102   7.868   7.095   8.299
  150POPC   PO4 2103   8.220   7.530   7.957
  150POPC   GL1 2104   7.971   7.409   7.603
  150POPC   GL2 2105   7.779   7.152   7.764
  150POPC   C1A 2106   7.934   7.400   7.152
  150POPC   D2A 2107   8.024   7.624   6.810
  150POPC   C3A 2108   8.020   7.511   6.384
  150POPC   C4A 2109   7.817   7.680   6.036
  150POPC   C1B 2110   7.818   6.942   7.359
  150POPC   C2B 2111   7.960   6.862   6.931
  150POPC   C3B 2112   8.013   7.023   6.531
  150POPC   C4B 2113   7.728   6.933   6.214
  151POPC   NC3 2114   5.838   9.911   8.109
  151POPC   PO4 2115   5.466  10.494   8.002
  151POPC   GL1 2116   5.637  10.338   7.620
  151POPC   GL2 2117   5.703   9.983   7.638
  151POPC   C1A 2118   5.770  10.459   7.200
  151POPC   D2A 2119   5.516   0.143   6.841
  151POPC   C3A 2120   5.422   0.055   6.417
  151POPC   C4A 2121   5.806   0.055   6.176
  151POPC   C1B 2122   5.481   9.958   7.284
  151POPC   C2B 2123   5.599  10.112   6.873
  151POPC   C3B 2124   5.625  10.106   6.450
  151POPC   C4B 2125   5.511   9.807   6.176
  152POPC   NC3 2126   6.277   2.543   8.075
  152POPC   PO4 2127   6.900   2.426   8.225
  152POPC   GL1 2128   6.743   2.579   7.782
  152POPC   GL2 2129   6.373   2.582   7.592
  152POPC   C1A 2130   6.772   2.536   7.322
  152POPC   D2A 2131   6.430   2.614   7.010
  152POPC   C3A 2132   6.619   2.673   6.624
  152POPC   C4A 2133   6.813   2.451   6.282
  152POPC   C1B 2134   6.076   2.809   7.328
  152POPC   C2B 2135   6.004   2.901   6.862
  152POPC   C3B 2136   6.169   2.793   6.445
  152POPC   C4B 2137   6.307   2.357   6.331
  153POPC   NC3 2138  10.178   5.924   8.053
  153POPC   PO4 2139   0.069   6.496   8.206
  153POPC   GL1 2140  10.297   6.397   7.803
  153POPC   GL2 2141   9.924   6.286   7.765
  153POPC   C1A 2142  10.277   6.209   7.371
  153POPC   D2A 2143   0.050   6.189   7.007
  153POPC   C3A 2144  10.363   6.209   6.616
  153POPC   C4A 2145  10.463   6.380   6.221
  153POPC   C1B 2146   9.847   6.487   7.333
  153POPC   C2B 2147  10.106   6.537   6.947
  153POPC   C3B 2148  10.107   6.652   6.501
  153POPC   C4B 2149   9.990   6.621   6.030
  154POPC   NC3 2150   8.213   4.978   8.001
  154POPC   PO4 2151   7.766   4.459   8.022
  154POPC   GL1 2152   7.828   4.657   7.631
  154POPC   GL2 2153   8.158   4.661   7.598
  154POPC   C1A 2154   7.842   4.653   7.168
  154POPC   D2A 2155   7.861   4.843   6.759
  154POPC   C3A 2156   7.520   4.873   6.482
  154POPC   C4A 2157   7.470   5.051   6.069
  154POPC   C1B 2158   8.143   5.053   7.315
  154POPC   C2B 2159   8.183   5.236   6.893
  154POPC   C3B 2160   8.284   5.106   6.526
  154POPC   C4B 2161   8.009   4.922   6.277
  155POPC   NC3 2162   6.387   8.372   8.207
  155POPC   PO4 2163   6.843   8.855   8.032
  155POPC   GL1 2164   6.618   8.901   7.642
  155POPC   GL2 2165   6.518   8.573   7.705
  155POPC   C1A 2166   6.558   8.828   7.172
  155POPC   D2A 2167   6.345   8.937   6.767
  155POPC   C3A 2168   6.483   8.878   6.318
  155POPC   C4A 2169   6.418   8.945   5.844
  155POPC   C1B 2170   6.299   8.338   7.394
  155POPC   C2B 2171   6.192   8.439   6.952
  155POPC   C3B 2172   6.391   8.412   6.538
  155POPC   C4B 2173   6.787   8.457   6.310
  156POPC   NC3 2174   9.362   0.860   8.383
  156POPC   PO4 2175   9.090   1.406   8.174
  156POPC   GL1 2176   9.249   1.229   7.762
  156POPC   GL2 2177   9.588   1.075   7.735
  156POPC   C1A 2178   9.243   0.975   7.370
  156POPC   D2A 2179   9.156   0.869   6.951
  156POPC   C3A 2180   9.063   1.278   6.706
  156POPC   C4A 2181   8.994   1.325   6.258
  156POPC   C1B 2182   9.721   1.150   7.272
  156POPC   C2B 2183   9.536   1.205   6.849
  156POPC   C3B 2184   9.484   1.166   6.383
  156POPC   C4B 2185   9.689   1.056   5.981
  157POPC   NC3 2186   1.712   4.385   8.121
  157POPC   PO4 2187   2.154   4.021   7.893
  157POPC   GL1 2188   1.805   4.097   7.676
  157POPC   GL2 2189   1.795   4.467   7.637
  157POPC   C1A 2190   1.807   3.903   7.287
  157POPC   D2A 2191   2.127   3.784   6.984
  157POPC   C3A 2192   1.969   3.859   6.588
  157POPC   C4A 2193   2.012   3.920   6.185
  157POPC   C1B 2194   2.013   4.379   7.257
  157POPC   C2B 2195   1.836   4.250   6.878
  157POPC   C3B 2196   1.877   4.365   6.441
  157POPC   C4B 2197   1.978   4.374   5.963
  158POPC   NC3 2198   3.971   1.770   7.965
  158POPC   PO4 2199   4.550   1.662   7.702
  158POPC   GL1 2200   4.411   2.027   7.491
  158POPC   GL2 2201   4.050   2.042   7.541
  158POPC   C1A 2202   4.265   2.035   7.065
  158POPC   D2A 2203   4.166   2.315   6.757
  158POPC   C3A 2204   4.379   2.257   6.414
  158POPC   C4A 2205   4.552   1.853   6.304
  158POPC   C1B 2206   3.964   1.661   7.294
  158POPC   C2B 2207   4.081   1.372   6.960
  158POPC   C3B 2208   4.219   1.594   6.604
  158POPC   C4B 2209   4.004   1.899   6.375
  159POPC   NC3 2210   2.961   2.480   8.057
  159POPC   PO4 2211   2.381   2.523   8.100
  159POPC   GL1 2212   2.619   2.827   7.828
  159POPC   GL2 2213   2.862   2.697   7.618
  159POPC   C1A 2214   2.588   3.078   7.474
  159POPC   D2A 2215   2.571   2.880   7.096
  159POPC   C3A 2216   2.657   2.930   6.667
  159POPC   C4A 2217   2.551   3.137   6.318
  159POPC   C1B 2218   2.756   2.448   7.320
  159POPC   C2B 2219   2.758   2.329   6.920
  159POPC   C3B 2220   2.942   2.465   6.569
  159POPC   C4B 2221   2.822   2.717   6.230
  160POPC   NC3 2222   7.506   3.474   7.983
  160POPC   PO4 2223   6.941   3.395   8.340
  160POPC   GL1 2224   6.991   3.252   7.781
  160POPC   GL2 2225   7.294   3.358   7.561
  160POPC   C1A 2226   6.911   3.490   7.269
  160POPC   D2A 2227   7.031   3.612   6.786
  160POPC   C3A 2228   6.711   3.650   6.408
  160POPC   C4A 2229   6.854   3.732   5.962
  160POPC   C1B 2230   7.149   3.044   7.330
  160POPC   C2B 2231   7.072   3.098   6.926
  160POPC   C3B 2232   7.280   3.177   6.569
  160POPC   C4B 2233   7.130   3.431   6.269
  161POPC   NC3 2234   6.689   3.585   8.018
  161POPC   PO4 2235   6.509   2.947   8.076
  161POPC   GL1 2236   6.537   3.056   7.646
  161POPC   GL2 2237   6.490   3.394   7.563
  161POPC   C1A 2238   6.647   3.032   7.209
  161POPC   D2A 2239   6.618   3.322   6.848
  161POPC   C3A 2240   6.497   3.184   6.424
  161POPC   C4A 2241   6.444   3.404   6.035
  161POPC   C1B 2242   6.210   3.284   7.176
  161POPC   C2B 2243   6.129   3.388   6.717
  161POPC   C3B 2244   6.034   3.583   6.315
  161POPC   C4B 2245   5.870   3.997   6.107
  162POPC   NC3 2246   3.572   2.097   8.278
  162POPC   PO4 2247   2.903   1.998   8.128
  162POPC   GL1 2248   3.178   1.837   7.767
  162POPC   GL2 2249   3.530   1.976   7.710
  162POPC   C1A 2250   3.132   1.972   7.319
  162POPC   D2A 2251   3.197   2.067   6.851
  162POPC   C3A 2252   3.151   1.683   6.611
  162POPC   C4A 2253   3.018   1.594   6.196
  162POPC   C1B 2254   3.641   2.119   7.261
  162POPC   C2B 2255   3.718   2.055   6.805
  162POPC   C3B 2256   3.504   1.990   6.405
  162POPC   C4B 2257   3.687   2.251   6.103
  163POPC   NC3 2258   3.974   7.059   8.108
  163POPC   PO4 2259   3.494   7.549   8.132
  163POPC   GL1 2260   3.604   7.388   7.685
  163POPC   GL2 2261   3.543   7.048   7.587
  163POPC   C1A 2262   3.756   7.311   7.225
  163POPC   D2A 2263   3.595   7.071   6.904
  163POPC   C3A 2264   3.790   7.299   6.570
  163POPC   C4A 2265   3.731   7.262   6.166
  163POPC   C1B 2266   3.212   7.252   7.316
  163POPC   C2B 2267   3.041   7.217   6.894
  163POPC   C3B 2268   3.281   7.165   6.473
  163POPC   C4B 2269   3.324   7.015   6.022
  164POPC   NC3 2270   1.897   5.088   8.157
  164POPC   PO4 2271   1.368   4.653   7.966
  164POPC   GL1 2272   1.612   4.959   7.715
  164POPC   GL2 2273   1.990   4.950   7.685
  164POPC   C1A 2274   1.732   4.819   7.272
  164POPC   D2A 2275   1.982   4.765   6.878
  164POPC   C3A 2276   1.771   4.941   6.531
  164POPC   C4A 2277   1.632   4.733   6.166
  164POPC   C1B 2278   2.215   4.972   7.290
  164POPC   C2B 2279   2.375   5.127   6.889
  164POPC   C3B 2280   2.255   5.127   6.467
  164POPC   C4B 2281   2.151   4.748   6.251
  165POPC   NC3 2282   7.048   8.389   7.976
  165POPC   PO4 2283   7.562   8.870   8.054
  165POPC   GL1 2284   7.274   8.843   7.735
  165POPC   GL2 2285   7.408   8.541   7.631
  165POPC   C1A 2286   7.045   8.827   7.355
  165POPC   D2A 2287   6.979   8.573   6.985
  165POPC   C3A 2288   6.850   8.811   6.669
  165POPC   C4A 2289   6.981   8.950   6.285
  165POPC   C1B 2290   7.657   8.630   7.259
  165POPC   C2B 2291   7.594   8.505   6.825
  165POPC   C3B 2292   7.329   8.661   6.522
  165POPC   C4B 2293   7.238   8.534   6.094
  166POPC   NC3 2294   3.108   0.506   8.248
  166POPC   PO4 2295   3.706   0.744   8.402
  166POPC   GL1 2296   3.500   0.597   7.930
  166POPC   GL2 2297   3.370   0.277   7.842
  166POPC   C1A 2298   3.540   0.521   7.431
  166POPC   D2A 2299   3.375   0.713   7.022
  166POPC   C3A 2300   3.409   0.557   6.606
  166POPC   C4A 2301   3.248   0.646   6.222
  166POPC   C1B 2302   3.108   0.248   7.451
  166POPC   C2B 2303   3.156   0.253   6.979
  166POPC   C3B 2304   3.252   0.059   6.546
  166POPC   C4B 2305   3.451   0.151   6.138
  167POPC   NC3 2306   4.057   8.829   8.115
  167POPC   PO4 2307   4.020   9.168   7.649
  167POPC   GL1 2308   4.319   8.828   7.619
  167POPC   GL2 2309   4.267   8.458   7.704
  167POPC   C1A 2310   4.298   8.790   7.186
  167POPC   D2A 2311   4.080   8.916   6.823
  167POPC   C3A 2312   4.012   8.617   6.497
  167POPC   C4A 2313   3.993   8.872   6.126
  167POPC   C1B 2314   4.212   8.308   7.277
  167POPC   C2B 2315   4.156   8.168   6.821
  167POPC   C3B 2316   4.358   8.235   6.434
  167POPC   C4B 2317   4.393   8.485   6.114
  168POPC   NC3 2318   9.957   2.321   8.194
  168POPC   PO4 2319  10.038   1.695   8.162
  168POPC   GL1 2320  10.348   1.761   7.827
  168POPC   GL2 2321  10.221   2.089   7.712
  168POPC   C1A 2322   0.003   1.777   7.395
  168POPC   D2A 2323  10.398   2.006   7.026
  168POPC   C3A 2324  10.443   1.847   6.654
  168POPC   C4A 2325  10.333   1.706   6.278
  168POPC   C1B 2326   9.999   1.935   7.338
  168POPC   C2B 2327   9.881   2.071   6.898
  168POPC   C3B 2328  10.025   2.093   6.480
  168POPC   C4B 2329  10.196   2.348   6.145
  169POPC   NC3 2330   1.378   7.305   8.157
  169POPC   PO4 2331   0.925   7.783   8.058
  169POPC   GL1 2332   1.000   7.557   7.628
  169POPC   GL2 2333   1.333   7.404   7.648
  169POPC   C1A 2334   0.880   7.497   7.155
  169POPC   D2A 2335   0.860   7.384   6.711
  169POPC   C3A 2336   1.209   7.375   6.457
  169POPC   C4A 2337   1.134   7.416   6.035
  169POPC   C1B 2338   1.187   7.152   7.352
  169POPC   C2B 2339   1.192   7.069   6.934
  169POPC   C3B 2340   1.015   6.891   6.584
  169POPC   C4B 2341   1.184   6.950   6.190
  170POPC   NC3 2342  10.375   2.893   8.000
  170POPC   PO4 2343   9.839   2.571   7.829
  170POPC   GL1 2344  10.178   2.604   7.610
  170POPC   GL2 2345  10.499   2.516   7.657
  170POPC   C1A 2346  10.195   2.436   7.225
  170POPC   D2A 2347   9.896   2.572   6.959
  170POPC   C3A 2348  10.046   2.619   6.559
  170POPC   C4A 2349   9.843   2.735   6.188
  170POPC   C1B 2350   0.049   2.823   7.326
  170POPC   C2B 2351  10.353   2.852   6.924
  170POPC   C3B 2352   0.035   2.830   6.559
  170POPC   C4B 2353  10.344   2.869   6.182
  171POPC   NC3 2354  10.103   9.334   8.005
  171POPC   PO4 2355   0.066   8.824   7.907
  171POPC   GL1 2356  10.336   9.130   7.612
  171POPC   GL2 2357  10.381   9.538   7.648
  171POPC   C1A 2358  10.106   9.248   7.252
  171POPC   D2A 2359  10.334   9.245   6.865
  171POPC   C3A 2360  10.174   9.195   6.442
  171POPC   C4A 2361   0.047   9.044   6.230
  171POPC   C1B 2362  10.431   9.632   7.241
  171POPC   C2B 2363  10.182   9.730   6.917
  171POPC   C3B 2364  10.370   9.656   6.540
  171POPC   C4B 2365  10.350   9.540   6.123
  172POPC   NC3 2366  10.416   6.894   7.996
  172POPC   PO4 2367   9.798   7.334   8.130
  172POPC   GL1 2368  10.019   7.174   7.751
  172POPC   GL2 2369  10.255   7.390   7.615
  172POPC   C1A 2370  10.151   6.964   7.327
  172POPC   D2A 2371   9.998   7.062   6.896
  172POPC   C3A 2372  10.311   7.128   6.575
  172POPC   C4A 2373  10.342   6.982   6.195
  172POPC   C1B 2374   9.982   7.461   7.306
  172POPC   C2B 2375   9.865   7.579   6.918
  172POPC   C3B 2376   9.934   7.461   6.519
  172POPC   C4B 2377  10.080   7.414   6.127
  173POPC   NC3 2378   8.749   2.579   8.093
  173POPC   PO4 2379   8.223   2.975   7.970
  173POPC   GL1 2380   8.577   2.866   7.675
  173POPC   GL2 2381   8.449   2.619   7.439
  173POPC   C1A 2382   8.764   2.957   7.247
  173POPC   D2A 2383   8.492   2.755   6.928
  173POPC   C3A 2384   8.430   2.920   6.507
  173POPC   C4A 2385   8.786   2.912   6.191
  173POPC   C1B 2386   8.789   2.403   7.261
  173POPC   C2B 2387   8.957   2.522   6.863
  173POPC   C3B 2388   8.727   2.494   6.489
  173POPC   C4B 2389   8.340   2.448   6.261
  174POPC   NC3 2390   6.401   0.680   4.065
  174POPC   PO4 2391   6.818   0.180   3.978
  174POPC   GL1 2392   6.586   0.306   4.337
  174POPC   GL2 2393   6.251   0.202   4.272
  174POPC   C1A 2394   6.694   0.575   4.694
  174POPC   D2A 2395   6.640   0.327   5.045
  174POPC   C3A 2396   6.572   0.485   5.414
  174POPC   C4A 2397   6.610   0.212   5.762
  174POPC   C1B 2398   6.213   0.425   4.678
  174POPC   C2B 2399   6.094   0.310   5.100
  174POPC   C3B 2400   6.125   0.312   5.529
  174POPC   C4B 2401   6.326   0.651   5.848
  175POPC   NC3 2402   5.626   2.163   3.932
  175POPC   PO4 2403   6.095   1.560   3.906
  175POPC   GL1 2404   6.084   1.710   4.333
  175POPC   GL2 2405   5.734   1.828   4.322
  175POPC   C1A 2406   5.937   1.726   4.786
  175POPC   D2A 2407   5.635   1.829   5.108
  175POPC   C3A 2408   5.824   1.972   5.482
  175POPC   C4A 2409   5.875   1.696   5.808
  175POPC   C1B 2410   5.613   2.109   4.667
  175POPC   C2B 2411   5.281   2.171   4.980
  175POPC   C3B 2412   5.340   2.258   5.387
  175POPC   C4B 2413   5.297   2.343   5.801
  176POPC   NC3 2414   0.004   9.519   3.996
  176POPC   PO4 2415   0.566   9.855   3.753
  176POPC   GL1 2416   0.597   9.599   4.134
  176POPC   GL2 2417   0.432   9.266   4.119
  176POPC   C1A 2418   0.776   9.612   4.550
  176POPC   D2A 2419   0.905   9.615   4.978
  176POPC   C3A 2420   0.651   9.384   5.221
  176POPC   C4A 2421   0.637   9.384   5.644
  176POPC   C1B 2422   0.238   9.228   4.550
  176POPC   C2B 2423   0.170   9.356   4.973
  176POPC   C3B 2424   0.200   9.217   5.381
  176POPC   C4B 2425   0.147   9.345   5.785
  177POPC   NC3 2426   3.529   0.992   3.748
  177POPC   PO4 2427   3.405   0.349   3.972
  177POPC   GL1 2428   3.455   0.419   4.358
  177POPC   GL2 2429   3.642   0.145   4.392
  177POPC   C1A 2430   3.468   0.510   4.780
  177POPC   D2A 2431   3.699   0.582   5.120
  177POPC   C3A 2432   3.613   0.812   5.465
  177POPC   C4A 2433   3.567   0.575   5.842
  177POPC   C1B 2434   3.291   0.040   4.662
  177POPC   C2B 2435   3.153   0.207   5.049
  177POPC   C3B 2436   3.264   0.435   5.395
  177POPC   C4B 2437   3.113   0.371   5.792
  178POPC   NC3 2438   2.957   4.356   3.993
  178POPC   PO4 2439   2.364   4.488   3.739
  178POPC   GL1 2440   2.443   4.379   4.177
  178POPC   GL2 2441   2.576   4.057   4.196
  178POPC   C1A 2442   2.585   4.352   4.615
  178POPC   D2A 2443   2.481   4.194   5.032
  178POPC   C3A 2444   2.611   4.401   5.434
  178POPC   C4A 2445   2.971   4.495   5.714
  178POPC   C1B 2446   2.941   4.001   4.553
  178POPC   C2B 2447   2.948   3.955   5.001
  178POPC   C3B 2448   3.176   4.061   5.387
  178POPC   C4B 2449   3.221   4.026   5.828
  179POPC   NC3 2450   9.508   8.025   3.582
  179POPC   PO4 2451   8.910   7.994   3.835
  179POPC   GL1 2452   9.104   8.073   4.269
  179POPC   GL2 2453   9.430   7.987   4.365
  179POPC   C1A 2454   9.127   7.937   4.731
  179POPC   D2A 2455   9.457   7.956   5.051
  179POPC   C3A 2456   9.235   7.865   5.403
  179POPC   C4A 2457   9.479   7.923   5.725
  179POPC   C1B 2458   9.610   7.661   4.636
  179POPC   C2B 2459   9.879   7.605   4.982
  179POPC   C3B 2460   9.829   7.714   5.387
  179POPC   C4B 2461   9.804   7.504   5.722
  180POPC   NC3 2462   9.413   6.485   3.870
  180POPC   PO4 2463   9.921   6.930   3.976
  180POPC   GL1 2464   9.764   6.663   4.320
  180POPC   GL2 2465   9.400   6.578   4.373
  180POPC   C1A 2466   9.700   6.616   4.763
  180POPC   D2A 2467   9.671   6.357   5.153
  180POPC   C3A 2468   9.685   6.589   5.573
  180POPC   C4A 2469   9.474   6.622   6.018
  180POPC   C1B 2470   9.328   6.279   4.772
  180POPC   C2B 2471   9.161   6.236   5.172
  180POPC   C3B 2472   9.205   6.397   5.552
  180POPC   C4B 2473   9.206   6.202   5.930
  181POPC   NC3 2474   3.216   7.243   4.055
  181POPC   PO4 2475   3.834   7.413   3.967
  181POPC   GL1 2476   3.627   7.394   4.417
  181POPC   GL2 2477   3.240   7.446   4.517
  181POPC   C1A 2478   3.598   7.412   4.899
  181POPC   D2A 2479   3.414   7.277   5.309
  181POPC   C3A 2480   3.665   7.137   5.659
  181POPC   C4A 2481   3.770   6.786   5.940
  181POPC   C1B 2482   3.115   7.026   4.732
  181POPC   C2B 2483   3.141   6.833   5.162
  181POPC   C3B 2484   3.036   7.013   5.569
  181POPC   C4B 2485   3.055   7.447   5.671
  182POPC   NC3 2486   9.669   9.931   3.990
  182POPC   PO4 2487   9.115   9.848   4.261
  182POPC   GL1 2488   9.165  10.145   4.541
  182POPC   GL2 2489   9.410  10.262   4.277
  182POPC   C1A 2490   9.166   9.944   4.965
  182POPC   D2A 2491   9.469   9.883   5.277
  182POPC   C3A 2492   9.437   9.977   5.707
  182POPC   C4A 2493   9.265  10.114   6.128
  182POPC   C1B 2494   9.651  10.385   4.602
  182POPC   C2B 2495   9.518  10.349   4.999
  182POPC   C3B 2496   9.627  10.369   5.406
  182POPC   C4B 2497   9.421  10.464   5.798
  183POPC   NC3 2498   9.655   2.738   3.866
  183POPC   PO4 2499   9.725   2.290   4.315
  183POPC   GL1 2500   9.407   2.613   4.305
  183POPC   GL2 2501   9.223   2.900   4.121
  183POPC   C1A 2502   9.523   2.814   4.677
  183POPC   D2A 2503   9.557   2.550   5.021
  183POPC   C3A 2504   9.419   2.734   5.378
  183POPC   C4A 2505   9.579   2.594   5.768
  183POPC   C1B 2506   9.052   2.940   4.519
  183POPC   C2B 2507   9.105   2.968   4.951
  183POPC   C3B 2508   9.006   3.057   5.357
  183POPC   C4B 2509   9.116   2.866   5.768
  184POPC   NC3 2510   8.823   7.613   4.077
  184POPC   PO4 2511   8.347   8.098   4.185
  184POPC   GL1 2512   8.643   8.218   4.445
  184POPC   GL2 2513   8.685   7.851   4.491
  184POPC   C1A 2514   8.705   8.172   4.869
  184POPC   D2A 2515   8.528   7.945   5.204
  184POPC   C3A 2516   8.572   8.139   5.585
  184POPC   C4A 2517   8.976   8.139   5.763
  184POPC   C1B 2518   8.730   7.611   4.839
  184POPC   C2B 2519   8.506   7.424   5.141
  184POPC   C3B 2520   8.465   7.435   5.576
  184POPC   C4B 2521   8.785   7.683   5.728
  185POPC   NC3 2522   4.670   0.576   3.807
  185POPC   PO4 2523   5.305   0.186   3.913
  185POPC   GL1 2524   5.103   0.375   4.287
  185POPC   GL2 2525   4.765   0.388   4.259
  185POPC   C1A 2526   5.259   0.643   4.659
  185POPC   D2A 2527   5.139   0.808   5.047
  185POPC   C3A 2528   5.068   0.469   5.314
  185POPC   C4A 2529   5.001   0.507   5.739
  185POPC   C1B 2530   4.775   0.419   4.690
  185POPC   C2B 2531   4.612   0.329   5.078
  185POPC   C3B 2532   4.659   0.164   5.503
  185POPC   C4B 2533   4.636   0.188   5.955
  186POPC   NC3 2534   5.722  10.464   3.900
  186POPC   PO4 2535   5.380  10.062   3.584
  186POPC   GL1 2536   5.413  10.230   4.181
  186POPC   GL2 2537   5.756  10.198   4.348
  186POPC   C1A 2538   5.347  10.147   4.652
  186POPC   D2A 2539   5.388  10.125   5.121
  186POPC   C3A 2540   5.294  10.328   5.531
  186POPC   C4A 2541   5.427  10.249   5.977
  186POPC   C1B 2542   5.804  10.304   4.809
  186POPC   C2B 2543   5.834  10.393   5.248
  186POPC   C3B 2544   5.785  10.374   5.658
  186POPC   C4B 2545   5.905  10.101   6.017
  187POPC   NC3 2546  10.402   7.935   4.010
  187POPC   PO4 2547   9.900   8.233   3.758
  187POPC   GL1 2548   9.926   8.089   4.191
  187POPC   GL2 2549   9.987   7.735   4.280
  187POPC   C1A 2550   9.842   8.114   4.624
  187POPC   D2A 2551  10.045   8.088   4.975
  187POPC   C3A 2552   9.858   8.199   5.293
  187POPC   C4A 2553   9.879   8.225   5.720
  187POPC   C1B 2554  10.281   7.758   4.632
  187POPC   C2B 2555  10.488   7.826   5.022
  187POPC   C3B 2556  10.306   7.925   5.402
  187POPC   C4B 2557  10.211   7.807   5.806
  188POPC   NC3 2558   2.829   1.618   3.992
  188POPC   PO4 2559   2.742   0.940   3.858
  188POPC   GL1 2560   2.584   1.206   4.137
  188POPC   GL2 2561   2.952   1.200   4.277
  188POPC   C1A 2562   2.520   1.231   4.553
  188POPC   D2A 2563   2.716   0.995   4.876
  188POPC   C3A 2564   2.397   0.858   5.175
  188POPC   C4A 2565   2.371   0.975   5.603
  188POPC   C1B 2566   3.052   1.440   4.641
  188POPC   C2B 2567   2.916   1.455   5.056
  188POPC   C3B 2568   2.724   1.218   5.350
  188POPC   C4B 2569   2.796   1.254   5.792
  189POPC   NC3 2570   5.644   8.845   3.866
  189POPC   PO4 2571   6.150   8.323   3.863
  189POPC   GL1 2572   5.846   8.398   4.218
  189POPC   GL2 2573   5.783   8.731   4.329
  189POPC   C1A 2574   5.852   8.392   4.686
  189POPC   D2A 2575   6.047   8.511   5.076
  189POPC   C3A 2576   5.897   8.216   5.347
  189POPC   C4A 2577   5.585   8.269   5.632
  189POPC   C1B 2578   5.642   9.005   4.661
  189POPC   C2B 2579   5.777   8.998   5.070
  189POPC   C3B 2580   5.612   8.839   5.445
  189POPC   C4B 2581   5.608   8.978   5.863
  190POPC   NC3 2582   7.367   1.225   3.894
  190POPC   PO4 2583   6.795   0.846   3.905
  190POPC   GL1 2584   7.050   0.977   4.227
  190POPC   GL2 2585   7.074   1.294   4.293
  190POPC   C1A 2586   7.027   0.966   4.683
  190POPC   D2A 2587   7.024   1.129   5.104
  190POPC   C3A 2588   6.883   0.872   5.453
  190POPC   C4A 2589   7.102   0.840   5.893
  190POPC   C1B 2590   7.253   1.427   4.689
  190POPC   C2B 2591   7.062   1.635   4.977
  190POPC   C3B 2592   7.073   1.636   5.371
  190POPC   C4B 2593   7.115   1.277   5.613
  191POPC   NC3 2594   5.848   7.958   3.939
  191POPC   PO4 2595   5.217   8.083   3.944
  191POPC   GL1 2596   5.456   8.090   4.323
  191POPC   GL2 2597   5.785   7.911   4.431
  191POPC   C1A 2598   5.388   8.057   4.739
  191POPC   D2A 2599   5.143   8.242   5.021
  191POPC   C3A 2600   5.131   8.002   5.369
  191POPC   C4A 2601   5.405   7.746   5.612
  191POPC   C1B 2602   5.850   7.910   4.879
  191POPC   C2B 2603   5.766   7.690   5.246
  191POPC   C3B 2604   5.919   7.766   5.640
  191POPC   C4B 2605   6.128   8.117   5.791
  192POPC   NC3 2606   8.046   4.093   3.621
  192POPC   PO4 2607   7.895   4.747   4.025
  192POPC   GL1 2608   7.901   4.493   4.491
  192POPC   GL2 2609   8.066   4.078   4.502
  192POPC   C1A 2610   7.943   4.352   4.901
  192POPC   D2A 2611   8.179   4.029   5.045
  192POPC   C3A 2612   8.082   4.162   5.418
  192POPC   C4A 2613   7.900   4.307   5.826
  192POPC   C1B 2614   7.757   3.881   4.807
  192POPC   C2B 2615   7.691   3.902   5.235
  192POPC   C3B 2616   7.545   3.981   5.663
  192POPC   C4B 2617   7.671   3.886   6.103
  193POPC   NC3 2618   0.288   0.478   3.667
  193POPC   PO4 2619  10.075   0.410   3.829
  193POPC   GL1 2620   9.964   0.226   4.226
  193POPC   GL2 2621  10.128   0.492   4.358
  193POPC   C1A 2622  10.210  10.496   4.589
  193POPC   D2A 2623  10.288   0.019   5.004
  193POPC   C3A 2624  10.191   0.269   5.331
  193POPC   C4A 2625  10.191   0.221   5.745
  193POPC   C1B 2626   9.875   0.336   4.711
  193POPC   C2B 2627   9.725   0.300   5.121
  193POPC   C3B 2628   9.725   0.328   5.588
  193POPC   C4B 2629   9.867   0.595   5.906
  194POPC   NC3 2630   7.240   8.575   4.006
  194POPC   PO4 2631   6.840   8.980   3.680
  194POPC   GL1 2632   6.875   8.866   4.241
  194POPC   GL2 2633   7.150   8.669   4.472
  194POPC   C1A 2634   6.809   8.844   4.743
  194POPC   D2A 2635   7.165   8.754   5.045
  194POPC   C3A 2636   7.086   8.557   5.471
  194POPC   C4A 2637   6.841   8.692   5.835
  194POPC   C1B 2638   7.508   8.508   4.655
  194POPC   C2B 2639   7.758   8.513   5.031
  194POPC   C3B 2640   7.609   8.471   5.444
  194POPC   C4B 2641   7.475   8.795   5.727
  195POPC   NC3 2642   3.822   9.569   3.874
  195POPC   PO4 2643   4.480   9.718   3.853
  195POPC   GL1 2644   4.408   9.375   4.222
  195POPC   GL2 2645   4.167   9.119   4.221
  195POPC   C1A 2646   4.444   9.108   4.643
  195POPC   D2A 2647   4.213   9.187   5.053
  195POPC   C3A 2648   4.470   9.159   5.442
  195POPC   C4A 2649   4.400   9.258   5.904
  195POPC   C1B 2650   4.044   9.425   4.608
  195POPC   C2B 2651   4.056   9.667   5.057
  195POPC   C3B 2652   4.140   9.542   5.493
  195POPC   C4B 2653   3.954   9.162   5.643
  196POPC   NC3 2654   8.772   0.330   3.856
  196POPC   PO4 2655   9.210   0.897   3.955
  196POPC   GL1 2656   9.079   0.660   4.282
  196POPC   GL2 2657   8.942   0.341   4.324
  196POPC   C1A 2658   9.113   0.782   4.679
  196POPC   D2A 2659   8.899   0.905   5.036
  196POPC   C3A 2660   8.970   0.691   5.401
  196POPC   C4A 2661   8.611   0.600   5.612
  196POPC   C1B 2662   8.683   0.505   4.664
  196POPC   C2B 2663   8.663   0.384   5.092
  196POPC   C3B 2664   8.784   0.148   5.447
  196POPC   C4B 2665   8.615   0.167   5.864
  197POPC   NC3 2666  10.242   2.913   3.940
  197POPC   PO4 2667   9.852   2.352   3.721
  197POPC   GL1 2668  10.142   2.473   4.161
  197POPC   GL2 2669  10.417   2.668   4.339
  197POPC   C1A 2670  10.193   2.434   4.698
  197POPC   D2A 2671  10.022   2.754   4.984
  197POPC   C3A 2672   9.930   2.646   5.396
  197POPC   C4A 2673  10.068   2.828   5.755
  197POPC   C1B 2674  10.288   2.999   4.602
  197POPC   C2B 2675  10.442   3.063   5.003
  197POPC   C3B 2676  10.443   2.800   5.349
  197POPC   C4B 2677   0.074   2.922   5.733
  198POPC   NC3 2678   8.300   3.537   3.805
  198POPC   PO4 2679   8.935   3.275   3.821
  198POPC   GL1 2680   8.847   3.324   4.226
  198POPC   GL2 2681   8.658   3.630   4.210
  198POPC   C1A 2682   8.738   3.317   4.670
  198POPC   D2A 2683   8.498   3.184   5.044
  198POPC   C3A 2684   8.543   3.337   5.437
  198POPC   C4A 2685   8.818   3.273   5.779
  198POPC   C1B 2686   8.478   3.767   4.626
  198POPC   C2B 2687   8.588   3.708   5.037
  198POPC   C3B 2688   8.514   3.870   5.419
  198POPC   C4B 2689   8.524   3.689   5.814
  199POPC   NC3 2690   7.977   7.150   3.811
  199POPC   PO4 2691   8.625   7.208   3.952
  199POPC   GL1 2692   8.271   7.345   4.270
  199POPC   GL2 2693   7.931   7.248   4.326
  199POPC   C1A 2694   8.241   7.231   4.742
  199POPC   D2A 2695   7.968   7.055   5.108
  199POPC   C3A 2696   7.975   7.270   5.510
  199POPC   C4A 2697   8.077   7.240   5.963
  199POPC   C1B 2698   7.697   7.255   4.721
  199POPC   C2B 2699   7.554   7.424   5.130
  199POPC   C3B 2700   7.326   7.414   5.511
  199POPC   C4B 2701   7.582   7.278   5.846
  200POPC   NC3 2702   0.421   7.802   3.800
  200POPC   PO4 2703   0.066   8.368   3.958
  200POPC   GL1 2704   0.335   8.087   4.224
  200POPC   GL2 2705   0.268   7.731   4.278
  200POPC   C1A 2706   0.345   8.105   4.679
  200POPC   D2A 2707   0.490   7.996   5.100
  200POPC   C3A 2708   0.250   8.193   5.388
  200POPC   C4A 2709   0.055   8.181   5.780
  200POPC   C1B 2710   0.309   7.603   4.660
  200POPC   C2B 2711   0.364   7.488   5.072
  200POPC   C3B 2712   0.273   7.681   5.479
  200POPC   C4B 2713   0.566   7.976   5.703
  201POPC   NC3 2714   7.332   7.138   3.811
  201POPC   PO4 2715   7.746   6.731   3.972
  201POPC   GL1 2716   7.501   6.989   4.282
  201POPC   GL2 2717   7.417   7.353   4.275
  201POPC   C1A 2718   7.297   6.889   4.665
  201POPC   D2A 2719   7.499   6.809   5.054
  201POPC   C3A 2720   7.536   6.946   5.469
  201POPC   C4A 2721   7.318   6.848   5.888
  201POPC   C1B 2722   7.193   7.373   4.660
  201POPC   C2B 2723   7.118   7.178   5.071
  201POPC   C3B 2724   7.009   7.016   5.488
  201POPC   C4B 2725   6.990   7.244   5.868
  202POPC   NC3 2726   8.868  10.207   4.068
  202POPC   PO4 2727   8.409   9.703   3.909
  202POPC   GL1 2728   8.536   9.939   4.342
  202POPC   GL2 2729   8.516  10.322   4.417
  202POPC   C1A 2730   8.682  10.036   4.790
  202POPC   D2A 2731   8.499  10.383   5.070
  202POPC   C3A 2732   8.471  10.236   5.503
  202POPC   C4A 2733   8.514   9.827   5.749
  202POPC   C1B 2734   8.822   0.019   4.682
  202POPC   C2B 2735   9.018  10.427   5.035
  202POPC   C3B 2736   9.126  10.274   5.413
  202POPC   C4B 2737   8.898  10.232   5.797
  203POPC   NC3 2738   9.504   5.710   3.643
  203POPC   PO4 2739   9.636   6.178   4.167
  203POPC   GL1 2740   9.643   5.853   4.422
  203POPC   GL2 2741   9.539   5.557   4.264
  203POPC   C1A 2742   9.714   5.903   4.820
  203POPC   D2A 2743   9.527   5.838   5.172
  203POPC   C3A 2744   9.568   6.040   5.523
  203POPC   C4A 2745   9.711   6.176   5.891
  203POPC   C1B 2746   9.279   5.532   4.666
  203POPC   C2B 2747   9.423   5.357   5.062
  203POPC   C3B 2748   9.330   5.464   5.473
  203POPC   C4B 2749   9.400   5.687   5.833
  204POPC   NC3 2750   6.433   1.931   3.924
  204POPC   PO4 2751   6.057   2.446   3.856
  204POPC   GL1 2752   6.108   2.212   4.256
  204POPC   GL2 2753   6.448   2.093   4.386
  204POPC   C1A 2754   6.126   2.250   4.726
  204POPC   D2A 2755   6.165   2.050   5.111
  204POPC   C3A 2756   6.240   2.263   5.470
  204POPC   C4A 2757   6.173   2.113   5.877
  204POPC   C1B 2758   6.423   1.825   4.734
  204POPC   C2B 2759   6.606   1.804   5.152
  204POPC   C3B 2760   6.474   1.803   5.583
  204POPC   C4B 2761   6.793   1.617   5.829
  205POPC   NC3 2762   1.812   3.400   3.824
  205POPC   PO4 2763   1.614   2.835   3.842
  205POPC   GL1 2764   1.761   3.109   4.245
  205POPC   GL2 2765   1.701   3.519   4.304
  205POPC   C1A 2766   1.688   3.203   4.699
  205POPC   D2A 2767   1.810   3.043   5.091
  205POPC   C3A 2768   1.811   3.296   5.420
  205POPC   C4A 2769   2.185   3.128   5.601
  205POPC   C1B 2770   2.008   3.604   4.671
  205POPC   C2B 2771   1.949   3.751   5.122
  205POPC   C3B 2772   2.162   3.645   5.525
  205POPC   C4B 2773   1.940   3.480   5.904
  206POPC   NC3 2774   6.341   3.563   3.924
  206POPC   PO4 2775   6.844   3.854   3.924
  206POPC   GL1 2776   6.697   3.696   4.343
  206POPC   GL2 2777   6.420   3.477   4.406
  206POPC   C1A 2778   6.618   3.679   4.822
  206POPC   D2A 2779   6.583   3.398   5.184
  206POPC   C3A 2780   6.520   3.656   5.587
  206POPC   C4A 2781   6.377   3.906   5.992
  206POPC   C1B 2782   6.216   3.344   4.774
  206POPC   C2B 2783   6.133   3.151   5.177
  206POPC   C3B 2784   6.207   3.268   5.589
  206POPC   C4B 2785   6.000   3.581   5.806
  207POPC   NC3 2786   9.827   7.388   3.918
  207POPC   PO4 2787   0.045   7.520   3.847
  207POPC   GL1 2788  10.388   7.404   4.260
  207POPC   GL2 2789  10.276   7.097   4.279
  207POPC   C1A 2790  10.452   7.266   4.716
  207POPC   D2A 2791  10.283   7.142   5.095
  207POPC   C3A 2792  10.264   7.420   5.424
  207POPC   C4A 2793  10.465   7.363   5.807
  207POPC   C1B 2794   9.949   7.261   4.576
  207POPC   C2B 2795   9.734   7.112   4.956
  207POPC   C3B 2796   9.845   7.092   5.388
  207POPC   C4B 2797  10.082   7.052   5.760
  208POPC   NC3 2798   0.123   9.991   3.696
  208POPC   PO4 2799   0.383   0.085   3.915
  208POPC   GL1 2800   0.248  10.370   4.282
  208POPC   GL2 2801   0.318  10.036   4.180
  208POPC   C1A 2802   0.239  10.497   4.730
  208POPC   D2A 2803   0.499   0.034   5.117
  208POPC   C3A 2804   0.477  10.267   5.492
  208POPC   C4A 2805   0.231  10.279   5.842
  208POPC   C1B 2806   0.486  10.041   4.611
  208POPC   C2B 2807   0.429   9.801   4.987
  208POPC   C3B 2808   0.239   9.733   5.402
  208POPC   C4B 2809   0.373   9.793   5.820
  209POPC   NC3 2810   3.882   0.426   3.994
  209POPC   PO4 2811   4.277   0.790   3.668
  209POPC   GL1 2812   4.312   0.652   4.160
  209POPC   GL2 2813   4.251   0.310   4.332
  209POPC   C1A 2814   4.344   0.718   4.617
  209POPC   D2A 2815   4.170   0.714   5.043
  209POPC   C3A 2816   4.362   0.612   5.413
  209POPC   C4A 2817   4.324   0.541   5.809
  209POPC   C1B 2818   3.999   0.329   4.720
  209POPC   C2B 2819   4.104   0.209   5.149
  209POPC   C3B 2820   3.916   0.358   5.533
  209POPC   C4B 2821   3.942   0.265   5.973
  210POPC   NC3 2822   1.922   8.190   3.808
  210POPC   PO4 2823   2.120   7.486   3.750
  210POPC   GL1 2824   2.123   7.617   4.193
  210POPC   GL2 2825   2.026   7.987   4.286
  210POPC   C1A 2826   2.311   7.632   4.607
  210POPC   D2A 2827   2.440   7.762   5.027
  210POPC   C3A 2828   2.238   7.622   5.414
  210POPC   C4A 2829   2.092   7.535   5.821
  210POPC   C1B 2830   1.955   7.959   4.750
  210POPC   C2B 2831   2.019   8.013   5.182
  210POPC   C3B 2832   1.795   7.884   5.512
  210POPC   C4B 2833   1.671   7.826   5.924
  211POPC   NC3 2834   1.745   9.715   3.993
  211POPC   PO4 2835   1.998  10.359   3.820
  211POPC   GL1 2836   1.947  10.186   4.203
  211POPC   GL2 2837   1.589  10.182   4.194
  211POPC   C1A 2838   2.073  10.182   4.652
  211POPC   D2A 2839   2.199  10.360   5.065
  211POPC   C3A 2840   2.081  10.121   5.434
  211POPC   C4A 2841   1.962  10.277   5.795
  211POPC   C1B 2842   1.515  10.168   4.638
  211POPC   C2B 2843   1.724  10.170   5.038
  211POPC   C3B 2844   1.570  10.191   5.448
  211POPC   C4B 2845   1.697   9.855   5.722
  212POPC   NC3 2846   2.321   5.661   3.812
  212POPC   PO4 2847   1.707   5.358   3.715
  212POPC   GL1 2848   1.836   5.454   4.169
  212POPC   GL2 2849   1.501   5.495   4.318
  212POPC   C1A 2850   1.950   5.546   4.652
  212POPC   D2A 2851   2.191   5.841   4.980
  212POPC   C3A 2852   2.322   5.773   5.438
  212POPC   C4A 2853   2.205   5.613   5.867
  212POPC   C1B 2854   1.509   5.791   4.671
  212POPC   C2B 2855   1.712   5.775   5.081
  212POPC   C3B 2856   1.841   5.607   5.518
  212POPC   C4B 2857   1.762   5.821   5.901
  213POPC   NC3 2858   3.102   9.515   3.931
  213POPC   PO4 2859   3.748   9.113   3.797
  213POPC   GL1 2860   3.691   9.260   4.269
  213POPC   GL2 2861   3.601   9.615   4.335
  213POPC   C1A 2862   3.613   9.178   4.716
  213POPC   D2A 2863   3.707   9.110   5.144
  213POPC   C3A 2864   3.638   9.485   5.359
  213POPC   C4A 2865   3.484   9.508   5.772
  213POPC   C1B 2866   3.305   9.584   4.655
  213POPC   C2B 2867   3.211   9.332   5.031
  213POPC   C3B 2868   3.125   9.466   5.426
  213POPC   C4B 2869   2.987   9.739   5.783
  214POPC   NC3 2870   1.757   7.203   3.814
  214POPC   PO4 2871   2.218   6.786   3.903
  214POPC   GL1 2872   2.103   7.076   4.208
  214POPC   GL2 2873   1.785   7.061   4.326
  214POPC   C1A 2874   2.168   7.145   4.650
  214POPC   D2A 2875   2.325   7.267   5.028
  214POPC   C3A 2876   2.166   7.108   5.418
  214POPC   C4A 2877   2.047   7.015   5.846
  214POPC   C1B 2878   1.778   7.470   4.596
  214POPC   C2B 2879   1.858   7.536   5.062
  214POPC   C3B 2880   1.727   7.371   5.496
  214POPC   C4B 2881   1.619   7.315   5.952
  215POPC   NC3 2882   1.774   6.482   3.980
  215POPC   PO4 2883   2.343   6.099   3.932
  215POPC   GL1 2884   2.058   6.134   4.235
  215POPC   GL2 2885   2.179   6.466   4.303
  215POPC   C1A 2886   1.915   6.116   4.655
  215POPC   D2A 2887   1.831   6.315   5.058
  215POPC   C3A 2888   1.879   6.104   5.439
  215POPC   C4A 2889   2.125   6.138   5.779
  215POPC   C1B 2890   2.016   6.646   4.659
  215POPC   C2B 2891   2.165   6.728   5.073
  215POPC   C3B 2892   2.096   6.602   5.521
  215POPC   C4B 2893   1.724   6.511   5.730
  216POPC   NC3 2894   4.642   2.100   4.097
  216POPC   PO4 2895   5.273   1.848   4.022
  216POPC   GL1 2896   5.212   1.989   4.398
  216POPC   GL2 2897   4.892   2.069   4.529
  216POPC   C1A 2898   5.205   1.719   4.754
  216POPC   D2A 2899   4.968   1.782   5.106
  216POPC   C3A 2900   5.234   1.653   5.395
  216POPC   C4A 2901   5.399   1.856   5.695
  216POPC   C1B 2902   4.801   2.383   4.830
  216POPC   C2B 2903   4.843   2.403   5.286
  216POPC   C3B 2904   4.915   2.055   5.574
  216POPC   C4B 2905   4.656   1.797   5.814
  217POPC   NC3 2906   7.918   9.982   3.851
  217POPC   PO4 2907   7.582   0.202   3.871
  217POPC   GL1 2908   7.781   0.194   4.281
  217POPC   GL2 2909   8.044  10.456   4.223
  217POPC   C1A 2910   7.738   0.093   4.723
  217POPC   D2A 2911   7.971  10.438   5.083
  217POPC   C3A 2912   7.702  10.355   5.413
  217POPC   C4A 2913   7.583  10.475   5.806
  217POPC   C1B 2914   8.063  10.195   4.608
  217POPC   C2B 2915   8.207   9.970   4.958
  217POPC   C3B 2916   8.138   9.848   5.356
  217POPC   C4B 2917   8.032  10.077   5.710
  218POPC   NC3 2918   4.967   7.693   3.954
  218POPC   PO4 2919   4.594   7.992   4.262
  218POPC   GL1 2920   4.964   7.917   4.453
  218POPC   GL2 2921   4.967   8.259   4.525
  218POPC   C1A 2922   4.968   7.762   4.905
  218POPC   D2A 2923   4.727   7.587   5.274
  218POPC   C3A 2924   4.886   7.676   5.704
  218POPC   C4A 2925   4.798   7.467   6.157
  218POPC   C1B 2926   4.653   8.169   4.872
  218POPC   C2B 2927   4.616   8.095   5.311
  218POPC   C3B 2928   4.805   8.293   5.652
  218POPC   C4B 2929   5.156   8.125   5.864
  219POPC   NC3 2930   2.693   8.667   3.977
  219POPC   PO4 2931   3.232   9.134   4.153
  219POPC   GL1 2932   3.036   8.739   4.337
  219POPC   GL2 2933   2.683   8.818   4.443
  219POPC   C1A 2934   2.923   8.444   4.702
  219POPC   D2A 2935   2.837   8.586   5.074
  219POPC   C3A 2936   2.950   8.399   5.411
  219POPC   C4A 2937   2.973   8.724   5.680
  219POPC   C1B 2938   2.432   8.682   4.780
  219POPC   C2B 2939   2.334   8.822   5.162
  219POPC   C3B 2940   2.490   8.646   5.509
  219POPC   C4B 2941   2.560   8.411   5.851
  220POPC   NC3 2942   6.363   7.195   4.086
  220POPC   PO4 2943   6.962   7.351   3.966
  220POPC   GL1 2944   6.767   7.398   4.378
  220POPC   GL2 2945   6.707   7.064   4.507
  220POPC   C1A 2946   6.717   7.444   4.846
  220POPC   D2A 2947   6.621   7.148   5.174
  220POPC   C3A 2948   6.563   7.290   5.570
  220POPC   C4A 2949   6.472   7.162   5.975
  220POPC   C1B 2950   6.308   7.096   4.769
  220POPC   C2B 2951   6.137   6.935   5.176
  220POPC   C3B 2952   6.217   6.871   5.622
  220POPC   C4B 2953   5.904   6.961   5.975
  221POPC   NC3 2954   0.940   4.589   3.891
  221POPC   PO4 2955   1.145   5.252   4.006
  221POPC   GL1 2956   1.179   5.068   4.352
  221POPC   GL2 2957   1.249   4.736   4.283
  221POPC   C1A 2958   1.330   5.033   4.735
  221POPC   D2A 2959   1.543   5.320   4.935
  221POPC   C3A 2960   1.504   5.232   5.355
  221POPC   C4A 2961   1.513   4.953   5.731
  221POPC   C1B 2962   0.934   4.696   4.605
  221POPC   C2B 2963   0.924   4.905   5.010
  221POPC   C3B 2964   1.120   4.834   5.411
  221POPC   C4B 2965   1.031   5.134   5.741
  222POPC   NC3 2966   3.030   0.646   4.048
  222POPC   PO4 2967   2.407   0.314   4.028
  222POPC   GL1 2968   2.587   0.308   4.403
  222POPC   GL2 2969   2.958   0.239   4.329
  222POPC   C1A 2970   2.396   0.267   4.816
  222POPC   D2A 2971   2.351   0.324   5.237
  222POPC   C3A 2972   2.360   0.052   5.561
  222POPC   C4A 2973   2.591   0.207   5.888
  222POPC   C1B 2974   2.946   0.520   4.702
  222POPC   C2B 2975   2.796   0.544   5.121
  222POPC   C3B 2976   2.841   0.743   5.511
  222POPC   C4B 2977   2.783   0.709   5.956
  223POPC   NC3 2978   8.428   5.737   3.960
  223POPC   PO4 2979   9.169   5.643   3.959
  223POPC   GL1 2980   8.837   5.598   4.266
  223POPC   GL2 2981   8.707   5.916   4.371
  223POPC   C1A 2982   8.721   5.495   4.687
  223POPC   D2A 2983   8.914   5.276   5.020
  223POPC   C3A 2984   8.835   5.335   5.431
  223POPC   C4A 2985   8.795   5.410   5.832
  223POPC   C1B 2986   8.868   5.984   4.796
  223POPC   C2B 2987   9.036   5.746   5.130
  223POPC   C3B 2988   8.982   5.855   5.557
  223POPC   C4B 2989   8.591   5.956   5.753
  224POPC   NC3 2990   3.373  10.366   3.952
  224POPC   PO4 2991   2.805   9.911   3.864
  224POPC   GL1 2992   3.166   9.922   4.252
  224POPC   GL2 2993   3.497  10.130   4.413
  224POPC   C1A 2994   3.093  10.043   4.707
  224POPC   D2A 2995   3.244  10.218   5.095
  224POPC   C3A 2996   3.304   9.983   5.472
  224POPC   C4A 2997   3.360  10.046   5.923
  224POPC   C1B 2998   3.731  10.357   4.800
  224POPC   C2B 2999   3.615   0.076   5.184
  224POPC   C3B 3000   3.512  10.501   5.620
  224POPC   C4B 3001   3.793  10.305   5.917
  225POPC   NC3 3002   6.690  10.229   3.948
  225POPC   PO4 3003   6.043  10.049   3.939
  225POPC   GL1 3004   6.280  10.190   4.310
  225POPC   GL2 3005   6.630  10.313   4.426
  225POPC   C1A 3006   6.295  10.160   4.761
  225POPC   D2A 3007   6.166  10.013   5.163
  225POPC   C3A 3008   6.330  10.351   5.438
  225POPC   C4A 3009   6.216  10.451   5.859
  225POPC   C1B 3010   6.822  10.102   4.766
  225POPC   C2B 3011   6.681  10.093   5.154
  225POPC   C3B 3012   6.725   9.905   5.538
  225POPC   C4B 3013   6.650  10.197   5.842
  226POPC   NC3 3014   6.538   8.681   3.915
  226POPC   PO4 3015   6.880   8.130   3.987
  226POPC   GL1 3016   6.684   8.391   4.361
  226POPC   GL2 3017   6.326   8.529   4.350
  226POPC   C1A 3018   6.534   8.447   4.822
  226POPC   D2A 3019   6.665   8.664   5.208
  226POPC   C3A 3020   6.418   8.521   5.540
  226POPC   C4A 3021   6.369   8.486   6.015
  226POPC   C1B 3022   6.177   8.825   4.672
  226POPC   C2B 3023   6.285   8.971   5.088
  226POPC   C3B 3024   6.085   9.012   5.484
  226POPC   C4B 3025   5.969   8.626   5.723
  227POPC   NC3 3026   7.134   1.859   3.863
  227POPC   PO4 3027   6.697   2.355   3.980
  227POPC   GL1 3028   6.944   2.157   4.308
  227POPC   GL2 3029   7.011   1.810   4.357
  227POPC   C1A 3030   6.865   2.046   4.758
  227POPC   D2A 3031   7.076   2.128   5.119
  227POPC   C3A 3032   6.884   2.093   5.529
  227POPC   C4A 3033   7.068   2.224   5.911
  227POPC   C1B 3034   7.346   1.968   4.663
  227POPC   C2B 3035   7.523   1.861   5.053
  227POPC   C3B 3036   7.435   2.014   5.452
  227POPC   C4B 3037   7.279   1.784   5.809
  228POPC   NC3 3038   9.440   1.293   3.940
  228POPC   PO4 3039  10.043   1.454   3.866
  228POPC   GL1 3040   9.816   1.446   4.254
  228POPC   GL2 3041   9.763   1.081   4.288
  228POPC   C1A 3042   9.833   1.405   4.720
  228POPC   D2A 3043   9.838   1.104   5.065
  228POPC   C3A 3044   9.716   1.173   5.474
  228POPC   C4A 3045   9.776   1.505   5.732
  228POPC   C1B 3046   9.409   1.174   4.551
  228POPC   C2B 3047   9.335   1.161   4.968
  228POPC   C3B 3048   9.228   1.140   5.395
  228POPC   C4B 3049   9.302   1.320   5.835
  229POPC   NC3 3050   9.266   5.150   4.010
  229POPC   PO4 3051   9.850   5.243   3.883
  229POPC   GL1 3052   9.721   5.055   4.303
  229POPC   GL2 3053   9.501   4.764   4.288
  229POPC   C1A 3054   9.714   4.882   4.741
  229POPC   D2A 3055   9.666   4.742   5.181
  229POPC   C3A 3056   9.699   5.087   5.448
  229POPC   C4A 3057   9.624   5.220   5.884
  229POPC   C1B 3058   9.215   4.990   4.606
  229POPC   C2B 3059   9.235   4.907   4.964
  229POPC   C3B 3060   9.211   4.957   5.350
  229POPC   C4B 3061   9.177   5.058   5.727
  230POPC   NC3 3062   7.109   0.519   3.806
  230POPC   PO4 3063   7.697   0.824   3.963
  230POPC   GL1 3064   7.419   0.574   4.250
  230POPC   GL2 3065   7.044   0.491   4.319
  230POPC   C1A 3066   7.333   0.548   4.701
  230POPC   D2A 3067   7.113   0.600   5.087
  230POPC   C3A 3068   7.384   0.754   5.439
  230POPC   C4A 3069   7.490   0.517   5.823
  230POPC   C1B 3070   6.997   0.160   4.703
  230POPC   C2B 3071   7.305   0.117   5.040
  230POPC   C3B 3072   7.335   0.227   5.426
  230POPC   C4B 3073   7.034   0.419   5.636
  231POPC   NC3 3074   1.957   4.380   3.963
  231POPC   PO4 3075   2.091   3.715   3.980
  231POPC   GL1 3076   2.034   4.007   4.321
  231POPC   GL2 3077   1.664   4.067   4.275
  231POPC   C1A 3078   2.074   4.326   4.679
  231POPC   D2A 3079   2.087   4.508   5.118
  231POPC   C3A 3080   2.155   4.163   5.436
  231POPC   C4A 3081   2.359   4.006   5.823
  231POPC   C1B 3082   1.676   3.987   4.722
  231POPC   C2B 3083   1.657   4.274   5.061
  231POPC   C3B 3084   1.690   4.351   5.516
  231POPC   C4B 3085   1.790   3.949   5.739
  232POPC   NC3 3086   2.474   7.186   3.868
  232POPC   PO4 3087   3.002   7.616   3.875
  232POPC   GL1 3088   2.756   7.442   4.265
  232POPC   GL2 3089   2.600   7.094   4.350
  232POPC   C1A 3090   2.740   7.377   4.734
  232POPC   D2A 3091   2.935   7.339   5.121
  232POPC   C3A 3092   2.643   7.319   5.418
  232POPC   C4A 3093   2.502   7.239   5.777
  232POPC   C1B 3094   2.565   6.849   4.739
  232POPC   C2B 3095   2.637   6.879   5.184
  232POPC   C3B 3096   2.573   6.759   5.628
  232POPC   C4B 3097   2.483   6.865   6.099
  233POPC   NC3 3098   3.976   1.362   3.984
  233POPC   PO4 3099   3.286   1.340   3.919
  233POPC   GL1 3100   3.531   1.223   4.227
  233POPC   GL2 3101   3.442   0.912   4.259
  233POPC   C1A 3102   3.612   1.327   4.626
  233POPC   D2A 3103   3.415   1.389   5.010
  233POPC   C3A 3104   3.646   1.458   5.385
  233POPC   C4A 3105   3.697   1.307   5.775
  233POPC   C1B 3106   3.245   0.958   4.648
  233POPC   C2B 3107   3.207   0.882   5.078
  233POPC   C3B 3108   3.218   1.139   5.425
  233POPC   C4B 3109   3.229   0.949   5.789
  234POPC   NC3 3110   2.033   8.799   3.715
  234POPC   PO4 3111   2.200   8.946   4.278
  234POPC   GL1 3112   1.933   8.766   4.571
  234POPC   GL2 3113   1.745   8.417   4.574
  234POPC   C1A 3114   1.892   8.979   4.927
  234POPC   D2A 3115   1.781   8.980   5.309
  234POPC   C3A 3116   2.108   9.033   5.581
  234POPC   C4A 3117   2.198   8.779   5.912
  234POPC   C1B 3118   1.986   8.458   4.953
  234POPC   C2B 3119   1.991   8.496   5.400
  234POPC   C3B 3120   1.857   8.391   5.818
  234POPC   C4B 3121   2.161   8.358   6.199
  235POPC   NC3 3122   6.838   2.771   4.145
  235POPC   PO4 3123   7.423   3.039   3.906
  235POPC   GL1 3124   7.340   2.852   4.281
  235POPC   GL2 3125   7.353   2.482   4.236
  235POPC   C1A 3126   7.277   2.959   4.696
  235POPC   D2A 3127   7.492   2.916   5.073
  235POPC   C3A 3128   7.323   3.004   5.494
  235POPC   C4A 3129   7.379   3.029   5.952
  235POPC   C1B 3130   7.155   2.460   4.659
  235POPC   C2B 3131   7.040   2.639   5.048
  235POPC   C3B 3132   7.148   2.520   5.467
  235POPC   C4B 3133   6.986   2.719   5.829
  236POPC   NC3 3134   7.180   3.582   3.789
  236POPC   PO4 3135   7.823   3.683   3.813
  236POPC   GL1 3136   7.434   3.532   4.195
  236POPC   GL2 3137   7.082   3.311   4.208
  236POPC   C1A 3138   7.373   3.468   4.643
  236POPC   D2A 3139   7.620   3.411   5.024
  236POPC   C3A 3140   7.510   3.480   5.441
  236POPC   C4A 3141   7.344   3.548   5.836
  236POPC   C1B 3142   6.871   3.266   4.627
  236POPC   C2B 3143   7.080   3.273   5.056
  236POPC   C3B 3144   6.998   3.427   5.478
  236POPC   C4B 3145   6.895   3.228   5.851
  237POPC   NC3 3146   2.478   3.547   3.777
  237POPC   PO4 3147   3.054   3.881   3.930
  237POPC   GL1 3148   2.770   3.606   4.273
  237POPC   GL2 3149   2.418   3.438   4.288
  237POPC   C1A 3150   2.491   3.809   4.645
  237POPC   D2A 3151   2.450   3.693   5.089
  237POPC   C3A 3152   2.680   3.865   5.441
  237POPC   C4A 3153   2.810   3.732   5.865
  237POPC   C1B 3154   2.574   3.317   4.722
  237POPC   C2B 3155   2.437   3.192   5.144
  237POPC   C3B 3156   2.625   3.353   5.530
  237POPC   C4B 3157   2.432   3.415   5.927
  238POPC   NC3 3158   9.612   0.468   3.833
  238POPC   PO4 3159   9.149   0.043   3.918
  238POPC   GL1 3160   9.440   0.257   4.255
  238POPC   GL2 3161   9.594   0.594   4.326
  238POPC   C1A 3162   9.358   0.297   4.681
  238POPC   D2A 3163   9.153   0.409   5.005
  238POPC   C3A 3164   9.275   0.266   5.372
  238POPC   C4A 3165   9.125   0.366   5.763
  238POPC   C1B 3166   9.620   0.760   4.758
  238POPC   C2B 3167   9.490   0.738   5.198
  238POPC   C3B 3168   9.450   0.749   5.631
  238POPC   C4B 3169   9.277   0.782   6.028
  239POPC   NC3 3170   8.507   8.515   4.023
  239POPC   PO4 3171   9.141   8.592   4.171
  239POPC   GL1 3172   8.994   8.603   4.531
  239POPC   GL2 3173   8.718   8.763   4.465
  239POPC   C1A 3174   8.969   8.640   4.956
  239POPC   D2A 3175   8.987   8.331   5.263
  239POPC   C3A 3176   8.959   8.607   5.596
  239POPC   C4A 3177   8.831   8.857   5.948
  239POPC   C1B 3178   8.459   8.615   4.760
  239POPC   C2B 3179   8.506   8.514   5.172
  239POPC   C3B 3180   8.458   8.641   5.530
  239POPC   C4B 3181   8.368   8.953   5.745
  240POPC   NC3 3182   1.760   0.211   3.997
  240POPC   PO4 3183   1.791   0.837   3.805
  240POPC   GL1 3184   2.045   0.639   4.219
  240POPC   GL2 3185   2.049   0.333   4.416
  240POPC   C1A 3186   2.263   0.734   4.656
  240POPC   D2A 3187   1.960   0.552   4.990
  240POPC   C3A 3188   2.019   0.613   5.456
  240POPC   C4A 3189   2.172   0.651   5.908
  240POPC   C1B 3190   1.785   0.113   4.699
  240POPC   C2B 3191   1.617   0.158   5.092
  240POPC   C3B 3192   1.868   0.119   5.411
  240POPC   C4B 3193   1.887   0.264   5.811
  241POPC   NC3 3194   4.294   3.649   3.923
  241POPC   PO4 3195   4.694   3.258   3.910
  241POPC   GL1 3196   4.521   3.277   4.331
  241POPC   GL2 3197   4.188   3.214   4.348
  241POPC   C1A 3198   4.433   3.273   4.808
  241POPC   D2A 3199   4.456   3.342   5.266
  241POPC   C3A 3200   4.390   3.741   5.500
  241POPC   C4A 3201   4.415   4.037   5.920
  241POPC   C1B 3202   3.972   3.055   4.676
  241POPC   C2B 3203   3.949   3.188   5.099
  241POPC   C3B 3204   4.039   3.288   5.527
  241POPC   C4B 3205   4.022   3.599   5.833
  242POPC   NC3 3206   0.344   8.756   3.979
  242POPC   PO4 3207   0.718   8.171   3.820
  242POPC   GL1 3208   0.780   8.372   4.282
  242POPC   GL2 3209   0.473   8.530   4.407
  242POPC   C1A 3210   0.854   8.752   4.619
  242POPC   D2A 3211   0.580   8.938   4.988
  242POPC   C3A 3212   0.657   8.864   5.471
  242POPC   C4A 3213   0.476   8.488   5.743
  242POPC   C1B 3214   0.131   8.723   4.620
  242POPC   C2B 3215   0.052   8.860   5.010
  242POPC   C3B 3216   0.194   8.707   5.359
  242POPC   C4B 3217   0.137   8.852   5.752
  243POPC   NC3 3218   1.267   2.585   4.017
  243POPC   PO4 3219   1.342   3.361   3.820
  243POPC   GL1 3220   1.252   3.157   4.188
  243POPC   GL2 3221   1.166   3.480   4.318
  243POPC   C1A 3222   1.201   3.039   4.627
  243POPC   D2A 3223   0.889   3.189   4.919
  243POPC   C3A 3224   0.902   3.137   5.350
  243POPC   C4A 3225   0.921   3.215   5.776
  243POPC   C1B 3226   1.324   3.575   4.703
  243POPC   C2B 3227   1.358   3.388   5.091
  243POPC   C3B 3228   1.218   3.498   5.483
  243POPC   C4B 3229   1.458   3.426   5.795
  244POPC   NC3 3230   6.046   2.837   4.096
  244POPC   PO4 3231   5.481   2.821   3.915
  244POPC   GL1 3232   5.546   2.840   4.338
  244POPC   GL2 3233   5.688   2.506   4.319
  244POPC   C1A 3234   5.496   3.008   4.793
  244POPC   D2A 3235   5.715   2.854   5.209
  244POPC   C3A 3236   5.717   3.050   5.617
  244POPC   C4A 3237   5.382   3.190   5.908
  244POPC   C1B 3238   5.766   2.590   4.758
  244POPC   C2B 3239   5.764   2.358   5.139
  244POPC   C3B 3240   5.772   2.483   5.597
  244POPC   C4B 3241   6.043   2.592   5.973
  245POPC   NC3 3242   0.199   4.504   3.956
  245POPC   PO4 3243   0.721   4.953   3.722
  245POPC   GL1 3244   0.713   4.989   4.177
  245POPC   GL2 3245   0.504   4.767   4.361
  245POPC   C1A 3246   0.686   5.168   4.614
  245POPC   D2A 3247   0.460   5.092   5.009
  245POPC   C3A 3248   0.627   4.986   5.427
  245POPC   C4A 3249   0.668   4.644   5.688
  245POPC   C1B 3250   0.150   4.892   4.666
  245POPC   C2B 3251   0.045   4.780   5.102
  245POPC   C3B 3252   0.146   4.812   5.547
  245POPC   C4B 3253   0.171   5.115   5.874
  246POPC   NC3 3254   4.347  10.142   3.948
  246POPC   PO4 3255   3.661  10.008   3.924
  246POPC   GL1 3256   3.961   9.980   4.225
  246POPC   GL2 3257   4.026  10.335   4.297
  246POPC   C1A 3258   3.939   9.921   4.633
  246POPC   D2A 3259   3.604   9.881   4.935
  246POPC   C3A 3260   3.769  10.083   5.289
  246POPC   C4A 3261   3.799   9.878   5.668
  246POPC   C1B 3262   4.238  10.354   4.692
  246POPC   C2B 3263   4.415  10.055   5.001
  246POPC   C3B 3264   4.289  10.038   5.431
  246POPC   C4B 3265   4.203  10.441   5.636
  247POPC   NC3 3266   6.232   9.609   3.991
  247POPC   PO4 3267   6.819   9.819   4.091
  247POPC   GL1 3268   6.534   9.775   4.441
  247POPC   GL2 3269   6.308   9.482   4.464
  247POPC   C1A 3270   6.464   9.702   4.890
  247POPC   D2A 3271   6.141   9.452   5.047
  247POPC   C3A 3272   6.158   9.539   5.456
  247POPC   C4A 3273   6.234   9.923   5.682
  247POPC   C1B 3274   6.531   9.240   4.720
  247POPC   C2B 3275   6.741   9.211   5.132
  247POPC   C3B 3276   6.670   9.347   5.595
  247POPC   C4B 3277   6.677   9.297   6.082
  248POPC   NC3 3278   0.822   7.011   4.110
  248POPC   PO4 3279   1.464   6.862   3.962
  248POPC   GL1 3280   1.274   7.065   4.336
  248POPC   GL2 3281   1.088   7.396   4.340
  248POPC   C1A 3282   1.156   7.025   4.757
  248POPC   D2A 3283   1.276   6.964   5.169
  248POPC   C3A 3284   0.912   6.935   5.387
  248POPC   C4A 3285   0.873   7.022   5.790
  248POPC   C1B 3286   1.247   7.536   4.751
  248POPC   C2B 3287   1.351   7.613   5.191
  248POPC   C3B 3288   1.210   7.350   5.534
  248POPC   C4B 3289   1.371   6.930   5.699
  249POPC   NC3 3290   4.140   7.099   3.857
  249POPC   PO4 3291   4.613   7.468   3.783
  249POPC   GL1 3292   4.471   7.427   4.224
  249POPC   GL2 3293   4.152   7.260   4.343
  249POPC   C1A 3294   4.494   7.363   4.701
  249POPC   D2A 3295   4.377   7.067   5.047
  249POPC   C3A 3296   4.282   7.267   5.424
  249POPC   C4A 3297   4.569   7.287   5.738
  249POPC   C1B 3298   3.967   7.075   4.728
  249POPC   C2B 3299   3.879   7.039   5.192
  249POPC   C3B 3300   4.097   6.807   5.550
  249POPC   C4B 3301   4.252   6.616   5.971
  250POPC   NC3 3302   4.797   8.311   3.995
  250POPC   PO4 3303   4.720   8.950   3.971
  250POPC   GL1 3304   4.915   8.725   4.303
  250POPC   GL2 3305   5.241   8.554   4.177
  250POPC   C1A 3306   4.901   8.766   4.756
  250POPC   D2A 3307   4.800   8.577   5.162
  250POPC   C3A 3308   4.790   8.795   5.593
  250POPC   C4A 3309   4.743   8.862   6.037
  250POPC   C1B 3310   5.367   8.560   4.609
  250POPC   C2B 3311   5.333   8.718   5.035
  250POPC   C3B 3312   5.209   8.544   5.443
  250POPC   C4B 3313   5.214   8.652   5.870
  251POPC   NC3 3314   7.762   5.092   4.336
  251POPC   PO4 3315   8.244   5.281   3.996
  251POPC   GL1 3316   8.272   5.173   4.383
  251POPC   GL2 3317   8.276   4.837   4.379
  251POPC   C1A 3318   8.192   5.316   4.788
  251POPC   D2A 3319   7.919   5.092   5.124
  251POPC   C3A 3320   7.852   5.237   5.538
  251POPC   C4A 3321   7.898   5.311   5.962
  251POPC   C1B 3322   8.144   4.813   4.775
  251POPC   C2B 3323   8.262   4.684   5.130
  251POPC   C3B 3324   8.001   4.660   5.452
  251POPC   C4B 3325   7.862   4.810   5.825
  252POPC   NC3 3326   7.577   9.047   3.754
  252POPC   PO4 3327   8.124   8.607   3.754
  252POPC   GL1 3328   7.899   8.776   4.136
  252POPC   GL2 3329   8.213   8.814   4.310
  252POPC   C1A 3330   7.829   8.908   4.618
  252POPC   D2A 3331   8.072   8.997   4.996
  252POPC   C3A 3332   7.951   8.897   5.414
  252POPC   C4A 3333   7.882   9.056   5.863
  252POPC   C1B 3334   8.020   8.453   4.577
  252POPC   C2B 3335   8.154   8.187   4.934
  252POPC   C3B 3336   8.099   8.294   5.379
  252POPC   C4B 3337   8.018   8.553   5.770
  253POPC   NC3 3338   8.832   1.192   3.995
  253POPC   PO4 3339   8.394   0.693   3.835
  253POPC   GL1 3340   8.402   1.037   4.219
  253POPC   GL2 3341   8.674   0.959   4.440
  253POPC   C1A 3342   8.416   1.398   4.584
  253POPC   D2A 3343   8.437   1.634   5.002
  253POPC   C3A 3344   8.417   1.402   5.420
  253POPC   C4A 3345   8.398   1.044   5.734
  253POPC   C1B 3346   8.915   1.292   4.674
  253POPC   C2B 3347   8.937   1.471   5.096
  253POPC   C3B 3348   8.897   1.463   5.551
  253POPC   C4B 3349   8.894   1.034   5.802
  254POPC   NC3 3350   1.341   5.636   3.830
  254POPC   PO4 3351   0.720   5.927   3.790
  254POPC   GL1 3352   0.988   5.997   4.131
  254POPC   GL2 3353   0.974   5.660   4.239
  254POPC   C1A 3354   1.061   6.021   4.596
  254POPC   D2A 3355   0.821   6.018   4.992
  254POPC   C3A 3356   0.977   6.008   5.399
  254POPC   C4A 3357   0.989   5.731   5.781
  254POPC   C1B 3358   1.089   5.494   4.652
  254POPC   C2B 3359   1.159   5.634   5.064
  254POPC   C3B 3360   1.368   5.717   5.438
  254POPC   C4B 3361   1.429   5.464   5.794
  255POPC   NC3 3362   7.232   9.582   3.984
  255POPC   PO4 3363   7.370   8.987   4.149
  255POPC   GL1 3364   7.203   9.273   4.389
  255POPC   GL2 3365   6.863   9.368   4.325
  255POPC   C1A 3366   7.172   9.184   4.772
  255POPC   D2A 3367   7.309   9.301   5.106
  255POPC   C3A 3368   7.139   9.082   5.439
  255POPC   C4A 3369   7.089   9.137   5.837
  255POPC   C1B 3370   6.921   9.600   4.701
  255POPC   C2B 3371   6.954   9.673   5.117
  255POPC   C3B 3372   7.143   9.599   5.498
  255POPC   C4B 3373   7.000   9.643   5.920
  256POPC   NC3 3374   0.400   3.745   4.158
  256POPC   PO4 3375   0.683   3.201   3.859
  256POPC   GL1 3376   0.418   3.208   4.207
  256POPC   GL2 3377   0.675   3.378   4.381
  256POPC   C1A 3378   0.237   3.259   4.606
  256POPC   D2A 3379   0.372   3.481   4.994
  256POPC   C3A 3380   0.203   3.341   5.390
  256POPC   C4A 3381   0.427   3.269   5.761
  256POPC   C1B 3382   0.790   3.654   4.708
  256POPC   C2B 3383   0.897   3.647   5.115
  256POPC   C3B 3384   0.694   3.598   5.463
  256POPC   C4B 3385   0.833   3.710   5.851
  257POPC   NC3 3386   7.240   0.070   4.137
  257POPC   PO4 3387   7.479   9.971   4.012
  257POPC   GL1 3388   7.277   9.829   4.408
  257POPC   GL2 3389   7.106  10.133   4.356
  257POPC   C1A 3390   7.386   9.750   4.846
  257POPC   D2A 3391   7.702   9.960   5.074
  257POPC   C3A 3392   7.613   9.842   5.492
  257POPC   C4A 3393   7.277  10.037   5.747
  257POPC   C1B 3394   7.336  10.228   4.735
  257POPC   C2B 3395   7.219  10.126   5.188
  257POPC   C3B 3396   6.975  10.373   5.483
  257POPC   C4B 3397   7.087  10.488   5.901
  258POPC   NC3 3398   0.145   3.729   3.671
  258POPC   PO4 3399   0.662   4.081   3.961
  258POPC   GL1 3400   0.474   4.231   4.350
  258POPC   GL2 3401   0.164   4.408   4.466
  258POPC   C1A 3402   0.362   4.009   4.726
  258POPC   D2A 3403   0.534   3.992   5.092
  258POPC   C3A 3404   0.265   3.863   5.361
  258POPC   C4A 3405   0.301   3.743   5.769
  258POPC   C1B 3406   0.478   4.522   4.820
  258POPC   C2B 3407   0.748   4.451   5.190
  258POPC   C3B 3408   0.725   4.146   5.548
  258POPC   C4B 3409   0.323   4.250   5.716
  259POPC   NC3 3410   9.127   7.323   3.704
  259POPC   PO4 3411   9.584   7.768   3.967
  259POPC   GL1 3412   9.328   7.453   4.179
  259POPC   GL2 3413   9.464   7.103   4.268
  259POPC   C1A 3414   9.177   7.414   4.594
  259POPC   D2A 3415   9.212   7.517   5.003
  259POPC   C3A 3416   9.439   7.382   5.329
  259POPC   C4A 3417   9.291   7.460   5.742
  259POPC   C1B 3418   9.309   6.946   4.710
  259POPC   C2B 3419   9.345   6.745   5.135
  259POPC   C3B 3420   9.297   6.930   5.553
  259POPC   C4B 3421   9.592   7.061   5.821
  260POPC   NC3 3422   2.818   2.464   3.869
  260POPC   PO4 3423   2.379   3.085   3.825
  260POPC   GL1 3424   2.462   2.895   4.238
  260POPC   GL2 3425   2.520   2.538   4.286
  260POPC   C1A 3426   2.485   2.823   4.697
  260POPC   D2A 3427   2.796   2.860   5.017
  260POPC   C3A 3428   2.636   2.824   5.448
  260POPC   C4A 3429   2.507   2.834   5.863
  260POPC   C1B 3430   2.909   2.547   4.579
  260POPC   C2B 3431   3.210   2.519   4.912
  260POPC   C3B 3432   3.113   2.586   5.332
  260POPC   C4B 3433   2.936   2.548   5.760
  261POPC   NC3 3434   8.883   4.320   3.902
  261POPC   PO4 3435   9.555   3.944   3.920
  261POPC   GL1 3436   9.493   4.164   4.291
  261POPC   GL2 3437   9.195   4.329   4.316
  261POPC   C1A 3438   9.418   3.981   4.692
  261POPC   D2A 3439   9.497   3.742   5.057
  261POPC   C3A 3440   9.383   3.958   5.405
  261POPC   C4A 3441   9.480   3.997   5.804
  261POPC   C1B 3442   9.356   4.486   4.705
  261POPC   C2B 3443   9.191   4.459   5.152
  261POPC   C3B 3444   9.332   4.495   5.577
  261POPC   C4B 3445   9.617   4.463   5.929
  262POPC   NC3 3446   5.063   2.990   3.923
  262POPC   PO4 3447   4.532   2.507   3.891
  262POPC   GL1 3448   4.783   2.574   4.283
  262POPC   GL2 3449   5.135   2.476   4.190
  262POPC   C1A 3450   4.892   2.863   4.650
  262POPC   D2A 3451   4.841   3.040   5.090
  262POPC   C3A 3452   4.766   2.929   5.547
  262POPC   C4A 3453   4.870   3.202   5.965
  262POPC   C1B 3454   5.265   2.515   4.620
  262POPC   C2B 3455   5.236   2.674   5.073
  262POPC   C3B 3456   5.273   2.769   5.535
  262POPC   C4B 3457   5.042   2.735   5.948
  263POPC   NC3 3458   0.270   6.106   3.899
  263POPC   PO4 3459   0.627   6.707   3.843
  263POPC   GL1 3460   0.603   6.384   4.173
  263POPC   GL2 3461   0.243   6.360   4.320
  263POPC   C1A 3462   0.595   6.215   4.599
  263POPC   D2A 3463   0.512   6.466   4.967
  263POPC   C3A 3464   0.552   6.274   5.355
  263POPC   C4A 3465   0.660   6.113   5.766
  263POPC   C1B 3466   0.079   6.308   4.725
  263POPC   C2B 3467  10.483   6.510   5.062
  263POPC   C3B 3468   0.210   6.641   5.381
  263POPC   C4B 3469   0.445   6.564   5.757
  264POPC   NC3 3470   0.609   1.417   3.790
  264POPC   PO4 3471   0.899   0.805   3.740
  264POPC   GL1 3472   0.685   1.045   4.135
  264POPC   GL2 3473   0.343   1.254   4.198
  264POPC   C1A 3474   0.655   1.195   4.598
  264POPC   D2A 3475   0.539   0.989   4.983
  264POPC   C3A 3476   0.623   1.111   5.385
  264POPC   C4A 3477   0.763   1.000   5.768
  264POPC   C1B 3478   0.152   1.099   4.603
  264POPC   C2B 3479   0.055   0.873   4.973
  264POPC   C3B 3480   0.037   0.836   5.416
  264POPC   C4B 3481   0.232   1.113   5.713
  265POPC   NC3 3482   6.472   7.982   3.836
  265POPC   PO4 3483   6.055   7.542   4.011
  265POPC   GL1 3484   6.303   7.657   4.331
  265POPC   GL2 3485   6.583   7.882   4.333
  265POPC   C1A 3486   6.247   7.610   4.759
  265POPC   D2A 3487   6.238   7.487   5.180
  265POPC   C3A 3488   6.408   7.771   5.476
  265POPC   C4A 3489   6.356   7.649   5.886
  265POPC   C1B 3490   6.258   8.088   4.590
  265POPC   C2B 3491   6.307   8.056   5.053
  265POPC   C3B 3492   6.698   8.150   5.281
  265POPC   C4B 3493   6.773   8.206   5.722
  266POPC   NC3 3494   8.079   1.050   3.819
  266POPC   PO4 3495   7.673   1.494   3.660
  266POPC   GL1 3496   7.791   1.287   4.164
  266POPC   GL2 3497   7.533   1.086   4.372
  266POPC   C1A 3498   8.002   1.099   4.534
  266POPC   D2A 3499   8.115   0.923   4.925
  266POPC   C3A 3500   7.834   0.950   5.271
  266POPC   C4A 3501   7.960   1.209   5.604
  266POPC   C1B 3502   7.548   1.019   4.830
  266POPC   C2B 3503   7.481   1.349   5.147
  266POPC   C3B 3504   7.557   1.473   5.541
  266POPC   C4B 3505   7.537   1.087   5.836
  267POPC   NC3 3506   0.622   5.405   3.860
  267POPC   PO4 3507   0.189   4.959   4.032
  267POPC   GL1 3508   0.315   5.306   4.275
  267POPC   GL2 3509   0.368   5.687   4.207
  267POPC   C1A 3510   0.179   5.431   4.666
  267POPC   D2A 3511   0.006   5.310   5.036
  267POPC   C3A 3512   0.248   5.317   5.415
  267POPC   C4A 3513   0.556   5.436   5.763
  267POPC   C1B 3514   0.610   5.696   4.609
  267POPC   C2B 3515   0.498   5.616   5.062
  267POPC   C3B 3516   0.345   5.824   5.461
  267POPC   C4B 3517   0.185   6.037   5.865
  268POPC   NC3 3518   9.196   6.042   4.200
  268POPC   PO4 3519   8.596   6.210   3.885
  268POPC   GL1 3520   8.677   6.401   4.249
  268POPC   GL2 3521   8.959   6.498   4.149
  268POPC   C1A 3522   8.518   6.334   4.649
  268POPC   D2A 3523   8.386   6.276   5.041
  268POPC   C3A 3524   8.623   6.288   5.383
  268POPC   C4A 3525   8.463   6.453   5.778
  268POPC   C1B 3526   8.957   6.591   4.623
  268POPC   C2B 3527   8.835   6.609   5.049
  268POPC   C3B 3528   8.836   6.738   5.499
  268POPC   C4B 3529   8.965   6.666   5.929
  269POPC   NC3 3530   5.602   9.843   3.909
  269POPC   PO4 3531   5.913   9.235   3.956
  269POPC   GL1 3532   5.830   9.591   4.292
  269POPC   GL2 3533   5.512   9.744   4.392
  269POPC   C1A 3534   5.944   9.793   4.684
  269POPC   D2A 3535   5.698   9.731   5.055
  269POPC   C3A 3536   5.749   9.899   5.459
  269POPC   C4A 3537   5.823   9.664   5.817
  269POPC   C1B 3538   5.333   9.532   4.713
  269POPC   C2B 3539   5.384   9.317   5.097
  269POPC   C3B 3540   5.623   9.359   5.465
  269POPC   C4B 3541   5.388   9.438   5.857
  270POPC   NC3 3542   4.350   2.953   3.910
  270POPC   PO4 3543   3.937   2.432   4.016
  270POPC   GL1 3544   4.236   2.403   4.284
  270POPC   GL2 3545   4.279   2.716   4.358
  270POPC   C1A 3546   4.277   2.270   4.667
  270POPC   D2A 3547   4.356   2.326   5.078
  270POPC   C3A 3548   4.007   2.259   5.279
  270POPC   C4A 3549   3.916   2.334   5.669
  270POPC   C1B 3550   4.404   2.759   4.780
  270POPC   C2B 3551   4.350   2.837   5.218
  270POPC   C3B 3552   4.160   2.789   5.628
  270POPC   C4B 3553   4.086   3.062   6.000
  271POPC   NC3 3554   3.458   2.182   4.022
  271POPC   PO4 3555   3.921   1.736   3.710
  271POPC   GL1 3556   3.655   1.722   4.195
  271POPC   GL2 3557   3.276   1.707   4.277
  271POPC   C1A 3558   3.516   1.815   4.694
  271POPC   D2A 3559   3.650   1.931   5.124
  271POPC   C3A 3560   3.475   1.907   5.526
  271POPC   C4A 3561   3.230   1.568   5.732
  271POPC   C1B 3562   3.048   1.986   4.651
  271POPC   C2B 3563   3.112   2.003   5.101
  271POPC   C3B 3564   3.021   2.110   5.530
  271POPC   C4B 3565   3.215   2.043   5.963
  272POPC   NC3 3566   7.821   3.273   4.035
  272POPC   PO4 3567   8.217   3.941   4.020
  272POPC   GL1 3568   8.151   3.574   4.279
  272POPC   GL2 3569   7.860   3.556   4.456
  272POPC   C1A 3570   8.252   3.288   4.604
  272POPC   D2A 3571   8.107   3.517   4.944
  272POPC   C3A 3572   8.086   3.583   5.372
  272POPC   C4A 3573   8.032   3.810   5.749
  272POPC   C1B 3574   7.776   3.117   4.639
  272POPC   C2B 3575   8.001   2.980   4.979
  272POPC   C3B 3576   7.865   3.113   5.380
  272POPC   C4B 3577   7.866   3.325   5.781
  273POPC   NC3 3578   2.272   0.891   3.836
  273POPC   PO4 3579   2.341   1.616   3.874
  273POPC   GL1 3580   2.117   1.441   4.246
  273POPC   GL2 3581   2.035   1.133   4.249
  273POPC   C1A 3582   2.066   1.466   4.685
  273POPC   D2A 3583   2.357   1.376   5.016
  273POPC   C3A 3584   2.195   1.423   5.386
  273POPC   C4A 3585   2.317   1.442   5.787
  273POPC   C1B 3586   1.837   0.997   4.653
  273POPC   C2B 3587   1.925   1.055   5.098
  273POPC   C3B 3588   1.853   1.065   5.545
  273POPC   C4B 3589   1.776   1.411   5.703
  274POPC   NC3 3590   7.198   7.751   3.988
  274POPC   PO4 3591   7.580   8.287   3.996
  274POPC   GL1 3592   7.283   8.157   4.321
  274POPC   GL2 3593   7.339   7.831   4.481
  274POPC   C1A 3594   7.056   8.223   4.704
  274POPC   D2A 3595   7.287   8.271   5.069
  274POPC   C3A 3596   7.193   8.036   5.401
  274POPC   C4A 3597   7.309   8.168   5.749
  274POPC   C1B 3598   7.215   7.777   4.953
  274POPC   C2B 3599   6.904   7.624   5.296
  274POPC   C3B 3600   6.853   7.710   5.749
  274POPC   C4B 3601   6.752   7.564   6.201
  275POPC   NC3 3602   4.201   2.115   3.801
  275POPC   PO4 3603   4.549   1.645   4.093
  275POPC   GL1 3604   4.426   1.793   4.444
  275POPC   GL2 3605   4.124   1.907   4.283
  275POPC   C1A 3606   4.515   1.866   4.872
  275POPC   D2A 3607   4.507   1.866   5.313
  275POPC   C3A 3608   4.417   2.207   5.585
  275POPC   C4A 3609   4.233   2.077   5.959
  275POPC   C1B 3610   4.012   1.827   4.728
  275POPC   C2B 3611   4.072   1.646   5.132
  275POPC   C3B 3612   3.999   1.827   5.548
  275POPC   C4B 3613   3.771   1.792   5.926
  276POPC   NC3 3614   2.455   9.312   4.215
  276POPC   PO4 3615   1.960   9.381   3.749
  276POPC   GL1 3616   1.921   9.345   4.253
  276POPC   GL2 3617   1.684   9.089   4.274
  276POPC   C1A 3618   2.090   9.414   4.726
  276POPC   D2A 3619   2.348   9.338   5.091
  276POPC   C3A 3620   2.134   9.552   5.419
  276POPC   C4A 3621   2.023   9.486   5.816
  276POPC   C1B 3622   1.599   9.291   4.646
  276POPC   C2B 3623   1.683   9.537   5.013
  276POPC   C3B 3624   1.625   9.460   5.420
  276POPC   C4B 3625   1.625   9.187   5.742
  277POPC   NC3 3626   4.986   1.476   4.160
  277POPC   PO4 3627   4.941   0.951   3.731
  277POPC   GL1 3628   4.739   0.922   4.181
  277POPC   GL2 3629   4.537   1.192   4.329
  277POPC   C1A 3630   4.815   0.918   4.650
  277POPC   D2A 3631   4.640   0.856   5.035
  277POPC   C3A 3632   4.787   0.892   5.452
  277POPC   C4A 3633   4.496   1.028   5.775
  277POPC   C1B 3634   4.737   1.410   4.742
  277POPC   C2B 3635   4.946   1.278   5.126
  277POPC   C3B 3636   4.843   1.381   5.558
  277POPC   C4B 3637   5.077   1.525   5.892
  278POPC   NC3 3638   0.810   0.509   4.092
  278POPC   PO4 3639   0.216   0.821   3.956
  278POPC   GL1 3640   0.351   0.689   4.348
  278POPC   GL2 3641   0.171   0.385   4.322
  278POPC   C1A 3642   0.511   0.464   4.725
  278POPC   D2A 3643   0.788   0.446   5.080
  278POPC   C3A 3644   0.533   0.620   5.375
  278POPC   C4A 3645   0.458   0.577   5.780
  278POPC   C1B 3646  10.471   0.438   4.719
  278POPC   C2B 3647   0.142   0.396   5.123
  278POPC   C3B 3648   0.194   0.206   5.526
  278POPC   C4B 3649   0.127   0.256   5.974
  279POPC   NC3 3650   0.490   2.281   3.901
  279POPC   PO4 3651   0.674   1.688   4.153
  279POPC   GL1 3652   0.362   1.783   4.393
  279POPC   GL2 3653   0.508   2.142   4.398
  279POPC   C1A 3654   0.299   1.551   4.793
  279POPC   D2A 3655   0.232   1.374   5.214
  279POPC   C3A 3656   0.467   1.548   5.587
  279POPC   C4A 3657   0.199   1.670   5.929
  279POPC   C1B 3658   0.555   2.011   4.800
  279POPC   C2B 3659   0.424   1.875   5.163
  279POPC   C3B 3660   0.231   1.985   5.488
  279POPC   C4B 3661   0.470   2.053   5.808
  280POPC   NC3 3662   9.845   4.338   3.937
  280POPC   PO4 3663   0.013   3.974   4.029
  280POPC   GL1 3664  10.249   4.163   4.276
  280POPC   GL2 3665   9.979   3.996   4.344
  280POPC   C1A 3666  10.321   4.135   4.723
  280POPC   D2A 3667   0.080   4.261   5.066
  280POPC   C3A 3668  10.376   4.199   5.445
  280POPC   C4A 3669  10.377   4.467   5.804
  280POPC   C1B 3670   9.833   4.269   4.660
  280POPC   C2B 3671   9.633   4.253   5.058
  280POPC   C3B 3672   9.782   4.293   5.452
  280POPC   C4B 3673   9.990   4.142   5.768
  281POPC   NC3 3674   2.574   6.488   3.907
  281POPC   PO4 3675   2.910   6.921   3.989
  281POPC   GL1 3676   2.809   6.613   4.349
  281POPC   GL2 3677   2.647   6.253   4.360
  281POPC   C1A 3678   2.931   6.499   4.777
  281POPC   D2A 3679   2.818   6.408   5.194
  281POPC   C3A 3680   3.041   6.485   5.580
  281POPC   C4A 3681   2.950   6.686   5.975
  281POPC   C1B 3682   2.410   6.309   4.775
  281POPC   C2B 3683   2.329   6.266   5.226
  281POPC   C3B 3684   2.573   6.233   5.598
  281POPC   C4B 3685   2.616   5.890   5.888
  282POPC   NC3 3686   2.426  10.351   3.995
  282POPC   PO4 3687   2.262   9.742   4.185
  282POPC   GL1 3688   2.638   9.913   4.368
  282POPC   GL2 3689   2.787  10.255   4.340
  282POPC   C1A 3690   2.567  10.057   4.781
  282POPC   D2A 3691   2.399   9.887   5.123
  282POPC   C3A 3692   2.595  10.081   5.502
  282POPC   C4A 3693   2.475  10.186   5.916
  282POPC   C1B 3694   2.803  10.487   4.737
  282POPC   C2B 3695   2.714  10.447   5.155
  282POPC   C3B 3696   2.983  10.447   5.511
  282POPC   C4B 3697   3.006  10.403   5.956
  283POPC   NC3 3698   5.359   0.682   3.988
  283POPC   PO4 3699   6.010   0.894   3.929
  283POPC   GL1 3700   5.854   0.532   4.288
  283POPC   GL2 3701   5.602   0.225   4.324
  283POPC   C1A 3702   5.720   0.436   4.757
  283POPC   D2A 3703   5.611   0.675   5.127
  283POPC   C3A 3704   5.839   0.716   5.491
  283POPC   C4A 3705   5.856   0.474   5.906
  283POPC   C1B 3706   5.295   0.140   4.687
  283POPC   C2B 3707   5.432   0.162   5.100
  283POPC   C3B 3708   5.547   0.299   5.497
  283POPC   C4B 3709   5.406   0.239   5.904
  284POPC   NC3 3710   4.514   1.166   3.762
  284POPC   PO4 3711   3.889   0.899   4.009
  284POPC   GL1 3712   4.007   1.029   4.378
  284POPC   GL2 3713   4.082   1.394   4.463
  284POPC   C1A 3714   3.829   0.881   4.717
  284POPC   D2A 3715   3.846   1.120   5.078
  284POPC   C3A 3716   4.075   1.042   5.446
  284POPC   C4A 3717   3.963   0.884   5.842
  284POPC   C1B 3718   4.279   1.196   4.805
  284POPC   C2B 3719   4.451   1.309   5.198
  284POPC   C3B 3720   4.334   1.463   5.584
  284POPC   C4B 3721   4.231   1.571   5.994
  285POPC   NC3 3722   3.221   5.238   4.037
  285POPC   PO4 3723   2.664   5.361   3.824
  285POPC   GL1 3724   2.380   5.329   4.202
  285POPC   GL2 3725   2.307   5.680   4.316
  285POPC   C1A 3726   2.385   5.285   4.666
  285POPC   D2A 3727   2.508   5.449   5.056
  285POPC   C3A 3728   2.752   5.430   5.408
  285POPC   C4A 3729   2.732   5.397   5.829
  285POPC   C1B 3730   2.583   5.799   4.659
  285POPC   C2B 3731   2.693   5.924   5.102
  285POPC   C3B 3732   2.955   5.925   5.483
  285POPC   C4B 3733   3.192   5.634   5.739
  286POPC   NC3 3734   4.805   9.388   3.897
  286POPC   PO4 3735   5.136   9.856   4.055
  286POPC   GL1 3736   4.837   9.648   4.339
  286POPC   GL2 3737   4.891   9.269   4.383
  286POPC   C1A 3738   4.507   9.639   4.679
  286POPC   D2A 3739   4.551   9.562   5.140
  286POPC   C3A 3740   4.657   9.683   5.576
  286POPC   C4A 3741   4.625   9.688   6.044
  286POPC   C1B 3742   4.885   9.308   4.822
  286POPC   C2B 3743   4.949   9.068   5.180
  286POPC   C3B 3744   5.178   9.098   5.547
  286POPC   C4B 3745   4.904   9.304   5.833
  287POPC   NC3 3746   7.864   5.218   3.759
  287POPC   PO4 3747   7.910   5.812   3.900
  287POPC   GL1 3748   7.958   5.598   4.295
  287POPC   GL2 3749   8.257   5.683   4.431
  287POPC   C1A 3750   7.841   5.659   4.744
  287POPC   D2A 3751   8.016   5.588   5.199
  287POPC   C3A 3752   7.719   5.731   5.565
  287POPC   C4A 3753   7.473   5.577   5.953
  287POPC   C1B 3754   8.355   5.819   4.831
  287POPC   C2B 3755   8.532   5.715   5.225
  287POPC   C3B 3756   8.350   5.536   5.592
  287POPC   C4B 3757   8.112   5.756   5.873
  288POPC   NC3 3758   9.775   9.288   3.789
  288POPC   PO4 3759  10.461   9.066   3.861
  288POPC   GL1 3760  10.235   9.177   4.248
  288POPC   GL2 3761  10.043   9.523   4.237
  288POPC   C1A 3762  10.214   9.048   4.669
  288POPC   D2A 3763  10.171   9.207   5.070
  288POPC   C3A 3764  10.250   8.989   5.443
  288POPC   C4A 3765  10.187   9.103   5.877
  288POPC   C1B 3766  10.297   9.565   4.637
  288POPC   C2B 3767  10.311   9.711   5.080
  288POPC   C3B 3768  10.257   9.517   5.488
  288POPC   C4B 3769   9.960   9.579   5.812
  289POPC   NC3 3770   9.302   9.002   4.048
  289POPC   PO4 3771   9.398   9.606   3.797
  289POPC   GL1 3772   9.532   9.517   4.275
  289POPC   GL2 3773   9.548   9.788   4.507
  289POPC   C1A 3774   9.802   9.418   4.736
  289POPC   D2A 3775   9.802   9.509   5.227
  289POPC   C3A 3776   9.781   9.174   5.569
  289POPC   C4A 3777   9.718   9.195   6.076
  289POPC   C1B 3778   9.289   9.403   4.703
  289POPC   C2B 3779   9.098   9.199   5.057
  289POPC   C3B 3780   9.172   9.352   5.462
  289POPC   C4B 3781   9.431   9.472   5.750
  290POPC   NC3 3782   8.859   9.656   3.948
  290POPC   PO4 3783   8.641   8.999   4.029
  290POPC   GL1 3784   8.831   9.277   4.337
  290POPC   GL2 3785   8.519   9.432   4.328
  290POPC   C1A 3786   8.779   9.511   4.765
  290POPC   D2A 3787   8.740   9.540   5.237
  290POPC   C3A 3788   8.964   9.807   5.488
  290POPC   C4A 3789   9.030   9.731   5.915
  290POPC   C1B 3790   8.418   9.138   4.644
  290POPC   C2B 3791   8.593   9.022   5.046
  290POPC   C3B 3792   8.766   9.050   5.437
  290POPC   C4B 3793   8.721   9.349   5.755
  291POPC   NC3 3794   2.458   4.929   3.855
  291POPC   PO4 3795   3.129   4.793   4.009
  291POPC   GL1 3796   2.809   5.026   4.224
  291POPC   GL2 3797   2.559   4.853   4.374
  291POPC   C1A 3798   2.877   5.213   4.632
  291POPC   D2A 3799   2.828   5.040   5.051
  291POPC   C3A 3800   3.103   5.037   5.422
  291POPC   C4A 3801   3.082   5.005   5.875
  291POPC   C1B 3802   2.376   4.780   4.773
  291POPC   C2B 3803   2.368   4.923   5.185
  291POPC   C3B 3804   2.628   4.920   5.574
  291POPC   C4B 3805   2.505   4.986   5.997
  292POPC   NC3 3806  10.201   8.629   3.790
  292POPC   PO4 3807   9.567   8.744   3.750
  292POPC   GL1 3808   9.890   8.599   4.175
  292POPC   GL2 3809  10.240   8.653   4.287
  292POPC   C1A 3810   9.919   8.618   4.678
  292POPC   D2A 3811  10.067   8.692   5.054
  292POPC   C3A 3812   9.839   8.685   5.434
  292POPC   C4A 3813   9.748   8.739   5.849
  292POPC   C1B 3814  10.330   8.303   4.582
  292POPC   C2B 3815  10.475   8.350   4.998
  292POPC   C3B 3816  10.291   8.424   5.409
  292POPC   C4B 3817  10.222   8.589   5.774
  293POPC   NC3 3818   8.271   9.238   3.910
  293POPC   PO4 3819   7.693   9.499   3.727
  293POPC   GL1 3820   7.678   9.414   4.191
  293POPC   GL2 3821   7.987   9.286   4.311
  293POPC   C1A 3822   7.648   9.370   4.673
  293POPC   D2A 3823   7.814   9.462   5.107
  293POPC   C3A 3824   7.633   9.296   5.481
  293POPC   C4A 3825   7.485   9.440   5.846
  293POPC   C1B 3826   8.124   9.579   4.624
  293POPC   C2B 3827   8.308   9.470   5.010
  293POPC   C3B 3828   8.262   9.345   5.435
  293POPC   C4B 3829   7.995   9.549   5.744
  294POPC   NC3 3830   0.988   8.545   3.848
  294POPC   PO4 3831   1.474   8.200   3.977
  294POPC   GL1 3832   1.295   8.439   4.285
  294POPC   GL2 3833   1.262   8.801   4.194
  294POPC   C1A 3834   1.173   8.372   4.715
  294POPC   D2A 3835   1.007   8.561   5.093
  294POPC   C3A 3836   0.898   8.338   5.470
  294POPC   C4A 3837   0.955   8.604   5.816
  294POPC   C1B 3838   1.403   8.822   4.623
  294POPC   C2B 3839   1.515   8.639   5.003
  294POPC   C3B 3840   1.461   8.577   5.429
  294POPC   C4B 3841   1.440   8.739   5.828
  295POPC   NC3 3842   1.444   0.946   4.108
  295POPC   PO4 3843   1.098   1.415   3.741
  295POPC   GL1 3844   1.099   1.399   4.228
  295POPC   GL2 3845   1.118   1.121   4.422
  295POPC   C1A 3846   1.057   1.526   4.699
  295POPC   D2A 3847   0.776   1.507   5.070
  295POPC   C3A 3848   1.004   1.426   5.468
  295POPC   C4A 3849   1.002   1.446   5.918
  295POPC   C1B 3850   1.368   1.119   4.815
  295POPC   C2B 3851   1.457   1.272   5.248
  295POPC   C3B 3852   1.344   1.091   5.627
  295POPC   C4B 3853   1.218   0.853   5.931
  296POPC   NC3 3854   7.980   1.688   3.936
  296POPC   PO4 3855   7.416   1.623   4.122
  296POPC   GL1 3856   7.716   1.771   4.364
  296POPC   GL2 3857   7.766   2.118   4.238
  296POPC   C1A 3858   7.947   1.610   4.710
  296POPC   D2A 3859   7.983   1.424   5.121
  296POPC   C3A 3860   8.007   1.694   5.494
  296POPC   C4A 3861   7.778   1.899   5.795
  296POPC   C1B 3862   7.831   2.132   4.697
  296POPC   C2B 3863   8.011   1.971   5.072
  296POPC   C3B 3864   7.974   2.192   5.442
  296POPC   C4B 3865   8.054   2.364   5.822
  297POPC   NC3 3866   2.506   1.945   3.600
  297POPC   PO4 3867   3.015   2.044   4.021
  297POPC   GL1 3868   2.667   2.050   4.281
  297POPC   GL2 3869   2.480   1.769   4.339
  297POPC   C1A 3870   2.560   2.212   4.698
  297POPC   D2A 3871   2.727   2.360   5.087
  297POPC   C3A 3872   2.554   2.319   5.507
  297POPC   C4A 3873   2.546   2.320   5.978
  297POPC   C1B 3874   2.614   1.710   4.724
  297POPC   C2B 3875   2.593   1.860   5.132
  297POPC   C3B 3876   2.750   1.691   5.493
  297POPC   C4B 3877   2.736   1.840   5.868
  298POPC   NC3 3878  10.396   0.117   3.989
  298POPC   PO4 3879  10.210   9.908   3.895
  298POPC   GL1 3880  10.303  10.087   4.266
  298POPC   GL2 3881   9.978  10.214   4.258
  298POPC   C1A 3882  10.477  10.056   4.707
  298POPC   D2A 3883   0.121  10.171   5.129
  298POPC   C3A 3884  10.360  10.272   5.478
  298POPC   C4A 3885  10.361   9.933   5.777
  298POPC   C1B 3886   9.979   9.988   4.659
  298POPC   C2B 3887   9.976  10.104   5.082
  298POPC   C3B 3888   9.936   9.972   5.493
  298POPC   C4B 3889   9.910  10.279   5.824
  299POPC   NC3 3890   0.987   9.504   3.816
  299POPC   PO4 3891   0.785   8.929   3.966
  299POPC   GL1 3892   0.930   9.196   4.293
  299POPC   GL2 3893   1.229   9.395   4.292
  299POPC   C1A 3894   1.072   9.204   4.728
  299POPC   D2A 3895   1.343   9.138   5.066
  299POPC   C3A 3896   1.128   9.291   5.402
  299POPC   C4A 3897   1.047   9.092   5.776
  299POPC   C1B 3898   1.300   9.690   4.655
  299POPC   C2B 3899   1.307   9.897   5.072
  299POPC   C3B 3900   1.246   9.797   5.473
  299POPC   C4B 3901   1.278   9.538   5.825
  300POPC   NC3 3902   7.993   0.445   3.883
  300POPC   PO4 3903   8.498  10.464   3.933
  300POPC   GL1 3904   8.419   0.306   4.247
  300POPC   GL2 3905   8.185   0.585   4.331
  300POPC   C1A 3906   8.256   0.201   4.668
  300POPC   D2A 3907   8.160   0.420   5.036
  300POPC   C3A 3908   8.285   0.226   5.417
  300POPC   C4A 3909   8.086   0.090   5.768
  300POPC   C1B 3910   7.838   0.596   4.631
  300POPC   C2B 3911   7.662   0.493   5.063
  300POPC   C3B 3912   7.809   0.398   5.443
  300POPC   C4B 3913   7.937   0.709   5.718
  301POPC   NC3 3914   4.069   8.772   3.819
  301POPC   PO4 3915   4.411   8.235   3.727
  301POPC   GL1 3916   4.349   8.475   4.152
  301POPC   GL2 3917   4.048   8.623   4.289
  301POPC   C1A 3918   4.456   8.566   4.600
  301POPC   D2A 3919   4.337   8.714   5.014
  301POPC   C3A 3920   4.385   8.540   5.433
  301POPC   C4A 3921   4.303   8.792   5.745
  301POPC   C1B 3922   3.970   8.816   4.663
  301POPC   C2B 3923   3.778   8.612   5.008
  301POPC   C3B 3924   3.907   8.689   5.420
  301POPC   C4B 3925   3.914   8.472   5.837
  302POPC   NC3 3926   9.969   3.673   3.976
  302POPC   PO4 3927   0.039   3.307   3.845
  302POPC   GL1 3928  10.405   3.519   4.260
  302POPC   GL2 3929  10.061   3.429   4.408
  302POPC   C1A 3930  10.424   3.638   4.732
  302POPC   D2A 3931  10.245   3.503   5.149
  302POPC   C3A 3932  10.341   3.673   5.561
  302POPC   C4A 3933  10.448   3.384   5.931
  302POPC   C1B 3934   9.908   3.709   4.746
  302POPC   C2B 3935  10.008   3.941   5.125
  302POPC   C3B 3936   9.835   3.727   5.479
  302POPC   C4B 3937   9.981   3.310   5.610
  303POPC   NC3 3938   0.898   6.356   3.723
  303POPC   PO4 3939   1.471   6.123   3.882
  303POPC   GL1 3940   1.421   6.252   4.279
  303POPC   GL2 3941   1.150   6.504   4.240
  303POPC   C1A 3942   1.457   6.358   4.692
  303POPC   D2A 3943   1.335   6.121   5.032
  303POPC   C3A 3944   1.402   6.294   5.406
  303POPC   C4A 3945   1.359   6.092   5.776
  303POPC   C1B 3946   0.973   6.541   4.683
  303POPC   C2B 3947   0.994   6.489   5.155
  303POPC   C3B 3948   0.969   6.496   5.642
  303POPC   C4B 3949   0.814   6.623   6.092
  304POPC   NC3 3950  10.002   5.895   4.065
  304POPC   PO4 3951   0.045   5.644   3.775
  304POPC   GL1 3952  10.351   5.513   4.256
  304POPC   GL2 3953  10.032   5.463   4.299
  304POPC   C1A 3954  10.227   5.691   4.711
  304POPC   D2A 3955   0.016   5.850   5.006
  304POPC   C3A 3956  10.364   5.654   5.360
  304POPC   C4A 3957  10.485   5.590   5.749
  304POPC   C1B 3958   9.782   5.414   4.683
  304POPC   C2B 3959   9.924   5.489   5.095
  304POPC   C3B 3960   9.835   5.569   5.498
  304POPC   C4B 3961  10.033   5.842   5.681
  305POPC   NC3 3962   8.368   4.769   3.894
  305POPC   PO4 3963   9.071   4.719   4.014
  305POPC   GL1 3964   8.794   4.687   4.331
  305POPC   GL2 3965   8.765   5.052   4.321
  305POPC   C1A 3966   8.874   4.595   4.762
  305POPC   D2A 3967   8.762   4.786   5.166
  305POPC   C3A 3968   8.767   4.827   5.591
  305POPC   C4A 3969   8.910   4.530   5.855
  305POPC   C1B 3970   8.596   5.009   4.747
  305POPC   C2B 3971   8.427   5.167   5.191
  305POPC   C3B 3972   8.312   5.032   5.607
  305POPC   C4B 3973   8.374   5.195   6.024
  306POPC   NC3 3974   1.075   2.955   3.733
  306POPC   PO4 3975   0.912   2.321   4.123
  306POPC   GL1 3976   0.971   2.469   4.447
  306POPC   GL2 3977   1.290   2.385   4.495
  306POPC   C1A 3978   0.778   2.472   4.788
  306POPC   D2A 3979   0.855   2.705   5.105
  306POPC   C3A 3980   1.085   2.586   5.450
  306POPC   C4A 3981   0.802   2.375   5.623
  306POPC   C1B 3982   1.279   2.445   4.946
  306POPC   C2B 3983   1.337   2.861   5.099
  306POPC   C3B 3984   1.379   3.019   5.479
  306POPC   C4B 3985   1.300   2.931   5.904
  307POPC   NC3 3986   8.003   8.153   3.891
  307POPC   PO4 3987   7.634   7.492   3.832
  307POPC   GL1 3988   7.840   7.726   4.211
  307POPC   GL2 3989   7.818   8.041   4.360
  307POPC   C1A 3990   8.071   7.709   4.646
  307POPC   D2A 3991   8.029   7.580   5.079
  307POPC   C3A 3992   8.123   7.790   5.460
  307POPC   C4A 3993   8.272   7.824   5.876
  307POPC   C1B 3994   7.682   8.046   4.774
  307POPC   C2B 3995   7.687   7.961   5.182
  307POPC   C3B 3996   7.629   7.799   5.558
  307POPC   C4B 3997   7.819   8.095   5.747
  308POPC   NC3 3998   4.326   7.830   3.913
  308POPC   PO4 3999   3.827   8.379   3.878
  308POPC   GL1 4000   3.954   8.124   4.245
  308POPC   GL2 4001   4.045   7.764   4.313
  308POPC   C1A 4002   4.020   8.277   4.669
  308POPC   D2A 4003   4.188   8.244   5.065
  308POPC   C3A 4004   4.063   8.153   5.478
  308POPC   C4A 4005   4.166   8.059   5.949
  308POPC   C1B 4006   4.224   7.805   4.752
  308POPC   C2B 4007   4.236   7.746   5.181
  308POPC   C3B 4008   4.341   7.739   5.600
  308POPC   C4B 4009   3.965   7.536   5.760
  309POPC   NC3 4010   0.809  10.218   3.907
  309POPC   PO4 4011   1.283   9.796   3.989
  309POPC   GL1 4012   1.049   9.980   4.298
  309POPC   GL2 4013   1.117  10.363   4.319
  309POPC   C1A 4014   0.985  10.086   4.725
  309POPC   D2A 4015   0.819  10.140   5.113
  309POPC   C3A 4016   0.747   9.843   5.417
  309POPC   C4A 4017   0.880   9.837   5.820
  309POPC   C1B 4018   1.193   0.094   4.742
  309POPC   C2B 4019   1.124   0.054   5.209
  309POPC   C3B 4020   1.046  10.268   5.573
  309POPC   C4B 4021   1.318  10.111   5.911
  310POPC   NC3 4022   3.402   8.807   3.894
  310POPC   PO4 4023   3.171   8.296   3.610
  310POPC   GL1 4024   3.409   8.394   4.167
  310POPC   GL2 4025   3.550   8.743   4.364
  310POPC   C1A 4026   3.502   8.320   4.623
  310POPC   D2A 4027   3.309   8.316   5.036
  310POPC   C3A 4028   3.531   8.360   5.406
  310POPC   C4A 4029   3.348   8.411   5.789
  310POPC   C1B 4030   3.303   8.784   4.773
  310POPC   C2B 4031   3.262   8.821   5.206
  310POPC   C3B 4032   3.363   9.040   5.544
  310POPC   C4B 4033   3.595   8.846   5.790
  311POPC   NC3 4034   8.672   2.912   3.924
  311POPC   PO4 4035   9.062   2.373   3.907
  311POPC   GL1 4036   8.898   2.500   4.287
  311POPC   GL2 4037   8.550   2.569   4.285
  311POPC   C1A 4038   8.795   2.390   4.710
  311POPC   D2A 4039   9.059   2.466   5.068
  311POPC   C3A 4040   8.947   2.482   5.492
  311POPC   C4A 4041   8.814   2.470   5.948
  311POPC   C1B 4042   8.567   2.835   4.676
  311POPC   C2B 4043   8.591   2.688   5.135
  311POPC   C3B 4044   8.603   2.837   5.579
  311POPC   C4B 4045   8.344   2.816   5.921
  312POPC   NC3 4046   8.857   1.967   3.801
  312POPC   PO4 4047   8.396   1.476   3.910
  312POPC   GL1 4048   8.382   1.800   4.252
  312POPC   GL2 4049   8.673   2.030   4.298
  312POPC   C1A 4050   8.317   2.006   4.654
  312POPC   D2A 4051   8.479   2.168   5.028
  312POPC   C3A 4052   8.435   1.962   5.399
  312POPC   C4A 4053   8.484   2.325   5.601
  312POPC   C1B 4054   8.818   1.837   4.709
  312POPC   C2B 4055   8.937   1.973   5.150
  312POPC   C3B 4056   8.898   1.979   5.598
  312POPC   C4B 4057   9.012   1.751   5.969
  313POPC   NC3 4058   7.899   4.269   4.073
  313POPC   PO4 4059   8.450   4.350   3.695
  313POPC   GL1 4060   8.403   4.372   4.189
  313POPC   GL2 4061   8.616   4.137   4.293
  313POPC   C1A 4062   8.415   4.403   4.668
  313POPC   D2A 4063   8.610   4.287   5.068
  313POPC   C3A 4064   8.499   4.425   5.486
  313POPC   C4A 4065   8.412   4.180   5.809
  313POPC   C1B 4066   8.892   4.084   4.640
  313POPC   C2B 4067   9.025   3.992   5.038
  313POPC   C3B 4068   8.928   4.161   5.451
  313POPC   C4B 4069   8.937   4.014   5.815
  314POPC   NC3 4070   3.483   8.035   3.825
  314POPC   PO4 4071   2.929   8.285   4.101
  314POPC   GL1 4072   3.146   7.934   4.284
  314POPC   GL2 4073   3.498   7.873   4.295
  314POPC   C1A 4074   3.245   7.895   4.743
  314POPC   D2A 4075   3.280   7.740   5.148
  314POPC   C3A 4076   3.253   7.957   5.539
  314POPC   C4A 4077   2.951   8.084   5.803
  314POPC   C1B 4078   3.728   7.856   4.668
  314POPC   C2B 4079   3.734   8.007   5.051
  314POPC   C3B 4080   3.715   7.793   5.415
  314POPC   C4B 4081   3.690   8.020   5.798
  315POPC   NC3 4082   2.794   8.027   3.749
  315POPC   PO4 4083   2.280   8.453   3.941
  315POPC   GL1 4084   2.460   8.293   4.303
  315POPC   GL2 4085   2.554   7.935   4.217
  315POPC   C1A 4086   2.400   8.181   4.721
  315POPC   D2A 4087   2.433   8.310   5.127
  315POPC   C3A 4088   2.448   8.113   5.455
  315POPC   C4A 4089   2.205   8.033   5.781
  315POPC   C1B 4090   2.768   7.872   4.611
  315POPC   C2B 4091   2.860   8.044   5.031
  315POPC   C3B 4092   2.816   7.793   5.376
  315POPC   C4B 4093   2.608   7.724   5.755
  316POPC   NC3 4094   0.321   2.923   3.799
  316POPC   PO4 4095   0.806   2.553   3.669
  316POPC   GL1 4096   0.716   2.769   4.098
  316POPC   GL2 4097   0.418   2.639   4.252
  316POPC   C1A 4098   0.702   2.907   4.549
  316POPC   D2A 4099   0.429   2.928   4.933
  316POPC   C3A 4100   0.463   2.899   5.376
  316POPC   C4A 4101   0.618   2.803   5.789
  316POPC   C1B 4102   0.276   2.506   4.682
  316POPC   C2B 4103   0.399   2.412   5.142
  316POPC   C3B 4104   0.289   2.474   5.586
  316POPC   C4B 4105   0.162   2.520   6.020
  317POPC   NC3 4106   2.054   2.648   3.887
  317POPC   PO4 4107   1.538   2.183   4.058
  317POPC   GL1 4108   1.720   2.544   4.285
  317POPC   GL2 4109   2.029   2.665   4.389
  317POPC   C1A 4110   1.651   2.700   4.719
  317POPC   D2A 4111   1.771   2.533   5.147
  317POPC   C3A 4112   1.606   2.549   5.570
  317POPC   C4A 4113   1.774   2.911   5.765
  317POPC   C1B 4114   2.125   2.473   4.772
  317POPC   C2B 4115   2.286   2.641   5.132
  317POPC   C3B 4116   2.137   2.623   5.523
  317POPC   C4B 4117   2.082   2.514   5.913
  318POPC   NC3 4118  10.225   1.917   3.846
  318POPC   PO4 4119   0.063   2.546   3.883
  318POPC   GL1 4120   0.025   2.153   4.225
  318POPC   GL2 4121  10.170   1.999   4.355
  318POPC   C1A 4122   0.044   2.045   4.711
  318POPC   D2A 4123  10.416   1.782   5.096
  318POPC   C3A 4124  10.235   1.920   5.498
  318POPC   C4A 4125  10.289   2.356   5.648
  318POPC   C1B 4126   9.973   1.933   4.802
  318POPC   C2B 4127   9.903   2.174   5.198
  318POPC   C3B 4128   9.799   2.135   5.656
  318POPC   C4B 4129   9.986   1.904   5.982
  319POPC   NC3 4130   7.833   6.276   3.879
  319POPC   PO4 4131   8.191   6.796   3.599
  319POPC   GL1 4132   8.169   6.836   4.169
  319POPC   GL2 4133   8.171   6.478   4.249
  319POPC   C1A 4134   7.977   6.810   4.603
  319POPC   D2A 4135   7.921   6.542   4.963
  319POPC   C3A 4136   8.110   6.589   5.381
  319POPC   C4A 4137   7.944   6.780   5.768
  319POPC   C1B 4138   8.035   6.166   4.590
  319POPC   C2B 4139   7.936   6.053   5.041
  319POPC   C3B 4140   8.154   6.035   5.435
  319POPC   C4B 4141   7.980   6.251   5.767
  320POPC   NC3 4142   5.040  10.248   3.829
  320POPC   PO4 4143   4.470   0.090   3.920
  320POPC   GL1 4144   4.600  10.401   4.325
  320POPC   GL2 4145   4.916  10.214   4.345
  320POPC   C1A 4146   4.740  10.422   4.766
  320POPC   D2A 4147   4.973  10.442   5.124
  320POPC   C3A 4148   4.825  10.143   5.415
  320POPC   C4A 4149   4.619  10.180   5.818
  320POPC   C1B 4150   4.905   9.940   4.751
  320POPC   C2B 4151   5.044   9.722   5.110
  320POPC   C3B 4152   5.237   9.767   5.492
  320POPC   C4B 4153   5.060   9.921   5.867
  321POPC   NC3 4154   7.709   2.737   3.716
  321POPC   PO4 4155   8.231   3.066   3.901
  321POPC   GL1 4156   8.131   2.898   4.299
  321POPC   GL2 4157   7.835   2.718   4.234
  321POPC   C1A 4158   8.158   2.552   4.621
  321POPC   D2A 4159   8.053   2.475   5.036
  321POPC   C3A 4160   8.136   2.692   5.431
  321POPC   C4A 4161   7.835   2.819   5.795
  321POPC   C1B 4162   7.653   2.613   4.648
  321POPC   C2B 4163   7.529   2.397   5.025
  321POPC   C3B 4164   7.639   2.559   5.403
  321POPC   C4B 4165   7.547   2.387   5.787
  322POPC   NC3 4166   3.769   2.865   4.000
  322POPC   PO4 4167   3.249   2.611   4.044
  322POPC   GL1 4168   3.438   2.448   4.444
  322POPC   GL2 4169   3.762   2.651   4.451
  322POPC   C1A 4170   3.729   2.301   4.783
  322POPC   D2A 4171   3.909   2.662   4.998
  322POPC   C3A 4172   3.670   2.718   5.397
  322POPC   C4A 4173   3.427   2.404   5.667
  322POPC   C1B 4174   3.448   2.927   4.634
  322POPC   C2B 4175   3.253   3.092   4.998
  322POPC   C3B 4176   3.063   3.080   5.408
  322POPC   C4B 4177   3.273   2.908   5.720
  323POPC   NC3 4178   1.118   3.775   3.898
  323POPC   PO4 4179   1.392   4.424   3.881
  323POPC   GL1 4180   1.158   4.228   4.199
  323POPC   GL2 4181   0.949   3.973   4.350
  323POPC   C1A 4182   1.318   4.322   4.591
  323POPC   D2A 4183   1.222   4.512   4.977
  323POPC   C3A 4184   1.201   4.317   5.380
  323POPC   C4A 4185   1.122   4.417   5.799
  323POPC   C1B 4186   0.872   4.163   4.747
  323POPC   C2B 4187   1.223   3.999   4.982
  323POPC   C3B 4188   1.481   3.884   5.326
  323POPC   C4B 4189   1.289   3.929   5.742
  324POPC   NC3 4190   9.493   8.350   3.991
  324POPC   PO4 4191   9.742   9.073   4.181
  324POPC   GL1 4192   9.512   8.811   4.448
  324POPC   GL2 4193   9.509   8.470   4.467
  324POPC   C1A 4194   9.403   8.891   4.788
  324POPC   D2A 4195   9.641   9.024   5.089
  324POPC   C3A 4196   9.368   8.887   5.390
  324POPC   C4A 4197   9.302   8.958   5.770
  324POPC   C1B 4198   9.377   8.369   4.776
  324POPC   C2B 4199   9.497   8.494   5.103
  324POPC   C3B 4200   9.430   8.376   5.493
  324POPC   C4B 4201   9.351   8.438   5.865
  325POPC   NC3 4202   5.705   1.289   3.891
  325POPC   PO4 4203   5.212   1.073   4.186
  325POPC   GL1 4204   5.640   0.984   4.323
  325POPC   GL2 4205   5.955   1.217   4.332
  325POPC   C1A 4206   5.836   0.935   4.738
  325POPC   D2A 4207   6.005   1.246   5.030
  325POPC   C3A 4208   5.844   1.236   5.461
  325POPC   C4A 4209   5.931   0.998   5.888
  325POPC   C1B 4210   5.608   1.392   4.620
  325POPC   C2B 4211   5.458   1.293   5.048
  325POPC   C3B 4212   5.325   1.126   5.467
  325POPC   C4B 4213   5.518   1.297   5.842
  326POPC   NC3 4214  10.370   1.119   3.873
  326POPC   PO4 4215   0.162   1.767   3.768
  326POPC   GL1 4216  10.434   1.576   4.180
  326POPC   GL2 4217  10.262   1.230   4.328
  326POPC   C1A 4218  10.321   1.599   4.626
  326POPC   D2A 4219  10.295   1.301   4.947
  326POPC   C3A 4220  10.171   1.402   5.367
  326POPC   C4A 4221  10.264   1.497   5.801
  326POPC   C1B 4222  10.124   0.920   4.640
  326POPC   C2B 4223  10.095   0.667   5.015
  326POPC   C3B 4224   9.986   0.738   5.424
  326POPC   C4B 4225  10.137   1.021   5.732
  327POPC   NC3 4226   1.090   1.880   4.062
  327POPC   PO4 4227   1.610   1.387   4.135
  327POPC   GL1 4228   1.565   1.540   4.479
  327POPC   GL2 4229   1.398   1.858   4.462
  327POPC   C1A 4230   1.572   1.607   4.887
  327POPC   D2A 4231   1.233   1.767   5.150
  327POPC   C3A 4232   1.321   2.079   5.477
  327POPC   C4A 4233   1.394   1.726   5.737
  327POPC   C1B 4234   1.060   2.028   4.743
  327POPC   C2B 4235   0.891   2.150   5.157
  327POPC   C3B 4236   0.837   1.894   5.492
  327POPC   C4B 4237   0.995   1.999   5.895
  328POPC   NC3 4238   9.297   3.547   3.885
  328POPC   PO4 4239   9.879   3.205   3.944
  328POPC   GL1 4240   9.561   3.291   4.265
  328POPC   GL2 4241   9.568   3.644   4.335
  328POPC   C1A 4242   9.523   3.323   4.731
  328POPC   D2A 4243   9.764   3.294   5.105
  328POPC   C3A 4244   9.494   3.240   5.451
  328POPC   C4A 4245   9.586   3.083   5.865
  328POPC   C1B 4246   9.139   3.598   4.554
  328POPC   C2B 4247   9.059   3.479   5.010
  328POPC   C3B 4248   8.974   3.624   5.413
  328POPC   C4B 4249   9.237   3.564   5.740
  329POPC   NC3 4250   9.484   2.170   3.954
  329POPC   PO4 4251   9.082   1.587   4.011
  329POPC   GL1 4252   9.170   1.941   4.275
  329POPC   GL2 4253   9.496   1.832   4.366
  329POPC   C1A 4254   9.228   2.146   4.686
  329POPC   D2A 4255   9.439   2.046   5.049
  329POPC   C3A 4256   9.370   2.232   5.413
  329POPC   C4A 4257   9.269   2.210   5.845
  329POPC   C1B 4258   9.349   1.638   4.760
  329POPC   C2B 4259   9.512   1.570   5.206
  329POPC   C3B 4260   9.374   1.763   5.600
  329POPC   C4B 4261   9.500   1.767   6.082
  330POPC   NC3 4262   0.283   7.105   3.841
  330POPC   PO4 4263   0.039   6.521   3.880
  330POPC   GL1 4264   0.221   6.842   4.255
  330POPC   GL2 4265   0.352   7.182   4.357
  330POPC   C1A 4266   0.228   6.824   4.711
  330POPC   D2A 4267   0.468   6.983   5.075
  330POPC   C3A 4268   0.219   7.141   5.418
  330POPC   C4A 4269   0.373   7.076   5.820
  330POPC   C1B 4270   0.693   7.263   4.689
  330POPC   C2B 4271   0.883   7.364   5.084
  330POPC   C3B 4272   0.680   7.375   5.472
  330POPC   C4B 4273   0.661   7.504   5.874
  331POPC   NC3 4274   1.496   4.979   3.889
  331POPC   PO4 4275   2.120   4.780   4.134
  331POPC   GL1 4276   2.017   5.029   4.431
  331POPC   GL2 4277   1.690   5.005   4.373
  331POPC   C1A 4278   1.964   5.053   4.864
  331POPC   D2A 4279   2.028   5.355   5.139
  331POPC   C3A 4280   2.244   5.260   5.528
  331POPC   C4A 4281   2.010   5.090   5.888
  331POPC   C1B 4282   1.679   4.669   4.689
  331POPC   C2B 4283   1.611   4.784   5.125
  331POPC   C3B 4284   1.896   4.907   5.399
  331POPC   C4B 4285   2.180   4.679   5.609
  332POPC   NC3 4286   1.093   7.940   3.942
  332POPC   PO4 4287   0.624   7.421   3.995
  332POPC   GL1 4288   0.759   7.787   4.293
  332POPC   GL2 4289   1.091   7.954   4.424
  332POPC   C1A 4290   0.776   7.771   4.743
  332POPC   D2A 4291   1.025   7.983   5.011
  332POPC   C3A 4292   0.908   7.814   5.367
  332POPC   C4A 4293   1.071   7.812   5.750
  332POPC   C1B 4294   1.470   7.973   4.633
  332POPC   C2B 4295   1.543   8.122   5.041
  332POPC   C3B 4296   1.345   8.088   5.424
  332POPC   C4B 4297   1.357   8.234   5.847
  333POPC   NC3 4298  10.073   6.472   3.952
  333POPC   PO4 4299  10.434   5.989   4.199
  333POPC   GL1 4300  10.152   6.261   4.404
  333POPC   GL2 4301  10.291   6.588   4.382
  333POPC   C1A 4302  10.070   6.273   4.819
  333POPC   D2A 4303  10.059   6.019   5.181
  333POPC   C3A 4304  10.399   6.156   5.436
  333POPC   C4A 4305  10.236   6.260   5.810
  333POPC   C1B 4306  10.178   6.802   4.719
  333POPC   C2B 4307  10.026   6.707   5.124
  333POPC   C3B 4308  10.191   6.643   5.485
  333POPC   C4B 4309  10.471   6.716   5.811
  334POPC   NC3 4310   3.460   3.713   3.862
  334POPC   PO4 4311   3.948   3.317   3.932
  334POPC   GL1 4312   3.654   3.281   4.290
  334POPC   GL2 4313   3.296   3.436   4.288
  334POPC   C1A 4314   3.599   3.418   4.721
  334POPC   D2A 4315   3.454   3.561   5.113
  334POPC   C3A 4316   3.540   3.241   5.416
  334POPC   C4A 4317   3.642   3.245   5.841
  334POPC   C1B 4318   3.069   3.504   4.697
  334POPC   C2B 4319   2.912   3.466   5.119
  334POPC   C3B 4320   3.129   3.567   5.509
  334POPC   C4B 4321   3.563   3.714   5.613
  335POPC   NC3 4322  10.339   5.205   3.863
  335POPC   PO4 4323  10.255   4.476   3.818
  335POPC   GL1 4324  10.279   4.671   4.225
  335POPC   GL2 4325  10.251   4.994   4.299
  335POPC   C1A 4326  10.195   4.643   4.672
  335POPC   D2A 4327  10.102   4.457   5.059
  335POPC   C3A 4328  10.138   4.663   5.412
  335POPC   C4A 4329   9.955   4.788   5.762
  335POPC   C1B 4330  10.206   5.158   4.665
  335POPC   C2B 4331  10.091   5.016   5.056
  335POPC   C3B 4332  10.238   5.158   5.450
  335POPC   C4B 4333  10.115   5.275   5.826
  336POPC   NC3 4334   6.372   1.195   3.802
  336POPC   PO4 4335   6.743   1.762   3.607
  336POPC   GL1 4336   6.662   1.522   4.104
  336POPC   GL2 4337   6.555   1.160   4.263
  336POPC   C1A 4338   6.736   1.459   4.612
  336POPC   D2A 4339   6.536   1.285   4.989
  336POPC   C3A 4340   6.653   1.343   5.412
  336POPC   C4A 4341   6.672   1.117   5.834
  336POPC   C1B 4342   6.340   0.968   4.635
  336POPC   C2B 4343   6.291   0.793   5.059
  336POPC   C3B 4344   6.299   0.980   5.468
  336POPC   C4B 4345   6.253   1.365   5.742
  337POPC   NC3 4346   2.371   9.664   3.752
  337POPC   PO4 4347   2.757   9.162   3.892
  337POPC   GL1 4348   2.895   9.436   4.366
  337POPC   GL2 4349   3.010   9.188   4.586
  337POPC   C1A 4350   2.793   9.602   4.777
  337POPC   D2A 4351   2.901   9.818   5.145
  337POPC   C3A 4352   2.644   9.581   5.446
  337POPC   C4A 4353   2.478   9.687   5.840
  337POPC   C1B 4354   2.760   9.068   4.882
  337POPC   C2B 4355   2.790   9.054   5.286
  337POPC   C3B 4356   2.621   9.116   5.635
  337POPC   C4B 4357   2.964   9.228   5.841
  338POPC   NC3 4358   6.454   2.553   3.637
  338POPC   PO4 4359   6.432   3.110   4.023
  338POPC   GL1 4360   6.460   2.959   4.434
  338POPC   GL2 4361   6.404   2.611   4.361
  338POPC   C1A 4362   6.499   2.917   4.881
  338POPC   D2A 4363   6.202   2.641   5.111
  338POPC   C3A 4364   6.199   2.774   5.544
  338POPC   C4A 4365   6.472   2.908   5.945
  338POPC   C1B 4366   6.615   2.465   4.696
  338POPC   C2B 4367   6.608   2.330   5.096
  338POPC   C3B 4368   6.651   2.574   5.434
  338POPC   C4B 4369   6.562   2.436   5.831
  339POPC   NC3 4370   1.305   1.013   3.612
  339POPC   PO4 4371   1.286   0.477   4.092
  339POPC   GL1 4372   1.218   0.609   4.459
  339POPC   GL2 4373   1.574   0.561   4.533
  339POPC   C1A 4374   0.953   0.797   4.761
  339POPC   D2A 4375   1.049   0.935   5.192
  339POPC   C3A 4376   1.036   0.606   5.512
  339POPC   C4A 4377   0.792   0.217   5.578
  339POPC   C1B 4378   1.379   0.580   4.936
  339POPC   C2B 4379   1.534   0.759   5.268
  339POPC   C3B 4380   1.536   0.571   5.618
  339POPC   C4B 4381   1.403   0.132   5.662
  340POPC   NC3 4382   1.840   1.766   3.992
  340POPC   PO4 4383   2.328   2.247   3.909
  340POPC   GL1 4384   2.151   2.159   4.363
  340POPC   GL2 4385   1.917   1.927   4.434
  340POPC   C1A 4386   2.157   1.958   4.849
  340POPC   D2A 4387   2.138   2.155   5.238
  340POPC   C3A 4388   2.293   1.897   5.565
  340POPC   C4A 4389   2.260   1.895   6.015
  340POPC   C1B 4390   1.709   2.187   4.699
  340POPC   C2B 4391   1.632   2.067   5.068
  340POPC   C3B 4392   1.772   1.804   5.372
  340POPC   C4B 4393   1.858   2.073   5.714
  341POPC   NC3 4394   8.537   6.729   3.893
  341POPC   PO4 4395   9.148   6.890   3.881
  341POPC   GL1 4396   8.926   6.985   4.303
  341POPC   GL2 4397   8.733   7.277   4.442
  341POPC   C1A 4398   8.513   6.830   4.526
  341POPC   D2A 4399   8.370   6.770   4.938
  341POPC   C3A 4400   8.441   6.973   5.319
  341POPC   C4A 4401   8.435   6.955   5.764
  341POPC   C1B 4402   8.806   7.092   4.819
  341POPC   C2B 4403   8.985   7.090   5.139
  341POPC   C3B 4404   8.935   7.315   5.413
  341POPC   C4B 4405   8.877   7.185   5.789
  342W        W 4406   1.291   4.701  10.483
  343W        W 4407   6.559   2.885   1.426
  344W        W 4408   6.553   8.573   9.111
  345W        W 4409   2.640   8.752  11.372
  346W        W 4410   6.230   6.130   1.315
  347W        W 4411   8.632   1.963   1.221
  348W        W 4412   3.756   7.514  11.555
  349W        W 4413   3.863   1.824   1.718
  350W        W 4414   6.952   3.260   0.065
  351W        W 4415   3.753   7.471   2.328
  352W        W 4416   7.623   7.457   3.076
  353W        W 4417   7.254   2.906  10.939
  354W        W 4418   6.624   6.062   2.521
  355W        W 4419  10.429   4.077   2.345
  356W        W 4420   0.727   2.877  11.586
  357W        W 4421   2.104   0.955  11.405
  358W        W 4422   0.780   2.628   8.764
  359W        W 4423   3.844   2.349  10.515
  360W        W 4424   7.598   0.746  11.926
  361W        W 4425   7.984   6.279  10.358
  362W        W 4426   9.612   5.033   1.977
  363W        W 4427   2.662   7.888   2.256
  364W        W 4428   3.766   6.443  10.491
  365W        W 4429   3.662   8.970   2.270
  366W        W 4430   5.593   9.694   1.310
  367W        W 4431   2.565   8.901   9.203
  368W        W 4432   4.954   4.819   1.673
  369W        W 4433   6.098   8.008   0.893
  370W        W 4434   9.193   3.307   9.348
  371W        W 4435  10.267   4.676   1.618
  372W        W 4436   8.586   9.393   3.197
  373W        W 4437   9.811   1.689  10.517
  374W        W 4438   4.630   4.391  10.877
  375W        W 4439   2.844   9.546   0.894
  376W        W 4440   3.920   8.612  11.471
  377W        W 4441  10.438   0.158   9.911
  378W        W 4442   8.538   8.326  10.381
  379W        W 4443   2.266   4.346   3.258
  380W        W 4444   3.347   9.672   0.983
  381W        W 4445   1.127   4.460   1.797
  382W        W 4446   6.144   8.563  10.933
  383W        W 4447   1.668   6.050   3.402
  384W        W 4448   1.534   9.246   0.397
  385W        W 4449   0.422   1.199   3.112
  386W        W 4450   2.192   7.817  10.984
  387W        W 4451   6.790   9.037  10.325
  388W        W 4452   3.062   7.702  11.932
  389W        W 4453   6.097   7.784  10.629
  390W        W 4454   2.586   5.226   2.850
  391W        W 4455   6.640   8.451  11.098
  392W        W 4456   9.068   9.526   3.071
  393W        W 4457   4.640  10.254   0.040
  394W        W 4458   7.308   6.235   3.922
  395W        W 4459   3.577   4.128   2.683
  396W        W 4460   1.507   9.634   3.541
  397W        W 4461  10.207   9.583   0.151
  398W        W 4462   3.734   7.710   9.944
  399W        W 4463   7.510  10.480   1.385
  400W        W 4464   5.112   4.563   8.231
  401W        W 4465   0.313   9.554  10.116
  402W        W 4466   9.686   9.455   2.445
  403W        W 4467   6.043   3.973   1.266
  404W        W 4468   7.209   1.301  10.337
  405W        W 4469   8.390   7.649   0.769
  406W        W 4470   3.784   0.258  10.073
  407W        W 4471   9.309   4.404   3.078
  408W        W 4472   2.368   3.257   9.355
  409W        W 4473   7.899   4.492  10.888
  410W        W 4474   7.966   7.603   3.443
  411W        W 4475   5.635   6.987   0.423
  412W        W 4476   9.087   9.157   2.154
  413W        W 4477   5.603   7.310   1.867
  414W        W 4478   8.411   6.242   8.606
  415W        W 4479   1.094   9.220   9.649
  416W        W 4480   8.068  10.167  10.178
  417W        W 4481   1.917  10.417   3.289
  418W        W 4482   7.912   0.944   2.276
  419W        W 4483   6.857   4.670   0.044
  420W        W 4484   8.842   3.493   2.405
  421W        W 4485   1.682   2.027   2.281
  422W        W 4486   9.677   8.348   0.788
  423W        W 4487   5.462   7.494  10.005
  424W        W 4488   1.338   7.450  10.923
  425W        W 4489   6.056   4.760  11.445
  426W        W 4490   0.927   9.553   0.421
  427W        W 4491   1.371   9.896   2.397
  428W        W 4492   4.129   4.507   0.204
  429W        W 4493   4.085   9.467   9.870
  430W        W 4494   4.822   3.214  10.305
  431W        W 4495   5.207   7.933   8.925
  432W        W 4496   6.049   9.992   2.718
  433W        W 4497   8.865   4.809  11.816
  434W        W 4498   0.842   7.539   3.101
  435W        W 4499   0.843   4.963   2.633
  436W        W 4500   4.362  10.404  10.001
  437W        W 4501   3.849   0.439  11.452
  438W        W 4502   0.014   6.987  11.315
  439W        W 4503   8.436   3.131   8.801
  440W        W 4504   3.593   6.418   3.658
  441W        W 4505   4.259   8.470   0.748
  442W        W 4506   4.262   8.834  11.108
  443W        W 4507   1.934   5.617   3.334
  444W        W 4508   7.602   8.585   1.271
  445W        W 4509   5.024   7.212   4.061
  446W        W 4510   6.451   9.797  11.490
  447W        W 4511   7.164   0.887   9.189
  448W        W 4512   4.785  10.456  10.589
  449W        W 4513   9.008   5.620   3.463
  450W        W 4514   1.664   6.649   9.329
  451W        W 4515   8.433   4.022   2.203
  452W        W 4516   8.997   6.575   1.463
  453W        W 4517   7.463   7.696   2.660
  454W        W 4518   7.039   5.964   3.117
  455W        W 4519   1.853   6.604  10.856
  456W        W 4520   8.709   3.406   0.072
  457W        W 4521   7.171   0.804   1.011
  458W        W 4522   1.908   5.279   9.114
  459W        W 4523   9.043   5.475  10.118
  460W        W 4524  10.247   5.010   0.727
  461W        W 4525   2.831   4.704   3.578
  462W        W 4526   0.976   7.004   1.321
  463W        W 4527   0.889   4.440  10.297
  464W        W 4528   6.981   4.905   0.991
  465W        W 4529   6.413   2.046   9.533
  466W        W 4530   7.506   0.505  11.294
  467W        W 4531   5.636   8.490  10.867
  468W        W 4532   3.765   7.074   9.137
  469W        W 4533  10.128   7.584  10.398
  470W        W 4534   9.347   1.837  10.356
  471W        W 4535   1.606   1.949   1.765
  472W        W 4536   7.048   3.119   3.062
  473W        W 4537   4.007   0.362   8.684
  474W        W 4538   4.751   4.902   8.428
  475W        W 4539   5.041   2.585   0.348
  476W        W 4540   6.695   6.684  11.905
  477W        W 4541   7.734   0.475   2.305
  478W        W 4542   4.527   9.665   8.544
  479W        W 4543   8.451   0.822   2.248
  480W        W 4544   5.265   9.149  11.974
  481W        W 4545   4.721   6.612  10.724
  482W        W 4546   6.732   3.092   0.983
  483W        W 4547   0.853   2.115   0.697
  484W        W 4548   8.378   7.301   3.351
  485W        W 4549   1.274  10.280   3.262
  486W        W 4550   6.472   6.961   3.258
  487W        W 4551   3.764   8.493   0.896
  488W        W 4552   5.708   8.444   2.688
  489W        W 4553   2.699   6.125   8.357
  490W        W 4554   3.695   8.694   3.496
  491W        W 4555   2.161   8.535   1.633
  492W        W 4556   7.273   6.498  10.721
  493W        W 4557   1.183   5.652   9.031
  494W        W 4558   7.729   6.832   9.305
  495W        W 4559   4.563   7.119  10.736
  496W        W 4560   5.420   3.671   8.219
  497W        W 4561   3.163   4.104   9.765
  498W        W 4562   8.970   1.330   9.730
  499W        W 4563   0.068   3.198   2.669
  500W        W 4564   6.020   4.787   2.491
  501W        W 4565   7.742   8.967  11.489
  502W        W 4566   4.141   2.584   9.478
  503W        W 4567  10.018   0.183  10.206
  504W        W 4568   7.572   0.133   3.352
  505W        W 4569   0.738   2.514  10.746
  506W        W 4570   3.216   6.740   2.474
  507W        W 4571   1.145   2.366   9.679
  508W        W 4572   4.100   6.227   1.985
  509W        W 4573   3.836   5.013  10.631
  510W        W 4574   9.238   2.771  11.369
  511W        W 4575   5.445   4.908   3.674
  512W        W 4576   8.574   9.876   1.669
  513W        W 4577   2.435   9.186   1.235
  514W        W 4578   4.504   4.555   9.991
  515W        W 4579   6.756   7.537   1.321
  516W        W 4580   4.657   9.300  11.558
  517W        W 4581   5.155   3.644   3.255
  518W        W 4582   8.917   6.012   0.841
  519W        W 4583   2.794   3.710   3.189
  520W        W 4584   6.985   4.352   3.916
  521W        W 4585   4.833   9.837  10.311
  522W        W 4586  10.363   6.098   8.876
  523W        W 4587   5.278   4.066   0.190
  524W        W 4588   9.488   4.261   0.733
  525W        W 4589   5.308   4.130  10.324
  526W        W 4590  10.253   4.254  10.097
  527W        W 4591   4.296  10.110   2.712
  528W        W 4592   2.617   1.365   3.108
  529W        W 4593   6.194   3.459   3.105
  530W        W 4594   6.929   0.374   2.008
  531W        W 4595   2.770   1.413   1.007
  532W        W 4596   5.973   3.141   8.884
  533W        W 4597   3.164   2.233   9.544
  534W        W 4598   9.125   4.170   9.570
  535W        W 4599   8.462   2.449   0.394
  536W        W 4600   5.693   5.464   9.463
  537W        W 4601   2.665   1.555   9.083
  538W        W 4602   8.903   4.295  10.526
  539W        W 4603   2.218   9.955   9.001
  540W        W 4604   5.765   7.162  11.901
  541W        W 4605   8.464   3.869   2.740
  542W        W 4606  10.179   9.580   2.367
  543W        W 4607   9.329   5.087  11.012
  544W        W 4608   7.926   6.422   2.264
  545W        W 4609   6.939   4.749   9.801
  546W        W 4610   1.267   5.137   2.354
  547W        W 4611   9.645   0.431  10.442
  548W        W 4612   9.809   0.369   1.234
  549W        W 4613   4.814   1.775   1.972
  550W        W 4614   5.322   7.372   0.292
  551W        W 4615   0.531   4.011  11.389
  552W        W 4616   8.040   5.598   3.435
  553W        W 4617   4.241   8.269  11.173
  554W        W 4618   4.742   9.854   2.694
  555W        W 4619   1.338   9.776   1.398
  556W        W 4620  10.376   1.202   1.377
  557W        W 4621   7.937   5.450   9.377
  558W        W 4622   3.875   0.679   9.797
  559W        W 4623   0.499   0.870   2.732
  560W        W 4624   3.772   9.525   0.646
  561W        W 4625   1.590   1.974  10.978
  562W        W 4626   5.475   2.621   9.237
  563W        W 4627   3.499   3.377   0.364
  564W        W 4628   4.068   8.246  10.291
  565W        W 4629   9.066   1.470   8.721
  566W        W 4630   8.048   6.250  11.718
  567W        W 4631   8.098   4.627  10.448
  568W        W 4632   3.269   0.889   8.688
  569W        W 4633   2.324   8.181   1.326
  570W        W 4634   0.677   6.102   3.308
  571W        W 4635   3.535   6.725   3.213
  572W        W 4636   8.238   3.408   0.263
  573W        W 4637   3.031   0.106   0.949
  574W        W 4638   2.638  10.251   8.865
  575W        W 4639   3.753   1.419   1.391
  576W        W 4640   2.079   5.094   9.745
  577W        W 4641   4.239   0.224  11.756
  578W        W 4642   9.896   4.890  10.030
  579W        W 4643   5.446   1.300  10.019
  580W        W 4644   9.974   8.542   9.490
  581W        W 4645   0.744   4.035   9.991
  582W        W 4646   9.324   0.479   9.534
  583W        W 4647   3.935   5.919   3.218
  584W        W 4648  10.237   7.420   8.493
  585W        W 4649   5.183   8.219   1.429
  586W        W 4650   7.064   1.542  10.818
  587W        W 4651  10.221   1.639   2.865
  588W        W 4652   2.284   2.687   0.661
  589W        W 4653  10.342   9.392   8.999
  590W        W 4654   1.744   3.323  11.486
  591W        W 4655   7.869   9.374   2.109
  592W        W 4656   9.954   3.755   1.144
  593W        W 4657   1.252   0.041  10.322
  594W        W 4658   1.488   8.971   9.400
  595W        W 4659   7.934   8.498  10.708
  596W        W 4660  10.090   4.337   3.305
  597W        W 4661   5.560   5.000  11.352
  598W        W 4662   1.744   2.714   2.921
  599W        W 4663   0.087   4.273   3.509
  600W        W 4664   8.371   0.484  11.256
  601W        W 4665  10.343  10.381   1.250
  602W        W 4666   0.952   4.834   3.125
  603W        W 4667   4.517   6.203   8.550
  604W        W 4668  10.191   3.456   3.493
  605W        W 4669  10.390   5.145  10.086
  606W        W 4670   8.925   5.254   2.293
  607W        W 4671   9.415   6.130   3.257
  608W        W 4672  10.294   0.626  10.071
  609W        W 4673   4.273   3.823   2.710
  610W        W 4674  10.354  10.079  10.765
  611W        W 4675   7.119   3.276  10.589
  612W        W 4676   4.956   2.138   9.689
  613W        W 4677   6.430   3.583   8.484
  614W        W 4678  10.390   3.764   1.450
  615W        W 4679   9.545   5.853   2.372
  616W        W 4680   5.073   2.611   9.557
  617W        W 4681   1.767  10.278  11.657
  618W        W 4682   3.624   1.307  10.409
  619W        W 4683   8.364  10.044  10.914
  620W        W 4684   2.888   1.271   0.228
  621W        W 4685   2.417   8.401   9.120
  622W        W 4686  10.245  10.199   1.747
  623W        W 4687   9.726   2.672   0.457
  624W        W 4688   0.400   1.174   1.739
  625W        W 4689   2.110   5.549   9.524
  626W        W 4690   8.044   6.964   1.420
  627W        W 4691   0.317   9.527   9.602
  628W        W 4692   5.320   5.033   1.391
  629W        W 4693   5.340   0.211   1.174
  630W        W 4694   9.497   7.962   9.935
  631W        W 4695   9.750   7.827  11.861
  632W        W 4696   3.764   2.277   3.579
  633W        W 4697   9.891   3.858   9.306
  634W        W 4698   6.550   7.446  10.132
  635W        W 4699   7.683   3.166   9.253
  636W        W 4700   3.198   0.600   3.564
  637W        W 4701   0.967   4.011   9.012
  638W        W 4702   8.455   0.353  11.728
  639W        W 4703   0.832   0.456   8.966
  640W        W 4704   7.090   4.113   2.571
  641W        W 4705   9.518   0.081   8.551
  642W        W 4706   5.151   7.231   1.656
  643W        W 4707   6.046   2.060   2.155
  644W        W 4708   9.581   7.038  11.513
  645W        W 4709   5.183   7.656   2.593
  646W        W 4710   7.517   7.645   8.847
  647W        W 4711   3.576   5.159   1.215
  648W        W 4712   7.868   3.981  10.998
  649W        W 4713   6.152   5.991   2.741
  650W        W 4714   6.162   1.875   9.116
  651W        W 4715   7.910   4.340   0.464
  652W        W 4716   5.797   8.383  10.042
  653W        W 4717   7.137   5.949  11.817
  654W        W 4718   0.928   1.433   9.815
  655W        W 4719   9.961   6.237   0.904
  656W        W 4720   8.174   5.631   0.577
  657W        W 4721   2.829   5.051   9.555
  658W        W 4722   0.394   1.247  11.849
  659W        W 4723   8.040   5.481   1.338
  660W        W 4724   4.551   9.866   2.204
  661W        W 4725   2.595   1.984  11.798
  662W        W 4726   1.825   4.712   8.506
  663W        W 4727   6.023   3.236   0.745
  664W        W 4728   0.136   9.318   2.497
  665W        W 4729   6.534   1.390   1.331
  666W        W 4730   7.189   0.389   9.406
  667W        W 4731   2.111   6.588   9.009
  668W        W 4732   7.000   3.196   0.563
  669W        W 4733   2.446   9.654   0.203
  670W        W 4734   4.017   3.265  10.036
  671W        W 4735   5.086   3.545   2.773
  672W        W 4736   8.813   8.406  11.870
  673W        W 4737   4.577   0.601  10.493
  674W        W 4738   4.258   0.933   9.983
  675W        W 4739   5.163   0.875   8.908
  676W        W 4740   9.955   0.313   0.209
  677W        W 4741   6.047   9.648   0.022
  678W        W 4742   6.524   4.749  11.665
  679W        W 4743   2.300   1.273   8.510
  680W        W 4744   1.769   4.680  10.612
  681W        W 4745   4.213   7.986   1.644
  682W        W 4746   4.620   0.526   1.015
  683W        W 4747   7.476   0.143  10.862
  684W        W 4748   0.102   4.938  11.269
  685W        W 4749   4.042   2.884  10.402
  686W        W 4750   7.959   6.804   0.922
  687W        W 4751   7.872   9.031   1.350
  688W        W 4752   5.671   4.520  10.295
  689W        W 4753   2.106   8.576  11.432
  690W        W 4754   5.654   7.560   2.323
  691W        W 4755   7.726   1.870  11.394
  692W        W 4756   0.515   6.983  11.136
  693W        W 4757   2.811   4.512   1.503
  694W        W 4758   9.848   1.201  10.667
  695W        W 4759   6.007   0.646   1.465
  696W        W 4760   0.710   0.675  10.347
  697W        W 4761   9.552   2.625   9.951
  698W        W 4762   3.576   9.182   1.796
  699W        W 4763   1.483   5.604   2.384
  700W        W 4764   5.003   6.602   9.008
  701W        W 4765   6.397   0.711   9.511
  702W        W 4766   2.365   3.061  10.969
  703W        W 4767   4.623   6.019   2.845
  704W        W 4768   5.198   2.225   0.021
  705W        W 4769   3.780   9.855   2.733
  706W        W 4770   3.030   7.957  10.044
  707W        W 4771   3.828   8.217   1.879
  708W        W 4772   2.473   0.967   2.176
  709W        W 4773   3.005   1.111  11.361
  710W        W 4774   0.335   2.396   9.162
  711W        W 4775   8.545   7.178   1.573
  712W        W 4776   2.289   1.214   1.713
  713W        W 4777   4.155   1.775   0.206
  714W        W 4778   5.646   7.960   2.882
  715W        W 4779   2.765   7.018  11.328
  716W        W 4780   7.174   1.711   2.266
  717W        W 4781   7.313   8.563  11.512
  718W        W 4782   1.340   3.356   8.752
  719W        W 4783   0.932   3.695  11.252
  720W        W 4784   1.876   4.145   1.256
  721W        W 4785   8.008   8.353   9.715
  722W        W 4786   2.062   7.624  10.051
  723W        W 4787   6.186   3.045   2.232
  724W        W 4788   1.206  10.008  11.689
  725W        W 4789   6.449   6.992  10.528
  726W        W 4790   5.711   6.622   8.430
  727W        W 4791   0.880   2.621   0.605
  728W        W 4792   9.959   6.120  11.980
  729W        W 4793   9.391   8.720  11.314
  730W        W 4794   9.218   5.233  10.529
  731W        W 4795   9.035   2.736   3.146
  732W        W 4796   0.577   9.491   3.404
  733W        W 4797   1.410   6.699   1.393
  734W        W 4798   6.533   8.029  11.384
  735W        W 4799   6.152   8.367   8.809
  736W        W 4800   0.998  10.185   2.248
  737W        W 4801   2.823   2.188   1.238
  738W        W 4802   5.140   3.603   0.032
  739W        W 4803   7.580   4.532   3.694
  740W        W 4804   6.001   0.567  10.631
  741W        W 4805   0.778   0.133   2.294
  742W        W 4806  10.165  10.233   9.985
  743W        W 4807   3.517   8.844  11.686
  744W        W 4808   2.803   5.060   1.861
  745W        W 4809   1.466   0.958   2.562
  746W        W 4810   6.610   6.538   2.189
  747W        W 4811   2.581   6.975   9.708
  748W        W 4812   4.757   7.526   2.299
  749W        W 4813   0.006   3.452  11.947
  750W        W 4814   3.238   8.959   1.470
  751W        W 4815   4.627  10.228   3.502
  752W        W 4816   9.119   8.795   1.806
  753W        W 4817   6.103  10.488   2.687
  754W        W 4818   6.446   3.386   2.644
  755W        W 4819   4.522   3.094   8.902
  756W        W 4820   4.665   0.780   3.346
  757W        W 4821   2.174   8.035   2.429
  758W        W 4822   8.667   1.788   2.019
  759W        W 4823   9.476   6.997   8.836
  760W        W 4824   7.393   2.297   8.812
  761W        W 4825   2.754   1.663   0.556
  762W        W 4826   7.690   8.611   8.898
  763W        W 4827   3.252   4.530   1.761
  764W        W 4828   9.862   8.758   1.018
  765W        W 4829   0.235   9.863  10.539
  766W        W 4830   9.382   5.115  10.033
  767W        W 4831   7.903   4.570   1.531
  768W        W 4832   3.369   9.467   1.436
  769W        W 4833   0.681   5.640   9.595
  770W        W 4834   4.043   6.636   9.206
  771W        W 4835   5.841   1.656   1.921
  772W        W 4836   7.305  10.026   9.196
  773W        W 4837   6.732   4.680   9.099
  774W        W 4838   2.320   8.211  10.681
  775W        W 4839   4.601   8.293   8.522
  776W        W 4840   5.598   8.817   9.706
  777W        W 4841   8.333   9.456  11.794
  778W        W 4842   7.327   7.849  11.037
  779W        W 4843   6.838   9.809   1.676
  780W        W 4844   7.674   2.633  10.967
  781W        W 4845   7.080   6.893   0.825
  782W        W 4846   0.464  10.301  10.478
  783W        W 4847   1.281   7.951   9.109
  784W        W 4848   1.850   8.394   0.265
  785W        W 4849   1.690   3.827   0.420
  786W        W 4850   8.365   9.052   9.218
  787W        W 4851   2.368   5.728  11.889
  788W        W 4852   6.379   4.002   9.719
  789W        W 4853   9.794   2.817   1.455
  790W        W 4854   3.179   7.488   0.389
  791W        W 4855   1.817   5.713   0.528
  792W        W 4856   6.236   5.549   3.025
  793W        W 4857   9.975   9.982   0.358
  794W        W 4858   4.574  10.418   9.176
  795W        W 4859  10.480   7.944   1.832
  796W        W 4860   3.719   7.059  11.852
  797W        W 4861   8.376   1.297   9.078
  798W        W 4862   9.136   8.044   0.621
  799W        W 4863   1.251   5.529   0.611
  800W        W 4864   2.279  10.009   2.540
  801W        W 4865   3.754   8.436  11.941
  802W        W 4866   0.786   0.180  10.472
  803W        W 4867   9.565   8.940   0.184
  804W        W 4868   4.895   1.631   3.686
  805W        W 4869   3.415  10.373  10.375
  806W        W 4870   3.099   8.530  10.372
  807W        W 4871   4.909   4.173  11.269
  808W        W 4872   6.201   1.406   0.244
  809W        W 4873   9.094   5.533  10.941
  810W        W 4874   0.373   6.047   8.863
  811W        W 4875   7.016   2.723   1.712
  812W        W 4876   2.654   3.211   1.970
  813W        W 4877   1.877   7.936   1.453
  814W        W 4878   1.924  10.382   2.668
  815W        W 4879   8.590   4.688  10.572
  816W        W 4880   9.843   8.332   3.276
  817W        W 4881   3.904   3.402   0.700
  818W        W 4882   5.065   4.571   3.705
  819W        W 4883   3.560   7.868   9.444
  820W        W 4884   5.108   8.459   8.910
  821W        W 4885   4.629   6.835   3.479
  822W        W 4886   6.958   8.044   2.539
  823W        W 4887   0.061   3.687   8.899
  824W        W 4888   8.518   9.977   2.168
  825W        W 4889   0.347   9.900   1.713
  826W        W 4890   6.916  10.491   9.691
  827W        W 4891   6.570   6.606   9.746
  828W        W 4892  10.247   6.093   3.658
  829W        W 4893   7.673   8.885   1.977
  830W        W 4894   9.116   7.565  11.958
  831W        W 4895  10.010   3.284  10.979
  832W        W 4896   6.120   0.055   0.716
  833W        W 4897   1.212   3.601  10.093
  834W        W 4898   9.801   1.911   8.579
  835W        W 4899   0.278   2.696   1.512
  836W        W 4900   9.372   8.355   1.992
  837W        W 4901   2.814   7.423   3.426
  838W        W 4902   0.090   6.580   0.706
  839W        W 4903   8.182   9.432   8.677
  840W        W 4904   2.908   1.623  10.510
  841W        W 4905   2.370   6.996   8.799
  842W        W 4906   3.272   8.442  10.927
  843W        W 4907   4.018   6.140   8.385
  844W        W 4908   5.518   3.877   3.536
  845W        W 4909   1.688   8.043   9.393
  846W        W 4910   7.549   8.387   1.836
  847W        W 4911  10.428   4.201   1.174
  848W        W 4912   7.771   6.425  10.787
  849W        W 4913   7.098   7.425   3.195
  850W        W 4914   9.682   6.474  10.736
  851W        W 4915   3.157   2.643   0.989
  852W        W 4916   2.986   1.772   0.058
  853W        W 4917   3.283   4.895  11.541
  854W        W 4918   5.170   5.759  11.848
  855W        W 4919   1.349   3.313   1.182
  856W        W 4920   9.025   3.564  10.827
  857W        W 4921   8.188   8.799   0.409
  858W        W 4922   2.747   6.971   1.446
  859W        W 4923   9.834   7.344   1.765
  860W        W 4924   5.161  10.478  11.359
  861W        W 4925   5.715   8.077   3.425
  862W        W 4926   3.342   9.371   3.484
  863W        W 4927  10.422   0.870   1.803
  864W        W 4928   7.390   6.657   3.639
  865W        W 4929   7.493   4.899  11.805
  866W        W 4930   6.469   8.846   2.533
  867W        W 4931   6.975   7.484   1.799
  868W        W 4932   1.929   4.774   2.538
  869W        W 4933   7.616   9.131   9.985
  870W        W 4934   0.262   4.267   0.471
  871W        W 4935   7.051   2.693   8.760
  872W        W 4936   8.146   3.232   1.504
  873W        W 4937   1.275   6.221   1.521
  874W        W 4938   4.247   4.684  11.726
  875W        W 4939  10.440   7.525  10.009
  876W        W 4940   9.598   0.665   9.942
  877W        W 4941   9.933   0.714  10.783
  878W        W 4942   4.174   4.537   3.695
  879W        W 4943   3.596   9.047   9.103
  880W        W 4944   3.311   9.271   2.469
  881W        W 4945   5.007   7.695   0.069
  882W        W 4946   8.618   5.058  11.376
  883W        W 4947   0.413   0.497   9.264
  884W        W 4948   0.952   8.581  10.235
  885W        W 4949   4.214   2.380   2.973
  886W        W 4950   0.472   8.326   1.230
  887W        W 4951   1.835   8.856   1.883
  888W        W 4952   5.545   3.189   8.047
  889W        W 4953   3.815   0.382   0.447
  890W        W 4954   1.187   5.149   9.690
  891W        W 4955   8.985   9.369   3.549
  892W        W 4956   1.627   0.939   1.090
  893W        W 4957   7.621   1.052   1.150
  894W        W 4958   9.991  10.026   1.218
  895W        W 4959   1.242   5.013   0.388
  896W        W 4960   1.739   0.716   9.479
  897W        W 4961   1.818   6.664   2.272
  898W        W 4962   7.828   8.959  10.425
  899W        W 4963  10.424   3.188   8.730
  900W        W 4964  10.303   7.926   8.701
  901W        W 4965   9.137   9.602  10.950
  902W        W 4966  10.112   9.953   8.984
  903W        W 4967   2.392   7.261   0.946
  904W        W 4968  10.060   9.082   0.344
  905W        W 4969   0.286   0.691  10.675
  906W        W 4970   4.788   0.821   2.175
  907W        W 4971   4.523   8.697   3.577
  908W        W 4972  10.386   8.577   0.229
  909W        W 4973   3.274   2.094  10.809
  910W        W 4974   6.515   0.738  11.274
  911W        W 4975   0.043   3.268   2.164
  912W        W 4976   5.122   7.181   2.186
  913W        W 4977   1.130   3.795   2.389
  914W        W 4978   7.629   9.277  11.903
  915W        W 4979   9.837   1.244   0.490
  916W        W 4980   5.634   7.685  10.453
  917W        W 4981   2.816   7.436   0.729
  918W        W 4982   8.527   3.577   3.300
  919W        W 4983   0.648   5.602  11.859
  920W        W 4984   2.177   9.564   1.471
  921W        W 4985   5.454   7.667   3.742
  922W        W 4986   0.467   8.462   0.387
  923W        W 4987   5.930   7.548  11.572
  924W        W 4988   6.623   7.195   0.809
  925W        W 4989   8.757   7.329   0.924
  926W        W 4990   4.965   0.774   2.677
  927W        W 4991   4.431   6.930  11.211
  928W        W 4992   7.458   5.031   3.549
  929W        W 4993   3.074   3.019   1.754
  930W        W 4994   8.636   3.284   1.761
  931W        W 4995   1.390   2.814   3.329
  932W        W 4996   7.539   8.554  10.276
  933W        W 4997   4.866   3.094   2.233
  934W        W 4998   5.813   2.241   9.211
  935W        W 4999   6.499   9.352  10.728
  936W        W 5000   7.105   7.395   0.930
  937W        W 5001   5.000   5.488   2.132
  938W        W 5002   4.651   7.583   9.036
  939W        W 5003   0.532   9.910   0.271
  940W        W 5004   3.097   2.829  10.310
  941W        W 5005   0.315   5.528   1.868
  942W        W 5006  10.327   9.929   2.761
  943W        W 5007   9.926   9.561   9.278
  944W        W 5008   7.117   9.882   2.146
  945W        W 5009   5.671   6.005   2.924
  946W        W 5010  10.072   2.518   2.824
  947W        W 5011   8.391   2.943   0.304
  948W        W 5012   3.807   7.054  11.336
  949W        W 5013   6.115   6.550  10.057
  950W        W 5014   8.008   5.576   2.393
  951W        W 5015   5.205   7.657   2.055
  952W        W 5016   6.010   9.572   0.520
  953W        W 5017   9.710  10.453   3.863
  954W        W 5018   6.067   0.020  11.271
  955W        W 5019   6.534   4.013   0.021
  956W        W 5020   7.734   2.474   0.650
  957W        W 5021   1.942   4.860   3.657
  958W        W 5022   6.570   9.128   9.867
  959W        W 5023   1.383   0.529   2.941
  960W        W 5024   9.520   6.970  10.748
  961W        W 5025   9.087   3.067   2.371
  962W        W 5026   9.872   0.952   3.790
  963W        W 5027   0.539   4.741   8.663
  964W        W 5028   3.318   6.159  10.505
  965W        W 5029   6.195   7.208   3.598
  966W        W 5030   2.796   3.684   2.134
  967W        W 5031   3.583   6.474   2.204
  968W        W 5032   5.240   2.105   1.230
  969W        W 5033   3.391   4.999   0.780
  970W        W 5034   2.670   0.177   9.276
  971W        W 5035   4.586   4.587   1.937
  972W        W 5036  10.099   7.260   2.400
  973W        W 5037   7.119   8.322   8.591
  974W        W 5038   5.222   2.212   2.111
  975W        W 5039   1.187   5.260   2.939
  976W        W 5040   8.126   1.790   9.017
  977W        W 5041   6.664   5.399   9.518
  978W        W 5042   6.499   4.138   0.935
  979W        W 5043   4.988   1.422  10.199
  980W        W 5044   2.196   6.039   8.587
  981W        W 5045   0.932   6.831   2.799
  982W        W 5046   7.164   3.116   2.040
  983W        W 5047   7.476   6.596   0.990
  984W        W 5048   2.929   9.546  11.773
  985W        W 5049   0.732   2.351   2.151
  986W        W 5050   4.573   8.206   9.959
  987W        W 5051   2.440   9.385   3.199
  988W        W 5052   4.553   1.231   9.437
  989W        W 5053   3.856   3.623   3.540
  990W        W 5054   6.271   1.541   9.464
  991W        W 5055   4.728   6.504   4.169
  992W        W 5056   6.274   1.447   3.273
  993W        W 5057   9.509   4.133  11.347
  994W        W 5058   2.296   7.957   3.578
  995W        W 5059   1.630   5.518   1.885
  996W        W 5060   8.687   1.578   1.539
  997W        W 5061   1.291   9.473   9.248
  998W        W 5062   0.818   6.843   8.683
  999W        W 5063   2.937   1.464   2.743
 1000W        W 5064   5.621   9.516   9.953
 1001W        W 5065   0.567   1.810   1.369
 1002W        W 5066   5.529   6.940   0.935
 1003W        W 5067   5.509   4.862  10.849
 1004W        W 5068   1.752   9.973  10.833
 1005W        W 5069   3.789   4.941  11.618
 1006W        W 5070   0.024   6.216  10.895
 1007W        W 5071   8.367   2.791  11.431
 1008W        W 5072   6.788   8.505  11.570
 1009W        W 5073   1.324   0.536   1.155
 1010W        W 5074   0.923   7.318   2.643
 1011W        W 5075   1.221   0.605   1.672
 1012W        W 5076   5.200   5.597   9.444
 1013W        W 5077   7.657   4.750   8.740
 1014W        W 5078   3.703   4.584   2.436
 1015W        W 5079   9.553   9.742   9.596
 1016W        W 5080   5.836   3.251   3.913
 1017W        W 5081   9.084   3.110  11.020
 1018W        W 5082   8.178   1.738   1.294
 1019W        W 5083   0.711   9.904  11.781
 1020W        W 5084   8.699   8.965   0.503
 1021W        W 5085   6.932   7.931   9.354
 1022W        W 5086   9.077   2.610  10.902
 1023W        W 5087   7.574   0.993   8.895
 1024W        W 5088   4.087   4.701  10.273
 1025W        W 5089   4.511   8.940   1.653
 1026W        W 5090   3.553   0.012   0.191
 1027W        W 5091   6.758   6.148   1.307
 1028W        W 5092   7.667   1.750   2.340
 1029W        W 5093   7.944   1.951  10.011
 1030W        W 5094   6.027   4.518   3.856
 1031W        W 5095   2.821   6.025   0.563
 1032W        W 5096   4.910  10.498   0.410
 1033W        W 5097   1.883   6.131   8.992
 1034W        W 5098   8.935   9.414   0.791
 1035W        W 5099   6.505   8.916  11.544
 1036W        W 5100   8.661   0.214  10.386
 1037W        W 5101  10.023   2.632  10.119
 1038W        W 5102   1.307   2.411   2.980
 1039W        W 5103   1.986   7.596   2.641
 1040W        W 5104   4.229   9.953   0.156
 1041W        W 5105   0.250   8.610   9.949
 1042W        W 5106   9.420   6.577  11.674
 1043W        W 5107   2.081   7.624   8.693
 1044W        W 5108   7.488   3.149  11.820
 1045W        W 5109   4.067   6.612   0.442
 1046W        W 5110   4.102   6.608   0.954
 1047W        W 5111   8.420  10.031   0.747
 1048W        W 5112   5.069   6.723   3.860
 1049W        W 5113   6.507   3.505   0.066
 1050W        W 5114   0.268   3.719   2.226
 1051W        W 5115   0.682   6.450   9.009
 1052W        W 5116   9.070   5.013   0.369
 1053W        W 5117   9.575   3.153   2.279
 1054W        W 5118   3.446   4.659   9.122
 1055W        W 5119   9.723   7.277  10.382
 1056W        W 5120   6.746   4.028   8.504
 1057W        W 5121   1.259   4.113   9.931
 1058W        W 5122   4.244   4.686  10.762
 1059W        W 5123   8.146   9.556  10.922
 1060W        W 5124   4.501   6.930   9.342
 1061W        W 5125   9.783   9.857   2.126
 1062W        W 5126   7.412   4.668   0.283
 1063W        W 5127   8.569   3.777   0.923
 1064W        W 5128   0.071   1.953  10.699
 1065W        W 5129   4.377   5.248   0.995
 1066W        W 5130   9.283   8.835   9.894
 1067W        W 5131   5.857   0.452   9.120
 1068W        W 5132   9.921   2.195   9.283
 1069W        W 5133   4.082   7.870   9.341
 1070W        W 5134   6.558   2.796   1.935
 1071W        W 5135   3.563   1.436   3.498
 1072W        W 5136   1.757   1.671   9.087
 1073W        W 5137   5.988  10.410   1.173
 1074W        W 5138   9.994   6.135   9.625
 1075W        W 5139   2.783   4.728   3.048
 1076W        W 5140   9.019   0.935   1.716
 1077W        W 5141   2.729   5.508   0.258
 1078W        W 5142   5.908   4.862   1.992
 1079W        W 5143   2.660  10.216   0.203
 1080W        W 5144   5.589   9.749   3.222
 1081W        W 5145   0.011   2.313   0.434
 1082W        W 5146   5.701   1.908   2.538
 1083W        W 5147   5.997  10.086   0.460
 1084W        W 5148   2.642   2.691  11.271
 1085W        W 5149   4.837   8.591   1.470
 1086W        W 5150   8.091   8.104   3.404
 1087W        W 5151   0.770  10.297   3.358
 1088W        W 5152   5.599   5.945   9.468
 1089W        W 5153   2.865   7.888   0.980
 1090W        W 5154   0.356   2.620   3.346
 1091W        W 5155   6.581   1.187  11.517
 1092W        W 5156   5.977   0.843   0.942
 1093W        W 5157   7.905   7.797   0.687
 1094W        W 5158   1.828   5.508   1.396
 1095W        W 5159   2.700   3.395  11.743
 1096W        W 5160   1.387   6.475   3.522
 1097W        W 5161   3.322   8.393   2.108
 1098W        W 5162   6.616   6.696   0.873
 1099W        W 5163   3.302   8.672   1.046
 1100W        W 5164   7.403   0.269   2.871
 1101W        W 5165   0.509   3.379  11.826
 1102W        W 5166   3.788   8.805   2.762
 1103W        W 5167   2.757   4.312   1.030
 1104W        W 5168   6.012   3.673   0.474
 1105W        W 5169   2.321   8.119   0.385
 1106W        W 5170   9.955   6.333  10.320
 1107W        W 5171   9.801   8.972   9.951
 1108W        W 5172   1.610   3.888   2.274
 1109W        W 5173   2.805   9.514   3.528
 1110W        W 5174   9.936   5.451   1.923
 1111W        W 5175   2.166   7.369   9.140
 1112W        W 5176  10.497   1.130   9.859
 1113W        W 5177   3.130  10.273   1.946
 1114W        W 5178   7.009  10.349   1.248
 1115W        W 5179   0.413   9.336   1.006
 1116W        W 5180   4.520   0.465   2.987
 1117W        W 5181   3.405   3.551   0.848
 1118W        W 5182   7.187  10.350  10.524
 1119W        W 5183   5.075  10.483  11.909
 1120W        W 5184   4.790   9.977   9.369
 1121W        W 5185   7.231   8.846   0.808
 1122W        W 5186   5.395   5.783   9.897
 1123W        W 5187   9.307   9.077   3.008
 1124W        W 5188   3.525   3.101  10.095
 1125W        W 5189   1.290   8.179  10.156
 1126W        W 5190   4.107   4.177  10.875
 1127W        W 5191   9.428   3.263   2.769
 1128W        W 5192   5.726  10.035   9.835
 1129W        W 5193   4.605   9.443   1.507
 1130W        W 5194   9.244   8.631   8.881
 1131W        W 5195   3.420   1.807  11.758
 1132W        W 5196   3.508   6.221   3.197
 1133W        W 5197   0.029   4.061  11.328
 1134W        W 5198   6.495   6.135  10.998
 1135W        W 5199   5.596   8.761   1.505
 1136W        W 5200   1.308   6.950  10.522
 1137W        W 5201   4.753   1.689   9.578
 1138W        W 5202   4.543   9.582   9.554
 1139W        W 5203   6.025   1.049   9.464
 1140W        W 5204   9.630   6.687   2.658
 1141W        W 5205   6.681   7.936  10.379
 1142W        W 5206   9.932   2.606   9.604
 1143W        W 5207  10.392   4.717   1.138
 1144W        W 5208   4.301   2.258   2.482
 1145W        W 5209   3.843   9.823  10.873
 1146W        W 5210   7.770   7.024   2.814
 1147W        W 5211   9.019   7.955  10.116
 1148W        W 5212   3.242   7.282  11.689
 1149W        W 5213   7.514   7.380  10.951
 1150W        W 5214  10.455   3.271   9.230
 1151W        W 5215   4.047   6.513   2.442
 1152W        W 5216   3.272   6.224   1.377
 1153W        W 5217   5.541   5.340  11.749
 1154W        W 5218   3.705   4.589   9.898
 1155W        W 5219  10.245   9.367   1.574
 1156W        W 5220   1.288   7.615   1.202
 1157W        W 5221   0.675   1.968  10.866
 1158W        W 5222   9.174   0.405   3.553
 1159W        W 5223  10.351   6.160   9.969
 1160W        W 5224   0.812  10.258   9.577
 1161W        W 5225   9.883   8.590   0.404
 1162W        W 5226   6.069   9.444   1.448
 1163W        W 5227   0.865   1.652   0.989
 1164W        W 5228   0.365   3.688  11.025
 1165W        W 5229   8.125   8.696  11.214
 1166W        W 5230   0.364   7.860   1.445
 1167W        W 5231   4.750   8.605   0.967
 1168W        W 5232   4.697   5.151   0.269
 1169W        W 5233   5.652   2.138   1.849
 1170W        W 5234   5.447   6.490   0.420
 1171W        W 5235   9.291   9.644   0.524
 1172W        W 5236   2.806   8.119   8.986
 1173W        W 5237   3.559   9.387  10.817
 1174W        W 5238   7.626   2.701   9.036
 1175W        W 5239   0.394   6.672  10.400
 1176W        W 5240   9.395   3.919  10.882
 1177W        W 5241   9.747   0.919   2.246
 1178W        W 5242   9.065   4.489   1.245
 1179W        W 5243   8.444   9.991   9.891
 1180W        W 5244   3.759   4.561  10.872
 1181W        W 5245   7.239   0.295   2.395
 1182W        W 5246   2.109   0.279   0.127
 1183W        W 5247   7.598   5.167   0.253
 1184W        W 5248   8.073   0.842   0.944
 1185W        W 5249   6.399  10.287  11.582
 1186W        W 5250   4.975   5.707   8.975
 1187W        W 5251   8.164   0.726  10.862
 1188W        W 5252   0.676   2.399   1.640
 1189W        W 5253   6.517   5.078   9.959
 1190W        W 5254   5.628   3.125  11.410
 1191W        W 5255   9.781   2.577  10.566
 1192W        W 5256   8.375   2.670   3.037
 1193W        W 5257   3.148   8.825  11.264
 1194W        W 5258   4.135   7.984   9.832
 1195W        W 5259   6.029   2.787  11.459
 1196W        W 5260   9.825   5.305   2.393
 1197W        W 5261   2.633   2.386   9.749
 1198W        W 5262   3.636   0.359   2.497
 1199W        W 5263   4.586   3.307   3.137
 1200W        W 5264   0.211   7.921   2.325
 1201W        W 5265   4.244   5.478   3.255
 1202W        W 5266   3.338   5.475   2.742
 1203W        W 5267   3.828   7.449   9.506
 1204W        W 5268   3.931   5.809   7.982
 1205W        W 5269   0.782   3.561   9.767
 1206W        W 5270   9.803   6.296   2.335
 1207W        W 5271   1.671   0.312  11.373
 1208W        W 5272   9.565   3.664  11.943
 1209W        W 5273   2.633   8.854   3.192
 1210W        W 5274   5.148   8.593   2.373
 1211W        W 5275   8.884   4.563   8.638
 1212W        W 5276   2.173   4.191   9.559
 1213W        W 5277   9.833   3.062  10.347
 1214W        W 5278   9.761   2.656   9.130
 1215W        W 5279   8.480   8.582   0.774
 1216W        W 5280   2.186   3.923   3.530
 1217W        W 5281   2.422   7.499   9.571
 1218W        W 5282   3.626   9.004  11.201
 1219W        W 5283   4.347   4.053   2.240
 1220W        W 5284   5.219   7.167  11.825
 1221W        W 5285   0.771   3.273   1.078
 1222W        W 5286   1.436   2.593  11.098
 1223W        W 5287   2.257   6.998  11.488
 1224W        W 5288   5.693   6.411   9.352
 1225W        W 5289   4.318   3.139  10.962
 1226W        W 5290   7.641   5.844  11.812
 1227W        W 5291   1.647   5.366   9.601
 1228W        W 5292   4.224   3.156   9.480
 1229W        W 5293   0.388   2.261   2.935
 1230W        W 5294   0.376   6.387   1.632
 1231W        W 5295   1.393  10.222   8.968
 1232W        W 5296   7.102   4.710  11.009
 1233W        W 5297   9.708   3.650  11.445
 1234W        W 5298   4.436   5.734   8.770
 1235W        W 5299   8.871   8.926   9.113
 1236W        W 5300   4.989   1.366   8.683
 1237W        W 5301   5.506  10.359  11.697
 1238W        W 5302   8.050   2.788   1.211
 1239W        W 5303   9.389  10.494   0.018
 1240W        W 5304   4.189   8.878   9.042
 1241W        W 5305   2.138   1.815   2.514
 1242W        W 5306  10.008   0.484   2.037
 1243W        W 5307   3.472   8.122   9.870
 1244W        W 5308   6.478   6.791   1.749
 1245W        W 5309   6.180   3.252  10.204
 1246W        W 5310   3.294   8.575   0.129
 1247W        W 5311   0.574   9.883   8.450
 1248W        W 5312   8.815   2.762   8.589
 1249W        W 5313   5.527   6.507   4.047
 1250W        W 5314   9.542   1.682   8.978
 1251W        W 5315   9.607   4.277   9.460
 1252W        W 5316   4.575   4.246   2.688
 1253W        W 5317   5.613   5.167   0.223
 1254W        W 5318   1.601   9.107  11.280
 1255W        W 5319   9.281   7.678  11.459
 1256W        W 5320   9.920   0.800   0.726
 1257W        W 5321   3.739   5.992   1.698
 1258W        W 5322   0.406   2.094   3.428
 1259W        W 5323   5.606  10.281  11.192
 1260W        W 5324   6.017  10.456   8.970
 1261W        W 5325   7.816   2.282   9.514
 1262W        W 5326   4.619   1.213   2.474
 1263W        W 5327   6.445   4.401   9.414
 1264W        W 5328   9.614   4.748  10.774
 1265W        W 5329   3.365   5.214  10.749
 1266W        W 5330   4.550   6.438   3.175
 1267W        W 5331   2.187  10.408   0.459
 1268W        W 5332   9.803   5.664   9.430
 1269W        W 5333   4.268   2.159   1.986
 1270W        W 5334  10.261   6.835   3.238
 1271W        W 5335   7.049   1.267  11.252
 1272W        W 5336   7.422   8.282  10.739
 1273W        W 5337   9.698  10.102   9.257
 1274W        W 5338   6.559   2.800   8.966
 1275W        W 5339   0.014  10.360   2.584
 1276W        W 5340   4.508   2.316   9.847
 1277W        W 5341   6.580   2.185   3.305
 1278W        W 5342   9.955   1.299   2.538
 1279W        W 5343   2.393   5.958   9.498
 1280W        W 5344   5.788   3.777   3.120
 1281W        W 5345   8.144   1.780   3.476
 1282W        W 5346   2.724   1.497   2.288
 1283W        W 5347   1.850   2.587  10.044
 1284W        W 5348   8.944   3.673   2.892
 1285W        W 5349   1.213   5.600  11.872
 1286W        W 5350   0.918   1.292  11.227
 1287W        W 5351   0.341   4.479   0.960
 1288W        W 5352   1.223   3.121  10.319
 1289W        W 5353  10.475   4.588   3.094
 1290W        W 5354   7.028   3.571   3.300
 1291W        W 5355   3.752   0.918   9.378
 1292W        W 5356   4.854   1.859  10.580
 1293W        W 5357   5.595  10.390   0.794
 1294W        W 5358   3.632   6.196  10.932
 1295W        W 5359  10.305   8.228   2.222
 1296W        W 5360   4.073   4.709  11.248
 1297W        W 5361  10.286   3.501   2.962
 1298W        W 5362   1.561  10.147  10.386
 1299W        W 5363   8.039  10.374   1.314
 1300W        W 5364   4.712   2.064   2.749
 1301W        W 5365   7.441   4.534   1.824
 1302W        W 5366   3.137   3.800  10.604
 1303W        W 5367   5.175   5.154   0.487
 1304W        W 5368   4.745   4.516  11.620
 1305W        W 5369   8.286   1.322   2.279
 1306W        W 5370   4.680   8.495   0.457
 1307W        W 5371   5.181   1.584   1.279
 1308W        W 5372   0.015   4.802   3.551
 1309W        W 5373   1.357   9.389  10.088
 1310W        W 5374   5.494   3.815  10.725
 1311W        W 5375   3.811  10.310   9.832
 1312W        W 5376   9.216   4.477   0.110
 1313W        W 5377   5.036   4.075   1.140
 1314W        W 5378   4.919   5.584   1.206
 1315W        W 5379   7.527   1.776  10.851
 1316W        W 5380   2.310   9.436   9.146
 1317W        W 5381   2.656   7.950   3.234
 1318W        W 5382   7.539   7.148   8.949
 1319W        W 5383   3.791   6.261   0.722
 1320W        W 5384   0.569   0.341   0.265
 1321W        W 5385   3.146   3.299   2.190
 1322W        W 5386   4.909   2.074   0.408
 1323W        W 5387   6.899   2.203   8.916
 1324W        W 5388   6.479  10.194   2.432
 1325W        W 5389  10.336   6.588   9.572
 1326W        W 5390   4.615   5.034  10.088
 1327W        W 5391   9.498   0.554   0.890
 1328W        W 5392   7.489   3.296   3.203
 1329W        W 5393   3.344   5.847   4.052
 1330W        W 5394   0.034   1.824   0.605
 1331W        W 5395   8.096   1.712  11.043
 1332W        W 5396   7.878   3.460  11.129
 1333W        W 5397   4.795   2.011  11.082
 1334W        W 5398   4.486   5.709   0.212
 1335W        W 5399   8.810   6.083   2.747
 1336W        W 5400   4.016   3.625   0.264
 1337W        W 5401   4.173   2.725   0.703
 1338W        W 5402   7.456   9.877  10.593
 1339W        W 5403   9.794   6.641   3.581
 1340W        W 5404   8.546   1.903   9.266
 1341W        W 5405   3.154   7.839   3.382
 1342W        W 5406   7.491   6.106  10.459
 1343W        W 5407   0.280   2.213   1.892
 1344W        W 5408   3.121   8.500   9.832
 1345W        W 5409   9.814   9.836  10.109
 1346W        W 5410   5.936   1.095   3.446
 1347W        W 5411   3.851   2.687   1.208
 1348W        W 5412   7.289   9.004  10.341
 1349W        W 5413   9.780  10.349   1.918
 1350W        W 5414   9.792   0.355   9.228
 1351W        W 5415   5.966   2.188   9.679
 1352W        W 5416   5.664   0.850   8.690
 1353W        W 5417   0.430   6.789   9.914
 1354W        W 5418   2.554   5.604   0.732
 1355W        W 5419   1.209   3.211   9.770
 1356W        W 5420   0.778   5.702  10.911
 1357W        W 5421   0.354   3.409   0.777
 1358W        W 5422   7.990   4.793   2.932
 1359W        W 5423   7.054   6.977   8.969
 1360W        W 5424   5.575   9.328   0.411
 1361W        W 5425   2.706   3.879   0.727
 1362W        W 5426   8.316   8.524  11.707
 1363W        W 5427   2.461   6.874   0.082
 1364W        W 5428   7.733   8.637   0.773
 1365W        W 5429   1.779   9.878   2.694
 1366W        W 5430   5.072   4.179  10.765
 1367W        W 5431   0.419   5.657   3.345
 1368W        W 5432   7.276   0.292   1.060
 1369W        W 5433   7.563   2.163   2.726
 1370W        W 5434   5.686   2.473  10.007
 1371W        W 5435   0.321   4.177  10.923
 1372W        W 5436   6.960   3.731   1.714
 1373W        W 5437   3.838   9.635   0.168
 1374W        W 5438   3.256   9.316   9.488
 1375W        W 5439   8.158  10.476  11.882
 1376W        W 5440   3.871   5.764   0.666
 1377W        W 5441   8.376   0.217   1.527
 1378W        W 5442   8.853   2.320   9.372
 1379W        W 5443   1.903   2.804  10.897
 1380W        W 5444   7.106   6.587   9.864
 1381W        W 5445   2.464   3.772   1.153
 1382W        W 5446   6.076   7.030   1.497
 1383W        W 5447   1.809   7.438   1.291
 1384W        W 5448   5.964   6.150  10.358
 1385W        W 5449   9.324   1.468   9.377
 1386W        W 5450   9.474   4.211   1.743
 1387W        W 5451   8.916   8.584  11.083
 1388W        W 5452   8.912   4.254   3.404
 1389W        W 5453   3.704   7.180   3.379
 1390W        W 5454   3.132   4.036   1.845
 1391W        W 5455   2.813   7.898  11.512
 1392W        W 5456   3.396   8.027   0.199
 1393W        W 5457   3.829   5.096   8.578
 1394W        W 5458   0.469   7.354   0.561
 1395W        W 5459   2.847   7.600  10.390
 1396W        W 5460   5.959   3.565  10.809
 1397W        W 5461   2.180   6.919   9.380
 1398W        W 5462   5.028   5.503   2.640
 1399W        W 5463   9.352   1.015   0.443
 1400W        W 5464   4.976   8.105  10.810
 1401W        W 5465   0.377   8.136   3.378
 1402W        W 5466   4.640   0.828   0.152
 1403W        W 5467   6.636   4.218   2.816
 1404W        W 5468   0.021   7.070   9.768
 1405W        W 5469   1.286   3.548  10.605
 1406W        W 5470   2.618   5.523   1.726
 1407W        W 5471   0.683   9.848  10.318
 1408W        W 5472   3.112   9.697   2.276
 1409W        W 5473   1.740   8.024   8.818
 1410W        W 5474   8.553   9.454  11.329
 1411W        W 5475   5.924   3.079  10.615
 1412W        W 5476   7.003  10.440   9.195
 1413W        W 5477   0.683   2.263  10.006
 1414W        W 5478   6.011   7.323   3.091
 1415W        W 5479   5.476   6.083  10.290
 1416W        W 5480   5.499   9.424  11.442
 1417W        W 5481   4.228   4.609   3.187
 1418W        W 5482   7.212   5.161   2.408
 1419W        W 5483   3.429   7.027   2.825
 1420W        W 5484   1.867   5.840   3.826
 1421W        W 5485   8.794   6.873  10.254
 1422W        W 5486   1.276   7.640  10.043
 1423W        W 5487   3.974   8.759  10.281
 1424W        W 5488   5.078  10.065   1.369
 1425W        W 5489   6.921   5.611   8.716
 1426W        W 5490   2.883  10.386   9.665
 1427W        W 5491   6.774   2.938  10.787
 1428W        W 5492   3.029  10.289   9.190
 1429W        W 5493   8.104   2.909   9.932
 1430W        W 5494   0.948   5.655   3.436
 1431W        W 5495   3.408   9.778   9.341
 1432W        W 5496   1.658   1.721   8.554
 1433W        W 5497   9.867   4.709   9.533
 1434W        W 5498   1.184   3.449   0.732
 1435W        W 5499   9.751   5.305   3.388
 1436W        W 5500   7.857   2.439  11.413
 1437W        W 5501   7.107   5.785   9.578
 1438W        W 5502   4.197   5.237   1.959
 1439W        W 5503   5.973   4.774  10.665
 1440W        W 5504   8.492   2.873   0.927
 1441W        W 5505   0.927   6.573   3.253
 1442W        W 5506   9.530   1.338  10.260
 1443W        W 5507   3.381   4.345   0.299
 1444W        W 5508   9.359   4.981   2.422
 1445W        W 5509   9.319   3.277  11.453
 1446W        W 5510   9.502   4.687  10.270
 1447W        W 5511   2.833   8.374   2.268
 1448W        W 5512   0.410   5.885   1.516
 1449W        W 5513   8.534   8.314   3.552
 1450W        W 5514   5.309   1.863   3.510
 1451W        W 5515   7.641   5.824   9.599
 1452W        W 5516   3.534   7.999  10.913
 1453W        W 5517   3.178   6.246   2.389
 1454W        W 5518   1.390   0.943  10.383
 1455W        W 5519   5.169   5.192  11.059
 1456W        W 5520   5.717   4.388  11.960
 1457W        W 5521   6.973   6.462   8.956
 1458W        W 5522   7.032   2.833  10.280
 1459W        W 5523   7.960   8.608   1.640
 1460W        W 5524   9.781   9.790  11.913
 1461W        W 5525   1.729   1.143  11.688
 1462W        W 5526  10.364   4.496   0.699
 1463W        W 5527   5.651   4.227   0.473
 1464W        W 5528   9.853   3.047   3.472
 1465W        W 5529   6.028   1.280   1.193
 1466W        W 5530   0.263   0.965   2.262
 1467W        W 5531   3.612   0.758  10.226
 1468W        W 5532   4.430  10.482   1.532
 1469W        W 5533   8.826   3.158   3.342
 1470W        W 5534   4.251   0.823   9.473
 1471W        W 5535   6.469   2.481   0.401
 1472W        W 5536   6.571   0.309  10.931
 1473W        W 5537   2.725  10.323  11.148
 1474W        W 5538   5.305   9.761   1.725
 1475W        W 5539   3.265   1.376   1.179
 1476W        W 5540   2.277   0.043  11.037
 1477W        W 5541   1.372   5.728   1.478
 1478W        W 5542   7.946   0.292  11.543
 1479W        W 5543   9.081   3.738   0.166
 1480W        W 5544   1.727   1.185   9.262
 1481W        W 5545   7.147   1.284   1.222
 1482W        W 5546   9.785   3.302   1.286
 1483W        W 5547   3.637   5.055   3.152
 1484W        W 5548   8.511   5.217   1.254
 1485W        W 5549   8.362   3.643   9.410
 1486W        W 5550   2.694   8.151  10.357
 1487W        W 5551   3.617   7.481   0.714
 1488W        W 5552   5.998   5.102   9.317
 1489W        W 5553   8.361   9.254   0.258
 1490W        W 5554   7.064   9.409   1.456
 1491W        W 5555   6.200   7.488   9.321
 1492W        W 5556   8.115   4.019   0.823
 1493W        W 5557   8.186   9.934   9.448
 1494W        W 5558   0.824   0.586   1.015
 1495W        W 5559   7.324   5.088   0.668
 1496W        W 5560  10.462   1.348  11.369
 1497W        W 5561   3.820   9.295  10.366
 1498W        W 5562   2.762   7.397   2.306
 1499W        W 5563   8.974   3.164   0.931
 1500W        W 5564   4.026   7.455  11.989
 1501W        W 5565   6.759   7.752  11.035
 1502W        W 5566   9.549   4.095   3.427
 1503W        W 5567   1.638   5.121   3.259
 1504W        W 5568   4.657   9.979   9.861
 1505W        W 5569   0.939   8.192   0.400
 1506W        W 5570   9.932   3.639   1.673
 1507W        W 5571   8.820   6.117  11.364
 1508W        W 5572   5.150   8.006   3.191
 1509W        W 5573   1.273   2.106  11.392
 1510W        W 5574   6.471   6.509   2.696
 1511W        W 5575   0.652   5.676   9.078
 1512W        W 5576   1.783   4.388   9.269
 1513W        W 5577   8.551   4.712   0.997
 1514W        W 5578   0.891   8.970  10.856
 1515W        W 5579   6.226   7.927   8.538
 1516W        W 5580   6.004   9.011   1.709
 1517W        W 5581   8.154   4.998   9.544
 1518W        W 5582   2.738   4.238   8.872
 1519W        W 5583   9.485   9.383  10.634
 1520W        W 5584   3.726   7.666   3.217
 1521W        W 5585   0.851   6.017  11.340
 1522W        W 5586   9.945   2.414   1.154
 1523W        W 5587   8.597   1.463   1.071
 1524W        W 5588   3.263   2.914   0.501
 1525W        W 5589   4.067   5.020   3.425
 1526W        W 5590   0.305   7.811   8.870
 1527W        W 5591   3.792   0.883   2.236
 1528W        W 5592  10.263   0.822  11.429
 1529W        W 5593  10.251   0.965   2.275
 1530W        W 5594   3.356   4.266   2.236
 1531W        W 5595   0.821   7.392   9.438
 1532W        W 5596   5.740   6.334  11.640
 1533W        W 5597   1.943   1.545   0.218
 1534W        W 5598   2.844   0.951   2.928
 1535W        W 5599   1.952   2.212   1.426
 1536W        W 5600   2.577   7.998   9.434
 1537W        W 5601   4.203   2.767   9.942
 1538W        W 5602   6.969   7.911   1.039
 1539W        W 5603   6.827  10.036   8.917
 1540W        W 5604   3.191   6.663   1.052
 1541W        W 5605   4.273   7.513   2.057
 1542W        W 5606   5.985   5.719   2.187
 1543W        W 5607   8.828   7.415  11.497
 1544W        W 5608   3.334   0.416   0.665
 1545W        W 5609  10.217   0.461  11.802
 1546W        W 5610   2.444  10.415  10.028
 1547W        W 5611   7.727   6.529   3.272
 1548W        W 5612   9.034   9.863   1.456
 1549W        W 5613   5.141   9.582  10.742
 1550W        W 5614   7.885   5.715  11.214
 1551W        W 5615  10.324   1.677   1.629
 1552W        W 5616   1.743   3.561   0.840
 1553W        W 5617   4.980   5.046   3.446
 1554W        W 5618   3.742   3.633   2.652
 1555W        W 5619   4.180   4.213   0.897
 1556W        W 5620   3.670   0.315  10.557
 1557W        W 5621   6.683   0.626   3.221
 1558W        W 5622   0.759   4.770   0.313
 1559W        W 5623   6.826   2.679   3.271
 1560W        W 5624   0.935   1.747   9.399
 1561W        W 5625   7.677   9.010   8.544
 1562W        W 5626   8.190   3.177   9.254
 1563W        W 5627   5.468   8.009  10.833
 1564W        W 5628   3.579   3.654  10.895
 1565W        W 5629   5.046   7.847   9.910
 1566W        W 5630   3.268   6.197   0.822
 1567W        W 5631   1.125   9.456   2.264
 1568W        W 5632   2.592   8.072   2.735
 1569W        W 5633   5.092  10.408   9.280
 1570W        W 5634   8.354   4.391   2.859
 1571W        W 5635   9.968   4.149   1.476
 1572W        W 5636   2.151   2.720   2.582
 1573W        W 5637   9.238   0.299  11.500
 1574W        W 5638   9.863   7.964  10.617
 1575W        W 5639   5.172   7.572   8.309
 1576W        W 5640   1.621   9.877   9.956
 1577W        W 5641   1.229   5.669   9.555
 1578W        W 5642   6.544   5.996  11.503
 1579W        W 5643   4.504   4.489   0.572
 1580W        W 5644   1.231   4.719   9.343
 1581W        W 5645   8.649   6.274   1.236
 1582W        W 5646   3.572   9.991   1.404
 1583W        W 5647  10.487   2.823  11.135
 1584W        W 5648   6.147   4.678   2.955
 1585W        W 5649  10.395   9.475   1.087
 1586W        W 5650   9.841   9.283  11.929
 1587W        W 5651   4.985   3.702   8.525
 1588W        W 5652   2.677   0.662   9.461
 1589W        W 5653   7.944   5.414  10.760
 1590W        W 5654   5.136   2.353   0.789
 1591W        W 5655   8.288   7.838   2.279
 1592W        W 5656   1.893   2.357  11.171
 1593W        W 5657   3.232   3.782   2.440
 1594W        W 5658   7.062   8.520   2.737
 1595W        W 5659   7.522   3.326   2.695
 1596W        W 5660   1.340   4.707   3.454
 1597W        W 5661   3.292   1.875   2.906
 1598W        W 5662   8.303  10.318   1.839
 1599W        W 5663   2.420   2.446   1.371
 1600W        W 5664   3.470   6.901   1.963
 1601W        W 5665   7.674   0.010   2.511
 1602W        W 5666   1.344   6.967   8.994
 1603W        W 5667   7.218  10.315   2.651
 1604W        W 5668   6.547   2.236   2.317
 1605W        W 5669   1.831   9.143   2.318
 1606W        W 5670   3.680   7.228  10.069
 1607W        W 5671   2.819   2.599   1.909
 1608W        W 5672   4.893   0.257   2.591
 1609W        W 5673   7.725   1.920   3.205
 1610W        W 5674   2.949   3.609   1.094
 1611W        W 5675   3.567   2.625   0.198
 1612W        W 5676   6.728   0.149   1.562
 1613W        W 5677   8.421   4.586   1.999
 1614W        W 5678   7.954   6.042   3.149
 1615W        W 5679   1.061   9.961   9.260
 1616W        W 5680   8.516   9.251  10.440
 1617W        W 5681   8.080   0.529   9.689
 1618W        W 5682   0.214  10.396   1.594
 1619W        W 5683   8.420   0.735   9.075
 1620W        W 5684   4.751   6.450   9.437
 1621W        W 5685   3.203   9.112  11.977
 1622W        W 5686  10.052   9.943   9.576
 1623W        W 5687  10.082   4.734  10.950
 1624W        W 5688   2.162   1.673  11.719
 1625W        W 5689   1.068   0.783  11.168
 1626W        W 5690   8.877   7.994   0.155
 1627W        W 5691   3.893   5.154   0.801
 1628W        W 5692   5.557   5.864   1.014
 1629W        W 5693  10.287   8.861   9.756
 1630W        W 5694   0.220   7.918   9.364
 1631W        W 5695   6.210   6.480   3.151
 1632W        W 5696   3.176   6.050   3.592
 1633W        W 5697   9.512   2.958   9.548
 1634W        W 5698   6.450   1.859   0.475
 1635W        W 5699   0.874   1.246   2.865
 1636W        W 5700   1.728   1.511   2.386
 1637W        W 5701   5.295   7.535   9.292
 1638W        W 5702   8.844   9.983  10.732
 1639W        W 5703   8.236   7.863   0.298
 1640W        W 5704   1.403   1.972   9.520
 1641W        W 5705   4.151   9.948  10.000
 1642W        W 5706   4.934   6.485   1.459
 1643W        W 5707   2.017   8.006   0.946
 1644W        W 5708   1.315   0.755   9.046
 1645W        W 5709   6.961   0.412  10.008
 1646W        W 5710   7.234   1.842   3.346
 1647W        W 5711   3.648   1.748   0.208
 1648W        W 5712   3.221   3.570   2.921
 1649W        W 5713   2.121   3.848   0.164
 1650W        W 5714   9.446   3.233   9.997
 1651W        W 5715   8.282   6.283  10.804
 1652W        W 5716   6.644   4.993   0.434
 1653W        W 5717   1.078   5.157  11.418
 1654W        W 5718   0.467   1.320  10.017
 1655W        W 5719   9.839   7.680   2.670
 1656W        W 5720  10.491   6.949   2.300
 1657W        W 5721   4.235   5.137  11.013
 1658W        W 5722   3.097   8.207  11.822
 1659W        W 5723   1.032   9.997   0.175
 1660W        W 5724   9.614   6.223   9.957
 1661W        W 5725   8.698   6.042   2.243
 1662W        W 5726   7.505   2.401   3.201
 1663W        W 5727   4.102   0.321   2.274
 1664W        W 5728   1.937   1.709  10.636
 1665W        W 5729   1.742   4.059  11.828
 1666W        W 5730   0.479   2.692  10.189
 1667W        W 5731   6.933   2.581   9.268
 1668W        W 5732   6.962   5.869   0.862
 1669W        W 5733   6.215   0.917  11.933
 1670W        W 5734   2.896   5.600   2.961
 1671W        W 5735  10.334   3.718   1.965
 1672W        W 5736   9.189   3.757  11.345
 1673W        W 5737   6.256   4.034   3.129
 1674W        W 5738   6.282  10.096   0.873
 1675W        W 5739   0.684   0.878   1.404
 1676W        W 5740   8.757   4.632   0.294
 1677W        W 5741   4.579   4.773  11.223
 1678W        W 5742   1.418   1.878  10.489
 1679W        W 5743   5.809   9.851   1.753
 1680W        W 5744   5.144   8.561  11.582
 1681W        W 5745   4.061   7.512   0.976
 1682W        W 5746   4.678   5.534   2.991
 1683W        W 5747   4.564   0.329   2.055
 1684W        W 5748   9.448   1.179   8.950
 1685W        W 5749  10.218   1.863  11.060
 1686W        W 5750   6.682   7.668   8.533
 1687W        W 5751   7.923   6.040   2.634
 1688W        W 5752   5.021   3.345   8.950
 1689W        W 5753   3.678   6.345  11.771
 1690W        W 5754   7.886   5.934  10.732
 1691W        W 5755   3.819   5.948   2.709
 1692W        W 5756   4.223   5.177  11.548
 1693W        W 5757   6.608   5.714   3.359
 1694W        W 5758   2.990   4.704   8.930
 1695W        W 5759   2.722   3.744   2.662
 1696W        W 5760   0.872   2.806   3.256
 1697W        W 5761   6.006   9.154   0.197
 1698W        W 5762   5.523   8.935   1.981
 1699W        W 5763   7.019   6.079  11.326
 1700W        W 5764   1.356   9.127  11.751
 1701W        W 5765   3.434   8.003   2.940
 1702W        W 5766   2.636   4.090   9.365
 1703W        W 5767   5.033   3.650   3.761
 1704W        W 5768   7.083   2.830  11.848
 1705W        W 5769   8.162   4.156   1.330
 1706W        W 5770   5.171   3.289  11.242
 1707W        W 5771   5.652   1.873   1.398
 1708W        W 5772   4.042   3.246   1.897
 1709W        W 5773   7.380   0.805   2.124
 1710W        W 5774   7.028   1.433  11.722
 1711W        W 5775   7.991   4.036   2.889
 1712W        W 5776   5.246   1.688   0.511
 1713W        W 5777   9.440   0.857   3.533
 1714W        W 5778   8.369   8.856   1.395
 1715W        W 5779  10.118   7.118  10.082
 1716W        W 5780   0.415   2.253  10.460
 1717W        W 5781   4.084   1.994   3.308
 1718W        W 5782   3.051   1.699   1.945
 1719W        W 5783   8.414   5.975  10.413
 1720W        W 5784   2.219   0.939   9.461
 1721W        W 5785   0.420   3.884  11.885
 1722W        W 5786  10.059   1.760   2.341
 1723W        W 5787   4.212   9.614  10.389
 1724W        W 5788   5.245   6.625   9.474
 1725W        W 5789   9.094   1.289   3.560
 1726W        W 5790   5.409   5.571   1.402
 1727W        W 5791   7.448   6.239   9.345
 1728W        W 5792   5.206   4.798   0.857
 1729W        W 5793   1.710   9.433  11.941
 1730W        W 5794   2.836   8.834   0.208
 1731W        W 5795   0.280   5.000   3.146
 1732W        W 5796   8.914   4.590   1.706
 1733W        W 5797   4.756  10.331   2.956
 1734W        W 5798   5.704   4.520  11.183
 1735W        W 5799   7.698  10.407  10.447
 1736W        W 5800   8.155   6.766  11.553
 1737W        W 5801   0.466   7.236   0.048
 1738W        W 5802   7.429   4.813   9.486
 1739W        W 5803   5.954   7.877  10.102
 1740W        W 5804   0.117   7.500  10.501
 1741W        W 5805   7.939   9.248   9.598
 1742W        W 5806   6.275   7.016  10.045
 1743W        W 5807   8.598   5.140   0.372
 1744W        W 5808   9.412   4.697   0.516
 1745W        W 5809   5.536   4.793   2.353
 1746W        W 5810   5.584   3.630  11.254
 1747W        W 5811   7.993   8.814   9.898
 1748W        W 5812   9.460   0.347   0.426
 1749W        W 5813   8.974   7.228   9.391
 1750W        W 5814   8.888   8.070   9.630
 1751W        W 5815   7.643   5.605  10.403
 1752W        W 5816   5.067   1.275   2.850
 1753W        W 5817   2.201   0.766   0.299
 1754W        W 5818   3.612   3.531   9.848
 1755W        W 5819  10.339   6.072   1.994
 1756W        W 5820   4.252   3.699   0.975
 1757W        W 5821   9.340   7.458   9.092
 1758W        W 5822   2.156   3.789   1.551
 1759W        W 5823   9.045   6.225  11.825
 1760W        W 5824   4.713   1.321   3.308
 1761W        W 5825   0.014   1.848   2.143
 1762W        W 5826   9.717   5.128  10.455
 1763W        W 5827   1.492   1.700   9.996
 1764W        W 5828   1.196   3.309   3.323
 1765W        W 5829   4.692   9.828   0.311
 1766W        W 5830  10.019   8.516   1.431
 1767W        W 5831   2.182   5.044  10.720
 1768W        W 5832   9.546   2.213   8.940
 1769W        W 5833   4.776   7.632  10.741
 1770W        W 5834   8.208   5.373  11.417
 1771W        W 5835   6.916   0.372   2.844
 1772W        W 5836   7.072   9.835   1.187
 1773W        W 5837   2.949   8.360  11.343
 1774W        W 5838   3.238   1.031   3.319
 1775W        W 5839   6.544   5.701   9.086
 1776W        W 5840   7.871   4.525   9.570
 1777W        W 5841   4.278   4.056   0.398
 1778W        W 5842   9.606   0.325   1.718
 1779W        W 5843   9.597   7.902   3.100
 1780W        W 5844   2.236   6.424   2.065
 1781W        W 5845   9.991   6.852  10.514
 1782W        W 5846   2.637   0.790   1.698
 1783W        W 5847   8.323   2.361   9.253
 1784W        W 5848  10.127   7.463  11.791
 1785W        W 5849   7.538   4.388   9.202
 1786W        W 5850   0.390   3.647   3.216
 1787W        W 5851   8.000   7.367   8.739
 1788W        W 5852   1.052   8.350   0.933
 1789W        W 5853   0.901   1.596   2.478
 1790W        W 5854   0.355   1.397   0.733
 1791W        W 5855   9.423   0.782   1.426
 1792W        W 5856   0.482   4.798  11.875
 1793W        W 5857   6.145   2.736   9.966
 1794W        W 5858   6.648   0.888   9.088
 1795W        W 5859   7.228   8.294   9.537
 1796W        W 5860   4.574   9.486  10.051
 1797W        W 5861   7.080   3.708   8.750
 1798W        W 5862   0.846   7.071   0.350
 1799W        W 5863   6.420   8.736   3.437
 1800W        W 5864   8.047  10.438   3.273
 1801W        W 5865   8.315   3.737  11.028
 1802W        W 5866  10.147   6.567   2.759
 1803W        W 5867   7.390   5.714  11.382
 1804W        W 5868   6.006   5.630  10.844
 1805W        W 5869   1.655   7.353   9.893
 1806W        W 5870   3.835   2.719   1.760
 1807W        W 5871   2.108   0.083   1.364
 1808W        W 5872   8.393   7.449   1.980
 1809W        W 5873   4.138   5.121   2.436
 1810W        W 5874   8.834   2.121  10.383
 1811W        W 5875   4.695   5.505   0.697
 1812W        W 5876   4.655   7.883   0.441
 1813W        W 5877   7.441   2.728  11.473
 1814W        W 5878   9.135   7.076  11.743
 1815W        W 5879  10.500   7.027   2.811
 1816W        W 5880   6.491   4.901   9.497
 1817W        W 5881   6.034   5.240  10.454
 1818W        W 5882   1.612   9.632  10.466
 1819W        W 5883   0.214   9.009  10.360
 1820W        W 5884   9.951   9.459   9.787
 1821W        W 5885   2.849   4.716  11.167
 1822W        W 5886   5.412   4.094  11.163
 1823W        W 5887  10.371   0.189   3.455
 1824W        W 5888   3.730   2.888   2.838
 1825W        W 5889   2.379   3.647  11.156
 1826W        W 5890   4.177   7.056   1.227
 1827W        W 5891   7.097   5.466   1.776
 1828W        W 5892   5.939   9.453   9.160
 1829W        W 5893   1.172   6.515   9.166
 1830W        W 5894   4.660   4.049   0.771
 1831W        W 5895  10.228   8.816  11.254
 1832W        W 5896   1.206   1.846   2.148
 1833W        W 5897  10.007   0.964   9.824
 1834W        W 5898   7.101   0.840   2.970
 1835W        W 5899   0.193   0.792   1.383
 1836W        W 5900   2.906   5.790   9.856
 1837W        W 5901   8.084   7.740   1.732
 1838W        W 5902   2.183   9.836   3.006
 1839W        W 5903   0.263   2.595  11.542
 1840W        W 5904   2.973   5.225  11.325
 1841W        W 5905   0.260   5.231  11.690
 1842W        W 5906   2.796   3.196   1.362
 1843W        W 5907   6.707   6.525   3.213
 1844W        W 5908   7.866   5.784   0.942
 1845W        W 5909   7.552   4.668  11.282
 1846W        W 5910   0.255   0.930  11.461
 1847W        W 5911   1.448   1.829   3.651
 1848W        W 5912   8.545   6.366   9.432
 1849W        W 5913   5.150   4.263   0.663
 1850W        W 5914   5.696  10.260   2.966
 1851W        W 5915   5.676   2.885   1.436
 1852W        W 5916   0.214  10.065  11.874
 1853W        W 5917   2.697   2.360   0.792
 1854W        W 5918   4.493   0.267  10.908
 1855W        W 5919   3.389   9.472   2.949
 1856W        W 5920   9.986   9.374  10.298
 1857W        W 5921   9.052   9.402   9.969
 1858W        W 5922   3.626   4.529  11.399
 1859W        W 5923   1.804   1.249   1.925
 1860W        W 5924   6.730   5.084   8.335
 1861W        W 5925   8.555   9.498   9.990
 1862W        W 5926   9.416   1.464   0.205
 1863W        W 5927   6.093   5.441   0.806
 1864W        W 5928   9.202   0.458   2.624
 1865W        W 5929   2.918   5.488  10.829
 1866W        W 5930   4.130   3.609  10.863
 1867W        W 5931   1.461  10.399   2.354
 1868W        W 5932   4.997   2.719  10.561
 1869W        W 5933   4.058   1.273   9.641
 1870W        W 5934   1.777   4.780  11.108
 1871W        W 5935   9.390  10.173   2.258
 1872W        W 5936   3.230   7.526   1.026
 1873W        W 5937   5.626   0.756  10.237
 1874W        W 5938   3.300   2.715   9.813
 1875W        W 5939   3.138   9.105   8.536
 1876W        W 5940   9.931   0.202  10.811
 1877W        W 5941   5.603   5.504   0.644
 1878W        W 5942   2.261   6.910  10.476
 1879W        W 5943   5.793   3.999  10.344
 1880W        W 5944   8.589  10.270  11.686
 1881W        W 5945   3.750   5.055  10.110
 1882W        W 5946   1.931   3.367   0.364
 1883W        W 5947   6.482   3.850   0.499
 1884W        W 5948   8.911   0.191  11.902
 1885W        W 5949   6.478   6.306   9.201
 1886W        W 5950   8.297   4.703   0.506
 1887W        W 5951   6.115   2.317   3.129
 1888W        W 5952   4.528   6.644  11.668
 1889W        W 5953   9.165   1.923  11.987
 1890W        W 5954   1.470   0.752  10.836
 1891W        W 5955   1.668   8.869   8.395
 1892W        W 5956   3.785   5.179   1.668
 1893W        W 5957   2.496   6.238   2.841
 1894W        W 5958  10.232   0.339   8.955
 1895W        W 5959  10.009   2.766  10.988
 1896W        W 5960   6.212   7.441   8.803
 1897W        W 5961   5.502   4.290   9.880
 1898W        W 5962   8.788   8.975  10.086
 1899W        W 5963   8.366   2.668  10.557
 1900W        W 5964   5.435   9.191   1.267
 1901W        W 5965   3.299   2.619  10.872
 1902W        W 5966   9.217   0.966   9.399
 1903W        W 5967   7.515   3.418   8.480
 1904W        W 5968   6.128   6.999   0.984
 1905W        W 5969   5.688   0.236  10.420
 1906W        W 5970   9.731   8.447   9.935
 1907W        W 5971   0.431   7.022   9.462
 1908W        W 5972   2.590   3.357   0.817
 1909W        W 5973   0.728   6.513   9.524
 1910W        W 5974   1.697   8.188   2.301
 1911W        W 5975   7.913   2.889  10.403
 1912W        W 5976   4.700   0.825   9.717
 1913W        W 5977   9.917   1.305   8.765
 1914W        W 5978   5.731   2.957  10.163
 1915W        W 5979   4.282   9.001   9.954
 1916W        W 5980   5.513   8.359   0.219
 1917W        W 5981   1.453   0.452   0.657
 1918W        W 5982   4.167   9.739   1.277
 1919W        W 5983   2.035   5.546  10.509
 1920W        W 5984   7.850   7.504   9.738
 1921W        W 5985   2.313   8.773  11.866
 1922W        W 5986   3.037   1.726   8.725
 1923W        W 5987   5.221   8.923   3.310
 1924W        W 5988   6.053   0.921  10.004
 1925W        W 5989   6.168   7.597   2.175
 1926W        W 5990   2.157   7.757   0.078
 1927W        W 5991   7.548   9.932   2.468
 1928W        W 5992   8.630   2.665   3.481
 1929W        W 5993  10.488   5.153   1.716
 1930W        W 5994   9.824   4.573   1.825
 1931W        W 5995   7.899   7.174  10.639
 1932W        W 5996   8.137   8.161   1.475
 1933W        W 5997   4.686   3.435  11.169
 1934W        W 5998   9.318   0.227   2.178
 1935W        W 5999   7.451   0.827  10.453
 1936W        W 6000   0.064   0.343   1.148
 1937W        W 6001   1.375   3.676  11.594
 1938W        W 6002   9.999   5.457   0.528
 1939W        W 6003  10.056   9.337   3.322
 1940W        W 6004   3.633   4.058  11.233
 1941W        W 6005   4.967   9.069   1.422
 1942W        W 6006   4.633   8.420  11.958
 1943W        W 6007   1.565   5.269  11.303
 1944W        W 6008   1.664   0.777   2.105
 1945W        W 6009   3.820   9.599   1.640
 1946W        W 6010   2.797   1.843   3.134
 1947W        W 6011   1.848   4.045   3.155
 1948W        W 6012   9.895   2.039   2.745
 1949W        W 6013   6.433   8.009   2.361
 1950W        W 6014   2.858   6.437  10.588
 1951W        W 6015   3.068   5.045   2.735
 1952W        W 6016   1.239   9.065  10.476
 1953W        W 6017   2.198   7.058   3.437
 1954W        W 6018   5.135   4.697   9.218
 1955W        W 6019   8.751   6.211   9.895
 1956W        W 6020   2.254   7.352   0.430
 1957W        W 6021   6.861   4.232   9.857
 1958W        W 6022   4.655   6.089  10.965
 1959W        W 6023   7.444   4.488   4.188
 1960W        W 6024   2.756   0.993  11.808
 1961W        W 6025   8.990   8.029  11.096
 1962W        W 6026   8.867   6.364   9.028
 1963W        W 6027   7.629   4.137  11.438
 1964W        W 6028   9.745   6.221   2.850
 1965W        W 6029   9.303   2.344  10.506
 1966W        W 6030   8.155   4.645   2.461
 1967W        W 6031   0.469   7.031   2.482
 1968W        W 6032  10.452   2.248  11.349
 1969W        W 6033   2.688   6.888   3.525
 1970W        W 6034   8.014   9.077   3.494
 1971W        W 6035   5.493   8.852   0.312
 1972W        W 6036   2.535   9.886  11.768
 1973W        W 6037   4.508   3.187   9.906
 1974W        W 6038   2.229  10.283   0.962
 1975W        W 6039   0.859   9.005  11.786
 1976W        W 6040   3.587  10.488   1.208
 1977W        W 6041   8.305   5.138   0.792
 1978W        W 6042   7.500   0.723   8.476
 1979W        W 6043   0.781   1.110   2.365
 1980W        W 6044   9.544   0.169   9.975
 1981W        W 6045   9.109   2.822   3.641
 1982W        W 6046   6.603   7.116  11.007
 1983W        W 6047   5.604   7.944   9.256
 1984W        W 6048   1.986   6.975   0.227
 1985W        W 6049   6.003   4.091   3.573
 1986W        W 6050   2.773  10.044   0.983
 1987W        W 6051   9.686   3.443   9.549
 1988W        W 6052   0.707   8.560   2.473
 1989W        W 6053   0.663   8.659   0.827
 1990W        W 6054   5.836   9.948   8.943
 1991W        W 6055   7.639   3.181  10.751
 1992W        W 6056   3.565   0.269   9.066
 1993W        W 6057   2.898   2.130  10.473
 1994W        W 6058   3.907   1.323   0.318
 1995W        W 6059   0.355   5.846  10.645
 1996W        W 6060   8.337   4.743  11.027
 1997W        W 6061   3.323   9.461  10.363
 1998W        W 6062   5.153   6.230   3.752
 1999W        W 6063   7.160   4.282  11.336
 2000W        W 6064   5.471   0.930   2.663
 2001W        W 6065   7.898   2.765   3.247
 2002W        W 6066   0.360   2.519   9.667
 2003W        W 6067  10.327   7.428   3.346
 2004W        W 6068   5.766   2.710   0.945
 2005W        W 6069   7.458   2.691  10.512
 2006W        W 6070   2.238   2.904   9.001
 2007W        W 6071   6.877   8.075   1.507
 2008W        W 6072   6.520   0.622   1.677
 2009W        W 6073  10.003   8.321   9.022
 2010W        W 6074   7.340   8.712   9.243
 2011W        W 6075   3.400   3.200   3.841
 2012W        W 6076   8.329   1.262   2.829
 2013W        W 6077   9.246   1.577   3.173
 2014W        W 6078   7.239   7.632   1.387
 2015W        W 6079   0.727   1.880   2.867
 2016W        W 6080   1.292   8.070   2.018
 2017W        W 6081   5.780   3.904   2.273
 2018W        W 6082   5.000   0.414   9.690
 2019W        W 6083  10.329   7.473   9.510
 2020W        W 6084   9.612  10.344   3.156
 2021W        W 6085   5.118   8.029   9.434
 2022W        W 6086   0.457   4.501  10.007
 2023W        W 6087   5.169   9.060  11.483
 2024W        W 6088   9.138   8.330  11.477
 2025W        W 6089   2.838   9.242   2.255
 2026W        W 6090   7.764   9.466   3.203
 2027W        W 6091  10.254   8.409   9.994
 2028W        W 6092   2.726   0.725   0.245
 2029W        W 6093   1.487   7.607   0.735
 2030W        W 6094   8.074   1.417  10.374
 2031W        W 6095   3.816   7.589  11.038
 2032W        W 6096   4.170   4.612   2.227
 2033W        W 6097   7.411   7.952   0.744
 2034W        W 6098   9.044   1.600  11.581
 2035W        W 6099   1.214   8.570   3.258
 2036W        W 6100   0.464   1.397  11.363
 2037W        W 6101   9.864   8.380  10.969
 2038W        W 6102   3.790   0.388   0.948
 2039W        W 6103   8.547   1.375   0.575
 2040W        W 6104   5.723   2.893   2.350
 2041W        W 6105   3.391   5.733   3.207
 2042W        W 6106   8.457   2.794   9.552
 2043W        W 6107   8.882   6.190   1.764
 2044W        W 6108   2.332   0.337   3.212
 2045W        W 6109   8.667   9.037   1.794
 2046W        W 6110   6.710   1.786   9.199
 2047W        W 6111   1.509   9.940   9.458
 2048W        W 6112   1.874   8.078  11.470
 2049W        W 6113   1.701   6.183   8.519
 2050W        W 6114   1.321   1.073   1.826
 2051W        W 6115  10.083   6.973  11.593
 2052W        W 6116   3.594   2.248   9.139
 2053W        W 6117   2.337   5.686   2.734
 2054W        W 6118   7.436   2.634   9.501
 2055W        W 6119   2.393   9.670  11.309
 2056W        W 6120   1.245   9.392  11.028
 2057W        W 6121  10.422   5.702  10.871
 2058W        W 6122   9.968   1.362  11.527
 2059W        W 6123   0.355   1.461   9.516
 2060W        W 6124  10.389   2.404   9.516
 2061W        W 6125   6.182   6.521   0.712
 2062W        W 6126   2.361   9.635  10.122
 2063W        W 6127   1.074   7.406  10.448
 2064W        W 6128   4.602   5.146   8.850
 2065W        W 6129   5.142   9.533   2.651
 2066W        W 6130   2.361   2.105   0.511
 2067W        W 6131   3.965   4.140   4.000
 2068W        W 6132   4.698   2.405   3.163
 2069W        W 6133   2.750   4.605   8.490
 2070W        W 6134   5.550   4.389   3.576
 2071W        W 6135   5.243   0.887  11.431
 2072W        W 6136   4.543   4.620   1.429
 2073W        W 6137   5.644   0.748   3.133
 2074W        W 6138   1.484   8.937   1.535
 2075W        W 6139   1.109   8.984  11.323
 2076W        W 6140   2.351   6.022   2.350
 2077W        W 6141   0.771   2.643   9.272
 2078W        W 6142   3.893   1.889  10.257
 2079W        W 6143   0.829   7.691   1.874
 2080W        W 6144   5.293   4.449  11.505
 2081W        W 6145   5.254  10.499  10.844
 2082W        W 6146   2.858   3.995   1.417
 2083W        W 6147   7.452   6.107  11.018
 2084W        W 6148   5.925   3.189   9.756
 2085W        W 6149   8.491   9.509   9.487
 2086W        W 6150   9.611  10.182  11.609
 2087W        W 6151   8.297   5.103  10.487
 2088W        W 6152   2.638   7.142   9.208
 2089W        W 6153   6.334   9.423   8.838
 2090W        W 6154   0.819   5.253   0.528
 2091W        W 6155  10.109   1.436   9.706
 2092W        W 6156   6.498   1.135   1.885
 2093W        W 6157   0.064   9.527   2.982
 2094W        W 6158   9.483   2.894  11.795
 2095W        W 6159   3.668   9.338  11.786
 2096W        W 6160   9.847   5.218   2.897
 2097W        W 6161   6.568   4.337   0.432
 2098W        W 6162   8.291  10.460  11.270
 2099W        W 6163   9.197   6.140   2.158
 2100W        W 6164   0.449   2.051   0.393
 2101W        W 6165   3.013   8.705  11.731
 2102W        W 6166   5.475   2.145   0.450
 2103W        W 6167   8.986   7.527  11.019
 2104W        W 6168   8.739   3.562  11.253
 2105W        W 6169   5.060   5.203   9.099
 2106W        W 6170   8.983   8.357  10.624
 2107W        W 6171   2.302   4.892   8.453
 2108W        W 6172   3.689   0.866   0.186
 2109W        W 6173   4.267   9.246   3.730
 2110W        W 6174   9.087   2.442   8.929
 2111W        W 6175   2.665   0.563   2.492
 2112W        W 6176   8.490   7.940  10.969
 2113W        W 6177   7.027   3.577   2.253
 2114W        W 6178   3.638  10.360   8.753
 2115W        W 6179   6.261   6.728  11.061
 2116W        W 6180   3.556   1.707   2.137
 2117W        W 6181   9.825   1.524  11.045
 2118W        W 6182   3.758   0.399   1.466
 2119W        W 6183  10.064  10.248   3.502
 2120W        W 6184   8.369   8.112   1.020
 2121W        W 6185   8.822   9.241  11.831
 2122W        W 6186   2.954   7.695   2.911
 2123W        W 6187   9.953   9.276  10.783
 2124W        W 6188   5.675   6.704   9.756
 2125W        W 6189   7.951   6.225  11.211
 2126W        W 6190   7.465   0.328   1.904
 2127W        W 6191   6.822   9.399  11.584
 2128W        W 6192   8.150   1.333   0.874
 2129W        W 6193   1.177   2.627  11.559
 2130W        W 6194   8.940   9.969   2.484
 2131W        W 6195   4.968   5.998  10.075
 2132W        W 6196   1.006   4.705   2.219
 2133W        W 6197   2.795   8.902  10.886
 2134W        W 6198   4.260   0.312   0.714
 2135W        W 6199  10.378   0.391  10.517
 2136W        W 6200   4.049   9.843   2.292
 2137W        W 6201   9.111   3.854  10.427
 2138W        W 6202   5.729   0.205   1.486
 2139W        W 6203   3.241   3.479   8.644
 2140W        W 6204   3.637   9.042   0.804
 2141W        W 6205   0.840   0.749   9.388
 2142W        W 6206   2.389   1.240   0.342
 2143W        W 6207   0.858   6.961   9.744
 2144W        W 6208   1.710   2.173   8.804
 2145W        W 6209   3.422   1.409  11.369
 2146W        W 6210   5.778   7.379   1.231
 2147W        W 6211   0.808   5.839   0.778
 2148W        W 6212   6.068   7.916   9.056
 2149W        W 6213   1.940  10.408  10.151
 2150W        W 6214   6.161   1.680   2.467
 2151W        W 6215   1.811   6.760   3.577
 2152W        W 6216   1.391   5.931  10.967
 2153W        W 6217   1.483   2.661   1.762
 2154W        W 6218   7.887   1.694   0.582
 2155W        W 6219   9.749   1.816   0.368
 2156W        W 6220   2.076   5.422   0.923
 2157W        W 6221   3.986   6.473   3.319
 2158W        W 6222   4.260   9.547   1.876
 2159W        W 6223   2.855   5.551  11.729
 2160W        W 6224   9.383   9.865   3.320
 2161W        W 6225   8.025   2.282   3.000
 2162W        W 6226   2.206   2.203   3.287
 2163W        W 6227   8.005  10.150   2.326
 2164W        W 6228   6.910  10.337  11.462
 2165W        W 6229   2.741   3.641   8.764
 2166W        W 6230   7.825   8.490  11.613
 2167W        W 6231   9.107  10.296  11.574
 2168W        W 6232   6.962   2.711   0.343
 2169W        W 6233   3.118   0.889   1.461
 2170W        W 6234   1.028   4.997   8.900
 2171W        W 6235   0.689  10.346   1.419
 2172W        W 6236   7.090   2.304   0.058
 2173W        W 6237   6.527   4.668   2.602
 2174W        W 6238   8.544   2.703  10.059
 2175W        W 6239   3.636   7.967  10.377
 2176W        W 6240   9.058   6.996   1.185
 2177W        W 6241   8.005   4.393   3.233
 2178W        W 6242   1.403   4.670  11.473
 2179W        W 6243   4.705   8.917  10.730
 2180W        W 6244   6.708   7.208  11.896
 2181W        W 6245   7.995   9.913   8.519
 2182W        W 6246   9.484   4.093   2.249
 2183W        W 6247   9.379   8.020  10.477
 2184W        W 6248   5.031   3.296  10.758
 2185W        W 6249   5.656   5.830  11.673
 2186W        W 6250   3.680   9.538   8.968
 2187W        W 6251   4.075  10.457   9.032
 2188W        W 6252   5.640   8.481   2.187
 2189W        W 6253   3.318   6.644  10.857
 2190W        W 6254   1.654   6.627   0.072
 2191W        W 6255   8.067   1.226  10.877
 2192W        W 6256   3.271   6.646  10.332
 2193W        W 6257   9.555   1.824   2.441
 2194W        W 6258   8.941   0.840   3.369
 2195W        W 6259   7.342   4.373  11.835
 2196W        W 6260   1.185   2.739  10.673
 2197W        W 6261   1.165   4.512   0.527
 2198W        W 6262   3.400   2.051   1.816
 2199W        W 6263   2.183   7.015  10.974
 2200W        W 6264   4.509   3.186   0.807
 2201W        W 6265   5.639   6.024   0.559
 2202W        W 6266   5.358   6.822   1.903
 2203W        W 6267   1.732   3.638   1.332
 2204W        W 6268   7.623   4.045   9.582
 2205W        W 6269   9.367   7.582   1.790
 2206W        W 6270   6.974   1.940  11.709
 2207W        W 6271   1.702   5.214  10.808
 2208W        W 6272   2.838   0.567   0.806
 2209W        W 6273   9.515   6.999   9.353
 2210W        W 6274   2.610   4.104   1.871
 2211W        W 6275   2.440   6.263  11.943
 2212W        W 6276   6.174   4.738   1.577
 2213W        W 6277   0.602   8.147   0.785
 2214W        W 6278   8.989   8.342   9.217
 2215W        W 6279   9.522   1.453   8.480
 2216W        W 6280   6.448   5.204   9.096
 2217W        W 6281   3.689   5.719  11.203
 2218W        W 6282   2.556   5.582  10.443
 2219W        W 6283   5.355   1.745  10.389
 2220W        W 6284   5.275   1.285   0.160
 2221W        W 6285   8.827   7.845   1.013
 2222W        W 6286   8.777   5.087  10.330
 2223W        W 6287   6.707   5.673   2.855
 2224W        W 6288   3.175   5.301   0.425
 2225W        W 6289   8.668   2.259   0.810
 2226W        W 6290   0.671   7.929  10.982
 2227W        W 6291   8.573   9.043   8.663
 2228W        W 6292   3.361   3.063   3.168
 2229W        W 6293   2.299   0.249   2.705
 2230W        W 6294   5.226   2.132   2.635
 2231W        W 6295   6.930   8.029   9.867
 2232W        W 6296   1.898   0.137   2.218
 2233W        W 6297   2.874   9.889  10.881
 2234W        W 6298   4.024   9.111  11.482
 2235W        W 6299   1.878   2.178   3.690
 2236W        W 6300   7.095   4.029   3.538
 2237W        W 6301   0.298   0.513   9.773
 2238W        W 6302   9.001   2.326   2.845
 2239W        W 6303   2.876   2.685   1.412
 2240W        W 6304   7.127   7.925   3.016
 2241W        W 6305   3.220   1.828   9.206
 2242W        W 6306   4.643   1.289   1.993
 2243W        W 6307   9.432   9.245   9.615
 2244W        W 6308   0.420   0.744   8.758
 2245W        W 6309  10.295   8.314  11.242
 2246W        W 6310   5.406   0.402   8.845
 2247W        W 6311   0.818  10.324  11.482
 2248W        W 6312   8.449   9.509   0.705
 2249W        W 6313   7.964   2.306   3.505
 2250W        W 6314   3.490   8.905  10.328
 2251W        W 6315   4.215   6.040   0.958
 2252W        W 6316   5.271  10.494   9.769
 2253W        W 6317   7.347   8.390   3.161
 2254W        W 6318   6.649   0.223   2.452
 2255W        W 6319   1.606   9.577   2.084
 2256W        W 6320   4.361   1.961  10.464
 2257W        W 6321   1.520   4.701   2.274
 2258W        W 6322   3.163   9.460   8.999
 2259W        W 6323   8.958   1.117  11.364
 2260W        W 6324   3.070   2.199  11.744
 2261W        W 6325   3.371   8.360   9.335
 2262W        W 6326   1.397   7.554   9.497
 2263W        W 6327   0.930   7.389  11.912
 2264W        W 6328   5.150   9.045   2.819
 2265W        W 6329   6.945   6.953   1.846
 2266W        W 6330   1.866   2.147  10.354
 2267W        W 6331   8.997   0.532   0.300
 2268W        W 6332   7.582   6.835   9.801
 2269W        W 6333   6.666   1.163   0.008
 2270W        W 6334   1.417   5.139  11.794
 2271W        W 6335   4.577   9.297  11.056
 2272W        W 6336   4.658   9.365   3.422
 2273W        W 6337   3.368   7.876  11.548
 2274W        W 6338   1.054  10.475  11.925
 2275W        W 6339   8.916   1.535   0.274
 2276W        W 6340   3.630   5.553   1.966
 2277W        W 6341   6.201   1.863  10.459
 2278W        W 6342   3.034   6.913   3.132
 2279W        W 6343   1.082   1.904   1.396
 2280W        W 6344   7.339   9.662  11.048
 2281W        W 6345   8.184   9.473   2.880
 2282W        W 6346   3.277   4.268   8.801
 2283W        W 6347   2.279   9.079  11.440
 2284W        W 6348   1.540   6.185   2.909
 2285W        W 6349   8.182   2.561  11.020
 2286W        W 6350   5.665   2.047  11.990
 2287W        W 6351   1.566   1.776   1.267
 2288W        W 6352   0.416   7.116  10.649
 2289W        W 6353   0.443   2.122  11.453
 2290W        W 6354   1.375   3.898   8.632
 2291W        W 6355   1.954   7.009   0.964
 2292W        W 6356   0.966   0.274   0.631
 2293W        W 6357   3.711   2.195   3.018
 2294W        W 6358   8.977   4.164   0.429
 2295W        W 6359   2.384   8.616   0.356
 2296W        W 6360   1.771   4.246  10.986
 2297W        W 6361   1.936   8.444   8.577
 2298W        W 6362   4.248   7.046   0.194
 2299W        W 6363   9.212   7.473   2.325
 2300W        W 6364   0.676   3.951   2.918
 2301W        W 6365   2.144   7.996   9.692
 2302W        W 6366   7.118   6.727   4.075
 2303W        W 6367   9.436   6.169   0.709
 2304W        W 6368   7.685   9.713   0.846
 2305W        W 6369   1.063   9.432   2.789
 2306W        W 6370   6.886   1.285   2.198
 2307W        W 6371   2.330   4.834   3.294
 2308W        W 6372   3.827   8.464   1.405
 2309W        W 6373   8.907   8.389   0.960
 2310W        W 6374   3.972   6.713   1.981
 2311W        W 6375   9.201   3.602   8.876
 2312W        W 6376   5.543   9.876   2.179
 2313W        W 6377   0.465   6.148  11.655
 2314W        W 6378   8.807   6.673   0.558
 2315W        W 6379   6.128   1.851  11.548
 2316W        W 6380  10.470   1.339   1.970
 2317W        W 6381   9.844   1.748  10.006
 2318W        W 6382   9.992   1.167   0.005
 2319W        W 6383   8.995   1.980   1.623
 2320W        W 6384   7.984   2.714   1.716
 2321W        W 6385   1.560   5.373   0.224
 2322W        W 6386   0.862   8.048  10.541
 2323W        W 6387   6.685   7.997   0.257
 2324W        W 6388   5.467   5.221   2.685
 2325W        W 6389  10.469   8.459   2.653
 2326W        W 6390  10.028   2.611   3.315
 2327W        W 6391   3.131   3.539   1.737
 2328W        W 6392   9.852   3.243  11.831
 2329W        W 6393   7.197   3.047   9.306
 2330W        W 6394   1.354   0.489   8.584
 2331W        W 6395   3.466   4.162  10.761
 2332W        W 6396   7.631   6.002   8.353
 2333W        W 6397   4.831   2.791   0.927
 2334W        W 6398   1.736   5.861   9.714
 2335W        W 6399   7.363   6.029   1.783
 2336W        W 6400   4.149   8.835   2.396
 2337W        W 6401   4.541   3.642  10.131
 2338W        W 6402   0.738   1.651   0.491
 2339W        W 6403   1.573   6.453   1.868
 2340W        W 6404   4.334   0.996  11.406
 2341W        W 6405   7.019   7.614  10.154
 2342W        W 6406   1.694   0.062   0.367
 2343W        W 6407   4.397   2.645  11.064
 2344W        W 6408   4.236   3.402  11.421
 2345W        W 6409   3.546   1.718   0.868
 2346W        W 6410   6.449   0.211   1.986
 2347W        W 6411   5.060   4.046   8.136
 2348W        W 6412   3.197   4.631  10.044
 2349W        W 6413   1.449   0.764  11.878
 2350W        W 6414   8.959   8.475  10.113
 2351W        W 6415   8.970   7.935   1.558
 2352W        W 6416   2.918   0.274   0.402
 2353W        W 6417   9.973   8.778  11.933
 2354W        W 6418   2.221   6.037  10.996
 2355W        W 6419   3.624   2.595   0.744
 2356W        W 6420  10.156   8.725  10.738
 2357W        W 6421   1.860   7.414  11.149
 2358W        W 6422   0.226   0.257   8.851
 2359W        W 6423   7.470   7.541  11.436
 2360W        W 6424   8.534   6.547  11.793
 2361W        W 6425   9.640   6.621   0.894
 2362W        W 6426   7.244   3.194   1.011
 2363W        W 6427   7.705   9.104   9.067
 2364W        W 6428   8.911   7.845  10.614
 2365W        W 6429   3.362   6.917   8.511
 2366W        W 6430   6.692   1.676  10.262
 2367W        W 6431   3.289   7.887   0.677
 2368W        W 6432   4.574   9.830   3.170
 2369W        W 6433   9.686  10.205   9.794
 2370W        W 6434   9.869   5.440  11.523
 2371W        W 6435   7.933  10.179   0.856
 2372W        W 6436   6.633   8.747   2.991
 2373W        W 6437   0.443   1.458   2.690
 2374W        W 6438   0.152   6.732  10.881
 2375W        W 6439   7.585   5.542   1.690
 2376W        W 6440   6.694   1.667   9.736
 2377W        W 6441   6.390   5.721   1.609
 2378W        W 6442   3.387   9.762  11.629
 2379W        W 6443   4.768   1.244  11.877
 2380W        W 6444   1.175   6.086   3.252
 2381W        W 6445   6.282   3.660   0.936
 2382W        W 6446   8.140   3.065  10.829
 2383W        W 6447   7.159   5.472   2.807
 2384W        W 6448   5.667  10.277   2.460
 2385W        W 6449   1.372   6.573  10.197
 2386W        W 6450   8.107   7.543  10.323
 2387W        W 6451   8.023   2.260   2.484
 2388W        W 6452   7.055   3.360  11.582
 2389W        W 6453   2.743   8.807  10.051
 2390W        W 6454  10.075   0.156   1.616
 2391W        W 6455   1.850   6.471   3.175
 2392W        W 6456   1.664   9.217  10.768
 2393W        W 6457   2.704   4.465   0.042
 2394W        W 6458   4.489   6.618   2.702
 2395W        W 6459   1.402   7.219   1.519
 2396W        W 6460   2.240   6.016  10.451
 2397W        W 6461   7.421   4.551   1.318
 2398W        W 6462   4.699   9.359   0.068
 2399W        W 6463   8.761   5.209   3.226
 2400W        W 6464   9.786   6.957   0.537
 2401W        W 6465   4.849   5.021   1.208
 2402W        W 6466   3.156   6.424   8.339
 2403W        W 6467   2.588   3.869  11.933
 2404W        W 6468   7.491   7.500   1.850
 2405W        W 6469   6.936   0.870   1.898
 2406W        W 6470   9.474   1.507   0.726
 2407W        W 6471   7.528   5.470   1.188
 2408W        W 6472   5.036   9.657   2.166
 2409W        W 6473   2.006   2.871   9.458
 2410W        W 6474   6.907   5.598  11.522
 2411W        W 6475   9.818   5.609   0.045
 2412W        W 6476   4.263   8.348   9.195
 2413W        W 6477   2.288   2.235   2.780
 2414W        W 6478   6.996   4.194   0.186
 2415W        W 6479   0.381   7.555   3.367
 2416W        W 6480   7.012   9.856  11.770
 2417W        W 6481   5.106   5.393  11.506
 2418W        W 6482   3.825   6.481   9.636
 2419W        W 6483   2.935   9.872   9.477
 2420W        W 6484   7.934   3.332  11.622
 2421W        W 6485   3.535   4.319   9.508
 2422W        W 6486   0.801   1.153   0.967
 2423W        W 6487   7.068   5.800   4.104
 2424W        W 6488   3.786   9.888   8.596
 2425W        W 6489   4.201   7.944   0.680
 2426W        W 6490   9.087   2.372   0.561
 2427W        W 6491   8.462   2.843   1.561
 2428W        W 6492   9.387   4.586   2.091
 2429W        W 6493   8.203   1.032   1.846
 2430W        W 6494   2.962   9.243   3.138
 2431W        W 6495   5.008   0.363   3.074
 2432W        W 6496   8.524   7.994   1.846
 2433W        W 6497   8.121   6.614   9.526
 2434W        W 6498   5.200   4.636  10.518
 2435W        W 6499   6.042  10.134   9.405
 2436W        W 6500   8.331   1.712   0.267
 2437W        W 6501   1.926   7.371   1.802
 2438W        W 6502   3.249   9.403   0.572
 2439W        W 6503   3.979   1.157   3.522
 2440W        W 6504   9.840   1.273   9.282
 2441W        W 6505   5.905   4.100  11.419
 2442W        W 6506   8.047   5.629   1.876
 2443W        W 6507   7.503   8.201   2.720
 2444W        W 6508  10.292   7.967   2.650
 2445W        W 6509  10.144   6.760   0.883
 2446W        W 6510   5.722  10.290  10.675
 2447W        W 6511   5.662   0.731  11.699
 2448W        W 6512   4.224  10.319  10.840
 2449W        W 6513   3.719   6.934   2.416
 2450W        W 6514   7.040   9.965   3.668
 2451W        W 6515   3.272   3.810  11.503
 2452W        W 6516   1.198   5.654  11.365
 2453W        W 6517   2.114   3.169   0.783
 2454W        W 6518  10.484   7.004  10.411
 2455W        W 6519   4.019   2.264   9.919
 2456W        W 6520   5.916   2.658   9.521
 2457W        W 6521   3.576   6.566  11.325
 2458W        W 6522   4.727   3.192   9.372
 2459W        W 6523   3.849   2.450   2.601
 2460W        W 6524   6.400   6.671   3.662
 2461W        W 6525   0.187   6.592   2.609
 2462W        W 6526   8.639   6.523   3.432
 2463W        W 6527   4.563   7.986   9.479
 2464W        W 6528   3.660   1.362  11.840
 2465W        W 6529   5.702   8.001   8.708
 2466W        W 6530   0.848   5.036   1.271
 2467W        W 6531   0.976   3.288  10.927
 2468W        W 6532   6.540   4.367   1.397
 2469W        W 6533   6.990   2.016  10.962
 2470W        W 6534   7.615   6.690  10.352
 2471W        W 6535   4.113   9.631   9.250
 2472W        W 6536   5.021   7.741   1.599
 2473W        W 6537   1.134   8.970   3.574
 2474W        W 6538   4.086   3.112   1.053
 2475W        W 6539   1.314   1.466   3.281
 2476W        W 6540   3.827   9.855   9.612
 2477W        W 6541   3.301   1.353   1.678
 2478W        W 6542   8.465  10.255   0.240
 2479W        W 6543   3.271   8.941   2.868
 2480W        W 6544   8.028   8.204   1.995
 2481W        W 6545   0.734   9.035  10.362
 2482W        W 6546   7.305   2.846   3.423
 2483W        W 6547   9.236  10.324   0.550
 2484W        W 6548   5.959   0.335   1.916
 2485W        W 6549   7.159   4.188   1.577
 2486W        W 6550   6.145   9.095   3.213
 2487W        W 6551   8.659   3.575   8.990
 2488W        W 6552  10.478   5.307   0.383
 2489W        W 6553   8.951   2.492   1.515
 2490W        W 6554   6.488   1.934   8.713
 2491W        W 6555   6.188   7.803   3.166
 2492W        W 6556  10.016   9.218   0.841
 2493W        W 6557  10.458   8.001  10.250
 2494W        W 6558   7.974   7.309   0.795
 2495W        W 6559   3.286   9.964   8.867
 2496W        W 6560   5.985   9.120   9.545
 2497W        W 6561   8.828   0.436   3.059
 2498W        W 6562   4.397   7.044   8.410
 2499W        W 6563   1.174   8.530   2.274
 2500W        W 6564   8.633   7.043  11.785
 2501W        W 6565   5.238   8.683   1.149
 2502W        W 6566   3.612   3.834   3.120
 2503W        W 6567   6.041   1.225   1.696
 2504W        W 6568  10.386   5.722   3.258
 2505W        W 6569   3.281   0.251   2.133
 2506W        W 6570  10.412   5.752   0.690
 2507W        W 6571   9.509   2.669   3.375
 2508W        W 6572  10.074   3.036   0.365
 2509W        W 6573   1.690   7.080   3.219
 2510W        W 6574   3.622   6.732   0.694
 2511W        W 6575   8.155   7.089   9.713
 2512W        W 6576   4.212   7.028   2.347
 2513W        W 6577   5.622   8.926   9.193
 2514W        W 6578   9.302   3.322   1.435
 2515W        W 6579   8.846   7.132   2.198
 2516W        W 6580   3.528   7.511   0.030
 2517W        W 6581   2.786   6.450   1.362
 2518W        W 6582   3.065   3.146   0.907
 2519W        W 6583   8.594   3.312   0.627
 2520W        W 6584   7.464   1.382   9.195
 2521W        W 6585   0.484   9.429  10.576
 2522W        W 6586   7.357   6.744   1.528
 2523W        W 6587   5.337   3.923   4.341
 2524W        W 6588   1.257   9.433   1.752
 2525W        W 6589   8.034   3.796   9.804
 2526W        W 6590   8.164   7.058   9.166
 2527W        W 6591   1.269   0.477   9.479
 2528W        W 6592   5.585   3.179   1.014
 2529W        W 6593   1.687   2.194   0.946
 2530W        W 6594   8.450   0.226   3.470
 2531W        W 6595   2.853   8.353   1.224
 2532W        W 6596   5.424   9.900   8.602
 2533W        W 6597   0.775   6.123  10.372
 2534W        W 6598   6.705   0.126   3.364
 2535W        W 6599   2.304   6.257   1.264
 2536W        W 6600   8.459   2.179   3.311
 2537W        W 6601   2.249   0.445  10.730
 2538W        W 6602   3.217   2.727   2.819
 2539W        W 6603   0.353   0.190   2.007
 2540W        W 6604   7.510   7.690  10.060
 2541W        W 6605   7.009   8.362   9.084
 2542W        W 6606   7.282   9.576   3.400
 2543W        W 6607   2.382   0.794  10.387
 2544W        W 6608   4.693   8.371   1.923
 2545W        W 6609   5.561   8.114  11.773
 2546W        W 6610   0.197   3.613  11.499
 2547W        W 6611   8.897   9.122  11.082
 2548W        W 6612  10.385   6.504  10.518
 2549W        W 6613   0.298   2.822   8.828
 2550W        W 6614   0.051   1.652   9.888
 2551W        W 6615   1.421  10.039  11.227
 2552W        W 6616   4.490   5.137   1.547
 2553W        W 6617   6.123   2.552   2.162
 2554W        W 6618   3.248   0.905  11.931
 2555W        W 6619   2.138   6.642   9.847
 2556W        W 6620   8.078   4.113   1.826
 2557W        W 6621   8.012   8.177   2.538
 2558W        W 6622   7.055   8.574  10.506
 2559W        W 6623   7.615   2.301   1.688
 2560W        W 6624   9.311   4.034   2.731
 2561W        W 6625   9.968   4.225   0.958
 2562W        W 6626   7.467   9.448   0.430
 2563W        W 6627   9.049   0.771   0.783
 2564W        W 6628   3.079   5.621  10.344
 2565W        W 6629   6.449   5.414   8.636
 2566W        W 6630   5.680   3.025  11.948
 2567W        W 6631   4.267   0.784   1.390
 2568W        W 6632   2.761   9.276  11.270
 2569W        W 6633   3.615   2.721  11.269
 2570W        W 6634   7.185   9.361   0.931
 2571W        W 6635   5.697   1.875   9.978
 2572W        W 6636   3.676   2.129   0.548
 2573W        W 6637   0.010   5.204   9.067
 2574W        W 6638   4.652   9.831  11.268
 2575W        W 6639  10.111   4.983   1.984
 2576W        W 6640   7.468   9.306   1.767
 2577W        W 6641   4.280   7.592  10.801
 2578W        W 6642   3.178   4.587  11.912
 2579W        W 6643  10.192   4.962  10.503
 2580W        W 6644   5.605   5.523  11.230
 2581W        W 6645   0.490   4.619   2.886
 2582W        W 6646   8.121   3.886   0.316
 2583W        W 6647   2.412   8.507   2.508
 2584W        W 6648   1.306   4.181   9.396
 2585W        W 6649   7.967   0.792  11.370
 2586W        W 6650   3.378   0.889   1.918
 2587W        W 6651   5.659   5.004   0.707
 2588W        W 6652   1.971   1.625   1.563
 2589W        W 6653   4.067   5.765   9.186
 2590W        W 6654   6.548   8.446   1.258
 2591W        W 6655   3.681   6.667   8.844
 2592W        W 6656   1.802   1.055   0.168
 2593W        W 6657   5.122   7.354   3.032
 2594W        W 6658   6.143   8.646   2.918
 2595W        W 6659   1.382   5.881   0.262
 2596W        W 6660   3.059   6.520  11.360
 2597W        W 6661   0.864   9.308   8.981
 2598W        W 6662   3.116   9.957  10.263
 2599W        W 6663   2.518   7.197   1.908
 2600W        W 6664   0.396   7.746  10.148
 2601W        W 6665   7.269   3.654   0.771
 2602W        W 6666   2.921   1.715   1.431
 2603W        W 6667   1.968   3.072   3.228
 2604W        W 6668   3.732   1.870  10.760
 2605W        W 6669   9.363   2.840  10.377
 2606W        W 6670   0.856   1.386   1.452
 2607W        W 6671   1.309   3.486   2.012
 2608W        W 6672   3.059   8.816   2.421
 2609W        W 6673  10.282   9.864  10.308
 2610W        W 6674   3.780  10.434  11.707
 2611W        W 6675   1.403   5.211   9.185
 2612W        W 6676   1.320   8.299   0.062
 2613W        W 6677   6.079   4.789  10.151
 2614W        W 6678   1.337   2.341   3.562
 2615W        W 6679   3.521   5.020   3.667
 2616W        W 6680   3.982   5.725   0.168
 2617W        W 6681   6.695   3.659  10.511
 2618W        W 6682   8.452   1.858   9.901
 2619W        W 6683   2.720   6.726   2.749
 2620W        W 6684   4.244   9.867   0.719
 2621W        W 6685   8.201   6.502   1.274
 2622W        W 6686   8.947   0.105   9.501
 2623W        W 6687   5.079   9.403  10.246
 2624W        W 6688   6.510  10.306  11.105
 2625W        W 6689   7.223   7.275  11.795
 2626W        W 6690   6.596   1.237  11.016
 2627W        W 6691   2.023   1.845  11.221
 2628W        W 6692   9.570   5.510  10.772
 2629W        W 6693   0.503   4.656   2.354
 2630W        W 6694   9.411   4.732   1.557
 2631W        W 6695   8.466   4.247   9.001
 2632W        W 6696   8.311   8.789  10.446
 2633W        W 6697   6.750   8.446   9.607
 2634W        W 6698   6.451   8.122   9.365
 2635W        W 6699   2.254   3.401  11.970
 2636W        W 6700   6.436   7.917   9.917
 2637W        W 6701   0.677   5.401   2.832
 2638W        W 6702   2.781   0.752   8.590
 2639W        W 6703   8.609   0.483  10.808
 2640W        W 6704   7.502   6.218  11.509
 2641W        W 6705   1.964   0.833  10.928
 2642W        W 6706   6.064   9.961   3.266
 2643W        W 6707   8.916  10.415   2.192
 2644W        W 6708   6.418   5.511  11.654
 2645W        W 6709   7.062   4.428   9.417
 2646W        W 6710   8.609   5.903   0.456
 2647W        W 6711   5.807   9.921   0.890
 2648W        W 6712   1.925   3.892   2.663
 2649W        W 6713   7.384   2.251  11.235
 2650W        W 6714   5.665   7.828   1.885
 2651W        W 6715  10.270   0.778   8.626
 2652W        W 6716   1.436   8.478   8.666
 2653W        W 6717   9.837   3.850   0.649
 2654W        W 6718   0.870   2.214  11.732
 2655W        W 6719   9.722   0.260  11.723
 2656W        W 6720   2.132   0.827   3.330
 2657W        W 6721   4.844   6.867   1.881
 2658W        W 6722   0.267  10.380   0.313
 2659W        W 6723   1.622   0.736   9.976
 2660W        W 6724   9.240   2.725   0.206
 2661W        W 6725   8.912   0.627   2.141
 2662W        W 6726   4.394   6.549   8.170
 2663W        W 6727   4.030   2.898   9.079
 2664W        W 6728   8.558   3.360  10.766
 2665W        W 6729   9.934   3.522  10.539
 2666W        W 6730   8.891   4.523   9.165
 2667W        W 6731   0.506   9.051   1.643
 2668W        W 6732   5.146   0.412   0.201
 2669W        W 6733   8.320   7.988   8.616
 2670W        W 6734   4.401   1.660   3.618
 2671W        W 6735   7.710   0.319   9.409
 2672W        W 6736   8.922   4.721   3.129
 2673W        W 6737   3.816   5.366  11.865
 2674W        W 6738   2.823   2.116   1.730
 2675W        W 6739   7.509  10.501   9.037
 2676W        W 6740   2.526  10.164   9.360
 2677W        W 6741   7.815   5.306   0.769
 2678W        W 6742   6.558   7.724  11.828
 2679W        W 6743   3.087   4.302   9.276
 2680W        W 6744   4.793   7.343   0.372
 2681W        W 6745   7.920   8.037  11.806
 2682W        W 6746   3.802   3.323  10.544
 2683W        W 6747   2.182   5.716   9.046
 2684W        W 6748   0.014   6.102  11.889
 2685W        W 6749  10.204   0.301   2.573
 2686W        W 6750   3.223   9.112   9.953
 2687W        W 6751   9.443   4.735   1.028
 2688W        W 6752   6.004   1.255   2.220
 2689W        W 6753   8.690   6.702   8.656
 2690W        W 6754   2.853   2.875  10.813
 2691W        W 6755   5.084   8.156  11.891
 2692W        W 6756   9.312   2.876   0.675
 2693W        W 6757   1.384   4.168   1.451
 2694W        W 6758   7.409   9.508  10.254
 2695W        W 6759   4.076   0.591  10.358
 2696W        W 6760   4.272   1.909   8.926
 2697W        W 6761   8.956   5.614   2.950
 2698W        W 6762   4.508   2.844  10.590
 2699W        W 6763   2.815   4.564   2.025
 2700W        W 6764   7.655   8.494  11.140
 2701W        W 6765  10.279   2.342   1.966
 2702W        W 6766  10.259  10.417   0.338
 2703W        W 6767  10.170   2.668  11.503
 2704W        W 6768   7.883   2.253   8.993
 2705W        W 6769   8.097   0.914  11.892
 2706W        W 6770   4.088   5.106   2.928
 2707W        W 6771   3.290   4.655   8.460
 2708W        W 6772   8.504  10.230  10.426
 2709W        W 6773   8.134   5.682   9.793
 2710W        W 6774   3.197   3.964   3.429
 2711W        W 6775   9.520   6.231   1.232
 2712W        W 6776   5.007   1.257   9.714
 2713W        W 6777   3.039   8.268   3.125
 2714W        W 6778   0.413  10.005  11.384
 2715W        W 6779   0.725   4.828   9.321
 2716W        W 6780   1.865   4.707   3.053
 2717W        W 6781   8.343  10.129   3.573
 2718W        W 6782   2.448   8.206  11.251
 2719W        W 6783   7.140  10.466   1.756
 2720W        W 6784   2.869   1.856  10.992
 2721W        W 6785   1.170   5.098   0.888
 2722W        W 6786   6.397   5.285  10.808
 2723W        W 6787   5.657   6.513   2.202
 2724W        W 6788   4.544   1.475  10.438
 2725W        W 6789   2.455   1.223   2.634
 2726W        W 6790   4.136   7.413   9.923
 2727W        W 6791   5.449   1.319   8.919
 2728W        W 6792   3.709   5.992   2.221
 2729W        W 6793   6.114   0.804   1.977
 2730W        W 6794   0.273   6.351   9.751
 2731W        W 6795   6.234   8.494  11.440
 2732W        W 6796  10.320   8.967   1.180
 2733W        W 6797   4.234   2.494   3.466
 2734W        W 6798   7.667   1.175  10.085
 2735W        W 6799  10.188   2.627   0.687
 2736W        W 6800   3.658   6.518   1.182
 2737W        W 6801   6.240   6.932   2.826
 2738W        W 6802   9.017   1.296   0.764
 2739W        W 6803   9.117   7.925   2.068
 2740W        W 6804   2.787   9.003   1.674
 2741W        W 6805   2.642   1.481  11.805
 2742W        W 6806   0.300   9.458   1.994
 2743W        W 6807   1.306   6.846   0.433
 2744W        W 6808   4.787   2.138   3.603
 2745W        W 6809  10.226   3.064   1.211
 2746W        W 6810   5.507   3.793   9.967
 2747W        W 6811   7.815   4.207  10.037
 2748W        W 6812   4.873   1.677  11.474
 2749W        W 6813   6.470  10.336   0.408
 2750W        W 6814   2.534   1.881   0.971
 2751W        W 6815   7.031   7.875   8.866
 2752W        W 6816   0.305  10.209  10.942
 2753W        W 6817  10.450   6.115   9.386
 2754W        W 6818   3.790   7.932  11.872
 2755W        W 6819   1.204   0.890   0.824
 2756W        W 6820   5.218   1.368   3.380
 2757W        W 6821   2.283   5.240   1.398
 2758W        W 6822   2.731   4.998   1.352
 2759W        W 6823   0.785   9.572   9.412
 2760W        W 6824   3.390   4.451   4.295
 2761W        W 6825   4.054   9.301  10.962
 2762W        W 6826   3.033   7.123  10.879
 2763W        W 6827   0.897   2.046   3.634
 2764W        W 6828   9.623   5.139   9.585
 2765W        W 6829   8.608   3.793   0.397
 2766W        W 6830   0.409  10.469   9.246
 2767W        W 6831   4.541   5.700  10.051
 2768W        W 6832   3.130  10.453   8.720
 2769W        W 6833   7.098   8.823   3.196
 2770W        W 6834   7.945   2.770   9.462
 2771W        W 6835   9.308   9.072  11.692
 2772W        W 6836   5.600   0.916   9.727
 2773W        W 6837   8.268   4.182  11.770
 2774W        W 6838   8.822   5.487   9.142
 2775W        W 6839   5.068   3.437   4.235
 2776W        W 6840   4.389   4.304  11.332
 2777W        W 6841   9.500   5.936  11.802
 2778W        W 6842   2.766   4.397   9.776
 2779W        W 6843   2.166   6.055   3.202
 2780W        W 6844   5.147   1.077   1.407
 2781W        W 6845   7.767  10.418   9.855
 2782W        W 6846   4.688   2.219   8.854
 2783W        W 6847   0.410   0.014   9.768
 2784W        W 6848   8.483   0.776   2.766
 2785W        W 6849   6.570   7.422  11.417
 2786W        W 6850   4.372   8.774  11.649
 2787W        W 6851   3.781   9.951   0.947
 2788W        W 6852   8.418   2.631   2.018
 2789W        W 6853   9.568   8.655   1.606
 2790W        W 6854   2.082   9.397  10.510
 2791W        W 6855   0.045   4.530   2.587
 2792W        W 6856   8.420   4.706   3.261
 2793W        W 6857   8.529   9.758   8.483
 2794W        W 6858   2.684   7.846  10.820
 2795W        W 6859   4.423   1.993   0.999
 2796W        W 6860   6.031   7.673   2.694
 2797W        W 6861   1.692   6.352   9.871
 2798W        W 6862   7.974   0.338   1.103
 2799W        W 6863   1.829   0.482   1.217
 2800W        W 6864   8.072   1.461   9.866
 2801W        W 6865   7.436   2.650  10.009
 2802W        W 6866   8.893   3.984   2.451
 2803W        W 6867   3.168   0.227   3.219
 2804W        W 6868   9.963   5.659  11.058
 2805W        W 6869   2.878   5.653   3.462
 2806W        W 6870   8.802   4.215   9.994
 2807W        W 6871   9.902   7.073  11.123
 2808W        W 6872   8.390   5.827   2.658
 2809W        W 6873   8.350   3.530   2.329
 2810W        W 6874   4.596   2.769   9.617
 2811W        W 6875   4.524   6.164   9.838
 2812W        W 6876   0.415   9.786   0.764
 2813W        W 6877   0.491   4.629  11.054
 2814W        W 6878   1.748   4.609   1.487
 2815W        W 6879   5.274   8.413   9.892
 2816W        W 6880   5.505   4.645   1.733
 2817W        W 6881   0.880   4.505   8.978
 2818W        W 6882   2.827   8.617   8.861
 2819W        W 6883   0.981   0.987  10.714
 2820W        W 6884   0.344   7.502   9.686
 2821W        W 6885   4.755   4.624   2.973
 2822W        W 6886   5.102   5.898   1.825
 2823W        W 6887   8.428   4.250  10.332
 2824W        W 6888   6.986   9.407   1.959
 2825W        W 6889   2.255   6.476   3.501
 2826W        W 6890   5.252   1.397  11.179
 2827W        W 6891   7.411   4.194   0.499
 2828W        W 6892   0.301   8.849   2.634
 2829W        W 6893   2.464   0.250   1.020
 2830W        W 6894   7.880   1.355   2.590
 2831W        W 6895   8.202   6.000   2.207
 2832W        W 6896  10.210   8.879  10.264
 2833W        W 6897   1.373   8.813  10.907
 2834W        W 6898   4.259   1.249  10.971
 2835W        W 6899   1.879   8.437   1.215
 2836W        W 6900   3.919   8.805   9.499
 2837W        W 6901   5.242   2.369   3.688
 2838W        W 6902   0.825   9.025   1.148
 2839W        W 6903   7.394   1.831   1.827
 2840W        W 6904   7.694   9.523   8.764
 2841W        W 6905   5.959   0.431   8.624
 2842W        W 6906   8.029   3.826  11.466
 2843W        W 6907   1.314   4.461  10.977
 2844W        W 6908   0.413   4.977   0.676
 2845W        W 6909   8.908   5.795   0.064
 2846W        W 6910   6.990   1.347   8.978
 2847W        W 6911   7.801   9.855  11.156
 2848W        W 6912   6.855   8.521   0.404
 2849W        W 6913   5.160   0.836   9.969
 2850W        W 6914   5.593   5.022  10.338
 2851W        W 6915   3.636   8.581   9.945
 2852W        W 6916   8.784  10.374   1.680
 2853W        W 6917   2.569   3.566   0.330
 2854W        W 6918   8.489   1.471   9.562
 2855W        W 6919   5.029   5.695  10.902
 2856W        W 6920   8.587   9.114   1.013
 2857W        W 6921   3.353   2.642  11.700
 2858W        W 6922   0.111   7.429   2.443
 2859W        W 6923   5.687   2.157  10.419
 2860W        W 6924   5.877   6.054   9.022
 2861W        W 6925   9.472   6.638   9.716
 2862W        W 6926   1.172   4.721   9.978
 2863W        W 6927   9.377   2.298   2.477
 2864W        W 6928   4.689   4.622   8.897
 2865W        W 6929   4.208   2.803   2.671
 2866W        W 6930   3.115   5.322   1.402
 2867W        W 6931   0.913   6.997   2.236
 2868W        W 6932   8.412   0.265   0.249
 2869W        W 6933   1.738   1.240  10.737
 2870W        W 6934  10.417   8.110   0.527
 2871W        W 6935   7.202  10.000   9.734
 2872W        W 6936   3.562   2.867  10.540
 2873W        W 6937   4.105   4.615   4.213
 2874W        W 6938   3.937  10.315  10.343
 2875W        W 6939   0.436   9.972   9.360
 2876W        W 6940   6.084  10.425   2.190
 2877W        W 6941   6.544   8.594  10.590
 2878W        W 6942   2.463   0.572   8.977
 2879W        W 6943   5.599   5.996   1.967
 2880W        W 6944   7.594   4.024   1.939
 2881W        W 6945   9.479   8.567  11.813
 2882W        W 6946   1.899   0.324   9.820
 2883W        W 6947   8.866   7.528   1.858
 2884W        W 6948   7.543   4.191   3.319
 2885W        W 6949   3.229   7.854   9.049
 2886W        W 6950   3.704   8.705   0.402
 2887W        W 6951   1.245   2.402   8.646
 2888W        W 6952   1.218   2.423   0.944
 2889W        W 6953   3.757   9.067   9.906
 2890W        W 6954   0.356   3.248   0.299
 2891W        W 6955   4.367   2.631  11.732
 2892W        W 6956   0.248   7.417   9.190
 2893W        W 6957   8.531   7.511  10.615
 2894W        W 6958   5.253   6.170   2.288
 2895W        W 6959  10.397   0.444   0.669
 2896W        W 6960   1.353   1.198   9.957
 2897W        W 6961   7.015   5.683   8.225
 2898W        W 6962   4.207   8.272  11.710
 2899W        W 6963  10.386   5.444   2.169
 2900W        W 6964   4.490   6.541   9.002
 2901W        W 6965   4.229   4.897   9.104
 2902W        W 6966   1.384   8.519   1.267
 2903W        W 6967   3.458   5.369  11.509
 2904W        W 6968   3.246   3.326  10.460
 2905W        W 6969   3.650   4.034   9.923
 2906W        W 6970   1.787   9.874   1.702
 2907W        W 6971   4.034   2.090   9.417
 2908W        W 6972   9.353   7.516  10.105
 2909W        W 6973   7.551   0.594   3.567
 2910W        W 6974   2.046   9.611   2.350
 2911W        W 6975   0.617   5.373   0.977
 2912W        W 6976   0.442   3.316   8.989
 2913W        W 6977   6.606   6.001   8.292
 2914W        W 6978   2.433   1.682  10.797
 2915W        W 6979   9.220   7.532   0.824
 2916W        W 6980   8.963   1.197  11.886
 2917W        W 6981   6.048   4.655   9.582
 2918W        W 6982   3.115   5.672   9.403
 2919W        W 6983   6.738   6.414   0.426
 2920W        W 6984   0.019   0.760   9.081
 2921W        W 6985   5.527   1.804   3.021
 2922W        W 6986   3.781   5.481   9.816
 2923W        W 6987   6.988   9.395   9.505
 2924W        W 6988   5.650   7.507   8.547
 2925W        W 6989   8.452   9.373   1.451
 2926W        W 6990   2.129   8.871  10.543
 2927W        W 6991   1.700   9.393   1.479
 2928W        W 6992   9.873   5.881   3.261
 2929W        W 6993   1.073   9.429   3.314
 2930W        W 6994   6.497   4.198   3.748
 2931W        W 6995   6.514   8.923  10.993
 2932W        W 6996   6.777   3.619   0.851
 2933W        W 6997   1.752   3.566  11.934
 2934W        W 6998   1.508   8.059   1.013
 2935W        W 6999   0.775   5.692   1.985
 2936W        W 7000   1.705   1.772   2.854
 2937W        W 7001   7.233   6.723   9.382
 2938W        W 7002   2.170   5.688  11.384
 2939W        W 7003   4.772   9.955  10.784
 2940W        W 7004   7.808   5.098  10.357
 2941W        W 7005   9.762   5.034   0.433
 2942W        W 7006   3.415   8.831   9.545
 2943W        W 7007  10.412   8.860  11.727
 2944W        W 7008   6.428   5.591   9.928
 2945W        W 7009   1.166   4.053   2.822
 2946W        W 7010   9.494   9.131   1.821
 2947W        W 7011   1.854  10.242   9.234
 2948W        W 7012   8.362   4.655  11.941
 2949W        W 7013   4.059  10.461   0.152
 2950W        W 7014   2.570   1.610   1.803
 2951W        W 7015   0.309   9.091   9.839
 2952W        W 7016   8.494   1.217   0.077
 2953W        W 7017   5.066  10.386   0.906
 2954W        W 7018   7.446   0.343   9.842
 2955W        W 7019   6.039   9.542   2.980
 2956W        W 7020   8.789   4.525  11.005
 2957W        W 7021   8.503   4.709  10.052
 2958W        W 7022   0.976   2.614   0.055
 2959W        W 7023   6.688   2.411   1.313
 2960W        W 7024   3.842   2.214   0.061
 2961W        W 7025   7.062   4.643   2.434
 2962W        W 7026   6.002   6.153  10.872
 2963W        W 7027   2.494   3.030   3.327
 2964W        W 7028   6.658   7.270   9.121
 2965W        W 7029  10.265   8.779   0.698
 2966W        W 7030   4.130   0.012  11.314
 2967W        W 7031   2.649  10.424   0.671
 2968W        W 7032   7.915   6.357   8.587
 2969W        W 7033   2.705   9.047   2.715
 2970W        W 7034   0.704   2.184   9.500
 2971W        W 7035   5.989   3.764   1.814
 2972W        W 7036   2.149   2.857  10.406
 2973W        W 7037   7.648   5.982   7.840
 2974W        W 7038  10.441   3.876   3.243
 2975W        W 7039   1.359   1.198  11.048
 2976W        W 7040   2.619   8.382  11.734
 2977W        W 7041   2.867   4.150   2.347
 2978W        W 7042   1.371   7.197   2.297
 2979W        W 7043   9.327   4.270   9.022
 2980W        W 7044   9.011   7.095   8.611
 2981W        W 7045   9.937   5.734   0.948
 2982W        W 7046   7.571   6.776   2.400
 2983W        W 7047   7.093   5.245   7.956
 2984W        W 7048   4.100   3.654   9.355
 2985W        W 7049   2.169   7.957   3.001
 2986W        W 7050   8.570   0.253   8.875
 2987W        W 7051   0.293   8.429   2.218
 2988W        W 7052   9.599   8.088  11.419
 2989W        W 7053   2.818   9.547  10.334
 2990W        W 7054   3.854   2.673  11.770
 2991W        W 7055   8.885   7.307   2.701
 2992W        W 7056   2.355   2.543   0.191
 2993W        W 7057   8.292   8.755   3.224
 2994W        W 7058   1.772   3.334  10.512
 2995W        W 7059  10.378   0.588  10.981
 2996W        W 7060   1.127   0.697   9.992
 2997W        W 7061   9.436   1.301  11.325
 2998W        W 7062   9.505   6.082   9.480
 2999W        W 7063   6.118   4.250   1.712
 3000W        W 7064   5.406   7.107   8.230
 3001W        W 7065   5.583   9.334   2.831
 3002W        W 7066   0.905   8.162   1.694
 3003W        W 7067   4.632   7.512   0.822
 3004W        W 7068   4.126   3.803  10.383
 3005W        W 7069   0.267   0.726   0.452
 3006W        W 7070   3.675   7.467   1.374
 3007W        W 7071   3.916   5.250   8.089
 3008W        W 7072   1.252   8.542   1.771
 3009W        W 7073   4.764   2.235   1.723
 3010W        W 7074   6.525   2.224  10.974
 3011W        W 7075   8.957   8.208   2.477
 3012W        W 7076   9.050   3.636   3.424
 3013W        W 7077  10.434   3.815   9.373
 3014W        W 7078   6.605   8.184   0.771
 3015W        W 7079   8.864   9.475   0.276
 3016W        W 7080   5.651   8.412   9.024
 3017W        W 7081   2.241   3.758   9.274
 3018W        W 7082   9.124   6.517  10.065
 3019W        W 7083   3.358   3.155   9.598
 3020W        W 7084   5.230   1.786   9.334
 3021W        W 7085   3.992   8.025  10.758
 3022W        W 7086   6.920   4.242  10.870
 3023W        W 7087   0.858   8.021   3.297
 3024W        W 7088   8.348   9.737  10.411
 3025W        W 7089   5.002   7.095  10.449
 3026W        W 7090   0.962   0.925   0.018
 3027W        W 7091   0.893  10.404   9.070
 3028W        W 7092   7.806   4.016   8.969
 3029W        W 7093   3.708   5.438   3.961
 3030W        W 7094   6.529   2.639  11.395
 3031W        W 7095   8.700   7.596   3.591
 3032W        W 7096   6.929   1.780   0.218
 3033W        W 7097   1.246   3.962  10.924
 3034W        W 7098   4.064   2.995   8.549
 3035W        W 7099  10.374   9.733   1.920
 3036W        W 7100   3.054   2.624   0.099
 3037W        W 7101   0.461   0.951   3.544
 3038W        W 7102   0.059   2.644   2.837
 3039W        W 7103   7.598   2.234   2.198
 3040W        W 7104   1.284   8.102   3.030
 3041W        W 7105   9.450   7.333  11.101
 3042W        W 7106   1.786   4.419   3.487
 3043W        W 7107   3.146   1.787   2.428
 3044W        W 7108   4.406   2.006  11.402
 3045W        W 7109   4.519   1.312   8.939
 3046W        W 7110   2.206   0.666   0.899
 3047W        W 7111   9.958   5.859  10.085
 3048W        W 7112   9.377   3.805   9.310
 3049W        W 7113   3.451   4.311   3.147
 3050W        W 7114   6.662   1.130   3.137
 3051W        W 7115   9.351   1.992   9.371
 3052W        W 7116   5.656   0.328   0.479
 3053W        W 7117   8.382   7.355   0.346
 3054W        W 7118   3.693   4.584   3.906
 3055W        W 7119   0.818   6.162   1.786
 3056W        W 7120   0.204   5.581   8.748
 3057W        W 7121   9.022   6.230   0.372
 3058W        W 7122   8.731   3.541  10.243
 3059W        W 7123   8.573   6.934  11.262
 3060W        W 7124   9.870   6.610  11.936
 3061W        W 7125   3.804   4.628   2.914
 3062W        W 7126   4.948   9.021   0.362
 3063W        W 7127   6.717  10.044   9.885
 3064W        W 7128   6.216   5.883   8.666
 3065W        W 7129   8.997   7.468   1.359
 3066W        W 7130   5.567   7.945   0.805
 3067W        W 7131   5.319   3.104  10.400
 3068W        W 7132   5.957   1.389   0.699
 3069W        W 7133   5.784   3.638   0.948
 3070W        W 7134   1.383   6.352   0.438
 3071W        W 7135   3.639   3.109  11.573
 3072W        W 7136   0.568   6.385   2.909
 3073W        W 7137   4.624   6.985   0.937
 3074W        W 7138   0.829   6.899  11.855
 3075W        W 7139   9.438   3.801   0.944
 3076W        W 7140   7.539   1.154   2.925
 3077W        W 7141   7.027   2.144   1.021
 3078W        W 7142   8.909   4.033  10.988
 3079W        W 7143   3.588   7.572   8.787
 3080W        W 7144   3.292   0.746   9.272
 3081W        W 7145   3.684   4.168   1.078
 3082W        W 7146  10.342   7.471   1.710
 3083W        W 7147   6.057   9.939   1.319
 3084W        W 7148  10.417  10.352   9.086
 3085W        W 7149   8.617   8.080   0.589
 3086W        W 7150   7.585   7.564   1.014
 3087W        W 7151   5.180   7.427   8.809
 3088W        W 7152   2.226   1.437   2.177
 3089W        W 7153   6.454   4.058  10.758
 3090W        W 7154   9.928   8.428  10.407
 3091W        W 7155   1.609   4.316   2.768
 3092W        W 7156   2.388   8.138   1.896
 3093W        W 7157   8.364   3.132  11.815
 3094W        W 7158   6.728  10.232  11.950
 3095W        W 7159   9.898   3.521  10.028
 3096W        W 7160   5.245   4.537   1.281
 3097W        W 7161   3.034   1.814   3.577
 3098W        W 7162   0.952   4.205   8.556
 3099W        W 7163   7.198   8.083   3.557
 3100W        W 7164   6.846   8.329   3.181
 3101W        W 7165   5.544   6.377  10.724
 3102W        W 7166   2.108   8.965   3.220
 3103W        W 7167   6.055   8.531   1.375
 3104W        W 7168   1.860   4.539  11.992
 3105W        W 7169   9.972   0.389   9.720
 3106W        W 7170   6.122   8.154   2.798
 3107W        W 7171   3.887   5.905   4.107
 3108W        W 7172   5.046   5.133   9.608
 3109W        W 7173   7.005   9.008  10.784
 3110W        W 7174   8.914   1.725  10.077
 3111W        W 7175   7.323   0.958   1.571
 3112W        W 7176   9.880   4.844   9.019
 3113W        W 7177   2.865   2.713   3.222
 3114W        W 7178   7.899   2.465  10.046
 3115W        W 7179   4.701   1.073  10.710
 3116W        W 7180   7.134   5.708  10.516
 3117W        W 7181   2.732   3.212   2.475
 3118W        W 7182   6.007   5.236   9.898
 3119W        W 7183   1.341   6.694   2.504
 3120W        W 7184   7.794   5.202   3.211
 3121W        W 7185   9.757   1.726   9.483
 3122W        W 7186   6.527   3.147  11.214
 3123W        W 7187   7.027   0.928   3.468
 3124W        W 7188   5.983   0.028   0.241
 3125W        W 7189   7.420   8.527   0.382
 3126W        W 7190   8.484   4.773   8.922
 3127W        W 7191   8.610   5.758   1.281
 3128W        W 7192   8.913   6.469   2.450
 3129W        W 7193   7.461   2.641   2.481
 3130W        W 7194   3.728   5.106  11.137
 3131W        W 7195   3.005   9.386  10.800
 3132W        W 7196   4.041   0.436   9.218
 3133W        W 7197   4.011   1.831   2.317
 3134W        W 7198   8.143   0.533   1.953
 3135W        W 7199   8.139   5.561  10.298
 3136W        W 7200   3.791  10.374   3.233
 3137W        W 7201   5.131   9.003   9.442
 3138W        W 7202   0.176   3.098  11.536
 3139W        W 7203   8.829   5.068  10.890
 3140W        W 7204   0.893   9.986   0.672
 3141W        W 7205   5.456   5.127   3.199
 3142W        W 7206   7.916   0.767   9.209
 3143W        W 7207   9.560   1.215   9.756
 3144W        W 7208   2.270   4.336   9.078
 3145W        W 7209   9.301   8.050  11.862
 3146W        W 7210   5.134   9.960   3.042
 3147W        W 7211   5.579   5.357  10.742
 3148W        W 7212   2.259   6.588   2.541
 3149W        W 7213   5.689   2.143  11.487
 3150W        W 7214   5.917   1.398   9.107
 3151W        W 7215   7.703   5.180   8.439
 3152W        W 7216   9.836   0.235   3.412
 3153W        W 7217   0.478   4.236   8.796
 3154W        W 7218  10.396   2.330  10.375
 3155W        W 7219   4.833   6.925   3.009
 3156W        W 7220   9.434   1.016  10.894
 3157W        W 7221   9.903   9.380   1.967
 3158W        W 7222   3.692   2.623   8.775
 3159W        W 7223   7.923   6.834   8.769
 3160W        W 7224   4.666   5.263  11.294
 3161W        W 7225   1.881   7.555  11.657
 3162W        W 7226   4.606   7.299   3.291
 3163W        W 7227   6.237   6.413  11.880
 3164W        W 7228   8.491   5.553   2.208
 3165W        W 7229   0.796   0.322  11.316
 3166W        W 7230   5.178   2.311  11.508
 3167W        W 7231   5.009   8.479   3.489
 3168W        W 7232   2.637   0.832   9.948
 3169W        W 7233   8.759   7.688   2.358
 3170W        W 7234   1.051   1.925   9.906
 3171W        W 7235   8.391  10.365   9.184
 3172W        W 7236   6.096   3.779   2.697
 3173W        W 7237   9.820   9.961   2.608
 3174W        W 7238   7.433   9.811   2.959
 3175W        W 7239   6.903   5.203  10.738
 3176W        W 7240   9.444   3.698   3.088
 3177W        W 7241   4.172   7.257  10.417
 3178W        W 7242   8.539   7.841  10.239
 3179W        W 7243   9.332   1.096   3.119
 3180W        W 7244   1.354   2.753   9.954
 3181W        W 7245   2.173   3.981  10.820
 3182W        W 7246   2.212   5.441   0.359
 3183W        W 7247   4.769   2.745   1.458
 3184W        W 7248   6.194   5.567   9.483
 3185W        W 7249   6.924   0.236  11.771
 3186W        W 7250   0.604   6.338   8.514
 3187W        W 7251   1.855   3.388   9.299
 3188W        W 7252   5.119   6.113   9.591
 3189W        W 7253   6.409   5.107  11.304
 3190W        W 7254   2.334   5.548  10.903
 3191W        W 7255   8.689   5.527  10.579
 3192W        W 7256   0.806   7.457  11.046
 3193W        W 7257   4.535   1.749   0.549
 3194W        W 7258   1.942   2.750   1.560
 3195W        W 7259   0.703   5.234   3.305
 3196W        W 7260   8.608   7.569  11.944
 3197W        W 7261   9.640   1.338   3.472
 3198W        W 7262   2.424   9.116   0.282
 3199W        W 7263   6.053   6.533   9.001
 3200W        W 7264   4.699   2.440  11.399
 3201W        W 7265   2.303   9.143  10.948
 3202W        W 7266   9.075   0.250  10.979
 3203W        W 7267   1.041   1.248   0.501
 3204W        W 7268   7.209   6.157   8.080
 3205W        W 7269   0.520   0.297   3.238
 3206W        W 7270   9.132   8.403   1.500
 3207W        W 7271   6.997   5.954   3.618
 3208W        W 7272   8.326   7.087  10.237
 3209W        W 7273   1.422   3.533  11.114
 3210W        W 7274   3.728   3.585  11.431
 3211W        W 7275   8.109   1.867   9.529
 3212W        W 7276   1.229   2.362   2.303
 3213W        W 7277   5.243   2.408   1.640
 3214W        W 7278   1.242   1.972   2.666
 3215W        W 7279   8.896   9.822   9.716
 3216W        W 7280   9.852  10.457   2.400
 3217W        W 7281   3.417   9.893   0.517
 3218W        W 7282   4.530   5.555  10.880
 3219W        W 7283   3.811   4.378   0.586
 3220W        W 7284   5.312   2.851   0.712
 3221W        W 7285   7.937   7.910   8.967
 3222W        W 7286   0.187   6.447   0.221
 3223W        W 7287   5.216   6.716  10.946
 3224W        W 7288   3.483   5.482   4.417
 3225W        W 7289   7.828   4.413   1.012
 3226W        W 7290   4.737   5.539   3.489
 3227W        W 7291   9.823   3.628   2.200
 3228W        W 7292   7.999   1.316  11.372
 3229W        W 7293   2.180   5.222   2.519
 3230W        W 7294   5.791   0.351   0.969
 3231W        W 7295   0.259   9.074   3.115
 3232W        W 7296   0.934   8.268   9.345
 3233W        W 7297   3.847   8.294   2.797
 3234W        W 7298   2.746  10.473   2.712
 3235W        W 7299   8.640   5.013   1.786
 3236W        W 7300   3.575   3.065   0.955
 3237W        W 7301  10.023   0.787   2.697
 3238W        W 7302   6.136   4.343  10.484
 3239W        W 7303   8.431   4.076   3.254
 3240W        W 7304   0.008  10.353   8.575
 3241W        W 7305   7.377   3.518   9.483
 3242W        W 7306   9.273   8.082   1.133
 3243W        W 7307   5.566   5.232   8.965
 3244W        W 7308   4.181   8.523  10.710
 3245W        W 7309   1.948   0.223   0.793
 3246W        W 7310   1.003   0.773   2.691
 3247W        W 7311   2.695   0.228   8.675
 3248W        W 7312   8.419   9.055   9.727
 3249W        W 7313   9.937   7.554   0.258
 3250W        W 7314  10.304   9.340  11.730
 3251W        W 7315   0.274   4.737   9.084
 3252W        W 7316   3.773   9.433   1.139
 3253W        W 7317   4.719  10.341  11.103
 3254W        W 7318   2.691   6.007   1.058
 3255W        W 7319   2.428   0.370   0.522
 3256W        W 7320   9.350   0.857  10.394
 3257W        W 7321   5.993   9.533  11.503
 3258W        W 7322   0.736   1.462  10.783
 3259W        W 7323   6.894   7.215  10.452
 3260W        W 7324   6.156   7.490   9.829
 3261W        W 7325  10.062   1.784   0.782
 3262W        W 7326   6.235   3.939   9.236
 3263W        W 7327   8.523   6.672   9.855
 3264W        W 7328   2.150   0.578   2.347
 3265W        W 7329   4.079   8.436   3.265
 3266W        W 7330   4.166   5.597   3.752
 3267W        W 7331   1.349   3.261   9.264
 3268W        W 7332   8.924   3.147   2.840
 3269W        W 7333   9.182   2.270  11.307
 3270W        W 7334   9.002   5.473   1.499
 3271W        W 7335   6.219   4.472  11.026
 3272W        W 7336   0.415   3.221  10.814
 3273W        W 7337   5.642   6.045   3.821
 3274W        W 7338   1.702   8.950   2.800
 3275W        W 7339   8.004   5.584   2.902
 3276W        W 7340   5.665   1.206  11.445
 3277W        W 7341   2.888   5.463   2.471
 3278W        W 7342   0.506  10.242   2.444
 3279W        W 7343   1.919   8.411   9.089
 3280W        W 7344   3.112   6.152  10.981
 3281W        W 7345   3.254   5.329   9.768
 3282W        W 7346   7.826   3.656   1.617
 3283W        W 7347   6.779  10.081   0.803
 3284W        W 7348   1.171   0.507  10.512
 3285W        W 7349   0.245  10.101  10.057
 3286W        W 7350   0.958  10.358   2.756
 3287W        W 7351   3.309   8.938  10.799
 3288W        W 7352   8.112   8.880   8.813
 3289W        W 7353  10.360   8.360  11.752
 3290W        W 7354   2.155   2.763  11.378
 3291W        W 7355   6.381   0.895   1.248
 3292W        W 7356   0.763   9.466   1.405
 3293W        W 7357   6.628   8.186   8.770
 3294W        W 7358   7.523   8.670   9.746
 3295W        W 7359   6.241  10.112   0.016
 3296W        W 7360   9.539   1.944   0.973
 3297W        W 7361   0.855   6.506   1.389
 3298W        W 7362  10.367   2.416  10.869
 3299W        W 7363   6.937  10.368   2.226
 3300W        W 7364   1.864   2.368   1.902
 3301W        W 7365   1.988   4.608   9.915
 3302W        W 7366   5.164   9.445   3.174
 3303W        W 7367   5.451   0.955   3.571
 3304W        W 7368   8.951   3.249   9.813
 3305W        W 7369  10.188   4.904   0.215
 3306W        W 7370   3.867   7.788   2.738
 3307W        W 7371   3.834   8.231   0.448
 3308W        W 7372   8.681   9.952   9.277
 3309W        W 7373   4.602   6.872   1.432
 3310W        W 7374   3.796   5.935  10.513
 3311W        W 7375   9.287   4.437  11.019
 3312W        W 7376   8.351   7.581   9.856
 3313W        W 7377   9.883   4.619   1.276
 3314W        W 7378   9.480   7.640   1.261
 3315W        W 7379   3.178   4.018   0.866
 3316W        W 7380   2.896   4.389   0.544
 3317W        W 7381   0.482   2.803  11.124
 3318W        W 7382   8.809   2.586  11.585
 3319W        W 7383   8.161   6.011   0.191
 3320W        W 7384   3.404   0.278  11.688
 3321W        W 7385   6.461   7.951   1.250
 3322W        W 7386   0.781   3.504   1.541
 3323W        W 7387   9.505   6.665  11.172
 3324W        W 7388   6.487   5.700   0.632
 3325W        W 7389   7.452   9.818   0.046
 3326W        W 7390   4.293   0.842   2.062
 3327W        W 7391   3.684   2.293  11.033
 3328W        W 7392   7.810   4.820   0.644
 3329W        W 7393  10.346   1.347   0.797
 3330W        W 7394   4.610   3.205   1.303
 3331W        W 7395   7.999   0.766   8.678
 3332W        W 7396   2.016   1.730   3.461
 3333W        W 7397   5.944   4.055  10.907
 3334W        W 7398   4.092   8.392   8.697
 3335W        W 7399   8.781   4.293  11.887
 3336W        W 7400   6.021   5.111   8.769
 3337W        W 7401   1.525   9.444   2.566
 3338W        W 7402   2.207   8.926   2.716
 3339W        W 7403   8.047   8.409  10.216
 3340W        W 7404   1.026   0.221   3.148
 3341W        W 7405   7.311   3.999   9.988
 3342W        W 7406   1.685   2.130   3.224
 3343W        W 7407   0.916   5.302   9.295
 3344W        W 7408   8.158   5.059   1.615
 3345W        W 7409   2.552   9.925   3.344
 3346W        W 7410   5.460   4.824  11.829
 3347W        W 7411  10.312   9.810   3.333
 3348W        W 7412  10.455   6.137   1.488
 3349W        W 7413   4.242   7.495   2.551
 3350W        W 7414   6.614   9.760   2.133
 3351W        W 7415  10.415   1.422  11.883
 3352W        W 7416   9.010   7.050   1.702
 3353W        W 7417   0.242   9.453   1.478
 3354W        W 7418   7.868   3.571   2.135
 3355W        W 7419   2.966   5.116  11.997
 3356W        W 7420   5.519   6.553   8.899
 3357W        W 7421   6.051   2.231   8.765
 3358W        W 7422   3.843   7.120   8.614
 3359W        W 7423   3.823   8.902  10.742
 3360W        W 7424   8.122   8.976   0.879
 3361W        W 7425   5.209   2.663  10.101
 3362W        W 7426   0.980   9.483  10.569
 3363W        W 7427   3.144   1.368  11.794
 3364W        W 7428   7.502   5.554   8.123
 3365W        W 7429   6.737  10.471  10.160
 3366W        W 7430   6.732   5.004   2.270
 3367W        W 7431   0.300   0.267   2.498
 3368W        W 7432   6.895   9.418  11.056
 3369W        W 7433   5.987   8.955   2.220
 3370W        W 7434  10.132   4.292   9.402
 3371W        W 7435   9.172   6.448   2.895
 3372W        W 7436   7.134   1.903  10.456
 3373W        W 7437   5.950   5.128  11.024
 3374W        W 7438   2.682   5.522   1.225
 3375W        W 7439   6.944   2.514  11.055
 3376W        W 7440   9.516   1.160   1.786
 3377W        W 7441   1.764   0.341  10.878
 3378W        W 7442   4.949  10.070  11.599
 3379W        W 7443   6.475   3.096   9.814
 3380W        W 7444   1.190   3.960   0.573
 3381W        W 7445   0.444   6.250   1.155
 3382W        W 7446   5.146   5.730   0.741
 3383W        W 7447   2.579   8.635  10.490
 3384W        W 7448   9.564   9.554   2.926
 3385W        W 7449   1.326   7.039  11.950
 3386W        W 7450   2.313   8.099   8.717
 3387W        W 7451   6.435   8.850   1.962
 3388W        W 7452   9.345   8.660   0.570
 3389W        W 7453  10.331   5.031   2.904
 3390W        W 7454   4.625   7.795   3.216
 3391W        W 7455   7.557   8.070  11.437
 3392W        W 7456   4.709   7.046  11.960
 3393W        W 7457   3.350   2.172   0.137
 3394W        W 7458   4.655   9.415   2.447
 3395W        W 7459   4.976   9.063   0.900
 3396W        W 7460   1.114  10.482   1.849
 3397W        W 7461   6.326   9.291  11.807
 3398W        W 7462   4.621   0.803   8.145
 3399W        W 7463   8.106   6.721  11.044
 3400W        W 7464  10.404   2.269   3.486
 3401W        W 7465   8.773   8.098   8.807
 3402W        W 7466   4.681   3.630  10.627
 3403W        W 7467   7.221   4.727   9.005
 3404W        W 7468   4.141   8.143   1.152
 3405W        W 7469   3.529   5.603   1.462
 3406W        W 7470   8.492   2.174   2.789
 3407W        W 7471  10.295   1.746   3.369
 3408W        W 7472   6.522   6.126  10.419
 3409W        W 7473   8.983   2.288   3.403
 3410W        W 7474   4.248   4.915   0.487
 3411W        W 7475   5.058   7.619  11.557
 3412W        W 7476   8.867   0.624  11.256
 3413W        W 7477   5.124   0.502   3.545
 3414W        W 7478   2.050   8.887   9.309
 3415W        W 7479   5.586   1.412   2.538
 3416W        W 7480   5.062   4.310   1.698
 3417W        W 7481   7.147  10.488   3.640
 3418W        W 7482   9.399   4.538  11.647
 3419W        W 7483   4.605   1.501   1.009
 3420W        W 7484   6.595  10.372  10.622
 3421W        W 7485   6.496   3.535   9.490
 3422W        W 7486   6.101   5.102   0.411
 3423W        W 7487   2.869   1.327   3.564
 3424W        W 7488   4.461   8.598  10.290
 3425W        W 7489   3.479   1.921   3.392
 3426W        W 7490   5.736   5.574   3.195
 3427W        W 7491   7.044   7.364  11.157
 3428W        W 7492   7.398   3.391   0.285
 3429W        W 7493   3.680   5.984   1.143
 3430W        W 7494   6.312   6.396   8.577
 3431W        W 7495   5.373   1.722   2.161
 3432W        W 7496   4.741   2.197   2.246
 3433W        W 7497   1.060   7.872   0.773
 3434W        W 7498   7.201   8.391   2.252
 3435W        W 7499   5.893   5.630   1.703
 3436W        W 7500   7.968   0.954   3.313
 3437W        W 7501   5.437   4.310   8.966
 3438W        W 7502   7.734   6.438   1.410
 3439W        W 7503   6.077   5.987   3.272
 3440W        W 7504  10.179   3.174  11.449
 3441W        W 7505   9.901   7.048   1.327
 3442W        W 7506   8.037   6.690  10.034
 3443W        W 7507   9.841   1.863  11.418
 3444W        W 7508   6.421   5.153   0.006
 3445W        W 7509   9.418   5.430  11.768
 3446W        W 7510   4.065   0.444   2.781
 3447W        W 7511  10.302   4.419   0.211
 3448W        W 7512   1.826   2.130   9.296
 3449W        W 7513   0.262   0.420  11.701
 3450W        W 7514   1.308   1.383   1.002
 3451W        W 7515  10.348   5.194  10.910
 3452W        W 7516   4.371   2.600   1.147
 3453W        W 7517   1.742   8.444  10.030
 3454W        W 7518   4.798   4.513   0.992
 3455W        W 7519   1.260   6.767  11.533
 3456W        W 7520   3.274   7.383   3.166
 3457W        W 7521   1.257   1.399  10.554
 3458W        W 7522   1.405  10.380  10.819
 3459W        W 7523   0.420   3.766   0.393
 3460W        W 7524   3.739   8.013   8.510
 3461W        W 7525   2.519   1.229  11.391
 3462W        W 7526   5.131   4.604   2.117
 3463W        W 7527   2.861   9.361   0.256
 3464W        W 7528   3.924   1.877  11.242
 3465W        W 7529   9.445   4.698   8.730
 3466W        W 7530   2.854   8.468   9.378
 3467W        W 7531  10.281   5.195   1.250
 3468W        W 7532   6.084   0.934  11.446
 3469W        W 7533  10.370   7.733  10.864
 3470W        W 7534   3.227   0.350  10.271
 3471W        W 7535   4.722   0.463   0.506
 3472W        W 7536   6.914   5.728  10.057
 3473W        W 7537   7.208   9.030  11.693
 3474W        W 7538   6.523   7.784   1.733
 3475W        W 7539   1.601   9.437   9.639
 3476W        W 7540   4.285   6.062   2.453
 3477W        W 7541   8.534   6.806   2.470
 3478W        W 7542   5.191   0.344   0.703
 3479W        W 7543   8.510   0.409   9.939
 3480W        W 7544   1.428   7.246  11.448
 3481W        W 7545   9.962   6.999   9.062
 3482W        W 7546   7.113   7.388   8.652
 3483W        W 7547   4.164   9.359   8.808
 3484W        W 7548   2.613   6.667   1.828
 3485W        W 7549   6.198   2.318  11.774
 3486W        W 7550   5.005   3.345   1.792
 3487W        W 7551   9.326   6.640   0.497
 3488W        W 7552   8.877   2.832   1.927
 3489W        W 7553  10.260   7.432   9.002
 3490W        W 7554   4.902   6.348   8.219
 3491W        W 7555   9.807   5.719   2.786
 3492W        W 7556   7.922   1.445   3.123
 3493W        W 7557   5.526   6.101   8.646
 3494W        W 7558   0.302   8.119   9.818
 3495W        W 7559   1.013   2.711   1.926
 3496W        W 7560   8.432   8.558   1.811
 3497W        W 7561   6.836   6.443   8.448
 3498W        W 7562   1.061   2.613   1.408
 3499W        W 7563   7.420   0.013  11.396
 3500W        W 7564   9.555   2.025  10.821
 3501W        W 7565   8.349   5.208   9.982
 3502W        W 7566   2.058   7.418  10.638
 3503W        W 7567   0.257   2.727  10.659
 3504W        W 7568   5.742   3.876   0.094
 3505W        W 7569   2.827   7.873   0.450
 3506W        W 7570   7.489   0.507   8.985
 3507W        W 7571   3.172   1.497   3.188
 3508W        W 7572   2.399   0.623  11.831
 3509W        W 7573   4.680   6.371  10.278
 3510W        W 7574   2.121  10.376   1.840
 3511W        W 7575   3.336   5.061   8.778
 3512W        W 7576   9.110   8.667   2.788
 3513W        W 7577   8.476   7.400   9.408
 3514W        W 7578   4.251   0.820   8.960
 3515W        W 7579  10.462   9.783   9.316
 3516W        W 7580   1.329   8.891   9.978
 3517W        W 7581   7.403   3.550   1.905
 3518W        W 7582   1.661   5.725   9.220
 3519W        W 7583   5.631   2.204   0.926
 3520W        W 7584   6.836   9.120   0.606
 3521W        W 7585   6.052   7.488   0.787
 3522W        W 7586   4.189   2.229   0.453
 3523W        W 7587   5.151   5.155  10.561
 3524W        W 7588   9.662  10.393   1.419
 3525W        W 7589   4.049   1.254   9.134
 3526W        W 7590   0.491   1.862   9.122
 3527W        W 7591   3.000   7.385   8.889
 3528W        W 7592   1.455   7.616   1.839
 3529W        W 7593   6.390   3.990   8.141
 3530W        W 7594   7.645   5.934   1.374
 3531W        W 7595   6.891   2.188   0.525
 3532W        W 7596   8.430   4.631   1.486
 3533W        W 7597   9.011   3.650   0.677
 3534W        W 7598   3.282   6.973  11.294
 3535W        W 7599   7.401   7.051  11.328
 3536W        W 7600   5.541   1.250   2.042
 3537W        W 7601  10.404   8.748   2.233
 3538W        W 7602  10.257   1.516  10.699
 3539W        W 7603   0.339   8.854   1.191
 3540W        W 7604   2.912   1.158   1.951
 3541W        W 7605   2.618   3.599   1.638
 3542W        W 7606   3.149   5.776   1.136
 3543W        W 7607   8.432   8.394   0.234
 3544W        W 7608   0.345   0.520  11.180
 3545W        W 7609   9.822   3.726   2.712
 3546W        W 7610   2.359   8.632  10.964
 3547W        W 7611   0.348   6.748  11.701
 3548W        W 7612  10.414   7.061   1.395
 3549W        W 7613   4.113   6.125   3.682
 3550W        W 7614   3.884  10.434   2.712
 3551W        W 7615  10.037  10.452  11.496
 3552W        W 7616   6.037   9.097   2.703
 3553W        W 7617   0.020   9.921   0.390
 3554W        W 7618   8.571   1.892  11.196
 3555W        W 7619   9.111   6.502   0.965
 3556W        W 7620  10.444   5.657  10.114
 3557W        W 7621   4.533   6.434   0.701
 3558W        W 7622   8.142   4.873  11.497
 3559W        W 7623   9.546   5.025  11.474
 3560W        W 7624   9.465   3.574   0.455
 3561W        W 7625   7.531   6.074   3.468
 3562W        W 7626  10.364   1.174   9.352
 3563W        W 7627  10.470   4.777  11.791
 3564W        W 7628   5.325   9.495   3.666
 3565W        W 7629   8.371   9.872   3.131
 3566W        W 7630   5.049   9.534   9.761
 3567W        W 7631   4.692   8.413   2.546
 3568W        W 7632   5.844   4.025   9.589
 3569W        W 7633   6.504   6.182   3.531
 3570W        W 7634   8.631   8.566   2.696
 3571W        W 7635   1.686   6.514  11.566
 3572W        W 7636   5.501   7.824   1.366
 3573W        W 7637   8.831  10.358   3.535
 3574W        W 7638   0.866   3.195   1.949
 3575W        W 7639   2.847  10.322   3.190
 3576W        W 7640  10.332   9.067   2.820
 3577W        W 7641   4.243   3.178   0.371
 3578W        W 7642   5.432   9.901  11.529
 3579W        W 7643   9.820   0.474   8.683
 3580W        W 7644   6.883   0.097   0.264
 3581W        W 7645   3.748   4.618   3.412
 3582W        W 7646   8.583   6.882   9.393
 3583W        W 7647   7.553   6.100   8.854
 3584W        W 7648   8.828   0.062   0.414
 3585W        W 7649   4.435   5.951   3.322
 3586W        W 7650   2.064   5.211  11.201
 3587W        W 7651   7.666   4.116   1.439
 3588W        W 7652   1.604   1.293   1.443
 3589W        W 7653   7.683   8.522   2.353
 3590W        W 7654   6.885   5.106   8.847
 3591W        W 7655   1.797   6.026   1.248
 3592W        W 7656   0.973   2.825  11.112
 3593W        W 7657   5.912   5.146   2.939
 3594W        W 7658   5.477  10.369   8.894
 3595W        W 7659   2.196   3.336  10.217
 3596W        W 7660   9.753   0.322   2.915
 3597W        W 7661   6.157   8.479   2.387
 3598W        W 7662   2.292   1.762   3.011
 3599W        W 7663   6.030   7.940   9.581
 3600W        W 7664   7.629   3.110   2.262
 3601W        W 7665   7.438  10.115   3.412
 3602W        W 7666   4.487   3.613   0.530
 3603W        W 7667   3.847   6.684  10.933
 3604W        W 7668   6.941   1.234   2.697
 3605W        W 7669   1.481   8.311  10.839
 3606W        W 7670   8.268   9.885  11.391
 3607W        W 7671  10.409   0.272  11.373
 3608W        W 7672   9.378   9.167   9.112
 3609W        W 7673   6.468   2.605   9.543
 3610W        W 7674   3.597   1.254   8.896
 3611W        W 7675   5.962   9.023   0.677
 3612W        W 7676   9.336   9.890  11.310
 3613W        W 7677   4.234   6.615   3.751
 3614W        W 7678   4.654   9.167   8.682
 3615W        W 7679   0.149   1.872   2.636
 3616W        W 7680   7.214   9.692   8.807
 3617W        W 7681   6.686   4.480  11.261
 3618W        W 7682   0.923   6.586  10.553
 3619W        W 7683   9.003   4.276  11.423
 3620W        W 7684   6.527   7.682   0.832
 3621W        W 7685   9.745   2.696   2.482
 3622W        W 7686   8.107  10.415   2.766
 3623W        W 7687  10.005  10.492   8.400
 3624W        W 7688   6.402   9.274   2.293
 3625W        W 7689   4.126   4.281   8.548
 3626W        W 7690   1.121   6.448   2.099
 3627W        W 7691   1.985   8.954   1.374
 3628W        W 7692   4.250   7.011   8.912
 3629W        W 7693   2.118   0.777   1.866
 3630W        W 7694   9.996   0.834   9.046
 3631W        W 7695   6.971   5.008   3.437
 3632W        W 7696   5.250   5.292   0.966
 3633W        W 7697   8.791   9.922  11.268
 3634W        W 7698   8.592   5.684  10.033
 3635W        W 7699   4.713   0.828   9.174
 3636W        W 7700   4.290   9.484   0.372
 3637W        W 7701   0.355   9.477   9.101
 3638W        W 7702   5.656   8.287   1.684
 3639W        W 7703   7.077   4.527   2.934
 3640W        W 7704   4.716   8.107   8.998
 3641W        W 7705   2.123   5.557   1.822
 3642W        W 7706  10.276   3.598   2.461
 3643W        W 7707   5.563   2.259  10.979
 3644W        W 7708   7.452   5.629   8.640
 3645W        W 7709   5.133   3.533   2.273
 3646W        W 7710   0.696   9.437  11.986
 3647W        W 7711   0.895   6.017   8.783
 3648W        W 7712   7.323   8.904   2.374
 3649W        W 7713   3.740   7.951   0.899
 3650W        W 7714   1.812   3.427   2.139
 3651W        W 7715   0.813   0.750   0.502
 3652W        W 7716   6.930   3.456   1.293
 3653W        W 7717   3.847   3.192   0.022
 3654W        W 7718   8.072   7.901   9.474
 3655W        W 7719   4.313   0.150  10.444
 3656W        W 7720   0.950   4.686  11.247
 3657W        W 7721   5.326   6.622   8.036
 3658W        W 7722   3.724   4.842   0.417
 3659W        W 7723   2.862   5.944   1.554
 3660W        W 7724   7.185   8.083   0.300
 3661W        W 7725   3.167   1.368   0.687
 3662W        W 7726   5.021   6.666  11.821
 3663W        W 7727   8.035   1.245   1.398
 3664W        W 7728   7.084   3.591   2.767
 3665W        W 7729   1.179   9.838  10.247
 3666W        W 7730   5.086   0.873   0.468
 3667W        W 7731  10.459   6.651  10.053
 3668W        W 7732   6.070   6.001   0.825
 3669W        W 7733   7.123   0.477   1.539
 3670W        W 7734   4.290  10.446   3.128
 3671W        W 7735   4.032   1.773   0.705
 3672W        W 7736   0.474   9.515  11.496
 3673W        W 7737   6.050   3.642   8.846
 3674W        W 7738   0.514   2.799   1.958
 3675W        W 7739   8.903   7.121  10.703
 3676W        W 7740   9.090   2.167   1.107
 3677W        W 7741   6.842   8.044   2.034
 3678W        W 7742   5.730   7.571  10.947
 3679W        W 7743   0.761   0.527  10.846
 3680W        W 7744   5.539   6.921  11.482
 3681W        W 7745   1.945   9.500   3.282
 3682W        W 7746   5.032   8.793   1.891
 3683W        W 7747   2.304   3.308   1.280
 3684W        W 7748   0.713   0.356   2.767
 3685W        W 7749   1.251   6.965   3.503
 3686W        W 7750   5.205   4.112   3.871
 3687W        W 7751   6.282   3.291   1.786
 3688W        W 7752   8.836   7.606   0.482
 3689W        W 7753   5.870   3.043   3.180
 3690W        W 7754   3.084   9.903   1.389
 3691W        W 7755  10.483   8.405   9.531
 3692W        W 7756   7.467   8.150   8.929
 3693W        W 7757   5.952   4.929  11.916
 3694W        W 7758   1.936   3.424   2.842
 3695W        W 7759   0.862   8.395   2.927
 3696W        W 7760   0.076   7.688  11.688
 3697W        W 7761   4.089   3.380   8.917
 3698W        W 7762   8.387   4.569   9.414
 3699W        W 7763   4.544   2.148   9.353
 3700W        W 7764   2.613   4.281  11.022
 3701W        W 7765   2.859   6.671  10.015
 3702W        W 7766   5.006   2.824   9.080
 3703W        W 7767   8.786   4.780   3.606
 3704W        W 7768   3.276  10.162   0.969
 3705W        W 7769   1.884   2.843   0.366
 3706W        W 7770   7.396  10.165  11.004
 3707W        W 7771  10.108   7.822   0.887
 3708W        W 7772   1.484   4.125  11.375
 3709W        W 7773   6.839   5.515   2.400
 3710W        W 7774   9.466   6.334   0.118
 3711W        W 7775   2.353   1.266   3.506
 3712W        W 7776   2.244   2.223  10.027
 3713W        W 7777   8.563   4.553  11.474
 3714W        W 7778   8.515   8.097   9.269
 3715W        W 7779   5.005   6.197   8.699
 3716W        W 7780   5.173  10.042   2.491
 3717W        W 7781   1.034   4.175   3.608
 3718W        W 7782   7.500   1.649   2.825
 3719W        W 7783   7.490   4.760   2.692
 3720W        W 7784   0.670   0.876   9.858
 3721W        W 7785   5.064   2.452  11.029
 3722W        W 7786   7.575   2.188   0.235
 3723W        W 7787   1.389   2.425   0.439
 3724W        W 7788   1.276   8.465   9.723
 3725W        W 7789   8.174   0.978  10.040
 3726W        W 7790   5.964   8.658  10.456
 3727W        W 7791   8.899   8.475   0.421
 3728W        W 7792   3.250   2.320   3.612
 3729W        W 7793   0.939   6.045  11.878
 3730W        W 7794  10.139   7.940  11.560
 3731W        W 7795   5.618   3.893   8.634
 3732W        W 7796   6.946   7.542   2.686
 3733W        W 7797   6.853   5.135  11.744
 3734W        W 7798   9.828   6.456   0.445
 3735W        W 7799   0.976   2.606  10.248
 3736W        W 7800   3.634   0.312   3.007
 3737W        W 7801   8.635   9.735   1.133
 3738W        W 7802   6.154   5.968   3.823
 3739W        W 7803   6.683   7.578   2.205
 3740W        W 7804   5.314   4.064   9.440
 3741W        W 7805   9.494   2.272   0.270
 3742W        W 7806   0.498   7.679   0.971
 3743W        W 7807   7.009   1.751   2.731
 3744W        W 7808   8.209   0.110  10.657
 3745W        W 7809   3.746   1.368  10.929
 3746W        W 7810   7.813   3.595   0.033
 3747W        W 7811   4.138   0.862   3.111
 3748W        W 7812   3.613   5.536   9.337
 3749W        W 7813   2.698   6.627   9.033
 3750W        W 7814   8.917   2.998   1.417
 3751W        W 7815   5.502   2.637  10.532
 3752W        W 7816   5.190   3.059   0.226
 3753W        W 7817   4.285   1.650   9.355
 3754W        W 7818   4.314   5.124  10.504
 3755W        W 7819   1.306   7.663   3.316
 3756W        W 7820  10.220   2.996   3.013
 3757W        W 7821   5.745   7.402   9.058
 3758W        W 7822   4.811   7.979   2.793
 3759W        W 7823   3.729   4.191   9.055
 3760W        W 7824   4.794   2.872  11.911
 3761W        W 7825   4.683   5.087   2.058
 3762W        W 7826   1.381   5.325   8.667
 3763W        W 7827   3.822   3.220  11.071
 3764W        W 7828   5.561   4.121   8.014
 3765W        W 7829   1.471   3.100  10.859
 3766W        W 7830   0.050   4.238   9.096
 3767W        W 7831   2.410   8.913   9.680
 3768W        W 7832   9.880   1.381   1.009
 3769W        W 7833   3.151   1.163  10.593
 3770W        W 7834   6.792   0.433   1.142
 3771W        W 7835   7.882   7.444   0.300
 3772W        W 7836   7.946   1.891  10.544
 3773W        W 7837   1.511   7.732  11.363
 3774W        W 7838  10.456  10.256   3.128
 3775W        W 7839   4.109   1.394   2.718
 3776W        W 7840   0.964   4.937   1.742
 3777W        W 7841   5.553   5.672   0.163
 3778W        W 7842   2.767   7.445   1.263
 3779W        W 7843  10.281   1.824  10.287
 3780W        W 7844   1.540   4.495   9.711
 3781W        W 7845   8.633   8.322   1.406
 3782W        W 7846   7.816   0.447  10.566
 3783W        W 7847   5.167   3.623  10.357
 3784W        W 7848   4.985   5.476   9.966
 3785W        W 7849   1.588   5.630   0.977
 3786W        W 7850   1.922   2.912   2.041
 3787W        W 7851  10.203  10.091   2.273
 3788W        W 7852   1.820   4.106   9.917
 3789W        W 7853   6.150   5.532   3.535
 3790W        W 7854   5.553   6.965   1.452
 3791W        W 7855   7.642   5.008   1.690
 3792W        W 7856   5.692   5.597  10.303
 3793W        W 7857   1.890   4.308   2.328
 3794W        W 7858   7.688   3.768   0.512
 3795W        W 7859   3.010   9.045  10.409
 3796W        W 7860   0.041   4.634  10.807
 3797W        W 7861   3.535   9.977   2.300
 3798W        W 7862   3.280   0.443   1.666
 3799W        W 7863   9.782   7.418   8.793
 3800W        W 7864   2.484   4.784   8.909
 3801W        W 7865   0.218   1.354  10.881
 3802W        W 7866   6.934   5.433   0.534
 3803W        W 7867   0.860   9.933   1.180
 3804W        W 7868   6.409   8.854   0.455
 3805W        W 7869   7.171   7.608   9.670
 3806W        W 7870   7.456   3.221  11.296
 3807W        W 7871   9.877   1.830   1.845
 3808W        W 7872   3.088   7.952  11.094
 3809W        W 7873   0.408   7.373   2.873
 3810W        W 7874   4.493   6.418   1.213
 3811W        W 7875   4.995   3.031   9.829
 3812W        W 7876   0.882   3.928   1.243
 3813W        W 7877   1.996   9.552  10.980
 3814W        W 7878   1.164   2.239   1.804
 3815W        W 7879   7.917   2.404  10.558
 3816W        W 7880   5.716   1.608  11.758
 3817W        W 7881   5.589   1.264   3.054
 3818W        W 7882  10.225   7.706   2.207
 3819W        W 7883   9.370   5.443   2.157
 3820W        W 7884   0.887   4.148   0.199
 3821W        W 7885   0.357   7.233  10.138
 3822W        W 7886   4.721   5.051  10.822
 3823W        W 7887  10.333   3.437   9.713
 3824W        W 7888   9.336   2.691   2.170
 3825W        W 7889   4.966   6.455   2.861
 3826W        W 7890   7.461   6.616   8.927
 3827W        W 7891   8.935   5.595   9.640
 3828W        W 7892   7.329   5.217  10.471
 3829W        W 7893   8.371   4.246  10.861
 3830W        W 7894   8.204   1.809  11.569
 3831W        W 7895  10.482   7.095  11.913
 3832W        W 7896   3.276   7.216   2.314
 3833W        W 7897   6.034   0.381   3.301
 3834W        W 7898   9.396   3.381  10.499
 3835W        W 7899   0.815   0.243   9.455
 3836W        W 7900   8.299   9.892   8.939
 3837W        W 7901   5.882   0.433   2.810
 3838W        W 7902   0.362   0.200  10.778
 3839W        W 7903   9.407   9.212  11.164
 3840W        W 7904   2.023   9.381   1.901
 3841W        W 7905   0.862   6.531  10.047
 3842W        W 7906   7.018   5.620  11.027
 3843W        W 7907   2.096   5.225   3.026
 3844W        W 7908   8.639   7.175   8.968
 3845W        W 7909   4.743  10.296   2.432
 3846W        W 7910   7.596   9.976  10.096
 3847W        W 7911   2.371   8.447   3.012
 3848W        W 7912   8.743   2.007   0.352
 3849W        W 7913   0.173   5.611   0.028
 3850W        W 7914   6.418   8.941   1.419
 3851W        W 7915   9.159   5.770  10.506
 3852W        W 7916   7.800   4.118  11.989
 3853W        W 7917   2.375   6.017   1.791
 3854W        W 7918   4.188   1.883   2.816
 3855W        W 7919   5.937   6.839   3.846
 3856W        W 7920   2.110   7.158   9.828
 3857W        W 7921   4.008   7.922   2.257
 3858W        W 7922   4.686   0.926   8.656
 3859W        W 7923   7.302  10.012   1.619
 3860W        W 7924   7.013   2.196   3.026
 3861W        W 7925   1.919   3.330  11.014
 3862W        W 7926   1.195   9.718   8.823
 3863W        W 7927   7.440   3.732  11.136
 3864W        W 7928   5.951   3.472   1.406
 3865W        W 7929   2.359   3.145   2.848
 3866W        W 7930   7.379  10.496   0.314
 3867W        W 7931   7.865   6.520   2.760
 3868W        W 7932   2.886   6.953  11.840
 3869W        W 7933   4.971   4.676   0.428
 3870W        W 7934   2.376   4.780   2.761
 3871W        W 7935   0.646   0.618   2.300
 3872W        W 7936   9.958   4.517  10.452
 3873W        W 7937   7.150   0.433   3.302
 3874W        W 7938   1.660   1.631  11.795
 3875W        W 7939  10.211   0.625   1.400
 3876W        W 7940   9.378   4.663   9.760
 3877W        W 7941   2.822   7.031   0.410
 3878W        W 7942   8.408   6.497   0.809
 3879W        W 7943   1.380   4.234   3.240
 3880W        W 7944   3.616   6.473   1.697
 3881W        W 7945   1.296   0.230   9.023
 3882W        W 7946  10.248   6.718   0.323
 3883W        W 7947   6.945   3.681   0.351
 3884W        W 7948   4.401   0.096   2.645
 3885W        W 7949   7.487   8.790  10.758
 3886W        W 7950   3.390   1.025  11.027
 3887W        W 7951   4.653   2.350  10.723
 3888W        W 7952   4.937   8.463  10.425
 3889W        W 7953   9.334   8.447   3.356
 3890W        W 7954   4.712   9.379   2.930
 3891W        W 7955   6.130   4.073   8.607
 3892W        W 7956   9.246   7.959   8.932
 3893W        W 7957   8.117   8.363   9.095
 3894W        W 7958   7.148   2.266   1.494
 3895W        W 7959   3.380   0.580   9.793
 3896W        W 7960   2.313   7.813  11.576
 3897W        W 7961   0.445   5.204   0.185
 3898W        W 7962   1.962   4.567   0.888
 3899W        W 7963   2.824   5.959   0.054
 3900W        W 7964   6.179   1.912   3.479
 3901W        W 7965   2.605   2.535  10.273
 3902W        W 7966   6.678   0.308   9.371
 3903W        W 7967   2.917  10.342  10.657
 3904W        W 7968   8.640   4.227   1.228
 3905W        W 7969  10.306   4.590   8.796
 3906W        W 7970   6.732   1.246  10.530
 3907W        W 7971   7.541   5.662   3.102
 3908W        W 7972   5.277   6.167   9.123
 3909W        W 7973   2.364   6.761   1.158
 3910W        W 7974   4.733   3.294   0.212
 3911W        W 7975   6.038   7.543   1.679
 3912W        W 7976   7.000   6.442   1.759
 3913W        W 7977   9.768   3.433   8.571
 3914W        W 7978   4.157   1.247  11.827
 3915W        W 7979   7.969   7.472   2.651
 3916W        W 7980   7.809   9.926   9.077
 3917W        W 7981  10.216   3.659  11.318
 3918W        W 7982   2.638   5.040   2.356
 3919W        W 7983   1.283   1.848   9.018
 3920W        W 7984   5.078   4.631  11.037
 3921W        W 7985   9.404   6.408   1.746
 3922W        W 7986   5.156   8.557  11.059
 3923W        W 7987   3.708  10.446   2.216
 3924W        W 7988   9.437   7.193   1.488
 3925W        W 7989   7.429   2.078   0.702
 3926W        W 7990   5.159   7.692  11.065
 3927W        W 7991  10.356   0.704   9.562
 3928W        W 7992   4.061  10.379   0.888
 3929W        W 7993   7.568   3.573   9.946
 3930W        W 7994   4.750   1.748   9.079
 3931W        W 7995   0.225   8.639  11.400
 3932W        W 7996   0.891   5.692   0.284
 3933W        W 7997   7.077   6.692   2.345
 3934W        W 7998  10.082   3.729  11.804
 3935W        W 7999   5.657   0.777   2.202
 3936W        W 8000   4.274   9.091  10.524
 3937W        W 8001   1.273  10.429   9.439
 3938W        W 8002   6.973   9.950  10.766
 3939W        W 8003   7.933   4.086   2.357
 3940W        W 8004   2.650   0.815   3.374
 3941W        W 8005   1.716   8.324   1.786
 3942W        W 8006   8.984   0.875   2.829
 3943W        W 8007   6.962   9.028   2.732
 3944W        W 8008   2.663   2.760   2.730
 3945W        W 8009   4.617   3.648   1.566
 3946W        W 8010   0.470   0.773  11.994
 3947W        W 8011   0.337   5.355   9.887
 3948W        W 8012   2.305   8.996   1.765
 3949W        W 8013   3.714   8.956   1.331
 3950W        W 8014   8.475   0.330   9.396
 3951W        W 8015   7.013   0.321  11.263
 3952W        W 8016  10.354   4.974   2.411
 3953W        W 8017   4.593   6.882  10.272
 3954W        W 8018   7.215   9.001   0.279
 3955W        W 8019   6.222   4.333  11.754
 3956W        W 8020   4.216   0.814   8.463
 3957W        W 8021   1.927  10.420  10.654
 3958W        W 8022   7.965   0.003   0.369
 3959W        W 8023   4.374   5.777   8.263
 3960W        W 8024   9.909  10.339  11.979
 3961W        W 8025   6.109   2.328  11.266
 3962W        W 8026   8.918   4.759   2.180
 3963W        W 8027   5.199   6.684   8.524
 3964W        W 8028   6.959   2.405  10.558
 3965W        W 8029   1.067   9.105   0.241
 3966W        W 8030   5.472   4.682   0.343
 3967W        W 8031   6.959   7.716   0.574
 3968W        W 8032   9.968   3.205   2.611
 3969W        W 8033   2.402   2.929  11.830
 3970W        W 8034   2.600   6.077   3.500
 3971W        W 8035   9.423   9.008   2.525
 3972W        W 8036   6.851   9.055   1.153
 3973W        W 8037   2.353   7.656   1.728
 3974W        W 8038   9.522   8.312   9.240
 3975W        W 8039   3.695  10.331  10.813
 3976W        W 8040   9.770   4.285  10.907
 3977W        W 8041   6.506   1.478   2.791
 3978W        W 8042   5.666   2.378   2.354
 3979W        W 8043   1.212   9.559  11.987
 3980W        W 8044   6.275   7.458   1.240
 3981W        W 8045   5.588   7.380   2.791
 3982W        W 8046   8.192   0.183   8.510
 3983W        W 8047   1.673   0.471   2.527
 3984W        W 8048   7.392   5.202   8.946
 3985W        W 8049   2.740   3.599   9.275
 3986W        W 8050   2.718   0.288  10.883
 3987W        W 8051   5.090   2.258   9.178
 3988W        W 8052   2.339  10.320   2.987
 3989W        W 8053   4.316   1.671   1.901
 3990W        W 8054   4.347   6.619   9.700
 3991W        W 8055   0.766   8.873   9.860
 3992W        W 8056   6.926   9.875  11.271
 3993W        W 8057   7.238   1.736  11.317
 3994W        W 8058   9.307   5.644   9.278
 3995W        W 8059   6.196   3.119   3.575
 3996W        W 8060   0.763   8.564   1.961
 3997W        W 8061   9.283   1.920   8.620
 3998W        W 8062   4.757   8.860  11.276
 3999W        W 8063   5.284   9.865  10.098
 4000W        W 8064   1.363   8.042   1.505
 4001W        W 8065   1.232   2.931   0.397
 4002W        W 8066   1.759   5.963  10.212
 4003W        W 8067   9.391   0.696   1.970
 4004W        W 8068   2.259   2.245  11.518
 4005W        W 8069   4.543   3.910  11.017
 4006W        W 8070   0.892   7.046  10.783
 4007W        W 8071   1.507   0.224   3.374
 4008W        W 8072   0.562   1.799   9.834
 4009W        W 8073   9.515   7.113   0.986
 4010W        W 8074   0.340   7.344   1.459
 4011W        W 8075   3.202   4.823   1.281
 4012W        W 8076   2.810   5.919   2.084
 4013W        W 8077   4.248   7.934   8.857
 4014W        W 8078   5.996   4.333   8.181
 4015W        W 8079   6.480   3.341   0.565
 4016W        W 8080   2.901   7.807   8.602
 4017W        W 8081   7.114   0.932  11.872
 4018W        W 8082   3.177   0.254   9.412
 4019W        W 8083   2.694   9.957   2.829
 4020W        W 8084   8.560   7.909   3.217
 4021W        W 8085   6.966   9.512   2.956
 4022W        W 8086   6.061   7.116   1.996
 4023W        W 8087   6.572   7.433   3.121
 4024W        W 8088   1.159   0.724   2.205
 4025W        W 8089   4.546   9.775  11.781
 4026W        W 8090   0.015   4.639  10.280
 4027W        W 8091  10.479   7.588   1.218
 4028W        W 8092   2.639   4.336  11.536
 4029W        W 8093   5.213   1.720   9.844
 4030W        W 8094   4.543   0.396   9.438
 4031W        W 8095   5.125   1.186   2.332
 4032W        W 8096   6.124   7.266  10.821
 4033W        W 8097   0.392   0.677   1.847
 4034W        W 8098   5.720   5.168   1.645
 4035W        W 8099   4.910   0.481   8.651
 4036W        W 8100   7.977   9.382   0.583
 4037W        W 8101   4.228   5.640  10.473
 4038W        W 8102   9.728   8.928  10.477
 4039W        W 8103   4.262   6.199  10.525
 4040W        W 8104   8.563   9.033   3.542
 4041W        W 8105   0.729   3.586  10.285
 4042W        W 8106   2.291   7.677   1.224
 4043W        W 8107   1.007   8.767   9.419
 4044W        W 8108   4.599   4.061   8.791
 4045W        W 8109   3.353   3.825   1.334
 4046W        W 8110   7.544   2.766   1.463
 4047W        W 8111   9.564   5.575  10.259
 4048W        W 8112   3.143   6.472   2.907
 4049W        W 8113   9.528   9.388  10.107
 4050W        W 8114   2.557   7.660   8.984
 4051W        W 8115   7.497   3.650  11.633
 4052W        W 8116  10.371   5.710   1.199
 4053W        W 8117   4.635   4.653   3.469
 4054W        W 8118   2.775   1.313  10.928
 4055W        W 8119   7.878   0.260   1.612
 4056W        W 8120   1.546   5.657  10.553
 4057W        W 8121   7.534   7.065   0.170
 4058W        W 8122   0.395   9.047  10.881
 4059W        W 8123   2.859   7.505  11.165
 4060W        W 8124   6.573   9.461   1.324
 4061W        W 8125   5.635  10.416   1.936
 4062W        W 8126   7.424   5.324   9.509
 4063W        W 8127   8.037   2.268   1.396
 4064W        W 8128   6.019   3.676   9.927
 4065W        W 8129   5.822   7.469   0.326
 4066W        W 8130   3.415   7.944   1.884
 4067W        W 8131   5.730   6.899   9.197
 4068W        W 8132   6.054   9.079  10.836
 4069W        W 8133   8.427   6.445   2.093
 4070W        W 8134   0.363   8.551   1.671
 4071W        W 8135   6.895   5.003   2.766
 4072W        W 8136   4.130   3.898   8.915
 4073W        W 8137   9.046   4.040   1.514
 4074W        W 8138   4.828   6.836   8.077
 4075W        W 8139   6.137   1.394  11.239
 4076W        W 8140   7.932   9.038   2.967
 4077W        W 8141   3.264   7.112   0.732
 4078W        W 8142   4.962   0.418  10.780
 4079W        W 8143   4.053   3.953   1.388
 4080W        W 8144   6.540   2.974   0.240
 4081W        W 8145   2.318   3.479   3.275
 4082W        W 8146   1.676   7.163   0.577
 4083W        W 8147   6.034   3.156  11.105
 4084W        W 8148   4.702   3.785   2.997
 4085W        W 8149  10.274   4.119   2.841
 4086W        W 8150   8.004   3.677   3.286
 4087W        W 8151   8.438   0.734   3.293
 4088W        W 8152   8.394   1.709   3.049
 4089W        W 8153   1.365   6.488  10.806
 4090W        W 8154   4.060   5.604   1.628
 4091W        W 8155   3.217   2.321   3.128
 4092W        W 8156   2.675   9.301   9.877
 4093W        W 8157   6.216   1.764   9.939
 4094W        W 8158   0.757   4.104   1.704
 4095W        W 8159   5.520   7.039   8.721
 4096W        W 8160   6.173   8.542   0.828
 4097W        W 8161   9.175   5.959   9.998
 4098W        W 8162   3.781   3.586   1.159
 4099W        W 8163   9.054   4.614   2.651
 4100W        W 8164   9.866   0.934   1.227
 4101W        W 8165   5.030   9.486   9.260
 4102W        W 8166   2.397   2.589  10.772
 4103W        W 8167   1.372   6.561   0.903
 4104W        W 8168   2.913   8.929   9.593
 4105W        W 8169   0.930   3.769   3.298
 4106W        W 8170   4.228   1.213   1.689
 4107W        W 8171   0.682   7.332   8.923
 4108W        W 8172   5.572   3.825   1.420
 4109W        W 8173   9.046   0.331   9.975
 4110W        W 8174   0.995   3.061   2.859
 4111W        W 8175   2.959   7.204   2.722
 4112W        W 8176   3.167   3.831   9.084
 4113W        W 8177   8.351   0.321   2.961
 4114W        W 8178   9.775   8.991  11.517
 4115W        W 8179   5.040   6.692   0.768
 4116W        W 8180  10.491   2.819   1.940
 4117W        W 8181   8.660   6.639  10.798
 4118W        W 8182   4.246   9.108   2.829
 4119W        W 8183   9.978   3.085   9.315
 4120W        W 8184   7.449   9.306  10.713
 4121W        W 8185   5.980   5.288  11.504
 4122W        W 8186   9.422   4.284  10.544
 4123W        W 8187   6.690   4.291   2.317
 4124W        W 8188   3.728   9.830  10.319
 4125W        W 8189   7.303   2.196   9.292
 4126W        W 8190   9.735   0.776   0.224
 4127W        W 8191   5.065   3.738  11.006
 4128W        W 8192   0.504   8.268  10.253
 4129W        W 8193   0.832   7.884   2.730
 4130W        W 8194   5.098   3.095   3.032
 4131W        W 8195   9.919   0.284   0.728
 4132W        W 8196   7.484   6.300   0.022
 4133W        W 8197   3.544   1.093   9.835
 4134W        W 8198   8.284   4.282   9.840
 4135W        W 8199   2.254   3.264  11.464
 4136W        W 8200   4.150   6.168   8.889
 4137W        W 8201   4.600   4.655   0.100
 4138W        W 8202   7.903   1.367   8.854
 4139W        W 8203   9.529   0.862   2.721
 4140W        W 8204   6.649   2.293   1.808
 4141W        W 8205   4.765   1.866   1.386
 4142W        W 8206   5.809  10.364   3.431
 4143W        W 8207   4.352   7.438   9.448
 4144W        W 8208   5.802   3.191   1.881
 4145W        W 8209  10.401   3.292  10.604
 4146W        W 8210   5.142   9.083  10.964
 4147W        W 8211   8.614   2.887  10.984
 4148W        W 8212   5.538   0.683   1.250
 4149W        W 8213   4.215   7.761  10.312
 4150W        W 8214   2.441   5.642   8.386
 4151W        W 8215   1.377   6.122   2.429
 4152W        W 8216   4.711   4.970   0.733
 4153W        W 8217   0.295   7.981  10.625
 4154W        W 8218   7.440   6.072   0.915
 4155W        W 8219   4.607   5.158   2.635
 4156W        W 8220   5.237  10.067  10.569
 4157W        W 8221   5.757   6.221   9.872
 4158W        W 8222  10.402   1.131   2.929
 4159W        W 8223   7.498   1.083   3.422
 4160W        W 8224   5.672   9.023  10.172
 4161W        W 8225   2.701   5.712   9.052
 4162W        W 8226   3.616   1.592   9.939
 4163W        W 8227   5.711   2.389   1.399
 4164W        W 8228   3.405   5.782   9.967
 4165W        W 8229   8.029   2.933   0.678
 4166W        W 8230   3.408   6.104  11.395
 4167W        W 8231   2.449   6.500   8.605
 4168W        W 8232   2.393   1.946   1.474
 4169W        W 8233   4.566   5.573   1.813
 4170W        W 8234   6.903   2.158   9.596
 4171W        W 8235   0.360   0.028  11.348
 4172W        W 8236   8.397   6.946   2.004
 4173W        W 8237   6.447   3.367   1.309
 4174W        W 8238   9.403   6.206  10.410
 4175W        W 8239   9.023   6.845   9.070
 4176W        W 8240   2.450   2.882   1.629
 4177W        W 8241   0.787   8.345   9.824
 4178W        W 8242   1.936   8.453   2.702
 4179W        W 8243   2.718   9.235   8.842
 4180W        W 8244   8.913   9.120   9.579
 4181W        W 8245   5.986   6.757  11.610
 4182W        W 8246   8.685   4.983   9.342
 4183W        W 8247   5.051   2.720   3.379
 4184W        W 8248   1.669   3.241   1.685
 4185W        W 8249   4.296   6.446  11.002
 4186W        W 8250   2.691   9.104  11.782
 4187W        W 8251   0.781   9.405   1.902
 4188W        W 8252   7.451  10.295   2.115
 4189W        W 8253   9.786   4.372   9.942
 4190W        W 8254   4.090   0.390   3.318
 4191W        W 8255   4.518   8.947   0.662
 4192W        W 8256   7.229   5.736   2.178
 4193W        W 8257   0.794   3.738  10.767
 4194W        W 8258   3.073   2.219   2.149
 4195W        W 8259  10.416   9.853   1.424
 4196W        W 8260   5.928   9.590   3.582
 4197W        W 8261   6.937   8.150  10.780
 4198W        W 8262   0.781   5.181   2.154
 4199W        W 8263   0.538   1.906   2.297
 4200W        W 8264   1.141   6.432   8.598
 4201W        W 8265   4.497   1.729   2.386
 4202W        W 8266   0.914   3.090   8.995
 4203W        W 8267   2.729   6.476   0.844
 4204W        W 8268   0.505   7.720  11.406
 4205W        W 8269   3.711   0.439   1.973
 4206W        W 8270   0.834   1.794  11.395
 4207W        W 8271   4.945   4.234   9.120
 4208W        W 8272   7.747   0.803   1.792
 4209W        W 8273   5.506   6.690   3.579
 4210W        W 8274   1.256   6.067   9.923
 4211W        W 8275   9.997   4.024   0.214
 4212W        W 8276   8.349   1.274   3.391
 4213W        W 8277  10.240   5.476   2.668
 4214W        W 8278   5.768   7.097  10.049
 4215W        W 8279   7.473   2.704   1.969
 4216W        W 8280   9.184  10.312   9.862
 4217W        W 8281   0.315   5.440  11.053
 4218W        W 8282   4.781   7.935  10.329
 4219W        W 8283   8.855   1.481   9.192
 4220W        W 8284   1.213   3.982   1.926
 4221W        W 8285   3.742   5.834  11.714
 4222W        W 8286   6.572   8.355   2.710
 4223W        W 8287   3.250   6.970   9.034
 4224W        W 8288   1.362   2.274  11.879
 4225W        W 8289   7.875   9.482  10.488
 4226W        W 8290   6.744   4.012   9.339
 4227W        W 8291   8.392   2.613  11.907
 4228W        W 8292   8.044   9.995   0.387
 4229W        W 8293   7.580   6.615   0.480
 4230W        W 8294   8.773   9.536   2.259
 4231W        W 8295   4.539   4.205   3.216
 4232W        W 8296   6.089   8.486   9.290
 4233W        W 8297   3.755   1.306   1.911
 4234W        W 8298   0.858   6.920   9.203
 4235W        W 8299   7.866   1.807   0.061
 4236W        W 8300   6.675   6.494  11.349
 4237W        W 8301  10.424   8.283   3.136
 4238W        W 8302   9.671   3.865   8.845
 4239W        W 8303   4.225   7.406  11.280
 4240W        W 8304  10.417   9.423   0.585
 4241W        W 8305   4.642   8.917   3.142
 4242W        W 8306   3.187   3.725  10.094
 4243W        W 8307   6.058   9.571  10.987
 4244W        W 8308  10.487   9.700  11.429
 4245W        W 8309   1.512   3.712   2.970
 4246W        W 8310   7.623   1.311  10.623
 4247W        W 8311   8.381   7.065  10.782
 4248W        W 8312   4.324   5.267   8.423
 4249W        W 8313   2.306   3.922   8.775
 4250W        W 8314   4.753   6.026   1.017
 4251W        W 8315   1.895   3.059  11.901
 4252W        W 8316   3.311   7.146  10.462
 4253W        W 8317   9.334   2.826   1.687
 4254W        W 8318   3.555   2.746   2.316
 4255W        W 8319   4.723   7.033   2.485
 4256W        W 8320   6.117   2.234  10.139
 4257W        W 8321   1.809   5.979   1.747
 4258W        W 8322   7.801   9.746  11.667
 4259W        W 8323   6.680   6.163  11.959
 4260W        W 8324   9.374   9.054   1.306
 4261W        W 8325   9.420  10.496   2.676
 4262W        W 8326   1.942   9.753   0.703
 4263W        W 8327   2.052   9.944  10.406
 4264W        W 8328   0.385   2.894   0.701
 4265W        W 8329   2.169   4.506  10.854
 4266W        W 8330   3.290   4.442   3.627
 4267W        W 8331   0.035   2.819   0.338
 4268W        W 8332  10.305   8.215  10.734
 4269W        W 8333   5.239   9.477   0.778
 4270W        W 8334   4.793   2.325   1.180
 4271W        W 8335   1.716   8.477  11.782
 4272W        W 8336   3.221   7.203   1.409
 4273W        W 8337   0.260   5.231   3.579
 4274W        W 8338   8.917   6.203   8.539
 4275W        W 8339   6.947   4.073   0.684
 4276W        W 8340   1.346   7.853   0.310
 4277W        W 8341   2.861   9.839   1.873
 4278W        W 8342   2.109   6.631  11.804
 4279W        W 8343   1.936   9.436  11.474
 4280W        W 8344   5.955   4.318   9.074
 4281W        W 8345   8.005   9.702   9.906
 4282W        W 8346   8.122   8.653   2.686
 4283W        W 8347   9.366   1.704   9.837
 4284W        W 8348   3.612   3.563   2.160
 4285W        W 8349   3.567   9.541   9.917
 4286W        W 8350   1.388   3.190  11.845
 4287W        W 8351   2.204   3.743   9.811
 4288W        W 8352   3.192   8.838   3.399
 4289W        W 8353   8.370   5.249  10.960
 4290W        W 8354   3.264   0.663   2.975
 4291W        W 8355   3.827   4.657   8.310
 4292W        W 8356  10.231   6.035   2.868
 4293W        W 8357   6.545   4.874   1.264
 4294W        W 8358   3.719   4.542   1.950
 4295W        W 8359   2.613   2.015   8.856
 4296W        W 8360   4.416  10.103  10.422
 4297W        W 8361   7.068   2.298  10.068
 4298W        W 8362   9.569   2.984  10.820
 4299W        W 8363   1.690   7.573   9.064
 4300W        W 8364   6.694   6.183   4.017
 4301W        W 8365   1.799   7.052  11.759
 4302W        W 8366   0.016  10.229   9.586
 4303W        W 8367   0.273   3.104   1.194
 4304W        W 8368   9.495   5.642   0.717
 4305W        W 8369   9.039   4.996   8.948
 4306W        W 8370   8.523   6.621   1.635
 4307W        W 8371   0.868   4.760  10.745
 4308W        W 8372   2.331   4.757  11.256
 4309W        W 8373   3.843   8.293   9.519
 4310W        W 8374   2.086   1.000   1.300
 4311W        W 8375   6.364   9.778   9.235
 4312W        W 8376   5.069   4.216   8.620
 4313W        W 8377   6.146   2.237   1.666
 4314W        W 8378   4.666   5.887  10.500
 4315W        W 8379  10.317   2.984  11.903
 4316W        W 8380   8.423   4.262   0.249
 4317W        W 8381   7.819   9.012   2.468
 4318W        W 8382   2.837   8.550   2.779
 4319W        W 8383   3.376  10.366   2.927
 4320W        W 8384   0.024  10.467   0.774
 4321W        W 8385   2.757  10.327  11.674
 4322W        W 8386   8.197   6.660   3.114
 4323W        W 8387   0.249   6.547   9.271
 4324W        W 8388   4.138   9.232   1.433
 4325W        W 8389   3.469   0.317   8.559
 4326W        W 8390   6.560   3.661   2.004
 4327W        W 8391   8.961  10.193   0.062
 4328W        W 8392   0.371   8.956   2.132
 4329W        W 8393   1.337   1.295   0.034
 4330W        W 8394   8.871   9.997   3.007
 4331W        W 8395   0.561   0.979  11.030
 4332W        W 8396   5.945   6.393   3.580
 4333W        W 8397   6.168   0.961  10.940
 4334W        W 8398   7.879   0.839   0.364
 4335W        W 8399   9.581   7.363  11.895
 4336W        W 8400   2.388   1.106   8.979
 4337W        W 8401   2.029   9.822  11.814
 4338W        W 8402   3.357   7.483  11.232
 4339W        W 8403   0.043   2.663   1.054
 4340W        W 8404   2.752   2.192  11.367
 4341W        W 8405   5.229   9.997   0.012
 4342W        W 8406   6.516   8.364   1.760
 4343W        W 8407   4.725   5.505  11.821
 4344W        W 8408   1.675   7.929   9.900
 4345W        W 8409   1.318   2.778   2.605
 4346W        W 8410  10.170   7.277   0.968
 4347W        W 8411   6.542  10.281   9.385
 4348W        W 8412   4.153   8.507   9.865
 4349W        W 8413   5.976   0.005  11.758
 4350W        W 8414   0.113   5.332   0.885
 4351W        W 8415  10.261   6.558   9.067
 4352W        W 8416   8.116   4.108   9.378
 4353W        W 8417   3.355   2.399  10.419
 4354W        W 8418   7.676   5.274  11.423
 4355W        W 8419   6.629   6.906   0.373
 4356W        W 8420   6.131   1.867   0.059
 4357W        W 8421   9.302   0.296   1.297
 4358W        W 8422   5.911   5.740   9.868
 4359W        W 8423   9.027   5.718   2.453
 4360W        W 8424   9.536  -0.000   0.930
 4361W        W 8425   0.474   6.084   9.360
 4362W        W 8426   7.497   6.151   2.938
 4363W        W 8427   6.096   6.088   9.483
 4364W        W 8428   6.712   3.062   9.369
 4365W        W 8429   0.797   8.994   2.713
 4366W        W 8430   4.911   2.663   1.962
 4367W        W 8431   3.064   0.203  11.308
 4368W        W 8432   4.238   1.063  10.478
 4369W        W 8433  10.393   6.966   8.747
 4370W        W 8434   3.767   3.351   3.081
 4371W        W 8435   7.574   3.996   4.357
 4372W        W 8436   9.349   6.168  11.378
 4373W        W 8437   2.695   7.416  11.659
 4374W        W 8438   0.525   7.740  11.935
 4375W        W 8439   7.150   4.986   1.921
 4376W        W 8440   0.318   5.043   2.650
 4377W        W 8441   4.159   6.268   2.897
 4378W        W 8442   3.608   3.765  10.376
 4379W        W 8443   5.569   1.669   0.922
 4380W        W 8444   3.724   0.739   8.909
 4381W        W 8445   7.545   1.348  11.122
 4382W        W 8446   2.733   9.763   9.013
 4383W        W 8447   4.714  10.040   0.803
 4384W        W 8448   6.687   8.483   2.234
 4385W        W 8449   5.050   4.011   9.876
 4386W        W 8450   6.901   0.781   9.615
 4387W        W 8451   2.122   6.892   1.901
 4388W        W 8452   8.816   2.915  -0.002
 4389W        W 8453   5.083   6.670   2.330
 4390W        W 8454   0.779   2.237   1.169
 4391W        W 8455   9.039   8.911   0.887
 4392W        W 8456   9.848   8.200   2.784
 4393W        W 8457   3.326   7.588  10.227
 4394W        W 8458   4.915   6.197  11.548
 4395W        W 8459   7.041   5.399   1.029
 4396W        W 8460   7.908   6.292   0.911
 4397W        W 8461   8.341   5.925  11.362
 4398W        W 8462   6.324   2.714  10.921
 4399W        W 8463   8.344   6.337   2.586
 4400W        W 8464  10.015   6.168  10.980
 4401W        W 8465   2.084   8.485   2.135
 4402W        W 8466   8.954   2.647   1.009
 4403W        W 8467   9.497   5.443   1.676
 4404W        W 8468   4.087   8.892   0.987
 4405W        W 8469   2.583   9.999  10.443
 4406W        W 8470   5.078   9.560   1.291
 4407W        W 8471   7.137   7.474   9.167
 4408W        W 8472  10.148   6.662  10.965
 4409W        W 8473   4.129   3.766  11.795
 4410W        W 8474   9.940   2.995   8.788
 4411W        W 8475   2.913   9.914  11.410
 4412W        W 8476   5.521   0.745   0.734
 4413W        W 8477   0.206   7.074   3.339
 4414W        W 8478   5.590  10.350   9.395
 4415W        W 8479   7.930   3.303   9.681
 4416W        W 8480   7.411   1.414   8.653
 4417W        W 8481   5.444   5.527   1.896
 4418W        W 8482   9.531   4.482   2.592
 4419W        W 8483   9.945   4.077   1.974
 4420W        W 8484   9.291   8.840  10.812
 4421W        W 8485   5.996   3.506   9.344
 4422W        W 8486   2.829   8.334   0.251
 4423W        W 8487   1.477   4.702   0.915
 4424W        W 8488   9.767   8.878  11.018
 4425W        W 8489   9.829   5.196   0.977
 4426W        W 8490   1.462   6.172   9.433
 4427W        W 8491   8.070   6.101   9.487
 4428W        W 8492   5.193   0.280  10.325
 4429W        W 8493   4.984   3.754   0.509
 4430W        W 8494   2.706   1.186  10.331
 4431W        W 8495   8.535   1.703   2.542
 4432W        W 8496   4.576   3.848  11.528
 4433W        W 8497   5.216  10.017   9.623
 4434W        W 8498   1.384   6.684   3.038
 4435W        W 8499   0.411   8.197   2.718
 4436W        W 8500   6.144   4.287   2.619
 4437W        W 8501   8.064   0.204  10.156
 4438W        W 8502   3.541   9.911   3.184
 4439W        W 8503   5.453   8.561  10.370
 4440W        W 8504   9.407   7.290   0.374
 4441W        W 8505   2.374   7.098   2.513
 4442W        W 8506   2.794   1.838   9.518
 4443W        W 8507   2.360   7.760  10.448
 4444W        W 8508   6.116   4.175   0.255
 4445W        W 8509   4.296   8.054   2.882
 4446W        W 8510   2.684   4.613   9.332
 4447W        W 8511  10.380   8.451   1.788
 4448W        W 8512   1.802   0.322   8.886
 4449W        W 8513   2.225   4.141  11.302
 4450W        W 8514   4.780   6.062   0.008
 4451W        W 8515   6.041   0.855   2.545
 4452W        W 8516   4.673   9.078   9.197
 4453W        W 8517   8.527   1.089   1.432
 4454W        W 8518   8.371   2.642   2.527
 4455W        W 8519   4.683  10.332   1.935
 4456W        W 8520   9.056   0.710  10.793
 4457W        W 8521   0.725   8.531   3.423
 4458W        W 8522   6.116   1.686   1.479
 4459W        W 8523   5.239   8.223   2.723
 4460W        W 8524   0.317   1.685   1.773
 4461W        W 8525   7.402   7.163  10.493
 4462W        W 8526   8.285   5.192   3.061
 4463W        W 8527   7.061   5.365   3.810
 4464W        W 8528  10.293   4.202  11.762
 4465W        W 8529   0.313   7.553   1.931
 4466W        W 8530   9.933   5.524   1.415
 4467W        W 8531   5.650   3.509  11.756
 4468W        W 8532   4.070   2.393  11.374
 4469W        W 8533   6.024   4.092   0.770
 4470W        W 8534   8.014   3.559  10.656
 4471W        W 8535   3.131   0.311   2.638
 4472W        W 8536   5.747   9.152  11.769
 4473W        W 8537   2.831   0.744  10.596
 4474W        W 8538   6.689   1.401   0.461
 4475W        W 8539   7.398   5.562   9.972
 4476W        W 8540   4.178   3.449   1.438
 4477W        W 8541   3.584  10.048   0.007
 4478W        W 8542   4.264   9.613   2.749
 4479W        W 8543   5.643   6.586  10.259
 4480W        W 8544   9.382   1.514  10.774
 4481W        W 8545   8.259   3.758  10.261
 4482W        W 8546   0.696   5.509  11.378
 4483W        W 8547   0.432   1.892   0.893
 4484W        W 8548   4.152   7.051   0.710
 4485W        W 8549   4.231   0.733  11.834
 4486W        W 8550   5.295   8.534   9.379
 4487W        W 8551   1.788   2.116   9.831
 4488W        W 8552   3.321   6.130   9.572
 4489W        W 8553   7.044  10.091   0.318
 4490W        W 8554   1.661   7.754   3.691
 4491W        W 8555   8.432   3.295   9.815
 4492W        W 8556   6.566   2.131  11.481
 4493W        W 8557   1.785   6.975  10.269
 4494W        W 8558   0.357   6.018   2.009
 4495W        W 8559   5.967   7.095   9.587
 4496W        W 8560   2.708   5.166   3.350
 4497W        W 8561   1.886   0.346   1.751
 4498W        W 8562   1.703   7.971  11.948
 4499W        W 8563   6.270   8.256  10.295
 4500W        W 8564   7.068   2.212   2.500
 4501W        W 8565   6.164   8.956   9.077
 4502W        W 8566   8.889   6.196  10.401
 4503W        W 8567   6.312   2.784   3.207
 4504W        W 8568   7.094   2.730   1.203
 4505W        W 8569   9.924   6.495  11.430
 4506W        W 8570   9.513   3.787   1.434
 4507W        W 8571   0.881   6.057   2.324
 4508W        W 8572   7.787   8.151   1.038
 4509W        W 8573   4.265   3.291   3.530
 4510W        W 8574   0.544   8.958   0.214
 4511W        W 8575   5.675   0.276   2.342
 4512W        W 8576   2.169   0.348  10.247
 4513W        W 8577   9.854   6.578   9.385
 4514W        W 8578   3.789   2.976   0.476
 4515W        W 8579   8.851   4.605   9.663
 4516W        W 8580   0.972   9.434  11.535
 4517W        W 8581   1.337   1.434   2.754
 4518W        W 8582   1.832   5.730  12.003
 4519W        W 8583   7.903   7.162  11.191
 4520W        W 8584   9.153   0.057   3.147
 4521W        W 8585   1.502   9.511   0.876
 4522W        W 8586   8.573   0.257   2.008
 4523W        W 8587  10.418   4.196   1.737
 4524W        W 8588   7.209   5.118   1.421
 4525W        W 8589   8.436  10.446   2.376
 4526W        W 8590   3.182   3.321  11.548
 4527W        W 8591   4.644   6.859   0.447
 4528W        W 8592   3.394   5.730  10.772
 4529W        W 8593   9.707   5.681   8.910
 4530W        W 8594   7.867   9.089  10.959
 4531W        W 8595   2.934   0.497  11.773
 4532W        W 8596   9.105   3.754   9.926
 4533W        W 8597   5.729   5.270   2.238
 4534W        W 8598   4.248  10.313   2.237
 4535W        W 8599   0.457   8.076   1.894
 4536W        W 8600   0.906   6.626  11.082
 4537W        W 8601   0.829   3.930   8.166
 4538W        W 8602   5.735   6.893   2.795
 4539W        W 8603   8.360   2.137  10.772
 4540W        W 8604   6.756   0.781  10.839
 4541W        W 8605   5.824   1.521  10.321
 4542W        W 8606   8.268   7.271  11.516
 4543W        W 8607   5.058   9.108   2.310
 4544W        W 8608   7.006   5.261   9.852
 4545W        W 8609   9.839   5.946   0.468
 4546W        W 8610   6.971   3.268   9.770
 4547W        W 8611   4.752   3.809   2.484
 4548W        W 8612   8.653   7.164   9.836
 4549W        W 8613   5.507   7.622   3.233
 4550W        W 8614   3.554   7.149  10.904
 4551W        W 8615   3.021   0.666  11.060
 4552W        W 8616   8.056   8.968  11.923
 4553W        W 8617   9.819   5.106  11.916
 4554W        W 8618   8.921   1.831   9.586
 4555W        W 8619   6.139   3.783  11.785
 4556W        W 8620   7.374   0.324  10.348
 4557W        W 8621   1.130   2.216  10.903
 4558W        W 8622   3.310   3.313   1.325
 4559W        W 8623   8.939   7.810   2.844
 4560W        W 8624   4.741   9.414   0.600
 4561W        W 8625   7.058   1.763   1.399
 4562W        W 8626   2.233   8.635  10.082
 4563W        W 8627   4.338   9.721  10.869
 4564W        W 8628   3.121   5.554   1.859
 4565W        W 8629   5.707   3.083   9.306
 4566W        W 8630   7.194   8.084  10.314
 4567W        W 8631   6.724   5.334   1.441
 4568W        W 8632   9.822   0.768  11.694
 4569W        W 8633   3.928   9.801  11.694
 4570W        W 8634   3.690   6.956   1.508
 4571W        W 8635   1.481   0.199   1.497
 4572W        W 8636   6.063   5.792  11.331
 4573W        W 8637   3.828   4.049   2.191
 4574W        W 8638   4.062   4.273   2.611
 4575W        W 8639   3.242   4.766   3.244
 4576W        W 8640   9.163   6.906   2.572
 4577W        W 8641   2.643   8.428   3.486
 4578W        W 8642   3.852   0.856   1.701
 4579W        W 8643   4.842   6.673   9.885
 4580W        W 8644   2.562   0.229  11.449
 4581W        W 8645   3.341   3.134  10.923
 4582W        W 8646   9.501   9.343   3.376
 4583W        W 8647   6.965   2.918  11.359
 4584W        W 8648   1.277   1.567   1.720
 4585W        W 8649   5.072   6.936   1.229
 4586W        W 8650   7.051   7.205   2.284
 4587W        W 8651   8.034   6.968   2.369
 4588W        W 8652   5.513   3.799   2.690
 4589W        W 8653   8.746   9.821   3.477
 4590W        W 8654   3.652   4.711   1.483
 4591W        W 8655   5.972   8.339  11.947
 4592W        W 8656   1.253   8.092   2.529
 4593W        W 8657   7.878   0.376   2.818
 4594W        W 8658   1.885   8.801  10.983
 4595W        W 8659   1.880   9.468  10.053
 4596W        W 8660   4.646   2.856   2.918
 4597W        W 8661   9.925   1.377   1.528
 4598W        W 8662   6.175   0.399   2.384
 4599W        W 8663   6.579   7.051   1.297
 4600W        W 8664   3.825   4.091   0.150
 4601W        W 8665   3.674   0.731   3.318
 4602W        W 8666   7.829   5.283   9.867
 4603W        W 8667   7.097   8.506   9.999
 4604W        W 8668   4.717   9.030  10.223
 4605W        W 8669   0.833   0.926   1.883
 4606W        W 8670   4.254   7.484   0.473
 4607W        W 8671   2.752   1.043   0.663
 4608W        W 8672   2.767   0.439   2.984
 4609W        W 8673   7.657   3.299   0.720
 4610W        W 8674   4.192   5.334  10.053
 4611W        W 8675   0.546   2.790   2.850
 4612W        W 8676   4.239   4.385   9.035
 4613W        W 8677   7.374   3.866   0.096
 4614W        W 8678   1.927   6.465  10.331
 4615W        W 8679   3.701   4.581  11.958
 4616W        W 8680   8.442   9.040   2.814
 4617W        W 8681   6.423   8.106  10.813
 4618W        W 8682  10.440   6.470  11.342
 4619W        W 8683   6.024   5.551   9.022
 4620W        W 8684   0.753   5.905   2.814
 4621W        W 8685   0.053   6.601   1.231
 4622W        W 8686   8.666  10.464  10.866
 4623W        W 8687   0.009   2.649  10.005
 4624W        W 8688   9.834   5.165  11.048
 4625W        W 8689   5.063   2.817  11.420
 4626W        W 8690   0.603   9.001  11.334
 4627W        W 8691   2.678   2.338   8.472
 4628W        W 8692   8.716   1.037   9.372
 4629W        W 8693   3.499   4.168  11.765
 4630W        W 8694   8.801   8.850  10.619
 4631W        W 8695   8.487   5.013   2.279
 4632W        W 8696   1.130   2.933   0.924
 4633W        W 8697   9.369   6.504   9.228
 4634W        W 8698   7.113   8.349   0.809
 4635W        W 8699   9.864   2.313   1.660
 4636W        W 8700   5.620   4.742   2.864
 4637W        W 8701   2.935  10.428  10.163
 4638W        W 8702   4.507   0.572   2.497
 4639W        W 8703   6.776   6.188   9.928
 4640W        W 8704   5.916   8.587   3.399
 4641W        W 8705   3.069   8.073   2.591
 4642W        W 8706   5.118   9.053   8.925
 4643W        W 8707   6.552   3.610   9.999
 4644W        W 8708   2.553   3.304   9.854
 4645W        W 8709   0.965   6.168  10.856
 4646W        W 8710   8.961   7.417   3.197
 4647W        W 8711   6.908   6.486   3.673
 4648W        W 8712  10.310   4.701   9.809
 4649W        W 8713   5.473   0.444   1.850
 4650W        W 8714   5.488   3.623   1.915
 4651W        W 8715   8.519   7.704   1.416
 4652W        W 8716   6.492   4.543   4.129
 4653W        W 8717   1.805   9.803   1.182
 4654W        W 8718   8.628   4.134   9.483
 4655W        W 8719   0.367   2.882  11.951
 4656W        W 8720   4.974   8.579   2.958
 4657W        W 8721   8.366   5.147   3.541
 4658W        W 8722   8.004  10.327   8.831
 4659W        W 8723  10.430   2.487  11.944
 4660W        W 8724   4.302   8.592   2.832
 4661W        W 8725   9.552  10.066  10.886
 4662W        W 8726   3.892   4.642   9.371
 4663W        W 8727   1.168   7.441   9.054
 4664W        W 8728   4.781   2.093  11.768
 4665W        W 8729   8.765   0.131  11.366
 4666W        W 8730   3.931   5.611   8.469
 4667W        W 8731   3.747   2.283   1.505
 4668W        W 8732   2.239   2.376   9.029
 4669W        W 8733   7.386   4.590   0.817
 4670W        W 8734   5.161   0.841   9.438
 4671W        W 8735   7.034   8.478   1.779
 4672W        W 8736   9.355   3.181   3.287
 4673W        W 8737   0.853   0.983   8.911
 4674W        W 8738   1.168   7.971  11.063
 4675W        W 8739   0.004   0.529   2.178
 4676W        W 8740   5.653   7.040  10.949
 4677W        W 8741   6.563  10.106   3.464
 4678W        W 8742   8.510   1.484  10.843
 4679W        W 8743   7.537   4.807  10.733
 4680W        W 8744   4.682   4.691  10.461
 4681W        W 8745   3.766   0.896  11.681
 4682W        W 8746   9.600   3.848  10.304
 4683W        W 8747   8.684   3.214   9.350
 4684W        W 8748   3.323   5.523  11.987
 4685W        W 8749   5.666   4.809   9.871
 4686W        W 8750   0.251   0.830  10.177
 4687W        W 8751   3.177   5.915   8.514
 4688W        W 8752   1.837   7.902  10.428
 4689W        W 8753   6.584  10.228   1.873
 4690W        W 8754   8.089   9.863   1.902
 4691W        W 8755   4.623   7.873  11.187
 4692W        W 8756   2.609   0.893   1.154
 4693W        W 8757   6.212   7.410   0.004
 4694W        W 8758   9.374   2.482   9.456
 4695W        W 8759   1.822   6.776   2.769
 4696W        W 8760   1.659   6.853   9.794
 4697W        W 8761   0.221   2.009   9.513
 4698W        W 8762   8.535   6.047  11.828
 4699W        W 8763   3.173   2.849   8.877
 4700W        W 8764   9.917   0.879   1.739
 4701W        W 8765   5.472   8.993   0.803
 4702W        W 8766   6.116   3.261  11.657
 4703W        W 8767   9.989   1.720  11.916
 4704W        W 8768   3.010   4.103  11.825
 4705W        W 8769   1.758   1.294  10.240
 4706W        W 8770   3.575   0.064  11.246
 4707W        W 8771   0.377   6.927   8.957
 4708W        W 8772   7.133   5.773   1.359
 4709W        W 8773   5.493   2.849   9.713
 4710W        W 8774   8.480   2.143   1.688
 4711W        W 8775   8.457   9.750   0.248
 4712W        W 8776   6.442   9.349   0.357
 4713W        W 8777   6.963   4.647   4.342
 4714W        W 8778   8.553   3.802   9.853
 4715W        W 8779   3.241   2.335   1.445
 4716W        W 8780   1.388   5.206   1.383
 4717W        W 8781   0.210   0.709   3.158
 4718W        W 8782   7.896   5.000  11.050
 4719W        W 8783   0.704   4.971   9.813
 4720W        W 8784  10.274   5.677   9.628
 4721W        W 8785  10.229   3.635   8.524
 4722W        W 8786   9.122   4.741  10.637
 4723W        W 8787   7.618   0.419   0.360
 4724W        W 8788   5.286   4.044   2.290
 4725W        W 8789   9.888   9.931   3.097
 4726W        W 8790   1.959   8.291  11.024
 4727W        W 8791   9.250   4.052  11.801
 4728W        W 8792   1.405   5.557  10.043
 4729W        W 8793   2.226   8.467   9.579
 4730W        W 8794   8.443   6.431  11.286
 4731W        W 8795   8.338   8.315   3.022
 4732W        W 8796   7.694   9.972   1.303
 4733W        W 8797   7.085   3.579  10.175
 4734W        W 8798   9.393   6.005  10.898
 4735W        W 8799   7.787  10.234   1.740
 4736W        W 8800   4.743   5.785   9.569
 4737W        W 8801   6.185   6.253   2.285
 4738W        W 8802   7.539   2.181  10.265
 4739W        W 8803   6.614   0.221   0.696
 4740W        W 8804   6.164   0.885   8.430
 4741W        W 8805   7.381   0.882   0.401
 4742W        W 8806   9.590   3.888   9.787
 4743W        W 8807  10.376   9.218   2.056
 4744W        W 8808   6.132   8.048   1.898
 4745W        W 8809  10.210   1.558   0.334
 4746W        W 8810   7.105   5.085   0.190
 4747W        W 8811   8.581   3.057   2.302
 4748W        W 8812   2.809   5.190   9.039
 4749W        W 8813   8.250   6.200   9.938
 4750W        W 8814   4.219   6.719  10.564
 4751W        W 8815   3.646   3.663   8.941
 4752W        W 8816   0.863   3.587   8.729
 4753W        W 8817   4.321   3.309  10.456
 4754W        W 8818   3.690   6.726  10.060
 4755W        W 8819   0.778   0.728   3.158
 4756W        W 8820   2.785   8.348  10.855
 4757W        W 8821   4.673   4.921   9.339
 4758W        W 8822   5.519   5.864  10.764
 4759W        W 8823   5.312   5.056   1.957
 4760W        W 8824   7.532   0.782   9.551
 4761W        W 8825   5.148   6.215  11.045
 4762W        W 8826   6.541   6.103   3.028
 4763W        W 8827   5.481   1.342   9.464
 4764W        W 8828  10.430   3.512   0.461
 4765W        W 8829   2.480   5.240  11.501
 4766W        W 8830  10.163   3.992   3.658
 4767W        W 8831   9.390   6.618   2.211
 4768W        W 8832   2.658   1.215   9.469
 4769W        W 8833  10.409   9.127  10.891
 4770W        W 8834   0.871   3.112   0.066
 4771W        W 8835   4.669   6.367   3.666
 4772W        W 8836   2.445   5.155   0.002
 4773W        W 8837   7.768   0.649  10.083
 4774W        W 8838   0.814   0.239   3.650
 4775W        W 8839   3.115  10.434   1.430
 4776W        W 8840   8.419   7.300   2.456
 4777W        W 8841   8.463   7.540   2.893
 4778W        W 8842   0.849   7.654   0.351
 4779W        W 8843   0.924   9.514   0.920
 4780W        W 8844   0.926   9.864  11.268
 4781W        W 8845   8.731   9.778  11.785
 4782W        W 8846   1.060   6.326   2.781
 4783W        W 8847  10.444   9.970   0.908
 4784W        W 8848   4.579   2.987  11.430
 4785W        W 8849   1.837   0.855   2.888
 4786W        W 8850   1.698   2.566   2.339
 4787W        W 8851   5.989   0.525   0.134
 4788W        W 8852   8.077   4.863   1.145
 4789W        W 8853   2.659   2.390   2.402
 4790W        W 8854   0.275   3.645  10.514
 4791W        W 8855   3.631   6.221  10.050
 4792W        W 8856   6.570   5.233   0.886
 4793W        W 8857   6.589   5.915   9.547
 4794W        W 8858   6.697   8.687   0.849
 4795W        W 8859   2.346   0.753   2.854
 4796W        W 8860   6.766   9.116   0.031
 4797W        W 8861   1.787   3.106   8.858
 4798W        W 8862   4.982   7.332   9.965
 4799W        W 8863   1.916  10.016   0.275
 4800W        W 8864   8.865   1.821   8.348
 4801W        W 8865   6.553   0.689   2.203
 4802W        W 8866   9.583   6.605   3.146
 4803W        W 8867   2.246   3.406   8.861
 4804W        W 8868   1.771   7.453   0.175
 4805W        W 8869   1.312   6.120  10.450
 4806W        W 8870   3.842   4.641   8.826
 4807W        W 8871   3.769   8.563   9.070
 4808W        W 8872   4.108   2.392   9.004
 4809W        W 8873   1.197   7.977   9.663
 4810W        W 8874   4.287   4.840   8.114
 4811W        W 8875   3.938   2.734  10.878
 4812W        W 8876   4.027   0.004   1.826
 4813W        W 8877   6.574   9.976   1.276
 4814W        W 8878   7.009   6.199   2.197
 4815W        W 8879   4.291  10.057   9.474
 4816W        W 8880   3.656   0.813   0.688
 4817W        W 8881  10.411   3.569   0.980
 4818W        W 8882   1.233   1.074  11.558
 4819W        W 8883   9.587   7.871   0.796
 4820W        W 8884   5.549   3.446   8.964
 4821W        W 8885   7.004   2.424  11.552
 4822W        W 8886   0.995   4.196  11.334
 4823W        W 8887   9.456   0.023  10.707
 4824W        W 8888   1.241  10.221   9.907
 4825W        W 8889   4.337   0.496  11.337
 4826W        W 8890   2.712   9.980   9.941
 4827W        W 8891   4.141   2.923   3.167
 4828W        W 8892  10.458   9.437  10.510
 4829W        W 8893   3.274   8.427   1.579
 4830W        W 8894   3.373   3.183   2.626
 4831W        W 8895   3.244   5.121  10.242
 4832W        W 8896   5.232   0.012   2.288
 4833W        W 8897   9.483   1.899   1.488
 4834W        W 8898   4.142   8.934   3.316
 4835W        W 8899   2.345   5.289   8.797
 4836W        W 8900   7.930   8.459   0.122
 4837W        W 8901   0.506   4.337   9.328
 4838W        W 8902   4.609   6.960   3.961
 4839W        W 8903   9.871   4.668   0.755
 4840W        W 8904   8.149   9.048   1.817
 4841W        W 8905   0.681   9.878  10.823
 4842W        W 8906   5.182   0.422  11.665
 4843W        W 8907   4.950   7.040   9.541
 4844W        W 8908   9.747   4.161  11.803
 4845W        W 8909   1.312   5.831   8.515
 4846W        W 8910   5.730   9.890  10.344
 4847W        W 8911   2.358   4.580   2.277
 4848W        W 8912   4.138   6.915  10.065
 4849W        W 8913   6.933   4.417   1.050
 4850W        W 8914   5.739  10.067   0.024
 4851W        W 8915   9.408   3.047   8.600
 4852W        W 8916   8.114   4.338  11.310
 4853W        W 8917   6.624   9.934  10.383
 4854W        W 8918   5.492   3.611   3.965
 4855W        W 8919   2.950   6.428  11.872
 4856W        W 8920   6.878   7.003   3.586
 4857W        W 8921   2.354  10.435   2.298
 4858W        W 8922   9.729   2.186  10.244
 4859W        W 8923   6.974   4.613   0.545
 4860W        W 8924   3.681   9.501   2.173
 4861W        W 8925   0.261   4.190   3.026
 4862W        W 8926   3.080   0.444   8.920
 4863W        W 8927   0.695   6.673   1.892
 4864W        W 8928   6.642   2.586  11.904
 4865W        W 8929   6.355   9.181   3.691
 4866W        W 8930   4.708   1.839  10.068
 4867W        W 8931   0.668   3.696   2.506
 4868W        W 8932   4.486   0.358   8.918
 4869W        W 8933   0.877   6.348   0.885
 4870W        W 8934   0.336   2.321  11.000
 4871W        W 8935  10.375   0.862   0.970
 4872W        W 8936   3.608   3.669  11.932
 4873W        W 8937   7.566   8.774  11.946
 4874W        W 8938   8.530   1.373  10.088
 4875W        W 8939   7.111   7.627  10.651
 4876W        W 8940   0.346  10.030   1.216
 4877W        W 8941   5.133   6.909   0.281
 4878W        W 8942   4.920   0.038   1.407
 4879W        W 8943   4.347   7.009   1.839
 4880W        W 8944   6.462   0.292   9.843
 4881W        W 8945   0.773  10.386   0.357
 4882W        W 8946   8.393   3.136  10.327
 4883W        W 8947   2.989   5.306   0.894
 4884W        W 8948   5.967   3.226   2.690
 4885W        W 8949   2.430   6.487   9.446
 4886W        W 8950   4.958   3.232   3.486
 4887W        W 8951   6.943   0.800  10.371
 4888W        W 8952   6.350   4.601   2.088
 4889W        W 8953   1.892   8.423  10.524
 4890W        W 8954   2.633   0.725  11.389
 4891W        W 8955   7.803   1.190   8.385
 4892W        W 8956   9.464   6.720   1.341
 4893W        W 8957   0.987   0.244   1.382
 4894W        W 8958   7.189   7.693   2.232
 4895W        W 8959   5.142   7.581  10.400
 4896W        W 8960   9.420   9.524   1.530
 4897W        W 8961   0.003   8.493   1.299
 4898W        W 8962   7.390   6.673   2.863
 4899W        W 8963   8.614   2.254   8.826
 4900W        W 8964   8.201   9.974  11.882
 4901W        W 8965   2.250   2.635   8.577
 4902W        W 8966   6.628   4.923   1.775
 4903W        W 8967   0.173   8.491   0.810
 4904W        W 8968   9.288   2.757   2.709
 4905W        W 8969   4.417   6.181  11.441
 4906W        W 8970   3.127  10.314   0.479
 4907W        W 8971   8.941   1.184  10.757
 4908W        W 8972   2.814   1.260   8.640
 4909W        W 8973   8.863   2.615  10.451
 4910W        W 8974   7.795   4.979   9.183
 4911W        W 8975   0.872   4.465   9.674
 4912W        W 8976   6.415   2.855  10.430
 4913W        W 8977   0.230   8.984   0.656
 4914W        W 8978   6.453   1.155   2.413
 4915W        W 8979   5.932   3.650   4.240
 4916W        W 8980   6.457   7.399   2.623
 4917W        W 8981   7.555   3.767   2.945
 4918W        W 8982   9.656   3.222   1.784
 4919W        W 8983   9.376   1.802  11.238
 4920W        W 8984   9.458   7.780   0.295
 4921W        W 8985   1.465   8.786   0.132
 4922W        W 8986   7.030   5.477   9.183
 4923W        W 8987   0.032   4.167  10.516
 4924W        W 8988   7.704   8.083  10.387
 4925W        W 8989   0.750   7.077   3.341
 4926W        W 8990   0.619   9.836   2.142
 4927W        W 8991   2.193   1.299  11.012
 4928W        W 8992   3.293   6.013  11.874
 4929W        W 8993   0.020   3.325  11.100
 4930W        W 8994   8.558   3.313   1.196
 4931W        W 8995   4.486   6.459   1.726
 4932W        W 8996   5.987   2.608  10.440
 4933W        W 8997   1.705   7.994   2.776
 4934W        W 8998   6.960   9.507   9.998
 4935W        W 8999   7.204   6.569  11.217
 4936W        W 9000   2.487   7.555   2.744
 4937W        W 9001   7.284   1.682   0.954
 4938W        W 9002   6.261   4.495   3.400
 4939W        W 9003   6.028   0.426  10.105
 4940W        W 9004   0.135   4.700   1.979
 4941W        W 9005   0.544   4.084   3.448
 4942W        W 9006   9.950   3.518   0.264
 4943W        W 9007   7.941   7.194   1.903
 4944W        W 9008   4.684   4.186   3.719
 4945W        W 9009  10.010   9.064   2.384
 4946W        W 9010   8.560   4.938   8.409
 4947W        W 9011   7.475   4.132  10.446
 4948W        W 9012   2.234   1.144  11.865
 4949W        W 9013   0.773   3.692   2.015
 4950W        W 9014   9.080   1.672   1.211
 4951W        W 9015   4.430   4.207  11.889
 4952W        W 9016   5.576   1.395   1.547
 4953W        W 9017   7.471   0.751   2.619
 4954W        W 9018   6.662   4.686   3.661
 4955W        W 9019   0.999   8.993   1.668
 4956W        W 9020   1.981   6.260   9.464
 4957W        W 9021   3.606   2.636   3.271
 4958W        W 9022   2.347   4.259  10.030
 4959W        W 9023   7.615   7.959   3.226
 4960W        W 9024   8.821   8.921   3.119
 4961W        W 9025   0.174   4.764   0.292
 4962W        W 9026   2.769   4.820  11.650
 4963W        W 9027   6.240   8.364   9.773
 4964W        W 9028   1.038   3.558   2.852
 4965W        W 9029   6.852   8.981   2.213
 4966W        W 9030   2.681   8.506   1.681
 4967W        W 9031   6.952   3.821  11.315
 4968W        W 9032  10.336   8.900   3.358
 4969W        W 9033   1.976   2.551  11.841
 4970W        W 9034   5.611   0.900   9.200
 4971W        W 9035   7.532   8.729   2.803
 4972W        W 9036   0.875   4.342   3.156
 4973W        W 9037   5.429   3.299   9.929
 4974W        W 9038   3.087   4.076   2.870
 4975W        W 9039   7.839   4.524  11.695
 4976W        W 9040   1.399   3.004   2.142
 4977W        W 9041   7.593   9.782   1.964
 4978W        W 9042   0.794   3.162   0.574
 4979W        W 9043   3.610   6.432   2.717
 4980W        W 9044   2.759   9.071   0.692
 4981W        W 9045   9.149   6.552   3.433
 4982W        W 9046   5.475   0.610  10.698
 4983W        W 9047   0.856   9.842   2.586
 4984W        W 9048   7.517  10.116   8.714
 4985W        W 9049   4.209   7.770  11.625
 4986W        W 9050   1.980   1.049   2.413
 4987W        W 9051   2.163  10.084   1.431
 4988W        W 9052   3.587   2.037   2.526
 4989W        W 9053   7.439   4.282  10.924
 4990W        W 9054   7.238   1.805   8.957
 4991W        W 9055   8.581   6.834   1.171
 4992W        W 9056   7.935   2.699   2.224
 4993W        W 9057   9.436   5.579   9.771
 4994W        W 9058   4.630   7.867   1.918
 4995W        W 9059   4.820   0.332  11.298
 4996W        W 9060   6.402   0.858  10.476
 4997W        W 9061   1.633   2.828  10.444
 4998W        W 9062   0.735   1.659   3.335
 4999W        W 9063   4.538   7.125   9.823
 5000W        W 9064   1.714   2.653   8.605
 5001W        W 9065   9.802   5.921  10.584
 5002W        W 9066   4.850   7.551   9.515
 5003W        W 9067   3.428   6.576   9.296
 5004W        W 9068   0.482   2.555   0.313
 5005W        W 9069   1.846   4.237   8.770
 5006W        W 9070   2.211   1.668   8.839
 5007W        W 9071   2.721   3.797   9.787
 5008W        W 9072   4.824   1.173  11.382
 5009W        W 9073   1.647   5.186   0.702
 5010W        W 9074   9.902   6.117   9.125
 5011W        W 9075   9.019   4.225   2.032
 5012W        W 9076   9.192  10.075   9.374
 5013W        W 9077   6.514   9.474  10.238
 5014W        W 9078   8.355   4.455   8.524
 5015W        W 9079   8.817   2.078  11.626
 5016W        W 9080   8.124   9.248  10.111
 5017W        W 9081   9.962   2.125   3.245
 5018W        W 9082  10.209   5.668   9.105
 5019W        W 9083   7.100   6.773  10.338
 5020W        W 9084   9.964  10.272  10.512
 5021W        W 9085   2.255   0.766   8.545
 5022W        W 9086   4.748   6.004   0.520
 5023W        W 9087   8.100   6.729  10.540
 5024W        W 9088   1.189   1.947   3.195
 5025W        W 9089   8.502   5.486   1.696
 5026W        W 9090   5.537   3.351   2.943
 5027W        W 9091  10.279   7.482   2.839
 5028W        W 9092   8.837   4.216   2.905
 5029W        W 9093   0.184   5.655   9.283
 5030W        W 9094   7.613   4.609  10.278
 5031W        W 9095   6.242   0.204   1.515
 5032W        W 9096   4.301  10.037   1.761
 5033W        W 9097   7.961   9.576   0.123
 5034W        W 9098   6.470   4.554   9.924
 5035W        W 9099   9.291   8.356   9.700
 5036W        W 9100   4.169   2.231  10.884
 5037W        W 9101   0.349   4.954   1.183
 5038W        W 9102   3.879   7.199   1.921
 5039W        W 9103   1.621  10.368   1.845
 5040W        W 9104   4.691   7.477   2.802
 5041W        W 9105   8.925   9.845   8.838
 5042W        W 9106   2.095   7.195   2.931
 5043W        W 9107   1.770   1.217   3.280
 5044W        W 9108   8.067   2.137   0.417
 5045W        W 9109   7.019   6.259  10.350
 5046W        W 9110   0.714   4.340  11.749
 5047W        W 9111   5.937   7.842   0.001
 5048W        W 9112  10.342   0.923  10.506
 5049W        W 9113   9.961   6.027   1.407
 5050W        W 9114   7.524   3.616  10.474
 5051W        W 9115   1.444   0.060   0.988
 5052W        W 9116   5.942   6.599   0.269
 5053W        W 9117   2.678   7.457   0.174
 5054W        W 9118   0.220   4.037  10.076
 5055W        W 9119   5.940  10.040  11.555
 5056W        W 9120   9.332   7.886   9.440
 5057W        W 9121   4.477   0.342   8.367
 5058W        W 9122   7.938   7.681  11.345
 5059W        W 9123   6.139   5.925  11.820
 5060W        W 9124   1.847   8.967  11.706
 5061W        W 9125   6.440   6.937  11.513
 5062W        W 9126   4.741   3.385  11.700
 5063W        W 9127   8.488   2.194   2.279
 5064W        W 9128   6.902   5.145  11.242
 5065W        W 9129   5.574   7.882  11.330
 5066W        W 9130   9.391   3.716   1.914
 5067W        W 9131   2.944   0.637   2.071
 5068W        W 9132   5.289   0.456  11.156
 5069W        W 9133   2.873   8.569   0.729
 5070W        W 9134   4.067   1.539  10.591
 5071W        W 9135   1.831   4.922  11.601
 5072W        W 9136   2.809   0.134   2.239
 5073W        W 9137   4.148   0.788   0.892
 5074W        W 9138   6.142   6.754   2.345
 5075W        W 9139   3.689   6.120   0.237
 5076W        W 9140   8.806   5.977  10.861
 5077W        W 9141   7.900   9.945   3.327
 5078W        W 9142   4.135   7.481   3.539
 5079W        W 9143   2.581   7.132   3.062
 5080W        W 9144   2.757   1.246   1.485
 5081W        W 9145   1.970   7.515   0.817
 5082W        W 9146   1.252   5.773   2.826
 5083W        W 9147   8.498   7.430  11.105
 5084W        W 9148   3.957   6.772   2.884
 5085W        W 9149   6.996   7.629   0.074
 5086W        W 9150   7.948   0.083   2.085
 5087W        W 9151   0.292   2.328   2.431
 5088W        W 9152   7.971   0.880   2.793
 5089W        W 9153   5.771   3.386   8.486
 5090W        W 9154   5.239   4.642   3.208
 5091W        W 9155   6.520   1.980   2.773
 5092W        W 9156   6.639   0.674  11.769
 5093W        W 9157   1.910   9.914  11.323
 5094W        W 9158   4.710   0.904   1.672
 5095W        W 9159   9.884   8.367   1.907
 5096W        W 9160   7.548   5.719   2.594
 5097W        W 9161   0.294  10.409   3.461
 5098W        W 9162   8.149   1.815   2.205
 5099W        W 9163   9.011   1.166   1.255
 5100W        W 9164   3.858   6.435   4.089
 5101W        W 9165   6.871   3.192   8.811
 5102W        W 9166   8.708   0.371   2.534
 5103W        W 9167   1.144   6.864   1.793
 5104W        W 9168   7.937   0.940  10.476
 5105W        W 9169   9.057   9.483  11.452
 5106W        W 9170   5.062   1.262   0.905
 5107W        W 9171   9.927   0.449  11.277
 5108W        W 9172   5.942   1.062  10.496
 5109W        W 9173   9.985   6.541   1.342
 5110W        W 9174   5.578  10.204   1.425
 5111W        W 9175   7.454   2.899   0.452
 5112W        W 9176   8.593   1.702   8.786
 5113W        W 9177   6.102   9.921   2.188
 5114W        W 9178   2.288   4.665   0.254
 5115W        W 9179   1.693   8.773   0.602
 5116W        W 9180   0.384   1.205   9.052
 5117W        W 9181  10.293   5.274  11.877
 5118W        W 9182   4.044   6.658  11.933
 5119W        W 9183   8.239   1.006   9.533
 5120W        W 9184   4.328   1.766  10.953
 5121W        W 9185   5.730   5.286   1.130
 5122W        W 9186   1.674   3.136  10.046
 5123W        W 9187  10.107   7.881   3.113
 5124W        W 9188   5.568   8.887  11.207
 5125W        W 9189   4.729   0.263  10.120
 5126W        W 9190   3.662   2.438   9.599
 5127W        W 9191   3.637   2.229  11.579
 5128W        W 9192   0.500   6.341  10.766
 5129W        W 9193   9.008   0.371   1.710
 5130W        W 9194   7.129   6.684   0.220
 5131W        W 9195   7.550   9.484   1.285
 5132W        W 9196   1.631   2.526   9.577
 5133W        W 9197   1.382   6.106   8.936
 5134W        W 9198   2.475   4.150   0.371
 5135W        W 9199   0.886   8.990   2.195
 5136W        W 9200   2.300   0.544   1.425
 5137W        W 9201   6.427   9.346  11.258
 5138W        W 9202   1.550   8.598   3.648
 5139W        W 9203  10.193   7.012   1.887
 5140W        W 9204  10.358   9.313   9.505
 5141W        W 9205   0.735   9.419  11.053
 5142W        W 9206   2.497   5.120   0.920
 5143W        W 9207   0.811   2.379  11.252
 5144W        W 9208   4.175   1.226   1.181
 5145W        W 9209   6.010   5.724   0.394
 5146W        W 9210   2.248   4.243  11.861
 5147W        W 9211   9.075   8.805   0.065
 5148W        W 9212   9.463  10.016   0.224
 5149W        W 9213   4.783   6.552  11.222
 5150W        W 9214   9.390   2.289   1.873
 5151W        W 9215   1.738   7.159   9.380
 5152W        W 9216   3.884   5.484  10.806
 5153W        W 9217   4.625   3.762   0.044
 5154W        W 9218   4.358   4.279  10.428
 5155W        W 9219   2.854   0.914   9.061
 5156W        W 9220   5.304   6.248  11.883
 5157W        W 9221   4.199   0.301   1.228
 5158W        W 9222   3.177   2.374   0.564
 5159W        W 9223   8.919   1.650  10.576
 5160W        W 9224  10.342   3.704  10.234
 5161W        W 9225   6.292   9.027  10.376
 5162W        W 9226   9.595   3.306   9.042
 5163W        W 9227   1.723   9.036  10.292
 5164W        W 9228   6.109   3.636  11.291
 5165W        W 9229   0.879   1.174   3.365
 5166W        W 9230   3.536  10.486   1.722
 5167W        W 9231   5.006   9.574   8.744
 5168W        W 9232   0.355   9.103  11.770
 5169W        W 9233   2.257   8.771   8.803
 5170W        W 9234   0.374   1.314   1.242
 5171W        W 9235   6.447   3.819   1.520
 5172W        W 9236   2.822   5.949   2.598
 5173W        W 9237   0.177   5.457   2.920
 5174W        W 9238   0.893   4.441   2.648
 5175W        W 9239   3.528   2.157  10.009
 5176W        W 9240   4.651   6.068   9.106
 5177W        W 9241   7.016   6.378   0.886
 5178W        W 9242   8.119   8.696   2.180
 5179W        W 9243   5.177   7.223  10.904
 5180W        W 9244   8.955   1.564  11.088
 5181W        W 9245   9.818   4.352   9.001
 5182W        W 9246   0.408   1.437   2.198
 5183W        W 9247   1.303   7.644   2.797
 5184W        W 9248   0.475   5.996   0.160
 5185W        W 9249   6.239   6.515  10.592
 5186W        W 9250   8.290   3.649   1.837
 5187W        W 9251   8.999   6.076   9.438
 5188W        W 9252   0.634   5.378  10.524
 5189W        W 9253   2.201   0.252   8.555
 5190W        W 9254   1.649   8.684   2.337
 5191W        W 9255   5.635   8.507   0.710
 5192W        W 9256   5.212   6.020   0.314
 5193W        W 9257   4.562   1.903   3.209
 5194W        W 9258   4.093   3.757   9.860
 5195W        W 9259   2.912   6.046  11.520
 5196W        W 9260   0.876   1.387  11.742
 5197W        W 9261   6.281   1.682   0.961
 5198W        W 9262   8.215   0.401   2.445
 5199W        W 9263   9.484   7.070   2.980
 5200W        W 9264   3.149   8.050  10.566
 5201W        W 9265  10.162   2.181   9.929
 5202W        W 9266   7.718   8.988   0.383
 5203W        W 9267   5.832   6.528   1.382
 5204W        W 9268   4.570  10.054   1.304
 5205W        W 9269   7.129   8.570  11.035
 5206W        W 9270   1.456   6.111  11.799
 5207W        W 9271   8.679   5.576  11.194
 5208W        W 9272   2.134   7.906   9.167
 5209W        W 9273   4.204   4.021   3.559
 5210W        W 9274   1.679   9.967   3.181
 5211W        W 9275   7.243   4.185   8.532
 5212W        W 9276   8.060   9.486   9.169
 5213W        W 9277   1.939   5.033   0.118
 5214W        W 9278   4.282   8.362   2.246
 5215W        W 9279   0.419   4.172   2.537
 5216W        W 9280   5.387   6.369   1.697
 5217W        W 9281   7.342   9.012   1.315
 5218W        W 9282   7.715   3.754   1.026
 5219W        W 9283   1.323   4.758   2.749
 5220W        W 9284   4.241   6.199   9.408
 5221W        W 9285   6.089   3.038   1.206
 5222W        W 9286   6.169   9.998  10.585
 5223W        W 9287   7.667   1.844   9.260
 5224W        W 9288   8.101   7.581  11.869
 5225W        W 9289  10.240   1.884   9.522
 5226W        W 9290   5.074   5.045   2.407
 5227W        W 9291   5.803   8.176  10.501
 5228W        W 9292   9.207   5.538   8.781
 5229W        W 9293   1.704  10.272   1.319
 5230W        W 9294   2.694   2.283   9.275
 5231W        W 9295   7.729   6.030   0.480
 5232W        W 9296   4.350   8.582   1.295
 5233W        W 9297   6.870   3.952   1.236
 5234W        W 9298   9.431   5.612   3.149
 5235W        W 9299   5.093   8.606   0.113
 5236W        W 9300   4.826   2.291  10.253
 5237W        W 9301   9.360   1.961   2.884
 5238W        W 9302   2.419   2.785   2.157
 5239W        W 9303   8.729   1.188   2.509
 5240W        W 9304   1.503   9.483   3.056
 5241W        W 9305   7.223   0.569  10.848
 5242W        W 9306   0.812   4.191   2.205
 5243W        W 9307  10.215   4.496   2.153
 5244W        W 9308   5.431   6.058   3.355
 5245W        W 9309   8.631   0.482   0.667
 5246W        W 9310   4.508   4.041   9.322
 5247W        W 9311   6.593   7.429   0.350
 5248W        W 9312   1.482  10.206   0.074
 5249W        W 9313   0.770   2.196   8.488
 5250W        W 9314   2.942   8.097   1.864
 5251W        W 9315   8.474   6.478  10.322
 5252W        W 9316   2.107   4.208   1.867
 5253W        W 9317   4.939   9.996   8.433
 5254W        W 9318   2.038   1.840   1.087
 5255W        W 9319   0.361   3.428   9.481
 5256W        W 9320   9.463   3.305   0.891
 5257W        W 9321   4.958   7.799   1.112
 5258W        W 9322   6.550   3.755   3.489
 5259W        W 9323   9.920   3.057   9.834
 5260W        W 9324   0.480   5.051   1.681
 5261W        W 9325   2.186   2.127   8.574
 5262W        W 9326   9.090   8.671   2.293
 5263W        W 9327   9.479   0.010   9.469
 5264W        W 9328   6.444   8.210  11.846
 5265W        W 9329  10.431   9.762   9.835
 5266W        W 9330   9.683   2.165   9.735
 5267W        W 9331   8.925   0.667   1.276
 5268W        W 9332   9.413   7.423   9.613
 5269W        W 9333   4.864   1.353   0.452
 5270W        W 9334   2.007   6.159   2.717
 5271W        W 9335   6.106   2.235   2.621
 5272W        W 9336   9.758   9.490   0.409
 5273W        W 9337   9.856   1.184   3.012
 5274W        W 9338   3.399   2.812   1.415
 5275W        W 9339   1.779   5.154   2.200
 5276W        W 9340   4.608   3.690   3.495
 5277W        W 9341   4.613   0.943   0.666
 5278W        W 9342   7.601   8.840   3.293
 5279W        W 9343   1.678   5.732  11.510
 5280W        W 9344   4.840   4.382   9.587
 5281W        W 9345   5.544   7.431   0.755
 5282W        W 9346   7.809   8.017  10.938
 5283W        W 9347   3.193   5.546   8.914
 5284W        W 9348   3.923   6.150  11.355
 5285W        W 9349   9.273  10.434   1.770
 5286W        W 9350   6.992   0.773   2.443
 5287W        W 9351   5.226   7.014   2.669
 5288W        W 9352   0.475   6.856   1.447
 5289W        W 9353   2.928   3.253   3.461
 5290W        W 9354   0.845   2.364   2.671
 5291W        W 9355  10.003   4.114  11.359
 5292W        W 9356   0.060   6.024   8.415
 5293W        W 9357   5.075   7.087   3.517
 5294W        W 9358   9.722   2.889   2.967
 5295W        W 9359   7.403  10.010  11.487
 5296W        W 9360  10.424   3.095   0.754
 5297W        W 9361   9.409   9.494   1.009
 5298W        W 9362   4.622   8.119   0.907
 5299W        W 9363   8.867   9.949   0.495
 5300W        W 9364   4.292   0.413   9.904
 5301W        W 9365   8.461   5.401   9.510
 5302W        W 9366  10.400   2.128   9.082
 5303W        W 9367   2.571   9.670   2.266
 5304W        W 9368   5.272   7.402   1.191
 5305W        W 9369   1.734   6.167   0.760
 5306W        W 9370   9.511   0.500  10.969
 5307W        W 9371  10.044   8.860   1.877
 5308W        W 9372   9.705   0.806   9.457
 5309W        W 9373   9.307   5.961   2.798
 5310W        W 9374   5.208   8.299   1.933
 5311W        W 9375   2.161   0.437   9.361
 5312W        W 9376   4.012  10.239   1.377
 5313W        W 9377   0.325   0.291  10.252
 5314W        W 9378   4.055   5.008   1.290
 5315W        W 9379   3.188   0.868   0.444
 5316W        W 9380  10.024   2.366   8.783
 5317W        W 9381  10.276   5.234   3.360
 5318W        W 9382   9.066   3.227   0.408
 5319W        W 9383   6.973  10.439  10.960
 5320W        W 9384   4.064   4.456   1.337
 5321W        W 9385   6.042   9.015  11.353
 5322W        W 9386   1.970   4.246  10.406
 5323W        W 9387   7.571   1.446  11.638
 5324W        W 9388   2.902   9.833   0.466
 5325W        W 9389   7.643   5.243   2.707
 5326W        W 9390   0.956   8.424   8.862
 5327W        W 9391  10.298   4.529  11.362
 5328W        W 9392   0.755   4.512   1.351
 5329W        W 9393   3.054   0.965   9.678
 5330W        W 9394   1.189   8.895   8.953
 5331W        W 9395   7.484   3.805   2.419
 5332W        W 9396   5.230   5.847  11.360
 5333W        W 9397   4.358   7.091   2.861
 5334W        W 9398   7.504   3.723   3.442
 5335W        W 9399   0.220   3.136   3.162
 5336W        W 9400   7.449   7.001   1.955
 5337W        W 9401   2.703   6.499   3.216
 5338W        W 9402   5.093   2.605   2.847
 5339W        W 9403   2.370   6.868   0.615
 5340W        W 9404   9.021   6.910   3.077
 5341W        W 9405   8.360   0.887   0.497
 5342W        W 9406   5.358   6.518   1.199
 5343W        W 9407   2.270   7.544   2.222
 5344W        W 9408   5.038   9.507  11.238
 5345W        W 9409   9.811   0.739   3.235
 5346W        W 9410   9.368   2.886   1.181
 5347W        W 9411   0.804   7.424   9.963
 5348W        W 9412   5.179   4.719   8.720
 5349W        W 9413   6.430   1.394   8.988
 5350W        W 9414   1.507   2.779   1.253
 5351W        W 9415   9.410   8.533  10.364
 5352W        W 9416   0.649   6.458   0.022
 5353W        W 9417   1.387   8.466   9.182
 5354W        W 9418   7.567   7.067   1.176
 5355W        W 9419   4.246   6.747   4.253
 5356W        W 9420   0.490   0.354   1.442
 5357W        W 9421   8.174   8.013  10.563
 5358W        W 9422   4.143   6.149  11.899
 5359W        W 9423   7.974   5.868   9.065
 5360W        W 9424   9.953   7.860   1.788
 5361W        W 9425   5.598   8.949  10.674
 5362W        W 9426   7.827   1.383   2.003
 5363W        W 9427   0.101   0.219   2.958
 5364W        W 9428   1.261   3.664   1.536
 5365W        W 9429   8.406   7.008   0.720
 5366W        W 9430   1.270   7.053   9.493
 5367W        W 9431   4.121   5.356   8.897
 5368W        W 9432   6.135   3.537   2.252
 5369W        W 9433   9.828   2.732   1.970
 5370W        W 9434   6.544   6.172   0.840
 5371W        W 9435   9.406   4.736   9.254
 5372W        W 9436   1.560   1.307   0.550
 5373W        W 9437   9.471   5.631  11.275
 5374W        W 9438   0.763   2.987  10.544
 5375W        W 9439   2.437   5.607   3.230
 5376W        W 9440   0.632   9.389   2.402
 5377W        W 9441   2.420   0.372   9.800
 5378W        W 9442   9.954   1.847   1.283
 5379W        W 9443   2.248   7.298  11.901
 5380W        W 9444   6.944   3.779  11.839
 5381W        W 9445   4.595   8.320   3.209
 5382W        W 9446   5.606   9.842  10.871
 5383W        W 9447   8.351   6.591   9.015
 5384W        W 9448   8.833   9.881  10.225
 5385W        W 9449   4.537   9.068   1.154
 5386W        W 9450   3.193   9.182   1.020
 5387W        W 9451   3.736   8.060   9.012
 5388W        W 9452   5.978   3.590   3.559
 5389W        W 9453   8.361   0.057   0.860
 5390W        W 9454   2.011   9.413   0.348
 5391W        W 9455   4.732   1.495  11.011
 5392W        W 9456   2.335   9.192   2.281
 5393W        W 9457   6.602   4.819  10.908
 5394W        W 9458   0.277   7.451  11.021
 5395W        W 9459   9.250   1.890   0.493
 5396W        W 9460   4.178   0.461   1.754
 5397W        W 9461   2.285   4.393   8.559
 5398W        W 9462   4.126   3.571   2.305
 5399W        W 9463   7.386   6.481   8.446
 5400W        W 9464   2.921   0.381   9.846
 5401W        W 9465   4.770   7.065   8.937
 5402W        W 9466   0.771   3.122   9.492
 5403W        W 9467   0.037   1.166   0.342
 5404W        W 9468   7.502   5.676   9.142
 5405W        W 9469   1.282   1.903   0.859
 5406W        W 9470   5.146   8.953  10.470
 5407W        W 9471  10.401   0.054  10.918
 5408W        W 9472   3.159   7.707   2.245
 5409W        W 9473   2.848   6.128   9.342
 5410W        W 9474   7.078   6.952  10.864
 5411W        W 9475   0.359   5.020  10.766
 5412W        W 9476   3.761   1.270   0.866
 5413W        W 9477   9.088   0.259   0.814
 5414W        W 9478   7.949   3.353  10.191
 5415W        W 9479   8.143   2.736   8.963
 5416W        W 9480   9.875   9.772  10.616
 5417W        W 9481   4.387   8.758   8.491
 5418W        W 9482   6.283  10.310   9.829
 5419W        W 9483  10.321   4.763   9.297
 5420W        W 9484   3.194   6.262   0.291
 5421W        W 9485   5.012   3.846   1.895
 5422W        W 9486  10.213   5.742  11.726
 5423W        W 9487   3.308   5.261   2.266
 5424W        W 9488   1.233   6.567   9.686
 5425W        W 9489   1.692   7.847  10.912
 5426W        W 9490   7.273   7.196   9.989
 5427W        W 9491   5.756   1.779  10.754
 5428W        W 9492   3.044   3.258   9.988
 5429W        W 9493   7.304   6.090   9.945
 5430W        W 9494   6.427   1.208   0.850
 5431W        W 9495   7.553   0.219  11.871
 5432W        W 9496   1.960   9.379   2.803
 5433W        W 9497   8.769   7.009   3.504
 5434W        W 9498   0.457   6.862   2.968
 5435W        W 9499   6.179   0.151   9.421
 5436W        W 9500   1.915   7.594   9.534
 5437W        W 9501   7.156   4.544  10.509
 5438W        W 9502   5.235   2.660   2.356
 5439W        W 9503   5.702   3.893   9.133
 5440W        W 9504   4.249   9.967   8.887
 5441W        W 9505   3.401   7.421   1.847
 5442W        W 9506   5.665   0.285  11.450
 5443W        W 9507   1.252   7.091  10.037
 5444W        W 9508   7.465   8.272  11.911
 5445W        W 9509   2.903   1.031   2.442
 5446W        W 9510   0.068   7.532   0.189
 5447W        W 9511   5.029   7.580   3.465
 5448W        W 9512   1.258   3.698   9.594
 5449W        W 9513   4.711   4.688   2.424
 5450W        W 9514   4.215   9.368   0.872
 5451W        W 9515   3.153   1.456   9.592
 5452W        W 9516   3.205   7.074   3.576
 5453W        W 9517   1.155   5.388   1.850
 5454W        W 9518  10.027   7.035   9.578
 5455W        W 9519   9.833   7.783   8.423
 5456W        W 9520   7.550   8.178   9.904
 5457W        W 9521  10.056   6.359   3.247
 5458W        W 9522   6.531   0.247  11.434
 5459W        W 9523   1.983   4.775   8.983
 5460W        W 9524   5.646   0.904   1.688
 5461W        W 9525   2.422  10.477  10.543
 5462W        W 9526   0.142   9.804   2.348
 5463W        W 9527   2.614   4.270   2.813
 5464W        W 9528   6.104   8.806  11.837
 5465W        W 9529   4.702   6.022   1.531
 5466W        W 9530   7.531   4.266   2.815
 5467W        W 9531   5.272   3.596   0.949
 5468W        W 9532   4.577   5.903   3.825
 5469W        W 9533   9.845   9.741   3.557
 5470W        W 9534   3.424   1.827   1.370
 5471W        W 9535   4.427   5.668   1.282
 5472W        W 9536   7.685   9.967   9.577
 5473W        W 9537   6.049   9.491  10.482
 5474W        W 9538   8.505   7.242   8.473
 5475W        W 9539   8.515   8.017   2.683
 5476W        W 9540   2.874   7.575   1.825
 5477W        W 9541   1.929   1.316   3.759
 5478W        W 9542   3.607   9.185   0.279
 5479W        W 9543   1.416   7.094   1.015
 5480W        W 9544   1.697   0.209   9.368
 5481W        W 9545   6.731   6.569  10.773
 5482W        W 9546   5.610   9.822   9.375
 5483W        W 9547   0.324   0.949   9.491
 5484W        W 9548  10.463   6.167   0.976
 5485W        W 9549   5.074   6.144  10.569
 5486W        W 9550   0.108   9.184  11.338
 5487W        W 9551   7.084   7.142   1.380
 5488W        W 9552   4.967  10.485   8.773
 5489W        W 9553   3.745   6.200   9.176
 5490W        W 9554   3.335   0.471   1.168
 5491W        W 9555   4.812   2.920  10.993
 5492W        W 9556   2.744   3.227  11.262
 5493W        W 9557   6.493   9.940   2.989
 5494W        W 9558   4.249   9.543  11.381
 5495W        W 9559   0.718   9.130   0.647
 5496W        W 9560   8.995   2.301   8.441
 5497W        W 9561   9.956   6.634   9.907
 5498W        W 9562   5.159  10.014  11.105
 5499W        W 9563   7.028   2.654   2.782
 5500W        W 9564   3.802   2.933   9.680
 5501W        W 9565   3.221   2.360  11.287
 5502W        W 9566   6.596   3.788   8.918
 5503W        W 9567   1.032   7.898  11.911
 5504W        W 9568  10.338   3.129  10.119
 5505W        W 9569   3.035   2.787   2.335
 5506W        W 9570   0.453   5.603   2.395
 5507W        W 9571   7.750   1.549   1.065
 5508W        W 9572   1.147   9.730   9.741
 5509W        W 9573   2.163   6.132   9.940
 5510W        W 9574   9.268   6.527   8.732
 5511W        W 9575   0.183   6.107   3.413
 5512W        W 9576   8.067   6.452   0.437
 5513W        W 9577   7.547   1.921   1.341
 5514W        W 9578   9.823   3.361   3.086
 5515W        W 9579   5.468   2.958   8.854
 5516W        W 9580   6.021   6.605   1.854
 5517W        W 9581   6.175   0.837   3.053
 5518W        W 9582   7.597   1.580   9.717
 5519W        W 9583   0.440   6.480  11.256
 5520W        W 9584   6.293   6.148   0.342
 5521W        W 9585   3.847   3.151   2.395
 5522W        W 9586   2.841   0.456   1.309
 5523W        W 9587   3.732   9.520  11.303
 5524W        W 9588   0.648   3.658   3.694
 5525W        W 9589   7.981   6.673   1.827
 5526W        W 9590   9.309   2.868   9.087
 5527W        W 9591   1.282   0.983   9.509
 5528W        W 9592   1.370   1.478   9.527
 5529W        W 9593   1.851   3.787  11.265
 5530W        W 9594   9.070   5.285  11.418
 5531W        W 9595   4.228   8.021   0.157
 5532W        W 9596   5.079   4.092   2.794
 5533W        W 9597   3.742   3.300   9.308
 5534W        W 9598   6.078   3.259   0.188
 5535W        W 9599   3.539   8.015   2.408
 5536W        W 9600   3.324   0.689  10.633
 5537W        W 9601   0.123   7.070   0.886
 5538W        W 9602   4.499   7.600   0.052
 5539W        W 9603   1.881   0.813  10.424
 5540W        W 9604   7.502   5.471   4.088
 5541W        W 9605   1.788   6.659   0.598
 5542W        W 9606   3.945   5.535   1.134
 5543W        W 9607   8.617   8.831   2.258
 5544W        W 9608   5.060   4.897  11.481
 5545W        W 9609   9.077   5.759  11.582
 5546W        W 9610   5.276   6.412   9.956
 5547W        W 9611   5.717   6.414   0.872
 5548W        W 9612   2.404  10.405   3.488
 5549W        W 9613   2.475   0.873  10.932
 5550W        W 9614   1.040   5.681  10.453
 5551W        W 9615   7.137   2.259   1.994
 5552W        W 9616   3.988   0.312  10.941
 5553W        W 9617   7.455   6.281   2.455
 5554W        W 9618   2.307   1.935   9.279
 5555W        W 9619   5.917   7.622   3.536
 5556W        W 9620   4.414  10.337   0.504
 5557W        W 9621   4.143   6.610   8.614
 5558W        W 9622   5.744   2.528  11.829
 5559W        W 9623   6.976   7.142   9.530
 5560W        W 9624   7.407   2.250  10.741
 5561W        W 9625   6.442   5.677   0.135
 5562W        W 9626   3.362   9.571   8.535
 5563W        W 9627   2.171   5.917   0.878
 5564W        W 9628   5.992   2.817   0.434
 5565W        W 9629   6.495   2.466   8.572
 5566W        W 9630   0.819   2.817   2.396
 5567W        W 9631   2.067   8.456   0.728
 5568W        W 9632   4.214   6.104   0.434
 5569W        W 9633   5.722   1.275  10.926
 5570W        W 9634   6.402   9.124   0.915
 5571W        W 9635   0.050   6.443   3.065
 5572W        W 9636   5.162   1.862   8.799
 5573W        W 9637   5.903   0.957   0.438
 5574W        W 9638   2.044   9.955   3.519
 5575W        W 9639   4.672   9.427  10.573
 5576W        W 9640   7.048   8.582   1.266
 5577W        W 9641   1.734   8.539   9.537
 5578W        W 9642   8.055   7.876   2.953
 5579W        W 9643   6.108   0.490  11.127
 5580W        W 9644   1.167   0.425   0.179
 5581W        W 9645   1.506   4.262   0.255
 5582W        W 9646   9.282   4.602   3.555
 5583W        W 9647   3.156   3.617   9.579
 5584W        W 9648   8.889   8.804  11.549
 5585W        W 9649   9.778   7.433   0.710
 5586W        W 9650   3.281   1.568  10.873
 5587W        W 9651   7.406   1.633   0.459
 5588W        W 9652   5.919   8.030   2.350
 5589W        W 9653   7.000   2.764   9.741
 5590W        W 9654   2.661   2.853   0.981
 5591W        W 9655   3.037   9.794   3.179
 5592W        W 9656   9.604   7.193   2.509
 5593W        W 9657   8.200   6.278   3.534
 5594W        W 9658   4.708   0.333  11.956
 5595W        W 9659   0.257   5.419   1.370
 5596W        W 9660   5.983   7.990   1.408
 5597W        W 9661   6.562   3.641  11.028
 5598W        W 9662   7.133   1.367   3.160
 5599W        W 9663   9.978   7.044   2.856
 5600W        W 9664   9.823   0.975  11.213
 5601W        W 9665   5.226   3.166   9.395
 5602W        W 9666   9.316   6.057   8.967
 5603W        W 9667   1.318   9.968   1.893
 5604W        W 9668   6.970   8.106  11.833
 5605W        W 9669   3.132   6.666   0.553
 5606W        W 9670   7.280  10.402  10.039
 5607W        W 9671   7.523   2.376   1.136
 5608W        W 9672   6.595   2.106  10.015
 5609W        W 9673   9.452   1.051   0.948
 5610W        W 9674   2.244   9.131  10.101
 5611W        W 9675   8.086   1.414  11.857
 5612W        W 9676   5.636   3.413   2.360
 5613W        W 9677   3.800   5.957   9.620
 5614W        W 9678  10.448   1.952   0.047
 5615W        W 9679   4.160   1.312   2.223
 5616W        W 9680   4.686   9.287   1.976
 5617W        W 9681   7.845   5.602   0.202
 5618W        W 9682   5.549   8.916   2.502
 5619W        W 9683   0.795   5.191  10.986
 5620W        W 9684   8.986   4.587   0.753
 5621W        W 9685   5.218   9.950   9.076
 5622W        W 9686   0.215   6.946   0.372
 5623W        W 9687   8.022   4.520   9.051
 5624W        W 9688   0.270   2.825   2.396
 5625W        W 9689   7.470   3.141  10.245
 5626W        W 9690   1.454   9.248   3.861
 5627W        W 9691   2.267  10.042  10.919
 5628W        W 9692   8.879   8.827   1.357
 5629W        W 9693   6.584   7.874   2.855
 5630W        W 9694   0.932   8.629   0.132
 5631W        W 9695   4.186   6.095   1.478
 5632W        W 9696   6.560   8.664   0.004
 5633W        W 9697   2.425   1.720   0.186
 5634W        W 9698   0.190   9.951   8.884
 5635W        W 9699   7.575   8.035   2.234
 5636W        W 9700   2.279   5.100   2.002
 5637W        W 9701   2.719   3.572  10.280
 5638W        W 9702   5.281   2.644   1.185
 5639W        W 9703   5.936   9.011   1.188
 5640W        W 9704   7.858   3.225   3.537
 5641W        W 9705   4.673   7.940  11.709
 5642W        W 9706   1.959   8.922   0.202
 5643W        W 9707  10.491   0.240   9.407
 5644W        W 9708   4.986   4.462  10.098
 5645W        W 9709   0.461  10.359   2.947
 5646W        W 9710   4.577   2.877   3.454
 5647W        W 9711   7.259   3.176   1.539
 5648W        W 9712   8.435   8.117   9.822
 5649W        W 9713   1.575   8.551  11.303
 5650W        W 9714   0.859   7.981   1.228
 5651W        W 9715   8.163   3.655   1.229
 5652W        W 9716   1.925   7.866   1.975
 5653W        W 9717   2.869   9.415   1.386
 5654W        W 9718   8.506   2.455   1.253
 5655W        W 9719   1.829   1.172   9.751
 5656W        W 9720   3.317   5.039   1.787
 5657W        W 9721   7.080   5.970   9.082
 5658W        W 9722   0.116   5.386  10.503
 5659W        W 9723   6.079  10.277   1.703
 5660W        W 9724   4.083   2.910  11.381
 5661W        W 9725   6.459   9.278   9.355
 5662W        W 9726   6.920   8.949  11.292
 5663W        W 9727   3.471   2.202   1.018
 5664W        W 9728   3.341   6.735  11.751
 5665W        W 9729   0.592   4.988  11.413
 5666W        W 9730  10.365   5.426  11.353
 5667W        W 9731   5.556   4.130   1.844
 5668W        W 9732   0.827   2.306   3.194
 5669W        W 9733   5.245   7.033   9.135
 5670W        W 9734   3.259   5.156   9.279
 5671W        W 9735   0.502   8.260   9.085
 5672W        W 9736   1.010   7.369   0.788
 5673W        W 9737   1.006   2.132   0.227
 5674W        W 9738   7.855   6.650   0.004
 5675W        W 9739   9.335   0.571   3.105
 5676W        W 9740   4.590   4.686   3.977
 5677W        W 9741   6.424   0.156  11.961
 5678W        W 9742  10.489   3.928   0.155
 5679W        W 9743   6.094   9.323  10.001
 5680W        W 9744   4.558   5.306   9.679
 5681W        W 9745   8.531   5.891   9.563
 5682W        W 9746   9.899   8.287  11.974
 5683W        W 9747   5.631   1.813   8.994
 5684W        W 9748   1.241   0.317  11.032
 5685W        W 9749   3.277   8.316   8.822
 5686W        W 9750   9.468   7.833  10.975
 5687W        W 9751   9.932   9.793   1.657
 5688W        W 9752   5.706   3.476  10.347
 5689W        W 9753   7.368   3.098   8.836
 5690W        W 9754   1.839   7.906   0.470
 5691W        W 9755   1.349   3.831   1.047
 5692W        W 9756   5.144   8.639   0.628
 5693W        W 9757   0.746   0.888  11.548
 5694W        W 9758   1.404   0.233   9.889
 5695W        W 9759   8.144   5.998   1.340
 5696W        W 9760   9.500   5.715   1.234
 5697W        W 9761   0.887   5.422  10.023
 5698W        W 9762   3.660   5.901   3.644
 5699W        W 9763   3.497  10.323   9.393
 5700W        W 9764   7.703   1.842   8.708
 5701W        W 9765   1.293   4.958  10.971
 5702W        W 9766   7.727   6.350   9.776
 5703W        W 9767   5.091   3.659   1.413
 5704W        W 9768   1.204  10.261   1.406
 5705W        W 9769   6.614   3.252   3.305
 5706W        W 9770   0.855   3.991   9.497
 5707W        W 9771   1.329   7.853  10.555
 5708W        W 9772   3.401   7.548   2.693
 5709W        W 9773   2.818   4.077  10.202
 5710W        W 9774   1.667   2.792  11.512
 5711W        W 9775   0.854   6.474  11.565
 5712W        W 9776   5.443   8.433   3.160
 5713W        W 9777   2.172   3.283   1.778
 5714W        W 9778   5.992   5.446  11.981
 5715W        W 9779   7.651   0.105   0.766
 5716W        W 9780   2.126   9.325   9.619
 5717W        W 9781   7.667   1.217   0.665
 5718W        W 9782   3.705   3.626   1.665
 5719W        W 9783   7.132  10.448   3.137
 5720W        W 9784   5.684   0.785  11.139
 5721W        W 9785   7.993   2.623   0.249
 5722W        W 9786   3.329   0.727  11.465
 5723W        W 9787   8.764   2.263   9.884
 5724W        W 9788   2.751   1.479   9.906
 5725W        W 9789   6.937   4.949  10.272
 5726W        W 9790   4.494   5.116   3.675
 5727W        W 9791   1.238   9.291   1.260
 5728W        W 9792   2.406   5.682   9.961
 5729W        W 9793   3.223   3.314   9.135
 5730W        W 9794   9.136   3.278   1.918
 5731W        W 9795   5.498   3.723   0.515
 5732W        W 9796   0.198   9.571  11.952
 5733W        W 9797   5.099   3.155   1.178
 5734W        W 9798   5.663   6.470   3.139
 5735W        W 9799  10.333   7.191  10.854
 5736W        W 9800   9.868   9.047   1.443
 5737W        W 9801   6.882   9.930   2.626
 5738W        W 9802   4.609   2.385   0.698
 5739W        W 9803   1.349   0.875   0.354
 5740W        W 9804   6.148   0.063  10.767
 5741W        W 9805   3.739   5.017   2.141
 5742W        W 9806   1.290   1.006   3.072
 5743W        W 9807   3.881   0.893  11.188
 5744W        W 9808   7.443   9.557   9.760
 5745W        W 9809   7.035   8.148  11.310
 5746W        W 9810  10.045  10.385   2.867
 5747W        W 9811   1.841   1.672   9.596
 5748W        W 9812   4.747  10.453   9.665
 5749W        W 9813   6.330   9.988   8.758
 5750W        W 9814   2.898   7.576   9.369
 5751W        W 9815   2.417   6.112  11.467
 5752W        W 9816   7.598   5.387   2.172
 5753W        W 9817   4.565   3.102   1.814
 5754W        W 9818   8.951   0.503   9.135
 5755W        W 9819   8.332   2.245  10.254
 5756W        W 9820   9.157  10.313   1.268
 5757W        W 9821   6.972   6.098  10.823
 5758W        W 9822   4.441   7.737   1.233
 5759W        W 9823   9.477   2.166   3.373
 5760W        W 9824   4.167   6.983   3.330
 5761W        W 9825   4.588   8.811   2.150
 5762W        W 9826   2.165   2.396   9.551
 5763W        W 9827   4.667   8.382  11.449
 5764W        W 9828   4.525   5.493   9.212
 5765W        W 9829   5.179   0.954  10.933
 5766W        W 9830   9.470   4.873   2.927
 5767W        W 9831  10.414   2.896   3.477
 5768W        W 9832   4.627   0.436   1.524
 5769W        W 9833   3.478   5.662   8.177
 5770W        W 9834   8.609   0.978   0.928
 5771W        W 9835   1.475   9.291   8.762
 5772W        W 9836   2.217   6.410   0.784
 5773W        W 9837   2.909   4.796   0.869
 5774W        W 9838   8.099   8.535   1.127
 5775W        W 9839   8.869   7.414  10.249
 5776W        W 9840   0.973  10.201  10.553
 5777W        W 9841   7.344   4.109   1.032
 5778W        W 9842   1.161   6.517  11.996
 5779W        W 9843   2.484   9.592  10.770
 5780W        W 9844   7.101   9.938  10.233
 5781W        W 9845   3.072   8.016   9.545
 5782W        W 9846   0.425   5.224   9.402
 5783W        W 9847   9.062   7.953   3.328
 5784W        W 9848   0.309   8.607  11.918
 5785W        W 9849   7.521   5.567   3.595
 5786W        W 9850   0.535   8.626  10.614
 5787W        W 9851   8.393   9.473   1.944
 5788W        W 9852   8.939   6.623  11.499
 5789W        W 9853   0.882   2.185   9.015
 5790W        W 9854   7.494   6.481   1.970
 5791W        W 9855   4.531   4.108   1.268
 5792W        W 9856   0.454   4.556  10.533
 5793W        W 9857   3.708   0.798   2.759
 5794W        W 9858   5.531   3.313  10.851
 5795W        W 9859   2.501   1.734  11.335
 5796W        W 9860   2.376   0.331   1.951
 5797W        W 9861   3.186   5.270   3.216
 5798W        W 9862   4.237  10.204  11.720
 5799W        W 9863   0.489   4.602   3.414
 5800W        W 9864   9.149   6.636  10.574
 5801W        W 9865  10.272   7.205   0.475
 5802W        W 9866   0.722   6.084   9.839
 5803W        W 9867   0.184   8.136   0.084
 5804W        W 9868   2.127   2.099   0.025
 5805W        W 9869   3.609   4.972   4.228
 5806W        W 9870   4.581   5.626   2.379
 5807W        W 9871   7.528   2.642   0.004
 5808W        W 9872   8.983   9.454  10.474
 5809W        W 9873   9.984  10.235  11.053
 5810W        W 9874   3.345   8.383   0.609
 5811W        W 9875   0.959  10.402   0.976
 5812W        W 9876   8.446   1.768  10.411
 5813W        W 9877   3.154   4.795   0.380
 5814W        W 9878   5.651   2.303   2.889
 5815W        W 9879   0.500   1.123  10.508
 5816W        W 9880   3.662   8.156   3.376
 5817W        W 9881   9.360   9.426   0.058
 5818W        W 9882   1.648   3.804  10.287
 5819W        W 9883   6.226   7.676  11.129
 5820W        W 9884   2.603  10.380   1.344
 5821W        W 9885   9.096   9.891   0.945
 5822W        W 9886   0.668   8.232  11.968
 5823W        W 9887   9.975   4.622  11.790
 5824W        W 9888   1.486   3.461   2.531
 5825W        W 9889   3.795   9.323   2.675
 5826W        W 9890   3.071   9.603   9.885
 5827W        W 9891   0.384   3.905   9.627
 5828W        W 9892   1.378   3.742   9.110
 5829W        W 9893   0.875   8.577   1.394
 5830W        W 9894   4.057   7.478   9.010
 5831W        W 9895   3.334   0.466   0.158
 5832W        W 9896   9.462   9.979   1.748
 5833W        W 9897   2.315   5.976   0.370
 5834W        W 9898   3.816   0.422  11.953
 5835W        W 9899   1.063   9.916   3.539
 5836W        W 9900   9.507   3.443  11.013
 5837W        W 9901   2.117   4.346   2.779
 5838W        W 9902   4.938   7.136   8.465
 5839W        W 9903   4.233   1.804   9.842
 5840W        W 9904   0.497  10.296   0.789
 5841W        W 9905   2.679   5.948  10.789
 5842W        W 9906   0.778   0.325   9.964
 5843W        W 9907   6.565   1.645  11.837
 5844W        W 9908   4.541   5.057   3.155
 5845W        W 9909   4.021   5.029   3.918
 5846W        W 9910   1.939   4.699   1.989
 5847W        W 9911   1.855   7.031   8.901
 5848W        W 9912   8.280   2.335   9.749
 5849W        W 9913   4.653   5.014  11.756
 5850W        W 9914   5.124   4.967  10.101
 5851W        W 9915   0.221   7.022   1.853
 5852W        W 9916  10.296   0.069   2.104
 5853W        W 9917   6.791   7.007   9.991
 5854W        W 9918   1.066   3.977  10.410
 5855W        W 9919   6.941   4.534   1.959
 5856W        W 9920   5.955   6.452   2.710
 5857W        W 9921   1.981   9.771   9.429
 5858W        W 9922   3.059  10.006  11.974
 5859W        W 9923   2.579   6.601  11.571
 5860W        W 9924   4.722   0.728  11.627
 5861W        W 9925   7.141   1.686   9.980
 5862W        W 9926   2.614  10.280   1.855
 5863W        W 9927  10.063   9.516   2.848
 5864W        W 9928   2.151   2.290   2.306
 5865W        W 9929   1.304   3.101  11.346
 5866W        W 9930   3.756   9.350   9.475
 5867W        W 9931   0.512  10.485  11.869
 5868W        W 9932   0.967   3.353  11.623
 5869W        W 9933  10.326   7.945   9.735
 5870W        W 9934   6.130   6.615   9.512
 5871W        W 9935   0.503   5.735  10.174
 5872W        W 9936   6.723   5.025   4.066
 5873W        W 9937   7.844   3.105   0.195
 5874W        W 9938   3.765   7.139   0.366
 5875W        W 9939   6.481   4.089  10.203
 5876W        W 9940   7.694   8.403   3.533
 5877W        W 9941   6.631   2.609  10.047
 5878W        W 9942   5.992   5.706   1.225
 5879W        W 9943   4.122   4.274   1.814
 5880W        W 9944  10.465  10.402  10.383
 5881W        W 9945   5.544   9.590  11.949
 5882W        W 9946   5.518   0.230   3.194
 5883W        W 9947   6.441   4.037  11.369
 5884W        W 9948   9.517   1.370   2.242
 5885W        W 9949   8.327   5.756  10.875
 5886W        W 9950   5.715   2.142   3.402
 5887W        W 9951   3.098   9.371   1.852
 5888W        W 9952   5.026   5.062   2.926
 5889W        W 9953   2.523   2.764   9.409
 5890W        W 9954   0.329   3.032   9.821
 5891W        W 9955   4.111   3.884  11.295
 5892W        W 9956   1.273   8.998   2.528
 5893W        W 9957   1.980   0.383   3.570
 5894W        W 9958   7.851   8.419   3.051
 5895W        W 9959   6.492   7.292   1.742
 5896W        W 9960   7.266   0.842   9.982
 5897W        W 9961   1.292   8.150   3.525
 5898W        W 9962   6.604   5.700   3.868
 5899W        W 9963   2.318   5.195  10.204
 5900W        W 9964   4.998   3.419   8.058
 5901W        W 9965   1.138   4.315   1.010
 5902W        W 9966   1.607   4.972   9.920
 5903W        W 9967   8.691   1.625   3.488
 5904W        W 9968   3.544   3.109   1.923
 5905W        W 9969   2.220   5.258   3.540
 5906W        W 9970   5.555   2.628   3.315
 5907W        W 9971   7.242   6.216   0.460
 5908W        W 9972   5.230   1.347  11.676
 5909W        W 9973   9.103   7.050   0.686
 5910W        W 9974   2.300   2.804   9.898
 5911W        W 9975  10.032   4.022  10.520
 5912W        W 9976  10.076   1.331  10.214
 5913W        W 9977   7.725   9.475   2.666
 5914W        W 9978   0.862   1.636  10.296
 5915W        W 9979   3.774   8.455  11.019
 5916W        W 9980   3.084   0.025  11.998
 5917W        W 9981   1.991   9.348   1.021
 5918W        W 9982   5.377   6.917   3.144
 5919W        W 9983   9.718  10.414   0.436
 5920W        W 9984   4.314   2.443  10.325
 5921W        W 9985   7.705   8.021   0.289
 5922W        W 9986   4.709   1.386   1.503
 5923W        W 9987   6.580   9.699  11.983
 5924W        W 9988   3.271   5.760   2.312
 5925W        W 9989   6.025   4.295   9.979
 5926W        W 9990   5.010   1.306   9.202
 5927W        W 9991   6.972   9.488  10.531
 5928W        W 9992   0.613   6.621   0.495
 5929W        W 9993   8.900  10.369   9.037
 5930W        W 9994   9.135   7.019   9.832
 5931W        W 9995   9.360   5.160   0.753
 5932W        W 9996   9.899   7.542   9.847
 5933W        W 9997   9.693   0.451   2.436
 5934W        W 9998   2.325   9.776   1.045
 5935W        W 9999   8.175   3.132   1.999
 5936W        W10000   3.315   1.282   2.269
 5937W        W10001   6.046   1.816   2.964
 5938W        W10002   6.067   7.393  10.327
 5939W        W10003   2.428   9.493   2.705
 5940W        W10004   7.232   1.213   9.625
 5941W        W10005   2.691   1.981  10.038
 5942W        W10006   8.639   9.541  10.841
 5943W        W10007   9.402   7.109   2.034
 5944W        W10008   5.735   6.077   2.444
 5945W        W10009   3.923   1.360  11.397
 5946W        W10010   3.242   4.320   1.288
 5947W        W10011   4.535   4.063   9.846
 5948W        W10012   5.196   5.593   3.127
 5949W        W10013   7.959   3.601   2.648
 5950W        W10014   2.784   3.362  10.744
 5951W        W10015   4.748  10.026   8.881
 5952W        W10016   1.871  10.317   8.725
 5953W        W10017   7.417   4.990   9.988
 5954W        W10018   1.909   2.331   0.470
 5955W        W10019   1.084   5.545   1.104
 5956W        W10020  10.268   8.037   1.385
 5957W        W10021   0.833   8.099  11.470
 5958W        W10022   0.966   0.130   8.601
 5959W        W10023   5.394   7.583   4.239
 5960W        W10024   0.013   5.865   2.461
 5961W        W10025   5.434   0.361   9.394
 5962W        W10026  10.446   7.002   9.263
 5963W        W10027   4.604   7.404  11.617
 5964W        W10028   1.340   2.359   9.174
 5965W        W10029   6.993   7.689  11.545
 5966W        W10030   5.286   2.161  10.087
 5967W        W10031   5.478   3.998  11.680
 5968W        W10032   3.313   5.524   3.650
 5969W        W10033   1.791   7.591   3.129
 5970W        W10034   9.026   1.491   2.216
 5971W        W10035   4.368   4.528   9.501
 5972W        W10036   6.590   2.112   0.043
 5973W        W10037   4.643  10.473  11.584
 5974W        W10038   3.198   7.058   9.988
 5975W        W10039   4.624   4.406   8.402
 5976W        W10040   3.237   9.921   2.724
 5977W        W10041   3.377   3.491   3.414
 5978W        W10042   5.762   5.585   8.593
 5979W        W10043   6.054  10.069  11.061
 5980W        W10044   2.552   9.437   1.812
 5981W        W10045   2.955   6.064   3.132
 5982W        W10046  10.016   9.725   0.795
 5983W        W10047   9.756   1.683   3.107
 5984W        W10048   5.551   4.382   8.469
 5985W        W10049   2.543   9.159  10.503
 5986W        W10050   1.263  10.333   0.538
 5987W        W10051   9.193   0.993   2.358
 5988W        W10052   5.078   8.167   0.408
 5989W        W10053  10.217   8.852   9.100
 5990W        W10054   9.489   1.409   2.745
 5991W        W10055  10.040   1.741   9.043
 5992W        W10056   2.509   8.235   0.848
 5993W        W10057   8.462   1.069  10.520
 5994W        W10058   3.711   7.092   1.022
 5995W        W10059   6.621   6.594  10.249
 5996W        W10060   3.033   2.691   9.354
 5997W        W10061   8.911   6.093   3.238
 5998W        W10062   8.674   3.878   3.721
 5999W        W10063   9.116  10.267  11.054
 6000W        W10064   9.796   8.888   3.330
 6001W        W10065   5.701   4.754   9.004
 6002W        W10066   0.280   2.233   1.281
 6003W        W10067   2.659   3.851  10.743
 6004W        W10068  10.265   2.651   1.516
 6005W        W10069   3.375   8.474   2.612
 6006W        W10070   5.499   2.278   8.799
 6007W        W10071   3.689   4.117   3.564
 6008W        W10072   5.614   4.906   8.514
 6009W        W10073   3.307   7.521   9.725
 6010W        W10074   4.670   8.124   1.445
 6011W        W10075   9.014   1.585   2.714
 6012W        W10076   9.506   9.935   1.245
 6013W        W10077   8.668   2.735   9.083
 6014W        W10078   2.632   3.060  10.333
 6015W        W10079   2.270   3.837  10.317
 6016W        W10080   0.621   7.580  10.580
 6017W        W10081   6.697   1.665  11.300
 6018W        W10082   8.560   8.846   0.014
 6019W        W10083   2.269   9.875   1.909
 6020W        W10084   6.355   0.461   9.005
 6021W        W10085   7.341   5.736   0.231
 6022W        W10086   9.858   9.214   8.916
 6023W        W10087   6.708   7.872   3.372
 6024W        W10088   1.846   6.531   1.124
 6025W        W10089   8.073   9.443   1.091
 6026W        W10090   7.406   5.608   0.709
 6027W        W10091   0.279   4.766   9.598
 6028W        W10092   1.644   1.984   0.178
 6029W        W10093   2.223  10.294  11.948
 6030W        W10094   5.703   1.591   0.275
 6031W        W10095   0.804   1.246   9.365
 6032W        W10096   2.634   5.511   9.521
 6033W        W10097   2.791   4.259   3.300
 6034W        W10098   8.890  10.432   2.716
 6035W        W10099   1.846   3.746   8.929
 6036W        W10100   7.905  10.362   9.342
 6037W        W10101   5.221   1.891   1.693
 6038W        W10102   6.604   3.068  11.726
 6039W        W10103   6.389   3.284  10.706
 6040W        W10104   8.122   5.717  11.770
 6041W        W10105   8.949   5.299  11.964
 6042W        W10106   1.871   1.265   8.779
 6043W        W10107   8.795   0.174   1.239
 6044W        W10108   3.319   8.155   1.122
 6045W        W10109   0.696   9.833   8.943
 6046W        W10110   4.218   7.558   3.050
 6047W        W10111   5.503   4.998   9.421
 6048W        W10112   2.408   9.970   0.589
 6049W        W10113   1.789   5.686   2.834
 6050W        W10114   6.517  10.466   1.126
 6051W        W10115   5.073   0.793  10.460
 6052W        W10116   6.040   2.249  10.773
 6053W        W10117   8.158   9.680   2.405
 6054W        W10118   7.281   7.959   1.800
 6055W        W10119   4.214   1.472   3.198
 6056W        W10120   4.097   2.661   2.197
 6057W        W10121   0.261   9.615  11.005
 6058W        W10122   6.910   1.348   1.671
 6059W        W10123   5.162   9.288   1.829
 6060W        W10124   8.195   2.442   0.843
 6061W        W10125   3.793   0.889  10.691
 6062W        W10126   6.004   7.221   2.494
 6063W        W10127   3.320   5.794   0.444
 6064W        W10128   6.885   8.901   9.402
 6065W        W10129   7.648   7.618  10.541
 6066W        W10130   3.478   5.505   0.852
 6067W        W10131   2.027   5.357  11.732
 6068W        W10132   8.559   0.714   0.063
 6069W        W10133   0.398   2.386   0.794
 6070W        W10134   9.737   7.866   9.061
 6071W        W10135   1.799   2.674   0.849
 6072W        W10136   7.885  10.333  10.975
 6073W        W10137   9.148   0.343  10.466
 6074W        W10138   5.901   8.363   8.369
 6075W        W10139   5.111   5.167  11.971
 6076W        W10140   4.698   7.372   1.811
 6077W        W10141   4.304   4.712   2.709
 6078W        W10142   0.976   5.560   2.446
 6079W        W10143   6.130   0.474  11.645
 6080W        W10144   7.932   5.216  11.853
 6081W        W10145   7.153   1.708   9.461
 6082W        W10146   5.726   7.547   9.562
 6083W        W10147   9.287   8.760   9.391
 6084W        W10148   7.585   4.974   1.102
 6085W        W10149   8.821   0.721  10.317
 6086W        W10150   1.738   1.785   0.647
 6087W        W10151   1.687   0.804   1.586
 6088W        W10152   1.182   5.194   3.503
 6089W        W10153  10.252   2.797   2.412
 6090W        W10154   0.011   8.928   1.652
 6091W        W10155   5.685   1.692  11.251
 6092W        W10156   8.080   1.290   0.357
 6093W        W10157   2.182  10.468   9.574
 6094W        W10158   2.651   6.359  11.098
 6095W        W10159   4.176   9.439   3.231
 6096W        W10160   8.853   5.094   0.839
 6097W        W10161   9.539   9.068   0.785
 6098W        W10162   9.307   9.849  10.020
 6099W        W10163   2.868   3.157   9.486
 6100W        W10164   3.121   6.218  10.046
 6101W        W10165   6.672   3.203   2.227
 6102W        W10166   6.983   6.914   3.094
 6103W        W10167   8.678   2.389  11.121
 6104W        W10168   3.144   4.397  11.433
 6105W        W10169   4.180   0.049   9.540
 6106W        W10170   6.645   7.583   9.583
 6107W        W10171   2.442   1.640  10.293
 6108W        W10172   0.236   5.713  11.543
 6109W        W10173   8.415   7.762  11.468
 6110W        W10174   0.211   1.791  11.165
 6111W        W10175   4.577   9.566   9.045
 6112W        W10176   3.538   2.805   9.248
 6113W        W10177   0.070   1.348  10.335
 6114W        W10178   7.619   0.640   0.816
 6115W        W10179   2.194   8.150  10.168
 6116W        W10180   9.002   1.235  10.250
 6117W        W10181   3.829   8.029  11.355
 6118W        W10182   8.993   5.518   0.491
 6119W        W10183   6.459   4.441   8.403
 6120W        W10184   7.940   2.822  11.763
 6121W        W10185   6.394   0.976   0.396
 6122W        W10186   7.088   5.498   3.318
 6123W        W10187   3.461   5.029   0.020
 6124W        W10188   4.644   0.235   3.425
 6125W        W10189   1.560  10.130   3.674
 6126W        W10190   3.621   3.141   8.831
 6127W        W10191   2.840   4.623   2.535
 6128W        W10192   7.107   4.057   2.076
 6129W        W10193   9.814   7.450   3.129
 6130W        W10194   2.676   5.008   0.443
 6131W        W10195   8.877   7.717   9.230
 6132W        W10196   6.859   1.213   9.987
 6133W        W10197   5.893   8.140   0.445
 6134W        W10198   7.164   4.828   3.894
 6135W        W10199   4.565  -0.001   1.009
 6136W        W10200   8.542   4.050  11.353
 6137W        W10201   3.169   5.690  11.236
 6138W        W10202   5.622   2.659   1.901
 6139W        W10203   6.391   8.801   9.538
 6140W        W10204   2.568   1.968   2.155
 6141W        W10205   3.371   9.801   1.837
 6142W        W10206   0.655   7.576   8.457
 6143W        W10207   5.626   8.310   1.174
 6144W        W10208   2.484   4.818   9.870
 6145W        W10209   0.246   4.354  11.972
 6146W        W10210   3.711   0.868   1.204
 6147W        W10211   0.488   3.835   9.135
 6148W        W10212   5.921   9.537   2.476
 6149W        W10213   1.704   3.816   1.794
 6150W        W10214   4.773   6.259   2.430
 6151W        W10215   1.758   8.092   3.301
 6152W        W10216   1.756   3.900   9.428
 6153W        W10217   4.721   0.768  11.099
 6154W        W10218   9.893   8.495  11.494
 6155W        W10219   0.417   6.152   2.488
 6156W        W10220   2.337   1.744   9.747
 6157W        W10221   8.017   5.101   2.097
 6158W        W10222   5.494  10.331  10.198
 6159W        W10223   3.133   2.271   2.630
 6160W        W10224   1.829   3.558   3.341
 6161W        W10225   5.131   9.553   0.275
 6162W        W10226   6.034   1.296   2.802
 6163W        W10227   8.961   2.003   2.414
 6164W        W10228   9.136   5.090   1.832
 6165W        W10229   0.720   7.185   1.782
 6166W        W10230   2.270   4.161   0.884
 6167W        W10231   7.135   1.248   0.712
 6168W        W10232   7.601   2.849   0.962
 6169W        W10233   6.748   6.966   2.657
 6170W        W10234   9.478   8.414   2.488
 6171W        W10235   1.216   2.810   9.442
 6172W        W10236   2.219   9.326  11.878
 6173W        W10237   7.498   5.625  10.880
 6174W        W10238   0.392   0.863   0.920
 6175W        W10239   5.611   4.300   2.609
 6176W        W10240   1.425   3.396   0.303
 6177W        W10241   8.919   9.480   1.776
 6178W        W10242   4.711   5.758  11.362
 6179W        W10243   7.239   2.544   0.741
 6180W        W10244   3.699   7.974   1.428
 6181W        W10245   7.732  10.228  11.998
 6182W        W10246   0.388   5.968  11.141
 6183W        W10247   0.792   0.425  11.813
 6184W        W10248   3.112   3.567   0.005
 6185W        W10249   0.360   8.573   3.068
 6186W        W10250   4.243   9.192   9.461
 6187W        W10251   2.372   3.073   0.341
 6188W        W10252   3.200   2.816   3.580
 6189W        W10253   5.216   3.836   8.962
 6190W        W10254   2.827   8.863   1.173
 6191W        W10255  10.350   5.660   1.696
 6192W        W10256   0.955   2.128  10.428
 6193W        W10257   5.544   2.638   0.296
 6194W        W10258   6.460   4.298   8.905
 6195W        W10259   3.259   9.277  11.475
 6196W        W10260   3.773   4.696   0.984
 6197W        W10261   0.852   1.434   1.966
 6198W        W10262   9.531   1.598  11.729
 6199W        W10263   8.082   8.282   0.606
 6200W        W10264   1.835   5.102  10.336
 6201W        W10265   9.957   6.400   1.847
 6202W        W10266   4.944   6.444   0.321
 6203W        W10267   3.371   9.905  10.690
 6204W        W10268   6.550   2.467   2.868
 6205W        W10269   5.260   3.258   8.488
 6206W        W10270   8.946   3.155   8.900
 6207W        W10271   3.190   1.361  10.123
 6208W        W10272   9.767   6.557   8.872
 6209W        W10273   9.918   6.986   8.532
 6210W        W10274   4.600   1.544   2.854
 6211W        W10275   4.642   2.669   2.421
 6212W        W10276   3.981   4.248  11.645
 6213W        W10277   4.428   8.733   9.508
 6214W        W10278   6.254   6.914   0.008
 6215W        W10279   6.117   4.944   0.925
 6216W        W10280   2.783  10.119   2.330
 6217W        W10281   2.132  10.020   9.860
 6218W        W10282   4.703   1.003  10.201
 6219W        W10283   6.563   1.919   1.381
 6220W        W10284   6.066  10.407  10.280
 6221W        W10285   9.344   9.590   2.070
 6222W        W10286   8.637   5.770   8.510
 6223W        W10287   5.484   1.232   0.599
 6224W        W10288   0.642   9.857   9.821
 6225W        W10289   6.850   0.904   1.395
 6226W        W10290   5.223   3.199  11.736
 6227W        W10291   6.056   2.667   9.030
 6228W        W10292   0.432   9.054   3.599
 6229W        W10293   8.134   3.582   8.922
 6230W        W10294   0.694   1.801  11.997
 6231W        W10295   0.974   6.053   9.312
 6232W        W10296   8.077   7.589  10.857
 6233W        W10297   7.950   9.474   1.608
 6234W        W10298   6.967   3.759   9.698
 6235W        W10299   6.064   2.078   1.165
 6236W        W10300   9.307   7.490  10.618
 6237W        W10301   6.620   2.976   2.862
 6238W        W10302   5.634   9.362   1.706
 6239W        W10303   7.081   8.609  11.970
 6240W        W10304   2.849   2.376  10.908
 6241W        W10305   8.579   9.469   8.987
 6242W        W10306   1.288   6.044   1.007
 6243W        W10307   5.261   1.845  10.935
 6244W        W10308   9.086   6.992  11.178
 6245W        W10309   0.003   1.718   1.140
 6246W        W10310   6.568   0.763  10.011
 6247W        W10311   5.928   3.797   8.226
 6248W        W10312   9.247   2.194   9.999
 6249W        W10313   4.078   6.616   1.480
 6250W        W10314   5.184   8.990   9.956
 6251W        W10315   6.104   2.792   1.696
 6252W        W10316   5.221   4.671   9.707
 6253W        W10317   1.712   3.983   3.767
 6254W        W10318   7.361   5.168  11.033
 6255W        W10319   4.532   3.603   9.610
 6256W        W10320   2.000   1.358   2.828
 6257W        W10321   3.102   2.301   8.972
 6258W        W10322   9.472   8.287   0.274
 6259W        W10323   0.819   1.523   8.928
 6260W        W10324   3.840   7.690   1.835
 6261W        W10325   5.597   9.349  10.964
 6262W        W10326   0.709   2.981   1.514
 6263W        W10327   6.864   5.918   1.775
 6264W        W10328   3.072   4.049  11.076
 6265W        W10329   3.089   8.963   9.122
 6266W        W10330   9.862   2.228   0.680
 6267W        W10331   7.933   6.159   1.785
 6268W        W10332  10.233   0.753   0.302
 6269W        W10333   7.521   3.571   8.973
 6270W        W10334   5.920   0.544   9.620
 6271W        W10335   7.905   4.535   2.040
 6272W        W10336   6.911   0.295  10.546
 6273W        W10337   2.164   0.489  11.242
 6274W        W10338   3.317   0.746   2.417
 6275W        W10339   5.819   0.045   9.820
 6276W        W10340  10.154   1.240   3.409
 6277W        W10341   1.232   4.271  11.798
 6278W        W10342   6.675   6.083   8.786
 6279W        W10343   7.996   0.446   3.341
 6280W        W10344   1.442   0.319   2.047
 6281W        W10345   0.328   3.794   1.731
 6282W        W10346   7.947   9.967  10.635
 6283W        W10347   4.139   2.692   0.193
 6284W        W10348   9.534   5.219   9.072
 6285W        W10349   4.180   3.763   1.844
 6286W        W10350   6.632   3.822   2.484
 6287W        W10351   7.712   3.157   1.768
 6288W        W10352   5.378   0.435   2.739
 6289W        W10353   4.926   9.801   3.557
 6290W        W10354   3.833   2.090   8.705
 6291W        W10355   5.477   5.284   9.894
 6292W        W10356   3.109   4.772  10.594
 6293W        W10357   6.965   4.076  10.363
 6294W        W10358   0.252   1.712   3.114
 6295W        W10359   5.581   0.279  11.965
 6296W        W10360   3.307  10.287   3.446
 6297W        W10361   3.455   7.537   3.651
 6298W        W10362   1.257   1.701   0.377
 6299W        W10363   1.779   8.606   4.108
 6300W        W10364   3.728   1.185   3.076
 6301W        W10365   6.038   8.036  11.529
 6302W        W10366   2.859   3.140   0.170
 6303W        W10367   4.247   5.713   9.645
 6304W        W10368   3.669   8.691   1.832
 6305W        W10369   5.556   9.829   0.443
 6306W        W10370   2.278   4.740  11.753
 6307W        W10371   4.173   0.920   2.579
 6308W        W10372   6.781   3.240   1.728
 6309W        W10373   2.444   7.310  10.204
 6310W        W10374   7.923   0.330  11.047
 6311W        W10375   7.361   3.699   1.391
 6312W        W10376   9.849   5.979  11.442
 6313W        W10377   6.237   6.990   9.159
 6314W        W10378   9.155   0.881   9.911
 6315W        W10379   2.762   5.123  10.483
 6316W        W10380   7.478   2.866   2.936
 6317W        W10381   2.262   5.762   1.360
 6318W        W10382   1.222   0.479  11.545
 6319W        W10383   9.461   1.082  11.849
 6320W        W10384   6.087   8.809   9.955
 6321W        W10385   1.391   3.767   3.466
 6322W        W10386   4.828   8.905  11.821
 6323W        W10387   3.317   5.982   2.781
 6324W        W10388   9.053   2.705   9.975
 6325W        W10389   5.263   3.119   2.562
 6326W        W10390   8.944   4.969   1.347
 6327W        W10391   3.766   3.153   1.457
 6328W        W10392   3.204   7.758   1.467
 6329W        W10393  10.112   3.911   9.766
 6330W        W10394   0.023   0.366   1.682
 6331W        W10395   7.112   3.779  10.764
 6332W        W10396   7.882   3.146   8.769
 6333W        W10397   0.148   7.824   2.994
 6334W        W10398   8.442   5.137  11.861
 6335W        W10399   9.077   5.538   1.006
 6336W        W10400   5.763   1.591   3.445
 6337W        W10401   4.054   1.394  10.122
 6338W        W10402   3.193   8.864   1.954
 6339W        W10403   3.343   0.050   9.866
 6340W        W10404   2.445   6.470  10.235
 6341W        W10405   9.363   5.860   0.282
 6342W        W10406   3.126   6.552   3.484
 6343W        W10407   3.808  10.054   1.873
 6344W        W10408   3.340  10.036   9.798
 6345W        W10409   5.018   0.234   1.873
 6346W        W10410   5.304   8.071  10.316
 6347W        W10411   1.375   9.019   2.035
 6348W        W10412   1.389   2.263  10.127
 6349W        W10413   1.859   2.598   3.411
 6350W        W10414   0.192   3.747   2.746
 6351W        W10415   5.762   6.582  11.156
 6352W        W10416   8.028   9.379  11.388
 6353W        W10417   6.173   1.855  11.048
 6354W        W10418   5.095   8.104  11.354
 6355W        W10419   4.525   1.378   9.918
 6356W        W10420   6.156   7.089   0.475
 6357W        W10421   3.063   1.844   0.962
 6358W        W10422   6.964   4.676   1.483
 6359W        W10423   0.988  10.129   8.631
 6360W        W10424   6.342   8.277   3.244
 6361W        W10425   2.468   4.266  10.522
 6362W        W10426   2.122   0.773   9.939
 6363W        W10427   7.199   9.805   0.703
 6364W        W10428   9.366   1.797   1.978
 6365W        W10429   1.801   9.323   9.179
 6366W        W10430   5.583   8.672  11.822
 6367W        W10431   9.767   4.593  11.310
 6368W        W10432   7.101   5.939   2.624
 6369W        W10433   1.832   5.669  10.999
 6370W        W10434   9.346   4.947  11.953
 6371W        W10435   3.135   1.326   9.096
 6372W        W10436   7.874  10.251  11.500
 6373W        W10437   1.553   0.211  11.875
 6374W        W10438   6.351   5.592   2.510
 6375W        W10439   8.555   0.992  11.047
 6376W        W10440   0.629   4.582   1.863
 6377W        W10441   7.512   7.128   0.671
 6378W        W10442   6.639   4.737   3.126
 6379W        W10443   8.531  10.364   3.096
 6380W        W10444   8.005   1.825   2.744
 6381W        W10445   7.062   0.480   0.622
 6382W        W10446   2.236   3.234   2.339
 6383W        W10447   3.204   4.716   9.556
 6384W        W10448   9.294   9.856  10.518
 6385W        W10449   5.348   3.092   2.067
 6386W        W10450   4.160   7.956   3.382
 6387W        W10451   2.358   4.068   2.397
 6388W        W10452   0.729   4.223   0.700
 6389W        W10453   9.442   9.684   9.082
 6390W        W10454   5.748   1.153  11.981
 6391W        W10455   8.888   2.313   1.993
 6392W        W10456   6.950   0.409   8.945
 6393W        W10457   8.932   5.682   1.953
 6394W        W10458   1.717   3.776  10.778
 6395W        W10459   9.677   3.548   3.552
 6396W        W10460   8.454   8.479  10.869
 6397W        W10461   8.090   0.441   0.612
 6398W        W10462   0.777   3.135  10.054
 6399W        W10463   6.221   9.599   0.977
 6400W        W10464   5.315   9.943   0.950
 6401W        W10465  10.061   3.182   2.093
 6402W        W10466  10.388   9.291  10.019
 6403W        W10467   6.014   7.146  11.293
 6404W        W10468   2.340   1.464   1.258
 6405W        W10469   6.716   3.216  10.260
 6406W        W10470   3.672   9.100   3.175
 6407W        W10471   2.844   6.155   8.825
 6408W        W10472   3.255   4.765   2.241
 6409W        W10473   3.584  10.468   0.698
 6410W        W10474   8.890   7.590   8.715
 6411W        W10475   9.708   8.755   9.085
 6412W        W10476  10.394   2.135   2.985
 6413W        W10477   2.376   2.113  10.509
 6414W        W10478   2.059   3.260   9.750
 6415W        W10479   6.877   1.828   1.870
 6416W        W10480   9.971   1.339   2.026
 6417W        W10481   9.807   9.087   2.861
 6418W        W10482   2.963   4.296  10.644
 6419W        W10483   5.601   4.482   9.421
 6420W        W10484   5.520   3.337   3.481
 6421W        W10485   0.392   7.253  11.551
 6422W        W10486   2.176   3.768  11.644
 6423W        W10487  10.069   3.500   8.992
 6424W        W10488   2.726   3.146   8.988
 6425W        W10489   8.613   3.858  10.621
 6426W        W10490   3.771   3.075   3.509
 6427W        W10491   7.279   7.168   2.766
 6428W        W10492   1.856   5.013   1.154
 6429W        W10493   6.845   9.879   9.409
 6430W        W10494   3.607   5.041   2.645
 6431W        W10495   0.386   7.854   0.447
 6432W        W10496   8.965   9.358   1.290
 6433W        W10497   5.785   1.762   9.477
 6434W        W10498   2.178   6.507   0.296
 6435W        W10499   5.327   2.874  10.957
 6436W        W10500   9.001   9.532   9.289
 6437W        W10501   7.197   5.234   8.460
 6438W        W10502   5.147   6.613  10.419
 6439W        W10503   9.485   4.060   0.268
 6440W        W10504   8.342   1.842   0.783
 6441W        W10505   9.124   6.095   3.699
 6442W        W10506   8.838   8.385   3.138
 6443W        W10507   1.718   0.551   0.237
 6444W        W10508   1.304  10.476  11.458
 6445W        W10509   9.975   8.554   2.442
 6446W        W10510   8.430   5.992   1.759
 6447W        W10511   1.213   7.191   3.051
 6448W        W10512   5.711   8.342   9.556
 6449W        W10513   4.281   4.778   8.616
 6450W        W10514   9.967   7.908  11.104
 6451W        W10515   7.305   5.077   3.063
 6452W        W10516   8.060   2.266   1.962
 6453W        W10517   6.455   9.838   0.465
 6454W        W10518   4.990   3.658   9.384
 6455W        W10519   6.161   6.310  11.361
 6456W        W10520   1.868   0.348   3.000
 6457W        W10521   2.194   4.682   9.450
 6458W        W10522   6.516   9.615   9.729
 6459W        W10523   4.941   8.047   2.290
 6460W        W10524   4.419   2.602   1.809
 6461W        W10525  10.250   9.644  10.963
 6462W        W10526   6.245   5.171   2.256
 6463W        W10527   5.464   3.333   1.501
 6464W        W10528   0.779   7.815   9.090
 6465W        W10529   6.262  10.416   3.164
 6466W        W10530   6.328   2.838   0.802
 6467W        W10531   5.449   1.145  10.504
 6468W        W10532   4.687   2.751  10.122
 6469W        W10533   1.841   6.144   2.227
 6470W        W10534   6.247   5.041   3.311
 6471W        W10535   1.609   6.563   8.833
 6472W        W10536   6.064   6.093   1.813
 6473W        W10537   5.697   4.319   1.380
 6474W        W10538   3.830   7.746   0.359
 6475W        W10539   0.425   6.566   3.403
 6476W        W10540   0.877   4.981  10.297
 6477W        W10541   0.157  10.215   2.070
 6478W        W10542   5.273   2.699  11.860
 6479W        W10543   9.572   3.123   0.261
 6480W        W10544  10.186   6.504   8.556
 6481W        W10545   5.244  10.440   2.816
 6482W        W10546   7.435   9.117   9.510
 6483W        W10547   4.471   6.467   0.152
 6484W        W10548   8.667   9.587   2.741
 6485W        W10549   2.381   4.234   1.405
 6486W        W10550  10.368   2.189   0.935
 6487W        W10551   7.998   7.927  10.008
 6488W        W10552   1.454   9.591  11.491
 6489W        W10553   5.610   7.206   3.516
 6490W        W10554   2.856   6.882   8.612
 6491W        W10555   3.022   3.492   0.532
 6492W        W10556   0.343   9.927   3.261
 6493W        W10557   5.493   9.376   2.249
 6494W        W10558   7.697   3.280   1.255
 6495W        W10559   6.222   4.062   4.142
 6496W        W10560   8.103   0.716   1.449
 6497W        W10561   0.406   4.112   1.335
 6498W        W10562   3.543   0.531  11.050
 6499W        W10563   4.792   9.850   1.746
 6500W        W10564   5.056   6.565   3.356
 6501W        W10565   1.846   1.387   0.987
 6502W        W10566   6.206   5.226   1.767
 6503W        W10567  10.036   5.799   2.318
 6504W        W10568   8.620   1.651  11.848
 6505W        W10569   6.042   8.545   1.889
 6506W        W10570   7.391   9.206   2.966
 6507W        W10571   8.869   8.357   1.944
 6508W        W10572   7.396   1.250   2.446
 6509W        W10573   9.573   9.497  11.555
 6510W        W10574   0.963   6.861   0.820
 6511W        W10575   7.001   0.795  11.395
 6512W        W10576   1.265   1.317   2.254
 6513W        W10577   1.631   9.081   3.397
 6514W        W10578   4.045   5.892  10.071
 6515W        W10579   2.647   2.488  11.778
 6516W        W10580   1.591   7.433  10.406
 6517W        W10581   1.177   1.000   1.335
 6518W        W10582   6.124   4.469   1.112
 6519W        W10583   3.345   2.581   1.883
 6520W        W10584   5.821   2.702  10.948
 6521W        W10585   8.313   7.296   1.153
 6522W        W10586   6.246   7.788   0.409
 6523W        W10587   0.551   4.067  10.461
 6524W        W10588   6.533   2.735   2.437
 6525W        W10589   2.192   2.818   1.140
 6526W        W10590   0.638  10.294   1.914
 6527W        W10591   6.303   1.338  10.240
 6528W        W10592   8.918   4.001   9.085
 6529W        W10593   8.819   2.801   0.529
 6530W        W10594   3.200   6.719   1.547
 6531W        W10595   5.193   0.889   1.893
 6532W        W10596   8.067   7.736   1.166
 6533W        W10597   8.261  10.469   9.710
 6534W        W10598   1.771   3.048   2.517
 6535W        W10599   1.792   6.113  10.701
 6536W        W10600   9.449   2.414   1.385
 6537W        W10601   4.937   6.371   1.948
 6538W        W10602   9.399   5.431   2.675
 6539W        W10603   4.801   8.648   9.876
 6540W        W10604   2.162   6.527  11.262
 6541W        W10605   4.653   3.327   2.631
 6542W        W10606   5.704   0.233  10.945
 6543W        W10607   1.387   8.535   2.762
 6544W        W10608   2.724   6.030  10.284
 6545W        W10609   2.786   2.212   0.242
 6546W        W10610   3.773   5.441   3.457
 6547W        W10611   4.571   6.026   2.027
 6548W        W10612   6.439   2.316   9.101
 6549W        W10613   1.786   2.252   2.727
 6550W        W10614   8.798   1.302   3.091
 6551W        W10615   7.186   1.065  10.808
 6552W        W10616   2.375   2.348   1.857
 6553W        W10617   0.927   1.130  10.228
 6554W        W10618   6.583   0.788   2.738
 6555W        W10619   0.379   9.877   2.773
 6556W        W10620   4.534   2.635   9.137
 6557W        W10621   2.195   1.434   9.324
 6558W        W10622   3.683   5.365   0.375
 6559W        W10623   8.543   6.357   0.256
 6560W        W10624   7.232  10.313  11.868
 6561W        W10625   3.623   8.450  10.529
 6562W        W10626   4.686   8.922   2.633
 6563W        W10627   7.912   2.706   2.741
 6564W        W10628   3.200   0.917   0.952
 6565W        W10629   1.583   3.106   0.722
 6566W        W10630   5.435   8.030   2.312
 6567W        W10631   9.343   3.621   2.423
 6568W        W10632   4.255   5.675  11.741
 6569W        W10633   1.084   2.943   8.520
 6570W        W10634   9.070   6.422  11.027
 6571W        W10635   3.774   6.953  10.496
 6572W        W10636   8.831   3.746   1.937
 6573W        W10637   9.939   7.737   3.567
 6574W        W10638   6.606   0.524   0.264
 6575W        W10639   3.313   6.596   9.786
 6576W        W10640  10.076   9.311  11.284
 6577W        W10641   5.806   4.302   3.111
 6578W        W10642   5.613   3.209   0.457
 6579W        W10643   0.764   9.009   3.215
 6580W        W10644   7.796   7.166  10.135
 6581W        W10645   8.502   5.996   9.057
 6582W        W10646   1.467   0.023   2.863
 6583W        W10647   0.431   0.329   0.765
 6584W        W10648   3.618   5.484  10.349
 6585W        W10649   8.829  10.317   0.865
 6586W        W10650   8.553   8.564   8.939
 6587W        W10651   5.863   4.395   2.168
 6588W        W10652   0.174   6.508   8.738
 6589W        W10653   6.572   6.796   8.794
 6590W        W10654   0.113   8.621  10.912
 6591W        W10655   7.853   3.659   9.341
 6592W        W10656   3.011   7.081   1.873
 6593W        W10657   7.861   7.628   2.171
 6594W        W10658   5.171  10.230   1.853
 6595W        W10659   5.713   4.089   3.996
 6596W        W10660   5.492   7.606  11.837
 6597W        W10661   6.167   2.803  11.948
 6598W        W10662   4.907   8.737   8.476
 6599W        W10663   5.518   0.752   0.204
 6600W        W10664   8.356   6.001   0.885
 6601W        W10665   5.169   5.990   2.771
 6602W        W10666   8.584   4.182   1.736
 6603W        W10667   6.208   3.720  10.408
 6604W        W10668   2.186   2.299   0.953
 6605W        W10669   9.427   5.361   0.268
 6606W        W10670   7.470   3.087   9.741
 6607W        W10671   5.813   4.768   3.344
 6608W        W10672   1.981   6.125  11.722
 6609W        W10673   4.141   4.894   9.784
 6610W        W10674   5.903   1.386   9.820
 6611W        W10675   1.852   6.942   1.458
 6612W        W10676   4.993   1.670   2.511
 6613W        W10677   3.768   2.273   2.088
 6614W        W10678   6.937   6.300   9.457
 6615W        W10679   3.413   1.896  11.249
 6616W        W10680   1.808   0.854   0.637
 6617W        W10681   3.338   4.495   0.802
 6618W        W10682   9.754   4.195   2.944
 6619W        W10683   4.457  10.397   8.647
 6620W        W10684   0.263   6.194  10.266
 6621W        W10685   3.313   1.135   2.781
 6622W        W10686   1.785   5.691   8.699
 6623W        W10687   8.499   8.554   8.409
 6624W        W10688   5.091   1.418  10.690
 6625W        W10689   0.757   5.486   1.510
 6626W        W10690   9.261   8.206   2.906
 6627W        W10691   6.521   5.608  11.172
 6628W        W10692  10.360   5.963  11.305
 6629W        W10693   9.473   6.885   0.080
 6630W        W10694   9.676   2.503  11.517
 6631W        W10695   7.561   8.490   8.410
 6632W        W10696   7.955   1.403   9.365
 6633W        W10697   0.821   7.500   1.381
 6634W        W10698   0.900   3.595   0.281
 6635W        W10699   1.605   0.808  11.324
 6636W        W10700  10.276   7.462  11.296
 6637W        W10701   8.428   8.052  11.869
 6638W        W10702   7.020   2.276   3.561
 6639W        W10703   3.104   3.551  11.089
 6640W        W10704   0.335   5.789   1.004
 6641W        W10705   4.263   0.740  10.877
 6642W        W10706   7.973   6.954   0.429
 6643W        W10707   1.403   7.561  11.850
 6644W        W10708   4.969   3.521   9.882
 6645W        W10709   1.899   7.190   2.304
 6646W        W10710   1.280   6.306  11.301
 6647W        W10711   4.197   8.556   1.785
 6648W        W10712   4.969  10.299  10.134
 6649W        W10713   7.979   4.106  10.524
 6650W        W10714   8.986   2.825   9.485
 6651W        W10715   2.401   6.177   9.041
 6652W        W10716   1.015   8.488  10.722
 6653W        W10717   8.995   9.962   1.965
 6654W        W10718   1.252   9.021   3.039
 6655W        W10719   7.254   3.945   9.233
 6656W        W10720   7.170   0.496   0.125
 6657W        W10721   8.707  10.422   9.971
 6658W        W10722   2.773   6.893   2.272
 6659W        W10723   4.747   7.354  11.151
 6660W        W10724   2.205   3.703   0.663
 6661W        W10725   4.762   3.606   1.010
 6662W        W10726   9.288   1.783   3.616
 6663W        W10727   9.882   3.797  10.967
 6664W        W10728   6.413   9.567   3.345
 6665W        W10729   3.298   4.581   2.746
 6666W        W10730   3.287   7.040   0.175
 6667W        W10731   6.718   9.570   0.852
 6668W        W10732   5.649   9.238   3.343
 6669W        W10733   4.250   1.303   0.698
 6670W        W10734   8.810   3.794  11.720
 6671W        W10735  10.037   2.223   0.213
 6672W        W10736   6.107   0.916   8.971
 6673W        W10737   6.330   0.753   3.549
 6674W        W10738   9.126   1.452   1.702
 6675W        W10739   2.293  10.227  11.442
 6676W        W10740   0.691   7.874   9.588
 6677W        W10741   4.353   3.104   2.284
 6678W        W10742   2.464   9.702   9.590
 6679W        W10743   0.773   1.920   1.834
 6680W        W10744   5.566   9.827   2.715
 6681W        W10745   0.028   0.690   2.666
 6682W        W10746   0.374   4.995  10.243
 6683W        W10747   2.838   7.409   9.884
 6684W        W10748   8.674   1.226   1.948
 6685W        W10749   9.951   4.834   3.241
 6686W        W10750  10.093   8.643   2.954
 6687W        W10751   2.663   6.244   9.819
 6688W        W10752   6.637   5.727  10.699
 6689W        W10753   2.162   8.237  11.879
 6690W        W10754   5.282   6.926  10.036
 6691W        W10755   0.250   5.965   2.933
 6692W        W10756   1.029   7.627  11.469
 6693W        W10757   8.123   3.509   0.742
 6694W        W10758  10.439  10.205  11.312
 6695W        W10759   0.566   9.418   2.902
 6696W        W10760   6.461   2.344  10.483
 6697W        W10761   4.215   7.074  11.676
 6698W        W10762   6.381   5.126   2.747
 6699W        W10763   2.225   1.624   0.656
 6700W        W10764   8.994   1.940   9.023
 6701W        W10765   2.266   2.661   3.068
 6702W        W10766   0.371   3.603   1.254
 6703W        W10767   8.854   8.620   9.636
 6704W        W10768   5.990   2.334   0.250
 6705W        W10769   6.324   9.804   1.720
 6706W        W10770   2.561   7.332  10.745
 6707W        W10771   3.229   8.894   0.534
 6708W        W10772   3.318   4.197  10.275
 6709W        W10773   0.014   8.408   9.026
 6710W        W10774   7.408  10.193   0.960
 6711W        W10775   3.153   1.844   9.908
 6712W        W10776   8.092   3.119   2.504
 6713W        W10777   6.012   4.582   8.632
 6714W        W10778   4.590   4.104   1.777
 6715W        W10779   0.197   9.015   8.902
 6716W        W10780   4.168   3.305   2.779
 6717W        W10781   2.664   5.675  11.258
 6718W        W10782   7.069  10.476   0.722
 6719W        W10783   2.285   1.160   0.842
 6720W        W10784   3.773   5.496   2.446
 6721W        W10785   4.023   4.142   9.484
 6722W        W10786   9.774   5.931   1.895
 6723W        W10787   3.228  10.226  11.069
 6724W        W10788   0.029   7.588   0.708
 6725W        W10789   4.118   5.947  10.925
 6726W        W10790   6.995   3.357  11.073
 6727W        W10791   1.270   9.928   2.887
 6728W        W10792   7.397  10.419   9.523
 6729W        W10793   2.319   7.537   3.260
 6730W        W10794  10.413   1.221   8.841
 6731W        W10795   5.180   6.039   1.321
 6732W        W10796   8.319   3.091   3.367
 6733W        W10797   9.928   7.127   3.491
 6734W        W10798   6.977   9.977   3.156
 6735W        W10799   4.285   1.668   1.398
 6736W        W10800   6.562   3.557  11.550
 6737W        W10801   1.336  10.014   0.949
 6738W        W10802   3.666   5.758   8.871
 6739W        W10803   9.972   3.365   0.774
 6740W        W10804   4.474   7.926   2.420
 6741W        W10805   6.528   5.709   1.127
 6742W        W10806   0.902   6.194   0.389
 6743W        W10807   0.865   5.974   1.294
 6744W        W10808  10.329   3.987   0.649
 6745W        W10809   6.539   7.069   2.204
 6746W        W10810   9.521  10.250  10.276
 6747W        W10811   9.588   2.406   2.938
 6748W        W10812   6.377   1.776   1.900
 6749W        W10813   2.182   8.964   0.721
 6750W        W10814   5.081   7.197   0.761
 6751W        W10815   3.277   6.080   1.895
 6752W        W10816   7.564  10.070   0.484
 6753W        W10817   0.393   9.426   0.403
 6754W        W10818   6.964   4.244   8.943
 6755W        W10819   5.690   6.041   1.462
 6756W        W10820   9.191   3.291  11.931
 6757W        W10821   6.579   8.639  10.065
 6758W        W10822   4.652   8.473  10.946
 6759W        W10823   9.946   3.830   3.219
 6760W        W10824   5.113   0.863  11.926
 6761W        W10825   0.239   5.853   9.755
 6762W        W10826   5.544   1.162   1.089
 6763W        W10827   4.197   3.663   3.174
 6764W        W10828   2.276   6.716   3.038
 6765W        W10829   7.665   0.860  10.935
 6766W        W10830   6.866   9.445   2.456
 6767W        W10831  10.232   7.905   9.223
 6768W        W10832   2.612   8.796   2.121
 6769W        W10833   8.979   6.676   0.060
 6770W        W10834   1.606   8.998   1.042
 6771W        W10835   8.002   0.440   0.035
 6772W        W10836   2.319   4.721   1.220
 6773W        W10837   2.597   9.853   1.459
 6774W        W10838   6.656   5.388  10.334
 6775W        W10839   7.570   2.747   8.519
 6776W        W10840   8.855   1.780   0.778
 6777W        W10841   1.233   5.450  10.900
 6778W        W10842   5.304   6.493  11.421
 6779W        W10843   2.356   8.661   1.135
 6780W        W10844   5.487   0.426   9.901
 6781W        W10845   8.873   2.591   2.417
 6782W        W10846   6.690   9.037   8.943
 6783W        W10847   5.445   7.133   9.600
 6784W        W10848   0.316   8.270   8.611
 6785W        W10849   8.565   4.268   0.727
 6786W        W10850   8.931   3.097  10.322
 6787W        W10851   5.134   0.877   3.166
 6788W        W10852   7.635   1.254   0.114
 6789W        W10853   7.643   9.151   0.891
 6790W        W10854   5.561   4.338  10.737
 6791W        W10855   9.810   2.891   0.924
 6792W        W10856   1.759  10.224   0.751
 6793W        W10857   2.384   4.666   1.736
 6794W        W10858   6.348   8.348   0.355
 6795W        W10859   0.251   4.562   1.499
 6796W        W10860   5.211   2.910   1.624
 6797W        W10861   6.789   9.533   9.043
 6798W        W10862   3.484   8.529   3.088
 6799W        W10863   1.432   8.605  10.416
 6800W        W10864   8.910   6.650   1.986
 6801W        W10865   1.727   8.595   3.162
 6802W        W10866   5.066   4.153   3.350
 6803W        W10867   8.189   9.552   3.485
 6804W        W10868   6.185   9.856  10.077
 6805W        W10869   7.795   5.931  10.063
 6806W        W10870   4.166   0.880   0.382
 6807W        W10871   9.838   7.444   9.325
 6808W        W10872   4.287   0.413   0.226
 6809W        W10873   7.139   6.048   8.573
 6810W        W10874   1.251   9.854  10.785
 6811W        W10875   9.379   0.546  11.948
 6812W        W10876  10.257   5.781   0.223
 6813W        W10877   1.633   0.717   3.340
 6814W        W10878   2.456   4.609   0.725
 6815W        W10879   5.532   7.960   9.815
 6816W        W10880   5.188   5.656  10.406
 6817W        W10881   4.719   9.127   9.711
 6818W        W10882   8.332   3.268  11.277
 6819W        W10883  10.044  10.447   9.457
 6820W        W10884   6.880   8.966   1.672
 6821W        W10885   3.242   0.195  10.811
 6822W        W10886   4.475   8.075  10.694
 6823W        W10887   6.812   4.281  11.706
 6824W        W10888   9.846   4.785   2.360
 6825W        W10889   5.775   6.144   0.101
 6826W        W10890   5.118   1.397   1.812
 6827W        W10891   3.562   4.658  10.397
 6828W        W10892   5.690   8.407  11.374
 6829W        W10893   4.578   1.013   2.917
 6830W        W10894   0.557   3.329   2.830
 6831W        W10895   0.132   8.891   9.388
 6832W        W10896   4.969   1.695   0.047
 6833W        W10897  10.353   3.277   1.665
 6834W        W10898   8.968   0.989   8.929
 6835W        W10899   6.426   0.333  10.402
 6836W        W10900   3.326   9.592   0.108
 6837W        W10901   9.938   4.188   2.467
 6838W        W10902  10.292   2.224   2.468
 6839W        W10903   1.206   3.075   1.601
 6840W        W10904   2.983   1.741  11.493
 6841W        W10905   5.428   5.681   2.381
 6842W        W10906   8.879   3.679   9.476
 6843W        W10907   0.694   3.268   3.343
 6844W        W10908   3.950   8.923  11.966
 6845W        W10909   9.429   6.994   3.470
 6846W        W10910   6.628   5.412   1.957
 6847W        W10911   7.589   0.579   1.343
 6848W        W10912   5.595   7.016   2.308
 6849W        W10913   7.132   1.310   0.200
 6850W        W10914   5.437  10.396   0.289
 6851W        W10915   8.524  10.265   8.675
 6852W        W10916   8.890   7.162   0.223
 6853W        W10917   4.066   7.131  10.890
 6854W        W10918   8.837   5.098   9.827
 6855W        W10919   3.740   5.082   9.097
 6856W        W10920   0.378   2.237  11.931
 6857W        W10921   7.233   8.799   8.736
 6858W        W10922   0.069   9.406   3.488
 6859W        W10923   0.292   1.727  11.713
 6860W        W10924   1.773   2.098  11.620
 6861W        W10925   7.643   2.255   8.389
 6862W        W10926   3.991   4.165   3.109
 6863W        W10927   3.277  10.279  11.584
 6864W        W10928   7.583   1.664  10.250
 6865W        W10929   9.254   5.127   3.331
 6866W        W10930   9.589  10.003   0.744
 6867W        W10931   0.582   3.295  11.292
 6868W        W10932   1.791   2.610   9.094
 6869W        W10933   4.929   6.064   3.263
 6870W        W10934   9.877   6.822   2.240
 6871W        W10935   2.465   5.538   2.216
 6872W        W10936   5.023   1.750   3.068
 6873W        W10937   6.754   2.590   0.831
 6874W        W10938   5.456   2.225   9.592
 6875W        W10939   6.409   1.185   9.774
 6876W        W10940   7.958   2.283  11.880
 6877W        W10941   1.351   2.830   8.938
 6878W        W10942   1.270   7.359   0.333
 6879W        W10943   4.936   1.873   0.887
 6880W        W10944   0.835   4.264  10.840
 6881W        W10945   7.376   9.107  11.171
 6882W        W10946  10.037   5.225   9.314
 6883W        W10947   4.326   3.126  11.866
 6884W        W10948   3.396   1.303   0.255
 6885W        W10949   9.943   5.384   9.908
 6886W        W10950   7.474   4.055   3.859
 6887W        W10951   6.261   4.049   2.175
 6888W        W10952   2.099   1.901   1.966
 6889W        W10953   0.609   7.585   2.350
 6890W        W10954   6.429   3.328   9.013
 6891W        W10955   9.720   6.833   1.755
 6892W        W10956   5.673   8.859   3.004
 6893W        W10957  10.465   1.404   2.474
 6894W        W10958   0.326   4.214   2.036
 6895W        W10959   3.957   1.771  11.737
 6896W        W10960   0.363   1.762  10.314
 6897W        W10961   6.641   3.722   2.990
 6898W        W10962   8.605   5.543   0.823
 6899W        W10963   7.979   4.804   3.508
 6900W        W10964   7.155   9.425  11.992
 6901W        W10965   1.784   6.157  11.222
 6902W        W10966   2.616   7.941  11.984
 6903W        W10967   8.503   0.904  11.566
 6904W        W10968  10.092   5.493  10.487
 6905W        W10969   8.483   5.681   3.153
 6906W        W10970   3.705   0.258   9.560
 6907W        W10971   6.038   9.448   1.989
 6908W        W10972   0.865   0.640   8.464
 6909W        W10973   0.514  10.333   8.727
 6910W        W10974   9.015   9.309   8.792
 6911W        W10975   6.153   1.372  11.739
 6912W        W10976   0.056   8.508  10.410
 6913W        W10977   6.513   9.813  10.950
 6914W        W10978   2.683   2.633   8.905
 6915W        W10979   7.902   2.956  11.272
 6916W        W10980   0.901   3.544   9.246
 6917W        W10981   6.646   4.478  10.489
 6918W        W10982   2.591   5.134  11.008
 6919W        W10983   8.618   5.570  11.679
 6920W        W10984   4.422   1.327   0.234
 6921W        W10985   5.208   6.220   0.804
 6922W        W10986   6.389  10.081   8.221
 6923W        W10987   4.228   5.619   2.744
 6924W        W10988   9.967   7.993  10.107
 6925W        W10989   2.413   7.746   0.726
 6926W        W10990   9.005   3.630   1.182
 6927W        W10991   7.351   5.403  11.816
 6928W        W10992   8.321   3.673  11.845
 6929W        W10993   6.471   7.107   9.593
 6930W        W10994   9.967   7.079   0.080
 6931W        W10995   3.784   5.504   2.959
 6932W        W10996  10.480   0.906  11.890
 6933W        W10997   7.632  10.298   2.972
 6934W        W10998   5.103  10.427   3.340
 6935W        W10999   9.514   4.255   1.236
 6936W        W11000   7.568   4.674   3.192
 6937W        W11001   3.222  10.354   2.444
 6938W        W11002   6.937   3.120   3.694
 6939W        W11003   9.368   8.342  10.953
 6940W        W11004   7.928   7.090   3.289
 6941W        W11005   7.527   7.840   9.373
 6942W        W11006   8.443   3.348   2.825
 6943W        W11007   4.602   3.545   2.080
 6944W        W11008   6.449   4.936  10.446
 6945W        W11009   7.560   1.433   1.527
 6946W        W11010   6.037   4.589   0.561
 6947W        W11011   3.858   7.279   2.833
 6948W        W11012   8.575   0.669   1.705
 6949W        W11013   8.519   1.409  11.385
 6950W        W11014   1.242   4.703   1.363
 6951W        W11015   7.465   7.756  11.902
 6952W        W11016  10.328   2.744   9.108
 6953W        W11017   7.945   9.925   2.814
 6954W        W11018   4.502   6.628   2.194
 6955W        W11019   0.819   4.716   0.863
 6956W        W11020   7.069   4.730  11.542
 6957W        W11021   5.203   2.229  10.593
 6958W        W11022   1.691   4.714   0.454
 6959W        W11023   8.528  10.230   1.265
 6960W        W11024   0.113   8.026   0.998
 6961W        W11025   4.627   7.418  10.312
 6962W        W11026   8.403   9.006  11.523
 6963W        W11027   7.187   9.199   9.058
 6964W        W11028   6.283   6.083   9.958
 6965W        W11029   9.880  10.449   8.920
 6966W        W11030   5.942   1.910   0.605
 6967W        W11031   2.765   2.753   0.488
 6968W        W11032   0.286   5.132   2.165
 6969W        W11033   4.063   9.046   1.914
 6970W        W11034   1.886   5.094   1.673
 6971W        W11035   9.026   4.091   0.936
 6972W        W11036   0.405   5.606   0.519
 6973W        W11037   6.715   4.256   3.303
 6974W        W11038  10.448   7.901   3.503
 6975W        W11039   1.987   1.722  10.105
 6976W        W11040   7.587   0.681   3.095
 6977W        W11041   7.607   2.003   3.724
 6978W        W11042   1.218   8.638  11.690
 6979W        W11043   2.784   5.308  10.004
 6980W        W11044   2.427   2.593   3.551
 6981W        W11045  10.318   2.154   1.466
 6982W        W11046   6.009   1.713   8.664
 6983W        W11047   9.377   8.593   1.103
 6984W        W11048   0.761   3.717   0.789
 6985W        W11049   4.192   7.437   1.558
 6986W        W11050   6.329   4.667   0.143
 6987W        W11051   3.577   1.917   9.556
 6988W        W11052   3.105   6.388   3.977
 6989W        W11053   8.563   4.852   2.768
 6990W        W11054   9.337   0.172   9.020
 6991W        W11055   3.632   4.165   1.618
 6992W        W11056   1.605   4.204   0.784
 6993W        W11057   3.390   7.410   9.241
 6994W        W11058   9.895   9.068   9.446
 6995W        W11059   5.643   4.530   0.885
 6996W        W11060   2.237   4.698  10.348
 6997W        W11061  10.029   2.119  10.657
 6998W        W11062   9.244   9.843  11.800
 6999W        W11063   5.112  10.044   0.500
 7000W        W11064   1.183   0.307   2.527
 7001W        W11065   7.475   0.979  11.471
 7002W        W11066   9.973   2.288  11.170
 7003W        W11067   3.378   1.806  10.380
 7004W        W11068   7.994   4.794   9.981
 7005W        W11069   9.356   7.528   2.848
 7006W        W11070   6.393   0.345   2.904
 7007W        W11071   1.724   4.885   9.423
 7008W        W11072   3.617   1.410   9.414
 7009W        W11073   9.912   8.046   0.435
 7010W        W11074   8.848   1.011   0.373
 7011W        W11075   5.500   7.189  10.474
 7012W        W11076   2.395   9.439   0.681
 7013W        W11077   3.839   4.236  10.417
 7014W        W11078   4.823   4.227   2.220
 7015W        W11079   4.602   2.417   0.154
 7016W        W11080   8.424   5.558   0.144
 7017W        W11081   3.662  10.058  11.310
 7018W        W11082   9.067   4.785  11.339
 7019W        W11083   9.636   7.078   9.918
 7020W        W11084   4.625   8.633   8.928
 7021W        W11085   4.800   4.042  10.336
 7022W        W11086   1.974   0.794   9.012
 7023W        W11087   8.446  10.039   2.668
 7024W        W11088  10.059   5.622   3.646
 7025W        W11089   5.208   2.233   3.176
 7026W        W11090   6.906   5.538   0.031
 7027W        W11091   2.237   0.036   9.038
 7028W        W11092   8.125   5.141   2.596
 7029W        W11093   8.305   0.592  10.382
 7030W        W11094  10.043   5.284   8.796
 7031W        W11095   9.229   9.031  10.348
 7032W        W11096  10.051   4.597   2.787
 7033W        W11097   9.011   4.670  10.144
 7034W        W11098   5.763   4.809   1.285
 7035W        W11099   7.198   6.420   3.253
 7036W        W11100   1.690   3.596   9.828
 7037W        W11101   7.567   4.869   2.203
 7038W        W11102   3.794   1.753   9.092
 7039W        W11103   8.591   5.365   2.684
 7040W        W11104   4.072   9.946   3.153
 7041W        W11105   4.218   2.932   1.498
 7042W        W11106   7.133   4.531   3.445
 7043W        W11107   6.938   6.942  11.486
 7044W        W11108   9.788   4.501   0.249
 7045W        W11109   6.650   4.145   1.836
 7046W        W11110   2.636   6.817  10.868
 7047W        W11111   6.897   9.584   0.376
 7048W        W11112   1.842   3.473   8.500
 7049W        W11113  10.308   4.080   8.245
 7050W        W11114   5.464   9.496   8.977
 7051W        W11115   8.938   7.583   9.759
 7052W        W11116   1.308   3.834   0.071
 7053W        W11117   1.015   4.690   8.495
 7054W        W11118   4.558   3.593   9.072
 7055W        W11119   5.538   1.626   8.501
 7056W        W11120   0.859   7.917  10.064
 7057W        W11121  10.440  10.487  11.820
 7058W        W11122   1.449   2.277   1.388
 7059W        W11123   7.376   9.428   2.296
 7060W        W11124   5.529   6.709  11.956
 7061W        W11125   8.851   2.405   0.073
 7062W        W11126   6.378   3.063   8.558
 7063W        W11127   8.953   0.702  11.743
 7064W        W11128   0.292   4.487  11.487
 7065W        W11129   4.702   6.678   8.573
 7066W        W11130   6.707   6.763   9.288
 7067W        W11131   0.565   1.163   0.325
 7068W        W11132   9.261   2.415  11.792
 7069W        W11133   5.295   1.855  11.669
 7070W        W11134   1.182   1.798  11.861
 7071W        W11135   0.071   4.295   9.646
 7072W        W11136   1.025   3.292   2.412
 7073W        W11137   2.712   7.910   1.465
 7074W        W11138   3.278   6.043   9.059
 7075W        W11139   9.818   2.234   2.205
 7076W        W11140   4.279   2.192   1.462
 7077W        W11141   6.510   6.289   1.735
 7078W        W11142   3.084   6.557   2.005
 7079W        W11143   5.439   6.473   2.673
 7080W        W11144   0.814   9.841   3.094
 7081W        W11145   2.746   0.314   3.533
 7082W        W11146   7.885   2.045   0.952
 7083W        W11147   0.501   6.705   0.973
 7084W        W11148   2.201   1.251  10.505
 7085W        W11149   8.450   0.537   1.135
 7086W        W11150   7.890   1.848   1.723
 7087W        W11151   6.466   5.880   2.086
 7088W        W11152   6.699  10.394   2.864
 7089W        W11153   6.966   6.401   2.778
 7090W        W11154   4.285   2.150  11.866
 7091W        W11155   6.504   9.327   1.797
 7092W        W11156   6.096   2.733   2.729
 7093W        W11157   0.706   8.572  11.595
 7094W        W11158   2.285   7.209   1.447
 7095W        W11159   4.165  10.015  11.251
 7096W        W11160  10.277   6.494   2.263
 7097W        W11161  10.328   1.800  11.549
 7098W        W11162   9.303   4.230  10.058
 7099W        W11163   1.309   6.941  11.054
 7100W        W11164   3.736   7.487  10.538
 7101W        W11165   1.310   1.568  11.427
 7102W        W11166   9.575   0.027  11.214
 7103W        W11167   1.147   1.705  10.962
 7104W        W11168   0.370   3.275   1.767
 7105W        W11169   6.524   4.657   0.813
 7106W        W11170   0.038   9.106   0.174
 7107W        W11171   1.826   3.157   1.199
 7108W        W11172   9.868   7.487  10.836
 7109W        W11173   1.439   9.813   0.450
 7110W        W11174   1.600   4.318   1.910
 7111W        W11175   4.667   1.013   1.166
 7112W        W11176   6.895   6.656   1.306
 7113W        W11177   2.815   6.996  10.410
 7114W        W11178   3.546   7.015   9.601
 7115W        W11179   5.109   0.567   1.488
 7116W        W11180   1.989   4.277   0.440
 7117W        W11181   2.772   9.363   9.356
 7118W        W11182   9.178   8.916   3.487
 7119W        W11183   8.407   7.648   8.976
 7120W        W11184   4.054   7.008   9.573
 7121W        W11185   4.313   6.218   4.146
 7122W        W11186   0.809   0.390   1.857
 7123W        W11187   9.472   2.458   0.889
 7124W        W11188   9.854   5.045   1.534
 7125W        W11189   2.544   7.816   9.967
 7126W        W11190  10.219   0.507   3.075
 7127W        W11191   2.832   0.228   1.750
 7128W        W11192   3.336   4.776  11.048
 7129W        W11193   3.575   6.213   8.641
 7130W        W11194   9.550   2.510  11.020
 7131W        W11195   9.586   8.630   2.935
 7132W        W11196   5.510   9.339   9.489
 7133W        W11197   8.455   8.606   9.968
 7134W        W11198   7.861   5.398   8.871
 7135W        W11199   6.997   2.679   2.245
 7136W        W11200   2.674   1.900   2.642
 7137W        W11201   9.780   7.544  11.421
 7138W        W11202   6.936   3.515   9.219
 7139W        W11203   2.279   3.484  10.686
 7140W        W11204   9.180   9.131   0.443
 7141W        W11205   6.564  10.495   8.919
 7142W        W11206   9.019   2.058  10.872
 7143W        W11207   0.921   7.120  11.406
 7144W        W11208   1.431   5.601   3.285
 7145W        W11209   0.318   2.910   9.326
 7146W        W11210  10.311   5.993  10.473
 7147W        W11211   9.150   5.171   9.430
 7148W        W11212   0.521   3.254   2.311
 7149W        W11213   7.471   2.202  11.723
 7150W        W11214   0.146   1.350   3.500
 7151W        W11215  10.263   4.237  10.936
 7152W        W11216  10.370   2.921   9.605
 7153W        W11217   5.478   7.859   0.284
 7154W        W11218   4.765   7.347   1.302
 7155W        W11219   4.620   2.846   0.440
 7156W        W11220   2.371   7.420  11.240
 7157W        W11221   9.344  10.000   2.806
 7158W        W11222   6.575   5.251   3.636
 7159W        W11223   3.606   0.254   3.522
 7160W        W11224   6.216   5.707  10.372
 7161W        W11225   2.589   0.186   0.008
 7162W        W11226   1.450   4.916   1.830
 7163W        W11227   1.846   8.949   9.808
 7164W        W11228  10.262   1.092  10.981
 7165W        W11229   4.312   4.725   0.970
 7166W        W11230   1.812  10.383  11.156
 7167W        W11231   0.391   6.159   0.641
 7168W        W11232   6.783   1.689   0.887
 7169W        W11233   0.908   3.853  11.747
 7170W        W11234   6.174   3.345   8.107
 7171W        W11235   3.591   6.629   0.198
 7172W        W11236   6.984   5.020   9.371
 7173W        W11237   7.348   9.501  11.526
 7174W        W11238   4.627   9.608   1.042
 7175W        W11239   2.606   4.711  10.729
 7176W        W11240   5.490   7.043   3.984
 7177W        W11241   9.700   7.580   2.187
 7178W        W11242   9.716   2.990  11.332
 7179W        W11243   6.235   5.278   1.281
 7180W        W11244   0.316   3.154  10.323
 7181W        W11245   0.496   8.566   9.493
 7182W        W11246   3.790   8.474   2.315
 7183W        W11247   9.618   8.765   2.135
 7184W        W11248   8.345   2.288  11.491
 7185W        W11249   0.180   2.146   9.998
 7186W        W11250   4.976   0.389   9.154
 7187W        W11251   5.109   7.704   0.633
 7188W        W11252  10.041  10.282   0.796
 7189W        W11253   2.313   6.451  10.723
 7190W        W11254   4.993   5.338   1.646
 7191W        W11255   9.475   1.390   1.320
 7192W        W11256   1.877   4.436  11.489
 7193W        W11257   7.702   6.654  11.359
 7194W        W11258   6.670   5.263   3.134
 7195W        W11259   1.269   5.914   1.964
 7196W        W11260   7.111   4.021   3.051
 7197W        W11261   1.820   6.168   0.241
 7198W        W11262   7.564   7.283   2.363
 7199W        W11263   5.538   9.428  10.461
 7200W        W11264   2.696   6.393   2.328
 7201W        W11265   4.057   9.049   0.482
 7202W        W11266   6.092   2.382   0.745
 7203W        W11267   0.816   8.095   2.249
 7204W        W11268   3.187   6.514   8.839
 7205W        W11269   1.710   8.849   8.922
 7206W        W11270   1.316   5.212  10.436
 7207W        W11271   5.573   2.813   2.827
 7208W        W11272   3.231   1.845   0.492
 7209W        W11273   1.620   6.971   1.914
 7210W        W11274   6.214   3.034   9.360
 7211W        W11275   4.834   8.017   3.597
 7212W        W11276   7.509   9.555   9.254
 7213W        W11277   6.658   1.723   2.342
 7214W        W11278   2.807   2.832   9.877
 7215W        W11279  10.262   2.807  10.535
 7216W        W11280   1.779   6.910  11.268
 7217W        W11281   5.942   8.093  11.021
 7218W        W11282   4.130   5.712   2.123
 7219W        W11283   9.978   7.589   1.336
 7220W        W11284   0.826   9.426  10.043
 7221W        W11285   4.187   5.586  11.256
 7222W        W11286   1.340   8.158  11.562
 7223W        W11287   8.603   3.759   1.456
 7224W        W11288   6.888   0.913   0.407
 7225W        W11289   4.733   5.398  10.422
 7226W        W11290   9.832   8.056   2.297
 7227W        W11291   7.088  10.431   8.693
 7228W        W11292   8.118   8.176  11.324
 7229W        W11293   3.041   2.353  10.035
 7230W        W11294   7.585   6.870  10.892
 7231W        W11295   4.093   4.269   9.975
 7232W        W11296  10.293   6.221   0.479
 7233W        W11297   6.409   9.678   2.580
 7234W        W11298   5.059   9.574  11.748
 7235W        W11299   8.633   4.429   2.440
 7236W        W11300   1.617   7.248   2.736
 7237W        W11301   7.434   7.013   3.279
 7238W        W11302   9.398   5.190   1.264
 7239W        W11303   8.289   9.197   2.361
 7240W        W11304   0.324   8.169  11.594
 7241W        W11305   9.784   1.824   3.619
 7242W        W11306   8.467   8.322   2.272
 7243W        W11307   6.909   4.630   8.598
 7244W        W11308   0.598   7.189   1.036
 7245W        W11309   0.780  10.440  10.964
 7246W        W11310   4.167   9.335   2.326
 7247W        W11311   6.514   2.145   0.902
 7248W        W11312   0.793   6.999  10.273
 7249W        W11313   2.813   5.872   3.939
 7250W        W11314   4.074   6.625  11.429
 7251W        W11315   5.939   6.914  10.502
 7252W        W11316   8.387   8.588   9.456
 7253W        W11317   9.444   0.675   9.018
 7254W        W11318   8.101   5.175   0.333
 7255W        W11319   4.787   4.189   0.275
 7256W        W11320   9.876   0.864  10.301
 7257W        W11321   2.919   6.613   9.488
 7258W        W11322   6.852   5.917   0.363
 7259W        W11323  10.420   6.591   1.736
 7260W        W11324   7.389   4.467   9.840
 7261W        W11325   7.955   3.212   2.998
 7262W        W11326   1.388   4.697   0.029
 7263W        W11327   6.280   0.417   1.072
 7264W        W11328   3.106   0.846  10.172
 7265W        W11329   9.489   8.043   1.619
 7266W        W11330   2.112   4.989   0.615
 7267W        W11331   4.210   9.373  11.880
 7268W        W11332   2.808   6.972   0.937
 7269W        W11333   2.763   3.822  11.439
 7270W        W11334   1.706  10.333   9.718
 7271W        W11335   0.885   5.515   8.641
 7272W        W11336   5.932   6.868   3.309
 7273W        W11337   7.409   7.571   0.396
 7274W        W11338   5.201   0.537   2.275
 7275W        W11339   3.278   9.685  11.138
 7276W        W11340   9.257   7.068  10.319
 7277W        W11341   4.982   5.577   0.276
 7278W        W11342   1.771   1.403  11.262
 7279W        W11343   0.545   5.194   8.911
 7280W        W11344   5.738   9.416   0.916
 7281W        W11345   5.030   6.986  11.378
 7282W        W11346   0.870   9.889   1.687
 7283W        W11347   1.687   9.793   8.991
 7284W        W11348   8.980   6.599   9.561
 7285W        W11349   9.910   2.662  11.969
 7286W        W11350   8.044   8.408   8.602
 7287W        W11351   1.978   5.654   2.321
 7288W        W11352   7.876   7.471   9.229
 7289W        W11353   5.496   5.718   9.024
 7290W        W11354   0.291   3.534   9.986
 7291W        W11355  10.365   6.595  11.830
 7292W        W11356   3.335   3.065  11.991
 7293W        W11357   4.555   7.689   9.901
 7294W        W11358   8.422   2.110  11.972
 7295W        W11359   6.532   7.515  10.646
 7296W        W11360   2.742   2.312   2.945
 7297W        W11361   7.433   2.067   9.774
 7298W        W11362   3.644   5.025   9.603
 7299W        W11363   9.393   7.909   2.513
 7300W        W11364   5.951   8.656   0.329
 7301W        W11365   3.606   3.820   9.426
 7302W        W11366   0.270   6.527   2.118
 7303W        W11367   2.366   5.131   9.300
 7304W        W11368   9.792   8.086   1.219
 7305W        W11369   9.359  10.170   8.872
 7306W        W11370   7.369   1.761  11.971
 7307W        W11371   1.502   3.166   2.950
 7308W        W11372   0.775  10.313  10.085
 7309W        W11373   0.872   7.611   3.603
 7310W        W11374   1.258   1.292   9.068
 7311W        W11375   8.075   0.297   9.042
 7312W        W11376   5.082   0.756   0.995
 7313ION    NA+11377   6.453   4.855   8.707
 7314ION    NA+11378   1.858  10.077   2.206
 7315ION    NA+11379   7.760   7.057  11.705
 7316ION    NA+11380   9.070   5.992   1.324
 7317ION    NA+11381   5.509   3.579   9.493
 7318ION    NA+11382   7.900   4.752   0.138
 7319ION    NA+11383   5.517   4.056   0.957
 7320ION    NA+11384   6.213   1.440  10.733
 7321ION    NA+11385   2.631   8.321   9.863
 7322ION    NA+11386   2.742   4.602  10.254
 7323ION    NA+11387   1.511   2.369  10.623
 7324ION    NA+11388  10.102   4.990  11.455
 7325ION    NA+11389   2.679   0.359  10.300
 7326ION    NA+11390   0.602   9.096   9.402
 7327ION    NA+11391   5.165   4.591   2.659
 7328ION    NA+11392   4.194   8.547   0.227
 7329ION    NA+11393   7.477   4.360   2.313
 7330ION    NA+11394   1.129   7.653   2.295
 7331ION    NA+11395   8.838   0.617   9.612
 7332ION    NA+11396   3.716   2.629  10.099
 7333ION    NA+11397   7.318   1.298   1.953
 7334ION    NA+11398   4.993   3.254   0.667
 7335ION    NA+11399   4.217   5.413   0.507
 7336ION    NA+11400   0.622   8.419  11.110
 7337ION    NA+11401   0.666   2.728   1.083
 7338ION    NA+11402   8.277   1.532   1.791
 7339ION    NA+11403   0.809   2.717   9.781
 7340ION    NA+11404   1.510   2.729   0.015
 7341ION    NA+11405   7.076   9.013   9.877
 7342ION    NA+11406   8.441   6.214   3.082
 7343ION    NA+11407   2.927   9.514   2.710
 7344ION    NA+11408   8.922   9.139   2.643
 7345ION    NA+11409   2.398   2.142  11.025
 7346ION    NA+11410   0.920   5.168  11.979
 7347ION    NA+11411   9.658   2.094  11.834
 7348ION    NA+11412   7.057   7.186   0.365
 7349ION    NA+11413   2.289   1.258   9.973
 7350ION    NA+11414   4.986   4.089  11.777
 7351ION    NA+11415   6.549   7.761   9.037
 7352ION    NA+11416   8.632   8.235  11.405
 7353ION    NA+11417   2.700   6.487   0.331
 7354ION    NA+11418   1.662   5.184   2.717
 7355ION    NA+11419   5.147   8.226   0.917
 7356ION    NA+11420   5.640   6.087  11.211
 7357ION    NA+11421   3.053   7.105   9.502
 7358ION    NA+11422   6.721   9.155   3.246
 7359ION    NA+11423   1.712   7.089  10.780
 7360ION    NA+11424   0.028   1.626   9.164
 7361ION    NA+11425   1.426   8.295   0.562
 7362ION    NA+11426   7.895   8.740   9.373
 7363ION    NA+11427   8.391   9.075  10.919
 7364ION    NA+11428   4.402   1.500  11.419
 7365ION    NA+11429   3.119   2.870  11.297
 7366ION    NA+11430   3.810   3.884   0.663
 7367ION    NA+11431   7.668   7.858   1.457
 7368ION    NA+11432   9.023   5.111   2.797
 7369ION    NA+11433   6.752   1.731   3.145
 7370ION    NA+11434   3.449   8.389  11.443
 7371ION    NA+11435   9.869   9.516   1.239
 7372ION    NA+11436   7.068   3.111   2.548
 7373ION    NA+11437   6.197   2.552   1.234
 7374ION    NA+11438   3.997   2.274   0.941
 7375ION    NA+11439   6.018   9.652   9.622
 7376ION    NA+11440   9.964   9.828  11.400
 7377ION    NA+11441   9.029  10.339  10.404
 7378ION    NA+11442   1.197   9.108   0.758
 7379ION    NA+11443   8.528   7.011   2.950
 7380ION    NA+11444   3.762   1.680   3.061
 7381ION    NA+11445   6.020   6.955   8.705
 7382ION    NA+11446   6.575   0.718   0.781
 7383ION    NA+11447   8.453   6.858   0.226
 7384ION    NA+11448   7.080   6.441  11.698
 7385ION    NA+11449   1.377   4.382   8.937
 7386ION    NA+11450   1.664   0.347  10.351
 7387ION    NA+11451   2.986   3.954   0.306
 7388ION    NA+11452   2.086   0.187  11.638
 7389ION    NA+11453   3.865  10.111   0.463
 7390ION    CL-11454   5.847   5.580   2.668
 7391ION    CL-11455   8.178   9.868   1.362
 7392ION    CL-11456   6.206   0.545   0.592
 7393ION    CL-11457   6.576   1.701  10.774
 7394ION    CL-11458   7.481   7.242   9.480
 7395ION    CL-11459  10.170   8.335   0.951
 7396ION    CL-11460   4.085   5.277   9.431
 7397ION    CL-11461   1.572   7.684   2.345
 7398ION    CL-11462   1.923   5.499  10.019
 7399ION    CL-11463   9.400   7.590   3.448
 7400ION    CL-11464   5.541   2.626  11.366
 7401ION    CL-11465   2.941   9.883   8.424
 7402ION    CL-11466   4.114   6.405  10.093
 7403ION    CL-11467   2.315   3.897   3.018
 7404ION    CL-11468   1.199   8.689   0.583
 7405ION    CL-11469  10.453   5.183   9.588
 7406ION    CL-11470   9.183   9.495   2.570
 7407ION    CL-11471   2.122   8.439   3.447
 7408ION    CL-11472  10.241   7.906   0.050
 7409ION    CL-11473   0.281   1.593   0.224
 7410ION    CL-11474   7.807   7.422   1.459
 7411ION    CL-11475   7.685   8.345   9.345
 7412ION    CL-11476   2.906   2.917  11.687
 7413ION    CL-11477   4.248   5.259   0.086
 7414ION    CL-11478   0.644   8.806   9.065
 7415ION    CL-11479   2.009   6.464   1.611
 7416ION    CL-11480   7.890   6.389   9.104
 7417ION    CL-11481   7.362   6.793  11.772
 7418ION    CL-11482   5.467   7.385  11.346
 7419ION    CL-11483   2.790   2.255   3.446
 7420ION    CL-11484   0.975   4.785  11.757
 7421ION    CL-11485   0.291   3.938   0.869
 7422ION    CL-11486   8.663   6.574   2.907
 7423ION    CL-11487   1.061   8.488  11.216
 7424ION    CL-11488  10.212  10.000  11.741
 7425ION    CL-11489   7.257   6.274   1.339
 7426ION    CL-11490   9.680   6.134   3.673
 7427ION    CL-11491   3.901   1.914   1.185
 7428ION    CL-11492   2.928   3.135   2.939
 7429ION    CL-11493   6.230   4.735   9.073
 7430ION    CL-11494   4.480   1.669  11.824
 7431ION    CL-11495   1.907   0.588  11.734
 7432ION    CL-11496   7.859   2.153  10.991
 7433ION    CL-11497   9.842   8.029   9.559
 7434ION    CL-11498   9.713   9.622  11.078
 7435ION    CL-11499   6.508   9.265   2.860
 7436ION    CL-11500  10.069   2.211  11.707
 7437ION    CL-11501   3.416   3.869   0.435
 7438ION    CL-11502   2.271   3.707   2.037
 7439ION    CL-11503   8.864   7.924  11.628
 7440ION    CL-11504   3.616   1.540   2.661
 7441ION    CL-11505  10.379   3.754  10.826
 7442ION    CL-11506   7.349   8.153   1.321
 7443ION    CL-11507   6.758   1.270   9.421
 7444ION    CL-11508   4.133   4.783   1.740
 7445ION    CL-11509   9.311   5.910   1.688
 7446ION    CL-11510   0.243   8.165  11.093
 7447ION    CL-11511   6.320   6.618   1.285
 7448ION    CL-11512   8.648   0.925   9.871
 7449ION    CL-11513   8.810   3.103  11.500
 7450ION    CL-11514   9.371   0.785  11.402
 7451ION    CL-11515   4.804   8.438   9.380
 7452ION    CL-11516   0.049   0.342   0.182
 7453ION    CL-11517   5.094   4.488  11.978
 7454ION    CL-11518   3.799  10.021   9.116
 7455ION    CL-11519   1.291   4.276   2.357
 7456ION    CL-11520   8.148   7.072  11.967
 7457ION    CL-11521   8.853   1.900   3.089
 7458ION    CL-11522   3.247   7.580  10.746
 7459ION    CL-11523   9.576   6.679  10.255
 7460ION    CL-11524   4.444   8.910   0.155
 7461ION    CL-11525   7.702   5.926   2.164
 7462ION    CL-11526   1.485   4.225  10.547
 7463ION    CL-11527   0.716   6.557   2.420
 7464ION    CL-11528   8.358   5.532   8.889
 7465ION    CL-11529  10.156   4.089   8.745
 7466ION    CL-11530   5.078   3.722  11.521
  10.50000  10.50000  12.00000
