Protein in INSANE! Membrane UpperLeaflet>POPC=1.0 LowerLeaflet>POPC=1.0
11125
    1AU     AUC    1   5.228   5.294   6.005
    1AU     AUC    2   5.513   5.295   5.830
    1AU     AUC    3   5.501   5.285   6.179
    1AU     AUC    4   4.951   5.284   5.839
    1AU     AUC    5   4.964   5.332   6.187
    1AU     AUC    6   5.058   5.598   5.998
    1AU     AUC    7   5.410   5.564   6.002
    1AU     AUC    8   5.044   5.021   6.018
    1AU     AUC    9   5.398   5.005   6.007
    1AU     AUC   10   5.236   5.124   6.285
    1AU     AUC   11   5.215   5.468   6.270
    1AU     AUC   12   5.221   5.118   5.735
    1AU     AUC   13   5.241   5.451   5.729
    1AU     AUC   14   5.822   5.308   5.663
    1AU     AUC   15   5.837   5.280   6.008
    1AU     AUC   16   5.791   5.271   6.367
    1AU     AUC   17   4.652   5.267   5.670
    1AU     AUC   18   4.629   5.319   6.031
    1AU     AUC   19   4.673   5.364   6.368
    1AU     AUC   20   4.914   5.903   5.986
    1AU     AUC   21   5.237   5.925   5.990
    1AU     AUC   22   5.604   5.850   5.995
    1AU     AUC   23   4.845   4.745   6.031
    1AU     AUC   24   5.195   4.691   6.010
    1AU     AUC   25   5.568   4.705   5.993
    1AU     AUC   26   5.217   4.956   6.576
    1AU     AUC   27   5.242   5.325   6.618
    1AU     AUC   28   5.244   5.660   6.574
    1AU     AUC   29   5.245   4.926   5.453
    1AU     AUC   30   5.247   5.260   5.404
    1AU     AUC   31   5.222   5.611   5.417
    1AU     AUC   32   5.505   5.099   6.504
    1AU     AUC   33   5.544   5.445   6.510
    1AU     AUC   34   5.549   5.122   5.514
    1AU     AUC   35   5.531   5.475   5.509
    1AU     AUC   36   4.926   5.178   6.521
    1AU     AUC   37   4.949   5.554   6.484
    1AU     AUC   38   4.925   5.064   5.555
    1AU     AUC   39   4.913   5.433   5.515
    1AU     AUC   40   5.746   5.577   5.820
    1AU     AUC   41   5.729   5.575   6.182
    1AU     AUC   42   4.772   5.587   5.809
    1AU     AUC   43   4.762   5.655   6.171
    1AU     AUC   44   5.717   4.987   5.828
    1AU     AUC   45   5.695   4.967   6.176
    1AU     AUC   46   4.710   4.982   5.872
    1AU     AUC   47   4.763   5.043   6.227
    1AU     AUC   48   5.083   5.847   6.287
    1AU     AUC   49   5.428   5.760   6.270
    1AU     AUC   50   5.039   4.827   6.317
    1AU     AUC   51   5.372   4.786   6.288
    1AU     AUC   52   5.037   5.750   5.696
    1AU     AUC   53   5.404   5.755   5.703
    1AU     AUC   54   5.031   4.805   5.724
    1AU     AUC   55   5.422   4.823   5.719
    1AU    AUSL   56   5.756   5.183   6.748
    1AU    AUSL   57   5.518   4.801   6.665
    1AU     AUL   58   5.726   4.791   6.994
    1AU       S   59   5.899   4.569   6.633
    1AU     LIG   60   5.787   4.293   6.969
    1AU     LIG   61   6.002   3.970   7.185
    1AU     LIG   62   6.251   3.637   7.384
    1AU     LIG   63   6.472   3.429   7.730
    1AU       S   64   5.970   5.119   6.801
    1AU     LIG   65   6.015   5.092   7.276
    1AU     LIG   66   6.175   5.046   7.716
    1AU     LIG   67   6.492   5.044   8.071
    1AU     LIG   68   6.877   5.127   8.343
    1AU    AUSL   69   5.344   5.130   6.892
    1AU    AUSL   70   5.095   5.509   6.880
    1AU     AUL   71   5.258   5.453   7.242
    1AU       S   72   5.384   5.076   7.028
    1AU     LIG   73   5.492   5.032   7.436
    1AU     LIG   74   5.704   4.825   7.794
    1AU     LIG   75   5.779   4.621   8.219
    1AU     LIG   76   5.900   4.661   8.672
    1AU       S   77   4.873   5.243   7.121
    1AU     LIG   78   4.942   5.246   7.591
    1AU     LIG   79   4.708   5.174   7.980
    1AU     LIG   80   4.555   5.187   8.422
    1AU     LIG   81   4.569   5.408   8.843
    1AU    AUSL   82   5.513   5.544   6.878
    1AU    AUSL   83   5.881   5.571   6.616
    1AU     AUL   84   5.765   5.450   7.035
    1AU       S   85   5.395   5.858   6.999
    1AU     LIG   86   5.645   5.796   7.390
    1AU     LIG   87   5.720   5.887   7.864
    1AU     LIG   88   5.762   5.942   8.348
    1AU     LIG   89   5.775   5.920   8.830
    1AU       S   90   6.020   5.728   6.761
    1AU     LIG   91   6.433   5.719   6.857
    1AU     LIG   92   6.708   5.903   7.189
    1AU     LIG   93   6.965   6.179   7.470
    1AU     LIG   94   7.384   6.387   7.545
    1AU    AUSL   95   5.697   5.369   5.372
    1AU    AUSL   96   5.543   5.777   5.311
    1AU     AUL   97   5.760   5.673   5.071
    1AU       S   98   5.734   5.325   4.782
    1AU     LIG   99   6.156   5.271   4.643
    1AU     LIG  100   6.258   5.018   4.279
    1AU     LIG  101   6.291   4.939   3.823
    1AU     LIG  102   6.510   5.056   3.427
    1AU       S  103   5.888   6.048   5.318
    1AU     LIG  104   6.046   6.169   4.907
    1AU     LIG  105   6.252   6.347   4.515
    1AU     LIG  106   6.497   6.664   4.279
    1AU     LIG  107   6.735   6.952   4.003
    1AU    AUSL  108   5.557   5.055   5.121
    1AU    AUSL  109   5.909   5.000   5.401
    1AU     AUL  110   5.965   5.253   5.196
    1AU       S  111   5.983   4.773   5.144
    1AU     LIG  112   6.178   4.475   4.790
    1AU     LIG  113   6.430   4.088   4.660
    1AU     LIG  114   6.738   3.772   4.475
    1AU     LIG  115   7.126   3.729   4.189
    1AU       S  116   5.723   5.117   4.823
    1AU     LIG  117   5.859   4.815   4.559
    1AU     LIG  118   5.883   4.690   4.109
    1AU     LIG  119   5.839   4.768   3.645
    1AU     LIG  120   6.078   4.842   3.248
    1AU    AUSL  121   5.357   5.437   5.108
    1AU    AUSL  122   5.137   5.045   5.217
    1AU     AUL  123   5.304   4.990   4.940
    1AU       S  124   4.961   5.274   4.869
    1AU     LIG  125   5.068   5.018   4.459
    1AU     LIG  126   4.824   4.742   4.142
    1AU     LIG  127   4.592   4.697   3.725
    1AU     LIG  128   4.587   4.773   3.263
    1AU       S  129   5.461   5.415   4.789
    1AU     LIG  130   5.547   5.191   4.346
    1AU     LIG  131   5.849   5.187   3.981
    1AU     LIG  132   5.987   5.262   3.533
    1AU     LIG  133   5.954   5.463   3.103
    1AU    AUSL  134   4.690   5.448   6.735
    1AU    AUSL  135   4.964   5.825   6.633
    1AU     AUL  136   4.854   5.743   6.964
    1AU       S  137   4.686   5.348   7.165
    1AU     LIG  138   4.516   4.995   7.411
    1AU     LIG  139   4.290   4.913   7.829
    1AU     LIG  140   4.124   4.931   8.284
    1AU     LIG  141   3.776   5.072   8.590
    1AU       S  142   4.581   6.033   6.680
    1AU     LIG  143   4.661   6.212   7.086
    1AU     LIG  144   4.535   6.471   7.459
    1AU     LIG  145   4.224   6.731   7.694
    1AU     LIG  146   3.997   6.863   8.092
    1AU    AUSL  147   4.992   5.155   6.659
    1AU    AUSL  148   4.579   5.023   6.646
    1AU     AUL  149   4.476   5.259   6.765
    1AU       S  150   4.492   4.810   6.909
    1AU     LIG  151   4.060   4.674   6.725
    1AU     LIG  152   3.857   4.262   6.824
    1AU     LIG  153   3.655   3.932   7.079
    1AU     LIG  154   3.365   3.725   7.373
    1AU       S  155   4.877   5.121   7.044
    1AU     LIG  156   5.016   4.810   7.359
    1AU     LIG  157   4.781   4.705   7.757
    1AU     LIG  158   4.594   4.703   8.194
    1AU     LIG  159   4.446   4.558   8.612
    1AU    AUSL  160   4.713   5.139   5.262
    1AU    AUSL  161   4.901   4.785   5.458
    1AU     AUL  162   4.906   4.791   5.108
    1AU       S  163   4.787   5.153   4.838
    1AU     LIG  164   4.543   5.020   4.488
    1AU     LIG  165   4.317   4.933   4.089
    1AU     LIG  166   4.043   4.914   3.701
    1AU     LIG  167   3.585   5.051   3.592
    1AU       S  168   4.510   4.671   5.302
    1AU     LIG  169   4.547   4.317   5.079
    1AU     LIG  170   4.199   4.074   4.918
    1AU     LIG  171   3.871   3.910   4.642
    1AU     LIG  172   3.779   3.633   4.282
    1AU    AUSL  173   5.010   5.439   5.342
    1AU    AUSL  174   4.568   5.518   5.419
    1AU     AUL  175   4.598   5.420   5.156
    1AU       S  176   4.264   5.735   5.205
    1AU     LIG  177   4.201   5.850   4.769
    1AU     LIG  178   4.008   6.194   4.524
    1AU     LIG  179   3.708   6.451   4.276
    1AU     LIG  180   3.257   6.522   4.153
    1AU       S  181   4.959   5.493   4.878
    1AU     LIG  182   4.805   5.472   4.428
    1AU     LIG  183   4.736   5.233   4.028
    1AU     LIG  184   4.635   5.199   3.566
    1AU     LIG  185   4.710   5.362   3.119
    1AU    AUSL  186   5.970   5.813   5.977
    1AU    AUSL  187   5.964   5.632   5.558
    1AU     AUL  188   6.246   5.942   5.783
    1AU       S  189   6.022   5.780   5.428
    1AU     LIG  190   6.270   5.729   5.080
    1AU     LIG  191   6.518   5.971   4.767
    1AU     LIG  192   6.775   6.293   4.531
    1AU     LIG  193   7.023   6.612   4.276
    1AU       S  194   6.448   5.686   6.138
    1AU     LIG  195   6.872   5.854   6.086
    1AU     LIG  196   7.310   6.042   6.084
    1AU     LIG  197   7.512   6.491   6.063
    1AU     LIG  198   7.762   6.750   6.365
    1AU    AUSL  199   6.176   5.420   5.864
    1AU    AUSL  200   6.146   5.094   6.177
    1AU     AUL  201   6.530   5.192   6.163
    1AU       S  202   6.318   5.504   5.921
    1AU     LIG  203   6.764   5.442   5.791
    1AU     LIG  204   7.234   5.566   5.831
    1AU     LIG  205   7.670   5.743   5.789
    1AU     LIG  206   8.072   5.554   5.589
    1AU       S  207   6.398   4.798   5.973
    1AU     LIG  208   6.834   4.697   6.101
    1AU     LIG  209   7.243   4.476   6.204
    1AU     LIG  210   7.662   4.354   6.318
    1AU     LIG  211   8.079   4.483   6.466
    1AU    AUSL  212   5.929   5.457   6.221
    1AU    AUSL  213   5.819   5.924   6.363
    1AU     AUL  214   6.062   5.862   6.306
    1AU       S  215   6.042   6.051   6.735
    1AU     LIG  216   6.410   6.243   6.938
    1AU     LIG  217   6.722   6.527   7.163
    1AU     LIG  218   6.858   6.974   7.291
    1AU     LIG  219   6.885   7.472   7.268
    1AU       S  220   6.287   5.490   6.388
    1AU     LIG  221   6.759   5.520   6.488
    1AU     LIG  222   7.208   5.557   6.344
    1AU     LIG  223   7.628   5.724   6.400
    1AU     LIG  224   8.041   5.867   6.561
    1AU    AUSL  225   4.546   5.875   6.002
    1AU    AUSL  226   4.651   5.668   6.381
    1AU     AUL  227   4.318   5.964   6.251
    1AU       S  228   4.475   5.846   6.664
    1AU     LIG  229   4.355   5.791   7.083
    1AU     LIG  230   4.159   6.142   7.333
    1AU     LIG  231   3.861   6.381   7.615
    1AU     LIG  232   3.588   6.478   7.995
    1AU       S  233   4.500   6.202   5.886
    1AU     LIG  234   4.043   6.102   5.826
    1AU     LIG  235   3.593   6.277   5.813
    1AU     LIG  236   3.175   6.508   5.864
    1AU     LIG  237   2.772   6.674   6.045
    1AU    AUSL  238   4.531   5.470   5.831
    1AU    AUSL  239   4.738   5.840   5.632
    1AU     AUL  240   4.377   5.766   5.666
    1AU       S  241   4.172   5.295   5.485
    1AU     LIG  242   3.859   5.665   5.565
    1AU     LIG  243   3.406   5.823   5.663
    1AU     LIG  244   3.082   6.138   5.503
    1AU     LIG  245   2.602   6.194   5.483
    1AU       S  246   4.460   6.139   5.394
    1AU     LIG  247   4.208   6.289   5.041
    1AU     LIG  248   4.208   6.624   4.719
    1AU     LIG  249   3.996   7.004   4.567
    1AU     LIG  250   3.664   7.290   4.725
    1AU    AUSL  251   4.310   5.512   6.207
    1AU    AUSL  252   4.285   5.143   5.914
    1AU     AUL  253   4.136   5.473   5.928
    1AU       S  254   4.078   5.074   6.194
    1AU     LIG  255   3.760   5.131   5.879
    1AU     LIG  256   3.387   4.883   5.730
    1AU     LIG  257   2.967   4.676   5.736
    1AU     LIG  258   2.557   4.813   5.628
    1AU       S  259   4.176   5.535   6.433
    1AU     LIG  260   3.748   5.515   6.257
    1AU     LIG  261   3.313   5.666   6.405
    1AU     LIG  262   2.895   5.918   6.413
    1AU     LIG  263   2.497   6.221   6.356
    1AU    AUSL  264   5.933   4.732   6.038
    1AU    AUSL  265   5.790   4.985   6.379
    1AU     AUL  266   6.145   4.905   6.395
    1AU       S  267   6.230   4.619   6.025
    1AU     LIG  268   6.568   4.328   5.851
    1AU     LIG  269   6.993   4.116   5.932
    1AU     LIG  270   7.435   3.948   6.059
    1AU     LIG  271   7.766   3.848   6.381
    1AU       S  272   5.997   4.484   6.492
    1AU     LIG  273   6.285   4.287   6.839
    1AU     LIG  274   6.524   4.027   7.160
    1AU     LIG  275   6.746   3.811   7.508
    1AU     LIG  276   7.013   3.824   7.904
    1AU    AUSL  277   5.920   5.095   5.805
    1AU    AUSL  278   5.826   4.636   5.634
    1AU     AUL  279   6.061   4.777   5.626
    1AU       S  280   6.409   5.007   5.764
    1AU     LIG  281   6.737   4.750   5.591
    1AU     LIG  282   7.136   4.547   5.694
    1AU     LIG  283   7.553   4.373   5.790
    1AU     LIG  284   7.941   4.297   5.567
    1AU       S  285   6.005   4.494   5.261
    1AU     LIG  286   6.194   4.083   5.139
    1AU     LIG  287   6.375   3.674   4.963
    1AU     LIG  288   6.605   3.312   4.752
    1AU     LIG  289   6.788   2.865   4.815
    1AU    AUSL  290   4.480   4.784   6.080
    1AU    AUSL  291   4.584   5.015   5.648
    1AU     AUL  292   4.230   4.852   5.794
    1AU       S  293   4.391   4.820   5.365
    1AU     LIG  294   4.052   4.537   5.146
    1AU     LIG  295   3.700   4.235   5.015
    1AU     LIG  296   3.360   4.023   4.753
    1AU     LIG  297   3.005   4.123   4.452
    1AU       S  298   4.064   4.840   6.237
    1AU     LIG  299   3.723   4.642   6.044
    1AU     LIG  300   3.271   4.544   6.131
    1AU     LIG  301   2.901   4.373   6.370
    1AU     LIG  302   2.560   4.020   6.324
    1AU    AUSL  303   4.549   5.171   6.258
    1AU    AUSL  304   4.802   4.797   6.359
    1AU     AUL  305   4.477   4.752   6.419
    1AU       S  306   4.522   4.581   6.845
    1AU     LIG  307   4.359   4.150   6.725
    1AU     LIG  308   4.036   3.754   6.769
    1AU     LIG  309   3.698   3.420   6.943
    1AU     LIG  310   3.250   3.300   7.104
    1AU       S  311   4.142   5.070   6.374
    1AU     LIG  312   3.621   5.030   6.381
    1AU     LIG  313   3.198   5.050   6.181
    1AU     LIG  314   2.763   4.889   6.168
    1AU     LIG  315   2.445   4.665   6.437
    1AU    AUSL  316   5.284   6.077   6.517
    1AU    AUSL  317   4.840   6.038   6.275
    1AU     AUL  318   5.021   6.173   6.671
    1AU       S  319   4.680   6.246   6.364
    1AU     LIG  320   4.404   6.489   6.729
    1AU     LIG  321   4.166   6.650   7.144
    1AU     LIG  322   3.939   7.032   7.366
    1AU     LIG  323   3.720   7.484   7.394
    1AU       S  324   5.407   6.449   6.516
    1AU     LIG  325   5.533   6.590   6.884
    1AU     LIG  326   5.534   7.026   7.032
    1AU     LIG  327   5.678   7.460   7.123
    1AU     LIG  328   5.668   7.811   7.428
    1AU    AUSL  329   5.159   6.280   6.150
    1AU    AUSL  330   5.401   6.204   5.762
    1AU     AUL  331   5.387   6.558   5.935
    1AU       S  332   5.208   6.520   6.361
    1AU     LIG  333   5.342   6.959   6.545
    1AU     LIG  334   5.367   7.423   6.695
    1AU     LIG  335   5.228   7.890   6.719
    1AU     LIG  336   4.866   8.179   6.876
    1AU       S  337   5.197   6.462   5.540
    1AU     LIG  338   5.506   6.847   5.499
    1AU     LIG  339   5.724   7.271   5.358
    1AU     LIG  340   6.010   7.685   5.311
    1AU     LIG  341   6.195   8.136   5.267
    1AU    AUSL  342   5.486   6.005   6.133
    1AU    AUSL  343   5.478   5.710   6.507
    1AU     AUL  344   5.593   6.032   6.583
    1AU       S  345   5.865   5.917   6.929
    1AU     LIG  346   6.159   5.921   7.259
    1AU     LIG  347   6.433   6.233   7.478
    1AU     LIG  348   6.690   6.558   7.705
    1AU     LIG  349   6.737   6.781   8.124
    1AU       S  350   5.626   6.360   6.266
    1AU     LIG  351   5.811   6.753   6.470
    1AU     LIG  352   5.837   7.203   6.649
    1AU     LIG  353   5.829   7.680   6.685
    1AU     LIG  354   5.706   8.037   6.935
    1AU    AUSL  355   5.193   4.611   6.458
    1AU    AUSL  356   5.601   4.611   6.277
    1AU     AUL  357   5.436   4.477   6.660
    1AU       S  358   5.170   4.117   6.530
    1AU     LIG  359   4.856   3.954   6.836
    1AU     LIG  360   4.811   3.489   6.901
    1AU     LIG  361   4.870   3.019   6.931
    1AU     LIG  362   4.698   2.620   7.157
    1AU       S  363   5.782   4.393   6.344
    1AU     LIG  364   5.950   3.986   6.594
    1AU     LIG  365   6.283   3.698   6.849
    1AU     LIG  366   6.646   3.463   7.107
    1AU     LIG  367   6.872   3.013   7.123
    1AU    AUSL  368   4.869   4.424   6.193
    1AU    AUSL  369   4.966   4.760   6.773
    1AU     AUL  370   4.863   4.474   6.552
    1AU       S  371   4.972   4.057   6.363
    1AU     LIG  372   4.760   3.651   6.406
    1AU     LIG  373   4.619   3.194   6.500
    1AU     LIG  374   4.481   2.771   6.695
    1AU     LIG  375   4.576   2.313   6.749
    1AU       S  376   4.752   4.659   6.977
    1AU     LIG  377   4.581   4.250   7.198
    1AU     LIG  378   4.177   3.998   7.198
    1AU     LIG  379   3.948   3.618   7.371
    1AU     LIG  380   3.963   3.355   7.767
    1AU    AUSL  381   5.298   4.352   6.136
    1AU    AUSL  382   5.050   4.569   5.835
    1AU     AUL  383   4.936   4.238   5.937
    1AU       S  384   5.310   4.134   5.705
    1AU     LIG  385   5.001   3.747   5.768
    1AU     LIG  386   4.784   3.294   5.680
    1AU     LIG  387   4.740   2.830   5.503
    1AU     LIG  388   4.613   2.455   5.243
    1AU       S  389   5.307   4.156   6.262
    1AU     LIG  390   5.263   3.684   6.216
    1AU     LIG  391   5.140   3.310   6.499
    1AU     LIG  392   5.325   2.905   6.659
    1AU     LIG  393   5.729   2.645   6.659
    1AU    AUSL  394   5.198   5.880   5.538
    1AU    AUSL  395   5.636   5.862   5.721
    1AU     AUL  396   5.433   6.086   5.393
    1AU       S  397   5.156   6.464   5.391
    1AU     LIG  398   5.513   6.515   5.114
    1AU     LIG  399   5.590   6.949   4.957
    1AU     LIG  400   5.520   7.293   4.630
    1AU     LIG  401   5.551   7.582   4.246
    1AU       S  402   5.857   6.104   5.587
    1AU     LIG  403   6.332   6.219   5.350
    1AU     LIG  404   6.512   6.454   4.962
    1AU     LIG  405   6.776   6.779   4.713
    1AU     LIG  406   7.136   7.099   4.646
    1AU    AUSL  407   4.968   6.128   5.814
    1AU    AUSL  408   4.906   5.820   5.232
    1AU     AUL  409   4.915   6.085   5.423
    1AU       S  410   4.947   6.440   5.732
    1AU     LIG  411   5.019   6.909   5.658
    1AU     LIG  412   5.186   7.259   5.383
    1AU     LIG  413   5.044   7.712   5.298
    1AU     LIG  414   4.757   8.024   5.085
    1AU       S  415   4.570   5.915   5.139
    1AU     LIG  416   4.616   6.159   4.754
    1AU     LIG  417   4.463   6.359   4.359
    1AU     LIG  418   4.177   6.695   4.190
    1AU     LIG  419   4.202   7.157   4.048
    1AU    AUSL  420   5.237   4.528   5.443
    1AU    AUSL  421   4.643   4.586   5.746
    1AU     AUL  422   4.897   4.416   5.496
    1AU       S  423   4.443   4.535   5.528
    1AU     LIG  424   4.210   4.153   5.448
    1AU     LIG  425   3.902   3.840   5.269
    1AU     LIG  426   3.617   3.599   4.975
    1AU     LIG  427   3.477   3.149   4.841
    1AU       S  428   5.285   4.132   5.508
    1AU     LIG  429   5.205   3.699   5.302
    1AU     LIG  430   4.982   3.260   5.200
    1AU     LIG  431   4.840   2.851   4.977
    1AU     LIG  432   4.761   2.565   4.589
    1AU    AUSL  433   5.472   4.568   5.827
    1AU    AUSL  434   5.489   4.860   5.478
    1AU     AUL  435   5.572   4.495   5.442
    1AU       S  436   5.560   4.185   5.787
    1AU     LIG  437   5.519   3.693   5.745
    1AU     LIG  438   5.295   3.295   5.620
    1AU     LIG  439   5.245   2.853   5.425
    1AU     LIG  440   5.389   2.390   5.429
    1AU       S  441   5.775   4.654   5.068
    1AU     LIG  442   5.728   4.227   4.934
    1AU     LIG  443   5.953   3.884   4.717
    1AU     LIG  444   6.240   3.621   4.460
    1AU     LIG  445   6.457   3.552   4.054
    2POPC   NC3  446  10.037   5.971   8.078
    2POPC   PO4  447  10.424   5.421   8.060
    2POPC   GL1  448  10.273   5.513   7.703
    2POPC   GL2  449  10.279   5.806   7.674
    2POPC   C1A  450  10.164   5.343   7.316
    2POPC   D2A  451  10.348   5.389   6.927
    2POPC   C3A  452  10.153   5.434   6.494
    2POPC   C4A  453  10.133   5.405   5.995
    2POPC   C1B  454  10.259   5.870   7.296
    2POPC   C2B  455  10.227   5.976   6.929
    2POPC   C3B  456  10.004   5.914   6.608
    2POPC   C4B  457  10.228   5.856   6.241
    3POPC   NC3  458   0.467   9.285   8.330
    3POPC   PO4  459   0.652   9.647   7.858
    3POPC   GL1  460   0.487   9.498   7.510
    3POPC   GL2  461   0.359   9.221   7.590
    3POPC   C1A  462   0.235   9.574   7.194
    3POPC   D2A  463   0.387   9.663   6.814
    3POPC   C3A  464   0.085   9.684   6.522
    3POPC   C4A  465   0.248   9.702   6.146
    3POPC   C1B  466   0.262   9.043   7.210
    3POPC   C2B  467   0.500   9.128   6.825
    3POPC   C3B  468   0.420   9.308   6.417
    3POPC   C4B  469   0.495   9.304   5.923
    4POPC   NC3  470   9.464   7.355   8.220
    4POPC   PO4  471   9.083   6.816   8.187
    4POPC   GL1  472   9.262   7.058   7.848
    4POPC   GL2  473   9.620   6.996   7.815
    4POPC   C1A  474   9.195   7.111   7.411
    4POPC   D2A  475   9.149   6.923   6.994
    4POPC   C3A  476   9.182   7.171   6.601
    4POPC   C4A  477   9.210   7.135   6.158
    4POPC   C1B  478   9.715   7.184   7.402
    4POPC   C2B  479   9.820   7.043   7.002
    4POPC   C3B  480   9.851   7.206   6.605
    4POPC   C4B  481   9.629   7.423   6.296
    5POPC   NC3  482   5.903   8.564   8.051
    5POPC   PO4  483   5.729   9.249   8.146
    5POPC   GL1  484   5.921   8.993   7.785
    5POPC   GL2  485   5.627   8.965   7.545
    5POPC   C1A  486   6.069   9.082   7.351
    5POPC   D2A  487   5.789   9.270   7.009
    5POPC   C3A  488   5.743   9.069   6.592
    5POPC   C4A  489   5.668   8.732   6.304
    5POPC   C1B  490   5.760   8.743   7.146
    5POPC   C2B  491   5.566   8.533   6.790
    5POPC   C3B  492   5.587   8.229   6.445
    5POPC   C4B  493   5.712   8.264   6.001
    6POPC   NC3  494   6.429   1.943   8.124
    6POPC   PO4  495   6.047   2.418   8.011
    6POPC   GL1  496   6.378   2.146   7.655
    6POPC   GL2  497   6.484   1.777   7.626
    6POPC   C1A  498   6.502   2.033   7.171
    6POPC   D2A  499   6.281   2.261   6.797
    6POPC   C3A  500   6.515   2.339   6.393
    6POPC   C4A  501   6.381   2.242   5.946
    6POPC   C1B  502   6.671   1.460   7.309
    6POPC   C2B  503   6.750   1.598   6.879
    6POPC   C3B  504   6.574   1.882   6.645
    6POPC   C4B  505   6.387   1.857   6.269
    7POPC   NC3  506   9.019   5.928   8.045
    7POPC   PO4  507   8.894   5.308   8.199
    7POPC   GL1  508   8.856   5.335   7.751
    7POPC   GL2  509   8.614   5.546   7.644
    7POPC   C1A  510   9.000   5.508   7.321
    7POPC   D2A  511   9.102   5.646   6.866
    7POPC   C3A  512   8.989   5.491   6.428
    7POPC   C4A  513   8.924   5.655   6.024
    7POPC   C1B  514   8.509   5.637   7.196
    7POPC   C2B  515   8.593   5.542   6.755
    7POPC   C3B  516   8.478   5.614   6.310
    7POPC   C4B  517   8.083   5.646   6.086
    8POPC   NC3  518   3.722   9.698   8.075
    8POPC   PO4  519   3.067   9.727   8.184
    8POPC   GL1  520   3.279   9.710   7.784
    8POPC   GL2  521   3.391   9.359   7.818
    8POPC   C1A  522   3.363   9.776   7.329
    8POPC   D2A  523   3.191   9.709   6.886
    8POPC   C3A  524   3.488   9.564   6.567
    8POPC   C4A  525   3.469   9.421   6.121
    8POPC   C1B  526   3.439   9.230   7.403
    8POPC   C2B  527   3.439   9.241   6.967
    8POPC   C3B  528   3.557   9.044   6.546
    8POPC   C4B  529   3.764   8.946   6.166
    9POPC   NC3  530   2.598   7.864   8.431
    9POPC   PO4  531   3.034   8.221   8.109
    9POPC   GL1  532   2.665   7.979   7.888
    9POPC   GL2  533   2.442   8.198   7.725
    9POPC   C1A  534   2.557   7.814   7.417
    9POPC   D2A  535   2.831   7.723   7.042
    9POPC   C3A  536   2.673   7.715   6.614
    9POPC   C4A  537   2.500   7.537   6.238
    9POPC   C1B  538   2.883   8.212   7.471
    9POPC   C2B  539   3.012   8.198   7.041
    9POPC   C3B  540   2.999   8.108   6.570
    9POPC   C4B  541   2.792   7.968   6.158
   10POPC   NC3  542   8.650   6.799   8.385
   10POPC   PO4  543   8.540   7.514   8.405
   10POPC   GL1  544   8.709   7.443   7.926
   10POPC   GL2  545   8.764   7.113   7.736
   10POPC   C1A  546   8.745   7.531   7.402
   10POPC   D2A  547   8.634   7.735   6.954
   10POPC   C3A  548   8.443   7.545   6.534
   10POPC   C4A  549   8.436   7.486   6.043
   10POPC   C1B  550   8.712   7.056   7.259
   10POPC   C2B  551   8.709   7.143   6.795
   10POPC   C3B  552   8.704   7.041   6.330
   10POPC   C4B  553   8.793   7.177   5.882
   11POPC   NC3  554   6.125   9.067   8.263
   11POPC   PO4  555   6.292   8.394   8.212
   11POPC   GL1  556   6.347   8.662   7.807
   11POPC   GL2  557   6.682   8.766   7.714
   11POPC   C1A  558   6.315   8.639   7.326
   11POPC   D2A  559   6.644   8.463   7.014
   11POPC   C3A  560   6.569   8.509   6.564
   11POPC   C4A  561   6.419   8.550   6.131
   11POPC   C1B  562   6.746   8.892   7.302
   11POPC   C2B  563   6.524   8.985   6.935
   11POPC   C3B  564   6.588   9.010   6.502
   11POPC   C4B  565   6.164   8.980   6.267
   12POPC   NC3  566   5.024   1.172   8.096
   12POPC   PO4  567   5.251   1.818   8.094
   12POPC   GL1  568   4.904   1.586   7.789
   12POPC   GL2  569   4.931   1.267   7.621
   12POPC   C1A  570   4.705   1.564   7.312
   12POPC   D2A  571   4.965   1.501   6.908
   12POPC   C3A  572   4.794   1.488   6.490
   12POPC   C4A  573   4.837   1.432   6.021
   12POPC   C1B  574   4.910   1.080   7.223
   12POPC   C2B  575   4.869   1.036   6.782
   12POPC   C3B  576   5.025   1.057   6.356
   12POPC   C4B  577   4.617   0.985   6.157
   13POPC   NC3  578   0.186   9.544   7.916
   13POPC   PO4  579   9.962   9.458   8.077
   13POPC   GL1  580  10.191   9.562   7.741
   13POPC   GL2  581  10.323   9.228   7.680
   13POPC   C1A  582  10.116   9.789   7.358
   13POPC   D2A  583  10.313   9.777   6.951
   13POPC   C3A  584  10.095   9.871   6.563
   13POPC   C4A  585  10.213   9.677   6.162
   13POPC   C1B  586  10.302   9.304   7.257
   13POPC   C2B  587  10.462   9.269   6.835
   13POPC   C3B  588  10.130   9.351   6.554
   13POPC   C4B  589   9.980   9.225   6.157
   14POPC   NC3  590   1.386   5.570   8.153
   14POPC   PO4  591   0.864   5.573   8.147
   14POPC   GL1  592   1.067   5.693   7.765
   14POPC   GL2  593   1.276   5.392   7.625
   14POPC   C1A  594   1.099   5.809   7.348
   14POPC   D2A  595   1.239   5.649   6.923
   14POPC   C3A  596   1.080   5.862   6.530
   14POPC   C4A  597   1.138   5.664   6.122
   14POPC   C1B  598   0.884   5.368   7.307
   14POPC   C2B  599   0.790   5.344   6.840
   14POPC   C3B  600   0.833   5.364   6.374
   14POPC   C4B  601   0.825   5.287   5.880
   15POPC   NC3  602   8.539   3.361   8.031
   15POPC   PO4  603   8.585   3.972   7.822
   15POPC   GL1  604   8.740   3.622   7.543
   15POPC   GL2  605   8.688   3.240   7.542
   15POPC   C1A  606   8.853   3.526   7.090
   15POPC   D2A  607   8.621   3.442   6.699
   15POPC   C3A  608   8.859   3.368   6.346
   15POPC   C4A  609   8.833   3.588   5.963
   15POPC   C1B  610   8.373   3.414   7.241
   15POPC   C2B  611   8.224   3.689   6.914
   15POPC   C3B  612   8.129   3.508   6.516
   15POPC   C4B  613   8.400   3.563   6.202
   16POPC   NC3  614   0.491   2.667   8.083
   16POPC   PO4  615   0.308   2.003   8.255
   16POPC   GL1  616   0.143   2.345   7.902
   16POPC   GL2  617   0.097   2.693   7.755
   16POPC   C1A  618   0.049   2.374   7.388
   16POPC   D2A  619   0.094   2.647   6.994
   16POPC   C3A  620   0.361   2.554   6.626
   16POPC   C4A  621   0.109   2.457   6.266
   16POPC   C1B  622   0.391   2.783   7.388
   16POPC   C2B  623   0.434   3.041   6.989
   16POPC   C3B  624   0.320   3.055   6.542
   16POPC   C4B  625   0.458   2.855   6.160
   17POPC   NC3  626   8.929   7.758   8.348
   17POPC   PO4  627   8.620   8.187   7.969
   17POPC   GL1  628   8.673   7.978   7.628
   17POPC   GL2  629   8.998   7.806   7.728
   17POPC   C1A  630   8.618   8.238   7.259
   17POPC   D2A  631   8.348   8.280   6.922
   17POPC   C3A  632   8.478   8.117   6.571
   17POPC   C4A  633   8.616   8.199   6.140
   17POPC   C1B  634   9.056   7.943   7.275
   17POPC   C2B  635   8.944   8.142   6.856
   17POPC   C3B  636   8.933   7.936   6.447
   17POPC   C4B  637   8.901   7.508   6.303
   18POPC   NC3  638   2.826  10.056   8.425
   18POPC   PO4  639   3.298  10.304   7.987
   18POPC   GL1  640   3.552  10.153   7.658
   18POPC   GL2  641   3.907  10.085   7.755
   18POPC   C1A  642   3.556  10.270   7.223
   18POPC   D2A  643   3.434  10.180   6.785
   18POPC   C3A  644   3.598  10.415   6.392
   18POPC   C4A  645   3.404  10.328   5.946
   18POPC   C1B  646   3.881   9.863   7.368
   18POPC   C2B  647   3.741   9.795   6.972
   18POPC   C3B  648   3.826   9.949   6.578
   18POPC   C4B  649   3.557   9.939   6.231
   19POPC   NC3  650   9.675   8.278   8.104
   19POPC   PO4  651   9.376   7.735   8.455
   19POPC   GL1  652   9.498   7.753   7.927
   19POPC   GL2  653   9.479   8.031   7.711
   19POPC   C1A  654   9.383   7.586   7.477
   19POPC   D2A  655   9.155   7.485   7.044
   19POPC   C3A  656   9.320   7.658   6.625
   19POPC   C4A  657   9.310   7.766   6.142
   19POPC   C1B  658   9.544   8.190   7.331
   19POPC   C2B  659   9.449   8.050   6.930
   19POPC   C3B  660   9.428   8.144   6.490
   19POPC   C4B  661   9.692   8.099   6.127
   20POPC   NC3  662   8.381   9.261   8.236
   20POPC   PO4  663   8.938   8.966   8.088
   20POPC   GL1  664   8.718   9.093   7.700
   20POPC   GL2  665   8.492   9.403   7.714
   20POPC   C1A  666   8.612   9.164   7.247
   20POPC   D2A  667   8.763   9.135   6.842
   20POPC   C3A  668   8.572   9.124   6.472
   20POPC   C4A  669   8.798   9.128   6.105
   20POPC   C1B  670   8.868   9.545   7.443
   20POPC   C2B  671   8.913   9.603   6.995
   20POPC   C3B  672   8.612   9.606   6.660
   20POPC   C4B  673   8.673   9.594   6.241
   21POPC   NC3  674   9.316   4.671   8.490
   21POPC   PO4  675   9.350   4.479   7.876
   21POPC   GL1  676   9.506   4.740   7.643
   21POPC   GL2  677   9.503   5.025   7.842
   21POPC   C1A  678   9.494   4.754   7.199
   21POPC   D2A  679   9.202   4.727   6.911
   21POPC   C3A  680   9.321   4.713   6.487
   21POPC   C4A  681   8.995   4.610   6.218
   21POPC   C1B  682   9.654   5.194   7.441
   21POPC   C2B  683   9.422   5.282   7.084
   21POPC   C3B  684   9.298   5.180   6.688
   21POPC   C4B  685   9.414   5.187   6.266
   22POPC   NC3  686   0.782   0.926   8.189
   22POPC   PO4  687   1.396   0.780   8.108
   22POPC   GL1  688   1.137   0.898   7.754
   22POPC   GL2  689   1.031   1.248   7.865
   22POPC   C1A  690   1.199   1.042   7.314
   22POPC   D2A  691   1.406   1.110   6.928
   22POPC   C3A  692   1.224   0.902   6.597
   22POPC   C4A  693   1.178   1.082   6.220
   22POPC   C1B  694   1.219   1.493   7.541
   22POPC   C2B  695   1.174   1.553   7.105
   22POPC   C3B  696   1.074   1.442   6.683
   22POPC   C4B  697   1.391   1.512   6.389
   23POPC   NC3  698   6.883   8.720   8.173
   23POPC   PO4  699   7.338   9.231   8.203
   23POPC   GL1  700   7.103   9.057   7.838
   23POPC   GL2  701   7.241   8.724   7.776
   23POPC   C1A  702   7.213   9.045   7.395
   23POPC   D2A  703   7.232   8.778   7.025
   23POPC   C3A  704   7.273   8.912   6.585
   23POPC   C4A  705   7.028   8.831   6.204
   23POPC   C1B  706   7.053   8.490   7.427
   23POPC   C2B  707   7.130   8.266   7.046
   23POPC   C3B  708   7.070   8.447   6.644
   23POPC   C4B  709   6.921   8.345   6.228
   24POPC   NC3  710   0.147   6.372   8.343
   24POPC   PO4  711   9.991   6.402   8.252
   24POPC   GL1  712   9.884   6.472   7.799
   24POPC   GL2  713  10.153   6.299   7.684
   24POPC   C1A  714   9.833   6.311   7.298
   24POPC   D2A  715   9.993   6.433   6.859
   24POPC   C3A  716   9.750   6.356   6.503
   24POPC   C4A  717   9.785   6.081   6.186
   24POPC   C1B  718  10.326   6.381   7.264
   24POPC   C2B  719  10.486   6.404   6.823
   24POPC   C3B  720  10.294   6.358   6.401
   24POPC   C4B  721  10.416   6.582   6.011
   25POPC   NC3  722   5.338   0.393   8.245
   25POPC   PO4  723   4.639   0.194   8.221
   25POPC   GL1  724   4.772   0.410   7.809
   25POPC   GL2  725   4.948   0.748   7.739
   25POPC   C1A  726   4.969   0.272   7.386
   25POPC   D2A  727   5.115   0.390   6.978
   25POPC   C3A  728   4.983   0.122   6.634
   25POPC   C4A  729   5.159   0.119   6.212
   25POPC   C1B  730   4.662   0.674   7.393
   25POPC   C2B  731   4.638   0.606   6.953
   25POPC   C3B  732   4.835   0.600   6.542
   25POPC   C4B  733   4.968   0.602   6.131
   26POPC   NC3  734   5.928   1.224   8.052
   26POPC   PO4  735   5.391   0.829   8.046
   26POPC   GL1  736   5.381   1.022   7.604
   26POPC   GL2  737   5.443   1.387   7.668
   26POPC   C1A  738   5.400   1.155   7.122
   26POPC   D2A  739   5.738   1.216   6.768
   26POPC   C3A  740   5.574   1.023   6.372
   26POPC   C4A  741   5.404   0.836   6.009
   26POPC   C1B  742   5.686   1.521   7.274
   26POPC   C2B  743   5.478   1.668   6.881
   26POPC   C3B  744   5.399   1.519   6.473
   26POPC   C4B  745   5.796   1.451   6.235
   27POPC   NC3  746   9.429   5.215   8.320
   27POPC   PO4  747   9.554   5.897   8.188
   27POPC   GL1  748   9.404   5.830   7.741
   27POPC   GL2  749   9.639   6.054   7.686
   27POPC   C1A  750   9.407   5.795   7.257
   27POPC   D2A  751   9.556   6.050   6.899
   27POPC   C3A  752   9.398   5.890   6.509
   27POPC   C4A  753   9.323   5.963   6.093
   27POPC   C1B  754   9.827   5.687   7.493
   27POPC   C2B  755   9.852   5.619   7.041
   27POPC   C3B  756   9.683   5.496   6.670
   27POPC   C4B  757   9.728   5.584   6.240
   28POPC   NC3  758   5.325   9.167   7.929
   28POPC   PO4  759   5.712   9.744   8.099
   28POPC   GL1  760   5.519   9.582   7.746
   28POPC   GL2  761   5.804   9.456   7.658
   28POPC   C1A  762   5.375   9.349   7.321
   28POPC   D2A  763   5.176   9.471   6.935
   28POPC   C3A  764   5.322   9.356   6.529
   28POPC   C4A  765   5.424   9.573   6.164
   28POPC   C1B  766   5.753   9.704   7.318
   28POPC   C2B  767   5.593   9.798   6.936
   28POPC   C3B  768   5.751   9.620   6.568
   28POPC   C4B  769   5.946   9.455   6.217
   29POPC   NC3  770   9.641   2.516   8.067
   29POPC   PO4  771   9.713   3.186   8.170
   29POPC   GL1  772   9.638   2.937   7.785
   29POPC   GL2  773   9.283   2.776   7.751
   29POPC   C1A  774   9.629   2.708   7.381
   29POPC   D2A  775   9.281   2.783   7.069
   29POPC   C3A  776   9.413   2.854   6.648
   29POPC   C4A  777   9.635   2.624   6.334
   29POPC   C1B  778   9.197   2.430   7.439
   29POPC   C2B  779   9.104   2.301   7.030
   29POPC   C3B  780   9.286   2.350   6.641
   29POPC   C4B  781   9.177   2.397   6.223
   30POPC   NC3  782   2.659   3.435   8.526
   30POPC   PO4  783   2.295   3.230   8.139
   30POPC   GL1  784   2.327   3.447   7.764
   30POPC   GL2  785   2.333   3.142   7.597
   30POPC   C1A  786   2.564   3.528   7.358
   30POPC   D2A  787   2.706   3.324   6.975
   30POPC   C3A  788   2.570   3.460   6.555
   30POPC   C4A  789   2.428   3.493   6.129
   30POPC   C1B  790   2.791   3.066   7.468
   30POPC   C2B  791   2.941   2.886   7.068
   30POPC   C3B  792   2.968   3.019   6.628
   30POPC   C4B  793   3.144   3.238   6.269
   31POPC   NC3  794   4.659  10.173   8.381
   31POPC   PO4  795   4.169   9.834   8.134
   31POPC   GL1  796   4.436   9.950   7.815
   31POPC   GL2  797   4.398  10.271   7.704
   31POPC   C1A  798   4.412   9.876   7.361
   31POPC   D2A  799   4.222   9.984   6.956
   31POPC   C3A  800   4.318   9.819   6.559
   31POPC   C4A  801   4.459   9.964   6.166
   31POPC   C1B  802   4.122  10.317   7.331
   31POPC   C2B  803   3.928  10.386   6.906
   31POPC   C3B  804   4.177  10.316   6.542
   31POPC   C4B  805   4.208   0.034   6.193
   32POPC   NC3  806   2.805   5.296   8.609
   32POPC   PO4  807   2.355   5.213   8.157
   32POPC   GL1  808   2.364   5.385   7.682
   32POPC   GL2  809   2.423   5.752   7.623
   32POPC   C1A  810   2.563   5.448   7.228
   32POPC   D2A  811   2.650   5.600   6.785
   32POPC   C3A  812   2.851   5.396   6.391
   32POPC   C4A  813   3.088   5.506   5.984
   32POPC   C1B  814   2.401   5.946   7.166
   32POPC   C2B  815   2.256   5.927   6.717
   32POPC   C3B  816   2.437   5.721   6.335
   32POPC   C4B  817   2.376   5.878   5.902
   33POPC   NC3  818   5.671  10.199   8.165
   33POPC   PO4  819   6.367  10.125   7.997
   33POPC   GL1  820   5.995  10.043   7.680
   33POPC   GL2  821   5.612  10.093   7.687
   33POPC   C1A  822   5.845  10.185   7.263
   33POPC   D2A  823   5.986  10.359   6.909
   33POPC   C3A  824   5.855  10.118   6.582
   33POPC   C4A  825   5.995  10.148   6.161
   33POPC   C1B  826   5.329  10.325   7.380
   33POPC   C2B  827   5.457  10.313   6.953
   33POPC   C3B  828   5.391  10.328   6.541
   33POPC   C4B  829   5.498  10.177   6.140
   34POPC   NC3  830   6.178   9.684   8.007
   34POPC   PO4  831   6.564   9.095   8.150
   34POPC   GL1  832   6.409   9.245   7.731
   34POPC   GL2  833   6.725   9.339   7.553
   34POPC   C1A  834   6.220   9.546   7.391
   34POPC   D2A  835   6.116   9.658   6.950
   34POPC   C3A  836   6.190   9.331   6.643
   34POPC   C4A  837   6.454   9.407   6.241
   34POPC   C1B  838   6.642   9.604   7.165
   34POPC   C2B  839   6.615   9.553   6.757
   34POPC   C3B  840   6.761   9.754   6.444
   34POPC   C4B  841   6.954   9.838   6.093
   35POPC   NC3  842   0.589   1.769   7.935
   35POPC   PO4  843  10.485   1.366   7.934
   35POPC   GL1  844   0.171   1.605   7.642
   35POPC   GL2  845   0.215   1.931   7.642
   35POPC   C1A  846   0.351   1.552   7.279
   35POPC   D2A  847   0.415   1.694   6.914
   35POPC   C3A  848   0.540   1.535   6.583
   35POPC   C4A  849   0.405   1.689   6.209
   35POPC   C1B  850   0.439   2.050   7.323
   35POPC   C2B  851   0.286   2.173   6.957
   35POPC   C3B  852   0.281   2.050   6.548
   35POPC   C4B  853   0.566   2.175   6.208
   36POPC   NC3  854   3.427   0.952   8.192
   36POPC   PO4  855   3.258   1.512   7.871
   36POPC   GL1  856   3.449   1.214   7.645
   36POPC   GL2  857   3.482   0.857   7.669
   36POPC   C1A  858   3.227   1.063   7.292
   36POPC   D2A  859   2.974   1.048   6.957
   36POPC   C3A  860   3.245   1.205   6.618
   36POPC   C4A  861   3.136   1.327   6.204
   36POPC   C1B  862   3.743   0.950   7.297
   36POPC   C2B  863   3.857   1.234   7.012
   36POPC   C3B  864   3.836   1.110   6.628
   36POPC   C4B  865   3.636   1.211   6.257
   37POPC   NC3  866   9.754   4.378   8.091
   37POPC   PO4  867  10.453   4.437   8.038
   37POPC   GL1  868  10.298   4.462   7.686
   37POPC   GL2  869   9.999   4.244   7.663
   37POPC   C1A  870  10.361   4.440   7.307
   37POPC   D2A  871  10.088   4.461   6.997
   37POPC   C3A  872  10.350   4.490   6.666
   37POPC   C4A  873  10.224   4.619   6.256
   37POPC   C1B  874  10.138   3.977   7.322
   37POPC   C2B  875  10.107   3.952   6.915
   37POPC   C3B  876   9.985   4.181   6.576
   37POPC   C4B  877  10.119   4.123   6.156
   38POPC   NC3  878   7.687   0.048   7.954
   38POPC   PO4  879   7.693   0.744   8.010
   38POPC   GL1  880   7.959   0.509   7.724
   38POPC   GL2  881   7.976   0.163   7.575
   38POPC   C1A  882   7.897   0.586   7.296
   38POPC   D2A  883   7.849   0.851   6.970
   38POPC   C3A  884   7.779   0.669   6.598
   38POPC   C4A  885   7.990   0.758   6.252
   38POPC   C1B  886   7.990   0.104   7.154
   38POPC   C2B  887   7.706   0.224   6.852
   38POPC   C3B  888   7.921   0.185   6.482
   38POPC   C4B  889   7.920   0.291   6.052
   39POPC   NC3  890   8.038   1.951   8.083
   39POPC   PO4  891   7.468   1.586   8.209
   39POPC   GL1  892   7.525   1.651   7.739
   39POPC   GL2  893   7.864   1.696   7.679
   39POPC   C1A  894   7.596   1.654   7.257
   39POPC   D2A  895   7.897   1.723   6.941
   39POPC   C3A  896   7.631   1.785   6.610
   39POPC   C4A  897   7.553   1.773   6.203
   39POPC   C1B  898   7.959   2.012   7.388
   39POPC   C2B  899   8.208   2.124   6.994
   39POPC   C3B  900   8.028   2.087   6.571
   39POPC   C4B  901   7.840   2.206   6.197
   40POPC   NC3  902  10.319   7.846   7.980
   40POPC   PO4  903   9.883   7.368   8.017
   40POPC   GL1  904   9.905   7.599   7.625
   40POPC   GL2  905   9.968   7.946   7.620
   40POPC   C1A  906   9.789   7.708   7.185
   40POPC   D2A  907   9.968   7.957   6.846
   40POPC   C3A  908  10.032   7.822   6.409
   40POPC   C4A  909  10.407   7.787   6.106
   40POPC   C1B  910  10.293   7.815   7.301
   40POPC   C2B  911  10.489   7.882   6.878
   40POPC   C3B  912  10.396   8.171   6.536
   40POPC   C4B  913  10.197   8.257   6.132
   41POPC   NC3  914   2.154   4.771   8.061
   41POPC   PO4  915   1.650   5.234   8.035
   41POPC   GL1  916   1.857   5.270   7.628
   41POPC   GL2  917   1.836   4.927   7.568
   41POPC   C1A  918   2.196   5.100   7.275
   41POPC   D2A  919   2.176   4.968   6.809
   41POPC   C3A  920   2.376   5.165   6.420
   41POPC   C4A  921   2.269   4.956   6.011
   41POPC   C1B  922   1.731   5.207   7.139
   41POPC   C2B  923   1.684   5.154   6.688
   41POPC   C3B  924   1.903   4.905   6.356
   41POPC   C4B  925   1.760   4.642   5.969
   42POPC   NC3  926   7.652   8.666   8.215
   42POPC   PO4  927   8.236   8.368   8.346
   42POPC   GL1  928   8.102   8.517   7.858
   42POPC   GL2  929   7.765   8.630   7.715
   42POPC   C1A  930   8.078   8.406   7.362
   42POPC   D2A  931   7.876   8.485   6.936
   42POPC   C3A  932   7.955   8.265   6.546
   42POPC   C4A  933   8.145   8.391   6.156
   42POPC   C1B  934   7.693   8.829   7.295
   42POPC   C2B  935   7.851   8.979   6.870
   42POPC   C3B  936   7.765   8.837   6.452
   42POPC   C4B  937   7.521   8.965   6.078
   43POPC   NC3  938   1.055   5.991   8.219
   43POPC   PO4  939   1.185   6.625   8.068
   43POPC   GL1  940   1.272   6.252   7.807
   43POPC   GL2  941   0.957   6.197   7.676
   43POPC   C1A  942   1.421   6.167   7.396
   43POPC   D2A  943   1.223   6.169   6.997
   43POPC   C3A  944   1.458   6.258   6.637
   43POPC   C4A  945   1.499   6.125   6.221
   43POPC   C1B  946   1.119   6.577   7.413
   43POPC   C2B  947   1.163   6.845   7.052
   43POPC   C3B  948   1.244   6.931   6.603
   43POPC   C4B  949   1.201   6.594   6.293
   44POPC   NC3  950   1.422   3.187   8.380
   44POPC   PO4  951   0.854   2.966   8.036
   44POPC   GL1  952   1.116   3.165   7.707
   44POPC   GL2  953   1.234   3.518   7.778
   44POPC   C1A  954   1.160   3.338   7.283
   44POPC   D2A  955   1.160   3.596   6.921
   44POPC   C3A  956   1.254   3.322   6.628
   44POPC   C4A  957   1.045   3.273   6.268
   44POPC   C1B  958   1.429   3.757   7.400
   44POPC   C2B  959   1.658   3.590   7.039
   44POPC   C3B  960   1.598   3.704   6.620
   44POPC   C4B  961   1.403   3.619   6.231
   45POPC   NC3  962   1.183   9.547   7.976
   45POPC   PO4  963   0.753   8.969   8.163
   45POPC   GL1  964   0.854   9.157   7.736
   45POPC   GL2  965   0.992   9.464   7.530
   45POPC   C1A  966   0.784   9.107   7.278
   45POPC   D2A  967   1.039   9.379   6.996
   45POPC   C3A  968   0.882   9.459   6.610
   45POPC   C4A  969   0.876   9.172   6.266
   45POPC   C1B  970   1.341   9.600   7.355
   45POPC   C2B  971   1.467   9.717   6.961
   45POPC   C3B  972   1.414   9.525   6.597
   45POPC   C4B  973   1.235   9.499   6.227
   46POPC   NC3  974   8.860   2.476   8.391
   46POPC   PO4  975   8.446   2.970   8.268
   46POPC   GL1  976   8.486   2.801   7.793
   46POPC   GL2  977   8.744   2.513   7.776
   46POPC   C1A  978   8.343   2.885   7.328
   46POPC   D2A  979   8.561   3.001   6.957
   46POPC   C3A  980   8.381   2.989   6.540
   46POPC   C4A  981   8.576   2.991   6.144
   46POPC   C1B  982   8.771   2.645   7.312
   46POPC   C2B  983   8.631   2.474   6.905
   46POPC   C3B  984   8.741   2.602   6.486
   46POPC   C4B  985   9.046   2.880   6.297
   47POPC   NC3  986   0.462   8.600   8.094
   47POPC   PO4  987   0.065   9.139   8.119
   47POPC   GL1  988   0.144   8.804   7.754
   47POPC   GL2  989   0.526   8.743   7.592
   47POPC   C1A  990   0.096   8.533   7.391
   47POPC   D2A  991   0.127   8.407   6.968
   47POPC   C3A  992   0.274   8.686   6.642
   47POPC   C4A  993   0.127   8.533   6.221
   47POPC   C1B  994   0.591   8.659   7.118
   47POPC   C2B  995   0.805   8.436   6.779
   47POPC   C3B  996   0.862   8.690   6.432
   47POPC   C4B  997   0.495   8.859   6.187
   48POPC   NC3  998   2.786   0.534   8.223
   48POPC   PO4  999   2.623  10.391   8.148
   48POPC   GL1 1000   2.568   0.238   7.806
   48POPC   GL2 1001   2.628   0.620   7.706
   48POPC   C1A 1002   2.584   0.260   7.349
   48POPC   D2A 1003   2.550   0.499   6.969
   48POPC   C3A 1004   2.722   0.332   6.580
   48POPC   C4A 1005   2.547   0.385   6.183
   48POPC   C1B 1006   2.914   0.647   7.309
   48POPC   C2B 1007   3.054   0.554   6.895
   48POPC   C3B 1008   3.042   0.753   6.543
   48POPC   C4B 1009   2.924   0.710   6.173
   49POPC   NC3 1010   9.779   0.377   8.335
   49POPC   PO4 1011   9.733   0.830   7.875
   49POPC   GL1 1012   9.588   0.492   7.641
   49POPC   GL2 1013   9.234   0.496   7.662
   49POPC   C1A 1014   9.480   0.327   7.213
   49POPC   D2A 1015   9.129   0.165   6.927
   49POPC   C3A 1016   9.320   0.234   6.515
   49POPC   C4A 1017   9.665   0.187   6.198
   49POPC   C1B 1018   9.312   0.785   7.317
   49POPC   C2B 1019   9.220   0.671   6.910
   49POPC   C3B 1020   9.308   0.793   6.522
   49POPC   C4B 1021   9.447   0.638   6.211
   50POPC   NC3 1022   3.917   1.100   7.867
   50POPC   PO4 1023   4.543   1.189   8.190
   50POPC   GL1 1024   4.507   1.021   7.795
   50POPC   GL2 1025   4.304   0.740   7.772
   50POPC   C1A 1026   4.413   1.107   7.362
   50POPC   D2A 1027   4.406   1.331   6.971
   50POPC   C3A 1028   4.378   1.200   6.571
   50POPC   C4A 1029   4.352   1.452   6.185
   50POPC   C1B 1030   4.150   0.654   7.366
   50POPC   C2B 1031   4.187   0.845   6.978
   50POPC   C3B 1032   4.210   0.714   6.583
   50POPC   C4B 1033   4.096   0.942   6.229
   51POPC   NC3 1034   3.170   2.733   8.031
   51POPC   PO4 1035   3.742   2.777   8.109
   51POPC   GL1 1036   3.644   2.748   7.661
   51POPC   GL2 1037   3.406   2.460   7.646
   51POPC   C1A 1038   3.640   2.936   7.205
   51POPC   D2A 1039   3.445   2.966   6.777
   51POPC   C3A 1040   3.632   3.020   6.353
   51POPC   C4A 1041   3.517   3.145   5.908
   51POPC   C1B 1042   3.285   2.524   7.206
   51POPC   C2B 1043   3.146   2.531   6.775
   51POPC   C3B 1044   3.322   2.619   6.394
   51POPC   C4B 1045   3.220   2.333   6.060
   52POPC   NC3 1046   2.524   1.131   8.020
   52POPC   PO4 1047   2.870   1.621   8.405
   52POPC   GL1 1048   2.751   1.560   7.865
   52POPC   GL2 1049   2.893   1.212   7.680
   52POPC   C1A 1050   2.662   1.555   7.343
   52POPC   D2A 1051   2.873   1.532   6.880
   52POPC   C3A 1052   2.737   1.226   6.519
   52POPC   C4A 1053   2.577   1.353   6.097
   52POPC   C1B 1054   2.603   1.035   7.349
   52POPC   C2B 1055   2.411   1.004   6.918
   52POPC   C3B 1056   2.487   0.784   6.531
   52POPC   C4B 1057   2.444   0.871   6.104
   53POPC   NC3 1058   3.458   7.955   8.109
   53POPC   PO4 1059   3.912   8.472   8.012
   53POPC   GL1 1060   3.672   8.352   7.624
   53POPC   GL2 1061   3.364   8.146   7.660
   53POPC   C1A 1062   3.532   8.245   7.185
   53POPC   D2A 1063   3.419   8.317   6.774
   53POPC   C3A 1064   3.478   8.047   6.407
   53POPC   C4A 1065   3.283   8.066   6.000
   53POPC   C1B 1066   3.266   7.838   7.342
   53POPC   C2B 1067   3.336   7.815   6.882
   53POPC   C3B 1068   3.170   7.630   6.486
   53POPC   C4B 1069   3.142   7.586   6.042
   54POPC   NC3 1070   3.619   8.829   7.909
   54POPC   PO4 1071   3.046   8.999   7.991
   54POPC   GL1 1072   3.059   8.927   7.580
   54POPC   GL2 1073   3.235   8.635   7.606
   54POPC   C1A 1074   2.983   8.697   7.184
   54POPC   D2A 1075   3.237   8.782   6.862
   54POPC   C3A 1076   3.202   8.663   6.475
   54POPC   C4A 1077   3.209   8.933   6.147
   54POPC   C1B 1078   3.563   8.746   7.256
   54POPC   C2B 1079   3.785   8.679   6.830
   54POPC   C3B 1080   3.701   8.506   6.401
   54POPC   C4B 1081   3.513   8.544   5.958
   55POPC   NC3 1082   1.371   4.152   8.122
   55POPC   PO4 1083   0.939   4.568   8.143
   55POPC   GL1 1084   0.958   4.334   7.755
   55POPC   GL2 1085   1.054   4.000   7.741
   55POPC   C1A 1086   1.181   4.397   7.351
   55POPC   D2A 1087   1.242   4.596   6.928
   55POPC   C3A 1088   1.021   4.521   6.552
   55POPC   C4A 1089   1.096   4.422   6.131
   55POPC   C1B 1090   0.977   3.933   7.291
   55POPC   C2B 1091   1.320   4.078   6.956
   55POPC   C3B 1092   1.240   4.052   6.501
   55POPC   C4B 1093   0.914   3.752   6.383
   56POPC   NC3 1094   9.044   8.521   8.091
   56POPC   PO4 1095   9.624   8.807   8.066
   56POPC   GL1 1096   9.464   8.602   7.708
   56POPC   GL2 1097   9.202   8.823   7.670
   56POPC   C1A 1098   9.508   8.710   7.249
   56POPC   D2A 1099   9.285   8.537   6.850
   56POPC   C3A 1100   9.485   8.649   6.513
   56POPC   C4A 1101   9.471   8.558   6.087
   56POPC   C1B 1102   9.135   9.088   7.319
   56POPC   C2B 1103   9.247   9.033   6.894
   56POPC   C3B 1104   9.091   8.955   6.479
   56POPC   C4B 1105   9.297   9.028   6.075
   57POPC   NC3 1106   1.078   7.860   8.142
   57POPC   PO4 1107   1.406   8.314   7.825
   57POPC   GL1 1108   1.242   7.957   7.652
   57POPC   GL2 1109   0.865   7.924   7.685
   57POPC   C1A 1110   1.392   7.994   7.241
   57POPC   D2A 1111   1.538   7.748   6.938
   57POPC   C3A 1112   1.344   7.852   6.565
   57POPC   C4A 1113   1.529   7.856   6.205
   57POPC   C1B 1114   0.844   7.764   7.286
   57POPC   C2B 1115   0.981   7.918   6.920
   57POPC   C3B 1116   0.802   7.893   6.531
   57POPC   C4B 1117   0.973   7.957   6.171
   58POPC   NC3 1118   2.074   7.318   8.021
   58POPC   PO4 1119   1.448   7.589   8.027
   58POPC   GL1 1120   1.605   7.299   7.684
   58POPC   GL2 1121   1.918   7.291   7.548
   58POPC   C1A 1122   1.555   7.092   7.280
   58POPC   D2A 1123   1.778   7.285   6.924
   58POPC   C3A 1124   1.619   7.273   6.494
   58POPC   C4A 1125   1.676   6.869   6.253
   58POPC   C1B 1126   2.321   7.348   7.380
   58POPC   C2B 1127   2.393   7.458   6.961
   58POPC   C3B 1128   2.133   7.508   6.614
   58POPC   C4B 1129   2.077   7.230   6.241
   59POPC   NC3 1130   6.915   9.412   8.160
   59POPC   PO4 1131   7.340   9.897   8.049
   59POPC   GL1 1132   7.146   9.635   7.748
   59POPC   GL2 1133   7.426   9.423   7.702
   59POPC   C1A 1134   7.119   9.542   7.300
   59POPC   D2A 1135   6.958   9.246   6.993
   59POPC   C3A 1136   7.068   9.373   6.597
   59POPC   C4A 1137   6.975   9.328   6.183
   59POPC   C1B 1138   7.624   9.339   7.330
   59POPC   C2B 1139   7.453   9.257   6.966
   59POPC   C3B 1140   7.582   9.335   6.581
   59POPC   C4B 1141   7.472   9.450   6.216
   60POPC   NC3 1142   0.528   7.562   7.879
   60POPC   PO4 1143   0.643   8.179   8.085
   60POPC   GL1 1144   0.429   8.238   7.710
   60POPC   GL2 1145   0.217   7.950   7.644
   60POPC   C1A 1146   0.562   8.199   7.303
   60POPC   D2A 1147   0.484   8.050   6.911
   60POPC   C3A 1148   0.402   8.213   6.530
   60POPC   C4A 1149   0.614   8.334   6.191
   60POPC   C1B 1150   0.318   7.714   7.263
   60POPC   C2B 1151   0.480   7.564   6.850
   60POPC   C3B 1152   0.279   7.721   6.470
   60POPC   C4B 1153   0.450   7.882   6.078
   61POPC   NC3 1154   2.664   1.970   8.198
   61POPC   PO4 1155   2.057   2.192   8.286
   61POPC   GL1 1156   2.313   2.179   7.808
   61POPC   GL2 1157   2.657   2.091   7.709
   61POPC   C1A 1158   2.386   2.056   7.295
   61POPC   D2A 1159   2.577   1.934   6.849
   61POPC   C3A 1160   2.464   2.177   6.424
   61POPC   C4A 1161   2.333   2.181   5.938
   61POPC   C1B 1162   2.967   1.970   7.401
   61POPC   C2B 1163   3.102   2.060   6.975
   61POPC   C3B 1164   2.983   2.078   6.546
   61POPC   C4B 1165   2.759   1.724   6.384
   62POPC   NC3 1166   4.158   2.590   8.095
   62POPC   PO4 1167   4.573   3.079   7.928
   62POPC   GL1 1168   4.330   2.791   7.597
   62POPC   GL2 1169   4.125   2.467   7.598
   62POPC   C1A 1170   4.183   2.740   7.138
   62POPC   D2A 1171   3.970   2.954   6.785
   62POPC   C3A 1172   4.152   2.992   6.368
   62POPC   C4A 1173   3.991   2.950   5.955
   62POPC   C1B 1174   3.783   2.454   7.275
   62POPC   C2B 1175   3.678   2.526   6.837
   62POPC   C3B 1176   3.878   2.559   6.423
   62POPC   C4B 1177   4.323   2.492   6.291
   63POPC   NC3 1178   2.802   8.618   8.017
   63POPC   PO4 1179   2.305   9.109   8.106
   63POPC   GL1 1180   2.566   8.997   7.747
   63POPC   GL2 1181   2.622   8.647   7.561
   63POPC   C1A 1182   2.638   9.072   7.320
   63POPC   D2A 1183   2.547   8.845   6.978
   63POPC   C3A 1184   2.746   8.869   6.607
   63POPC   C4A 1185   2.598   8.900   6.211
   63POPC   C1B 1186   2.482   8.380   7.219
   63POPC   C2B 1187   2.606   8.372   6.788
   63POPC   C3B 1188   2.668   8.422   6.369
   63POPC   C4B 1189   2.992   8.471   6.069
   64POPC   NC3 1190   5.770   0.519   7.966
   64POPC   PO4 1191   5.285  10.460   8.053
   64POPC   GL1 1192   5.537   0.127   7.736
   64POPC   GL2 1193   5.374   0.453   7.648
   64POPC   C1A 1194   5.698   0.171   7.291
   64POPC   D2A 1195   5.617   0.277   6.843
   64POPC   C3A 1196   5.801   0.116   6.459
   64POPC   C4A 1197   5.678   0.139   6.004
   64POPC   C1B 1198   5.532   0.658   7.247
   64POPC   C2B 1199   5.428   0.758   6.802
   64POPC   C3B 1200   5.418   0.520   6.422
   64POPC   C4B 1201   5.813   0.582   6.214
   65POPC   NC3 1202   8.951   4.247   7.821
   65POPC   PO4 1203   9.453   4.094   8.302
   65POPC   GL1 1204   9.528   4.023   7.799
   65POPC   GL2 1205   9.666   3.776   7.640
   65POPC   C1A 1206   9.585   4.211   7.332
   65POPC   D2A 1207   9.557   4.336   6.865
   65POPC   C3A 1208   9.152   4.253   6.618
   65POPC   C4A 1209   9.210   4.122   6.207
   65POPC   C1B 1210   9.704   3.738   7.183
   65POPC   C2B 1211   9.643   3.817   6.750
   65POPC   C3B 1212   9.652   3.918   6.328
   65POPC   C4B 1213   9.646   4.387   6.261
   66POPC   NC3 1214   1.440  10.206   8.238
   66POPC   PO4 1215   0.897   0.034   8.180
   66POPC   GL1 1216   1.176  10.402   7.814
   66POPC   GL2 1217   1.212  10.043   7.780
   66POPC   C1A 1218   1.383  10.452   7.402
   66POPC   D2A 1219   1.379  10.212   6.986
   66POPC   C3A 1220   1.422  10.393   6.607
   66POPC   C4A 1221   1.374  10.324   6.183
   66POPC   C1B 1222   1.086  10.031   7.356
   66POPC   C2B 1223   0.974   9.902   6.903
   66POPC   C3B 1224   1.117   9.951   6.459
   66POPC   C4B 1225   1.129   9.925   5.983
   67POPC   NC3 1226  10.371   1.297   8.373
   67POPC   PO4 1227   0.590   1.369   8.176
   67POPC   GL1 1228   0.440   1.202   7.803
   67POPC   GL2 1229   0.617   0.990   7.731
   67POPC   C1A 1230   0.274   1.057   7.357
   67POPC   D2A 1231   0.074   1.244   6.977
   67POPC   C3A 1232   0.239   1.121   6.589
   67POPC   C4A 1233   0.220   0.989   6.152
   67POPC   C1B 1234   0.757   1.270   7.412
   67POPC   C2B 1235   0.685   1.222   6.982
   67POPC   C3B 1236   0.744   1.055   6.568
   67POPC   C4B 1237   0.731   1.294   6.188
   68POPC   NC3 1238   8.779   6.621   7.893
   68POPC   PO4 1239   8.768   6.023   7.666
   68POPC   GL1 1240   8.829   6.257   7.379
   68POPC   GL2 1241   8.967   6.623   7.424
   68POPC   C1A 1242   8.763   6.042   6.989
   68POPC   D2A 1243   8.508   6.064   6.664
   68POPC   C3A 1244   8.804   6.035   6.353
   68POPC   C4A 1245   8.910   6.183   5.962
   68POPC   C1B 1246   8.657   6.598   7.074
   68POPC   C2B 1247   8.700   6.551   6.642
   68POPC   C3B 1248   8.522   6.560   6.253
   68POPC   C4B 1249   8.418   6.858   5.913
   69POPC   NC3 1250   7.677   9.561   8.111
   69POPC   PO4 1251   8.030   8.973   8.153
   69POPC   GL1 1252   7.912   9.134   7.735
   69POPC   GL2 1253   7.962   9.484   7.701
   69POPC   C1A 1254   8.098   9.147   7.303
   69POPC   D2A 1255   8.272   9.277   6.882
   69POPC   C3A 1256   8.075   9.266   6.467
   69POPC   C4A 1257   8.277   9.337   6.068
   69POPC   C1B 1258   8.048   9.662   7.324
   69POPC   C2B 1259   7.878   9.587   6.929
   69POPC   C3B 1260   7.803   9.819   6.553
   69POPC   C4B 1261   7.924   9.700   6.155
   70POPC   NC3 1262   1.224   4.929   8.174
   70POPC   PO4 1263   1.728   4.435   8.167
   70POPC   GL1 1264   1.439   4.614   7.768
   70POPC   GL2 1265   1.119   4.815   7.709
   70POPC   C1A 1266   1.414   4.860   7.327
   70POPC   D2A 1267   1.233   5.134   7.027
   70POPC   C3A 1268   1.180   5.028   6.612
   70POPC   C4A 1269   1.410   4.788   6.313
   70POPC   C1B 1270   0.894   4.847   7.339
   70POPC   C2B 1271   0.775   4.803   6.950
   70POPC   C3B 1272   0.686   4.903   6.554
   70POPC   C4B 1273   0.919   4.893   6.179
   71POPC   NC3 1274  10.430   1.838   8.044
   71POPC   PO4 1275   9.902   2.212   8.291
   71POPC   GL1 1276   9.912   2.157   7.802
   71POPC   GL2 1277  10.224   2.149   7.709
   71POPC   C1A 1278   9.954   2.261   7.310
   71POPC   D2A 1279  10.262   2.254   6.967
   71POPC   C3A 1280  10.268   2.055   6.567
   71POPC   C4A 1281  10.456   1.948   6.171
   71POPC   C1B 1282  10.300   1.888   7.352
   71POPC   C2B 1283  10.401   1.744   6.962
   71POPC   C3B 1284   0.017   1.596   6.572
   71POPC   C4B 1285  10.464   1.439   6.180
   72POPC   NC3 1286   7.334   1.346   8.578
   72POPC   PO4 1287   7.130   0.920   8.133
   72POPC   GL1 1288   7.179   0.935   7.680
   72POPC   GL2 1289   6.916   1.207   7.729
   72POPC   C1A 1290   6.957   0.960   7.268
   72POPC   D2A 1291   6.718   1.079   6.908
   72POPC   C3A 1292   6.925   1.097   6.531
   72POPC   C4A 1293   6.996   0.946   6.125
   72POPC   C1B 1294   7.171   1.413   7.450
   72POPC   C2B 1295   7.177   1.390   7.032
   72POPC   C3B 1296   7.236   1.470   6.611
   72POPC   C4B 1297   7.258   1.366   6.178
   73POPC   NC3 1298  10.434   4.005   7.887
   73POPC   PO4 1299   0.567   3.886   8.048
   73POPC   GL1 1300   0.538   4.022   7.651
   73POPC   GL2 1301   0.310   4.298   7.633
   73POPC   C1A 1302   0.400   3.940   7.226
   73POPC   D2A 1303   0.076   4.124   6.978
   73POPC   C3A 1304  10.492   4.017   6.552
   73POPC   C4A 1305   0.108   4.286   6.236
   73POPC   C1B 1306   0.675   4.373   7.320
   73POPC   C2B 1307   0.803   4.236   6.918
   73POPC   C3B 1308   0.616   4.182   6.516
   73POPC   C4B 1309   0.591   4.490   6.213
   74POPC   NC3 1310   1.609   6.440   8.137
   74POPC   PO4 1311   1.825   6.940   8.010
   74POPC   GL1 1312   1.591   6.695   7.682
   74POPC   GL2 1313   1.783   6.344   7.676
   74POPC   C1A 1314   1.623   6.590   7.225
   74POPC   D2A 1315   1.646   6.732   6.803
   74POPC   C3A 1316   2.022   6.884   6.630
   74POPC   C4A 1317   2.309   6.739   6.303
   74POPC   C1B 1318   1.925   6.150   7.283
   74POPC   C2B 1319   1.991   6.354   6.896
   74POPC   C3B 1320   1.963   6.331   6.470
   74POPC   C4B 1321   1.985   5.952   6.237
   75POPC   NC3 1322   9.993   0.251   7.866
   75POPC   PO4 1323  10.251   0.827   8.225
   75POPC   GL1 1324  10.194   0.701   7.728
   75POPC   GL2 1325  10.381   0.523   7.591
   75POPC   C1A 1326   9.969   0.591   7.295
   75POPC   D2A 1327   9.956   0.286   6.960
   75POPC   C3A 1328   9.776   0.479   6.604
   75POPC   C4A 1329   9.950   0.597   6.189
   75POPC   C1B 1330   0.032   0.595   7.201
   75POPC   C2B 1331   0.031   0.515   6.799
   75POPC   C3B 1332  10.417   0.636   6.413
   75POPC   C4B 1333  10.361   0.266   6.176
   76POPC   NC3 1334   6.448   7.963   8.269
   76POPC   PO4 1335   6.852   7.580   8.060
   76POPC   GL1 1336   6.542   7.852   7.779
   76POPC   GL2 1337   6.191   8.036   7.830
   76POPC   C1A 1338   6.481   8.189   7.454
   76POPC   D2A 1339   6.191   8.186   7.093
   76POPC   C3A 1340   6.323   8.084   6.686
   76POPC   C4A 1341   6.491   8.064   6.262
   76POPC   C1B 1342   6.184   7.771   7.413
   76POPC   C2B 1343   6.287   7.645   6.972
   76POPC   C3B 1344   6.301   7.618   6.499
   76POPC   C4B 1345   6.020   7.878   6.217
   77POPC   NC3 1346   1.870   8.964   8.125
   77POPC   PO4 1347   1.585   8.432   8.305
   77POPC   GL1 1348   1.842   8.543   7.838
   77POPC   GL2 1349   2.211   8.634   7.897
   77POPC   C1A 1350   1.681   8.626   7.342
   77POPC   D2A 1351   1.623   8.838   6.911
   77POPC   C3A 1352   1.711   8.657   6.483
   77POPC   C4A 1353   1.764   8.716   6.018
   77POPC   C1B 1354   2.159   8.780   7.446
   77POPC   C2B 1355   2.088   8.620   7.012
   77POPC   C3B 1356   2.231   8.663   6.600
   77POPC   C4B 1357   2.210   8.565   6.206
   78POPC   NC3 1358   1.978   9.947   8.275
   78POPC   PO4 1359   1.652   0.085   8.067
   78POPC   GL1 1360   1.719  10.226   7.777
   78POPC   GL2 1361   1.985  10.323   7.548
   78POPC   C1A 1362   1.657  10.010   7.359
   78POPC   D2A 1363   1.893  10.117   6.958
   78POPC   C3A 1364   1.691   9.972   6.575
   78POPC   C4A 1365   1.611   9.820   6.168
   78POPC   C1B 1366   2.167   0.030   7.191
   78POPC   C2B 1367   2.309   0.063   6.774
   78POPC   C3B 1368   2.150  10.315   6.448
   78POPC   C4B 1369   2.112   9.909   6.308
   79POPC   NC3 1370   0.505   7.162   8.385
   79POPC   PO4 1371   0.070   7.448   7.917
   79POPC   GL1 1372   0.281   7.127   7.699
   79POPC   GL2 1373   0.630   7.023   7.764
   79POPC   C1A 1374   0.364   7.208   7.275
   79POPC   D2A 1375   0.130   7.206   6.926
   79POPC   C3A 1376   0.330   7.190   6.521
   79POPC   C4A 1377   0.655   7.436   6.297
   79POPC   C1B 1378   0.638   6.783   7.337
   79POPC   C2B 1379   0.390   6.723   6.926
   79POPC   C3B 1380   0.317   6.636   6.491
   79POPC   C4B 1381   0.462   6.857   6.149
   80POPC   NC3 1382   1.851   0.820   8.109
   80POPC   PO4 1383   2.147   1.425   7.969
   80POPC   GL1 1384   2.062   1.073   7.683
   80POPC   GL2 1385   1.677   0.991   7.636
   80POPC   C1A 1386   2.159   1.269   7.293
   80POPC   D2A 1387   2.185   1.634   7.052
   80POPC   C3A 1388   2.343   1.506   6.673
   80POPC   C4A 1389   2.185   1.198   6.387
   80POPC   C1B 1390   1.804   0.928   7.197
   80POPC   C2B 1391   1.910   1.204   6.836
   80POPC   C3B 1392   1.689   1.111   6.446
   80POPC   C4B 1393   1.561   0.729   6.250
   81POPC   NC3 1394   2.899  10.090   7.914
   81POPC   PO4 1395   2.223  10.026   7.888
   81POPC   GL1 1396   2.499  10.248   7.583
   81POPC   GL2 1397   2.855  10.377   7.527
   81POPC   C1A 1398   2.536  10.199   7.120
   81POPC   D2A 1399   2.378   9.943   6.771
   81POPC   C3A 1400   2.612  10.009   6.399
   81POPC   C4A 1401   2.652  10.417   6.283
   81POPC   C1B 1402   3.041  10.168   7.155
   81POPC   C2B 1403   2.969  10.394   6.742
   81POPC   C3B 1404   3.113  10.205   6.365
   81POPC   C4B 1405   3.067   9.754   6.347
   82POPC   NC3 1406   8.369  10.250   8.382
   82POPC   PO4 1407   8.230   9.672   8.099
   82POPC   GL1 1408   8.101   9.995   7.778
   82POPC   GL2 1409   7.765  10.066   7.773
   82POPC   C1A 1410   8.185  10.166   7.358
   82POPC   D2A 1411   8.231   9.974   6.939
   82POPC   C3A 1412   8.211  10.243   6.586
   82POPC   C4A 1413   7.953  10.248   6.219
   82POPC   C1B 1414   7.680  10.290   7.362
   82POPC   C2B 1415   7.730  10.200   6.907
   82POPC   C3B 1416   7.531  10.327   6.497
   82POPC   C4B 1417   7.534  10.430   6.006
   83POPC   NC3 1418   1.383   7.079   8.063
   83POPC   PO4 1419   0.826   7.466   8.221
   83POPC   GL1 1420   1.039   7.420   7.773
   83POPC   GL2 1421   1.140   7.067   7.621
   83POPC   C1A 1422   1.281   7.520   7.371
   83POPC   D2A 1423   1.250   7.331   6.952
   83POPC   C3A 1424   1.054   7.431   6.600
   83POPC   C4A 1425   1.195   7.480   6.177
   83POPC   C1B 1426   0.872   7.235   7.308
   83POPC   C2B 1427   0.727   7.119   6.911
   83POPC   C3B 1428   0.753   6.892   6.559
   83POPC   C4B 1429   0.949   7.044   6.202
   84POPC   NC3 1430   6.889   9.986   8.172
   84POPC   PO4 1431   7.202   0.062   7.955
   84POPC   GL1 1432   7.209  10.412   7.564
   84POPC   GL2 1433   7.280  10.123   7.626
   84POPC   C1A 1434   7.215  10.211   7.142
   84POPC   D2A 1435   6.933   9.954   6.919
   84POPC   C3A 1436   6.851  10.228   6.590
   84POPC   C4A 1437   7.090  10.314   6.230
   84POPC   C1B 1438   7.524   9.828   7.368
   84POPC   C2B 1439   7.412   9.764   6.930
   84POPC   C3B 1440   7.270   9.848   6.523
   84POPC   C4B 1441   7.466   9.946   6.148
   85POPC   NC3 1442   4.359   0.592   8.254
   85POPC   PO4 1443   3.787   0.676   8.014
   85POPC   GL1 1444   3.921   0.349   7.743
   85POPC   GL2 1445   4.254   0.238   7.869
   85POPC   C1A 1446   3.847   0.238   7.313
   85POPC   D2A 1447   3.835   0.479   6.955
   85POPC   C3A 1448   3.929   0.281   6.577
   85POPC   C4A 1449   3.948   0.463   6.177
   85POPC   C1B 1450   4.417   0.225   7.446
   85POPC   C2B 1451   4.285   0.245   7.013
   85POPC   C3B 1452   4.460   0.246   6.592
   85POPC   C4B 1453   4.466   0.485   6.198
   86POPC   NC3 1454   1.630   2.353   8.400
   86POPC   PO4 1455   1.502   2.968   7.988
   86POPC   GL1 1456   1.630   2.801   7.589
   86POPC   GL2 1457   1.982   2.776   7.639
   86POPC   C1A 1458   1.601   2.514   7.222
   86POPC   D2A 1459   1.634   2.313   6.792
   86POPC   C3A 1460   1.523   2.530   6.470
   86POPC   C4A 1461   1.782   2.698   6.171
   86POPC   C1B 1462   2.113   2.492   7.352
   86POPC   C2B 1463   2.042   2.565   6.957
   86POPC   C3B 1464   2.104   2.562   6.549
   86POPC   C4B 1465   2.301   2.624   6.161
   87POPC   NC3 1466   8.471   5.091   8.060
   87POPC   PO4 1467   8.828   4.676   8.437
   87POPC   GL1 1468   8.991   4.849   7.959
   87POPC   GL2 1469   8.734   4.809   7.722
   87POPC   C1A 1470   9.103   5.002   7.445
   87POPC   D2A 1471   8.889   5.149   6.999
   87POPC   C3A 1472   8.854   4.940   6.597
   87POPC   C4A 1473   8.645   5.058   6.232
   87POPC   C1B 1474   8.645   4.815   7.281
   87POPC   C2B 1475   8.734   4.515   6.939
   87POPC   C3B 1476   8.631   4.412   6.510
   87POPC   C4B 1477   8.441   4.581   6.133
   88POPC   NC3 1478  10.170   9.875   8.196
   88POPC   PO4 1479   9.795  10.438   8.184
   88POPC   GL1 1480   9.942  10.260   7.751
   88POPC   GL2 1481  10.296  10.109   7.761
   88POPC   C1A 1482   9.794  10.422   7.312
   88POPC   D2A 1483   9.575  10.408   6.903
   88POPC   C3A 1484   9.828  10.335   6.542
   88POPC   C4A 1485  10.049  10.365   6.149
   88POPC   C1B 1486  10.279  10.287   7.349
   88POPC   C2B 1487  10.157  10.271   6.937
   88POPC   C3B 1488  10.485  10.201   6.637
   88POPC   C4B 1489  10.467  10.109   6.221
   89POPC   NC3 1490   0.744   1.889   8.413
   89POPC   PO4 1491   1.386   1.960   8.335
   89POPC   GL1 1492   1.395   2.073   7.915
   89POPC   GL2 1493   1.097   1.880   7.849
   89POPC   C1A 1494   1.453   1.939   7.486
   89POPC   D2A 1495   1.350   2.052   7.102
   89POPC   C3A 1496   1.276   1.931   6.679
   89POPC   C4A 1497   1.410   2.006   6.262
   89POPC   C1B 1498   0.959   2.049   7.439
   89POPC   C2B 1499   0.848   1.944   7.036
   89POPC   C3B 1500   0.770   1.992   6.645
   89POPC   C4B 1501   0.923   1.772   6.308
   90POPC   NC3 1502   8.652   5.111   8.554
   90POPC   PO4 1503   8.291   5.505   8.036
   90POPC   GL1 1504   8.218   5.242   7.624
   90POPC   GL2 1505   8.231   4.892   7.616
   90POPC   C1A 1506   8.306   5.163   7.148
   90POPC   D2A 1507   8.383   4.867   6.768
   90POPC   C3A 1508   8.156   4.985   6.362
   90POPC   C4A 1509   8.079   5.138   5.923
   90POPC   C1B 1510   8.152   4.666   7.196
   90POPC   C2B 1511   7.877   4.791   6.808
   90POPC   C3B 1512   7.653   4.866   6.380
   90POPC   C4B 1513   7.462   4.867   5.947
   91POPC   NC3 1514   5.577   2.158   7.982
   91POPC   PO4 1515   6.084   1.654   8.013
   91POPC   GL1 1516   5.755   1.812   7.678
   91POPC   GL2 1517   5.880   2.161   7.587
   91POPC   C1A 1518   5.559   2.014   7.250
   91POPC   D2A 1519   5.745   2.170   6.858
   91POPC   C3A 1520   5.513   2.178   6.453
   91POPC   C4A 1521   5.506   1.877   6.111
   91POPC   C1B 1522   6.056   1.869   7.288
   91POPC   C2B 1523   6.077   1.782   6.858
   91POPC   C3B 1524   5.924   1.881   6.460
   91POPC   C4B 1525   5.976   1.963   6.002
   92POPC   NC3 1526   1.684   8.032   8.061
   92POPC   PO4 1527   2.259   7.704   8.183
   92POPC   GL1 1528   2.108   7.750   7.704
   92POPC   GL2 1529   1.746   7.791   7.621
   92POPC   C1A 1530   2.039   7.741   7.201
   92POPC   D2A 1531   2.313   7.978   6.898
   92POPC   C3A 1532   2.314   8.018   6.416
   92POPC   C4A 1533   2.031   7.734   6.181
   92POPC   C1B 1534   1.941   8.179   7.434
   92POPC   C2B 1535   1.818   8.196   7.004
   92POPC   C3B 1536   1.843   8.004   6.609
   92POPC   C4B 1537   1.861   8.220   6.222
   93POPC   NC3 1538   9.571   3.644   8.189
   93POPC   PO4 1539   8.857   3.701   8.216
   93POPC   GL1 1540   9.142   3.694   7.861
   93POPC   GL2 1541   9.343   3.380   7.797
   93POPC   C1A 1542   9.220   3.746   7.409
   93POPC   D2A 1543   9.221   3.941   7.014
   93POPC   C3A 1544   9.157   3.716   6.617
   93POPC   C4A 1545   9.277   3.612   6.192
   93POPC   C1B 1546   9.207   3.226   7.381
   93POPC   C2B 1547   9.354   3.413   6.985
   93POPC   C3B 1548   9.544   3.359   6.570
   93POPC   C4B 1549   9.479   3.123   6.193
   94POPC   NC3 1550   0.500   4.383   8.122
   94POPC   PO4 1551   0.324   5.028   8.275
   94POPC   GL1 1552   0.270   4.792   7.831
   94POPC   GL2 1553   0.606   4.726   7.742
   94POPC   C1A 1554   0.305   4.698   7.322
   94POPC   D2A 1555   0.348   4.542   6.865
   94POPC   C3A 1556   0.224   4.747   6.459
   94POPC   C4A 1557   0.182   4.737   5.994
   94POPC   C1B 1558   0.473   5.133   7.507
   94POPC   C2B 1559   0.366   5.133   7.046
   94POPC   C3B 1560   0.310   5.256   6.599
   94POPC   C4B 1561   0.436   5.142   6.154
   95POPC   NC3 1562   1.211   8.647   8.098
   95POPC   PO4 1563   1.569   9.280   8.012
   95POPC   GL1 1564   1.414   8.937   7.714
   95POPC   GL2 1565   1.082   8.708   7.608
   95POPC   C1A 1566   1.305   9.025   7.285
   95POPC   D2A 1567   1.079   8.860   6.925
   95POPC   C3A 1568   1.265   9.025   6.564
   95POPC   C4A 1569   1.290   8.820   6.183
   95POPC   C1B 1570   1.086   8.424   7.225
   95POPC   C2B 1571   1.329   8.341   6.819
   95POPC   C3B 1572   1.299   8.330   6.348
   95POPC   C4B 1573   1.051   8.421   5.950
   96POPC   NC3 1574   6.781   0.720   7.920
   96POPC   PO4 1575   6.145   0.754   8.094
   96POPC   GL1 1576   6.354   0.959   7.754
   96POPC   GL2 1577   6.410   1.302   7.812
   96POPC   C1A 1578   6.432   0.928   7.319
   96POPC   D2A 1579   6.136   0.854   6.989
   96POPC   C3A 1580   6.314   0.918   6.602
   96POPC   C4A 1581   6.094   1.022   6.244
   96POPC   C1B 1582   6.176   1.372   7.412
   96POPC   C2B 1583   6.276   1.341   6.971
   96POPC   C3B 1584   6.289   1.430   6.528
   96POPC   C4B 1585   6.546   1.229   6.215
   97POPC   NC3 1586   3.268   1.761   8.243
   97POPC   PO4 1587   3.818   1.358   8.229
   97POPC   GL1 1588   3.823   1.599   7.803
   97POPC   GL2 1589   3.613   1.906   7.768
   97POPC   C1A 1590   3.684   1.577   7.352
   97POPC   D2A 1591   3.395   1.536   6.995
   97POPC   C3A 1592   3.491   1.650   6.545
   97POPC   C4A 1593   3.260   1.838   6.184
   97POPC   C1B 1594   3.478   2.042   7.346
   97POPC   C2B 1595   3.620   2.021   6.926
   97POPC   C3B 1596   3.513   2.162   6.515
   97POPC   C4B 1597   3.720   2.168   6.133
   98POPC   NC3 1598   6.356   0.362   8.292
   98POPC   PO4 1599   5.741   0.180   8.287
   98POPC   GL1 1600   6.049   0.079   7.868
   98POPC   GL2 1601   6.258   0.393   7.739
   98POPC   C1A 1602   6.198   0.037   7.378
   98POPC   D2A 1603   6.110   0.348   7.008
   98POPC   C3A 1604   6.246   0.401   6.546
   98POPC   C4A 1605   6.170   0.214   6.124
   98POPC   C1B 1606   6.555   0.405   7.351
   98POPC   C2B 1607   6.595   0.572   6.939
   98POPC   C3B 1608   6.742   0.624   6.534
   98POPC   C4B 1609   6.554   0.710   6.175
   99POPC   NC3 1610   1.264   2.586   7.919
   99POPC   PO4 1611   0.753   2.199   8.044
   99POPC   GL1 1612   0.623   2.401   7.644
   99POPC   GL2 1613   0.836   2.696   7.610
   99POPC   C1A 1614   0.732   2.448   7.159
   99POPC   D2A 1615   1.088   2.396   6.836
   99POPC   C3A 1616   1.032   2.344   6.376
   99POPC   C4A 1617   0.880   2.574   5.997
   99POPC   C1B 1618   1.169   2.810   7.315
   99POPC   C2B 1619   1.322   2.862   6.911
   99POPC   C3B 1620   1.094   2.833   6.536
   99POPC   C4B 1621   1.272   2.857   6.156
  100POPC   NC3 1622   1.935   4.013   8.149
  100POPC   PO4 1623   2.293   4.358   7.912
  100POPC   GL1 1624   1.900   4.395   7.687
  100POPC   GL2 1625   1.643   4.130   7.707
  100POPC   C1A 1626   1.690   4.439   7.282
  100POPC   D2A 1627   1.738   4.691   6.908
  100POPC   C3A 1628   1.750   4.435   6.530
  100POPC   C4A 1629   2.095   4.374   6.225
  100POPC   C1B 1630   1.895   3.977   7.367
  100POPC   C2B 1631   1.892   4.039   6.927
  100POPC   C3B 1632   2.042   3.955   6.519
  100POPC   C4B 1633   1.712   4.022   6.223
  101POPC   NC3 1634   8.137   2.643   8.149
  101POPC   PO4 1635   8.141   3.190   7.836
  101POPC   GL1 1636   7.959   2.797   7.676
  101POPC   GL2 1637   8.110   2.415   7.704
  101POPC   C1A 1638   7.837   2.969   7.266
  101POPC   D2A 1639   8.042   3.154   6.903
  101POPC   C3A 1640   7.875   3.054   6.484
  101POPC   C4A 1641   8.104   3.173   6.108
  101POPC   C1B 1642   8.008   2.496   7.277
  101POPC   C2B 1643   8.150   2.650   6.909
  101POPC   C3B 1644   8.006   2.577   6.537
  101POPC   C4B 1645   8.102   2.667   6.163
  102POPC   NC3 1646   1.227   0.346   8.070
  102POPC   PO4 1647   0.565   0.557   8.021
  102POPC   GL1 1648   0.807   0.283   7.732
  102POPC   GL2 1649   1.127   0.390   7.579
  102POPC   C1A 1650   0.857   0.008   7.363
  102POPC   D2A 1651   1.086   0.125   6.970
  102POPC   C3A 1652   0.904  10.441   6.579
  102POPC   C4A 1653   0.756   0.153   6.216
  102POPC   C1B 1654   1.421   0.588   7.310
  102POPC   C2B 1655   1.527   0.588   6.869
  102POPC   C3B 1656   1.333   0.375   6.518
  102POPC   C4B 1657   1.219   0.315   6.077
  103POPC   NC3 1658  10.384   4.967   8.156
  103POPC   PO4 1659   9.741   4.835   8.307
  103POPC   GL1 1660   9.963   4.784   7.888
  103POPC   GL2 1661  10.041   5.080   7.775
  103POPC   C1A 1662   9.952   4.733   7.416
  103POPC   D2A 1663   9.918   4.983   7.022
  103POPC   C3A 1664   9.835   4.752   6.632
  103POPC   C4A 1665   9.904   5.013   6.270
  103POPC   C1B 1666  10.404   4.950   7.496
  103POPC   C2B 1667  10.422   4.873   7.036
  103POPC   C3B 1668  10.302   4.981   6.632
  103POPC   C4B 1669  10.445   5.111   6.239
  104POPC   NC3 1670  10.242   7.087   7.953
  104POPC   PO4 1671   0.312   6.798   8.166
  104POPC   GL1 1672   0.032   6.667   7.771
  104POPC   GL2 1673  10.174   6.810   7.546
  104POPC   C1A 1674   0.119   6.775   7.346
  104POPC   D2A 1675  10.295   6.838   7.034
  104POPC   C3A 1676  10.390   6.883   6.623
  104POPC   C4A 1677  10.106   6.835   6.367
  104POPC   C1B 1678  10.230   7.253   7.327
  104POPC   C2B 1679  10.179   7.460   6.934
  104POPC   C3B 1680  10.353   7.422   6.533
  104POPC   C4B 1681  10.115   7.365   6.191
  105POPC   NC3 1682   8.420   5.931   7.953
  105POPC   PO4 1683   8.363   6.581   8.090
  105POPC   GL1 1684   8.381   6.364   7.657
  105POPC   GL2 1685   8.070   6.169   7.641
  105POPC   C1A 1686   8.329   6.207   7.201
  105POPC   D2A 1687   8.208   6.484   6.866
  105POPC   C3A 1688   8.112   6.366   6.477
  105POPC   C4A 1689   8.315   6.104   6.184
  105POPC   C1B 1690   7.883   6.452   7.305
  105POPC   C2B 1691   7.694   6.494   6.870
  105POPC   C3B 1692   7.617   6.240   6.502
  105POPC   C4B 1693   7.818   6.097   6.132
  106POPC   NC3 1694   1.802   1.814   8.137
  106POPC   PO4 1695   1.727   2.484   7.969
  106POPC   GL1 1696   1.835   2.201   7.638
  106POPC   GL2 1697   1.952   1.828   7.638
  106POPC   C1A 1698   1.874   2.059   7.177
  106POPC   D2A 1699   2.088   2.052   6.763
  106POPC   C3A 1700   1.898   2.142   6.354
  106POPC   C4A 1701   1.845   2.254   5.926
  106POPC   C1B 1702   1.725   1.554   7.306
  106POPC   C2B 1703   1.655   1.653   6.873
  106POPC   C3B 1704   1.880   1.628   6.485
  106POPC   C4B 1705   2.241   1.754   6.235
  107POPC   NC3 1706   9.539   6.361   8.300
  107POPC   PO4 1707   8.855   6.308   8.230
  107POPC   GL1 1708   9.178   6.320   7.805
  107POPC   GL2 1709   9.370   6.552   7.807
  107POPC   C1A 1710   9.320   6.272   7.341
  107POPC   D2A 1711   9.104   6.399   6.943
  107POPC   C3A 1712   9.204   6.363   6.499
  107POPC   C4A 1713   9.397   6.485   6.105
  107POPC   C1B 1714   9.525   6.716   7.405
  107POPC   C2B 1715   9.549   6.606   6.974
  107POPC   C3B 1716   9.511   6.792   6.577
  107POPC   C4B 1717   9.652   6.923   6.189
  108POPC   NC3 1718   2.180   2.604   8.088
  108POPC   PO4 1719   2.847   2.398   8.086
  108POPC   GL1 1720   2.853   2.565   7.662
  108POPC   GL2 1721   2.504   2.645   7.636
  108POPC   C1A 1722   2.781   2.423   7.249
  108POPC   D2A 1723   2.513   2.416   6.925
  108POPC   C3A 1724   2.592   2.684   6.638
  108POPC   C4A 1725   2.831   2.528   6.326
  108POPC   C1B 1726   2.436   2.840   7.199
  108POPC   C2B 1727   2.273   3.054   6.858
  108POPC   C3B 1728   2.282   3.055   6.412
  108POPC   C4B 1729   2.681   3.001   6.208
  109POPC   NC3 1730   6.757  10.346   7.839
  109POPC   PO4 1731   6.638   9.683   7.916
  109POPC   GL1 1732   6.539   9.894   7.584
  109POPC   GL2 1733   6.832   9.993   7.444
  109POPC   C1A 1734   6.329  10.035   7.234
  109POPC   D2A 1735   6.436  10.032   6.811
  109POPC   C3A 1736   6.245   9.814   6.450
  109POPC   C4A 1737   6.270   9.769   5.945
  109POPC   C1B 1738   6.718  10.374   7.187
  109POPC   C2B 1739   6.502   0.058   6.847
  109POPC   C3B 1740   6.296  10.382   6.491
  109POPC   C4B 1741   6.545  10.141   6.190
  110POPC   NC3 1742   2.023   5.518   8.056
  110POPC   PO4 1743   1.562   5.986   8.184
  110POPC   GL1 1744   1.579   5.819   7.749
  110POPC   GL2 1745   1.911   5.817   7.663
  110POPC   C1A 1746   1.582   5.687   7.300
  110POPC   D2A 1747   1.762   5.845   6.897
  110POPC   C3A 1748   1.562   5.716   6.519
  110POPC   C4A 1749   1.623   5.573   6.096
  110POPC   C1B 1750   2.067   5.598   7.297
  110POPC   C2B 1751   2.141   5.465   6.895
  110POPC   C3B 1752   2.004   5.492   6.489
  110POPC   C4B 1753   2.114   5.462   6.073
  111POPC   NC3 1754   0.707   3.408   8.036
  111POPC   PO4 1755   0.147   2.986   8.160
  111POPC   GL1 1756   0.357   3.144   7.756
  111POPC   GL2 1757   0.351   3.531   7.695
  111POPC   C1A 1758   0.667   3.223   7.411
  111POPC   D2A 1759   0.674   3.524   7.063
  111POPC   C3A 1760   0.723   3.352   6.648
  111POPC   C4A 1761   0.561   3.373   6.187
  111POPC   C1B 1762   0.198   3.445   7.285
  111POPC   C2B 1763   0.030   3.618   6.905
  111POPC   C3B 1764   0.274   3.594   6.550
  111POPC   C4B 1765   0.368   3.858   6.195
  112POPC   NC3 1766   6.446   2.642   8.056
  112POPC   PO4 1767   6.922   3.022   7.987
  112POPC   GL1 1768   6.679   2.886   7.621
  112POPC   GL2 1769   6.699   2.536   7.638
  112POPC   C1A 1770   6.389   3.032   7.265
  112POPC   D2A 1771   6.380   3.156   6.800
  112POPC   C3A 1772   6.677   3.005   6.448
  112POPC   C4A 1773   6.736   3.034   5.984
  112POPC   C1B 1774   6.536   2.537   7.233
  112POPC   C2B 1775   6.581   2.678   6.825
  112POPC   C3B 1776   6.234   2.725   6.535
  112POPC   C4B 1777   6.007   2.376   6.311
  113POPC   NC3 1778  10.055   8.985   8.078
  113POPC   PO4 1779  10.149   8.280   8.044
  113POPC   GL1 1780   9.967   8.457   7.666
  113POPC   GL2 1781   9.923   8.824   7.609
  113POPC   C1A 1782  10.044   8.306   7.245
  113POPC   D2A 1783   9.789   8.441   6.918
  113POPC   C3A 1784   9.905   8.363   6.529
  113POPC   C4A 1785   9.936   8.716   6.287
  113POPC   C1B 1786  10.140   8.808   7.205
  113POPC   C2B 1787  10.234   8.709   6.763
  113POPC   C3B 1788  10.386   8.933   6.403
  113POPC   C4B 1789  10.496   9.254   6.149
  114POPC   NC3 1790  10.164   3.060   8.073
  114POPC   PO4 1791  10.046   3.770   7.989
  114POPC   GL1 1792   9.989   3.418   7.761
  114POPC   GL2 1793  10.355   3.376   7.698
  114POPC   C1A 1794   9.715   3.283   7.411
  114POPC   D2A 1795   9.713   3.054   7.017
  114POPC   C3A 1796   9.913   3.008   6.612
  114POPC   C4A 1797   9.951   3.269   6.230
  114POPC   C1B 1798  10.175   3.452   7.271
  114POPC   C2B 1799   9.999   3.454   6.857
  114POPC   C3B 1800  10.087   3.684   6.480
  114POPC   C4B 1801  10.410   3.638   6.183
  115POPC   NC3 1802   7.323   0.482   8.111
  115POPC   PO4 1803   6.694   0.277   7.998
  115POPC   GL1 1804   7.033   0.404   7.637
  115POPC   GL2 1805   7.438   0.391   7.622
  115POPC   C1A 1806   7.066   0.267   7.240
  115POPC   D2A 1807   7.109   0.454   6.878
  115POPC   C3A 1808   7.023   0.207   6.549
  115POPC   C4A 1809   6.661   0.149   6.293
  115POPC   C1B 1810   7.390   0.683   7.275
  115POPC   C2B 1811   7.312   0.915   6.868
  115POPC   C3B 1812   7.275   0.702   6.464
  115POPC   C4B 1813   7.464   0.327   6.312
  116POPC   NC3 1814   9.231  10.218   8.233
  116POPC   PO4 1815   9.324   0.414   8.167
  116POPC   GL1 1816   9.408   0.040   7.826
  116POPC   GL2 1817   9.442  10.160   7.793
  116POPC   C1A 1818   9.276  10.400   7.382
  116POPC   D2A 1819   9.196  10.066   7.068
  116POPC   C3A 1820   9.159  10.232   6.633
  116POPC   C4A 1821   9.380  10.281   6.273
  116POPC   C1B 1822   9.619   9.966   7.433
  116POPC   C2B 1823   9.736   9.922   6.992
  116POPC   C3B 1824   9.564   9.888   6.565
  116POPC   C4B 1825   9.771   9.944   6.166
  117POPC   NC3 1826   7.515   1.171   7.983
  117POPC   PO4 1827   8.200   1.439   7.967
  117POPC   GL1 1828   8.104   1.248   7.558
  117POPC   GL2 1829   7.816   1.008   7.583
  117POPC   C1A 1830   8.298   0.951   7.274
  117POPC   D2A 1831   8.382   0.923   6.834
  117POPC   C3A 1832   8.084   1.146   6.587
  117POPC   C4A 1833   7.989   1.512   6.335
  117POPC   C1B 1834   7.576   1.155   7.272
  117POPC   C2B 1835   7.651   1.300   6.851
  117POPC   C3B 1836   7.590   1.120   6.462
  117POPC   C4B 1837   7.705   1.135   6.047
  118POPC   NC3 1838   9.361   9.225   8.038
  118POPC   PO4 1839   9.021   9.839   8.043
  118POPC   GL1 1840   9.299   9.652   7.702
  118POPC   GL2 1841   9.651   9.484   7.665
  118POPC   C1A 1842   9.356   9.569   7.252
  118POPC   D2A 1843   9.491   9.467   6.850
  118POPC   C3A 1844   9.146   9.476   6.532
  118POPC   C4A 1845   9.123   9.846   6.269
  118POPC   C1B 1846   9.729   9.189   7.294
  118POPC   C2B 1847   9.766   8.981   6.865
  118POPC   C3B 1848   9.598   9.139   6.474
  118POPC   C4B 1849   9.535   9.492   6.186
  119POPC   NC3 1850   0.390   5.480   8.168
  119POPC   PO4 1851   0.595   6.116   8.319
  119POPC   GL1 1852   0.554   5.926   7.870
  119POPC   GL2 1853   0.268   5.710   7.755
  119POPC   C1A 1854   0.599   5.822   7.401
  119POPC   D2A 1855   0.777   5.852   6.964
  119POPC   C3A 1856   0.578   5.754   6.571
  119POPC   C4A 1857   0.624   5.842   6.151
  119POPC   C1B 1858   0.159   5.536   7.364
  119POPC   C2B 1859   0.301   5.629   6.975
  119POPC   C3B 1860   0.064   5.726   6.625
  119POPC   C4B 1861   0.162   5.593   6.226
  120POPC   NC3 1862   4.237   1.531   8.316
  120POPC   PO4 1863   4.395   2.170   8.143
  120POPC   GL1 1864   4.282   1.916   7.760
  120POPC   GL2 1865   4.384   1.544   7.806
  120POPC   C1A 1866   4.000   2.018   7.384
  120POPC   D2A 1867   4.102   2.239   6.948
  120POPC   C3A 1868   4.073   2.079   6.519
  120POPC   C4A 1869   4.216   2.036   6.064
  120POPC   C1B 1870   4.191   1.555   7.391
  120POPC   C2B 1871   4.035   1.712   6.986
  120POPC   C3B 1872   4.022   1.577   6.581
  120POPC   C4B 1873   3.880   1.677   6.177
  121POPC   NC3 1874   2.177   9.565   8.009
  121POPC   PO4 1875   1.578   9.814   8.050
  121POPC   GL1 1876   1.779   9.628   7.673
  121POPC   GL2 1877   2.089   9.763   7.495
  121POPC   C1A 1878   1.790   9.444   7.233
  121POPC   D2A 1879   2.005   9.605   6.859
  121POPC   C3A 1880   1.899   9.467   6.450
  121POPC   C4A 1881   1.634   9.202   6.189
  121POPC   C1B 1882   2.227   9.326   7.430
  121POPC   C2B 1883   2.137   9.123   7.039
  121POPC   C3B 1884   2.298   9.164   6.623
  121POPC   C4B 1885   2.128   9.081   6.197
  122POPC   NC3 1886   8.680   1.574   8.029
  122POPC   PO4 1887   8.381   2.235   8.193
  122POPC   GL1 1888   8.508   2.020   7.812
  122POPC   GL2 1889   8.897   1.996   7.802
  122POPC   C1A 1890   8.396   1.766   7.410
  122POPC   D2A 1891   8.332   1.465   7.042
  122POPC   C3A 1892   8.354   1.732   6.676
  122POPC   C4A 1893   8.379   1.876   6.243
  122POPC   C1B 1894   8.755   2.137   7.383
  122POPC   C2B 1895   8.707   1.958   6.976
  122POPC   C3B 1896   8.820   2.070   6.535
  122POPC   C4B 1897   8.713   2.248   6.112
  123POPC   NC3 1898   8.590   9.912   7.903
  123POPC   PO4 1899   8.808  10.390   8.336
  123POPC   GL1 1900   8.897  10.376   7.840
  123POPC   GL2 1901   8.969  10.068   7.596
  123POPC   C1A 1902   8.753  10.491   7.393
  123POPC   D2A 1903   8.473  10.483   7.021
  123POPC   C3A 1904   8.678   0.048   6.631
  123POPC   C4A 1905   8.919   0.058   6.246
  123POPC   C1B 1906   8.684  10.004   7.238
  123POPC   C2B 1907   8.718  10.074   6.809
  123POPC   C3B 1908   8.676  10.104   6.360
  123POPC   C4B 1909   8.349   9.973   6.084
  124POPC   NC3 1910   1.893   3.195   7.930
  124POPC   PO4 1911   1.550   3.732   8.150
  124POPC   GL1 1912   1.774   3.624   7.726
  124POPC   GL2 1913   1.626   3.305   7.520
  124POPC   C1A 1914   2.051   3.495   7.346
  124POPC   D2A 1915   2.227   3.596   6.953
  124POPC   C3A 1916   2.021   3.434   6.613
  124POPC   C4A 1917   1.931   3.565   6.202
  124POPC   C1B 1918   1.847   3.032   7.181
  124POPC   C2B 1919   1.788   2.949   6.719
  124POPC   C3B 1920   1.651   3.158   6.346
  124POPC   C4B 1921   1.833   3.150   5.933
  125POPC   NC3 1922   4.847   2.053   8.041
  125POPC   PO4 1923   5.278   2.398   7.732
  125POPC   GL1 1924   5.196   1.984   7.628
  125POPC   GL2 1925   4.819   2.022   7.532
  125POPC   C1A 1926   5.185   1.688   7.332
  125POPC   D2A 1927   4.971   1.978   7.036
  125POPC   C3A 1928   5.074   1.930   6.619
  125POPC   C4A 1929   5.034   1.844   6.209
  125POPC   C1B 1930   4.482   2.002   7.209
  125POPC   C2B 1931   4.497   1.802   6.798
  125POPC   C3B 1932   4.573   1.938   6.395
  125POPC   C4B 1933   4.802   2.305   6.254
  126POPC   NC3 1934   2.798   9.331   8.184
  126POPC   PO4 1935   2.445   9.808   8.321
  126POPC   GL1 1936   2.627   9.685   7.846
  126POPC   GL2 1937   2.859   9.423   7.702
  126POPC   C1A 1938   2.596   9.745   7.386
  126POPC   D2A 1939   2.510   9.481   7.026
  126POPC   C3A 1940   2.677   9.537   6.629
  126POPC   C4A 1941   2.418   9.520   6.281
  126POPC   C1B 1942   2.990   9.431   7.294
  126POPC   C2B 1943   2.943   9.206   6.936
  126POPC   C3B 1944   3.091   9.243   6.539
  126POPC   C4B 1945   2.879   9.320   6.168
  127POPC   NC3 1946   7.365   2.018   8.078
  127POPC   PO4 1947   6.789   2.313   8.112
  127POPC   GL1 1948   7.045   2.171   7.726
  127POPC   GL2 1949   7.010   1.805   7.744
  127POPC   C1A 1950   7.424   2.097   7.408
  127POPC   D2A 1951   7.683   2.180   6.991
  127POPC   C3A 1952   7.505   2.290   6.596
  127POPC   C4A 1953   7.332   2.234   6.185
  127POPC   C1B 1954   6.983   1.868   7.290
  127POPC   C2B 1955   7.240   1.905   6.928
  127POPC   C3B 1956   7.090   1.928   6.506
  127POPC   C4B 1957   6.839   1.629   6.291
  128POPC   NC3 1958   3.440   0.252   8.054
  128POPC   PO4 1959   3.065   0.762   7.932
  128POPC   GL1 1960   3.086   0.336   7.665
  128POPC   GL2 1961   3.414   0.158   7.566
  128POPC   C1A 1962   3.095   0.165   7.194
  128POPC   D2A 1963   3.417   0.194   6.838
  128POPC   C3A 1964   3.227   0.283   6.415
  128POPC   C4A 1965   3.014   0.203   6.008
  128POPC   C1B 1966   3.422   0.546   7.279
  128POPC   C2B 1967   3.469   0.829   6.901
  128POPC   C3B 1968   3.589   0.670   6.536
  128POPC   C4B 1969   3.429   0.744   6.186
  129POPC   NC3 1970   8.121   0.959   7.989
  129POPC   PO4 1971   8.749   0.811   8.051
  129POPC   GL1 1972   8.626   1.093   7.725
  129POPC   GL2 1973   8.899   0.928   7.561
  129POPC   C1A 1974   8.721   1.385   7.375
  129POPC   D2A 1975   8.840   1.452   6.914
  129POPC   C3A 1976   8.565   1.314   6.547
  129POPC   C4A 1977   8.492   0.920   6.316
  129POPC   C1B 1978   8.818   0.953   7.125
  129POPC   C2B 1979   8.880   0.975   6.696
  129POPC   C3B 1980   8.970   1.129   6.272
  129POPC   C4B 1981   9.229   1.002   5.930
  130POPC   NC3 1982   8.308   7.912   8.199
  130POPC   PO4 1983   7.721   7.750   7.948
  130POPC   GL1 1984   7.797   8.110   7.697
  130POPC   GL2 1985   8.163   8.036   7.713
  130POPC   C1A 1986   7.576   8.322   7.321
  130POPC   D2A 1987   7.604   8.050   6.906
  130POPC   C3A 1988   7.422   8.108   6.486
  130POPC   C4A 1989   7.427   8.491   6.270
  130POPC   C1B 1990   8.227   7.906   7.279
  130POPC   C2B 1991   8.070   7.811   6.861
  130POPC   C3B 1992   7.869   7.754   6.467
  130POPC   C4B 1993   8.201   7.889   6.222
  131POPC   NC3 1994   7.279   7.755   8.040
  131POPC   PO4 1995   7.245   8.427   8.182
  131POPC   GL1 1996   7.284   8.190   7.769
  131POPC   GL2 1997   6.908   8.211   7.840
  131POPC   C1A 1998   7.396   7.866   7.367
  131POPC   D2A 1999   7.183   7.759   6.944
  131POPC   C3A 2000   7.360   7.604   6.532
  131POPC   C4A 2001   7.453   7.673   6.084
  131POPC   C1B 2002   6.922   7.972   7.445
  131POPC   C2B 2003   6.707   7.948   7.046
  131POPC   C3B 2004   6.844   7.994   6.625
  131POPC   C4B 2005   6.988   7.830   6.233
  132POPC   NC3 2006   0.151   0.801   7.971
  132POPC   PO4 2007  10.444   0.126   7.891
  132POPC   GL1 2008   0.314   0.251   7.598
  132POPC   GL2 2009   0.387   0.589   7.554
  132POPC   C1A 2010   0.510   0.332   7.152
  132POPC   D2A 2011   0.485   0.740   6.937
  132POPC   C3A 2012   0.420   0.659   6.512
  132POPC   C4A 2013   0.372   0.506   6.145
  132POPC   C1B 2014   0.791   0.716   7.367
  132POPC   C2B 2015   1.008   0.653   7.003
  132POPC   C3B 2016   0.862   0.476   6.642
  132POPC   C4B 2017   0.869   0.663   6.247
  133POPC   NC3 2018   4.203   8.090   8.102
  133POPC   PO4 2019   3.806   7.662   8.118
  133POPC   GL1 2020   3.885   7.894   7.709
  133POPC   GL2 2021   4.247   7.910   7.640
  133POPC   C1A 2022   3.935   7.940   7.223
  133POPC   D2A 2023   3.893   8.143   6.783
  133POPC   C3A 2024   3.968   7.905   6.362
  133POPC   C4A 2025   3.659   7.661   6.080
  133POPC   C1B 2026   4.416   8.145   7.295
  133POPC   C2B 2027   4.372   7.976   6.898
  133POPC   C3B 2028   4.553   7.967   6.515
  133POPC   C4B 2029   4.461   8.022   6.122
  134POPC   NC3 2030   8.537   8.616   8.104
  134POPC   PO4 2031   9.168   8.095   8.109
  134POPC   GL1 2032   9.054   8.298   7.663
  134POPC   GL2 2033   8.771   8.552   7.656
  134POPC   C1A 2034   9.089   8.447   7.295
  134POPC   D2A 2035   8.829   8.708   7.105
  134POPC   C3A 2036   8.746   8.605   6.691
  134POPC   C4A 2037   9.018   8.442   6.371
  134POPC   C1B 2038   8.434   8.738   7.452
  134POPC   C2B 2039   8.314   8.779   7.015
  134POPC   C3B 2040   8.252   8.716   6.572
  134POPC   C4B 2041   8.541   8.694   6.212
  135POPC   NC3 2042   0.444  10.496   8.042
  135POPC   PO4 2043   0.132   9.891   8.213
  135POPC   GL1 2044   0.318  10.043   7.767
  135POPC   GL2 2045   0.687  10.148   7.708
  135POPC   C1A 2046   0.293  10.314   7.370
  135POPC   D2A 2047   0.108   0.047   7.011
  135POPC   C3A 2048   0.354   0.113   6.600
  135POPC   C4A 2049   0.286  10.489   6.153
  135POPC   C1B 2050   0.603   9.943   7.273
  135POPC   C2B 2051   0.493  10.171   6.889
  135POPC   C3B 2052   0.465  10.076   6.453
  135POPC   C4B 2053   0.686  10.159   6.085
  136POPC   NC3 2054  10.070   1.142   7.906
  136POPC   PO4 2055  10.065   1.679   8.286
  136POPC   GL1 2056  10.009   1.649   7.786
  136POPC   GL2 2057  10.212   1.421   7.512
  136POPC   C1A 2058   9.794   1.626   7.363
  136POPC   D2A 2059  10.012   1.392   7.004
  136POPC   C3A 2060   9.852   1.491   6.608
  136POPC   C4A 2061   9.982   1.730   6.308
  136POPC   C1B 2062  10.247   1.018   7.308
  136POPC   C2B 2063  10.191   0.886   6.900
  136POPC   C3B 2064  10.241   1.149   6.571
  136POPC   C4B 2065  10.187   1.035   6.181
  137POPC   NC3 2066   0.610   6.448   8.003
  137POPC   PO4 2067   0.018   6.087   8.010
  137POPC   GL1 2068   0.145   6.176   7.601
  137POPC   GL2 2069   0.428   6.345   7.548
  137POPC   C1A 2070   0.214   6.076   7.172
  137POPC   D2A 2071   0.435   6.190   6.824
  137POPC   C3A 2072   0.262   6.137   6.442
  137POPC   C4A 2073   0.130   6.124   6.051
  137POPC   C1B 2074   0.734   6.291   7.231
  137POPC   C2B 2075   0.852   6.488   6.864
  137POPC   C3B 2076   0.791   6.309   6.477
  137POPC   C4B 2077   0.572   6.356   6.108
  138POPC   NC3 2078   9.220   0.870   8.007
  138POPC   PO4 2079   9.137   1.581   8.158
  138POPC   GL1 2080   9.121   1.355   7.748
  138POPC   GL2 2081   9.484   1.248   7.702
  138POPC   C1A 2082   9.208   1.279   7.281
  138POPC   D2A 2083   9.487   1.394   6.962
  138POPC   C3A 2084   9.363   1.322   6.542
  138POPC   C4A 2085   9.501   1.524   6.155
  138POPC   C1B 2086   9.720   1.110   7.316
  138POPC   C2B 2087   9.681   0.899   6.933
  138POPC   C3B 2088   9.772   0.985   6.506
  138POPC   C4B 2089   9.701   1.057   6.074
  139POPC   NC3 2090   2.152  10.471   8.016
  139POPC   PO4 2091   2.321   0.709   8.116
  139POPC   GL1 2092   2.098   0.530   7.762
  139POPC   GL2 2093   1.689   0.493   7.763
  139POPC   C1A 2094   2.213   0.649   7.356
  139POPC   D2A 2095   2.035   0.498   6.993
  139POPC   C3A 2096   1.982   0.733   6.645
  139POPC   C4A 2097   2.075   0.552   6.275
  139POPC   C1B 2098   1.797   0.278   7.414
  139POPC   C2B 2099   1.690   0.116   7.008
  139POPC   C3B 2100   1.833   0.214   6.598
  139POPC   C4B 2101   1.705   0.220   6.179
  140POPC   NC3 2102   5.311   9.577   8.245
  140POPC   PO4 2103   4.843   9.098   8.063
  140POPC   GL1 2104   4.849   9.237   7.684
  140POPC   GL2 2105   4.999   9.512   7.699
  140POPC   C1A 2106   4.918   9.083   7.294
  140POPC   D2A 2107   4.716   9.188   6.962
  140POPC   C3A 2108   4.867   9.168   6.598
  140POPC   C4A 2109   4.734   8.936   6.279
  140POPC   C1B 2110   4.828   9.599   7.278
  140POPC   C2B 2111   4.733   9.697   6.826
  140POPC   C3B 2112   4.794   9.632   6.407
  140POPC   C4B 2113   4.952   9.521   5.996
  141POPC   NC3 2114   9.586   1.856   8.245
  141POPC   PO4 2115   9.196   2.336   8.075
  141POPC   GL1 2116   9.413   2.109   7.743
  141POPC   GL2 2117   9.438   1.768   7.744
  141POPC   C1A 2118   9.511   2.051   7.270
  141POPC   D2A 2119   9.833   1.917   6.933
  141POPC   C3A 2120   9.755   2.127   6.553
  141POPC   C4A 2121   9.604   2.128   6.156
  141POPC   C1B 2122   9.117   1.767   7.387
  141POPC   C2B 2123   9.204   1.816   6.922
  141POPC   C3B 2124   9.301   1.856   6.486
  141POPC   C4B 2125   9.125   1.918   6.062
  142POPC   NC3 2126  10.330   2.295   8.426
  142POPC   PO4 2127  10.093   2.619   7.946
  142POPC   GL1 2128  10.127   2.653   7.559
  142POPC   GL2 2129  10.085   2.967   7.554
  142POPC   C1A 2130  10.084   2.720   7.117
  142POPC   D2A 2131   9.787   2.547   6.866
  142POPC   C3A 2132  10.084   2.526   6.557
  142POPC   C4A 2133  10.068   2.372   6.165
  142POPC   C1B 2134  10.445   3.005   7.348
  142POPC   C2B 2135  10.426   3.129   6.936
  142POPC   C3B 2136  10.362   3.253   6.537
  142POPC   C4B 2137  10.301   2.899   6.286
  143POPC   NC3 2138   4.502   9.514   8.075
  143POPC   PO4 2139   3.905   9.185   7.999
  143POPC   GL1 2140   4.238   9.222   7.738
  143POPC   GL2 2141   4.126   9.559   7.683
  143POPC   C1A 2142   4.434   9.290   7.372
  143POPC   D2A 2143   4.319   9.501   7.011
  143POPC   C3A 2144   4.394   9.328   6.590
  143POPC   C4A 2145   4.425   9.427   6.146
  143POPC   C1B 2146   3.923   9.349   7.290
  143POPC   C2B 2147   3.898   9.333   6.810
  143POPC   C3B 2148   3.936   9.365   6.389
  143POPC   C4B 2149   3.997   9.690   6.179
  144POPC   NC3 2150   4.927   8.627   8.141
  144POPC   PO4 2151   5.494   8.750   7.990
  144POPC   GL1 2152   5.143   8.768   7.667
  144POPC   GL2 2153   4.760   8.736   7.680
  144POPC   C1A 2154   5.262   8.723   7.238
  144POPC   D2A 2155   5.333   8.994   6.917
  144POPC   C3A 2156   5.214   8.818   6.540
  144POPC   C4A 2157   5.176   8.502   6.250
  144POPC   C1B 2158   4.812   8.509   7.290
  144POPC   C2B 2159   4.786   8.688   6.863
  144POPC   C3B 2160   4.695   8.471   6.471
  144POPC   C4B 2161   4.533   8.525   6.048
  145POPC   NC3 2162   8.706   4.141   8.264
  145POPC   PO4 2163   8.379   4.646   8.046
  145POPC   GL1 2164   8.360   4.398   7.664
  145POPC   GL2 2165   8.642   4.362   7.455
  145POPC   C1A 2166   8.232   4.141   7.279
  145POPC   D2A 2167   8.301   4.249   6.864
  145POPC   C3A 2168   8.269   4.009   6.467
  145POPC   C4A 2169   8.057   4.136   6.069
  145POPC   C1B 2170   8.738   4.030   7.182
  145POPC   C2B 2171   8.711   3.942   6.776
  145POPC   C3B 2172   8.762   3.900   6.364
  145POPC   C4B 2173   8.753   4.166   6.044
  146POPC   NC3 2174   7.138   2.648   8.102
  146POPC   PO4 2175   7.722   2.312   8.065
  146POPC   GL1 2176   7.506   2.501   7.697
  146POPC   GL2 2177   7.181   2.685   7.605
  146POPC   C1A 2178   7.499   2.579   7.241
  146POPC   D2A 2179   7.647   2.728   6.866
  146POPC   C3A 2180   7.391   2.805   6.538
  146POPC   C4A 2181   7.590   2.665   6.215
  146POPC   C1B 2182   7.022   2.390   7.272
  146POPC   C2B 2183   6.861   2.245   6.892
  146POPC   C3B 2184   6.998   2.424   6.550
  146POPC   C4B 2185   7.003   2.659   6.228
  147POPC   NC3 2186   4.850  10.413   7.911
  147POPC   PO4 2187   4.893   9.794   8.203
  147POPC   GL1 2188   5.149   9.964   7.854
  147POPC   GL2 2189   4.884  10.020   7.598
  147POPC   C1A 2190   5.275   9.835   7.384
  147POPC   D2A 2191   5.072  10.001   7.022
  147POPC   C3A 2192   5.201   9.868   6.595
  147POPC   C4A 2193   5.024  10.023   6.196
  147POPC   C1B 2194   4.712  10.304   7.293
  147POPC   C2B 2195   4.583  10.340   6.914
  147POPC   C3B 2196   4.708  10.167   6.572
  147POPC   C4B 2197   4.696  10.418   6.222
  148POPC   NC3 2198   8.796   0.352   8.177
  148POPC   PO4 2199   8.140   0.018   8.079
  148POPC   GL1 2200   8.447   0.206   7.745
  148POPC   GL2 2201   8.722   0.442   7.689
  148POPC   C1A 2202   8.385   0.415   7.307
  148POPC   D2A 2203   8.181   0.467   6.875
  148POPC   C3A 2204   8.364   0.451   6.480
  148POPC   C4A 2205   8.365   0.100   6.218
  148POPC   C1B 2206   8.898   0.469   7.284
  148POPC   C2B 2207   8.706   0.497   6.898
  148POPC   C3B 2208   8.879   0.500   6.519
  148POPC   C4B 2209   8.945   0.627   6.144
  149POPC   NC3 2210   4.210   8.825   8.058
  149POPC   PO4 2211   4.602   8.307   8.096
  149POPC   GL1 2212   4.318   8.475   7.683
  149POPC   GL2 2213   4.014   8.744   7.594
  149POPC   C1A 2214   4.406   8.783   7.297
  149POPC   D2A 2215   4.226   8.982   6.948
  149POPC   C3A 2216   4.243   8.853   6.492
  149POPC   C4A 2217   4.257   8.968   6.046
  149POPC   C1B 2218   4.016   8.460   7.235
  149POPC   C2B 2219   4.291   8.472   6.858
  149POPC   C3B 2220   4.198   8.356   6.419
  149POPC   C4B 2221   4.035   8.521   6.020
  150POPC   NC3 2222   9.764  10.267   4.139
  150POPC   PO4 2223   9.136  10.219   3.719
  150POPC   GL1 2224   9.157  10.021   4.201
  150POPC   GL2 2225   9.459   9.953   4.340
  150POPC   C1A 2226   9.100  10.130   4.666
  150POPC   D2A 2227   9.054  10.363   5.072
  150POPC   C3A 2228   9.261  10.223   5.443
  150POPC   C4A 2229   9.121  10.291   5.842
  150POPC   C1B 2230   9.626  10.146   4.752
  150POPC   C2B 2231   9.847  10.045   5.136
  150POPC   C3B 2232   9.870  10.320   5.505
  150POPC   C4B 2233   9.638  10.323   5.845
  151POPC   NC3 2234   6.328   9.796   3.818
  151POPC   PO4 2235   6.808  10.098   3.676
  151POPC   GL1 2236   6.571  10.169   4.085
  151POPC   GL2 2237   6.538  10.442   4.318
  151POPC   C1A 2238   6.400   9.962   4.478
  151POPC   D2A 2239   6.295  10.005   4.941
  151POPC   C3A 2240   6.586   9.934   5.261
  151POPC   C4A 2241   6.664   9.972   5.691
  151POPC   C1B 2242   6.263  10.437   4.653
  151POPC   C2B 2243   6.233   0.069   5.064
  151POPC   C3B 2244   6.357  10.364   5.400
  151POPC   C4B 2245   6.304  10.329   5.805
  152POPC   NC3 2246   0.792   9.556   4.051
  152POPC   PO4 2247   1.292   9.126   3.905
  152POPC   GL1 2248   1.287   9.356   4.276
  152POPC   GL2 2249   1.583   9.613   4.215
  152POPC   C1A 2250   1.011   9.253   4.656
  152POPC   D2A 2251   1.020   9.033   5.072
  152POPC   C3A 2252   0.803   9.171   5.455
  152POPC   C4A 2253   0.998   9.379   5.804
  152POPC   C1B 2254   1.467   9.695   4.638
  152POPC   C2B 2255   1.374   9.421   4.968
  152POPC   C3B 2256   1.290   9.366   5.383
  152POPC   C4B 2257   1.490   9.509   5.779
  153POPC   NC3 2258   1.446  10.284   3.959
  153POPC   PO4 2259   0.853   9.952   3.708
  153POPC   GL1 2260   0.981  10.100   4.143
  153POPC   GL2 2261   1.158   9.866   4.251
  153POPC   C1A 2262   1.157  10.242   4.581
  153POPC   D2A 2263   0.865  10.324   4.923
  153POPC   C3A 2264   0.905  10.273   5.390
  153POPC   C4A 2265   1.043  10.408   5.806
  153POPC   C1B 2266   0.951   9.780   4.657
  153POPC   C2B 2267   1.096   9.873   5.057
  153POPC   C3B 2268   1.177   9.846   5.484
  153POPC   C4B 2269   1.515  10.045   5.690
  154POPC   NC3 2270   1.118   1.413   4.089
  154POPC   PO4 2271   1.615   0.929   3.809
  154POPC   GL1 2272   1.524   1.130   4.242
  154POPC   GL2 2273   1.254   1.040   4.468
  154POPC   C1A 2274   1.536   1.422   4.682
  154POPC   D2A 2275   1.357   1.429   5.124
  154POPC   C3A 2276   1.567   1.480   5.541
  154POPC   C4A 2277   1.570   1.259   5.946
  154POPC   C1B 2278   1.014   1.351   4.714
  154POPC   C2B 2279   0.864   1.526   5.065
  154POPC   C3B 2280   0.806   1.228   5.401
  154POPC   C4B 2281   1.058   1.234   5.743
  155POPC   NC3 2282   8.815   7.780   3.867
  155POPC   PO4 2283   8.333   8.310   3.870
  155POPC   GL1 2284   8.293   8.135   4.291
  155POPC   GL2 2285   8.581   7.900   4.307
  155POPC   C1A 2286   8.299   8.042   4.715
  155POPC   D2A 2287   8.574   8.140   5.041
  155POPC   C3A 2288   8.518   8.021   5.466
  155POPC   C4A 2289   8.163   8.053   5.745
  155POPC   C1B 2290   8.837   7.884   4.667
  155POPC   C2B 2291   8.843   7.714   5.087
  155POPC   C3B 2292   9.025   7.864   5.482
  155POPC   C4B 2293   8.838   7.823   5.910
  156POPC   NC3 2294   2.768   1.098   4.006
  156POPC   PO4 2295   3.138   1.569   3.710
  156POPC   GL1 2296   3.067   1.430   4.180
  156POPC   GL2 2297   2.669   1.487   4.283
  156POPC   C1A 2298   3.028   1.395   4.665
  156POPC   D2A 2299   3.013   1.059   4.994
  156POPC   C3A 2300   3.070   1.184   5.425
  156POPC   C4A 2301   2.870   1.061   5.819
  156POPC   C1B 2302   2.550   1.201   4.631
  156POPC   C2B 2303   2.591   1.376   5.050
  156POPC   C3B 2304   2.580   1.317   5.482
  156POPC   C4B 2305   2.329   0.999   5.637
  157POPC   NC3 2306   0.589   3.380   3.980
  157POPC   PO4 2307  10.433   3.439   3.812
  157POPC   GL1 2308   0.126   3.568   4.221
  157POPC   GL2 2309   0.297   3.271   4.367
  157POPC   C1A 2310   0.024   3.600   4.675
  157POPC   D2A 2311   0.246   3.437   5.021
  157POPC   C3A 2312   0.149   3.454   5.447
  157POPC   C4A 2313   0.330   3.168   5.753
  157POPC   C1B 2314   0.620   3.401   4.654
  157POPC   C2B 2315   0.806   3.383   5.048
  157POPC   C3B 2316   0.713   3.358   5.469
  157POPC   C4B 2317   0.509   3.656   5.758
  158POPC   NC3 2318   8.789   5.362   3.844
  158POPC   PO4 2319   8.832   6.023   3.932
  158POPC   GL1 2320   8.826   5.751   4.314
  158POPC   GL2 2321   8.512   5.681   4.266
  158POPC   C1A 2322   8.948   5.539   4.736
  158POPC   D2A 2323   8.729   5.509   5.126
  158POPC   C3A 2324   8.846   5.534   5.535
  158POPC   C4A 2325   8.539   5.353   5.836
  158POPC   C1B 2326   8.461   5.679   4.702
  158POPC   C2B 2327   8.240   5.683   5.074
  158POPC   C3B 2328   8.426   5.861   5.402
  158POPC   C4B 2329   8.519   5.857   5.811
  159POPC   NC3 2330   7.881   4.960   3.806
  159POPC   PO4 2331   8.417   4.895   3.906
  159POPC   GL1 2332   8.234   4.837   4.317
  159POPC   GL2 2333   7.862   4.801   4.320
  159POPC   C1A 2334   8.210   4.893   4.789
  159POPC   D2A 2335   8.085   4.666   5.184
  159POPC   C3A 2336   7.813   4.785   5.563
  159POPC   C4A 2337   7.931   4.650   5.999
  159POPC   C1B 2338   7.737   5.039   4.734
  159POPC   C2B 2339   7.858   5.166   5.200
  159POPC   C3B 2340   7.648   5.258   5.633
  159POPC   C4B 2341   7.636   5.323   6.096
  160POPC   NC3 2342   2.120  10.312   3.860
  160POPC   PO4 2343   1.647   0.233   3.929
  160POPC   GL1 2344   1.828  10.429   4.275
  160POPC   GL2 2345   1.653  10.115   4.385
  160POPC   C1A 2346   2.114  10.398   4.677
  160POPC   D2A 2347   2.210  10.368   5.153
  160POPC   C3A 2348   2.042   0.073   5.559
  160POPC   C4A 2349   2.171   0.105   6.023
  160POPC   C1B 2350   1.644  10.162   4.825
  160POPC   C2B 2351   1.791  10.038   5.228
  160POPC   C3B 2352   2.017  10.063   5.615
  160POPC   C4B 2353   1.852  10.235   6.016
  161POPC   NC3 2354   1.863   4.494   4.021
  161POPC   PO4 2355   1.830   3.862   3.791
  161POPC   GL1 2356   2.015   4.035   4.189
  161POPC   GL2 2357   1.765   4.120   4.407
  161POPC   C1A 2358   2.164   3.986   4.668
  161POPC   D2A 2359   1.948   4.101   5.070
  161POPC   C3A 2360   2.173   4.001   5.479
  161POPC   C4A 2361   2.207   3.965   5.953
  161POPC   C1B 2362   1.757   4.477   4.691
  161POPC   C2B 2363   1.773   4.676   5.087
  161POPC   C3B 2364   1.769   4.424   5.431
  161POPC   C4B 2365   1.770   4.162   5.758
  162POPC   NC3 2366   7.107   0.579   3.995
  162POPC   PO4 2367   7.678   0.358   3.855
  162POPC   GL1 2368   7.586   0.542   4.222
  162POPC   GL2 2369   7.411   0.227   4.323
  162POPC   C1A 2370   7.581   0.566   4.674
  162POPC   D2A 2371   7.469   0.435   5.109
  162POPC   C3A 2372   7.393   0.719   5.473
  162POPC   C4A 2373   7.422   0.701   5.954
  162POPC   C1B 2374   7.136   0.325   4.698
  162POPC   C2B 2375   6.997   0.247   5.120
  162POPC   C3B 2376   7.081   0.303   5.597
  162POPC   C4B 2377   7.015   0.414   6.056
  163POPC   NC3 2378   7.897  10.469   3.927
  163POPC   PO4 2379   8.527   0.125   3.737
  163POPC   GL1 2380   8.247   0.253   4.145
  163POPC   GL2 2381   8.111   0.581   4.147
  163POPC   C1A 2382   7.928   0.156   4.529
  163POPC   D2A 2383   7.690  10.458   4.893
  163POPC   C3A 2384   7.813   0.069   5.331
  163POPC   C4A 2385   7.600   0.295   5.658
  163POPC   C1B 2386   8.069   0.651   4.571
  163POPC   C2B 2387   7.990   0.423   4.972
  163POPC   C3B 2388   7.878   0.629   5.346
  163POPC   C4B 2389   7.884   0.723   5.756
  164POPC   NC3 2390   8.765  10.293   4.005
  164POPC   PO4 2391   8.682   9.651   3.931
  164POPC   GL1 2392   8.813   9.706   4.356
  164POPC   GL2 2393   8.670  10.016   4.424
  164POPC   C1A 2394   8.822   9.715   4.817
  164POPC   D2A 2395   8.803   9.951   5.122
  164POPC   C3A 2396   8.988   9.809   5.496
  164POPC   C4A 2397   8.815   9.894   5.869
  164POPC   C1B 2398   8.631  10.352   4.722
  164POPC   C2B 2399   8.553  10.479   5.140
  164POPC   C3B 2400   8.669  10.257   5.500
  164POPC   C4B 2401   8.622  10.347   5.890
  165POPC   NC3 2402   1.888   2.848   3.907
  165POPC   PO4 2403   1.315   2.561   3.963
  165POPC   GL1 2404   1.545   2.772   4.278
  165POPC   GL2 2405   1.911   2.685   4.375
  165POPC   C1A 2406   1.552   2.783   4.715
  165POPC   D2A 2407   1.833   2.684   5.033
  165POPC   C3A 2408   1.604   2.842   5.357
  165POPC   C4A 2409   1.520   2.801   5.728
  165POPC   C1B 2410   2.216   2.543   4.685
  165POPC   C2B 2411   2.351   2.358   5.061
  165POPC   C3B 2412   2.178   2.378   5.467
  165POPC   C4B 2413   2.006   2.690   5.713
  166POPC   NC3 2414   6.614   8.332   3.730
  166POPC   PO4 2415   6.149   8.808   3.842
  166POPC   GL1 2416   6.164   8.766   4.362
  166POPC   GL2 2417   6.531   8.786   4.531
  166POPC   C1A 2418   6.268   8.440   4.741
  166POPC   D2A 2419   6.512   8.578   5.112
  166POPC   C3A 2420   6.325   8.558   5.535
  166POPC   C4A 2421   6.212   8.206   5.812
  166POPC   C1B 2422   6.226   8.948   4.848
  166POPC   C2B 2423   6.200   9.038   5.280
  166POPC   C3B 2424   6.546   9.013   5.542
  166POPC   C4B 2425   6.597   9.003   5.982
  167POPC   NC3 2426  10.210   7.224   3.958
  167POPC   PO4 2427   9.816   6.778   3.798
  167POPC   GL1 2428   9.813   7.031   4.239
  167POPC   GL2 2429  10.152   7.141   4.437
  167POPC   C1A 2430   9.767   7.023   4.714
  167POPC   D2A 2431   9.969   6.883   5.094
  167POPC   C3A 2432  10.002   7.088   5.477
  167POPC   C4A 2433  10.060   6.989   5.882
  167POPC   C1B 2434  10.215   7.394   4.824
  167POPC   C2B 2435  10.410   7.207   5.207
  167POPC   C3B 2436   0.002   6.963   5.635
  167POPC   C4B 2437   0.005   7.058   6.126
  168POPC   NC3 2438   8.204   1.691   4.162
  168POPC   PO4 2439   8.217   1.074   3.807
  168POPC   GL1 2440   8.208   1.107   4.221
  168POPC   GL2 2441   7.847   1.027   4.248
  168POPC   C1A 2442   8.377   1.058   4.647
  168POPC   D2A 2443   8.166   0.894   5.020
  168POPC   C3A 2444   8.266   0.978   5.469
  168POPC   C4A 2445   8.197   1.104   5.907
  168POPC   C1B 2446   7.899   1.211   4.675
  168POPC   C2B 2447   7.898   1.289   5.147
  168POPC   C3B 2448   7.790   1.178   5.546
  168POPC   C4B 2449   7.595   1.535   5.747
  169POPC   NC3 2450   4.900   8.481   4.013
  169POPC   PO4 2451   4.853   9.200   3.890
  169POPC   GL1 2452   4.874   8.968   4.266
  169POPC   GL2 2453   4.573   8.762   4.305
  169POPC   C1A 2454   4.791   9.066   4.692
  169POPC   D2A 2455   4.626   8.895   5.039
  169POPC   C3A 2456   4.785   8.838   5.434
  169POPC   C4A 2457   4.944   8.700   5.837
  169POPC   C1B 2458   4.795   8.542   4.660
  169POPC   C2B 2459   4.935   8.496   5.095
  169POPC   C3B 2460   4.812   8.326   5.512
  169POPC   C4B 2461   4.909   8.186   5.934
  170POPC   NC3 2462   7.774   6.503   3.907
  170POPC   PO4 2463   7.556   7.027   4.073
  170POPC   GL1 2464   7.814   6.719   4.393
  170POPC   GL2 2465   8.019   6.430   4.341
  170POPC   C1A 2466   7.951   6.530   4.837
  170POPC   D2A 2467   7.738   6.382   5.220
  170POPC   C3A 2468   7.821   6.575   5.628
  170POPC   C4A 2469   8.047   6.534   5.999
  170POPC   C1B 2470   8.201   6.126   4.614
  170POPC   C2B 2471   8.355   6.195   5.002
  170POPC   C3B 2472   8.230   6.366   5.361
  170POPC   C4B 2473   8.062   6.094   5.696
  171POPC   NC3 2474   5.641   2.206   3.963
  171POPC   PO4 2475   5.337   1.630   3.813
  171POPC   GL1 2476   5.518   1.722   4.229
  171POPC   GL2 2477   5.863   1.844   4.258
  171POPC   C1A 2478   5.679   1.594   4.661
  171POPC   D2A 2479   5.866   1.697   5.053
  171POPC   C3A 2480   5.615   1.802   5.391
  171POPC   C4A 2481   5.727   1.601   5.752
  171POPC   C1B 2482   5.659   2.093   4.635
  171POPC   C2B 2483   5.759   2.208   5.083
  171POPC   C3B 2484   5.874   2.244   5.546
  171POPC   C4B 2485   5.631   2.347   5.937
  172POPC   NC3 2486   1.514   3.733   4.118
  172POPC   PO4 2487   0.972   3.353   3.718
  172POPC   GL1 2488   1.075   3.450   4.168
  172POPC   GL2 2489   1.190   3.146   4.289
  172POPC   C1A 2490   1.055   3.671   4.616
  172POPC   D2A 2491   1.190   3.760   5.065
  172POPC   C3A 2492   0.927   3.806   5.453
  172POPC   C4A 2493   0.991   3.598   5.872
  172POPC   C1B 2494   1.398   3.271   4.670
  172POPC   C2B 2495   1.278   3.197   5.089
  172POPC   C3B 2496   1.301   3.424   5.466
  172POPC   C4B 2497   1.353   3.257   5.865
  173POPC   NC3 2498   0.623   2.233   4.158
  173POPC   PO4 2499   0.657   2.942   4.151
  173POPC   GL1 2500   0.524   2.663   4.397
  173POPC   GL2 2501   0.208   2.751   4.368
  173POPC   C1A 2502   0.694   2.480   4.764
  173POPC   D2A 2503   0.495   2.490   5.135
  173POPC   C3A 2504   0.667   2.641   5.528
  173POPC   C4A 2505   0.413   2.471   5.832
  173POPC   C1B 2506   0.406   2.951   4.784
  173POPC   C2B 2507   0.442   2.998   5.221
  173POPC   C3B 2508   0.175   2.735   5.463
  173POPC   C4B 2509   0.015   2.797   5.862
  174POPC   NC3 2510   1.976   7.114   3.841
  174POPC   PO4 2511   2.565   6.986   3.968
  174POPC   GL1 2512   2.203   7.022   4.309
  174POPC   GL2 2513   1.880   7.214   4.362
  174POPC   C1A 2514   2.144   7.106   4.775
  174POPC   D2A 2515   2.101   7.269   5.192
  174POPC   C3A 2516   2.133   6.930   5.463
  174POPC   C4A 2517   2.049   6.877   5.883
  174POPC   C1B 2518   1.648   7.198   4.766
  174POPC   C2B 2519   1.673   7.010   5.184
  174POPC   C3B 2520   1.696   7.166   5.595
  174POPC   C4B 2521   1.662   7.409   5.969
  175POPC   NC3 2522   7.243   7.360   4.014
  175POPC   PO4 2523   6.781   7.920   3.881
  175POPC   GL1 2524   7.030   8.019   4.330
  175POPC   GL2 2525   7.393   8.008   4.386
  175POPC   C1A 2526   7.061   7.838   4.767
  175POPC   D2A 2527   7.245   7.796   5.208
  175POPC   C3A 2528   7.110   7.713   5.661
  175POPC   C4A 2529   7.055   7.376   5.979
  175POPC   C1B 2530   7.337   8.279   4.751
  175POPC   C2B 2531   7.388   8.392   5.178
  175POPC   C3B 2532   7.211   8.207   5.524
  175POPC   C4B 2533   7.275   8.132   5.938
  176POPC   NC3 2534   1.290   2.161   3.755
  176POPC   PO4 2535   1.558   1.613   4.064
  176POPC   GL1 2536   1.447   1.880   4.385
  176POPC   GL2 2537   1.158   1.757   4.468
  176POPC   C1A 2538   1.436   1.906   4.840
  176POPC   D2A 2539   1.370   1.970   5.218
  176POPC   C3A 2540   1.105   1.726   5.486
  176POPC   C4A 2541   1.242   1.645   5.932
  176POPC   C1B 2542   0.889   1.951   4.776
  176POPC   C2B 2543   0.925   2.209   5.147
  176POPC   C3B 2544   0.761   2.146   5.555
  176POPC   C4B 2545   0.990   2.089   5.917
  177POPC   NC3 2546   5.019   0.572   3.792
  177POPC   PO4 2547   4.422   0.590   4.036
  177POPC   GL1 2548   4.632   0.549   4.410
  177POPC   GL2 2549   4.880   0.332   4.230
  177POPC   C1A 2550   4.645   0.581   4.887
  177POPC   D2A 2551   4.646   0.379   5.265
  177POPC   C3A 2552   4.733   0.588   5.620
  177POPC   C4A 2553   4.755   0.247   5.850
  177POPC   C1B 2554   4.997   0.290   4.654
  177POPC   C2B 2555   5.104   0.475   5.055
  177POPC   C3B 2556   5.124   0.307   5.439
  177POPC   C4B 2557   5.279   0.378   5.803
  178POPC   NC3 2558   3.466   1.825   3.953
  178POPC   PO4 2559   2.938   1.894   4.203
  178POPC   GL1 2560   3.259   1.834   4.456
  178POPC   GL2 2561   3.637   1.912   4.423
  178POPC   C1A 2562   3.190   1.826   4.893
  178POPC   D2A 2563   3.406   1.937   5.234
  178POPC   C3A 2564   3.232   1.657   5.469
  178POPC   C4A 2565   2.961   1.583   5.807
  178POPC   C1B 2566   3.472   2.205   4.733
  178POPC   C2B 2567   3.615   2.401   5.088
  178POPC   C3B 2568   3.721   2.286   5.496
  178POPC   C4B 2569   3.461   2.029   5.737
  179POPC   NC3 2570   6.543   2.257   3.957
  179POPC   PO4 2571   6.840   1.685   3.902
  179POPC   GL1 2572   6.745   1.895   4.306
  179POPC   GL2 2573   6.384   1.826   4.308
  179POPC   C1A 2574   6.642   1.960   4.758
  179POPC   D2A 2575   6.781   1.860   5.170
  179POPC   C3A 2576   6.592   2.078   5.505
  179POPC   C4A 2577   6.605   1.793   5.824
  179POPC   C1B 2578   6.144   1.943   4.701
  179POPC   C2B 2579   6.238   2.041   5.149
  179POPC   C3B 2580   6.144   1.816   5.545
  179POPC   C4B 2581   6.199   1.495   5.924
  180POPC   NC3 2582   8.980   0.184   3.680
  180POPC   PO4 2583   9.349  10.457   4.143
  180POPC   GL1 2584   8.974   0.065   4.384
  180POPC   GL2 2585   8.751   0.283   4.188
  180POPC   C1A 2586   8.917   0.293   4.779
  180POPC   D2A 2587   9.170   0.352   5.151
  180POPC   C3A 2588   8.971   0.174   5.485
  180POPC   C4A 2589   8.744   0.323   5.803
  180POPC   C1B 2590   8.576   0.573   4.538
  180POPC   C2B 2591   8.518   0.521   5.025
  180POPC   C3B 2592   8.339   0.427   5.469
  180POPC   C4B 2593   8.343   0.585   5.928
  181POPC   NC3 2594  10.372   0.468   3.910
  181POPC   PO4 2595   9.711   0.537   3.725
  181POPC   GL1 2596   9.871   0.509   4.222
  181POPC   GL2 2597  10.194   0.371   4.365
  181POPC   C1A 2598   9.805   0.215   4.607
  181POPC   D2A 2599   9.679   0.444   4.974
  181POPC   C3A 2600   9.902   0.402   5.373
  181POPC   C4A 2601   9.992   0.245   5.794
  181POPC   C1B 2602  10.169   0.466   4.807
  181POPC   C2B 2603  10.123   0.761   5.095
  181POPC   C3B 2604  10.388   0.706   5.432
  181POPC   C4B 2605  10.358   0.665   5.876
  182POPC   NC3 2606   8.461   2.494   3.998
  182POPC   PO4 2607   8.966   3.002   3.844
  182POPC   GL1 2608   8.869   2.828   4.250
  182POPC   GL2 2609   8.532   2.970   4.287
  182POPC   C1A 2610   9.065   2.728   4.664
  182POPC   D2A 2611   8.984   2.928   5.074
  182POPC   C3A 2612   9.025   2.671   5.438
  182POPC   C4A 2613   8.855   2.662   5.854
  182POPC   C1B 2614   8.529   2.645   4.638
  182POPC   C2B 2615   8.630   2.545   5.083
  182POPC   C3B 2616   8.533   2.838   5.380
  182POPC   C4B 2617   8.309   2.818   5.747
  183POPC   NC3 2618   4.702  10.251   3.871
  183POPC   PO4 2619   5.281   0.110   3.861
  183POPC   GL1 2620   5.228  10.435   4.248
  183POPC   GL2 2621   5.083  10.141   4.169
  183POPC   C1A 2622   5.353  10.436   4.668
  183POPC   D2A 2623   5.076  10.456   5.036
  183POPC   C3A 2624   5.238  10.322   5.422
  183POPC   C4A 2625   5.044  10.349   5.800
  183POPC   C1B 2626   4.839  10.270   4.559
  183POPC   C2B 2627   4.800  10.043   4.963
  183POPC   C3B 2628   4.968   9.873   5.342
  183POPC   C4B 2629   4.763   9.914   5.746
  184POPC   NC3 2630   9.445   0.708   4.061
  184POPC   PO4 2631   9.870   1.082   4.173
  184POPC   GL1 2632   9.646   0.920   4.480
  184POPC   GL2 2633   9.336   1.059   4.420
  184POPC   C1A 2634   9.697   0.973   4.893
  184POPC   D2A 2635   9.638   0.835   5.285
  184POPC   C3A 2636   9.844   1.073   5.555
  184POPC   C4A 2637   9.541   1.355   5.679
  184POPC   C1B 2638   9.392   1.361   4.743
  184POPC   C2B 2639   9.397   1.297   5.185
  184POPC   C3B 2640   9.082   1.222   5.498
  184POPC   C4B 2641   9.034   1.466   5.864
  185POPC   NC3 2642   2.415   8.778   4.038
  185POPC   PO4 2643   2.896   8.394   3.760
  185POPC   GL1 2644   2.746   8.394   4.238
  185POPC   GL2 2645   2.375   8.446   4.409
  185POPC   C1A 2646   2.794   8.531   4.703
  185POPC   D2A 2647   2.965   8.749   5.076
  185POPC   C3A 2648   2.748   9.063   5.351
  185POPC   C4A 2649   2.843   8.923   5.783
  185POPC   C1B 2650   2.217   8.360   4.811
  185POPC   C2B 2651   2.429   8.620   5.090
  185POPC   C3B 2652   2.643   8.580   5.470
  185POPC   C4B 2653   2.545   8.404   5.872
  186POPC   NC3 2654   7.267  10.139   3.805
  186POPC   PO4 2655   6.950   0.155   4.091
  186POPC   GL1 2656   7.040  10.288   4.300
  186POPC   GL2 2657   7.035   9.940   4.196
  186POPC   C1A 2658   6.839  10.140   4.660
  186POPC   D2A 2659   6.684  10.361   4.992
  186POPC   C3A 2660   6.875  10.348   5.405
  186POPC   C4A 2661   6.811  10.433   5.837
  186POPC   C1B 2662   7.243   9.835   4.605
  186POPC   C2B 2663   7.231  10.044   5.003
  186POPC   C3B 2664   7.090   9.877   5.398
  186POPC   C4B 2665   7.202  10.114   5.750
  187POPC   NC3 2666   7.123   9.191   3.781
  187POPC   PO4 2667   7.474   9.746   4.007
  187POPC   GL1 2668   7.327   9.392   4.286
  187POPC   GL2 2669   7.019   9.178   4.272
  187POPC   C1A 2670   7.183   9.326   4.731
  187POPC   D2A 2671   7.308   9.551   5.074
  187POPC   C3A 2672   7.325   9.342   5.440
  187POPC   C4A 2673   7.246   9.567   5.787
  187POPC   C1B 2674   6.823   9.583   4.461
  187POPC   C2B 2675   6.838   9.674   4.916
  187POPC   C3B 2676   6.855   9.350   5.286
  187POPC   C4B 2677   7.020   9.070   5.706
  188POPC   NC3 2678   9.086   8.760   3.822
  188POPC   PO4 2679   9.695   8.473   3.802
  188POPC   GL1 2680   9.711   8.736   4.157
  188POPC   GL2 2681   9.390   8.685   4.292
  188POPC   C1A 2682   9.773   8.788   4.620
  188POPC   D2A 2683   9.626   8.859   5.046
  188POPC   C3A 2684   9.876   8.825   5.424
  188POPC   C4A 2685   9.765   8.898   5.845
  188POPC   C1B 2686   9.214   8.845   4.718
  188POPC   C2B 2687   9.153   8.722   5.154
  188POPC   C3B 2688   9.267   8.760   5.600
  188POPC   C4B 2689   8.956   8.674   5.918
  189POPC   NC3 2690   3.711  10.158   3.775
  189POPC   PO4 2691   3.081   9.818   3.852
  189POPC   GL1 2692   3.166   9.935   4.246
  189POPC   GL2 2693   3.512   9.921   4.192
  189POPC   C1A 2694   2.970   9.904   4.652
  189POPC   D2A 2695   3.095  10.065   5.061
  189POPC   C3A 2696   3.038   9.879   5.481
  189POPC   C4A 2697   3.221   9.830   5.876
  189POPC   C1B 2698   3.438  10.158   4.597
  189POPC   C2B 2699   3.611  10.141   5.020
  189POPC   C3B 2700   3.541  10.191   5.462
  189POPC   C4B 2701   3.828   0.007   5.710
  190POPC   NC3 2702   8.309   9.389   3.863
  190POPC   PO4 2703   8.314  10.087   3.898
  190POPC   GL1 2704   8.300   9.706   4.254
  190POPC   GL2 2705   8.509   9.313   4.303
  190POPC   C1A 2706   8.367   9.585   4.666
  190POPC   D2A 2707   8.570   9.296   4.993
  190POPC   C3A 2708   8.601   9.536   5.320
  190POPC   C4A 2709   8.638   9.445   5.730
  190POPC   C1B 2710   8.865   9.252   4.593
  190POPC   C2B 2711   9.113   9.290   4.998
  190POPC   C3B 2712   9.058   9.296   5.461
  190POPC   C4B 2713   9.099   9.476   5.911
  191POPC   NC3 2714   2.445   0.563   3.775
  191POPC   PO4 2715   3.064   0.888   3.716
  191POPC   GL1 2716   2.807   0.577   4.111
  191POPC   GL2 2717   2.934   0.249   4.195
  191POPC   C1A 2718   2.692   0.672   4.620
  191POPC   D2A 2719   2.542   0.845   5.030
  191POPC   C3A 2720   2.731   0.809   5.385
  191POPC   C4A 2721   2.659   0.597   5.746
  191POPC   C1B 2722   2.538   0.219   4.507
  191POPC   C2B 2723   2.392   0.334   4.923
  191POPC   C3B 2724   2.468   0.296   5.363
  191POPC   C4B 2725   2.588   0.090   5.738
  192POPC   NC3 2726   8.773   6.495   3.870
  192POPC   PO4 2727   8.153   6.767   3.970
  192POPC   GL1 2728   8.480   6.614   4.274
  192POPC   GL2 2729   8.499   6.248   4.235
  192POPC   C1A 2730   8.479   6.614   4.729
  192POPC   D2A 2731   8.766   6.532   5.093
  192POPC   C3A 2732   8.760   6.729   5.530
  192POPC   C4A 2733   8.924   6.687   5.987
  192POPC   C1B 2734   8.733   6.139   4.630
  192POPC   C2B 2735   8.816   6.002   5.053
  192POPC   C3B 2736   8.794   6.186   5.472
  192POPC   C4B 2737   8.492   6.373   5.780
  193POPC   NC3 2738   9.716   8.014   3.862
  193POPC   PO4 2739   9.053   8.172   3.961
  193POPC   GL1 2740   9.190   8.226   4.362
  193POPC   GL2 2741   9.539   8.140   4.331
  193POPC   C1A 2742   9.445   8.391   4.756
  193POPC   D2A 2743   9.590   8.132   5.104
  193POPC   C3A 2744   9.422   8.242   5.526
  193POPC   C4A 2745   9.168   8.200   5.918
  193POPC   C1B 2746   9.350   7.891   4.702
  193POPC   C2B 2747   9.353   7.668   5.110
  193POPC   C3B 2748   9.579   7.725   5.514
  193POPC   C4B 2749   9.868   7.686   5.886
  194POPC   NC3 2750   1.025   2.895   3.876
  194POPC   PO4 2751   0.800   2.180   3.741
  194POPC   GL1 2752   1.094   2.228   4.239
  194POPC   GL2 2753   1.022   2.620   4.344
  194POPC   C1A 2754   1.204   2.337   4.697
  194POPC   D2A 2755   1.366   2.474   5.084
  194POPC   C3A 2756   1.187   2.445   5.534
  194POPC   C4A 2757   1.367   2.412   5.982
  194POPC   C1B 2758   1.033   2.872   4.714
  194POPC   C2B 2759   0.955   2.784   5.131
  194POPC   C3B 2760   1.076   2.956   5.518
  194POPC   C4B 2761   0.840   3.065   5.865
  195POPC   NC3 2762   6.598   0.985   3.478
  195POPC   PO4 2763   7.218   1.055   3.827
  195POPC   GL1 2764   7.029   1.049   4.190
  195POPC   GL2 2765   7.065   1.352   4.358
  195POPC   C1A 2766   6.963   0.813   4.585
  195POPC   D2A 2767   7.055   0.918   4.991
  195POPC   C3A 2768   6.911   0.697   5.311
  195POPC   C4A 2769   6.817   0.749   5.708
  195POPC   C1B 2770   7.414   1.061   4.546
  195POPC   C2B 2771   7.563   0.959   4.984
  195POPC   C3B 2772   7.366   1.205   5.293
  195POPC   C4B 2773   7.286   1.137   5.728
  196POPC   NC3 2774   1.873   1.342   3.867
  196POPC   PO4 2775   2.307   1.778   3.846
  196POPC   GL1 2776   2.149   1.506   4.279
  196POPC   GL2 2777   2.035   1.131   4.316
  196POPC   C1A 2778   2.082   1.355   4.759
  196POPC   D2A 2779   2.128   1.121   5.121
  196POPC   C3A 2780   2.086   1.404   5.447
  196POPC   C4A 2781   2.101   1.395   5.889
  196POPC   C1B 2782   1.760   0.983   4.662
  196POPC   C2B 2783   1.637   0.978   5.100
  196POPC   C3B 2784   1.791   0.993   5.543
  196POPC   C4B 2785   1.945   0.934   5.985
  197POPC   NC3 2786   3.463   9.375   4.004
  197POPC   PO4 2787   4.105   9.181   4.090
  197POPC   GL1 2788   3.760   9.155   4.388
  197POPC   GL2 2789   3.638   9.496   4.453
  197POPC   C1A 2790   3.725   9.203   4.856
  197POPC   D2A 2791   3.721   9.195   5.301
  197POPC   C3A 2792   3.900   9.592   5.415
  197POPC   C4A 2793   3.719   9.800   5.758
  197POPC   C1B 2794   3.415   9.668   4.779
  197POPC   C2B 2795   3.444   9.696   5.201
  197POPC   C3B 2796   3.380   9.492   5.541
  197POPC   C4B 2797   2.995   9.395   5.688
  198POPC   NC3 2798   8.377  10.277   3.427
  198POPC   PO4 2799   7.740  10.121   3.691
  198POPC   GL1 2800   7.838  10.096   4.224
  198POPC   GL2 2801   7.537  10.201   4.318
  198POPC   C1A 2802   8.176  10.129   4.561
  198POPC   D2A 2803   8.308   9.964   4.988
  198POPC   C3A 2804   8.145  10.128   5.387
  198POPC   C4A 2805   8.134  10.435   5.745
  198POPC   C1B 2806   7.715   9.971   4.682
  198POPC   C2B 2807   7.753   9.858   5.065
  198POPC   C3B 2808   7.599  10.044   5.413
  198POPC   C4B 2809   7.806  10.028   5.782
  199POPC   NC3 2810   4.888   1.814   3.747
  199POPC   PO4 2811   4.512   2.242   3.941
  199POPC   GL1 2812   4.726   1.909   4.236
  199POPC   GL2 2813   4.997   1.646   4.248
  199POPC   C1A 2814   4.656   1.696   4.650
  199POPC   D2A 2815   4.878   1.685   5.067
  199POPC   C3A 2816   4.663   1.673   5.472
  199POPC   C4A 2817   4.666   1.902   5.866
  199POPC   C1B 2818   5.194   1.782   4.640
  199POPC   C2B 2819   5.262   2.020   5.042
  199POPC   C3B 2820   4.967   2.095   5.417
  199POPC   C4B 2821   5.105   2.206   5.844
  200POPC   NC3 2822   2.246   2.228   3.954
  200POPC   PO4 2823   1.739   2.494   3.646
  200POPC   GL1 2824   1.718   2.282   4.117
  200POPC   GL2 2825   1.925   1.975   4.243
  200POPC   C1A 2826   1.710   2.291   4.609
  200POPC   D2A 2827   1.864   2.180   5.047
  200POPC   C3A 2828   1.679   2.322   5.445
  200POPC   C4A 2829   1.459   2.023   5.700
  200POPC   C1B 2830   1.909   1.815   4.667
  200POPC   C2B 2831   1.812   1.677   5.113
  200POPC   C3B 2832   1.931   1.870   5.551
  200POPC   C4B 2833   1.766   1.750   5.994
  201POPC   NC3 2834   3.151   3.588   4.058
  201POPC   PO4 2835   2.615   3.401   3.797
  201POPC   GL1 2836   2.503   3.327   4.218
  201POPC   GL2 2837   2.812   3.319   4.419
  201POPC   C1A 2838   2.355   3.456   4.646
  201POPC   D2A 2839   2.580   3.359   5.023
  201POPC   C3A 2840   2.496   3.370   5.428
  201POPC   C4A 2841   2.781   3.267   5.785
  201POPC   C1B 2842   2.782   3.725   4.732
  201POPC   C2B 2843   2.581   3.853   5.189
  201POPC   C3B 2844   2.625   3.789   5.694
  201POPC   C4B 2845   2.893   3.677   6.088
  202POPC   NC3 2846   5.281   9.399   3.896
  202POPC   PO4 2847   4.738   9.789   3.960
  202POPC   GL1 2848   4.863   9.710   4.372
  202POPC   GL2 2849   5.074   9.438   4.352
  202POPC   C1A 2850   4.931   9.575   4.817
  202POPC   D2A 2851   4.654   9.398   5.101
  202POPC   C3A 2852   4.755   9.420   5.517
  202POPC   C4A 2853   4.678   9.132   5.824
  202POPC   C1B 2854   5.276   9.205   4.691
  202POPC   C2B 2855   5.111   9.071   5.130
  202POPC   C3B 2856   5.167   9.105   5.620
  202POPC   C4B 2857   5.191   9.078   6.097
  203POPC   NC3 2858   9.236   2.622   3.950
  203POPC   PO4 2859   9.500   1.989   3.971
  203POPC   GL1 2860   9.356   2.270   4.280
  203POPC   GL2 2861   9.517   2.576   4.369
  203POPC   C1A 2862   9.276   2.241   4.687
  203POPC   D2A 2863   9.303   2.268   5.145
  203POPC   C3A 2864   9.764   2.349   5.265
  203POPC   C4A 2865   9.783   2.339   5.729
  203POPC   C1B 2866   9.647   2.543   4.788
  203POPC   C2B 2867   9.451   2.749   5.108
  203POPC   C3B 2868   9.526   2.706   5.519
  203POPC   C4B 2869   9.376   2.732   5.899
  204POPC   NC3 2870   2.240   5.105   4.119
  204POPC   PO4 2871   1.595   4.918   3.960
  204POPC   GL1 2872   1.713   5.155   4.306
  204POPC   GL2 2873   1.911   4.867   4.406
  204POPC   C1A 2874   1.712   5.441   4.717
  204POPC   D2A 2875   1.873   5.426   5.162
  204POPC   C3A 2876   1.622   5.418   5.554
  204POPC   C4A 2877   1.790   5.136   5.896
  204POPC   C1B 2878   2.050   5.053   4.795
  204POPC   C2B 2879   2.188   4.965   5.210
  204POPC   C3B 2880   2.050   4.832   5.564
  204POPC   C4B 2881   2.171   4.465   5.727
  205POPC   NC3 2882   2.185   5.651   3.666
  205POPC   PO4 2883   1.604   5.722   3.889
  205POPC   GL1 2884   1.969   5.569   4.139
  205POPC   GL2 2885   2.150   5.873   4.141
  205POPC   C1A 2886   2.185   5.569   4.569
  205POPC   D2A 2887   2.106   5.796   4.930
  205POPC   C3A 2888   2.249   5.751   5.382
  205POPC   C4A 2889   2.150   5.349   5.591
  205POPC   C1B 2890   1.806   5.923   4.491
  205POPC   C2B 2891   1.683   6.054   4.914
  205POPC   C3B 2892   1.763   5.950   5.337
  205POPC   C4B 2893   1.898   5.816   5.747
  206POPC   NC3 2894   5.813   0.657   4.001
  206POPC   PO4 2895   6.051   0.049   3.992
  206POPC   GL1 2896   5.839   0.000   4.374
  206POPC   GL2 2897   5.619   0.256   4.288
  206POPC   C1A 2898   5.804   0.114   4.791
  206POPC   D2A 2899   5.517   0.196   5.091
  206POPC   C3A 2900   5.649   0.160   5.468
  206POPC   C4A 2901   6.065   0.231   5.611
  206POPC   C1B 2902   5.486   0.497   4.644
  206POPC   C2B 2903   5.525   0.752   5.007
  206POPC   C3B 2904   5.402   0.747   5.431
  206POPC   C4B 2905   5.719   0.609   5.689
  207POPC   NC3 2906   6.573   1.306   3.969
  207POPC   PO4 2907   6.662   0.701   3.870
  207POPC   GL1 2908   6.554   0.976   4.320
  207POPC   GL2 2909   6.230   1.079   4.392
  207POPC   C1A 2910   6.595   1.143   4.748
  207POPC   D2A 2911   6.536   1.023   5.175
  207POPC   C3A 2912   6.873   1.187   5.429
  207POPC   C4A 2913   6.852   1.356   5.835
  207POPC   C1B 2914   6.150   1.409   4.682
  207POPC   C2B 2915   6.363   1.552   5.051
  207POPC   C3B 2916   6.452   1.441   5.471
  207POPC   C4B 2917   6.430   1.078   5.733
  208POPC   NC3 2918   7.057   3.008   3.552
  208POPC   PO4 2919   6.717   2.687   4.003
  208POPC   GL1 2920   7.094   2.673   4.310
  208POPC   GL2 2921   7.222   2.311   4.290
  208POPC   C1A 2922   7.278   2.947   4.670
  208POPC   D2A 2923   7.179   3.105   5.102
  208POPC   C3A 2924   7.306   3.007   5.536
  208POPC   C4A 2925   7.255   3.053   6.016
  208POPC   C1B 2926   7.411   2.459   4.663
  208POPC   C2B 2927   7.269   2.588   5.047
  208POPC   C3B 2928   7.424   2.520   5.443
  208POPC   C4B 2929   7.292   2.581   5.822
  209POPC   NC3 2930   9.904   3.746   3.615
  209POPC   PO4 2931  10.385   4.057   3.907
  209POPC   GL1 2932  10.189   4.176   4.254
  209POPC   GL2 2933  10.317   4.434   4.351
  209POPC   C1A 2934   9.923   4.189   4.609
  209POPC   D2A 2935   9.707   4.322   4.980
  209POPC   C3A 2936   9.919   4.091   5.280
  209POPC   C4A 2937  10.038   4.079   5.655
  209POPC   C1B 2938  10.431   4.106   4.686
  209POPC   C2B 2939  10.393   3.933   5.099
  209POPC   C3B 2940  10.428   4.260   5.402
  209POPC   C4B 2941  10.368   4.421   5.794
  210POPC   NC3 2942   7.841   3.270   4.114
  210POPC   PO4 2943   8.246   3.679   3.998
  210POPC   GL1 2944   8.123   3.566   4.429
  210POPC   GL2 2945   8.123   3.187   4.533
  210POPC   C1A 2946   8.193   3.546   4.885
  210POPC   D2A 2947   8.128   3.177   5.178
  210POPC   C3A 2948   8.060   3.318   5.618
  210POPC   C4A 2949   7.961   3.648   5.939
  210POPC   C1B 2950   7.747   3.312   4.826
  210POPC   C2B 2951   7.632   3.348   5.289
  210POPC   C3B 2952   7.536   3.434   5.740
  210POPC   C4B 2953   7.613   3.379   6.197
  211POPC   NC3 2954   0.234   8.881   4.016
  211POPC   PO4 2955   0.563   8.334   3.881
  211POPC   GL1 2956   0.563   8.521   4.292
  211POPC   GL2 2957   0.216   8.563   4.417
  211POPC   C1A 2958   0.564   8.326   4.702
  211POPC   D2A 2959   0.457   8.074   5.034
  211POPC   C3A 2960   0.438   8.324   5.399
  211POPC   C4A 2961   0.509   8.561   5.764
  211POPC   C1B 2962   0.450   8.924   4.630
  211POPC   C2B 2963   0.469   9.096   5.031
  211POPC   C3B 2964   0.368   8.880   5.397
  211POPC   C4B 2965   0.170   8.959   5.775
  212POPC   NC3 2966   2.371   6.585   4.054
  212POPC   PO4 2967   1.743   6.712   3.888
  212POPC   GL1 2968   1.681   6.746   4.312
  212POPC   GL2 2969   1.960   6.533   4.353
  212POPC   C1A 2970   1.762   6.706   4.775
  212POPC   D2A 2971   1.772   6.490   5.158
  212POPC   C3A 2972   1.728   6.644   5.573
  212POPC   C4A 2973   1.832   6.431   5.987
  212POPC   C1B 2974   2.105   6.284   4.713
  212POPC   C2B 2975   2.202   6.228   5.153
  212POPC   C3B 2976   2.098   6.264   5.575
  212POPC   C4B 2977   2.345   6.408   5.907
  213POPC   NC3 2978  10.140   4.467   3.841
  213POPC   PO4 2979   9.989   5.149   3.719
  213POPC   GL1 2980   9.986   4.872   4.120
  213POPC   GL2 2981  10.309   4.916   4.159
  213POPC   C1A 2982   9.976   4.696   4.592
  213POPC   D2A 2983  10.198   4.475   4.977
  213POPC   C3A 2984  10.020   4.572   5.400
  213POPC   C4A 2985   9.867   4.534   5.838
  213POPC   C1B 2986  10.230   5.133   4.550
  213POPC   C2B 2987  10.176   4.992   4.987
  213POPC   C3B 2988  10.094   5.066   5.437
  213POPC   C4B 2989  10.194   4.914   5.839
  214POPC   NC3 2990   3.380   2.652   3.692
  214POPC   PO4 2991   3.249   3.153   4.109
  214POPC   GL1 2992   3.501   2.750   4.243
  214POPC   GL2 2993   3.338   2.410   4.276
  214POPC   C1A 2994   3.781   2.705   4.645
  214POPC   D2A 2995   3.858   2.852   5.092
  214POPC   C3A 2996   3.661   2.793   5.518
  214POPC   C4A 2997   3.593   2.639   5.951
  214POPC   C1B 2998   3.292   2.672   4.706
  214POPC   C2B 2999   3.250   2.740   5.156
  214POPC   C3B 3000   3.196   2.561   5.582
  214POPC   C4B 3001   3.107   2.826   5.963
  215POPC   NC3 3002   1.529   8.742   3.827
  215POPC   PO4 3003   2.140   9.156   3.816
  215POPC   GL1 3004   1.926   8.925   4.169
  215POPC   GL2 3005   1.760   8.594   4.247
  215POPC   C1A 3006   2.020   8.820   4.631
  215POPC   D2A 3007   1.863   8.681   5.040
  215POPC   C3A 3008   2.074   8.739   5.424
  215POPC   C4A 3009   2.300   8.827   5.779
  215POPC   C1B 3010   1.634   8.421   4.636
  215POPC   C2B 3011   1.691   8.150   4.975
  215POPC   C3B 3012   1.857   8.220   5.377
  215POPC   C4B 3013   2.040   8.361   5.762
  216POPC   NC3 3014   0.395   9.417   3.708
  216POPC   PO4 3015  10.318   8.998   3.811
  216POPC   GL1 3016  10.420   9.145   4.274
  216POPC   GL2 3017   0.252   9.350   4.282
  216POPC   C1A 3018   0.030   9.238   4.737
  216POPC   D2A 3019   0.186   9.548   5.038
  216POPC   C3A 3020   0.302   9.385   5.444
  216POPC   C4A 3021   0.014   9.553   5.740
  216POPC   C1B 3022   0.528   9.467   4.670
  216POPC   C2B 3023   0.715   9.539   5.133
  216POPC   C3B 3024   0.682   9.726   5.634
  216POPC   C4B 3025   0.744   9.667   6.155
  217POPC   NC3 3026   4.192   7.938   3.879
  217POPC   PO4 3027   3.679   8.322   3.875
  217POPC   GL1 3028   3.750   8.012   4.244
  217POPC   GL2 3029   4.115   7.916   4.377
  217POPC   C1A 3030   3.753   7.822   4.696
  217POPC   D2A 3031   3.771   8.043   5.099
  217POPC   C3A 3032   3.861   7.805   5.492
  217POPC   C4A 3033   4.146   7.739   5.847
  217POPC   C1B 3034   4.282   8.059   4.818
  217POPC   C2B 3035   4.290   7.967   5.268
  217POPC   C3B 3036   4.618   7.848   5.593
  217POPC   C4B 3037   4.817   7.674   5.976
  218POPC   NC3 3038   0.608   7.037   4.011
  218POPC   PO4 3039   0.040   7.093   3.666
  218POPC   GL1 3040   0.149   7.154   4.193
  218POPC   GL2 3041   0.420   7.423   4.312
  218POPC   C1A 3042   0.152   7.178   4.677
  218POPC   D2A 3043   0.405   7.316   5.057
  218POPC   C3A 3044   0.299   7.356   5.502
  218POPC   C4A 3045   0.281   7.431   5.955
  218POPC   C1B 3046   0.668   7.141   4.644
  218POPC   C2B 3047   0.847   7.010   5.041
  218POPC   C3B 3048   0.802   7.256   5.398
  218POPC   C4B 3049   0.661   7.127   5.786
  219POPC   NC3 3050   0.893   0.471   4.204
  219POPC   PO4 3051   0.321   0.285   3.860
  219POPC   GL1 3052   0.399   0.552   4.220
  219POPC   GL2 3053   0.124   0.669   4.289
  219POPC   C1A 3054   0.495   0.603   4.691
  219POPC   D2A 3055   0.738   0.413   5.024
  219POPC   C3A 3056   0.806   0.652   5.412
  219POPC   C4A 3057   0.744   0.433   5.791
  219POPC   C1B 3058   0.119   0.307   4.591
  219POPC   C2B 3059   0.114   0.394   5.034
  219POPC   C3B 3060   0.365   0.364   5.378
  219POPC   C4B 3061   0.196   0.327   5.732
  220POPC   NC3 3062   6.365   2.833   4.251
  220POPC   PO4 3063   6.075   2.308   4.029
  220POPC   GL1 3064   6.323   2.327   4.414
  220POPC   GL2 3065   6.666   2.400   4.415
  220POPC   C1A 3066   6.396   2.423   4.842
  220POPC   D2A 3067   6.453   2.710   5.179
  220POPC   C3A 3068   6.305   2.564   5.568
  220POPC   C4A 3069   6.305   2.731   6.024
  220POPC   C1B 3070   6.915   2.384   4.724
  220POPC   C2B 3071   6.827   2.364   5.130
  220POPC   C3B 3072   6.914   2.645   5.435
  220POPC   C4B 3073   6.756   2.558   5.809
  221POPC   NC3 3074   1.714   8.066   4.063
  221POPC   PO4 3075   1.662   7.417   3.954
  221POPC   GL1 3076   2.016   7.680   4.208
  221POPC   GL2 3077   1.997   8.028   4.467
  221POPC   C1A 3078   2.285   7.607   4.601
  221POPC   D2A 3079   2.281   7.858   4.997
  221POPC   C3A 3080   2.121   7.726   5.404
  221POPC   C4A 3081   2.140   7.434   5.749
  221POPC   C1B 3082   1.779   7.704   4.666
  221POPC   C2B 3083   1.727   7.590   5.074
  221POPC   C3B 3084   1.612   7.659   5.471
  221POPC   C4B 3085   1.806   7.893   5.773
  222POPC   NC3 3086   0.998   7.786   3.777
  222POPC   PO4 3087   1.342   8.347   3.997
  222POPC   GL1 3088   1.281   8.149   4.340
  222POPC   GL2 3089   1.307   7.785   4.191
  222POPC   C1A 3090   1.124   8.242   4.766
  222POPC   D2A 3091   0.935   8.201   5.181
  222POPC   C3A 3092   1.264   8.257   5.481
  222POPC   C4A 3093   1.524   8.300   5.856
  222POPC   C1B 3094   1.278   7.757   4.635
  222POPC   C2B 3095   1.283   7.836   5.051
  222POPC   C3B 3096   1.103   7.777   5.415
  222POPC   C4B 3097   1.268   7.856   5.790
  223POPC   NC3 3098   0.195   7.941   3.906
  223POPC   PO4 3099   0.655   7.855   3.463
  223POPC   GL1 3100   0.644   7.878   4.099
  223POPC   GL2 3101   0.361   8.007   4.363
  223POPC   C1A 3102   0.775   7.857   4.590
  223POPC   D2A 3103   0.806   7.627   5.000
  223POPC   C3A 3104   0.605   7.764   5.398
  223POPC   C4A 3105   0.764   8.084   5.703
  223POPC   C1B 3106   0.254   7.712   4.728
  223POPC   C2B 3107   0.083   7.713   5.173
  223POPC   C3B 3108   0.155   7.826   5.625
  223POPC   C4B 3109   0.137   8.215   5.838
  224POPC   NC3 3110  10.148   3.705   4.080
  224POPC   PO4 3111   9.800   3.292   3.637
  224POPC   GL1 3112   9.872   3.211   4.123
  224POPC   GL2 3113  10.230   3.190   4.222
  224POPC   C1A 3114   9.927   3.375   4.615
  224POPC   D2A 3115  10.173   3.407   5.040
  224POPC   C3A 3116  10.061   3.588   5.471
  224POPC   C4A 3117   9.964   3.681   5.939
  224POPC   C1B 3118  10.423   3.103   4.627
  224POPC   C2B 3119  10.452   2.976   5.048
  224POPC   C3B 3120  10.317   3.081   5.448
  224POPC   C4B 3121  10.294   3.268   5.847
  225POPC   NC3 3122   1.811   0.639   4.096
  225POPC   PO4 3123   2.317   0.975   3.935
  225POPC   GL1 3124   2.301   0.654   4.276
  225POPC   GL2 3125   2.040   0.370   4.443
  225POPC   C1A 3126   2.203   0.776   4.679
  225POPC   D2A 3127   1.929   0.574   4.951
  225POPC   C3A 3128   2.112   0.644   5.337
  225POPC   C4A 3129   2.160   0.531   5.764
  225POPC   C1B 3130   1.684   0.170   4.695
  225POPC   C2B 3131   1.706   0.103   5.131
  225POPC   C3B 3132   1.639   0.467   5.369
  225POPC   C4B 3133   1.636   0.565   5.785
  226POPC   NC3 3134   7.263   1.527   3.864
  226POPC   PO4 3135   7.854   1.826   3.843
  226POPC   GL1 3136   7.620   1.569   4.235
  226POPC   GL2 3137   7.331   1.800   4.324
  226POPC   C1A 3138   7.519   1.552   4.730
  226POPC   D2A 3139   7.562   1.678   5.192
  226POPC   C3A 3140   7.175   1.660   5.477
  226POPC   C4A 3141   7.137   1.769   5.906
  226POPC   C1B 3142   7.169   1.946   4.752
  226POPC   C2B 3143   7.259   2.096   5.197
  226POPC   C3B 3144   7.063   2.177   5.621
  226POPC   C4B 3145   6.859   2.145   6.081
  227POPC   NC3 3146   7.972   7.995   3.932
  227POPC   PO4 3147   8.415   7.531   3.979
  227POPC   GL1 3148   8.140   7.644   4.314
  227POPC   GL2 3149   7.879   7.884   4.417
  227POPC   C1A 3150   8.077   7.572   4.763
  227POPC   D2A 3151   8.184   7.795   5.156
  227POPC   C3A 3152   8.122   7.575   5.556
  227POPC   C4A 3153   7.927   7.564   5.952
  227POPC   C1B 3154   7.622   7.815   4.797
  227POPC   C2B 3155   7.709   7.973   5.205
  227POPC   C3B 3156   7.652   7.903   5.650
  227POPC   C4B 3157   7.754   8.073   6.076
  228POPC   NC3 3158   4.364   2.658   3.868
  228POPC   PO4 3159   3.792   2.305   3.882
  228POPC   GL1 3160   3.885   2.343   4.289
  228POPC   GL2 3161   4.217   2.485   4.338
  228POPC   C1A 3162   3.968   2.243   4.716
  228POPC   D2A 3163   4.128   2.386   5.114
  228POPC   C3A 3164   4.143   2.603   5.484
  228POPC   C4A 3165   4.052   2.460   5.866
  228POPC   C1B 3166   4.293   2.688   4.751
  228POPC   C2B 3167   4.360   2.923   5.146
  228POPC   C3B 3168   4.310   3.076   5.581
  228POPC   C4B 3169   4.504   2.901   5.983
  229POPC   NC3 3170   9.663   5.351   3.977
  229POPC   PO4 3171   9.137   5.095   3.648
  229POPC   GL1 3172   9.240   4.926   4.161
  229POPC   GL2 3173   9.533   5.012   4.304
  229POPC   C1A 3174   9.181   5.062   4.652
  229POPC   D2A 3175   9.354   5.298   5.044
  229POPC   C3A 3176   9.217   5.149   5.497
  229POPC   C4A 3177   9.038   5.164   5.923
  229POPC   C1B 3178   9.703   5.118   4.703
  229POPC   C2B 3179   9.686   4.881   5.102
  229POPC   C3B 3180   9.532   4.737   5.508
  229POPC   C4B 3181   9.412   4.768   5.963
  230POPC   NC3 3182   7.952   7.198   3.922
  230POPC   PO4 3183   7.535   7.715   3.928
  230POPC   GL1 3184   7.649   7.446   4.340
  230POPC   GL2 3185   7.946   7.201   4.414
  230POPC   C1A 3186   7.626   7.297   4.792
  230POPC   D2A 3187   7.780   7.453   5.202
  230POPC   C3A 3188   7.561   7.393   5.626
  230POPC   C4A 3189   7.579   7.171   6.049
  230POPC   C1B 3190   8.098   7.011   4.789
  230POPC   C2B 3191   8.040   6.906   5.266
  230POPC   C3B 3192   7.987   7.075   5.724
  230POPC   C4B 3193   8.090   7.133   6.195
  231POPC   NC3 3194  10.484   6.291   3.978
  231POPC   PO4 3195   9.957   6.044   4.056
  231POPC   GL1 3196  10.153   6.297   4.360
  231POPC   GL2 3197  10.198   6.652   4.269
  231POPC   C1A 3198  10.317   6.272   4.772
  231POPC   D2A 3199  10.067   6.331   5.127
  231POPC   C3A 3200  10.181   6.081   5.470
  231POPC   C4A 3201  10.168   6.157   5.852
  231POPC   C1B 3202  10.333   6.773   4.727
  231POPC   C2B 3203  10.424   6.685   5.186
  231POPC   C3B 3204  10.127   6.590   5.572
  231POPC   C4B 3205   9.914   6.530   6.026
  232POPC   NC3 3206   5.644  10.329   3.946
  232POPC   PO4 3207   5.879   9.701   3.904
  232POPC   GL1 3208   5.893   9.978   4.260
  232POPC   GL2 3209   5.546  10.029   4.325
  232POPC   C1A 3210   5.831  10.094   4.722
  232POPC   D2A 3211   5.863  10.229   5.146
  232POPC   C3A 3212   6.059   9.973   5.477
  232POPC   C4A 3213   5.798  10.243   5.713
  232POPC   C1B 3214   5.226   9.959   4.618
  232POPC   C2B 3215   5.370  10.021   5.019
  232POPC   C3B 3216   5.539   9.919   5.406
  232POPC   C4B 3217   5.279   9.905   5.773
  233POPC   NC3 3218   0.665  10.371   3.835
  233POPC   PO4 3219   0.349   9.791   3.970
  233POPC   GL1 3220   0.457  10.084   4.262
  233POPC   GL2 3221   0.270  10.399   4.200
  233POPC   C1A 3222   0.482  10.014   4.709
  233POPC   D2A 3223   0.545  10.002   5.148
  233POPC   C3A 3224   0.247   9.881   5.430
  233POPC   C4A 3225   0.247  10.059   5.804
  233POPC   C1B 3226   0.542   0.016   4.552
  233POPC   C2B 3227   0.378  10.475   4.967
  233POPC   C3B 3228   0.276  10.380   5.385
  233POPC   C4B 3229   0.546  10.469   5.712
  234POPC   NC3 3230  10.433  10.042   3.939
  234POPC   PO4 3231  10.036   0.116   3.974
  234POPC   GL1 3232  10.247  10.360   4.294
  234POPC   GL2 3233  10.079  10.065   4.462
  234POPC   C1A 3234  10.299  10.437   4.725
  234POPC   D2A 3235  10.069   0.028   5.067
  234POPC   C3A 3236  10.336   0.153   5.406
  234POPC   C4A 3237  10.412  10.434   5.791
  234POPC   C1B 3238  10.469   9.926   4.613
  234POPC   C2B 3239   0.047  10.069   5.006
  234POPC   C3B 3240  10.318  10.140   5.371
  234POPC   C4B 3241  10.171  10.005   5.786
  235POPC   NC3 3242   3.412   0.718   3.977
  235POPC   PO4 3243   3.459   0.023   3.898
  235POPC   GL1 3244   3.541   0.191   4.308
  235POPC   GL2 3245   3.427   0.507   4.422
  235POPC   C1A 3246   3.623   0.109   4.747
  235POPC   D2A 3247   3.292   0.050   5.095
  235POPC   C3A 3248   3.394   0.175   5.540
  235POPC   C4A 3249   3.521   0.316   5.959
  235POPC   C1B 3250   3.129   0.342   4.676
  235POPC   C2B 3251   2.907   0.453   5.027
  235POPC   C3B 3252   2.964   0.370   5.424
  235POPC   C4B 3253   3.168   0.611   5.738
  236POPC   NC3 3254   9.697   6.337   3.810
  236POPC   PO4 3255   9.163   6.578   4.103
  236POPC   GL1 3256   9.635   6.516   4.278
  236POPC   GL2 3257   9.632   6.173   4.454
  236POPC   C1A 3258   9.861   6.542   4.680
  236POPC   D2A 3259   9.538   6.645   4.951
  236POPC   C3A 3260   9.654   6.551   5.335
  236POPC   C4A 3261   9.643   6.757   5.685
  236POPC   C1B 3262   9.622   6.155   4.941
  236POPC   C2B 3263   9.229   6.298   5.190
  236POPC   C3B 3264   9.235   6.412   5.616
  236POPC   C4B 3265   9.636   6.220   5.724
  237POPC   NC3 3266   1.209   4.636   3.946
  237POPC   PO4 3267   0.858   5.188   3.870
  237POPC   GL1 3268   1.153   5.003   4.289
  237POPC   GL2 3269   1.426   4.704   4.386
  237POPC   C1A 3270   1.061   4.810   4.730
  237POPC   D2A 3271   0.962   5.058   5.111
  237POPC   C3A 3272   1.050   4.935   5.553
  237POPC   C4A 3273   1.296   5.130   5.914
  237POPC   C1B 3274   1.530   4.971   4.734
  237POPC   C2B 3275   1.469   5.121   5.145
  237POPC   C3B 3276   1.548   4.888   5.517
  237POPC   C4B 3277   1.344   4.520   5.699
  238POPC   NC3 3278   8.690   8.368   4.141
  238POPC   PO4 3279   8.449   8.958   3.954
  238POPC   GL1 3280   8.508   8.798   4.348
  238POPC   GL2 3281   8.883   8.777   4.352
  238POPC   C1A 3282   8.622   8.842   4.777
  238POPC   D2A 3283   8.648   8.623   5.141
  238POPC   C3A 3284   8.748   8.879   5.464
  238POPC   C4A 3285   8.480   8.969   5.771
  238POPC   C1B 3286   8.918   8.428   4.731
  238POPC   C2B 3287   9.074   8.209   5.097
  238POPC   C3B 3288   8.906   8.365   5.502
  238POPC   C4B 3289   8.492   8.469   5.716
  239POPC   NC3 3290   7.291   8.124   3.912
  239POPC   PO4 3291   6.973   8.736   3.818
  239POPC   GL1 3292   7.010   8.651   4.256
  239POPC   GL2 3293   7.311   8.526   4.312
  239POPC   C1A 3294   7.054   8.836   4.670
  239POPC   D2A 3295   7.212   8.934   5.091
  239POPC   C3A 3296   6.967   8.667   5.372
  239POPC   C4A 3297   6.779   8.578   5.775
  239POPC   C1B 3298   7.578   8.736   4.650
  239POPC   C2B 3299   7.744   8.725   5.076
  239POPC   C3B 3300   7.542   8.836   5.485
  239POPC   C4B 3301   7.271   8.632   5.789
  240POPC   NC3 3302   4.301   1.009   3.827
  240POPC   PO4 3303   3.813   1.529   3.885
  240POPC   GL1 3304   3.977   1.198   4.191
  240POPC   GL2 3305   4.302   1.119   4.308
  240POPC   C1A 3306   3.931   1.170   4.658
  240POPC   D2A 3307   4.158   1.284   5.050
  240POPC   C3A 3308   4.077   1.112   5.460
  240POPC   C4A 3309   3.960   1.253   5.867
  240POPC   C1B 3310   4.357   0.913   4.664
  240POPC   C2B 3311   4.184   0.758   5.025
  240POPC   C3B 3312   4.244   0.633   5.408
  240POPC   C4B 3313   4.302   0.785   5.807
  241POPC   NC3 3314   9.892   9.201   3.937
  241POPC   PO4 3315   9.998   9.900   3.987
  241POPC   GL1 3316   9.849   9.632   4.238
  241POPC   GL2 3317  10.188   9.577   4.348
  241POPC   C1A 3318   9.805   9.686   4.668
  241POPC   D2A 3319  10.165   9.602   4.952
  241POPC   C3A 3320  10.142   9.661   5.400
  241POPC   C4A 3321   9.878   9.600   5.787
  241POPC   C1B 3322  10.035   9.233   4.590
  241POPC   C2B 3323  10.088   9.068   4.984
  241POPC   C3B 3324  10.346   9.185   5.303
  241POPC   C4B 3325  10.187   9.175   5.703
  242POPC   NC3 3326   6.358   7.772   3.988
  242POPC   PO4 3327   6.286   8.376   4.068
  242POPC   GL1 3328   6.615   8.317   4.290
  242POPC   GL2 3329   6.527   8.021   4.406
  242POPC   C1A 3330   6.823   8.378   4.678
  242POPC   D2A 3331   6.927   8.216   5.083
  242POPC   C3A 3332   6.684   8.206   5.437
  242POPC   C4A 3333   6.765   8.067   5.833
  242POPC   C1B 3334   6.519   8.004   4.853
  242POPC   C2B 3335   6.571   7.766   5.215
  242POPC   C3B 3336   6.417   7.760   5.634
  242POPC   C4B 3337   6.563   7.609   6.039
  243POPC   NC3 3338   8.633   0.824   3.906
  243POPC   PO4 3339   8.602   1.477   3.998
  243POPC   GL1 3340   8.746   1.177   4.292
  243POPC   GL2 3341   8.975   1.416   4.386
  243POPC   C1A 3342   8.881   1.006   4.702
  243POPC   D2A 3343   8.651   1.027   5.103
  243POPC   C3A 3344   8.737   0.764   5.464
  243POPC   C4A 3345   8.709   0.955   5.851
  243POPC   C1B 3346   8.672   1.480   4.761
  243POPC   C2B 3347   8.770   1.510   5.207
  243POPC   C3B 3348   8.599   1.371   5.587
  243POPC   C4B 3349   8.556   1.420   6.053
  244POPC   NC3 3350   2.474   9.476   3.897
  244POPC   PO4 3351   2.614   9.072   4.328
  244POPC   GL1 3352   2.572   9.503   4.397
  244POPC   GL2 3353   2.897   9.516   4.254
  244POPC   C1A 3354   2.459   9.523   4.802
  244POPC   D2A 3355   2.342   9.140   5.031
  244POPC   C3A 3356   2.267   9.224   5.445
  244POPC   C4A 3357   2.474   9.289   5.840
  244POPC   C1B 3358   2.960   9.423   4.716
  244POPC   C2B 3359   2.865   9.556   5.129
  244POPC   C3B 3360   2.588   9.630   5.476
  244POPC   C4B 3361   2.701   9.749   5.921
  245POPC   NC3 3362   5.788   8.593   4.021
  245POPC   PO4 3363   5.293   8.253   4.075
  245POPC   GL1 3364   5.296   8.663   4.301
  245POPC   GL2 3365   5.598   8.820   4.428
  245POPC   C1A 3366   5.260   8.713   4.763
  245POPC   D2A 3367   5.454   8.505   5.092
  245POPC   C3A 3368   5.298   8.648   5.448
  245POPC   C4A 3369   5.449   8.689   5.850
  245POPC   C1B 3370   5.807   8.655   4.737
  245POPC   C2B 3371   5.964   8.598   5.143
  245POPC   C3B 3372   5.818   8.485   5.532
  245POPC   C4B 3373   5.976   8.703   5.887
  246POPC   NC3 3374   9.430   3.076   3.784
  246POPC   PO4 3375   9.686   3.688   4.025
  246POPC   GL1 3376   9.435   3.433   4.299
  246POPC   GL2 3377   9.353   3.058   4.276
  246POPC   C1A 3378   9.442   3.585   4.701
  246POPC   D2A 3379   9.725   3.733   4.993
  246POPC   C3A 3380   9.540   3.694   5.412
  246POPC   C4A 3381   9.537   3.458   5.796
  246POPC   C1B 3382   9.522   3.057   4.692
  246POPC   C2B 3383   9.611   3.241   5.108
  246POPC   C3B 3384   9.315   3.149   5.463
  246POPC   C4B 3385   9.072   3.151   5.860
  247POPC   NC3 3386   0.325   1.901   3.724
  247POPC   PO4 3387   0.790   1.784   4.139
  247POPC   GL1 3388   0.461   1.636   4.354
  247POPC   GL2 3389   0.118   1.713   4.249
  247POPC   C1A 3390   0.362   1.766   4.753
  247POPC   D2A 3391   0.504   1.931   5.130
  247POPC   C3A 3392   0.569   1.682   5.458
  247POPC   C4A 3393   0.748   1.659   5.835
  247POPC   C1B 3394   0.084   2.121   4.511
  247POPC   C2B 3395   0.068   2.134   4.968
  247POPC   C3B 3396   0.180   2.212   5.413
  247POPC   C4B 3397   0.324   1.976   5.790
  248POPC   NC3 3398   9.608   0.094   3.779
  248POPC   PO4 3399   9.048   0.589   3.885
  248POPC   GL1 3400   9.077   0.611   4.376
  248POPC   GL2 3401   9.368   0.385   4.428
  248POPC   C1A 3402   9.272   0.700   4.788
  248POPC   D2A 3403   9.132   0.859   5.153
  248POPC   C3A 3404   9.238   0.659   5.559
  248POPC   C4A 3405   9.652   0.635   5.761
  248POPC   C1B 3406   9.364   0.082   4.761
  248POPC   C2B 3407   9.555  10.492   5.143
  248POPC   C3B 3408   9.481   0.190   5.544
  248POPC   C4B 3409   9.253   0.274   5.918
  249POPC   NC3 3410   8.541   3.335   3.860
  249POPC   PO4 3411   8.815   3.987   3.760
  249POPC   GL1 3412   8.765   3.694   4.155
  249POPC   GL2 3413   8.931   3.364   4.205
  249POPC   C1A 3414   8.594   3.464   4.563
  249POPC   D2A 3415   8.625   3.286   5.005
  249POPC   C3A 3416   8.433   3.558   5.330
  249POPC   C4A 3417   8.416   3.745   5.724
  249POPC   C1B 3418   9.046   3.256   4.647
  249POPC   C2B 3419   9.141   3.422   5.071
  249POPC   C3B 3420   8.918   3.474   5.467
  249POPC   C4B 3421   8.576   3.244   5.701
  250POPC   NC3 3422  10.187   5.686   3.823
  250POPC   PO4 3423   0.292   5.582   3.909
  250POPC   GL1 3424   0.126   5.600   4.326
  250POPC   GL2 3425  10.404   5.857   4.262
  250POPC   C1A 3426   0.035   5.476   4.772
  250POPC   D2A 3427   0.009   5.327   5.205
  250POPC   C3A 3428  10.238   5.551   5.478
  250POPC   C4A 3429  10.440   5.744   5.788
  250POPC   C1B 3430  10.167   5.803   4.616
  250POPC   C2B 3431  10.138   5.830   5.039
  250POPC   C3B 3432   9.763   5.849   5.335
  250POPC   C4B 3433   9.841   5.757   5.771
  251POPC   NC3 3434   9.117   9.724   3.811
  251POPC   PO4 3435   9.433   9.089   3.836
  251POPC   GL1 3436   9.380   9.440   4.153
  251POPC   GL2 3437   9.251   9.175   4.310
  251POPC   C1A 3438   9.257   9.612   4.606
  251POPC   D2A 3439   9.308   9.832   5.022
  251POPC   C3A 3440   9.502   9.731   5.407
  251POPC   C4A 3441   9.408   9.861   5.823
  251POPC   C1B 3442   9.540   9.220   4.640
  251POPC   C2B 3443   9.650   9.382   5.020
  251POPC   C3B 3444   9.789   9.304   5.377
  251POPC   C4B 3445   9.504   9.287   5.692
  252POPC   NC3 3446   3.104   5.491   4.027
  252POPC   PO4 3447   2.475   5.461   3.950
  252POPC   GL1 3448   2.648   5.572   4.302
  252POPC   GL2 3449   2.589   5.912   4.395
  252POPC   C1A 3450   2.668   5.487   4.732
  252POPC   D2A 3451   2.403   5.391   5.066
  252POPC   C3A 3452   2.631   5.307   5.471
  252POPC   C4A 3453   2.594   5.354   5.938
  252POPC   C1B 3454   2.567   5.977   4.854
  252POPC   C2B 3455   2.738   5.760   5.217
  252POPC   C3B 3456   2.796   5.758   5.662
  252POPC   C4B 3457   2.821   6.129   5.954
  253POPC   NC3 3458   2.194   3.585   3.765
  253POPC   PO4 3459   1.654   3.289   4.048
  253POPC   GL1 3460   1.993   3.202   4.272
  253POPC   GL2 3461   2.035   3.547   4.268
  253POPC   C1A 3462   1.992   3.074   4.684
  253POPC   D2A 3463   1.780   3.202   5.048
  253POPC   C3A 3464   1.985   3.199   5.448
  253POPC   C4A 3465   2.127   3.527   5.720
  253POPC   C1B 3466   1.863   3.575   4.687
  253POPC   C2B 3467   2.096   3.601   5.093
  253POPC   C3B 3468   1.767   3.691   5.381
  253POPC   C4B 3469   1.643   3.669   5.791
  254POPC   NC3 3470   0.311   4.164   3.810
  254POPC   PO4 3471   0.870   3.907   4.001
  254POPC   GL1 3472   0.579   4.221   4.234
  254POPC   GL2 3473   0.223   4.119   4.291
  254POPC   C1A 3474   0.455   4.397   4.640
  254POPC   D2A 3475   0.246   4.335   5.016
  254POPC   C3A 3476   0.409   4.440   5.415
  254POPC   C4A 3477   0.369   4.260   5.805
  254POPC   C1B 3478   0.451   3.879   4.593
  254POPC   C2B 3479   0.559   3.853   5.024
  254POPC   C3B 3480   0.330   3.938   5.388
  254POPC   C4B 3481   0.011   3.882   5.746
  255POPC   NC3 3482   5.046   1.274   3.911
  255POPC   PO4 3483   4.695   0.877   3.601
  255POPC   GL1 3484   4.736   0.957   4.097
  255POPC   GL2 3485   5.013   0.844   4.248
  255POPC   C1A 3486   4.774   1.201   4.510
  255POPC   D2A 3487   4.656   1.251   4.935
  255POPC   C3A 3488   4.572   0.994   5.290
  255POPC   C4A 3489   4.511   1.223   5.700
  255POPC   C1B 3490   5.063   0.810   4.679
  255POPC   C2B 3491   5.094   1.026   5.082
  255POPC   C3B 3492   4.969   1.259   5.440
  255POPC   C4B 3493   4.981   1.001   5.795
  256POPC   NC3 3494   8.076   8.742   3.800
  256POPC   PO4 3495   7.684   8.315   4.049
  256POPC   GL1 3496   7.852   8.400   4.379
  256POPC   GL2 3497   7.982   8.723   4.304
  256POPC   C1A 3498   7.847   8.273   4.799
  256POPC   D2A 3499   8.103   8.336   5.166
  256POPC   C3A 3500   7.810   8.369   5.500
  256POPC   C4A 3501   7.747   8.535   5.879
  256POPC   C1B 3502   8.155   8.661   4.726
  256POPC   C2B 3503   8.217   8.901   5.127
  256POPC   C3B 3504   8.057   8.808   5.560
  256POPC   C4B 3505   8.063   8.887   6.044
  257POPC   NC3 3506   2.784   4.418   3.638
  257POPC   PO4 3507   2.334   4.661   4.043
  257POPC   GL1 3508   2.222   4.452   4.422
  257POPC   GL2 3509   2.485   4.215   4.342
  257POPC   C1A 3510   2.223   4.513   4.886
  257POPC   D2A 3511   2.557   4.529   5.195
  257POPC   C3A 3512   2.615   4.286   5.561
  257POPC   C4A 3513   2.575   4.426   5.997
  257POPC   C1B 3514   2.616   4.210   4.780
  257POPC   C2B 3515   2.961   4.184   5.064
  257POPC   C3B 3516   3.124   4.238   5.485
  257POPC   C4B 3517   2.991   4.151   5.910
  258POPC   NC3 3518   5.752   1.310   3.760
  258POPC   PO4 3519   5.387   0.841   3.933
  258POPC   GL1 3520   5.427   1.189   4.230
  258POPC   GL2 3521   5.770   1.273   4.270
  258POPC   C1A 3522   5.309   1.259   4.667
  258POPC   D2A 3523   5.590   1.261   5.059
  258POPC   C3A 3524   5.463   1.251   5.505
  258POPC   C4A 3525   5.345   1.344   5.974
  258POPC   C1B 3526   5.780   0.990   4.625
  258POPC   C2B 3527   6.041   0.988   5.003
  258POPC   C3B 3528   5.997   1.175   5.428
  258POPC   C4B 3529   5.817   1.097   5.841
  259POPC   NC3 3530   9.240   5.878   4.079
  259POPC   PO4 3531   9.752   5.711   3.696
  259POPC   GL1 3532   9.688   5.703   4.301
  259POPC   GL2 3533   9.390   5.554   4.480
  259POPC   C1A 3534   9.713   5.666   4.810
  259POPC   D2A 3535   9.887   5.394   5.099
  259POPC   C3A 3536   9.676   5.361   5.460
  259POPC   C4A 3537   9.722   5.138   5.818
  259POPC   C1B 3538   9.248   5.918   4.731
  259POPC   C2B 3539   9.262   5.791   5.162
  259POPC   C3B 3540   9.253   5.865   5.592
  259POPC   C4B 3541   9.388   5.523   5.858
  260POPC   NC3 3542   6.104   9.264   3.898
  260POPC   PO4 3543   5.521   9.015   3.982
  260POPC   GL1 3544   5.744   9.269   4.257
  260POPC   GL2 3545   5.583   9.532   4.305
  260POPC   C1A 3546   5.805   9.189   4.713
  260POPC   D2A 3547   5.611   8.998   5.077
  260POPC   C3A 3548   5.718   8.996   5.517
  260POPC   C4A 3549   5.675   9.130   5.958
  260POPC   C1B 3550   5.549   9.619   4.740
  260POPC   C2B 3551   5.400   9.488   5.165
  260POPC   C3B 3552   5.479   9.477   5.634
  260POPC   C4B 3553   5.770   9.760   5.856
  261POPC   NC3 3554   9.370   6.948   3.896
  261POPC   PO4 3555   9.654   7.545   3.769
  261POPC   GL1 3556   9.546   7.607   4.210
  261POPC   GL2 3557   9.355   7.314   4.299
  261POPC   C1A 3558   9.643   7.487   4.656
  261POPC   D2A 3559   9.778   7.391   5.075
  261POPC   C3A 3560   9.530   7.222   5.386
  261POPC   C4A 3561   9.622   7.252   5.812
  261POPC   C1B 3562   9.134   7.414   4.691
  261POPC   C2B 3563   9.290   7.110   4.951
  261POPC   C3B 3564   9.203   6.823   5.283
  261POPC   C4B 3565   9.199   6.958   5.682
  262POPC   NC3 3566   2.747   1.890   3.796
  262POPC   PO4 3567   2.970   2.525   3.885
  262POPC   GL1 3568   2.677   2.316   4.293
  262POPC   GL2 3569   2.460   1.979   4.326
  262POPC   C1A 3570   2.730   2.111   4.779
  262POPC   D2A 3571   3.025   2.263   5.129
  262POPC   C3A 3572   2.977   2.079   5.581
  262POPC   C4A 3573   2.811   2.057   6.010
  262POPC   C1B 3574   2.426   1.716   4.671
  262POPC   C2B 3575   2.292   1.829   5.067
  262POPC   C3B 3576   2.474   1.963   5.433
  262POPC   C4B 3577   2.472   1.727   5.778
  263POPC   NC3 3578   4.116   1.964   3.919
  263POPC   PO4 3579   4.624   1.487   3.920
  263POPC   GL1 3580   4.282   1.627   4.281
  263POPC   GL2 3581   4.255   1.979   4.390
  263POPC   C1A 3582   4.041   1.683   4.726
  263POPC   D2A 3583   3.888   1.937   5.099
  263POPC   C3A 3584   3.876   1.790   5.517
  263POPC   C4A 3585   4.224   1.650   5.733
  263POPC   C1B 3586   4.462   2.163   4.736
  263POPC   C2B 3587   4.417   1.962   5.125
  263POPC   C3B 3588   4.317   2.118   5.535
  263POPC   C4B 3589   4.562   2.410   5.795
  264POPC   NC3 3590   3.062  10.285   3.892
  264POPC   PO4 3591   2.463   0.113   3.885
  264POPC   GL1 3592   2.657  10.314   4.211
  264POPC   GL2 3593   2.630   9.955   4.125
  264POPC   C1A 3594   2.889  10.387   4.643
  264POPC   D2A 3595   2.758  10.469   5.092
  264POPC   C3A 3596   2.992  10.373   5.483
  264POPC   C4A 3597   2.900  10.213   5.889
  264POPC   C1B 3598   2.463   9.996   4.575
  264POPC   C2B 3599   2.572   9.986   5.040
  264POPC   C3B 3600   2.535  10.135   5.492
  264POPC   C4B 3601   2.385  10.147   5.943
  265POPC   NC3 3602   4.164   0.344   3.757
  265POPC   PO4 3603   3.823   0.876   3.808
  265POPC   GL1 3604   3.910   0.679   4.231
  265POPC   GL2 3605   4.037   0.320   4.255
  265POPC   C1A 3606   3.821   0.635   4.691
  265POPC   D2A 3607   3.561   0.492   5.067
  265POPC   C3A 3608   3.786   0.471   5.470
  265POPC   C4A 3609   3.795   0.771   5.810
  265POPC   C1B 3610   4.235   0.358   4.657
  265POPC   C2B 3611   4.063   0.248   5.035
  265POPC   C3B 3612   4.221   0.097   5.390
  265POPC   C4B 3613   4.248   0.289   5.773
  266POPC   NC3 3614   1.394   7.021   3.945
  266POPC   PO4 3615   0.897   7.425   4.060
  266POPC   GL1 3616   1.051   7.097   4.304
  266POPC   GL2 3617   1.352   7.298   4.368
  266POPC   C1A 3618   1.284   6.858   4.610
  266POPC   D2A 3619   1.295   6.704   5.027
  266POPC   C3A 3620   1.236   6.878   5.455
  266POPC   C4A 3621   1.340   6.944   5.896
  266POPC   C1B 3622   1.152   7.308   4.786
  266POPC   C2B 3623   1.284   7.332   5.213
  266POPC   C3B 3624   1.208   7.365   5.670
  266POPC   C4B 3625   0.826   7.592   5.836
  267POPC   NC3 3626   7.791   2.299   3.880
  267POPC   PO4 3627   8.076   2.909   3.962
  267POPC   GL1 3628   8.000   2.607   4.265
  267POPC   GL2 3629   7.648   2.649   4.263
  267POPC   C1A 3630   8.048   2.416   4.679
  267POPC   D2A 3631   8.144   2.678   5.031
  267POPC   C3A 3632   8.115   2.493   5.425
  267POPC   C4A 3633   7.815   2.480   5.773
  267POPC   C1B 3634   7.772   2.829   4.667
  267POPC   C2B 3635   7.669   2.877   5.084
  267POPC   C3B 3636   7.810   2.889   5.465
  267POPC   C4B 3637   7.730   2.976   5.857
  268POPC   NC3 3638   1.699   9.329   3.805
  268POPC   PO4 3639   1.833   9.967   3.909
  268POPC   GL1 3640   2.071   9.804   4.270
  268POPC   GL2 3641   2.074   9.443   4.235
  268POPC   C1A 3642   1.988   9.740   4.732
  268POPC   D2A 3643   2.160   9.682   5.169
  268POPC   C3A 3644   1.902   9.583   5.500
  268POPC   C4A 3645   2.011   9.562   5.944
  268POPC   C1B 3646   1.776   9.272   4.526
  268POPC   C2B 3647   1.849   9.232   4.944
  268POPC   C3B 3648   1.734   9.119   5.330
  268POPC   C4B 3649   1.874   9.118   5.743
  269POPC   NC3 3650   9.178   1.664   3.936
  269POPC   PO4 3651   8.892   2.333   4.009
  269POPC   GL1 3652   8.892   2.071   4.337
  269POPC   GL2 3653   8.654   1.829   4.383
  269POPC   C1A 3654   8.799   2.215   4.747
  269POPC   D2A 3655   8.724   2.026   5.137
  269POPC   C3A 3656   8.732   2.234   5.544
  269POPC   C4A 3657   8.662   1.854   5.800
  269POPC   C1B 3658   8.366   2.000   4.705
  269POPC   C2B 3659   8.206   2.127   5.081
  269POPC   C3B 3660   8.273   2.021   5.504
  269POPC   C4B 3661   8.267   2.259   5.881
  270POPC   NC3 3662   2.867   2.979   3.905
  270POPC   PO4 3663   2.305   2.672   4.044
  270POPC   GL1 3664   2.582   2.832   4.323
  270POPC   GL2 3665   2.951   2.774   4.348
  270POPC   C1A 3666   2.501   2.978   4.711
  270POPC   D2A 3667   2.262   2.944   5.094
  270POPC   C3A 3668   2.420   2.879   5.496
  270POPC   C4A 3669   2.320   3.062   5.872
  270POPC   C1B 3670   2.804   2.590   4.717
  270POPC   C2B 3671   2.729   2.704   5.111
  270POPC   C3B 3672   2.681   2.456   5.454
  270POPC   C4B 3673   2.692   2.555   5.848
  271POPC   NC3 3674  10.060   8.660   3.621
  271POPC   PO4 3675  10.170   8.018   3.673
  271POPC   GL1 3676  10.107   8.331   4.063
  271POPC   GL2 3677  10.231   8.652   4.171
  271POPC   C1A 3678   9.975   8.347   4.528
  271POPC   D2A 3679  10.042   8.523   4.977
  271POPC   C3A 3680   9.957   8.341   5.367
  271POPC   C4A 3681   9.856   8.412   5.775
  271POPC   C1B 3682  10.300   8.774   4.609
  271POPC   C2B 3683   0.021   8.769   5.017
  271POPC   C3B 3684  10.373   8.688   5.454
  271POPC   C4B 3685  10.257   8.709   5.899
  272POPC   NC3 3686   8.859   4.769   3.892
  272POPC   PO4 3687   9.186   5.408   4.076
  272POPC   GL1 3688   8.820   5.244   4.333
  272POPC   GL2 3689   8.758   4.925   4.343
  272POPC   C1A 3690   8.645   5.150   4.762
  272POPC   D2A 3691   8.923   5.041   5.091
  272POPC   C3A 3692   8.710   5.032   5.460
  272POPC   C4A 3693   8.774   4.763   5.799
  272POPC   C1B 3694   8.831   4.673   4.697
  272POPC   C2B 3695   8.604   4.672   5.032
  272POPC   C3B 3696   8.550   4.547   5.377
  272POPC   C4B 3697   8.297   4.752   5.665
  273POPC   NC3 3698  10.184   3.058   3.701
  273POPC   PO4 3699   9.693   2.699   3.879
  273POPC   GL1 3700   9.995   2.716   4.275
  273POPC   GL2 3701  10.274   2.468   4.267
  273POPC   C1A 3702  10.002   2.881   4.740
  273POPC   D2A 3703   9.933   2.860   5.188
  273POPC   C3A 3704   9.836   3.099   5.574
  273POPC   C4A 3705   9.902   2.838   5.944
  273POPC   C1B 3706  10.413   2.571   4.721
  273POPC   C2B 3707  10.268   2.495   5.141
  273POPC   C3B 3708  10.186   2.575   5.550
  273POPC   C4B 3709  10.420   2.309   5.825
  274POPC   NC3 3710   0.379   0.826   3.761
  274POPC   PO4 3711   0.963   0.909   4.071
  274POPC   GL1 3712   0.709   0.999   4.426
  274POPC   GL2 3713   0.400   1.100   4.241
  274POPC   C1A 3714   0.709   0.995   4.917
  274POPC   D2A 3715   0.382   0.820   5.175
  274POPC   C3A 3716   0.346   0.810   5.641
  274POPC   C4A 3717   0.666   0.930   5.862
  274POPC   C1B 3718   0.291   1.257   4.654
  274POPC   C2B 3719   0.397   1.374   5.070
  274POPC   C3B 3720   0.288   1.265   5.439
  274POPC   C4B 3721   0.354   1.355   5.833
  275POPC   NC3 3722   4.372   9.669   3.706
  275POPC   PO4 3723   4.314  10.415   3.696
  275POPC   GL1 3724   4.213  10.326   4.120
  275POPC   GL2 3725   3.877  10.284   4.252
  275POPC   C1A 3726   4.322  10.364   4.565
  275POPC   D2A 3727   4.565   0.022   4.928
  275POPC   C3A 3728   4.671  10.338   5.370
  275POPC   C4A 3729   4.449  10.312   5.776
  275POPC   C1B 3730   3.948  10.023   4.637
  275POPC   C2B 3731   4.150  10.179   5.049
  275POPC   C3B 3732   4.054  10.107   5.502
  275POPC   C4B 3733   3.997  10.140   5.990
  276POPC   NC3 3734   6.558   8.754   4.037
  276POPC   PO4 3735   6.552   9.386   3.866
  276POPC   GL1 3736   6.514   9.215   4.274
  276POPC   GL2 3737   6.230   9.277   4.421
  276POPC   C1A 3738   6.641   9.224   4.755
  276POPC   D2A 3739   6.368   9.476   5.043
  276POPC   C3A 3740   6.423   9.525   5.489
  276POPC   C4A 3741   6.710   9.477   5.789
  276POPC   C1B 3742   6.053   9.628   4.642
  276POPC   C2B 3743   5.901   9.695   5.081
  276POPC   C3B 3744   5.936   9.459   5.455
  276POPC   C4B 3745   6.154   9.221   5.801
  277POPC   NC3 3746   1.331   5.335   3.921
  277POPC   PO4 3747   1.065   5.965   3.926
  277POPC   GL1 3748   1.065   5.604   4.248
  277POPC   GL2 3749   1.416   5.589   4.339
  277POPC   C1A 3750   1.085   5.349   4.662
  277POPC   D2A 3751   0.909   5.558   5.019
  277POPC   C3A 3752   1.066   5.432   5.440
  277POPC   C4A 3753   0.882   5.752   5.703
  277POPC   C1B 3754   1.301   5.811   4.672
  277POPC   C2B 3755   1.401   5.655   5.073
  277POPC   C3B 3756   1.264   5.874   5.389
  277POPC   C4B 3757   1.400   5.934   5.766
  278POPC   NC3 3758   1.208   3.746   3.720
  278POPC   PO4 3759   1.449   4.259   4.041
  278POPC   GL1 3760   1.231   4.117   4.350
  278POPC   GL2 3761   1.024   4.396   4.398
  278POPC   C1A 3762   1.393   4.121   4.758
  278POPC   D2A 3763   1.354   4.351   5.135
  278POPC   C3A 3764   1.371   4.051   5.470
  278POPC   C4A 3765   1.290   4.014   5.914
  278POPC   C1B 3766   0.889   4.161   4.763
  278POPC   C2B 3767   0.844   4.253   5.201
  278POPC   C3B 3768   0.879   4.296   5.648
  278POPC   C4B 3769   0.786   4.048   5.998
  279POPC   NC3 3770  10.138   1.428   4.058
  279POPC   PO4 3771  10.394   2.007   3.871
  279POPC   GL1 3772  10.145   1.945   4.272
  279POPC   GL2 3773   9.848   2.163   4.347
  279POPC   C1A 3774  10.280   1.754   4.658
  279POPC   D2A 3775  10.441   1.577   4.984
  279POPC   C3A 3776   0.058   1.726   5.336
  279POPC   C4A 3777  10.442   1.659   5.728
  279POPC   C1B 3778  10.055   2.212   4.733
  279POPC   C2B 3779  10.103   1.964   5.096
  279POPC   C3B 3780  10.168   2.059   5.474
  279POPC   C4B 3781  10.047   1.946   5.871
  280POPC   NC3 3782   9.241   4.043   3.954
  280POPC   PO4 3783   9.796   4.194   3.661
  280POPC   GL1 3784   9.695   4.203   4.135
  280POPC   GL2 3785   9.536   4.494   4.202
  280POPC   C1A 3786   9.431   4.100   4.578
  280POPC   D2A 3787   9.274   4.002   5.027
  280POPC   C3A 3788   9.434   4.210   5.412
  280POPC   C4A 3789   9.582   4.080   5.844
  280POPC   C1B 3790   9.467   4.626   4.631
  280POPC   C2B 3791   9.245   4.597   5.010
  280POPC   C3B 3792   9.050   4.612   5.389
  280POPC   C4B 3793   9.127   4.396   5.771
  281POPC   NC3 3794   2.608   8.041   3.768
  281POPC   PO4 3795   2.095   8.311   4.011
  281POPC   GL1 3796   2.436   7.980   4.232
  281POPC   GL2 3797   2.553   7.632   4.139
  281POPC   C1A 3798   2.616   8.051   4.650
  281POPC   D2A 3799   2.715   8.196   5.104
  281POPC   C3A 3800   2.381   8.160   5.423
  281POPC   C4A 3801   2.340   7.940   5.838
  281POPC   C1B 3802   2.824   7.602   4.540
  281POPC   C2B 3803   2.846   7.724   4.978
  281POPC   C3B 3804   2.640   7.719   5.367
  281POPC   C4B 3805   2.704   7.593   5.784
  282POPC   NC3 3806   0.737   6.287   3.909
  282POPC   PO4 3807   0.248   6.663   4.056
  282POPC   GL1 3808   0.481   6.476   4.362
  282POPC   GL2 3809   0.725   6.692   4.367
  282POPC   C1A 3810   0.386   6.504   4.802
  282POPC   D2A 3811   0.213   6.229   5.110
  282POPC   C3A 3812   0.092   6.352   5.532
  282POPC   C4A 3813   0.346   6.600   5.740
  282POPC   C1B 3814   0.897   6.563   4.727
  282POPC   C2B 3815   0.807   6.495   5.133
  282POPC   C3B 3816   0.749   6.727   5.471
  282POPC   C4B 3817   0.889   6.673   5.878
  283POPC   NC3 3818  10.051   7.592   3.548
  283POPC   PO4 3819  10.417   7.606   4.091
  283POPC   GL1 3820  10.058   7.627   4.361
  283POPC   GL2 3821   9.990   7.894   4.266
  283POPC   C1A 3822   9.903   7.886   4.753
  283POPC   D2A 3823  10.094   7.927   5.117
  283POPC   C3A 3824  10.107   7.595   5.401
  283POPC   C4A 3825  10.320   7.429   5.732
  283POPC   C1B 3826  10.361   8.025   4.559
  283POPC   C2B 3827  10.492   8.254   4.907
  283POPC   C3B 3828  10.452   8.201   5.346
  283POPC   C4B 3829  10.186   8.017   5.679
  284POPC   NC3 3830   8.434   7.099   4.142
  284POPC   PO4 3831   8.927   6.933   3.740
  284POPC   GL1 3832   8.931   7.053   4.188
  284POPC   GL2 3833   8.823   7.416   4.286
  284POPC   C1A 3834   8.865   6.971   4.644
  284POPC   D2A 3835   8.773   7.053   5.089
  284POPC   C3A 3836   9.030   7.316   5.349
  284POPC   C4A 3837   9.178   7.470   5.749
  284POPC   C1B 3838   8.581   7.428   4.714
  284POPC   C2B 3839   8.338   7.310   5.112
  284POPC   C3B 3840   8.448   7.167   5.493
  284POPC   C4B 3841   8.634   7.536   5.563
  285POPC   NC3 3842   6.502   0.269   3.939
  285POPC   PO4 3843   6.117   1.011   3.901
  285POPC   GL1 3844   6.253   0.594   4.224
  285POPC   GL2 3845   6.638   0.491   4.349
  285POPC   C1A 3846   6.132   0.489   4.672
  285POPC   D2A 3847   5.959   0.490   5.125
  285POPC   C3A 3848   6.215   0.693   5.437
  285POPC   C4A 3849   6.169   0.678   5.871
  285POPC   C1B 3850   6.622   0.301   4.708
  285POPC   C2B 3851   6.514   0.496   5.055
  285POPC   C3B 3852   6.580   0.312   5.427
  285POPC   C4B 3853   6.542   0.343   5.824
  286POPC   NC3 3854   4.512   9.393   4.145
  286POPC   PO4 3855   3.967   9.780   3.869
  286POPC   GL1 3856   4.242   9.818   4.231
  286POPC   GL2 3857   4.144   9.524   4.475
  286POPC   C1A 3858   4.451   9.872   4.638
  286POPC   D2A 3859   4.239   9.674   4.981
  286POPC   C3A 3860   4.435   9.807   5.351
  286POPC   C4A 3861   4.279   9.719   5.755
  286POPC   C1B 3862   4.247   9.147   4.750
  286POPC   C2B 3863   4.161   8.988   5.168
  286POPC   C3B 3864   4.251   9.230   5.543
  286POPC   C4B 3865   3.928   9.323   5.853
  287POPC   NC3 3866   8.426   4.096   3.968
  287POPC   PO4 3867   9.000   4.406   4.142
  287POPC   GL1 3868   8.598   4.458   4.258
  287POPC   GL2 3869   8.673   4.119   4.417
  287POPC   C1A 3870   8.356   4.436   4.630
  287POPC   D2A 3871   8.551   4.185   4.936
  287POPC   C3A 3872   8.353   4.074   5.315
  287POPC   C4A 3873   8.402   4.246   5.729
  287POPC   C1B 3874   8.951   3.826   4.640
  287POPC   C2B 3875   8.803   3.781   5.059
  287POPC   C3B 3876   8.864   4.052   5.421
  287POPC   C4B 3877   9.139   3.890   5.729
  288POPC   NC3 3878   8.249   1.534   3.694
  288POPC   PO4 3879   8.163   2.149   4.098
  288POPC   GL1 3880   7.754   2.132   4.361
  288POPC   GL2 3881   7.900   1.893   4.487
  288POPC   C1A 3882   7.650   2.077   4.843
  288POPC   D2A 3883   7.740   2.357   5.096
  288POPC   C3A 3884   7.773   2.099   5.426
  288POPC   C4A 3885   7.536   2.049   5.763
  288POPC   C1B 3886   8.000   1.693   4.856
  288POPC   C2B 3887   8.282   1.616   5.183
  288POPC   C3B 3888   8.131   1.542   5.605
  288POPC   C4B 3889   7.989   1.818   5.910
  289POPC   NC3 3890   9.917   2.104   3.835
  289POPC   PO4 3891   9.580   1.431   3.794
  289POPC   GL1 3892   9.565   1.502   4.248
  289POPC   GL2 3893   9.343   1.774   4.402
  289POPC   C1A 3894   9.789   1.680   4.596
  289POPC   D2A 3895   9.633   1.959   4.895
  289POPC   C3A 3896   9.620   1.877   5.335
  289POPC   C4A 3897   9.562   1.845   5.754
  289POPC   C1B 3898   9.079   1.779   4.730
  289POPC   C2B 3899   9.189   1.757   5.111
  289POPC   C3B 3900   9.108   1.879   5.516
  289POPC   C4B 3901   9.251   2.274   5.707
  290POPC   NC3 3902   3.319   8.525   3.654
  290POPC   PO4 3903   2.989   7.869   3.940
  290POPC   GL1 3904   3.240   7.838   4.341
  290POPC   GL2 3905   3.458   7.570   4.339
  290POPC   C1A 3906   3.358   8.146   4.716
  290POPC   D2A 3907   3.245   8.264   5.160
  290POPC   C3A 3908   3.492   8.144   5.543
  290POPC   C4A 3909   3.788   8.112   5.906
  290POPC   C1B 3910   3.297   7.630   4.782
  290POPC   C2B 3911   3.374   7.735   5.204
  290POPC   C3B 3912   3.138   7.788   5.568
  290POPC   C4B 3913   2.861   8.096   5.651
  291POPC   NC3 3914   0.353   5.132   3.889
  291POPC   PO4 3915   0.102   4.545   3.939
  291POPC   GL1 3916   0.254   4.707   4.290
  291POPC   GL2 3917   0.237   5.092   4.390
  291POPC   C1A 3918   0.046   4.721   4.687
  291POPC   D2A 3919   0.165   4.855   5.054
  291POPC   C3A 3920   0.028   4.796   5.453
  291POPC   C4A 3921   0.108   5.169   5.713
  291POPC   C1B 3922   0.578   4.904   4.617
  291POPC   C2B 3923   0.635   4.697   5.013
  291POPC   C3B 3924   0.547   4.920   5.402
  291POPC   C4B 3925   0.636   4.756   5.787
  292POPC   NC3 3926   0.951   8.592   3.835
  292POPC   PO4 3927   0.620   9.122   3.970
  292POPC   GL1 3928   0.921   8.923   4.265
  292POPC   GL2 3929   1.276   8.793   4.287
  292POPC   C1A 3930   0.925   8.711   4.672
  292POPC   D2A 3931   0.696   8.638   5.072
  292POPC   C3A 3932   0.930   8.659   5.463
  292POPC   C4A 3933   0.888   8.884   5.859
  292POPC   C1B 3934   1.421   8.891   4.719
  292POPC   C2B 3935   1.362   8.605   5.089
  292POPC   C3B 3936   1.560   8.670   5.498
  292POPC   C4B 3937   1.378   9.003   5.731
  293POPC   NC3 3938   7.928   9.756   3.902
  293POPC   PO4 3939   7.918   9.174   3.719
  293POPC   GL1 3940   7.950   9.242   4.200
  293POPC   GL2 3941   7.825   9.564   4.351
  293POPC   C1A 3942   8.082   9.164   4.662
  293POPC   D2A 3943   8.107   9.450   5.064
  293POPC   C3A 3944   8.200   9.292   5.477
  293POPC   C4A 3945   8.196   9.689   5.698
  293POPC   C1B 3946   7.668   9.454   4.720
  293POPC   C2B 3947   7.679   9.225   5.099
  293POPC   C3B 3948   7.768   9.534   5.460
  293POPC   C4B 3949   7.812   9.314   5.839
  294POPC   NC3 3950   3.464   1.220   3.774
  294POPC   PO4 3951   3.119   0.912   4.260
  294POPC   GL1 3952   3.496   1.055   4.367
  294POPC   GL2 3953   3.542   1.407   4.296
  294POPC   C1A 3954   3.485   0.997   4.802
  294POPC   D2A 3955   3.733   0.966   5.121
  294POPC   C3A 3956   3.468   0.867   5.429
  294POPC   C4A 3957   3.372   1.068   5.823
  294POPC   C1B 3958   3.540   1.498   4.710
  294POPC   C2B 3959   3.670   1.477   5.099
  294POPC   C3B 3960   3.627   1.346   5.488
  294POPC   C4B 3961   3.514   1.540   5.872
  295POPC   NC3 3962   3.250   8.228   4.049
  295POPC   PO4 3963   3.491   8.901   3.879
  295POPC   GL1 3964   3.552   8.648   4.259
  295POPC   GL2 3965   3.226   8.601   4.414
  295POPC   C1A 3966   3.652   8.732   4.678
  295POPC   D2A 3967   3.477   8.787   5.048
  295POPC   C3A 3968   3.533   8.624   5.425
  295POPC   C4A 3969   3.140   8.530   5.597
  295POPC   C1B 3970   3.261   9.032   4.627
  295POPC   C2B 3971   3.244   9.223   5.069
  295POPC   C3B 3972   3.234   9.021   5.441
  295POPC   C4B 3973   3.488   9.047   5.757
  296POPC   NC3 3974   2.953   7.275   3.982
  296POPC   PO4 3975   3.547   7.110   4.084
  296POPC   GL1 3976   3.189   7.128   4.417
  296POPC   GL2 3977   2.907   6.881   4.335
  296POPC   C1A 3978   3.060   7.194   4.869
  296POPC   D2A 3979   3.017   7.364   5.314
  296POPC   C3A 3980   2.995   7.165   5.760
  296POPC   C4A 3981   2.899   7.184   6.237
  296POPC   C1B 3982   2.624   7.144   4.599
  296POPC   C2B 3983   2.570   7.308   5.022
  296POPC   C3B 3984   2.547   7.220   5.479
  296POPC   C4B 3985   2.498   7.110   5.929
  297POPC   NC3 3986   1.474   6.192   3.929
  297POPC   PO4 3987   0.945   6.721   3.906
  297POPC   GL1 3988   1.186   6.511   4.220
  297POPC   GL2 3989   0.976   6.219   4.364
  297POPC   C1A 3990   1.395   6.356   4.612
  297POPC   D2A 3991   1.202   6.196   5.000
  297POPC   C3A 3992   1.345   6.362   5.393
  297POPC   C4A 3993   1.348   6.445   5.825
  297POPC   C1B 3994   0.764   6.061   4.762
  297POPC   C2B 3995   0.761   6.002   5.243
  297POPC   C3B 3996   0.912   6.243   5.609
  297POPC   C4B 3997   1.020   6.149   6.050
  298POPC   NC3 3998   0.734   5.650   3.813
  298POPC   PO4 3999   0.339   6.230   3.680
  298POPC   GL1 4000   0.371   6.032   4.140
  298POPC   GL2 4001   0.620   5.853   4.276
  298POPC   C1A 4002   0.261   6.019   4.607
  298POPC   D2A 4003   0.402   5.756   4.968
  298POPC   C3A 4004   0.220   5.806   5.373
  298POPC   C4A 4005   0.458   6.047   5.685
  298POPC   C1B 4006   0.582   5.470   4.558
  298POPC   C2B 4007   0.492   5.254   4.975
  298POPC   C3B 4008   0.557   5.424   5.393
  298POPC   C4B 4009   0.413   5.555   5.791
  299POPC   NC3 4010   1.392   0.541   3.683
  299POPC   PO4 4011   1.057   0.092   3.991
  299POPC   GL1 4012   1.317   0.190   4.327
  299POPC   GL2 4013   1.370   0.556   4.276
  299POPC   C1A 4014   1.143   0.225   4.749
  299POPC   D2A 4015   1.185   0.140   5.166
  299POPC   C3A 4016   1.196   0.324   5.547
  299POPC   C4A 4017   1.537   0.066   5.727
  299POPC   C1B 4018   1.438   0.616   4.707
  299POPC   C2B 4019   1.216   0.658   5.078
  299POPC   C3B 4020   1.283   0.864   5.456
  299POPC   C4B 4021   1.163   0.752   5.842
  300POPC   NC3 4022   3.941   8.757   3.954
  300POPC   PO4 4023   4.476   8.280   3.993
  300POPC   GL1 4024   4.117   8.410   4.270
  300POPC   GL2 4025   4.082   8.752   4.432
  300POPC   C1A 4026   3.886   8.310   4.654
  300POPC   D2A 4027   3.911   8.535   5.081
  300POPC   C3A 4028   3.968   8.346   5.476
  300POPC   C4A 4029   4.301   8.222   5.702
  300POPC   C1B 4030   4.309   8.592   4.774
  300POPC   C2B 4031   4.417   8.468   5.212
  300POPC   C3B 4032   4.331   8.710   5.590
  300POPC   C4B 4033   3.929   8.848   5.649
  301POPC   NC3 4034   9.803   0.998   3.728
  301POPC   PO4 4035  10.490   1.028   3.877
  301POPC   GL1 4036  10.381   1.115   4.361
  301POPC   GL2 4037  10.179   0.851   4.484
  301POPC   C1A 4038  10.115   1.262   4.756
  301POPC   D2A 4039   9.863   1.487   5.068
  301POPC   C3A 4040   9.986   1.583   5.494
  301POPC   C4A 4041  10.003   1.432   5.907
  301POPC   C1B 4042   0.027   0.822   4.756
  301POPC   C2B 4043  10.494   1.085   5.045
  301POPC   C3B 4044  10.290   1.225   5.344
  301POPC   C4B 4045  10.398   1.146   5.744
  302W        W 4046  10.376   3.622   8.972
  303W        W 4047   3.391   7.413   2.182
  304W        W 4048   8.004   2.767   1.830
  305W        W 4049   6.076   0.510   0.264
  306W        W 4050   9.223   2.114   8.555
  307W        W 4051   9.875   3.088   8.688
  308W        W 4052   8.200   5.482   9.719
  309W        W 4053   2.273   3.562   0.854
  310W        W 4054  10.073   3.202   0.951
  311W        W 4055   0.278   7.405  10.510
  312W        W 4056   5.272   1.856   2.183
  313W        W 4057   9.665   7.149   9.567
  314W        W 4058   9.916   7.962   8.991
  315W        W 4059   8.427   5.663   0.087
  316W        W 4060   8.938   0.902   3.192
  317W        W 4061   5.265   6.437   1.659
  318W        W 4062   8.014   6.175   1.464
  319W        W 4063   5.654  10.446  11.913
  320W        W 4064   6.514  10.331   1.436
  321W        W 4065   1.854   5.689  11.751
  322W        W 4066   3.506   6.668  11.489
  323W        W 4067   6.412   8.052   0.331
  324W        W 4068   8.938   7.701   9.821
  325W        W 4069   0.980   1.863   9.819
  326W        W 4070  10.285   1.830   9.125
  327W        W 4071   4.613   0.758  10.124
  328W        W 4072   9.999   8.577  10.925
  329W        W 4073   9.742   2.290   0.743
  330W        W 4074   1.857   6.957   2.751
  331W        W 4075   1.379   6.997   1.763
  332W        W 4076   9.529   2.107  11.782
  333W        W 4077   6.336   3.126  10.003
  334W        W 4078   2.201   2.884   2.594
  335W        W 4079   0.477   1.069   9.441
  336W        W 4080   8.702   2.236   2.207
  337W        W 4081   8.893   8.838  10.589
  338W        W 4082   4.956   0.476   1.510
  339W        W 4083   2.728   9.480  11.135
  340W        W 4084   3.511   7.377   2.985
  341W        W 4085   9.057   0.987   2.688
  342W        W 4086   1.353   2.572   0.096
  343W        W 4087   2.341   4.706   2.647
  344W        W 4088   6.721   0.115   3.504
  345W        W 4089  10.462   4.215   9.660
  346W        W 4090   7.006  10.303   1.706
  347W        W 4091   7.409   3.674   9.884
  348W        W 4092   1.643   6.779  10.318
  349W        W 4093  10.278   5.069   2.010
  350W        W 4094   8.439   5.602   0.615
  351W        W 4095   3.582   6.888  11.033
  352W        W 4096   6.974   4.106   1.893
  353W        W 4097   4.695   4.167  10.389
  354W        W 4098   8.528   7.622   8.994
  355W        W 4099   5.148  10.096  10.711
  356W        W 4100   8.536   7.658   9.515
  357W        W 4101   6.440   9.138   2.062
  358W        W 4102   2.265   1.302   1.700
  359W        W 4103   7.587   4.687   9.357
  360W        W 4104   0.886   0.839   0.298
  361W        W 4105   4.796   8.444   9.704
  362W        W 4106   5.299   4.784   0.326
  363W        W 4107   8.408   3.179   1.914
  364W        W 4108   0.431   0.798   1.361
  365W        W 4109   8.902   8.152   0.218
  366W        W 4110   5.172   3.037  11.377
  367W        W 4111   9.366   2.674   3.466
  368W        W 4112   2.177   1.862   3.035
  369W        W 4113   4.849   0.943   1.763
  370W        W 4114   8.430   0.246   1.780
  371W        W 4115   8.988   9.117  10.156
  372W        W 4116   9.261   1.393   1.096
  373W        W 4117   8.051   6.067   2.914
  374W        W 4118   6.150   3.715   0.676
  375W        W 4119   4.912   7.930   0.227
  376W        W 4120   8.709   9.783  10.962
  377W        W 4121   0.932   8.628   9.476
  378W        W 4122   5.683   9.439  10.210
  379W        W 4123   0.984   7.150   2.609
  380W        W 4124   1.935   0.948   1.795
  381W        W 4125   4.570   9.896   9.796
  382W        W 4126   6.712   9.696  11.724
  383W        W 4127   0.934   4.691   2.978
  384W        W 4128   7.126   3.547  10.470
  385W        W 4129   8.122   7.336   1.648
  386W        W 4130   4.798   2.168   2.900
  387W        W 4131   9.653   9.845   0.707
  388W        W 4132   8.483   9.610   3.185
  389W        W 4133   6.695   4.583   9.186
  390W        W 4134   7.009   9.459  10.226
  391W        W 4135   0.778   7.740   0.010
  392W        W 4136   5.446   7.574  10.477
  393W        W 4137   7.492   6.262  11.825
  394W        W 4138   1.616   0.576   1.716
  395W        W 4139   7.856   1.340   2.940
  396W        W 4140   0.913   3.731   8.812
  397W        W 4141   3.512   2.390  11.368
  398W        W 4142   4.048   9.633   9.791
  399W        W 4143   3.079   5.275   2.777
  400W        W 4144   7.195   4.353   3.327
  401W        W 4145   9.404   8.084   2.554
  402W        W 4146   7.696   1.446   9.509
  403W        W 4147   2.299   5.472   8.601
  404W        W 4148   8.160   3.763   2.912
  405W        W 4149   9.796   8.548   1.535
  406W        W 4150   7.593   4.586   3.123
  407W        W 4151   0.772  10.357   0.650
  408W        W 4152   2.586   2.785   2.247
  409W        W 4153   8.156   9.314   9.330
  410W        W 4154   1.730   4.491   8.694
  411W        W 4155   0.389   4.370   9.928
  412W        W 4156   7.889  10.264  10.569
  413W        W 4157   1.187   9.161  11.188
  414W        W 4158   7.031   8.193  11.939
  415W        W 4159   1.265   3.614   9.612
  416W        W 4160   6.360   9.770  11.324
  417W        W 4161   3.655   0.453   0.500
  418W        W 4162   9.239   7.246   2.875
  419W        W 4163   6.695   9.391  11.224
  420W        W 4164   8.081   1.244  10.135
  421W        W 4165   7.860   0.444   0.016
  422W        W 4166   7.729   2.683   8.814
  423W        W 4167  10.130   3.381   3.277
  424W        W 4168   0.955   0.037   1.731
  425W        W 4169   4.166   2.502  11.769
  426W        W 4170   4.738   4.110   2.211
  427W        W 4171   5.357   6.088   3.322
  428W        W 4172   7.465   8.570   3.660
  429W        W 4173   2.065   0.989   3.487
  430W        W 4174   4.258   0.836   1.889
  431W        W 4175  10.100   6.840  11.776
  432W        W 4176   1.985   9.128   1.233
  433W        W 4177   7.523   7.675   2.735
  434W        W 4178   1.766   2.102   0.359
  435W        W 4179   9.906   2.807  10.061
  436W        W 4180   0.222   4.655   9.539
  437W        W 4181   4.455   3.152   3.637
  438W        W 4182   6.520   5.022  11.582
  439W        W 4183   7.883   1.613   3.371
  440W        W 4184   1.908   0.657   8.900
  441W        W 4185   5.011   6.680   0.291
  442W        W 4186   3.757   3.744   1.960
  443W        W 4187   4.112   8.514  10.934
  444W        W 4188   1.306   0.499   2.797
  445W        W 4189   4.547   1.702   1.916
  446W        W 4190   8.176   5.725   9.213
  447W        W 4191   6.912   9.905   0.367
  448W        W 4192   3.444   0.765   0.866
  449W        W 4193   9.544   5.561   2.159
  450W        W 4194   6.603   9.927   2.963
  451W        W 4195   9.207   4.475   3.670
  452W        W 4196   5.076   5.257  11.410
  453W        W 4197   6.756   9.429   2.908
  454W        W 4198  10.411  10.343   2.424
  455W        W 4199   8.392   0.229  11.321
  456W        W 4200   2.864   1.288   8.807
  457W        W 4201   6.088   3.794  11.191
  458W        W 4202   0.750   8.606   1.790
  459W        W 4203   2.194   7.180   1.224
  460W        W 4204   9.510   9.570   2.407
  461W        W 4205   6.689   4.094  11.840
  462W        W 4206   6.943   4.136   9.299
  463W        W 4207   3.208   2.369   2.874
  464W        W 4208   8.166   3.741   0.287
  465W        W 4209   1.768   2.277  11.855
  466W        W 4210   8.114   1.131   3.322
  467W        W 4211   1.498  10.313  11.889
  468W        W 4212   5.483   6.644   9.449
  469W        W 4213   2.086   0.806   0.903
  470W        W 4214   5.945   8.180   0.520
  471W        W 4215  10.378   2.020   1.536
  472W        W 4216   6.634   4.082   9.697
  473W        W 4217   9.041   0.280   9.143
  474W        W 4218   8.042   4.687   2.916
  475W        W 4219   5.138   2.492   1.701
  476W        W 4220   3.067   8.210   2.594
  477W        W 4221   7.416   8.937  11.730
  478W        W 4222   2.888   0.344  11.820
  479W        W 4223  10.411   0.216   1.654
  480W        W 4224   1.957   0.878   0.408
  481W        W 4225   9.266   8.359   3.530
  482W        W 4226   9.839   6.402   8.997
  483W        W 4227   6.050   9.167  11.930
  484W        W 4228   9.415   6.640  10.826
  485W        W 4229   7.539   8.845   9.273
  486W        W 4230   2.384   4.229   9.866
  487W        W 4231   5.500   3.284   1.257
  488W        W 4232   4.496   9.947  11.325
  489W        W 4233   5.239   3.735   1.167
  490W        W 4234   5.037   0.729   9.806
  491W        W 4235   5.043   0.819   9.309
  492W        W 4236   1.314   4.980   3.531
  493W        W 4237   8.126   4.182  10.019
  494W        W 4238   2.951   2.332   3.313
  495W        W 4239   8.541   8.439  11.464
  496W        W 4240   9.763   2.364  10.299
  497W        W 4241   2.365   6.291   8.814
  498W        W 4242   5.960   6.296   9.500
  499W        W 4243   6.130   3.744   1.188
  500W        W 4244   2.802   7.406   0.986
  501W        W 4245   9.323   5.161  10.509
  502W        W 4246   6.843   2.122   1.668
  503W        W 4247   7.217   5.332   2.094
  504W        W 4248   6.122   6.026   2.538
  505W        W 4249   3.268   1.382   2.488
  506W        W 4250   0.089   3.895   0.772
  507W        W 4251   0.153   1.244   2.272
  508W        W 4252  10.008   3.985   8.735
  509W        W 4253   7.297   5.858   8.143
  510W        W 4254   2.766   5.850   9.472
  511W        W 4255  10.158   4.262  10.078
  512W        W 4256   2.141   5.151   2.896
  513W        W 4257   3.816   2.791  11.521
  514W        W 4258   8.320   6.496   0.039
  515W        W 4259   6.861   0.115  10.817
  516W        W 4260   6.657   4.548   1.908
  517W        W 4261   5.636   6.529   3.254
  518W        W 4262   6.104   3.691   2.844
  519W        W 4263   7.706   3.555   2.894
  520W        W 4264   6.569   5.948   1.818
  521W        W 4265   4.608   5.445   2.402
  522W        W 4266   2.916   3.261   0.368
  523W        W 4267   5.157   0.840   0.660
  524W        W 4268   1.429   7.593   1.143
  525W        W 4269   2.812   2.744  11.723
  526W        W 4270   6.532   1.405   2.721
  527W        W 4271   1.848   5.892   9.424
  528W        W 4272   3.599   2.340   2.193
  529W        W 4273  10.006   0.031  10.477
  530W        W 4274   6.516   1.677  10.066
  531W        W 4275   5.816   6.248   4.205
  532W        W 4276   6.725   7.042   0.101
  533W        W 4277   7.715   4.326  11.841
  534W        W 4278   9.333   8.592   9.500
  535W        W 4279   9.060  10.237  10.878
  536W        W 4280   9.123   4.678  10.564
  537W        W 4281   4.227   1.256  10.595
  538W        W 4282   9.914   4.750   1.227
  539W        W 4283   1.674   6.101   0.756
  540W        W 4284   9.655   4.155  10.058
  541W        W 4285   3.476   2.305   3.313
  542W        W 4286   0.453   5.262   9.771
  543W        W 4287   0.389   4.510   2.390
  544W        W 4288   2.401   6.039  10.315
  545W        W 4289   5.553  10.468  10.460
  546W        W 4290   1.937   0.701   2.259
  547W        W 4291   7.669   3.535   8.917
  548W        W 4292   7.975   1.877   9.334
  549W        W 4293   6.639   5.456   0.468
  550W        W 4294   9.803   7.172  10.529
  551W        W 4295  10.153   4.664  10.397
  552W        W 4296   3.754   6.622  10.639
  553W        W 4297   9.578   2.572   3.024
  554W        W 4298   7.556   1.143  11.473
  555W        W 4299   6.618   8.619   2.708
  556W        W 4300   4.591   1.799   3.295
  557W        W 4301   5.014   2.764   8.022
  558W        W 4302   4.187   0.572   9.906
  559W        W 4303   6.459   5.677   2.256
  560W        W 4304   8.924   5.093   9.555
  561W        W 4305   8.908   2.159   0.512
  562W        W 4306   8.491   2.756   2.221
  563W        W 4307   2.165   4.706   9.869
  564W        W 4308   1.388   0.709   0.355
  565W        W 4309   7.872   7.445   1.209
  566W        W 4310   6.906   3.162   1.215
  567W        W 4311  10.122   5.079  10.083
  568W        W 4312   0.814   2.794   9.714
  569W        W 4313   5.209   4.313   2.307
  570W        W 4314   1.194   4.769   9.619
  571W        W 4315   6.582   5.867   0.189
  572W        W 4316   2.019   8.020  11.931
  573W        W 4317   4.729   4.952  11.643
  574W        W 4318   0.647   1.687   1.727
  575W        W 4319   7.083   5.593  11.924
  576W        W 4320   3.347   1.873   2.173
  577W        W 4321   8.863   4.248   1.512
  578W        W 4322   0.356   9.896   1.744
  579W        W 4323   0.481   5.631   1.897
  580W        W 4324   8.506   8.896   8.781
  581W        W 4325   6.076   6.954   2.757
  582W        W 4326   6.245   6.543   9.875
  583W        W 4327   2.734   5.196   3.146
  584W        W 4328   7.143   6.533   9.391
  585W        W 4329   3.756   2.571   0.061
  586W        W 4330   3.260   8.228   0.567
  587W        W 4331   9.352   7.325   9.199
  588W        W 4332   6.677   9.234   0.676
  589W        W 4333   3.066   3.393   2.563
  590W        W 4334   9.414   7.543   2.468
  591W        W 4335   9.042   4.117   0.410
  592W        W 4336   4.500   4.107   0.669
  593W        W 4337   5.200   7.061   9.303
  594W        W 4338   5.107   9.938   9.046
  595W        W 4339   1.960   6.741   9.909
  596W        W 4340   3.790   6.078  10.505
  597W        W 4341   5.993   9.701   3.421
  598W        W 4342   9.430   3.789   0.447
  599W        W 4343   0.874   0.327  10.511
  600W        W 4344   2.321   4.565   0.998
  601W        W 4345   6.656   1.804   8.653
  602W        W 4346   2.728   3.526   3.292
  603W        W 4347   7.701   3.762   3.884
  604W        W 4348   6.044   3.218  10.802
  605W        W 4349   1.300   3.820   9.143
  606W        W 4350   9.510   4.733   1.938
  607W        W 4351   0.876   8.336  11.193
  608W        W 4352   3.554   1.571   3.413
  609W        W 4353   1.248   7.469   8.840
  610W        W 4354   4.793   1.017   1.216
  611W        W 4355   7.694   2.821   1.360
  612W        W 4356   1.328   2.400  11.051
  613W        W 4357   4.618   2.154  10.592
  614W        W 4358   3.233   9.736   9.171
  615W        W 4359   9.281   6.270   9.798
  616W        W 4360   4.084   8.404   9.070
  617W        W 4361   6.979   1.842  11.008
  618W        W 4362   4.118   6.002  11.786
  619W        W 4363   3.419   1.014   2.138
  620W        W 4364   9.072   1.692   0.668
  621W        W 4365   5.158   3.854   0.663
  622W        W 4366   3.353   5.009   9.848
  623W        W 4367   2.133   5.686  10.004
  624W        W 4368   4.548   2.785   8.818
  625W        W 4369   1.567   0.298   9.040
  626W        W 4370   6.916   6.989   3.508
  627W        W 4371   7.689   1.059   9.843
  628W        W 4372   2.392   7.362   0.218
  629W        W 4373   7.623   4.120  10.020
  630W        W 4374   6.137   8.356   1.875
  631W        W 4375   4.792   4.589   2.434
  632W        W 4376   7.255   3.625  11.970
  633W        W 4377   3.609   6.128   2.670
  634W        W 4378   4.755   7.358   0.972
  635W        W 4379   2.416   6.536  10.068
  636W        W 4380   7.497   0.842  11.866
  637W        W 4381   5.010   6.485  10.359
  638W        W 4382   3.208  10.298  11.396
  639W        W 4383   9.879   8.474   9.063
  640W        W 4384   9.210   5.728   0.689
  641W        W 4385   0.364   5.952   0.387
  642W        W 4386  10.150   2.810   1.756
  643W        W 4387   5.510   5.144  10.924
  644W        W 4388   2.149   2.065   9.957
  645W        W 4389   3.290   8.389  10.488
  646W        W 4390   4.718   0.021   1.992
  647W        W 4391  10.084   8.287   9.976
  648W        W 4392   5.672   4.150   9.522
  649W        W 4393   4.093   2.343   2.302
  650W        W 4394   4.503   4.210   1.187
  651W        W 4395   7.998  10.428   0.450
  652W        W 4396   9.449   6.739   9.885
  653W        W 4397   0.050   6.564  11.061
  654W        W 4398   1.751   6.961   3.282
  655W        W 4399   9.047   4.263   0.999
  656W        W 4400   1.931   8.781  10.535
  657W        W 4401   8.622   7.231   2.307
  658W        W 4402   9.833   1.378   0.245
  659W        W 4403   3.302   5.069   8.377
  660W        W 4404   2.303   2.097   0.998
  661W        W 4405   9.328   7.731   2.943
  662W        W 4406   6.716   6.016   8.750
  663W        W 4407   5.239   5.787   9.090
  664W        W 4408   7.603   5.696   2.125
  665W        W 4409   4.837   2.672  11.269
  666W        W 4410   9.094   2.354   1.367
  667W        W 4411   5.672   5.623   1.084
  668W        W 4412   5.915   8.628   1.500
  669W        W 4413   4.069   3.273   2.284
  670W        W 4414   6.107   0.322   2.481
  671W        W 4415   9.485   9.441   8.911
  672W        W 4416   3.825   0.041   1.681
  673W        W 4417   4.985   3.234   3.619
  674W        W 4418  10.084   3.643   1.700
  675W        W 4419   1.217   4.217   1.966
  676W        W 4420   0.529   3.446   3.441
  677W        W 4421   8.048   8.631  11.000
  678W        W 4422   6.518   3.598  11.726
  679W        W 4423   5.392  10.366   3.007
  680W        W 4424   5.048   6.060   1.405
  681W        W 4425   7.999   1.754   0.819
  682W        W 4426   0.823   0.944  11.809
  683W        W 4427   9.829   6.974   0.951
  684W        W 4428   1.957   3.690  11.921
  685W        W 4429   6.552   0.527   2.209
  686W        W 4430   0.304   2.055   1.837
  687W        W 4431   0.352   3.948  10.537
  688W        W 4432   6.233   4.687   0.522
  689W        W 4433   9.629   0.581   0.100
  690W        W 4434   0.522   4.750   1.948
  691W        W 4435   9.974   2.307   1.732
  692W        W 4436  10.267   7.790   9.853
  693W        W 4437   6.741   7.279   2.197
  694W        W 4438   0.811   8.520   2.296
  695W        W 4439   2.347   1.560   9.993
  696W        W 4440   8.629   6.527   1.889
  697W        W 4441   4.644   0.333   3.537
  698W        W 4442   1.918  10.442   3.382
  699W        W 4443   0.283   4.818  11.120
  700W        W 4444   7.187   1.865   8.556
  701W        W 4445   2.010   3.943   9.335
  702W        W 4446   3.697   7.627   2.581
  703W        W 4447   8.933   3.111   0.558
  704W        W 4448   7.803   3.116   3.124
  705W        W 4449   3.771   0.107   3.494
  706W        W 4450   7.975   8.357   3.084
  707W        W 4451   4.776   0.338   0.030
  708W        W 4452   5.235   6.016   1.934
  709W        W 4453   8.462   9.511   2.679
  710W        W 4454   1.235   5.734   8.614
  711W        W 4455   5.602   3.435   8.994
  712W        W 4456   7.905   5.267   9.110
  713W        W 4457   0.977   8.088   9.519
  714W        W 4458   2.327   6.991   8.907
  715W        W 4459   6.941  10.445   8.413
  716W        W 4460   7.135   7.410   1.863
  717W        W 4461   1.639  10.341   2.398
  718W        W 4462   3.213   0.330   0.801
  719W        W 4463   5.172   7.872  10.829
  720W        W 4464   7.115   4.214  10.932
  721W        W 4465   8.452   8.878   9.299
  722W        W 4466   5.669   8.922   2.173
  723W        W 4467   9.743   6.967   9.085
  724W        W 4468   5.119   7.154   0.464
  725W        W 4469   5.512   5.157   2.605
  726W        W 4470   6.465   7.448   0.338
  727W        W 4471   8.203   4.870   8.493
  728W        W 4472   6.409   7.400  11.193
  729W        W 4473   7.728   0.557   9.877
  730W        W 4474   1.397   1.444   1.744
  731W        W 4475   0.311   7.867   2.359
  732W        W 4476   1.561   8.427   1.652
  733W        W 4477   6.039   4.235  11.464
  734W        W 4478   0.086   4.707   0.422
  735W        W 4479   3.638   9.928   9.994
  736W        W 4480   9.536   5.268  10.986
  737W        W 4481   9.736   0.107   9.982
  738W        W 4482   3.781   1.911   0.419
  739W        W 4483   1.260   3.793   0.033
  740W        W 4484   0.430   5.728  11.030
  741W        W 4485   9.916   2.672   3.396
  742W        W 4486   1.178   7.744   3.301
  743W        W 4487   5.667   1.823   0.032
  744W        W 4488   2.118   9.271   8.961
  745W        W 4489   7.560   6.657   1.115
  746W        W 4490   5.647   9.572   8.852
  747W        W 4491   5.675   2.257   2.911
  748W        W 4492  10.051   3.516  10.712
  749W        W 4493   7.383   9.666   8.960
  750W        W 4494   1.763   7.588  11.823
  751W        W 4495   1.448   0.073  11.292
  752W        W 4496   4.312   6.662   1.606
  753W        W 4497  10.000   8.815  10.020
  754W        W 4498   0.577   0.001  10.805
  755W        W 4499   4.190  10.075   2.398
  756W        W 4500   5.335  10.079   9.536
  757W        W 4501   4.526   1.332   8.721
  758W        W 4502   0.444   0.824  10.990
  759W        W 4503   9.390   9.882   9.471
  760W        W 4504   2.068   3.181   0.029
  761W        W 4505   9.035   2.708  11.249
  762W        W 4506   7.277   7.909   9.115
  763W        W 4507   3.278   7.905   2.264
  764W        W 4508   1.355   1.988  10.731
  765W        W 4509   6.980   2.621   1.855
  766W        W 4510   8.969   3.123   0.056
  767W        W 4511   2.582  10.477   8.965
  768W        W 4512   2.171   8.952  11.788
  769W        W 4513   6.567   4.047   1.007
  770W        W 4514   9.868   9.975   9.244
  771W        W 4515   3.110   6.266   3.709
  772W        W 4516   1.688  10.382   1.286
  773W        W 4517   2.339   9.470   2.748
  774W        W 4518   9.611   8.437   0.303
  775W        W 4519   3.358   1.922  10.358
  776W        W 4520   1.317   0.651   1.220
  777W        W 4521   7.406   8.172  10.065
  778W        W 4522   2.741   6.413  10.973
  779W        W 4523   3.783   4.782   0.573
  780W        W 4524   7.703   5.775   1.325
  781W        W 4525   6.194   7.025  11.487
  782W        W 4526   0.370   2.278   1.383
  783W        W 4527   6.163   5.479   0.989
  784W        W 4528   5.547   6.015  10.234
  785W        W 4529   5.073   3.316   2.210
  786W        W 4530   0.844   6.205  11.516
  787W        W 4531   5.763   1.253  10.262
  788W        W 4532   6.322   9.470   3.143
  789W        W 4533   5.606   6.746   2.803
  790W        W 4534   0.300   2.318   8.629
  791W        W 4535   4.300   3.074   1.863
  792W        W 4536   6.645   0.335   1.348
  793W        W 4537   2.650   5.602   9.007
  794W        W 4538   0.091   9.457   3.308
  795W        W 4539   3.253   0.783   1.712
  796W        W 4540   0.277   6.559  10.589
  797W        W 4541   3.106   4.294   2.773
  798W        W 4542   4.270   9.370   8.908
  799W        W 4543   1.296   1.914   2.953
  800W        W 4544   3.007   4.290   8.579
  801W        W 4545   8.268   1.063  10.997
  802W        W 4546   7.258   2.827   0.023
  803W        W 4547   5.176   6.515   1.166
  804W        W 4548   7.232   4.206   8.563
  805W        W 4549  10.017   3.976  10.912
  806W        W 4550   4.787   0.338  11.517
  807W        W 4551   4.148   2.761   9.609
  808W        W 4552   8.845   0.292   8.681
  809W        W 4553   6.790   5.349   1.295
  810W        W 4554   9.360   4.073   1.371
  811W        W 4555   8.959   7.923   1.793
  812W        W 4556   7.058   7.548  10.379
  813W        W 4557   0.955   0.818  10.224
  814W        W 4558   3.702   4.020   3.754
  815W        W 4559   4.676   9.349  10.948
  816W        W 4560   7.551   7.292   3.617
  817W        W 4561  10.251   9.480  10.479
  818W        W 4562   6.958   3.675   9.537
  819W        W 4563  10.244   7.441  10.537
  820W        W 4564   5.626   2.241  11.186
  821W        W 4565   1.082   1.458   9.042
  822W        W 4566   0.121   5.577   9.547
  823W        W 4567   5.195   0.977   3.492
  824W        W 4568   3.611   4.245   1.813
  825W        W 4569   3.750   7.845   2.090
  826W        W 4570   7.119   1.197   0.790
  827W        W 4571   5.987   8.372  11.492
  828W        W 4572   2.628   6.926   2.964
  829W        W 4573   6.708   1.498   2.233
  830W        W 4574   8.056   2.879  11.218
  831W        W 4575   4.496   1.625   0.882
  832W        W 4576   8.546   9.501  10.567
  833W        W 4577   2.670   2.643   9.444
  834W        W 4578   7.927  10.173  10.087
  835W        W 4579   2.482   0.708   3.280
  836W        W 4580   7.412   5.589   8.585
  837W        W 4581   7.922   6.557  11.192
  838W        W 4582   6.030   3.287   0.928
  839W        W 4583   5.612   6.753   1.932
  840W        W 4584   9.125   1.057   2.113
  841W        W 4585   7.126   4.727   0.231
  842W        W 4586   4.842   6.185   0.372
  843W        W 4587   1.083   9.677  11.308
  844W        W 4588   0.720   9.900   2.407
  845W        W 4589   4.768   4.724   0.419
  846W        W 4590   4.747   3.705   9.501
  847W        W 4591   2.226   7.350  11.745
  848W        W 4592   6.203   4.232  11.946
  849W        W 4593   9.828   9.867   3.395
  850W        W 4594   6.581   8.362  10.370
  851W        W 4595   2.895   2.662  10.306
  852W        W 4596   7.877   4.608   8.182
  853W        W 4597   3.354   5.720   2.806
  854W        W 4598   1.851   1.755   2.351
  855W        W 4599   3.081   6.462   2.201
  856W        W 4600   4.064   8.622  11.431
  857W        W 4601   3.337   8.560   1.471
  858W        W 4602   2.128   2.459   2.326
  859W        W 4603   7.733   2.475   9.989
  860W        W 4604   2.300   3.801   3.290
  861W        W 4605   6.688   7.073  11.442
  862W        W 4606   0.570   8.647   3.297
  863W        W 4607   2.775   6.011   0.065
  864W        W 4608   6.677   4.792   2.409
  865W        W 4609   1.307   7.280  11.665
  866W        W 4610   8.893   7.467  10.847
  867W        W 4611   1.075   9.305   3.067
  868W        W 4612   3.669   2.753  10.034
  869W        W 4613   8.068   6.457  10.714
  870W        W 4614   6.448   3.240   0.554
  871W        W 4615   8.649   3.598   2.056
  872W        W 4616   9.529   6.627   1.180
  873W        W 4617   4.174   9.809  10.955
  874W        W 4618   1.443   0.553   2.297
  875W        W 4619   7.882   3.284  10.488
  876W        W 4620   0.338   3.213   9.134
  877W        W 4621   1.739   5.071   3.222
  878W        W 4622   4.109   0.397  10.752
  879W        W 4623   2.587   6.575   2.166
  880W        W 4624   0.531   0.906   9.937
  881W        W 4625   7.523   9.958   1.040
  882W        W 4626   2.053   1.014  11.799
  883W        W 4627   7.432   4.961   9.793
  884W        W 4628   8.466   4.660  10.793
  885W        W 4629  10.051   0.920  10.567
  886W        W 4630   9.655   6.641   2.199
  887W        W 4631   9.383   6.127  10.728
  888W        W 4632   4.991   2.615   9.002
  889W        W 4633   8.472   4.583   8.841
  890W        W 4634   4.691   2.189  11.451
  891W        W 4635  10.237   7.963   1.433
  892W        W 4636   9.088   2.831   0.981
  893W        W 4637   6.575   5.121   0.876
  894W        W 4638   8.188   3.612   8.927
  895W        W 4639  10.417   3.263   9.434
  896W        W 4640   0.667   9.747  10.471
  897W        W 4641   0.892   0.945   1.218
  898W        W 4642   8.110   4.789  11.229
  899W        W 4643   9.408   9.425  10.462
  900W        W 4644   0.491   7.569   0.838
  901W        W 4645   4.007   7.708   1.296
  902W        W 4646   3.586  10.027   0.482
  903W        W 4647   4.726   1.741   8.950
  904W        W 4648   5.631   9.393  11.752
  905W        W 4649   4.277   3.628   0.674
  906W        W 4650   7.563   7.628  10.295
  907W        W 4651   0.817   7.999   2.434
  908W        W 4652   2.557   1.167  11.466
  909W        W 4653   0.937   9.149   1.899
  910W        W 4654   0.862   3.055   2.300
  911W        W 4655   8.028   9.331   3.168
  912W        W 4656   7.606   1.035   3.379
  913W        W 4657   8.507   0.492   0.605
  914W        W 4658   8.430   1.967  11.946
  915W        W 4659   6.975   1.475   0.402
  916W        W 4660   6.444   2.753   3.232
  917W        W 4661   2.237   9.360  11.266
  918W        W 4662   8.099   1.389   9.178
  919W        W 4663   1.698   7.217   8.893
  920W        W 4664   2.144   4.096  10.736
  921W        W 4665   6.519   0.727   0.402
  922W        W 4666   9.885   2.731  11.127
  923W        W 4667   6.414   6.813  10.560
  924W        W 4668   0.944   8.752  10.352
  925W        W 4669   3.525   0.958   1.323
  926W        W 4670   3.328   6.807   0.213
  927W        W 4671  10.027   7.342  11.876
  928W        W 4672   8.870   4.221  10.489
  929W        W 4673   7.035   6.964   9.989
  930W        W 4674   1.525   8.199  11.922
  931W        W 4675   9.076   9.480  11.829
  932W        W 4676   0.573   9.128  11.125
  933W        W 4677   5.507   6.665   4.074
  934W        W 4678   8.663   9.818   8.413
  935W        W 4679   0.568   4.837   0.543
  936W        W 4680   9.372   6.161   8.758
  937W        W 4681   6.610   3.760   1.428
  938W        W 4682   9.449   6.398  10.278
  939W        W 4683   4.356  10.350   2.893
  940W        W 4684   3.876   7.301   2.204
  941W        W 4685   8.416   0.732  11.358
  942W        W 4686   4.569   5.782  11.899
  943W        W 4687   8.732   9.328   2.171
  944W        W 4688   3.677   6.068   1.305
  945W        W 4689   8.319   9.477   0.890
  946W        W 4690   5.185   5.246   9.553
  947W        W 4691   7.897   4.054   1.124
  948W        W 4692   1.833   1.610   0.537
  949W        W 4693   5.133   5.235   0.825
  950W        W 4694   1.716   4.189   3.188
  951W        W 4695   3.266   8.369   9.534
  952W        W 4696   9.940   3.134   9.229
  953W        W 4697   6.112   2.472  10.372
  954W        W 4698   1.886   9.391  10.825
  955W        W 4699   5.598   6.497   2.372
  956W        W 4700   2.618   9.981   9.112
  957W        W 4701   0.964   9.003   2.419
  958W        W 4702   3.821   9.376  11.767
  959W        W 4703   2.654   8.057   3.276
  960W        W 4704   4.573   4.047   8.914
  961W        W 4705   3.683   7.563   3.445
  962W        W 4706   2.394   0.287  11.815
  963W        W 4707   5.662   8.036  11.295
  964W        W 4708   1.408   5.664   2.484
  965W        W 4709   5.258   0.958  11.356
  966W        W 4710   7.502   6.978   8.658
  967W        W 4711   2.893   3.174   8.914
  968W        W 4712   2.611   8.942   9.977
  969W        W 4713   5.652   7.575   8.867
  970W        W 4714   4.070   2.222   8.880
  971W        W 4715   5.960   6.798   9.508
  972W        W 4716   9.826  10.277  11.433
  973W        W 4717   4.236   0.343   2.767
  974W        W 4718   7.458   1.042   2.884
  975W        W 4719   4.269   8.578   2.732
  976W        W 4720   1.858   5.078   9.994
  977W        W 4721   8.883   4.544   2.013
  978W        W 4722   3.188   6.106   9.634
  979W        W 4723   9.028   0.838  11.419
  980W        W 4724   5.555   1.672  10.532
  981W        W 4725   2.752   8.096   1.737
  982W        W 4726   6.653   8.132   2.797
  983W        W 4727   6.654  10.025   1.014
  984W        W 4728   6.699   4.448   0.639
  985W        W 4729   4.829   9.827   0.897
  986W        W 4730  10.432   1.424   0.822
  987W        W 4731  10.318   4.714  11.383
  988W        W 4732   3.527   5.282   9.427
  989W        W 4733   5.459   4.338   1.664
  990W        W 4734   0.170   0.193   2.120
  991W        W 4735   0.917   7.171   3.619
  992W        W 4736   4.582   2.668   2.753
  993W        W 4737   1.163   6.124  10.846
  994W        W 4738   9.100   9.719   2.146
  995W        W 4739   8.811   9.876  11.521
  996W        W 4740   6.873   8.317   2.350
  997W        W 4741   0.236   9.202   2.428
  998W        W 4742   8.945   0.076  10.475
  999W        W 4743  10.293   3.250  11.366
 1000W        W 4744   2.343   2.108   2.049
 1001W        W 4745   7.823   3.303   1.118
 1002W        W 4746   0.785   0.512  11.567
 1003W        W 4747   4.925   4.460   2.948
 1004W        W 4748   2.275   7.833   0.373
 1005W        W 4749   9.864   9.259   2.626
 1006W        W 4750   4.051   3.944   9.142
 1007W        W 4751   5.353   7.886   2.650
 1008W        W 4752   6.579   5.721  11.708
 1009W        W 4753   5.948   2.227  10.775
 1010W        W 4754   5.681   8.575   0.714
 1011W        W 4755  10.306  10.015  11.783
 1012W        W 4756   1.677   9.059   9.133
 1013W        W 4757   2.734   2.742   3.488
 1014W        W 4758   7.421   1.328   1.700
 1015W        W 4759   1.186   1.892   1.567
 1016W        W 4760   3.157   6.119  11.764
 1017W        W 4761   7.946   9.148   0.787
 1018W        W 4762   3.526   7.715   1.644
 1019W        W 4763   3.665   4.695   8.229
 1020W        W 4764   7.090   4.734  10.396
 1021W        W 4765   9.392   3.723  10.144
 1022W        W 4766   8.571   5.691   3.049
 1023W        W 4767   4.012   4.436   1.563
 1024W        W 4768   9.163   3.573  11.340
 1025W        W 4769   9.544   6.359   0.161
 1026W        W 4770   2.634   2.607   3.010
 1027W        W 4771   9.329   7.833  11.497
 1028W        W 4772   8.353  10.193   0.175
 1029W        W 4773   5.548   0.018   8.867
 1030W        W 4774   5.788   9.858   9.600
 1031W        W 4775   1.330   0.768   9.528
 1032W        W 4776   1.232   5.111   3.029
 1033W        W 4777   5.657  10.384   1.977
 1034W        W 4778   5.752   0.658   1.316
 1035W        W 4779   1.861   8.548   3.177
 1036W        W 4780   1.126   0.950   3.560
 1037W        W 4781  10.451   1.790  10.103
 1038W        W 4782   2.280   3.667  11.089
 1039W        W 4783   8.878   5.740   2.641
 1040W        W 4784   8.140   9.262   9.833
 1041W        W 4785   5.217   3.540   1.727
 1042W        W 4786   1.870   8.450  10.156
 1043W        W 4787   5.587   3.680  11.944
 1044W        W 4788   8.320   3.323  10.818
 1045W        W 4789   6.549   8.526   9.847
 1046W        W 4790   2.789   0.378   9.765
 1047W        W 4791   7.531   0.276   2.293
 1048W        W 4792  10.224   5.113   3.237
 1049W        W 4793   1.330   5.941   3.438
 1050W        W 4794   4.589   1.876  11.052
 1051W        W 4795   4.272   3.319  11.261
 1052W        W 4796   8.205  10.207   8.862
 1053W        W 4797   9.746   4.023   1.709
 1054W        W 4798  10.187   5.992   8.994
 1055W        W 4799   2.567   4.501   8.764
 1056W        W 4800   6.652   7.522   1.735
 1057W        W 4801   5.786   6.207  11.510
 1058W        W 4802   6.858   5.159   9.535
 1059W        W 4803   0.926   3.571  10.812
 1060W        W 4804   4.064   0.194  11.224
 1061W        W 4805  10.008   3.228   9.753
 1062W        W 4806   0.865   7.936   2.976
 1063W        W 4807   1.359   9.985  10.612
 1064W        W 4808   0.566   0.597   9.139
 1065W        W 4809   7.106   1.064   8.958
 1066W        W 4810   0.788   2.602   2.987
 1067W        W 4811   8.708   7.306  11.837
 1068W        W 4812   7.155   3.369   8.948
 1069W        W 4813   4.415   0.018   2.409
 1070W        W 4814   7.839   5.182  11.436
 1071W        W 4815   9.568   7.129  10.992
 1072W        W 4816   4.133  10.073  10.037
 1073W        W 4817   6.998   6.099   9.628
 1074W        W 4818   0.112   7.469   9.576
 1075W        W 4819   7.117   4.589   4.257
 1076W        W 4820   7.460   0.851  10.903
 1077W        W 4821   5.244   8.307   0.491
 1078W        W 4822   4.770   9.324   0.930
 1079W        W 4823   9.253   1.615   1.966
 1080W        W 4824   5.127   8.992   1.930
 1081W        W 4825   3.623   8.587   8.961
 1082W        W 4826   6.935   0.173  11.823
 1083W        W 4827   9.902   1.874   1.436
 1084W        W 4828   7.568   5.403  11.003
 1085W        W 4829   8.672   6.836   1.470
 1086W        W 4830   5.788   4.652   1.366
 1087W        W 4831   5.089  10.460   1.553
 1088W        W 4832   8.339   6.219   2.172
 1089W        W 4833   6.153   3.680   1.693
 1090W        W 4834  10.359   1.252   2.683
 1091W        W 4835   3.558   2.731   1.849
 1092W        W 4836   5.262   8.989  11.469
 1093W        W 4837   1.741   7.177   9.782
 1094W        W 4838   9.850   7.043   2.976
 1095W        W 4839   3.694   9.604   0.210
 1096W        W 4840   6.867   2.227  10.689
 1097W        W 4841   9.396   1.222  10.013
 1098W        W 4842   5.372   0.440  10.580
 1099W        W 4843   3.284  10.186  10.880
 1100W        W 4844   8.146   8.391   0.303
 1101W        W 4845   6.489   3.366   2.788
 1102W        W 4846   4.626   7.865   2.311
 1103W        W 4847   2.324   8.367   1.406
 1104W        W 4848   6.076   9.674  10.473
 1105W        W 4849   6.084   1.032   0.160
 1106W        W 4850   3.272   0.515   2.787
 1107W        W 4851   3.920   4.652   2.722
 1108W        W 4852   2.860   3.573  11.738
 1109W        W 4853   5.279   1.350  11.001
 1110W        W 4854   2.938   4.595   9.623
 1111W        W 4855   6.218   1.288  10.565
 1112W        W 4856   3.208   4.568  11.579
 1113W        W 4857   6.555  10.219   0.544
 1114W        W 4858   9.874   1.393  10.692
 1115W        W 4859   0.142   8.306   0.356
 1116W        W 4860   3.414   3.660  10.381
 1117W        W 4861   0.183   6.183   9.853
 1118W        W 4862   4.942   5.640  10.264
 1119W        W 4863   6.164   6.493   1.216
 1120W        W 4864   5.616   3.127  11.123
 1121W        W 4865   4.698   9.112   9.145
 1122W        W 4866   9.534   9.580   0.031
 1123W        W 4867   4.994   4.541   1.845
 1124W        W 4868   1.744   6.015   9.922
 1125W        W 4869   2.193   9.491   9.851
 1126W        W 4870   0.370   2.746   1.159
 1127W        W 4871   2.971   5.939   0.546
 1128W        W 4872   2.222   0.941  10.559
 1129W        W 4873   0.174   1.664  11.077
 1130W        W 4874   3.552   1.707  11.996
 1131W        W 4875   9.965   6.156   1.364
 1132W        W 4876   8.105   7.212   8.655
 1133W        W 4877   5.973   7.485   1.503
 1134W        W 4878   3.699   3.520   1.463
 1135W        W 4879   8.477   5.906   9.585
 1136W        W 4880   1.030   5.936   9.427
 1137W        W 4881   2.813   8.899   2.171
 1138W        W 4882   4.816   3.154   2.695
 1139W        W 4883   9.904   6.020   0.002
 1140W        W 4884   4.993   4.203   8.672
 1141W        W 4885  10.423   7.246   0.209
 1142W        W 4886   9.579   7.036  11.921
 1143W        W 4887   7.568   5.778  11.923
 1144W        W 4888   3.732   1.425   9.358
 1145W        W 4889   0.759   7.049  10.585
 1146W        W 4890   9.185   1.751  10.811
 1147W        W 4891   8.940   3.309   1.091
 1148W        W 4892  10.306   0.471   0.685
 1149W        W 4893   0.290   6.968  10.248
 1150W        W 4894   8.422   5.036   9.630
 1151W        W 4895   0.343   2.862   3.086
 1152W        W 4896   4.409   9.538  10.130
 1153W        W 4897   7.917  10.253   9.595
 1154W        W 4898   2.680   5.654   1.727
 1155W        W 4899   7.206   7.008   0.214
 1156W        W 4900   5.422   7.312   3.700
 1157W        W 4901   8.357  10.480  11.750
 1158W        W 4902   6.465   1.406   9.609
 1159W        W 4903   1.776   4.280   0.630
 1160W        W 4904   9.892   8.898  11.560
 1161W        W 4905   3.529   7.543   1.167
 1162W        W 4906   1.777   3.146   2.955
 1163W        W 4907   6.965   6.067   0.960
 1164W        W 4908   0.487   2.109   0.908
 1165W        W 4909   7.136   9.317   3.252
 1166W        W 4910   2.699   1.921   9.926
 1167W        W 4911   3.700   8.862   0.902
 1168W        W 4912   1.365   0.866  10.534
 1169W        W 4913   9.966   5.691  10.310
 1170W        W 4914   8.746  10.045  10.511
 1171W        W 4915   3.127   9.800  11.343
 1172W        W 4916   1.833   5.762  11.237
 1173W        W 4917   0.980   1.356   3.289
 1174W        W 4918   9.564   7.084   3.446
 1175W        W 4919  10.339   9.832   1.672
 1176W        W 4920   5.753   7.023   2.360
 1177W        W 4921   7.397   5.661   9.110
 1178W        W 4922   2.851   4.808   2.804
 1179W        W 4923   9.510   3.562   3.316
 1180W        W 4924   9.566   4.503   0.433
 1181W        W 4925   5.647   1.277   8.748
 1182W        W 4926   7.057   3.976   2.405
 1183W        W 4927   5.642   3.755   1.964
 1184W        W 4928   7.689   3.831  11.869
 1185W        W 4929   7.174   2.643  10.627
 1186W        W 4930  10.429   4.371   0.775
 1187W        W 4931   7.186   1.248  11.852
 1188W        W 4932   2.906   2.948   8.437
 1189W        W 4933   5.538   2.224   8.804
 1190W        W 4934   8.210   1.884   2.909
 1191W        W 4935   3.321   0.519   2.261
 1192W        W 4936   7.941   7.388   2.702
 1193W        W 4937   0.272   1.356   9.838
 1194W        W 4938   2.456   1.872   8.678
 1195W        W 4939   0.630   8.901   0.940
 1196W        W 4940   6.199   5.996   1.038
 1197W        W 4941   9.073   3.755  10.546
 1198W        W 4942   4.265   1.163   0.849
 1199W        W 4943   2.652   3.793   0.621
 1200W        W 4944   7.886   5.110   0.214
 1201W        W 4945   7.824   8.293  11.320
 1202W        W 4946   7.943   6.617  11.693
 1203W        W 4947   1.271   7.282   3.059
 1204W        W 4948   1.443   6.512  11.010
 1205W        W 4949   7.612   7.856  11.046
 1206W        W 4950   1.657   2.739   3.219
 1207W        W 4951   6.047   1.962   0.741
 1208W        W 4952   2.173   8.586   2.299
 1209W        W 4953   6.902   7.861   9.995
 1210W        W 4954   1.386   5.571   9.440
 1211W        W 4955   1.875   5.903  10.409
 1212W        W 4956   1.722   7.723   8.782
 1213W        W 4957   7.188   1.480  11.328
 1214W        W 4958   2.274   3.772   8.891
 1215W        W 4959  10.022   3.806  10.278
 1216W        W 4960   0.037   9.371   1.433
 1217W        W 4961   9.848   5.519   9.825
 1218W        W 4962   7.678   9.356   8.579
 1219W        W 4963   3.160   2.763   9.356
 1220W        W 4964   7.294   4.423   0.597
 1221W        W 4965   2.954   7.575   8.655
 1222W        W 4966   4.025   7.944   3.365
 1223W        W 4967   3.562   3.155   3.232
 1224W        W 4968   8.194   4.691   0.173
 1225W        W 4969   5.618   1.660   2.514
 1226W        W 4970   3.153   4.084  10.833
 1227W        W 4971   9.527   0.697  11.613
 1228W        W 4972   5.640   8.468   0.212
 1229W        W 4973   2.144   7.328  11.235
 1230W        W 4974   4.595   5.029  10.802
 1231W        W 4975   3.766   1.325  10.371
 1232W        W 4976   2.271   8.359   9.009
 1233W        W 4977   8.901   0.052   1.807
 1234W        W 4978   6.026   5.806   9.569
 1235W        W 4979   0.741  10.147   3.266
 1236W        W 4980   5.723   9.564   3.005
 1237W        W 4981   9.431   1.731   1.495
 1238W        W 4982   3.510   1.711   0.791
 1239W        W 4983   6.962   0.262   9.526
 1240W        W 4984   9.510   0.970   0.899
 1241W        W 4985   9.327   9.634   2.878
 1242W        W 4986   9.330   5.104   9.229
 1243W        W 4987   1.515   7.761   2.920
 1244W        W 4988   2.215   5.803   2.364
 1245W        W 4989   6.190   6.462   3.912
 1246W        W 4990   5.259   3.785   2.300
 1247W        W 4991   0.500   8.288   9.507
 1248W        W 4992   6.222   2.718  10.795
 1249W        W 4993   4.947   3.704   7.832
 1250W        W 4994   4.274   3.898  10.348
 1251W        W 4995   7.385   6.782   3.668
 1252W        W 4996   5.378   7.082  10.567
 1253W        W 4997   6.055   8.386   9.590
 1254W        W 4998   7.209   7.314   0.669
 1255W        W 4999   5.088   0.738   2.165
 1256W        W 5000   4.746   2.699  10.759
 1257W        W 5001   3.337   2.815   0.258
 1258W        W 5002   7.974   0.972   8.862
 1259W        W 5003   6.006   3.906  10.187
 1260W        W 5004   2.153   5.787   8.972
 1261W        W 5005   2.803   4.698   1.940
 1262W        W 5006   9.714   7.140   1.445
 1263W        W 5007   8.582   3.362   3.352
 1264W        W 5008   5.004   7.982   9.750
 1265W        W 5009   1.685   4.700   9.691
 1266W        W 5010   9.135   8.194   9.245
 1267W        W 5011   7.458   5.215   3.597
 1268W        W 5012   6.513   7.335   2.738
 1269W        W 5013   4.561   8.122  10.025
 1270W        W 5014   4.518   9.694   8.562
 1271W        W 5015   7.841  10.413  11.956
 1272W        W 5016   4.138   1.401   0.393
 1273W        W 5017   1.259   6.459   0.309
 1274W        W 5018   8.110   8.911   0.330
 1275W        W 5019   0.135   6.810   8.654
 1276W        W 5020   4.614   5.021   2.671
 1277W        W 5021   9.367   2.480   9.963
 1278W        W 5022  10.171   0.379   9.902
 1279W        W 5023   1.824   1.653  10.057
 1280W        W 5024   1.289   2.185   1.157
 1281W        W 5025   7.937   8.837   3.310
 1282W        W 5026  10.278   6.488   9.651
 1283W        W 5027   0.475   3.457  10.600
 1284W        W 5028   7.059   5.382   0.762
 1285W        W 5029   5.612   9.391   1.449
 1286W        W 5030   3.483   8.368   3.204
 1287W        W 5031   7.467   5.033   0.482
 1288W        W 5032   7.242   9.289   1.901
 1289W        W 5033   9.100   1.331   0.238
 1290W        W 5034   2.825   4.030   3.290
 1291W        W 5035   9.747   0.469   1.926
 1292W        W 5036   1.834   5.547   0.254
 1293W        W 5037   3.118  10.493   9.618
 1294W        W 5038   1.839  10.325  11.516
 1295W        W 5039  10.272   1.946   2.032
 1296W        W 5040   6.886   7.599   1.232
 1297W        W 5041   6.484   3.534  10.743
 1298W        W 5042   8.745  10.431   9.460
 1299W        W 5043   3.215   5.977   2.311
 1300W        W 5044   4.471   4.610   0.824
 1301W        W 5045  10.471   5.433   2.364
 1302W        W 5046   3.049   0.692   3.247
 1303W        W 5047   6.705   5.549  10.835
 1304W        W 5048   8.927   7.654   0.358
 1305W        W 5049   8.397   8.605   3.317
 1306W        W 5050   2.408   0.289   9.409
 1307W        W 5051   8.372   1.811   0.433
 1308W        W 5052   0.819   2.360   8.610
 1309W        W 5053   0.709   4.129   2.239
 1310W        W 5054   6.921   2.259   8.812
 1311W        W 5055   4.642   7.069   1.651
 1312W        W 5056   0.385   6.419  11.909
 1313W        W 5057   3.191   7.610   3.305
 1314W        W 5058   4.145   7.877   9.789
 1315W        W 5059   2.503   9.593   8.791
 1316W        W 5060   7.673   6.529   1.570
 1317W        W 5061   6.843   2.315  11.732
 1318W        W 5062   1.166   7.561  11.259
 1319W        W 5063   4.591   9.947   2.697
 1320W        W 5064   7.818   6.017   4.125
 1321W        W 5065   4.843   1.311  11.250
 1322W        W 5066   6.563   5.843   2.740
 1323W        W 5067   9.917   7.462   1.818
 1324W        W 5068   6.495   0.982   9.287
 1325W        W 5069   2.402   1.466   9.030
 1326W        W 5070   4.768   6.524   1.801
 1327W        W 5071   4.614   6.145  10.370
 1328W        W 5072   6.985   9.440   1.461
 1329W        W 5073   4.148   4.695   9.968
 1330W        W 5074   2.707   3.222  10.860
 1331W        W 5075   4.196   0.344   1.199
 1332W        W 5076   7.696   8.311   0.525
 1333W        W 5077   9.376   0.217   9.542
 1334W        W 5078   2.824   1.425   9.839
 1335W        W 5079   3.221   4.091  11.341
 1336W        W 5080   7.421   9.749   0.456
 1337W        W 5081   1.223   6.509   1.705
 1338W        W 5082  10.389   0.181   1.134
 1339W        W 5083   8.820   3.166   9.532
 1340W        W 5084   6.085   7.367   3.071
 1341W        W 5085   5.116   7.409  10.085
 1342W        W 5086   7.717   7.306   9.932
 1343W        W 5087   3.821   2.245   1.765
 1344W        W 5088   2.588   3.177  11.944
 1345W        W 5089   3.932   2.633   8.593
 1346W        W 5090   7.904   7.027   9.540
 1347W        W 5091   3.888   3.640  11.059
 1348W        W 5092   6.088   0.384   0.812
 1349W        W 5093   2.169   4.405   8.441
 1350W        W 5094   6.228   0.062  10.871
 1351W        W 5095   7.522   2.941   2.301
 1352W        W 5096   5.556   4.367  11.410
 1353W        W 5097   8.240   5.834   3.865
 1354W        W 5098   9.007   7.706   9.306
 1355W        W 5099   4.726   7.234   9.481
 1356W        W 5100   7.916   1.160   1.925
 1357W        W 5101   7.866   8.357   9.826
 1358W        W 5102   3.706   1.409   1.487
 1359W        W 5103   7.428   7.411  11.246
 1360W        W 5104   6.572   6.847   2.713
 1361W        W 5105   8.492   4.553   3.117
 1362W        W 5106   7.964   5.095   8.069
 1363W        W 5107   4.572  10.349  10.034
 1364W        W 5108   5.749   4.638   2.933
 1365W        W 5109   9.722  10.474   1.240
 1366W        W 5110  10.064   0.515  11.800
 1367W        W 5111   5.104   6.146  11.057
 1368W        W 5112   2.333   6.159   3.710
 1369W        W 5113   2.007   1.161   8.785
 1370W        W 5114   1.821   3.205  10.991
 1371W        W 5115   4.082   2.374   0.453
 1372W        W 5116   9.352   0.391   8.677
 1373W        W 5117   2.940   4.029   2.350
 1374W        W 5118   8.953   2.714  10.736
 1375W        W 5119   4.460   6.778  11.808
 1376W        W 5120   0.135   9.309  11.280
 1377W        W 5121  10.320   6.376   2.546
 1378W        W 5122   5.846   7.688   1.959
 1379W        W 5123   2.669   9.891   3.226
 1380W        W 5124   8.397   4.168   9.566
 1381W        W 5125   5.737   8.316   1.146
 1382W        W 5126   4.715   3.246   9.695
 1383W        W 5127   2.621   1.221  10.297
 1384W        W 5128   7.801  10.335   1.247
 1385W        W 5129   8.284   0.231   0.202
 1386W        W 5130   7.086   8.806   3.335
 1387W        W 5131   7.892   9.369   2.642
 1388W        W 5132   2.279   9.841   1.409
 1389W        W 5133   5.988   2.965  10.349
 1390W        W 5134   7.229   7.900   1.701
 1391W        W 5135   1.732   2.657   9.536
 1392W        W 5136   5.437   0.847  10.894
 1393W        W 5137   9.821   0.731   3.264
 1394W        W 5138   1.262   0.535  11.401
 1395W        W 5139   8.565   1.760   1.385
 1396W        W 5140   2.451   2.205   9.580
 1397W        W 5141   1.937   3.317   1.511
 1398W        W 5142   5.701   8.223   2.743
 1399W        W 5143   1.018   2.335   9.593
 1400W        W 5144   0.700   2.905  11.405
 1401W        W 5145   7.681   1.999  10.273
 1402W        W 5146   5.472   0.815   3.076
 1403W        W 5147   3.931   5.639  10.245
 1404W        W 5148   2.909   4.519  10.968
 1405W        W 5149   8.953   6.201   2.812
 1406W        W 5150   5.554   2.047   0.966
 1407W        W 5151   1.603   8.038  10.058
 1408W        W 5152   2.691   7.008   3.467
 1409W        W 5153   7.752   1.311   3.793
 1410W        W 5154   2.820   3.743   1.948
 1411W        W 5155  10.361   3.099   8.945
 1412W        W 5156   9.088   6.673   2.662
 1413W        W 5157   1.208   3.312   0.223
 1414W        W 5158   4.891   0.683   8.236
 1415W        W 5159   3.574   3.216  10.665
 1416W        W 5160   1.463   2.269   9.338
 1417W        W 5161   0.468   6.860  10.963
 1418W        W 5162   2.109   7.665   1.165
 1419W        W 5163   1.327   4.320   9.001
 1420W        W 5164   2.567   2.673   0.842
 1421W        W 5165   9.107   5.560   9.261
 1422W        W 5166   0.288   4.134  11.923
 1423W        W 5167   2.436   0.855   1.908
 1424W        W 5168   2.381   6.075   9.793
 1425W        W 5169   5.013   3.786   9.044
 1426W        W 5170   8.893   5.306   0.439
 1427W        W 5171   6.203   5.491   0.078
 1428W        W 5172   1.513   5.062   1.933
 1429W        W 5173   0.233   0.560   0.961
 1430W        W 5174   6.137   8.392  10.114
 1431W        W 5175   0.318   0.393  11.362
 1432W        W 5176   9.491   4.154   0.069
 1433W        W 5177   7.974   8.744   1.690
 1434W        W 5178  10.231   8.466   3.142
 1435W        W 5179   4.823   4.566   1.349
 1436W        W 5180   0.946   0.330   0.336
 1437W        W 5181   8.909   9.889   3.076
 1438W        W 5182   1.066  10.376   0.155
 1439W        W 5183   7.998   4.620   2.396
 1440W        W 5184  10.329  10.054   9.004
 1441W        W 5185   8.879   5.589   9.741
 1442W        W 5186   8.840   9.056  11.980
 1443W        W 5187   4.784   1.224   0.740
 1444W        W 5188   7.951   6.493   2.627
 1445W        W 5189   5.439   2.143  10.729
 1446W        W 5190   4.226   5.854  10.640
 1447W        W 5191   2.199   2.202  11.137
 1448W        W 5192   5.200   4.242   3.620
 1449W        W 5193   3.706   5.894   2.215
 1450W        W 5194   1.746   9.619   8.955
 1451W        W 5195   5.270   0.062  10.945
 1452W        W 5196   6.096   9.908   2.964
 1453W        W 5197   2.157   6.535   1.887
 1454W        W 5198   8.174   5.762   8.473
 1455W        W 5199   1.629   4.586   0.247
 1456W        W 5200   7.634   3.266  11.937
 1457W        W 5201   2.839   5.749  10.394
 1458W        W 5202   6.621   6.615   3.159
 1459W        W 5203   6.817   2.067  10.206
 1460W        W 5204   5.736   3.765   2.482
 1461W        W 5205   5.173   1.753   0.822
 1462W        W 5206   3.803   3.546   9.383
 1463W        W 5207  10.205   6.029   0.914
 1464W        W 5208   4.236   1.400   9.583
 1465W        W 5209   2.980   0.886   2.390
 1466W        W 5210   3.554   0.152  11.289
 1467W        W 5211   4.711   0.321   9.917
 1468W        W 5212   1.743   3.128   2.460
 1469W        W 5213   0.993   8.321   0.486
 1470W        W 5214   3.507   6.688   8.687
 1471W        W 5215   2.271   5.477  11.993
 1472W        W 5216   6.437   5.269   2.584
 1473W        W 5217   2.337   0.231   3.407
 1474W        W 5218   7.540   1.502   0.714
 1475W        W 5219   9.723  10.152  10.257
 1476W        W 5220   9.598   2.254   1.241
 1477W        W 5221   1.808   7.275  10.304
 1478W        W 5222   0.735   4.301   3.240
 1479W        W 5223   1.677   7.605  11.308
 1480W        W 5224   8.537   5.286   1.271
 1481W        W 5225   5.748   7.130   4.042
 1482W        W 5226   4.521   8.118   8.975
 1483W        W 5227   9.779   7.650   9.379
 1484W        W 5228   4.973   7.899   8.814
 1485W        W 5229   8.748   5.838   0.955
 1486W        W 5230   3.257   6.359   1.447
 1487W        W 5231   6.847   8.101   8.894
 1488W        W 5232   8.992   3.353   1.591
 1489W        W 5233   9.497   4.717  10.964
 1490W        W 5234   2.751   4.628   0.705
 1491W        W 5235   9.839   2.218   0.174
 1492W        W 5236  10.371   6.101   0.287
 1493W        W 5237   3.162   5.646   1.893
 1494W        W 5238   7.891   7.171  10.409
 1495W        W 5239   6.167   0.545  10.746
 1496W        W 5240   7.841   9.737  11.444
 1497W        W 5241   3.961   8.407   3.102
 1498W        W 5242   0.263   8.566   9.137
 1499W        W 5243   5.316   4.494   1.196
 1500W        W 5244   8.484   6.384   1.277
 1501W        W 5245   7.645   9.562   3.525
 1502W        W 5246   3.714  10.111   9.114
 1503W        W 5247   8.560   1.060   2.865
 1504W        W 5248   4.273   1.480  11.093
 1505W        W 5249   3.573   4.319   0.437
 1506W        W 5250   4.536   6.972   0.624
 1507W        W 5251   8.466   9.028   2.504
 1508W        W 5252   2.061   7.725   2.114
 1509W        W 5253   8.485   8.282  11.948
 1510W        W 5254   1.776   2.119   2.812
 1511W        W 5255   5.666   1.300   0.243
 1512W        W 5256   7.009   7.496   3.484
 1513W        W 5257   0.193   5.943  11.895
 1514W        W 5258   9.434   5.019   1.259
 1515W        W 5259   4.265   1.109   9.998
 1516W        W 5260   0.002   8.408  10.989
 1517W        W 5261   9.320   0.557  10.442
 1518W        W 5262   3.116   6.968   2.122
 1519W        W 5263   7.668   4.165   8.304
 1520W        W 5264   1.469   5.491  11.457
 1521W        W 5265   5.083   0.072   3.384
 1522W        W 5266   9.536   5.440   0.965
 1523W        W 5267   9.053   5.828   3.150
 1524W        W 5268   8.769   7.053   2.775
 1525W        W 5269   3.749   8.618   2.669
 1526W        W 5270   2.745  10.426  11.583
 1527W        W 5271   3.497   2.764  10.959
 1528W        W 5272   7.271   2.300   9.735
 1529W        W 5273   3.212   9.226   3.599
 1530W        W 5274  10.336   6.197   3.042
 1531W        W 5275   1.821   3.716  10.879
 1532W        W 5276   7.491   6.112   9.417
 1533W        W 5277   6.051   7.431   2.568
 1534W        W 5278   5.632   8.294   3.620
 1535W        W 5279   2.227   5.780   1.464
 1536W        W 5280   5.537   6.847   0.397
 1537W        W 5281   3.237   1.188   3.325
 1538W        W 5282  10.357   6.480   9.101
 1539W        W 5283   6.766   8.454   0.301
 1540W        W 5284   9.822   5.230  10.473
 1541W        W 5285   4.472   7.545   1.488
 1542W        W 5286   3.658   6.714   9.188
 1543W        W 5287   1.459   5.564   2.978
 1544W        W 5288   5.587   3.099   9.397
 1545W        W 5289   7.541   8.871   1.944
 1546W        W 5290  10.170   6.004   9.869
 1547W        W 5291   9.853   6.022   8.594
 1548W        W 5292   6.122   9.887   9.988
 1549W        W 5293   9.866   3.261  11.132
 1550W        W 5294   6.092   6.476  11.813
 1551W        W 5295   4.487   7.472   1.996
 1552W        W 5296   2.393   7.582  10.124
 1553W        W 5297   4.470   7.245  11.081
 1554W        W 5298   5.641   1.294   9.260
 1555W        W 5299   7.251   4.444   9.023
 1556W        W 5300   7.695   6.951   0.340
 1557W        W 5301  10.265   4.971   2.507
 1558W        W 5302   8.954   6.218   3.481
 1559W        W 5303   8.097   1.265  11.464
 1560W        W 5304   6.759   5.691   9.858
 1561W        W 5305   1.542   1.888   1.965
 1562W        W 5306   4.871   5.647   9.412
 1563W        W 5307   5.114   1.176   3.010
 1564W        W 5308   3.593   3.725   8.939
 1565W        W 5309   7.500   6.762  11.880
 1566W        W 5310   5.681   2.796   1.595
 1567W        W 5311   3.690   5.885   3.156
 1568W        W 5312   6.108   5.931  11.811
 1569W        W 5313   2.834   0.736  11.515
 1570W        W 5314   7.362   2.360  11.758
 1571W        W 5315   5.292   9.318   2.956
 1572W        W 5316   9.690   5.444   9.319
 1573W        W 5317   2.131   8.024  10.112
 1574W        W 5318   8.078   4.480   3.946
 1575W        W 5319   9.561   0.471   0.598
 1576W        W 5320   4.602   0.740   0.823
 1577W        W 5321   2.193   4.073   0.867
 1578W        W 5322   1.350   9.380  11.621
 1579W        W 5323   1.056   8.383  10.712
 1580W        W 5324   1.598   0.763   0.810
 1581W        W 5325   7.761   1.158   2.447
 1582W        W 5326   9.203   5.597   3.597
 1583W        W 5327   1.856   9.240   0.333
 1584W        W 5328   9.998   0.331   2.959
 1585W        W 5329   1.354   8.411   9.258
 1586W        W 5330   8.839   0.798   9.029
 1587W        W 5331   6.545   5.025  11.069
 1588W        W 5332   8.952   7.945   3.375
 1589W        W 5333   5.396   7.108   8.791
 1590W        W 5334   1.817   8.068   9.158
 1591W        W 5335   6.362   2.429  11.926
 1592W        W 5336   1.228   1.138   0.031
 1593W        W 5337   3.356   8.729   0.449
 1594W        W 5338   5.706   0.190  11.451
 1595W        W 5339   7.092   6.577   1.529
 1596W        W 5340   8.005   7.686  10.615
 1597W        W 5341   9.264   2.386  10.464
 1598W        W 5342   9.866   6.172   2.339
 1599W        W 5343   7.256   2.939   0.916
 1600W        W 5344   0.959   5.154   0.585
 1601W        W 5345  10.373   4.529   1.259
 1602W        W 5346   3.562   3.654   9.818
 1603W        W 5347   8.958   3.590   0.274
 1604W        W 5348   6.010   5.202  10.128
 1605W        W 5349   9.762   8.158  10.721
 1606W        W 5350   8.872   4.369   2.562
 1607W        W 5351   7.393   6.590   1.969
 1608W        W 5352   1.292   5.750   9.926
 1609W        W 5353   0.017   8.774   2.245
 1610W        W 5354   7.615   8.114   1.448
 1611W        W 5355   6.942   4.537  11.816
 1612W        W 5356   5.487   6.232   2.810
 1613W        W 5357   8.199   0.673   9.678
 1614W        W 5358   6.017   9.165   1.743
 1615W        W 5359   5.319   9.885   0.892
 1616W        W 5360   7.653   9.552  11.011
 1617W        W 5361   7.113   3.612   2.060
 1618W        W 5362   4.729   3.661   0.926
 1619W        W 5363   8.518   1.487   9.956
 1620W        W 5364   8.425   3.801   2.458
 1621W        W 5365   2.504   1.647   0.887
 1622W        W 5366   4.113   6.591   9.390
 1623W        W 5367   3.361   2.285   9.627
 1624W        W 5368   9.639   3.468  11.560
 1625W        W 5369   6.131   0.314   1.364
 1626W        W 5370   5.213   3.923   9.514
 1627W        W 5371   4.898   9.041   2.844
 1628W        W 5372   3.357   7.543   3.827
 1629W        W 5373   9.403   9.769   1.677
 1630W        W 5374   1.676  10.438   2.905
 1631W        W 5375   8.458   2.785   9.471
 1632W        W 5376   4.125   4.129   1.957
 1633W        W 5377   1.318   9.433   9.240
 1634W        W 5378   2.813   7.350   0.486
 1635W        W 5379   8.957   3.155  11.022
 1636W        W 5380   5.073  10.486   0.280
 1637W        W 5381   1.226   2.760   1.470
 1638W        W 5382   8.528   5.542  10.561
 1639W        W 5383   2.655   6.064   2.905
 1640W        W 5384   0.194   2.720   9.126
 1641W        W 5385   6.959   6.015   3.567
 1642W        W 5386   4.442   5.665  10.226
 1643W        W 5387   4.336   1.394   3.494
 1644W        W 5388   4.070   6.139   2.890
 1645W        W 5389   7.176   3.208  11.697
 1646W        W 5390   5.920   5.626  10.418
 1647W        W 5391   1.357   6.841   2.797
 1648W        W 5392   0.933   2.690  10.189
 1649W        W 5393   7.234   3.699   2.862
 1650W        W 5394   4.983   5.182   0.341
 1651W        W 5395   7.048   0.343   1.685
 1652W        W 5396   6.032   2.426   2.205
 1653W        W 5397   5.579   2.436   1.959
 1654W        W 5398   7.838   5.690   8.841
 1655W        W 5399   2.167   7.773  11.464
 1656W        W 5400   8.526   0.685   1.515
 1657W        W 5401   5.526  10.223  11.458
 1658W        W 5402   4.776   8.078  11.694
 1659W        W 5403   4.584   5.917   1.194
 1660W        W 5404  10.388   3.125   2.907
 1661W        W 5405   1.953   1.355   9.258
 1662W        W 5406   4.759   3.641  10.493
 1663W        W 5407   0.506   5.243   0.889
 1664W        W 5408   0.546   9.358   0.723
 1665W        W 5409   9.818   2.355   9.787
 1666W        W 5410   2.713   7.894   2.801
 1667W        W 5411   1.243   6.577   2.216
 1668W        W 5412   0.984   9.357   8.411
 1669W        W 5413   6.128   1.063  11.474
 1670W        W 5414   2.187   6.830   2.362
 1671W        W 5415   2.126   4.304   0.126
 1672W        W 5416   0.408   6.478   8.942
 1673W        W 5417   3.946   3.195   3.568
 1674W        W 5418   5.471   3.409   3.677
 1675W        W 5419   4.720   1.273   2.648
 1676W        W 5420   5.181   1.214   1.492
 1677W        W 5421   3.913   8.931   3.041
 1678W        W 5422   1.599   9.180  10.456
 1679W        W 5423   1.097   8.477   1.435
 1680W        W 5424   6.209   1.381   2.323
 1681W        W 5425   3.808   2.832   0.543
 1682W        W 5426   7.556   3.078   9.171
 1683W        W 5427   1.352   2.476  11.585
 1684W        W 5428   5.109   2.233   0.626
 1685W        W 5429   6.357   7.306  10.440
 1686W        W 5430   9.814   1.804  11.460
 1687W        W 5431   1.017   1.442   1.404
 1688W        W 5432   6.373   1.985   1.556
 1689W        W 5433   5.650   8.509   3.161
 1690W        W 5434   4.244   6.716   2.395
 1691W        W 5435   2.247   0.813   2.815
 1692W        W 5436   5.650   3.277   1.778
 1693W        W 5437   7.368   6.852   0.702
 1694W        W 5438   4.468   2.191   0.059
 1695W        W 5439   2.729   5.665  11.251
 1696W        W 5440   7.620   4.081   3.021
 1697W        W 5441  10.245   5.735  11.781
 1698W        W 5442   8.060   1.663  11.795
 1699W        W 5443   5.629   3.189   3.253
 1700W        W 5444   7.900   1.956  10.748
 1701W        W 5445   2.094   4.218   1.864
 1702W        W 5446   5.544  10.261   0.383
 1703W        W 5447   2.241  10.426   9.760
 1704W        W 5448   5.253   2.017   2.692
 1705W        W 5449   2.291   5.143   0.365
 1706W        W 5450   4.794   7.163   8.993
 1707W        W 5451   2.846   9.052   8.992
 1708W        W 5452  10.060   9.395   1.677
 1709W        W 5453   6.951   6.573   0.030
 1710W        W 5454   5.659   2.204   0.485
 1711W        W 5455   9.673   1.800  10.961
 1712W        W 5456   5.533   7.308   1.271
 1713W        W 5457   0.282   4.717   0.949
 1714W        W 5458   9.885   8.065  11.205
 1715W        W 5459   7.331   9.670  11.510
 1716W        W 5460   4.158   9.135   0.725
 1717W        W 5461   9.255   5.460   0.094
 1718W        W 5462   4.630   8.207   2.699
 1719W        W 5463   0.258   2.867  10.891
 1720W        W 5464   6.405   2.481   0.854
 1721W        W 5465   3.335   0.730  10.040
 1722W        W 5466   2.799   1.417  11.874
 1723W        W 5467   0.623   5.088   2.771
 1724W        W 5468  10.275   3.126   0.376
 1725W        W 5469   2.711   7.237   9.801
 1726W        W 5470   2.915   9.019  10.486
 1727W        W 5471   2.848   6.963   0.128
 1728W        W 5472   7.678   7.977   0.963
 1729W        W 5473   0.795  10.114   1.943
 1730W        W 5474   3.965   5.201  11.465
 1731W        W 5475   6.186   2.416   1.329
 1732W        W 5476  10.267   6.481  10.626
 1733W        W 5477   6.256   8.549   0.337
 1734W        W 5478   4.154   6.880   0.246
 1735W        W 5479   2.152   6.099  10.776
 1736W        W 5480   2.642   5.535   2.221
 1737W        W 5481   0.012   6.996  10.740
 1738W        W 5482   5.101   3.127  10.875
 1739W        W 5483   3.066   1.859   1.710
 1740W        W 5484   7.432   7.157   2.709
 1741W        W 5485   6.086   3.380   2.428
 1742W        W 5486   0.271   6.204  11.454
 1743W        W 5487   7.538   8.619   1.448
 1744W        W 5488   9.107   7.099   2.380
 1745W        W 5489   8.689   4.812   0.378
 1746W        W 5490   1.166   7.535   9.356
 1747W        W 5491   4.343   9.977   0.946
 1748W        W 5492   2.494   9.903  11.929
 1749W        W 5493   4.154   2.246   1.393
 1750W        W 5494   7.704   4.828  11.781
 1751W        W 5495   9.163   3.500   2.930
 1752W        W 5496   2.812   6.085   9.008
 1753W        W 5497   0.485   7.343   0.349
 1754W        W 5498   1.501   1.955   9.759
 1755W        W 5499   9.138   7.526   0.791
 1756W        W 5500  10.356   0.765   2.891
 1757W        W 5501   4.969   3.334   1.329
 1758W        W 5502   2.327   3.492  11.612
 1759W        W 5503   9.855   1.390   2.599
 1760W        W 5504   4.990   1.257   9.006
 1761W        W 5505   4.323   3.726   2.201
 1762W        W 5506   9.851   8.355  11.838
 1763W        W 5507   7.427   4.043   1.649
 1764W        W 5508   2.625   3.627   2.405
 1765W        W 5509   4.608   7.252   3.415
 1766W        W 5510   3.261   1.361   9.569
 1767W        W 5511   0.385   8.071   9.047
 1768W        W 5512   8.366   7.045   3.117
 1769W        W 5513   5.856   8.911   8.851
 1770W        W 5514   3.536   6.417  11.933
 1771W        W 5515   2.432   5.218  11.158
 1772W        W 5516   2.911   9.907   1.269
 1773W        W 5517   3.542   4.516   1.378
 1774W        W 5518   7.007  10.459  11.355
 1775W        W 5519   2.895   7.657  10.081
 1776W        W 5520   9.420   2.629   2.021
 1777W        W 5521   5.132   8.306  10.563
 1778W        W 5522   2.704   8.621   8.637
 1779W        W 5523   0.581   3.522   1.613
 1780W        W 5524   5.486   4.706  10.137
 1781W        W 5525   2.299   7.220   2.715
 1782W        W 5526   4.074   6.692   8.874
 1783W        W 5527   5.353   7.990   1.265
 1784W        W 5528   0.074   5.717  11.400
 1785W        W 5529   7.520   0.747   8.996
 1786W        W 5530   5.500   2.650   9.141
 1787W        W 5531   5.720   9.557   0.940
 1788W        W 5532   3.022   2.227   1.361
 1789W        W 5533   8.889   8.570  11.845
 1790W        W 5534   3.293   1.479  11.103
 1791W        W 5535   2.850   6.245  10.500
 1792W        W 5536   8.570   1.964   3.885
 1793W        W 5537   1.143   6.972   0.412
 1794W        W 5538   5.964   6.960   1.370
 1795W        W 5539   2.104   4.287   2.864
 1796W        W 5540   7.144   8.181   1.259
 1797W        W 5541   5.705   5.608  10.917
 1798W        W 5542   4.186   2.834   0.177
 1799W        W 5543   5.937   1.193   1.903
 1800W        W 5544   6.156   6.157   0.257
 1801W        W 5545   5.200   2.874   0.267
 1802W        W 5546  10.498   2.120  11.078
 1803W        W 5547   3.107   2.736  11.301
 1804W        W 5548   6.598   1.875   2.584
 1805W        W 5549   9.863   9.860   1.407
 1806W        W 5550   4.854   9.855  11.693
 1807W        W 5551   7.427   7.302  11.772
 1808W        W 5552   6.045   1.634   9.302
 1809W        W 5553   9.466   8.505   2.266
 1810W        W 5554   3.887   3.639  10.546
 1811W        W 5555   4.922   7.481  11.097
 1812W        W 5556   3.689   9.539   1.501
 1813W        W 5557   3.618   2.673   2.993
 1814W        W 5558   5.164   3.413   9.408
 1815W        W 5559   4.577   6.901   1.177
 1816W        W 5560  10.497   9.118  11.902
 1817W        W 5561   1.912   0.400   9.426
 1818W        W 5562   3.580   9.016   1.388
 1819W        W 5563   6.164   0.626   9.509
 1820W        W 5564   2.059   3.780   1.282
 1821W        W 5565   3.531   2.245   1.344
 1822W        W 5566   5.555   6.062   9.732
 1823W        W 5567   4.211   9.144   9.844
 1824W        W 5568   5.760  10.080   0.825
 1825W        W 5569   8.571   8.579   2.299
 1826W        W 5570   7.053   0.985  11.394
 1827W        W 5571   9.576   2.681   2.515
 1828W        W 5572   0.118   4.080   2.330
 1829W        W 5573   1.711   2.377   9.976
 1830W        W 5574   6.214   7.478   9.985
 1831W        W 5575   6.561   4.530   0.137
 1832W        W 5576   7.668   7.515   2.255
 1833W        W 5577  10.203   2.337   2.350
 1834W        W 5578   6.475   2.835   9.481
 1835W        W 5579   7.550   3.948   0.738
 1836W        W 5580   4.710   0.253   2.983
 1837W        W 5581   8.659   1.715   2.729
 1838W        W 5582   4.066   6.478  11.946
 1839W        W 5583   8.936   7.057   3.251
 1840W        W 5584   6.883   6.815   0.555
 1841W        W 5585   2.773   9.415   1.400
 1842W        W 5586   4.429   4.573   2.810
 1843W        W 5587   7.912   2.799   0.359
 1844W        W 5588   6.120   8.935   2.416
 1845W        W 5589   5.056  10.408  11.415
 1846W        W 5590   1.697   3.790   0.754
 1847W        W 5591   2.190   2.617   9.759
 1848W        W 5592   5.628   7.054   3.285
 1849W        W 5593   0.677   4.876   9.536
 1850W        W 5594   1.222   9.561   2.153
 1851W        W 5595   3.862   7.093   3.247
 1852W        W 5596   6.951   3.287   0.689
 1853W        W 5597   4.342   4.710   1.309
 1854W        W 5598  10.218   8.320  10.515
 1855W        W 5599   8.853   5.025   9.039
 1856W        W 5600   0.991   7.905   8.649
 1857W        W 5601   3.691   4.925   2.327
 1858W        W 5602   1.405   4.100  11.477
 1859W        W 5603   7.915   9.064  11.878
 1860W        W 5604   7.178   9.783   1.768
 1861W        W 5605  10.291   9.914   3.238
 1862W        W 5606   8.470   4.688   2.625
 1863W        W 5607   0.283   2.746   1.682
 1864W        W 5608  10.365   1.108   1.878
 1865W        W 5609   9.700   8.740   1.018
 1866W        W 5610   6.983   1.617   3.416
 1867W        W 5611   2.089   2.721  10.962
 1868W        W 5612   0.456   0.454   3.404
 1869W        W 5613   4.535   6.767  11.274
 1870W        W 5614   5.194   3.497   2.713
 1871W        W 5615   3.647   6.283   9.472
 1872W        W 5616   1.699   2.703   2.199
 1873W        W 5617   9.521   5.629   3.167
 1874W        W 5618   5.842   3.806   8.672
 1875W        W 5619   3.048   0.945   1.145
 1876W        W 5620   5.159   9.269  10.759
 1877W        W 5621   8.540   8.153   2.566
 1878W        W 5622   5.906   2.972   9.782
 1879W        W 5623   0.192   5.576   2.893
 1880W        W 5624   2.326   4.203   1.380
 1881W        W 5625   6.591   2.009   0.812
 1882W        W 5626   1.828   9.884  10.995
 1883W        W 5627   0.681   8.043   1.029
 1884W        W 5628  10.381   2.704   9.883
 1885W        W 5629   1.715   1.777  11.585
 1886W        W 5630   0.934   7.796   1.922
 1887W        W 5631   1.236   3.748   0.523
 1888W        W 5632   6.289   2.613   9.901
 1889W        W 5633   0.805   1.855  10.292
 1890W        W 5634   8.298   6.120   0.874
 1891W        W 5635   1.851   8.115   1.256
 1892W        W 5636   4.850   4.020   9.881
 1893W        W 5637   9.302   0.698   1.800
 1894W        W 5638   0.035   6.983   3.178
 1895W        W 5639   3.188   5.642  11.999
 1896W        W 5640   5.761   7.730   2.876
 1897W        W 5641   1.733   3.984   8.907
 1898W        W 5642   9.320   9.809   3.356
 1899W        W 5643   7.498   8.695   9.990
 1900W        W 5644   3.797   7.347   0.791
 1901W        W 5645   8.546   0.433   9.252
 1902W        W 5646   3.617   6.038   0.694
 1903W        W 5647   2.820   7.194   8.946
 1904W        W 5648   6.105   4.442   9.458
 1905W        W 5649   3.418   2.757   8.510
 1906W        W 5650   3.210   1.834  11.461
 1907W        W 5651   9.479   5.263   1.729
 1908W        W 5652  10.257   7.624   9.209
 1909W        W 5653   3.843   6.116   0.233
 1910W        W 5654   6.456   2.327   2.451
 1911W        W 5655   4.952   6.241   9.072
 1912W        W 5656   5.688   4.067   0.690
 1913W        W 5657   1.190   7.906   0.281
 1914W        W 5658   4.447   0.063   9.569
 1915W        W 5659   0.525   8.328  10.809
 1916W        W 5660   4.207   4.872   1.783
 1917W        W 5661   1.736   6.579   2.432
 1918W        W 5662  10.213   5.649   1.365
 1919W        W 5663   6.290   3.623   0.190
 1920W        W 5664   7.678   9.451   2.166
 1921W        W 5665   8.137   6.636   9.255
 1922W        W 5666   7.021   5.803   0.484
 1923W        W 5667   6.497   4.893   2.929
 1924W        W 5668   6.432   6.343  10.333
 1925W        W 5669  10.390   2.599   0.432
 1926W        W 5670   6.050   1.127   9.522
 1927W        W 5671   1.364   8.951   9.592
 1928W        W 5672  10.437   4.626   3.205
 1929W        W 5673   9.521   5.861   0.300
 1930W        W 5674   3.716   9.978  11.049
 1931W        W 5675   5.255   0.360   2.998
 1932W        W 5676   6.376   1.914   9.603
 1933W        W 5677   3.197   2.131   3.696
 1934W        W 5678   4.544   3.625   9.992
 1935W        W 5679   8.328   8.074  10.507
 1936W        W 5680   2.910   3.646  11.051
 1937W        W 5681   9.893   6.194   0.521
 1938W        W 5682   0.796   2.675   1.929
 1939W        W 5683   0.191   1.938   0.494
 1940W        W 5684   7.999   4.225   0.286
 1941W        W 5685   8.055   4.374   8.610
 1942W        W 5686   9.870   3.541   8.944
 1943W        W 5687   9.455   4.600   0.963
 1944W        W 5688  10.468  10.382   3.470
 1945W        W 5689   3.156   7.836   9.045
 1946W        W 5690   3.388   0.891   0.357
 1947W        W 5691  10.235   0.027   8.835
 1948W        W 5692   9.971   1.274   8.710
 1949W        W 5693   6.102   7.453   9.093
 1950W        W 5694   7.464   3.110   0.421
 1951W        W 5695   6.178   1.248   0.978
 1952W        W 5696   5.064   1.612   1.779
 1953W        W 5697  10.428   2.172   2.805
 1954W        W 5698   5.686   3.700   1.468
 1955W        W 5699   6.629   2.546  10.347
 1956W        W 5700   1.446   9.175   3.389
 1957W        W 5701   8.029   0.234   1.462
 1958W        W 5702   0.805   0.236   2.884
 1959W        W 5703   1.358   3.696  11.077
 1960W        W 5704   6.885   2.881   9.036
 1961W        W 5705   4.789   9.437  10.459
 1962W        W 5706   0.212   6.943   0.502
 1963W        W 5707   0.974   5.636   1.687
 1964W        W 5708   2.335   5.550   1.014
 1965W        W 5709   4.734   6.591   8.595
 1966W        W 5710   8.566   3.674   1.566
 1967W        W 5711   2.645   0.798  11.067
 1968W        W 5712   5.579   7.440   0.156
 1969W        W 5713   0.755   5.102   8.989
 1970W        W 5714   1.319   1.470   9.850
 1971W        W 5715   1.745  10.319   9.025
 1972W        W 5716   5.763   5.416   0.630
 1973W        W 5717   4.946   6.982  10.318
 1974W        W 5718   9.845   6.044   2.894
 1975W        W 5719   7.162   4.114   9.755
 1976W        W 5720  10.498   5.546   3.393
 1977W        W 5721   5.418   8.045   3.202
 1978W        W 5722   7.984   7.380   0.378
 1979W        W 5723   4.778   4.971   9.402
 1980W        W 5724   5.358   6.219   8.755
 1981W        W 5725   6.648   4.956   0.379
 1982W        W 5726  10.389   4.568   2.181
 1983W        W 5727   8.361   1.333   0.843
 1984W        W 5728   0.065   6.679  11.571
 1985W        W 5729   8.232   4.158   0.749
 1986W        W 5730   2.613   4.461   9.261
 1987W        W 5731   4.588   2.613   9.340
 1988W        W 5732   1.794   5.650   1.687
 1989W        W 5733   4.262   7.939   1.937
 1990W        W 5734  10.461   4.567  11.926
 1991W        W 5735   3.641   5.402  11.810
 1992W        W 5736   1.712   3.795   9.807
 1993W        W 5737   2.949   0.732   0.664
 1994W        W 5738   6.007   1.607   9.795
 1995W        W 5739   0.441   4.302   8.696
 1996W        W 5740  10.447   2.299   9.003
 1997W        W 5741   4.514   3.601   8.109
 1998W        W 5742   9.486  10.350   0.750
 1999W        W 5743   9.267   8.793   1.885
 2000W        W 5744   8.770   5.294   3.317
 2001W        W 5745   8.916  10.293   2.758
 2002W        W 5746  10.185   7.868  10.829
 2003W        W 5747   9.703   9.170   8.443
 2004W        W 5748   0.534   6.941   2.408
 2005W        W 5749   3.057   7.695   1.869
 2006W        W 5750  10.278   5.859   2.656
 2007W        W 5751   2.323   9.928   2.437
 2008W        W 5752   4.638   7.631   9.777
 2009W        W 5753   7.830   4.627   9.875
 2010W        W 5754   5.085   5.173   1.899
 2011W        W 5755   0.534   6.360  11.052
 2012W        W 5756   6.779   3.167   3.158
 2013W        W 5757   2.099   2.546  11.512
 2014W        W 5758   5.464   6.899   0.950
 2015W        W 5759   2.403  10.357   3.085
 2016W        W 5760   8.507   3.581   0.989
 2017W        W 5761   6.004   6.991   9.972
 2018W        W 5762   3.721   3.079  11.970
 2019W        W 5763   0.142  10.499   9.180
 2020W        W 5764   6.544  10.122   1.895
 2021W        W 5765   0.867   9.876   9.088
 2022W        W 5766   6.011   4.236   8.927
 2023W        W 5767   2.123   9.856  11.492
 2024W        W 5768   6.592   9.509   1.098
 2025W        W 5769   8.751   6.434   0.307
 2026W        W 5770   1.253   3.430  10.404
 2027W        W 5771   8.089   0.017  10.967
 2028W        W 5772   0.898   8.633   0.115
 2029W        W 5773   1.408   5.342   8.913
 2030W        W 5774   6.640   8.656   0.755
 2031W        W 5775   3.165   8.038   8.570
 2032W        W 5776   3.425   3.122   2.280
 2033W        W 5777   0.728   5.198   1.755
 2034W        W 5778   1.018   9.447   1.389
 2035W        W 5779   8.805   5.569  11.303
 2036W        W 5780   2.255   0.779   1.421
 2037W        W 5781   3.306   1.778   8.767
 2038W        W 5782   2.349   4.637   2.148
 2039W        W 5783   1.695   6.653   9.328
 2040W        W 5784  10.330  10.342  11.397
 2041W        W 5785   0.284   1.767   1.383
 2042W        W 5786   0.249   2.399   3.857
 2043W        W 5787   5.351   8.540   8.436
 2044W        W 5788   8.623   0.776   1.016
 2045W        W 5789   1.980   0.421   3.068
 2046W        W 5790   9.860   5.177  11.383
 2047W        W 5791   6.696   4.435   2.772
 2048W        W 5792   5.198   0.994   0.170
 2049W        W 5793   1.969   2.301   3.245
 2050W        W 5794   0.249   6.099   1.770
 2051W        W 5795   2.351   6.108   9.294
 2052W        W 5796   3.527   9.690   3.603
 2053W        W 5797   3.187   4.566  10.066
 2054W        W 5798   1.782   2.291  10.841
 2055W        W 5799   9.235   5.420  11.567
 2056W        W 5800  10.452   1.320   3.199
 2057W        W 5801   8.643   3.602   2.901
 2058W        W 5802   4.524   6.682  10.348
 2059W        W 5803   6.987   3.239   0.178
 2060W        W 5804   4.242  10.295   9.183
 2061W        W 5805   3.091   1.187  11.495
 2062W        W 5806   2.151   6.991   0.501
 2063W        W 5807   7.506   2.601  11.332
 2064W        W 5808   6.115   3.981   9.697
 2065W        W 5809   7.004   8.698  11.887
 2066W        W 5810   4.637   3.615   3.437
 2067W        W 5811   2.704   5.243  10.305
 2068W        W 5812   8.480   7.185  10.952
 2069W        W 5813   3.830   3.596   0.075
 2070W        W 5814   5.181   3.520   3.228
 2071W        W 5815   0.138  10.059   9.995
 2072W        W 5816   1.638   5.182   2.708
 2073W        W 5817   1.950   1.717   8.879
 2074W        W 5818   4.312   7.054   9.190
 2075W        W 5819   9.880  10.023   1.892
 2076W        W 5820   7.002   2.229   2.202
 2077W        W 5821   5.709   6.803  10.850
 2078W        W 5822   2.032   4.830   0.032
 2079W        W 5823   7.863   1.680   2.464
 2080W        W 5824   5.967   5.545   1.481
 2081W        W 5825   1.124   4.531  11.457
 2082W        W 5826   2.734   5.609  11.752
 2083W        W 5827   2.760   8.474  11.189
 2084W        W 5828   7.074   1.758   1.955
 2085W        W 5829   1.356   1.162   1.169
 2086W        W 5830   4.232   2.278   3.524
 2087W        W 5831   0.520   7.784   9.528
 2088W        W 5832   2.983  10.002  11.824
 2089W        W 5833   1.328   0.910  11.059
 2090W        W 5834   5.615   4.649   9.639
 2091W        W 5835   7.952   3.627   2.425
 2092W        W 5836   8.953   5.373   0.972
 2093W        W 5837   7.939   2.164  11.915
 2094W        W 5838   0.795   6.026   3.430
 2095W        W 5839   3.866   7.124   2.702
 2096W        W 5840   3.604   4.166   8.600
 2097W        W 5841   8.891   2.681   9.224
 2098W        W 5842   7.746   2.817   0.847
 2099W        W 5843   4.706   4.022  11.910
 2100W        W 5844   0.910  10.143   9.571
 2101W        W 5845   8.779   7.914  10.622
 2102W        W 5846   5.234   2.290   3.154
 2103W        W 5847   1.925   3.115   3.455
 2104W        W 5848   3.314   9.676  10.880
 2105W        W 5849   8.621   0.913  11.841
 2106W        W 5850  10.431   4.642  10.820
 2107W        W 5851   7.123   7.982   2.661
 2108W        W 5852   4.283   9.263   3.346
 2109W        W 5853   2.422   3.122   3.425
 2110W        W 5854   7.691   1.281  10.998
 2111W        W 5855   9.419   3.101   1.809
 2112W        W 5856   7.442   7.009   3.212
 2113W        W 5857   5.463   9.387   2.025
 2114W        W 5858   4.767   0.779   0.300
 2115W        W 5859   6.096   6.066   1.559
 2116W        W 5860   5.594   4.055   8.250
 2117W        W 5861   7.647   1.532  10.039
 2118W        W 5862   3.303   7.235   1.696
 2119W        W 5863   0.295   2.867   0.289
 2120W        W 5864   4.694   1.442  10.780
 2121W        W 5865   2.229   6.586   2.809
 2122W        W 5866   1.194   7.975  10.973
 2123W        W 5867   7.434  10.095  10.272
 2124W        W 5868   8.168   0.518   1.035
 2125W        W 5869   8.440   4.053   8.699
 2126W        W 5870   7.061   3.845   3.307
 2127W        W 5871   1.638   9.718   0.328
 2128W        W 5872   8.360   8.457   9.046
 2129W        W 5873   1.406   9.334   1.700
 2130W        W 5874   1.628   4.147   1.644
 2131W        W 5875   7.523   8.062  10.562
 2132W        W 5876   9.020   6.642   1.146
 2133W        W 5877   1.392   1.364   3.665
 2134W        W 5878   2.780   2.178   0.890
 2135W        W 5879   8.931   6.168   1.331
 2136W        W 5880   1.277   3.827  10.084
 2137W        W 5881   0.360   0.505   2.921
 2138W        W 5882   0.440   8.785   9.566
 2139W        W 5883   7.937   0.636   3.277
 2140W        W 5884   9.143   0.776   9.894
 2141W        W 5885   8.080   2.857  10.220
 2142W        W 5886   1.144   6.373   3.611
 2143W        W 5887   8.496   1.892   9.620
 2144W        W 5888   9.518  10.425   2.899
 2145W        W 5889   7.048   2.397   0.197
 2146W        W 5890   8.797   0.228   2.312
 2147W        W 5891   1.823   8.741   0.443
 2148W        W 5892  10.307   8.983   2.697
 2149W        W 5893   0.994   5.328  11.236
 2150W        W 5894   3.180   2.810   9.875
 2151W        W 5895   0.800   1.721   2.968
 2152W        W 5896   7.485   7.411   0.275
 2153W        W 5897  10.005   4.714   2.895
 2154W        W 5898   4.712   3.738   0.407
 2155W        W 5899   9.937   1.251   0.774
 2156W        W 5900   9.273   0.296  11.404
 2157W        W 5901   1.333   9.891   9.474
 2158W        W 5902   2.912   4.807   8.581
 2159W        W 5903   9.064   6.697   0.631
 2160W        W 5904   8.924   8.448   3.120
 2161W        W 5905   8.074   3.537  11.796
 2162W        W 5906   6.820   8.975   0.261
 2163W        W 5907   6.120   9.523   1.374
 2164W        W 5908   7.934   6.010   2.396
 2165W        W 5909   7.774   7.642  11.964
 2166W        W 5910   4.414   2.693   3.286
 2167W        W 5911   4.123   5.011   0.917
 2168W        W 5912   3.380   9.948   1.461
 2169W        W 5913   7.718   9.304   9.085
 2170W        W 5914  10.308   8.463   2.593
 2171W        W 5915   5.252   1.465   0.004
 2172W        W 5916   7.069   0.402  10.441
 2173W        W 5917   2.593   2.058   1.618
 2174W        W 5918   4.453   2.767   0.600
 2175W        W 5919   1.370   6.857  11.959
 2176W        W 5920   2.630   1.168   2.701
 2177W        W 5921   4.222   4.811   2.337
 2178W        W 5922   0.012   4.715   1.715
 2179W        W 5923   7.215  10.250   2.871
 2180W        W 5924   4.625   8.962  10.623
 2181W        W 5925   9.290   5.746   1.720
 2182W        W 5926   8.460   2.347   0.342
 2183W        W 5927   3.459   9.141   2.882
 2184W        W 5928   3.098   2.770   2.105
 2185W        W 5929  10.344   2.617   3.089
 2186W        W 5930   5.090   9.799   2.035
 2187W        W 5931  10.274   9.702  10.012
 2188W        W 5932   5.574   9.297   0.256
 2189W        W 5933   1.770   8.708   2.630
 2190W        W 5934   7.015   2.828   0.471
 2191W        W 5935   9.950   8.588   9.557
 2192W        W 5936   5.619   9.995   2.744
 2193W        W 5937   7.079   4.920   9.137
 2194W        W 5938   1.815   6.681  11.723
 2195W        W 5939   8.087   5.039  10.037
 2196W        W 5940   2.598   8.068   9.938
 2197W        W 5941   0.333   6.874   1.375
 2198W        W 5942   5.045   4.933  11.026
 2199W        W 5943   8.586   1.460  11.867
 2200W        W 5944   5.860   9.842  11.474
 2201W        W 5945   8.216   7.800   1.819
 2202W        W 5946   9.656   1.363   2.130
 2203W        W 5947   8.309   0.749   0.213
 2204W        W 5948   7.081  10.164   0.760
 2205W        W 5949   9.216   5.130   3.137
 2206W        W 5950   7.023   9.870  10.522
 2207W        W 5951   2.754   0.695   2.830
 2208W        W 5952   9.971   9.377  11.304
 2209W        W 5953   4.160   0.501   0.696
 2210W        W 5954   5.088   7.081  11.514
 2211W        W 5955   8.032   2.292   9.014
 2212W        W 5956   9.776   1.830   0.492
 2213W        W 5957   4.415   7.048   8.672
 2214W        W 5958   8.505   0.089   2.723
 2215W        W 5959   8.137   7.329   2.181
 2216W        W 5960   4.641   2.564  10.269
 2217W        W 5961   2.816   1.757   1.277
 2218W        W 5962   0.337   1.760  11.551
 2219W        W 5963   1.581   2.788  10.799
 2220W        W 5964   4.130   5.262   2.581
 2221W        W 5965   4.120   4.380  10.377
 2222W        W 5966   4.156   8.355   9.567
 2223W        W 5967   2.139   1.537   8.454
 2224W        W 5968   6.018   2.452  11.506
 2225W        W 5969   9.040   3.829   1.727
 2226W        W 5970  10.342  10.442   0.686
 2227W        W 5971   8.381   5.195   0.272
 2228W        W 5972   8.441   7.445   2.745
 2229W        W 5973   7.646   2.697   2.758
 2230W        W 5974   5.625   8.475   1.912
 2231W        W 5975   3.742   9.361   1.021
 2232W        W 5976   0.704   2.569  11.004
 2233W        W 5977   6.177   9.859   1.002
 2234W        W 5978   6.053  10.336   1.191
 2235W        W 5979   8.350   8.567  10.605
 2236W        W 5980   2.423   1.226  10.937
 2237W        W 5981   8.289  10.283   1.316
 2238W        W 5982  10.114   7.503   0.934
 2239W        W 5983   7.113   5.115   1.622
 2240W        W 5984   8.536   3.744  10.535
 2241W        W 5985   6.924   7.451  11.205
 2242W        W 5986   1.030   5.695  11.651
 2243W        W 5987   7.466   4.307   1.164
 2244W        W 5988   3.087   3.242  10.503
 2245W        W 5989   8.400   8.804  11.835
 2246W        W 5990   2.499   2.787  10.598
 2247W        W 5991   9.902   6.063  11.477
 2248W        W 5992   1.012   7.099   9.105
 2249W        W 5993   5.681   1.786  11.506
 2250W        W 5994   6.502   7.102   3.199
 2251W        W 5995   8.418   7.909   3.576
 2252W        W 5996   1.865   5.598   0.762
 2253W        W 5997   2.696   6.543   3.670
 2254W        W 5998   9.585   0.276   3.287
 2255W        W 5999   3.704   4.758   1.836
 2256W        W 6000   8.458   0.964   1.955
 2257W        W 6001   3.220   6.104   3.223
 2258W        W 6002   1.194   2.256  10.069
 2259W        W 6003   4.320   9.891   1.485
 2260W        W 6004   3.284   5.658   0.877
 2261W        W 6005   5.445   0.867  10.090
 2262W        W 6006   6.353   4.967   9.399
 2263W        W 6007   3.611   5.354  11.145
 2264W        W 6008   0.265   5.107   3.343
 2265W        W 6009   2.352   6.056   1.905
 2266W        W 6010   3.098   8.127   9.954
 2267W        W 6011   7.941   3.334   9.407
 2268W        W 6012   7.397   4.038  11.344
 2269W        W 6013   2.360   6.476   0.850
 2270W        W 6014   4.438   4.613   9.555
 2271W        W 6015   8.442   7.702  10.959
 2272W        W 6016   5.738   1.191   2.362
 2273W        W 6017   9.220   0.265  10.036
 2274W        W 6018   9.982   6.965   0.270
 2275W        W 6019   6.287   6.196  11.388
 2276W        W 6020   5.471   5.868  11.300
 2277W        W 6021   5.047   6.978   9.798
 2278W        W 6022   2.846   7.474  11.973
 2279W        W 6023   8.083   4.512   1.898
 2280W        W 6024   8.963   6.031   9.441
 2281W        W 6025   7.173   1.698   1.469
 2282W        W 6026  10.314   9.890   2.198
 2283W        W 6027   5.550   7.107   9.660
 2284W        W 6028   1.393   7.533   9.806
 2285W        W 6029   6.577   6.220  11.826
 2286W        W 6030   7.160   9.230  11.327
 2287W        W 6031   5.254   7.893  11.850
 2288W        W 6032   2.901   1.070   0.292
 2289W        W 6033   3.395   0.385  11.746
 2290W        W 6034   4.926   4.403   9.533
 2291W        W 6035  10.174   1.468   2.197
 2292W        W 6036   9.388   8.105  11.089
 2293W        W 6037   8.008   0.285   2.500
 2294W        W 6038   1.567   3.355  10.014
 2295W        W 6039   1.515   8.260   0.539
 2296W        W 6040   7.056   3.103   2.199
 2297W        W 6041   0.087   4.008  10.113
 2298W        W 6042   9.211   1.412   2.452
 2299W        W 6043   6.477   2.438   1.901
 2300W        W 6044   0.277   6.450   0.400
 2301W        W 6045   1.266   6.846   3.443
 2302W        W 6046   1.962  10.447   0.744
 2303W        W 6047   2.836   6.402   8.590
 2304W        W 6048   0.514   2.320   9.068
 2305W        W 6049   8.013   4.182   2.662
 2306W        W 6050   7.005   8.888   9.086
 2307W        W 6051   1.180   5.120   1.557
 2308W        W 6052   9.601  10.351  10.885
 2309W        W 6053   8.343  10.474   2.244
 2310W        W 6054   1.588   5.183   0.887
 2311W        W 6055   9.424   0.903   3.011
 2312W        W 6056   0.798   3.320   2.766
 2313W        W 6057   2.819   8.521   1.359
 2314W        W 6058   0.073   2.232   3.384
 2315W        W 6059   1.284   3.201  10.855
 2316W        W 6060   0.304   2.356  10.767
 2317W        W 6061   3.584   4.126   0.896
 2318W        W 6062   5.075   8.411  11.051
 2319W        W 6063   0.448   1.835   9.855
 2320W        W 6064   0.862   0.916  11.284
 2321W        W 6065   1.995   7.070   9.319
 2322W        W 6066   5.222   6.633  10.785
 2323W        W 6067   0.902   6.352   1.355
 2324W        W 6068   2.244  10.209  10.756
 2325W        W 6069   7.390   5.725   3.548
 2326W        W 6070   6.260   2.888  11.696
 2327W        W 6071   3.375   7.114   9.522
 2328W        W 6072   8.106   8.144   0.771
 2329W        W 6073   3.734   6.887  11.913
 2330W        W 6074   1.387   9.303   0.130
 2331W        W 6075   5.442   6.072   1.090
 2332W        W 6076   3.667   7.158  10.578
 2333W        W 6077  10.109   6.570  11.341
 2334W        W 6078   7.467   3.279  10.199
 2335W        W 6079   6.672   3.711   0.633
 2336W        W 6080   7.093   4.534   1.587
 2337W        W 6081   0.527   1.873  10.732
 2338W        W 6082   3.776   8.709   3.479
 2339W        W 6083   9.596   2.790   9.040
 2340W        W 6084   5.586   7.963   0.226
 2341W        W 6085   9.302   9.865   9.987
 2342W        W 6086   7.183   2.714   8.625
 2343W        W 6087   5.273   7.573   3.071
 2344W        W 6088   3.743   3.813  11.537
 2345W        W 6089   5.580   1.722   9.534
 2346W        W 6090   8.711   1.293   2.445
 2347W        W 6091   8.005   3.672   0.785
 2348W        W 6092   9.118   2.667   2.840
 2349W        W 6093  10.078   7.053   3.446
 2350W        W 6094   8.891   5.715  11.823
 2351W        W 6095   4.213   3.787   9.611
 2352W        W 6096   7.503   5.025   8.883
 2353W        W 6097   0.466   4.592   0.088
 2354W        W 6098   3.192   5.416  10.205
 2355W        W 6099   3.268   1.233   0.754
 2356W        W 6100   1.701   9.795   9.829
 2357W        W 6101   6.143   1.265   8.968
 2358W        W 6102   1.655   9.678  10.330
 2359W        W 6103   0.481   2.119  11.208
 2360W        W 6104   1.522  10.355   1.801
 2361W        W 6105   7.175   5.065   1.133
 2362W        W 6106   7.375   3.126   2.786
 2363W        W 6107   6.475   4.510  11.606
 2364W        W 6108   0.735   1.245  10.933
 2365W        W 6109   4.334   2.735   1.412
 2366W        W 6110   5.556   8.939   1.674
 2367W        W 6111   6.498   0.037   9.642
 2368W        W 6112   3.166   3.712   3.541
 2369W        W 6113   2.307   9.448  11.773
 2370W        W 6114  10.315   9.150   8.889
 2371W        W 6115   4.637   3.723   1.422
 2372W        W 6116   2.057   9.485   8.503
 2373W        W 6117   9.090   4.598   0.605
 2374W        W 6118   8.093   6.609   9.752
 2375W        W 6119   2.825   3.937   1.483
 2376W        W 6120  10.132   5.663   9.413
 2377W        W 6121   2.958   8.595  10.152
 2378W        W 6122   3.644   7.976  11.819
 2379W        W 6123   6.823   5.512   1.775
 2380W        W 6124   3.810   8.362   2.167
 2381W        W 6125   0.269   1.307  10.735
 2382W        W 6126   3.303   1.301  10.080
 2383W        W 6127   8.759   8.263   8.446
 2384W        W 6128   5.299   3.017   2.559
 2385W        W 6129  10.354   9.187  10.085
 2386W        W 6130   2.056   2.815   8.848
 2387W        W 6131   2.656   5.016   2.372
 2388W        W 6132   8.971   9.806   1.259
 2389W        W 6133   3.177   6.135   1.000
 2390W        W 6134   8.736   0.448   0.123
 2391W        W 6135   1.237   8.158   2.718
 2392W        W 6136   4.610   1.611   9.897
 2393W        W 6137   6.596   2.237   0.349
 2394W        W 6138   3.013   4.099   9.434
 2395W        W 6139   8.978   9.327  10.776
 2396W        W 6140   8.609   4.603   9.373
 2397W        W 6141   4.510  10.448   0.290
 2398W        W 6142   0.146   9.797  10.494
 2399W        W 6143   7.904   4.745  10.762
 2400W        W 6144   1.425   9.096   2.181
 2401W        W 6145   5.945   7.650  10.392
 2402W        W 6146   5.098   8.169   3.618
 2403W        W 6147   0.808   3.549   2.275
 2404W        W 6148   9.863   6.171  10.436
 2405W        W 6149   5.995   8.673  11.888
 2406W        W 6150   3.353   6.819  10.388
 2407W        W 6151   4.652   2.630  11.761
 2408W        W 6152   4.225   1.753   8.763
 2409W        W 6153   3.847   7.566   3.972
 2410W        W 6154   8.919   7.540   2.584
 2411W        W 6155   7.654   0.285   8.454
 2412W        W 6156  10.082   9.460   1.182
 2413W        W 6157   1.582   4.517   3.605
 2414W        W 6158   8.565   9.398  10.072
 2415W        W 6159   5.339   4.790   2.147
 2416W        W 6160   8.843  10.448  11.376
 2417W        W 6161   2.910   0.334   3.637
 2418W        W 6162   7.575   2.683   9.538
 2419W        W 6163   5.544   8.300  11.754
 2420W        W 6164  10.432   7.855   3.285
 2421W        W 6165   6.518   0.461  11.954
 2422W        W 6166   2.381   6.862   9.620
 2423W        W 6167   2.865   8.092   9.360
 2424W        W 6168   8.395   4.170   1.276
 2425W        W 6169   5.557   5.157  10.365
 2426W        W 6170   9.957   1.883   9.929
 2427W        W 6171   4.778   3.669   2.458
 2428W        W 6172  10.117   8.386   0.289
 2429W        W 6173   5.057   9.242   0.240
 2430W        W 6174   4.681   1.220  10.309
 2431W        W 6175   0.691   2.275   9.987
 2432W        W 6176   2.231   4.762   9.073
 2433W        W 6177   8.891   9.556   1.715
 2434W        W 6178   7.251   6.481   9.911
 2435W        W 6179   0.409   4.330   0.547
 2436W        W 6180   9.220   5.762   1.205
 2437W        W 6181   2.779   9.391   3.000
 2438W        W 6182   2.695   7.821   0.699
 2439W        W 6183   2.551   0.314  11.303
 2440W        W 6184   6.150   4.739  11.276
 2441W        W 6185   2.913   0.275   9.245
 2442W        W 6186   0.900   0.495   8.449
 2443W        W 6187   9.864   3.728   1.256
 2444W        W 6188   4.937   3.964   4.104
 2445W        W 6189   7.173   7.730  10.840
 2446W        W 6190   8.882   6.051   8.912
 2447W        W 6191   1.651   4.215  10.770
 2448W        W 6192   7.096   4.586   9.533
 2449W        W 6193   0.759   1.435  10.002
 2450W        W 6194   8.874   0.300   0.915
 2451W        W 6195  10.398   7.178   8.969
 2452W        W 6196   2.128   1.854  10.775
 2453W        W 6197   3.732   0.994   9.109
 2454W        W 6198   2.340   8.710   9.457
 2455W        W 6199   4.157   1.330   1.840
 2456W        W 6200   7.640   8.072   3.544
 2457W        W 6201   6.914   0.781   9.566
 2458W        W 6202   1.838   1.392   2.005
 2459W        W 6203   7.457   8.429  11.669
 2460W        W 6204   2.735   2.098   2.899
 2461W        W 6205  10.454  10.050  10.938
 2462W        W 6206   3.361   8.014   3.573
 2463W        W 6207   7.917   0.789   2.772
 2464W        W 6208   2.310   7.657   3.001
 2465W        W 6209   2.617   2.321   2.449
 2466W        W 6210  10.416   3.714   0.030
 2467W        W 6211   6.480   6.988   1.821
 2468W        W 6212   6.103  10.464   1.731
 2469W        W 6213   3.899   0.109   8.955
 2470W        W 6214   3.737   0.530   9.307
 2471W        W 6215   7.196   7.842   0.873
 2472W        W 6216   5.061   3.564   9.881
 2473W        W 6217   8.110   9.316  10.349
 2474W        W 6218   1.767   0.903   1.311
 2475W        W 6219   1.867   2.104  10.376
 2476W        W 6220   6.691   2.887   0.867
 2477W        W 6221   4.607   8.559  11.895
 2478W        W 6222   9.966   9.592   8.583
 2479W        W 6223   6.263   8.829  11.458
 2480W        W 6224   0.386   4.190   1.042
 2481W        W 6225   6.063   6.337   3.420
 2482W        W 6226   8.396   8.054   8.744
 2483W        W 6227   4.147   7.713   0.804
 2484W        W 6228   5.233  10.153  11.904
 2485W        W 6229  10.145   8.521   1.170
 2486W        W 6230   5.129   2.528  10.020
 2487W        W 6231   3.194  10.437   1.280
 2488W        W 6232   5.020   6.025  11.906
 2489W        W 6233   7.585   8.836   8.734
 2490W        W 6234   8.937   3.174   9.043
 2491W        W 6235   0.834   7.486  10.291
 2492W        W 6236   0.367   1.588  10.314
 2493W        W 6237   0.889   8.945   1.430
 2494W        W 6238  10.093   8.092   9.476
 2495W        W 6239   7.161   2.883  11.075
 2496W        W 6240   2.914   0.229   1.584
 2497W        W 6241   2.488   7.271   9.310
 2498W        W 6242   3.875   8.104   1.628
 2499W        W 6243   5.403   4.275   3.127
 2500W        W 6244   9.932   2.432  11.675
 2501W        W 6245   3.386   0.299   1.784
 2502W        W 6246   7.555   3.802  10.430
 2503W        W 6247   4.265   3.887  11.289
 2504W        W 6248   0.040   5.941   2.219
 2505W        W 6249   0.661   6.582  10.266
 2506W        W 6250   7.921   2.289   2.841
 2507W        W 6251   9.395   3.148   1.297
 2508W        W 6252   3.732   1.283   0.986
 2509W        W 6253   4.617   7.996   3.601
 2510W        W 6254   1.197   5.324  10.293
 2511W        W 6255   5.710   9.896   1.307
 2512W        W 6256   0.721   7.437   2.250
 2513W        W 6257   7.914  10.028  11.044
 2514W        W 6258   9.439   7.660  10.190
 2515W        W 6259   5.662   4.521   9.153
 2516W        W 6260   8.013   1.807   1.961
 2517W        W 6261   7.823   7.053   0.865
 2518W        W 6262   8.066   0.226   2.992
 2519W        W 6263   9.362   2.810   0.496
 2520W        W 6264   2.127   7.401   1.708
 2521W        W 6265   4.146   8.636   0.864
 2522W        W 6266   8.920   5.979  10.969
 2523W        W 6267   9.548   9.982   3.807
 2524W        W 6268   9.988   4.477   1.738
 2525W        W 6269   2.394   5.319   1.471
 2526W        W 6270  10.052   4.883  11.814
 2527W        W 6271   8.121   2.462   1.429
 2528W        W 6272   9.176   3.671   9.157
 2529W        W 6273   6.276   2.901   1.163
 2530W        W 6274  10.272   1.280   9.931
 2531W        W 6275  10.455   2.430   1.919
 2532W        W 6276   6.503   2.746   2.745
 2533W        W 6277   8.301   7.177   9.167
 2534W        W 6278   9.979  10.408   2.666
 2535W        W 6279   0.818   6.824   1.167
 2536W        W 6280   3.257   0.226  10.036
 2537W        W 6281   2.233   2.624   3.549
 2538W        W 6282   4.055   5.279   0.469
 2539W        W 6283   6.219   6.936   9.091
 2540W        W 6284   2.866   4.173   9.917
 2541W        W 6285   3.199   9.687   9.911
 2542W        W 6286   5.950   6.635  11.300
 2543W        W 6287   8.156   4.041  11.832
 2544W        W 6288   7.232   5.591   1.184
 2545W        W 6289   0.921   9.154   9.435
 2546W        W 6290   5.208   0.291   1.946
 2547W        W 6291   6.236   1.243  10.053
 2548W        W 6292   7.862   5.442   1.755
 2549W        W 6293   7.434   8.101   3.074
 2550W        W 6294   5.454   7.832   3.730
 2551W        W 6295   7.040   6.081   0.044
 2552W        W 6296   1.889   4.261   9.860
 2553W        W 6297   4.988   2.919   8.562
 2554W        W 6298   3.194   3.480   3.065
 2555W        W 6299   9.282   9.280   3.347
 2556W        W 6300   6.255   4.949   2.134
 2557W        W 6301   4.510   7.700  11.443
 2558W        W 6302   9.006   4.506  11.042
 2559W        W 6303   8.568   9.299  11.127
 2560W        W 6304   5.970   3.498   9.865
 2561W        W 6305  10.472   0.342   3.197
 2562W        W 6306   3.569   2.251   8.741
 2563W        W 6307   8.141   9.322  11.514
 2564W        W 6308   4.721   8.366   0.409
 2565W        W 6309   8.981   1.491   1.522
 2566W        W 6310   6.937   0.797  10.928
 2567W        W 6311   4.588   6.651   9.083
 2568W        W 6312   9.127   3.444   2.073
 2569W        W 6313   8.497   7.394   0.322
 2570W        W 6314   4.670   9.066  10.109
 2571W        W 6315   1.629   6.456   3.454
 2572W        W 6316   5.219   1.322   2.509
 2573W        W 6317   3.622   8.395  10.879
 2574W        W 6318   5.614   1.707   0.545
 2575W        W 6319   3.823   7.488   9.770
 2576W        W 6320   5.648   5.162   1.294
 2577W        W 6321   9.397   7.908   2.068
 2578W        W 6322   7.227   1.396   9.767
 2579W        W 6323   8.527   6.701  10.016
 2580W        W 6324   9.745   9.946   2.906
 2581W        W 6325   4.063   1.525  11.552
 2582W        W 6326   0.759   6.107   9.876
 2583W        W 6327   1.374   8.510  11.088
 2584W        W 6328   3.331   1.457  10.597
 2585W        W 6329   0.003   0.007   9.693
 2586W        W 6330   2.627   4.910   3.607
 2587W        W 6331   5.783   0.798  10.508
 2588W        W 6332   0.783   4.344   1.764
 2589W        W 6333   6.009   7.316   9.565
 2590W        W 6334   0.859   4.637   8.679
 2591W        W 6335   4.593   8.465  11.359
 2592W        W 6336   2.224   3.203  10.687
 2593W        W 6337   6.659   8.355   1.847
 2594W        W 6338   0.381   5.722   9.980
 2595W        W 6339   9.629   5.373   0.456
 2596W        W 6340   9.808   3.069   0.073
 2597W        W 6341   4.311   9.529  11.841
 2598W        W 6342   1.711   3.665  10.389
 2599W        W 6343   0.462   0.493   0.366
 2600W        W 6344   1.759   5.639   8.650
 2601W        W 6345  10.200   2.778  11.971
 2602W        W 6346   5.798   2.496   9.978
 2603W        W 6347   6.586   2.950   1.915
 2604W        W 6348   6.491   3.918  10.351
 2605W        W 6349   7.438   2.259   8.788
 2606W        W 6350   6.497  10.368  10.134
 2607W        W 6351   2.239   9.665   9.248
 2608W        W 6352   4.683   6.411   1.307
 2609W        W 6353   3.602  10.413  10.315
 2610W        W 6354   2.942   5.678   3.106
 2611W        W 6355   6.388  10.203   3.320
 2612W        W 6356   9.394   3.079   2.796
 2613W        W 6357   8.046   1.788   8.819
 2614W        W 6358   8.970   9.533   9.797
 2615W        W 6359   9.459   2.199   1.730
 2616W        W 6360   8.362   0.190   8.804
 2617W        W 6361   5.378   9.566   9.823
 2618W        W 6362   6.970   2.154   3.271
 2619W        W 6363   7.897   3.880  11.378
 2620W        W 6364   1.135   1.412  11.206
 2621W        W 6365   7.073   5.030  11.800
 2622W        W 6366   8.304   7.106   1.231
 2623W        W 6367   4.216   6.550   1.102
 2624W        W 6368   2.739   9.893  10.028
 2625W        W 6369   5.442   7.631   1.634
 2626W        W 6370   7.110   5.741  10.235
 2627W        W 6371   8.426   0.702   8.756
 2628W        W 6372   7.249   9.282   9.274
 2629W        W 6373   6.052   1.979  11.217
 2630W        W 6374   7.335   5.184  10.245
 2631W        W 6375   2.045   9.929   0.646
 2632W        W 6376   9.967   9.308  11.873
 2633W        W 6377   4.590   0.670  10.651
 2634W        W 6378   9.853   9.492  10.797
 2635W        W 6379   9.505   1.810   2.401
 2636W        W 6380   9.554   0.457   9.133
 2637W        W 6381   5.211   1.942  10.273
 2638W        W 6382   2.775   9.315   2.483
 2639W        W 6383   1.149   0.990   0.732
 2640W        W 6384   5.912   3.008   9.015
 2641W        W 6385   6.516  10.166  11.597
 2642W        W 6386   6.993   8.523  10.690
 2643W        W 6387   0.373   2.674  10.052
 2644W        W 6388   2.446   9.543   0.605
 2645W        W 6389   0.522   7.390  10.964
 2646W        W 6390   3.784   0.434   2.519
 2647W        W 6391   5.231   5.044  11.861
 2648W        W 6392   3.707   6.736   9.706
 2649W        W 6393   9.768   6.631   9.490
 2650W        W 6394   0.051   3.394   0.828
 2651W        W 6395   9.469   9.861  10.722
 2652W        W 6396   2.222  10.442  10.277
 2653W        W 6397   0.204   3.344  11.031
 2654W        W 6398   6.131   1.099   2.752
 2655W        W 6399   2.834   6.052   1.427
 2656W        W 6400   5.674   0.082   0.916
 2657W        W 6401   8.937   4.757   2.893
 2658W        W 6402   8.504   4.139   2.832
 2659W        W 6403   3.646   7.103  10.058
 2660W        W 6404   5.239   6.504   9.879
 2661W        W 6405   6.110   7.695   0.089
 2662W        W 6406   7.563   3.929   2.542
 2663W        W 6407   6.077   1.478   0.527
 2664W        W 6408   4.628   8.356   2.121
 2665W        W 6409   7.061   4.832   2.032
 2666W        W 6410   7.985   7.604   3.618
 2667W        W 6411   8.505   3.399   0.495
 2668W        W 6412   5.528   6.487  10.416
 2669W        W 6413   6.331   8.190   8.707
 2670W        W 6414   9.274   4.282   1.841
 2671W        W 6415   4.489   3.229   1.418
 2672W        W 6416   4.219   8.046  10.784
 2673W        W 6417   9.388   6.803   3.057
 2674W        W 6418   1.474   1.942   0.733
 2675W        W 6419   9.731   9.019   1.827
 2676W        W 6420   6.800   8.281   8.420
 2677W        W 6421  10.299   2.745  11.460
 2678W        W 6422   1.835   0.390   0.502
 2679W        W 6423   8.874   5.505   1.889
 2680W        W 6424   0.254   1.311  11.765
 2681W        W 6425   1.600   4.274   2.685
 2682W        W 6426   8.499   4.579   1.628
 2683W        W 6427   6.673   4.454  10.574
 2684W        W 6428   6.688   3.137  11.541
 2685W        W 6429   7.669   0.502   1.220
 2686W        W 6430   9.866   9.135  10.412
 2687W        W 6431  10.353   2.593  10.981
 2688W        W 6432   4.488   5.590   0.374
 2689W        W 6433   1.415   6.010   1.654
 2690W        W 6434   2.214   1.291   0.686
 2691W        W 6435   3.737   1.888   9.563
 2692W        W 6436   9.662   1.892   2.916
 2693W        W 6437   8.374   5.700  11.585
 2694W        W 6438   9.817   1.719   8.900
 2695W        W 6439   0.270   5.080   8.792
 2696W        W 6440   0.304   4.899  10.551
 2697W        W 6441   5.886   7.590   3.856
 2698W        W 6442   8.492   7.576   1.350
 2699W        W 6443   9.262   8.111   9.746
 2700W        W 6444   1.095   7.634   2.657
 2701W        W 6445   4.193   8.909   1.711
 2702W        W 6446   8.824   0.559   1.923
 2703W        W 6447   0.815   9.486  10.025
 2704W        W 6448   4.968   3.989   3.218
 2705W        W 6449   7.436   5.532  11.492
 2706W        W 6450   1.157   4.325  10.352
 2707W        W 6451   2.326   2.705  11.961
 2708W        W 6452   4.520   6.561   0.293
 2709W        W 6453   0.368   9.778   1.212
 2710W        W 6454   2.253   7.182   3.247
 2711W        W 6455   9.751   6.476  11.717
 2712W        W 6456   7.896   8.438   9.276
 2713W        W 6457   7.520   4.750   2.256
 2714W        W 6458   4.363   4.195   9.924
 2715W        W 6459   5.802   9.308   9.634
 2716W        W 6460   8.623   9.378  11.626
 2717W        W 6461   3.105   1.524   0.344
 2718W        W 6462   9.448   6.226  11.238
 2719W        W 6463   9.191   0.706   9.392
 2720W        W 6464   8.365   3.317  10.268
 2721W        W 6465   1.831   0.670  10.333
 2722W        W 6466   3.510   6.919   0.712
 2723W        W 6467   1.393   5.603  11.985
 2724W        W 6468   8.838   7.144   0.622
 2725W        W 6469   0.361   0.231  10.416
 2726W        W 6470   8.608   4.787  11.863
 2727W        W 6471   2.677   9.802   1.730
 2728W        W 6472   7.846   5.245   8.566
 2729W        W 6473  10.336   5.250  11.598
 2730W        W 6474   7.321   6.965   9.156
 2731W        W 6475   2.077  10.287   2.113
 2732W        W 6476   8.562   7.838  10.134
 2733W        W 6477   1.925   6.188   1.591
 2734W        W 6478   6.388   0.674   2.696
 2735W        W 6479   3.203   9.534   2.659
 2736W        W 6480   5.829   4.523   0.871
 2737W        W 6481   0.411  10.363   0.249
 2738W        W 6482   6.214   1.631   1.881
 2739W        W 6483   1.860   8.559   9.290
 2740W        W 6484   6.587  10.301  11.122
 2741W        W 6485   9.244   2.352   0.868
 2742W        W 6486   3.191   0.972  10.466
 2743W        W 6487   1.508   0.996   2.066
 2744W        W 6488   8.730   8.189   9.799
 2745W        W 6489   6.109   4.297  10.980
 2746W        W 6490   3.787   7.674  11.440
 2747W        W 6491   0.488   1.868   0.040
 2748W        W 6492   8.012   3.136   8.871
 2749W        W 6493   7.016   9.172   1.038
 2750W        W 6494   7.556   0.478   2.949
 2751W        W 6495  10.466   4.672   9.992
 2752W        W 6496   9.421   9.375   9.948
 2753W        W 6497   7.472   0.156  11.346
 2754W        W 6498   7.836   6.980   1.394
 2755W        W 6499  10.305   1.217  10.940
 2756W        W 6500   5.170   1.321  10.508
 2757W        W 6501   3.057  10.258   9.153
 2758W        W 6502   0.975   7.032   8.578
 2759W        W 6503   7.120   8.847   0.647
 2760W        W 6504   2.295   8.867   1.528
 2761W        W 6505  10.398   6.036   3.526
 2762W        W 6506   0.356   0.917   0.085
 2763W        W 6507  10.353   4.111  10.568
 2764W        W 6508   8.591   2.656   1.195
 2765W        W 6509   8.414   0.228   9.711
 2766W        W 6510   0.654   7.343   9.340
 2767W        W 6511   8.371   5.531   1.741
 2768W        W 6512   8.705   4.158   9.116
 2769W        W 6513   0.819   3.734   9.360
 2770W        W 6514   6.184   4.421   2.120
 2771W        W 6515   8.384   6.542  11.447
 2772W        W 6516   2.585   4.757  11.263
 2773W        W 6517   9.947   6.932   1.885
 2774W        W 6518   8.289   9.632   0.403
 2775W        W 6519   3.426   3.228  10.104
 2776W        W 6520   0.066   5.995   1.292
 2777W        W 6521   2.007   8.261   0.384
 2778W        W 6522  10.419   6.436   1.525
 2779W        W 6523   6.845   5.313  10.181
 2780W        W 6524   2.661   5.987   0.950
 2781W        W 6525   7.473   5.890  10.787
 2782W        W 6526   6.148   9.994   1.550
 2783W        W 6527   9.151   1.816   2.787
 2784W        W 6528   8.613   5.067   1.730
 2785W        W 6529   0.218   8.486   2.935
 2786W        W 6530   8.339   9.729  11.310
 2787W        W 6531   5.719   7.106   9.176
 2788W        W 6532   7.244   1.856  10.006
 2789W        W 6533   6.189   8.664  10.555
 2790W        W 6534   1.836   5.994   3.543
 2791W        W 6535   5.911   4.115   3.107
 2792W        W 6536   7.025   0.706   0.714
 2793W        W 6537   2.496   8.266   0.549
 2794W        W 6538   9.758   5.921   1.841
 2795W        W 6539   8.368   9.092   3.471
 2796W        W 6540   8.537   2.871  10.481
 2797W        W 6541   3.287   3.267   8.584
 2798W        W 6542   3.108   2.254  11.109
 2799W        W 6543   9.043   1.245   8.747
 2800W        W 6544   8.900   7.023   1.900
 2801W        W 6545   0.217   3.081  10.398
 2802W        W 6546  10.409   8.209   2.118
 2803W        W 6547   2.212   6.391  11.601
 2804W        W 6548  10.448   6.057   9.421
 2805W        W 6549   3.087   2.382   0.121
 2806W        W 6550   3.886   3.339   0.525
 2807W        W 6551   5.574   3.297  11.605
 2808W        W 6552   8.541   8.607   2.821
 2809W        W 6553   8.732  10.347   8.943
 2810W        W 6554   1.902   8.079   1.775
 2811W        W 6555   5.292   9.573   3.409
 2812W        W 6556   3.876   2.326   9.802
 2813W        W 6557   4.533   7.927   0.572
 2814W        W 6558   8.141   1.719  10.334
 2815W        W 6559   9.847   0.506  10.301
 2816W        W 6560   9.834   0.967  10.076
 2817W        W 6561   6.030   2.767   8.419
 2818W        W 6562   7.963   8.881   1.210
 2819W        W 6563   1.149   4.228   3.572
 2820W        W 6564   6.044   0.007   0.224
 2821W        W 6565   9.963   7.447  10.104
 2822W        W 6566   1.132   9.000   0.994
 2823W        W 6567   8.356   0.032   0.845
 2824W        W 6568   3.144   5.263   1.490
 2825W        W 6569   1.887   3.735   1.794
 2826W        W 6570   8.459   6.068   1.688
 2827W        W 6571   0.030   0.206   0.277
 2828W        W 6572   0.303   1.013   8.430
 2829W        W 6573   7.634   1.095  10.359
 2830W        W 6574   7.801   6.193   1.013
 2831W        W 6575   4.080   9.016   1.225
 2832W        W 6576  10.088   2.668   0.850
 2833W        W 6577   9.494   8.893   0.516
 2834W        W 6578   1.031   5.212   9.406
 2835W        W 6579   5.938   8.823   9.877
 2836W        W 6580   9.384   2.315   0.375
 2837W        W 6581   8.024   6.185   8.828
 2838W        W 6582   7.189   5.469  10.644
 2839W        W 6583   8.349   5.410   3.587
 2840W        W 6584   0.311   9.950  11.915
 2841W        W 6585   9.348   5.363   9.693
 2842W        W 6586   3.322   1.349   9.049
 2843W        W 6587   1.038   4.822   1.986
 2844W        W 6588   8.557   6.196   3.168
 2845W        W 6589   9.416   6.295   9.297
 2846W        W 6590   6.941  10.438   0.303
 2847W        W 6591   0.003   0.703   2.303
 2848W        W 6592   6.676   7.813  11.960
 2849W        W 6593   5.294   1.431  11.510
 2850W        W 6594   6.257   8.904   2.955
 2851W        W 6595   1.410   0.968  10.024
 2852W        W 6596   7.920   2.174   2.335
 2853W        W 6597   1.014   5.839   0.332
 2854W        W 6598   8.667   0.025   0.445
 2855W        W 6599   4.633   8.926   9.606
 2856W        W 6600   5.550   3.212   0.155
 2857W        W 6601   1.848   6.779  11.199
 2858W        W 6602   4.147   6.377   0.606
 2859W        W 6603   3.465  10.047   0.001
 2860W        W 6604   2.608   4.113  10.382
 2861W        W 6605   5.284   8.650   3.746
 2862W        W 6606   0.514   8.928   2.105
 2863W        W 6607   1.327   2.029  11.845
 2864W        W 6608   0.438   7.138   2.873
 2865W        W 6609   3.230   1.814   9.854
 2866W        W 6610   7.251   0.413   9.952
 2867W        W 6611   4.734   3.131  10.246
 2868W        W 6612   4.555   9.424   9.569
 2869W        W 6613   8.505   4.459   3.622
 2870W        W 6614   8.594   3.869   0.047
 2871W        W 6615   9.292   1.753   3.291
 2872W        W 6616   3.038   2.659   1.082
 2873W        W 6617   1.266  10.377   9.245
 2874W        W 6618   6.643   5.668   0.928
 2875W        W 6619   4.414   5.831  11.407
 2876W        W 6620   7.958   8.161  10.833
 2877W        W 6621   1.403   4.747  11.821
 2878W        W 6622   1.861   9.917   1.111
 2879W        W 6623   3.000   9.161  11.869
 2880W        W 6624   8.818   9.516   0.284
 2881W        W 6625   4.177   7.414  10.129
 2882W        W 6626   8.515   1.325  10.447
 2883W        W 6627   3.025   0.065   2.082
 2884W        W 6628   0.422   7.095   1.931
 2885W        W 6629   9.295   9.302   1.911
 2886W        W 6630   7.439   0.115   1.462
 2887W        W 6631   1.110   8.276   1.938
 2888W        W 6632   5.049   8.740   9.307
 2889W        W 6633   4.586   9.098  11.988
 2890W        W 6634   1.497   9.327   1.149
 2891W        W 6635   2.756   9.490   9.242
 2892W        W 6636   5.921   8.004   8.981
 2893W        W 6637   7.839   9.758  10.416
 2894W        W 6638   6.188   4.219   0.716
 2895W        W 6639   3.328   0.455  10.485
 2896W        W 6640   8.283   2.336   1.966
 2897W        W 6641   4.638   2.641   1.893
 2898W        W 6642  10.157   5.221   0.498
 2899W        W 6643   6.753   1.648  10.558
 2900W        W 6644   2.128   2.193   1.451
 2901W        W 6645   8.357   6.943  11.789
 2902W        W 6646   6.882   6.601  10.312
 2903W        W 6647   8.060   5.221  10.952
 2904W        W 6648   8.775   5.710   1.454
 2905W        W 6649   4.071   4.685  11.647
 2906W        W 6650   6.013   5.295   9.625
 2907W        W 6651   9.864   4.176  11.397
 2908W        W 6652   4.304   3.096   9.973
 2909W        W 6653   1.595   4.557  11.156
 2910W        W 6654   2.381   4.307   3.331
 2911W        W 6655   7.127   6.913  11.218
 2912W        W 6656   5.623   4.226   2.660
 2913W        W 6657   2.825   9.317   0.867
 2914W        W 6658   3.035   4.732   1.162
 2915W        W 6659  10.329   3.491   1.279
 2916W        W 6660   4.883   8.641   2.501
 2917W        W 6661   5.211   0.489   0.258
 2918W        W 6662   8.156   3.696   8.021
 2919W        W 6663   7.896   6.895   3.505
 2920W        W 6664   2.707   9.454   9.744
 2921W        W 6665  10.178   5.964  10.759
 2922W        W 6666   9.805   5.612   2.633
 2923W        W 6667   5.142   7.511   9.582
 2924W        W 6668   3.581   4.000   9.402
 2925W        W 6669   1.114   0.109  11.696
 2926W        W 6670   1.687  10.238   0.363
 2927W        W 6671  10.468   7.366  10.075
 2928W        W 6672   7.677   6.555   9.058
 2929W        W 6673   8.312   5.805   1.269
 2930W        W 6674   4.590   6.291  11.868
 2931W        W 6675   3.392   4.530  11.106
 2932W        W 6676  10.025   1.378   9.223
 2933W        W 6677   0.182   5.260  10.214
 2934W        W 6678   0.995   1.624  10.716
 2935W        W 6679   1.680   7.425   1.971
 2936W        W 6680   0.194   0.391  10.878
 2937W        W 6681   7.015   4.870   0.703
 2938W        W 6682   6.839   8.857   1.890
 2939W        W 6683   4.551   8.539   9.271
 2940W        W 6684   7.509   4.773   1.391
 2941W        W 6685   4.184   8.289   0.499
 2942W        W 6686   5.128   3.203  11.863
 2943W        W 6687   4.693   5.963   1.748
 2944W        W 6688   8.651   8.097   9.274
 2945W        W 6689   0.175   4.444  10.399
 2946W        W 6690   6.385   2.031  10.528
 2947W        W 6691   0.221   7.988   0.745
 2948W        W 6692   9.808   0.392  11.292
 2949W        W 6693   8.472   7.465  10.497
 2950W        W 6694   1.189   5.199  11.742
 2951W        W 6695   6.529   3.747   2.345
 2952W        W 6696   5.209   7.393   2.608
 2953W        W 6697   3.866   1.278  11.957
 2954W        W 6698   2.532   6.664   0.401
 2955W        W 6699   5.545   8.066   2.210
 2956W        W 6700   5.097   8.356   0.022
 2957W        W 6701   0.464   1.359   3.199
 2958W        W 6702   6.243   2.117  10.042
 2959W        W 6703   8.103   5.518   2.213
 2960W        W 6704   4.255   4.813   0.377
 2961W        W 6705   1.275   2.837   1.963
 2962W        W 6706   0.239   4.208   3.316
 2963W        W 6707   5.278   3.503  11.207
 2964W        W 6708   1.975   8.251  10.621
 2965W        W 6709   5.736   2.093  10.288
 2966W        W 6710   9.034   1.208   9.272
 2967W        W 6711   9.282   7.896  10.637
 2968W        W 6712   7.804   6.019   3.617
 2969W        W 6713   4.239   2.091  10.228
 2970W        W 6714   0.556   8.532   1.315
 2971W        W 6715   8.548   5.100   0.781
 2972W        W 6716   8.805   1.969   8.318
 2973W        W 6717   4.070   3.226  10.789
 2974W        W 6718   4.164   6.098  10.151
 2975W        W 6719   2.235   7.897   8.797
 2976W        W 6720   0.395   4.648   3.529
 2977W        W 6721   1.637   9.485   2.457
 2978W        W 6722   3.782   1.388   9.858
 2979W        W 6723   9.728   8.466   3.297
 2980W        W 6724   0.915   3.231   9.469
 2981W        W 6725   7.027   4.069   1.327
 2982W        W 6726   0.710   2.789   9.218
 2983W        W 6727   5.136   4.025   2.734
 2984W        W 6728   3.006   6.895   0.629
 2985W        W 6729   4.024   6.872   0.738
 2986W        W 6730   9.100   4.644   9.353
 2987W        W 6731   3.729   5.776   9.467
 2988W        W 6732   5.534   4.292   8.703
 2989W        W 6733   7.893   2.627   3.234
 2990W        W 6734   1.708   1.666  10.552
 2991W        W 6735   3.658   7.152  11.465
 2992W        W 6736   8.724   2.294   3.518
 2993W        W 6737   6.980   0.463  11.364
 2994W        W 6738   2.404   8.386  10.371
 2995W        W 6739   1.650   3.558   0.297
 2996W        W 6740   3.179   6.434   9.011
 2997W        W 6741  10.359   4.194  11.230
 2998W        W 6742   5.196   2.303   3.684
 2999W        W 6743   4.268   3.373   3.176
 3000W        W 6744   3.611   5.903  11.836
 3001W        W 6745   9.551   4.087   0.859
 3002W        W 6746   6.202   5.719   0.547
 3003W        W 6747   0.921   3.334  11.800
 3004W        W 6748   2.731   4.956   1.504
 3005W        W 6749   0.903   7.091  11.113
 3006W        W 6750   3.233   5.920  10.100
 3007W        W 6751   8.520   1.852   1.893
 3008W        W 6752   6.622   9.813   1.499
 3009W        W 6753   7.123  10.410   9.896
 3010W        W 6754   5.007   9.346  11.746
 3011W        W 6755   4.239   7.033   1.966
 3012W        W 6756   7.829   9.647   0.769
 3013W        W 6757   7.123   8.583   8.677
 3014W        W 6758  10.029   5.718   0.407
 3015W        W 6759  10.018   3.524   8.445
 3016W        W 6760   1.351   3.277   3.213
 3017W        W 6761   4.245   6.170   1.476
 3018W        W 6762   4.730   7.479   0.466
 3019W        W 6763   0.992   5.590   9.041
 3020W        W 6764   5.709   0.395  10.971
 3021W        W 6765   5.542   0.982  11.812
 3022W        W 6766   8.017   8.884   9.036
 3023W        W 6767   6.028  10.313   8.952
 3024W        W 6768   1.450   0.222   0.199
 3025W        W 6769   9.757   1.396   1.243
 3026W        W 6770   8.556   5.253   2.219
 3027W        W 6771   2.751   6.063   3.416
 3028W        W 6772   4.648   3.105   9.219
 3029W        W 6773   9.902   5.249   1.272
 3030W        W 6774   5.215   0.273   0.737
 3031W        W 6775   2.843   1.769   9.034
 3032W        W 6776   5.171   5.582  10.980
 3033W        W 6777   2.628   3.151   2.621
 3034W        W 6778   9.605   2.208   3.430
 3035W        W 6779   8.944   6.496   9.223
 3036W        W 6780   1.033   9.560   0.382
 3037W        W 6781   6.480   9.960   0.105
 3038W        W 6782   4.529   4.477  11.678
 3039W        W 6783   1.778   5.883   1.214
 3040W        W 6784   5.972   8.865   9.368
 3041W        W 6785   7.552   9.609   9.512
 3042W        W 6786   3.736   6.994   1.181
 3043W        W 6787   7.032   4.057   0.797
 3044W        W 6788   8.028   5.030   2.067
 3045W        W 6789   8.442   0.306  10.451
 3046W        W 6790   6.537   4.039  10.854
 3047W        W 6791   4.590   0.851   8.614
 3048W        W 6792   8.926   1.786  11.672
 3049W        W 6793  10.235   7.404   3.105
 3050W        W 6794   3.197   4.951   3.152
 3051W        W 6795   5.916   3.607   3.301
 3052W        W 6796   1.493   7.581  10.817
 3053W        W 6797   0.440   2.252  11.701
 3054W        W 6798   4.711   9.597   1.353
 3055W        W 6799   8.056   3.407  11.313
 3056W        W 6800   5.184   7.499   9.061
 3057W        W 6801   2.183  10.326   1.196
 3058W        W 6802   1.961   5.161   1.724
 3059W        W 6803   9.080   5.021  10.954
 3060W        W 6804   4.607   2.523   1.027
 3061W        W 6805   1.937   3.171  11.505
 3062W        W 6806   3.785   6.248  11.489
 3063W        W 6807  10.337   1.714   9.617
 3064W        W 6808   1.279   3.900  10.609
 3065W        W 6809   9.456   5.526  10.156
 3066W        W 6810  10.025   5.640   3.219
 3067W        W 6811   6.643   6.144   2.285
 3068W        W 6812   3.779   7.109   8.853
 3069W        W 6813   3.118   6.369  11.315
 3070W        W 6814   1.843   5.034   8.872
 3071W        W 6815   2.591   3.697  10.094
 3072W        W 6816   7.874   9.783   8.826
 3073W        W 6817   4.282   8.416  10.429
 3074W        W 6818   0.705   7.867  10.955
 3075W        W 6819  10.478   6.947   9.797
 3076W        W 6820   4.204   9.404   1.599
 3077W        W 6821   2.036   0.280  11.387
 3078W        W 6822   8.153   2.913   1.174
 3079W        W 6823   2.043   8.547   1.814
 3080W        W 6824   1.175   1.311  10.329
 3081W        W 6825   7.460   6.642   2.465
 3082W        W 6826   7.513   0.852   8.485
 3083W        W 6827   6.742   1.801   1.252
 3084W        W 6828   0.206   7.004   9.339
 3085W        W 6829   2.802   1.262   9.327
 3086W        W 6830   7.491   4.091   0.258
 3087W        W 6831   2.564   2.775   8.964
 3088W        W 6832   4.408   0.662   3.218
 3089W        W 6833   7.471   5.535   0.388
 3090W        W 6834   3.332   7.492   9.885
 3091W        W 6835   4.865   0.360   8.640
 3092W        W 6836   0.504   9.490   9.195
 3093W        W 6837   3.538   8.662  11.303
 3094W        W 6838   6.507   0.022   0.965
 3095W        W 6839  10.238   5.165   9.261
 3096W        W 6840   2.577   1.453   0.369
 3097W        W 6841   7.231   7.457   9.901
 3098W        W 6842   3.826   6.599   2.669
 3099W        W 6843   3.324   1.783   1.253
 3100W        W 6844   7.525   0.148   0.324
 3101W        W 6845   6.459   5.519   9.485
 3102W        W 6846   9.163   5.876   2.242
 3103W        W 6847   4.476   9.882   3.210
 3104W        W 6848   5.945   7.601  11.290
 3105W        W 6849   6.692   3.409  10.275
 3106W        W 6850   9.607   1.244   3.335
 3107W        W 6851   6.752   2.775  11.948
 3108W        W 6852   3.142   6.081  10.890
 3109W        W 6853   7.404   0.006   9.458
 3110W        W 6854   1.956   4.452   2.380
 3111W        W 6855   5.717   5.607   9.954
 3112W        W 6856   6.493   6.355   2.721
 3113W        W 6857   3.451   0.087   9.248
 3114W        W 6858   8.503   9.093   3.000
 3115W        W 6859   0.841   0.548   3.712
 3116W        W 6860   9.451   4.674   8.990
 3117W        W 6861   4.020   2.951   3.116
 3118W        W 6862   2.230   9.062   0.758
 3119W        W 6863   2.282   1.974   9.160
 3120W        W 6864   2.890   9.508  10.631
 3121W        W 6865   1.356   9.952   8.961
 3122W        W 6866   9.046   7.504   2.085
 3123W        W 6867   7.423   1.463   3.203
 3124W        W 6868   9.001   2.194   9.055
 3125W        W 6869   0.764   6.359   9.383
 3126W        W 6870   0.016  10.461  10.680
 3127W        W 6871   9.751   7.227   2.247
 3128W        W 6872   2.545   7.657   1.927
 3129W        W 6873   5.936   2.528   8.860
 3130W        W 6874   2.731   9.518   0.166
 3131W        W 6875   4.224   8.200   2.382
 3132W        W 6876   9.791   3.397   2.895
 3133W        W 6877   3.790   9.460  10.807
 3134W        W 6878   0.249   4.444  11.490
 3135W        W 6879   6.581   4.614   9.690
 3136W        W 6880   7.463  10.447   1.923
 3137W        W 6881   0.147   0.446  11.840
 3138W        W 6882   6.472   3.094  11.066
 3139W        W 6883   0.048   9.468   0.862
 3140W        W 6884   8.326   8.409   9.553
 3141W        W 6885   3.765   6.487  10.157
 3142W        W 6886   7.330   5.612   1.687
 3143W        W 6887   1.464   8.923   8.443
 3144W        W 6888   8.444   1.655  11.423
 3145W        W 6889   1.773   3.655  11.426
 3146W        W 6890   6.238   1.510   0.028
 3147W        W 6891   2.714   6.988   2.458
 3148W        W 6892   0.030   1.845  10.619
 3149W        W 6893   7.185   6.157   8.551
 3150W        W 6894   8.843   7.026  10.257
 3151W        W 6895   0.793   6.814   1.666
 3152W        W 6896   7.588  10.214   0.622
 3153W        W 6897   5.333   3.822   8.635
 3154W        W 6898   9.488   0.079  10.437
 3155W        W 6899   2.311   8.139   2.539
 3156W        W 6900   1.661   8.639   2.126
 3157W        W 6901   8.201   2.607  11.986
 3158W        W 6902   4.672   5.216  10.324
 3159W        W 6903   0.040   0.844  10.678
 3160W        W 6904   9.923   4.470   0.801
 3161W        W 6905   0.962   6.612   0.734
 3162W        W 6906   7.390   9.492  10.567
 3163W        W 6907   5.158  10.287   2.044
 3164W        W 6908  10.406   6.412   2.041
 3165W        W 6909   3.025   1.884  11.953
 3166W        W 6910   4.824   3.353   8.829
 3167W        W 6911   7.686   0.943   1.494
 3168W        W 6912   5.740   2.671  10.906
 3169W        W 6913   3.109   6.185   2.745
 3170W        W 6914   6.331   9.061   0.358
 3171W        W 6915   6.178   4.306  10.489
 3172W        W 6916   2.337   8.142   2.036
 3173W        W 6917   7.635   9.927  11.856
 3174W        W 6918   5.169   5.629   1.156
 3175W        W 6919   4.181   1.577  10.179
 3176W        W 6920   3.593   5.230   2.731
 3177W        W 6921   6.130   0.161   9.312
 3178W        W 6922   4.148   1.335   9.077
 3179W        W 6923   4.964   2.724   0.700
 3180W        W 6924   1.021   8.433   9.942
 3181W        W 6925  10.360   8.247   9.060
 3182W        W 6926   2.277   5.626   9.490
 3183W        W 6927   0.944   0.994   9.225
 3184W        W 6928   2.495   4.251   0.473
 3185W        W 6929   5.574   8.053  10.374
 3186W        W 6930   6.893   3.035   2.682
 3187W        W 6931   3.311   4.519  10.614
 3188W        W 6932   6.912   5.398  11.483
 3189W        W 6933   0.485   3.768  11.006
 3190W        W 6934   9.834   1.427   9.693
 3191W        W 6935   6.258   5.627   9.987
 3192W        W 6936   5.966   5.073   1.691
 3193W        W 6937   8.931   8.092  11.689
 3194W        W 6938   8.527   8.555   1.757
 3195W        W 6939   6.650   1.303   8.875
 3196W        W 6940   2.147   9.665   0.219
 3197W        W 6941   5.227   7.564   0.971
 3198W        W 6942   4.194   6.200   8.863
 3199W        W 6943   8.042   0.500   9.085
 3200W        W 6944   2.778   4.442   1.483
 3201W        W 6945   2.624   4.553   8.253
 3202W        W 6946   2.209   1.490  11.694
 3203W        W 6947   5.998   6.117  10.527
 3204W        W 6948   3.153   4.125  10.329
 3205W        W 6949   3.201   0.377   0.250
 3206W        W 6950   9.924  10.252   0.463
 3207W        W 6951   8.862   8.837   1.279
 3208W        W 6952   7.232   3.541   3.708
 3209W        W 6953   9.312   6.872  10.390
 3210W        W 6954   0.633   8.433  11.645
 3211W        W 6955   4.591   7.146   9.990
 3212W        W 6956   8.136   9.574  10.846
 3213W        W 6957   9.460   7.557   0.358
 3214W        W 6958   3.178   8.342   9.013
 3215W        W 6959   1.921   8.541  11.966
 3216W        W 6960   6.054   9.500   0.336
 3217W        W 6961   4.038   4.893  10.470
 3218W        W 6962   4.628   9.118   1.878
 3219W        W 6963   8.443   5.067   2.950
 3220W        W 6964   0.237   5.525   1.442
 3221W        W 6965   4.037   9.702  11.436
 3222W        W 6966   1.598   3.469   3.595
 3223W        W 6967   0.727   7.446   8.772
 3224W        W 6968   1.345   5.634  10.981
 3225W        W 6969   9.450   6.178   1.455
 3226W        W 6970   4.770  10.372  11.840
 3227W        W 6971   0.916   6.113   1.840
 3228W        W 6972   0.448   9.993  10.891
 3229W        W 6973   7.856   0.146   0.876
 3230W        W 6974   5.667   8.053   9.530
 3231W        W 6975   6.312   5.430   1.842
 3232W        W 6976   9.902   3.818   2.638
 3233W        W 6977   2.821   5.174  11.483
 3234W        W 6978   8.435   9.716   9.686
 3235W        W 6979   9.974   0.411   1.428
 3236W        W 6980   6.371   9.450  10.826
 3237W        W 6981   9.299   4.941   0.268
 3238W        W 6982   0.796   3.629   0.261
 3239W        W 6983   4.995   4.830  10.290
 3240W        W 6984  10.405   7.997  11.325
 3241W        W 6985   6.782   1.235  10.002
 3242W        W 6986   0.621   1.649   0.483
 3243W        W 6987   1.991   6.343   9.601
 3244W        W 6988   6.067   9.349  11.428
 3245W        W 6989  10.130   7.342   9.635
 3246W        W 6990   6.145   3.460   8.914
 3247W        W 6991   3.821   6.340   8.464
 3248W        W 6992   2.867   6.086   1.933
 3249W        W 6993   5.229   6.948   2.345
 3250W        W 6994   7.790   4.400   0.737
 3251W        W 6995   8.086   9.793   2.898
 3252W        W 6996   6.768   6.511   8.599
 3253W        W 6997  10.214   9.048   0.923
 3254W        W 6998   9.059   8.032  10.199
 3255W        W 6999   5.200   0.408   9.029
 3256W        W 7000   0.441   1.941   2.649
 3257W        W 7001   5.992   5.067   2.744
 3258W        W 7002   3.606   7.886   3.049
 3259W        W 7003   2.757   0.289   3.126
 3260W        W 7004   9.396   1.215   1.628
 3261W        W 7005   7.932   3.314   9.986
 3262W        W 7006   8.176   0.985   1.306
 3263W        W 7007   3.155   4.995   2.349
 3264W        W 7008   6.680   0.979   2.961
 3265W        W 7009   6.085   8.131  10.561
 3266W        W 7010   1.920   5.565   3.217
 3267W        W 7011   7.215   5.442   9.801
 3268W        W 7012  10.500   5.302   1.031
 3269W        W 7013   0.701   5.287  11.665
 3270W        W 7014   9.110  10.308   0.393
 3271W        W 7015   8.652   4.659  10.295
 3272W        W 7016  10.064   0.255   3.483
 3273W        W 7017   5.298   8.391   9.577
 3274W        W 7018   9.618   6.709  11.287
 3275W        W 7019   7.866   4.223  10.466
 3276W        W 7020   8.458   6.936   9.576
 3277W        W 7021   7.360   6.255   3.743
 3278W        W 7022   5.547   3.787   2.950
 3279W        W 7023   5.787   5.791   0.262
 3280W        W 7024   3.106   2.715   1.579
 3281W        W 7025   5.091   6.720   8.945
 3282W        W 7026   7.885   4.232   9.572
 3283W        W 7027   2.713   6.668   9.010
 3284W        W 7028   3.577   9.495  11.296
 3285W        W 7029   7.913   0.386  11.502
 3286W        W 7030   7.778   5.571   8.169
 3287W        W 7031   8.590   5.428   9.317
 3288W        W 7032   8.274   0.559   3.670
 3289W        W 7033   2.735   6.520   2.662
 3290W        W 7034   5.300   5.584   3.136
 3291W        W 7035   7.456   0.558   3.444
 3292W        W 7036   3.758   9.175   1.837
 3293W        W 7037   6.591   6.009   9.286
 3294W        W 7038   6.467   8.635   2.214
 3295W        W 7039   0.120   8.436  11.546
 3296W        W 7040   5.927   7.126   8.177
 3297W        W 7041   1.421   2.423  10.480
 3298W        W 7042   7.432   3.430   0.826
 3299W        W 7043   1.033   1.834   2.035
 3300W        W 7044   7.367  10.335  11.712
 3301W        W 7045   6.172   3.247   1.942
 3302W        W 7046   7.948   4.754   8.950
 3303W        W 7047   4.244   9.624   0.324
 3304W        W 7048  10.045   5.475  10.834
 3305W        W 7049   6.421   8.098   2.240
 3306W        W 7050   0.020   7.464  10.977
 3307W        W 7051   1.185   0.459   9.937
 3308W        W 7052   1.660   1.775   9.297
 3309W        W 7053   5.760   1.831   2.010
 3310W        W 7054   3.009   2.800  10.789
 3311W        W 7055   9.906   5.243   2.293
 3312W        W 7056   8.582   9.801   2.053
 3313W        W 7057  10.373   9.878   1.157
 3314W        W 7058   4.325   7.141   2.974
 3315W        W 7059   4.046   6.372   3.351
 3316W        W 7060   4.331   1.390   2.329
 3317W        W 7061   9.994   9.784   0.219
 3318W        W 7062   5.227   4.769   9.282
 3319W        W 7063   2.260  10.318   8.518
 3320W        W 7064   4.708   7.496   8.597
 3321W        W 7065   3.651   7.849   0.726
 3322W        W 7066   7.410   7.650   1.292
 3323W        W 7067   8.731   9.948   3.539
 3324W        W 7068   2.696   4.978   9.037
 3325W        W 7069   6.494   9.248  11.682
 3326W        W 7070   1.898   2.628  10.428
 3327W        W 7071   8.624   1.167   3.513
 3328W        W 7072   8.191   1.219   0.038
 3329W        W 7073   5.550   3.623   0.449
 3330W        W 7074   7.014   4.503   1.053
 3331W        W 7075   2.339   0.439  10.463
 3332W        W 7076   2.813   9.510   3.516
 3333W        W 7077   0.682   0.421  10.033
 3334W        W 7078   9.330   7.459   1.246
 3335W        W 7079  10.259   7.071   0.689
 3336W        W 7080   4.734   7.676   9.223
 3337W        W 7081   0.158   8.104   9.927
 3338W        W 7082   8.126   7.556  10.115
 3339W        W 7083   9.105   0.317   0.444
 3340W        W 7084   8.981   9.389   8.760
 3341W        W 7085   1.768   1.234   0.898
 3342W        W 7086   5.679   3.637   0.941
 3343W        W 7087   7.320   1.794   9.450
 3344W        W 7088   4.039  10.197   3.311
 3345W        W 7089   1.855   2.208   8.985
 3346W        W 7090   3.633   0.522  10.948
 3347W        W 7091   3.406   4.558   0.037
 3348W        W 7092   2.422   1.928  10.361
 3349W        W 7093   1.256   5.154   2.364
 3350W        W 7094   1.032   5.250   8.559
 3351W        W 7095   4.351   3.666  10.828
 3352W        W 7096   0.248   3.372   2.374
 3353W        W 7097   8.948   7.964   2.319
 3354W        W 7098   4.583   8.332   0.909
 3355W        W 7099   3.929   4.601   8.670
 3356W        W 7100   2.975  10.300   0.844
 3357W        W 7101   8.356   4.985   9.142
 3358W        W 7102   2.447   8.587   3.296
 3359W        W 7103   5.348   0.752   1.671
 3360W        W 7104   8.405   6.076   0.372
 3361W        W 7105   5.126   3.341   0.846
 3362W        W 7106   6.976  10.025   2.147
 3363W        W 7107   2.103   8.912  10.057
 3364W        W 7108   0.751   5.199   2.262
 3365W        W 7109   5.691   9.893  11.966
 3366W        W 7110   8.130   3.657   1.329
 3367W        W 7111   5.704   7.580   3.358
 3368W        W 7112   6.757   2.845   9.932
 3369W        W 7113   5.849   4.475   0.247
 3370W        W 7114  10.470   9.485   8.497
 3371W        W 7115   5.423   2.149   9.843
 3372W        W 7116   8.890   2.726   3.300
 3373W        W 7117   4.219   8.425   1.813
 3374W        W 7118   9.981  10.346   3.161
 3375W        W 7119   4.964   7.668   1.391
 3376W        W 7120   1.814   2.829   0.731
 3377W        W 7121   5.726   7.836  10.831
 3378W        W 7122   3.820   0.538  11.499
 3379W        W 7123   6.638   8.562   8.917
 3380W        W 7124   9.596   2.779   0.953
 3381W        W 7125   9.459   8.914  10.161
 3382W        W 7126   6.281   2.643   3.700
 3383W        W 7127   3.586   8.911  10.800
 3384W        W 7128   3.131   7.758   0.422
 3385W        W 7129   4.079   4.021   0.971
 3386W        W 7130   1.367   5.477   0.485
 3387W        W 7131   7.705   8.143   2.648
 3388W        W 7132   5.108   9.933   1.356
 3389W        W 7133   3.228   6.924   9.054
 3390W        W 7134   8.125   5.433   3.092
 3391W        W 7135   9.371   0.472   1.061
 3392W        W 7136   8.829   3.236  10.045
 3393W        W 7137   9.038   9.350  11.333
 3394W        W 7138   5.752   2.686   3.779
 3395W        W 7139   1.767   5.517  10.724
 3396W        W 7140   6.933   4.263  11.397
 3397W        W 7141   4.274   3.886   0.183
 3398W        W 7142   2.189   8.103  11.075
 3399W        W 7143   6.154   7.675   8.627
 3400W        W 7144   1.788   1.240   9.741
 3401W        W 7145   5.410   6.486   0.006
 3402W        W 7146   1.317   7.137  10.120
 3403W        W 7147   8.917   3.576  11.768
 3404W        W 7148   6.044   5.176  11.627
 3405W        W 7149   0.513   7.858  10.458
 3406W        W 7150   7.429   6.521  11.383
 3407W        W 7151   8.156   7.875   2.736
 3408W        W 7152   2.536   0.181   1.917
 3409W        W 7153  10.178   0.555  10.933
 3410W        W 7154   6.369  10.481   2.231
 3411W        W 7155   2.771   5.076   4.071
 3412W        W 7156   8.365  10.328  10.316
 3413W        W 7157   9.020   3.525   8.668
 3414W        W 7158   7.177   3.699   0.468
 3415W        W 7159   8.208   7.965   9.777
 3416W        W 7160   0.684   1.195  10.440
 3417W        W 7161   6.762   9.249   9.423
 3418W        W 7162   1.140   0.500   1.866
 3419W        W 7163   4.211   9.348  11.128
 3420W        W 7164   4.977   7.419  10.594
 3421W        W 7165   8.193   6.931   0.274
 3422W        W 7166   4.706   5.439   9.844
 3423W        W 7167   4.020   6.581  11.081
 3424W        W 7168   7.066   8.311   3.468
 3425W        W 7169   3.821   1.974   3.498
 3426W        W 7170   7.368   6.330   0.777
 3427W        W 7171   4.241   3.190   8.907
 3428W        W 7172   0.968   0.419   2.384
 3429W        W 7173   4.297   0.917   0.389
 3430W        W 7174   5.240   1.261   0.987
 3431W        W 7175   7.486   4.764   0.896
 3432W        W 7176   6.939   3.736  10.915
 3433W        W 7177   7.128   1.706   0.934
 3434W        W 7178   5.487   4.888   0.900
 3435W        W 7179   7.549   0.232   9.018
 3436W        W 7180   1.881   6.241   9.060
 3437W        W 7181   6.084   6.808   3.229
 3438W        W 7182   6.479   4.801  10.238
 3439W        W 7183   2.125   9.947   8.835
 3440W        W 7184   3.598   0.849  11.850
 3441W        W 7185   6.543   6.288   3.535
 3442W        W 7186   3.626   9.947  10.542
 3443W        W 7187   7.577   9.075   2.958
 3444W        W 7188   6.484   8.260   9.332
 3445W        W 7189   0.334   1.594   9.392
 3446W        W 7190   9.399   4.865   9.670
 3447W        W 7191   6.089   2.860   0.682
 3448W        W 7192   1.136   4.300   2.479
 3449W        W 7193   8.900   4.890   2.406
 3450W        W 7194   9.502   3.574   1.624
 3451W        W 7195   4.354   2.791   2.303
 3452W        W 7196   0.699   9.203  10.445
 3453W        W 7197   3.838   8.533   1.282
 3454W        W 7198   1.051   2.797   8.819
 3455W        W 7199   4.766   3.038   4.049
 3456W        W 7200   7.042   1.905  11.994
 3457W        W 7201   0.638   6.625   8.505
 3458W        W 7202   1.737   6.062   2.535
 3459W        W 7203   6.965   7.929   3.157
 3460W        W 7204   5.169   8.330   2.825
 3461W        W 7205   5.361   8.844   0.407
 3462W        W 7206   8.805   5.518   8.837
 3463W        W 7207   7.001   9.247  11.839
 3464W        W 7208  10.407  10.209   0.227
 3465W        W 7209   1.472   3.280   0.688
 3466W        W 7210   7.050   6.664   1.040
 3467W        W 7211  10.347   0.672   0.205
 3468W        W 7212   9.928   4.177   9.615
 3469W        W 7213   3.295   4.999  11.324
 3470W        W 7214   7.877   6.906   2.932
 3471W        W 7215   4.705   3.038   1.002
 3472W        W 7216   4.125   4.148  11.744
 3473W        W 7217   9.431   8.327   1.792
 3474W        W 7218   0.876   2.858   0.958
 3475W        W 7219   2.909   5.201   1.939
 3476W        W 7220   1.012   2.313   9.091
 3477W        W 7221   9.893   7.115  11.414
 3478W        W 7222   5.719   7.123  11.338
 3479W        W 7223  10.114   4.553   0.341
 3480W        W 7224   5.587   9.997   3.305
 3481W        W 7225   5.177   1.261   9.509
 3482W        W 7226   1.186   4.219   2.996
 3483W        W 7227   9.701   3.968   9.191
 3484W        W 7228   3.739   8.206  11.370
 3485W        W 7229   0.428   8.634  11.196
 3486W        W 7230  10.208   2.146   0.592
 3487W        W 7231   5.107   0.682  11.773
 3488W        W 7232   7.220   1.881  10.532
 3489W        W 7233   3.820   8.829   9.943
 3490W        W 7234   8.074   3.241   0.203
 3491W        W 7235   1.861   7.883   0.754
 3492W        W 7236   5.540   8.812   1.170
 3493W        W 7237   1.284   8.141  11.444
 3494W        W 7238   9.961   4.706   3.426
 3495W        W 7239   2.669   2.970   1.264
 3496W        W 7240   6.512   8.986   1.133
 3497W        W 7241   1.939   3.555   2.693
 3498W        W 7242   8.740   0.523  10.107
 3499W        W 7243   6.621   6.735   1.371
 3500W        W 7244   5.612   9.967  10.083
 3501W        W 7245   8.787   3.629  10.985
 3502W        W 7246  10.014   0.270   0.292
 3503W        W 7247   9.841   8.329   2.822
 3504W        W 7248   3.174   1.347   1.469
 3505W        W 7249   5.636   6.301   3.716
 3506W        W 7250   4.483   7.643   8.095
 3507W        W 7251   2.830   8.099  10.389
 3508W        W 7252   6.703   5.926  11.250
 3509W        W 7253   2.648  10.280   3.560
 3510W        W 7254   1.379  10.086  11.130
 3511W        W 7255   1.907   6.974   1.949
 3512W        W 7256   3.210   4.772   1.664
 3513W        W 7257   7.128   0.244   3.156
 3514W        W 7258   7.929   0.805  10.696
 3515W        W 7259   2.305   2.885   0.450
 3516W        W 7260   3.062   1.867  10.779
 3517W        W 7261   1.463   2.972   3.641
 3518W        W 7262   8.076   3.523   3.363
 3519W        W 7263  10.209   9.444   2.978
 3520W        W 7264   2.936   1.189  10.843
 3521W        W 7265   0.280   4.294   1.905
 3522W        W 7266   9.674  10.303   9.580
 3523W        W 7267   1.326   1.802  10.245
 3524W        W 7268   7.271   7.894   9.634
 3525W        W 7269   4.477   0.809   2.739
 3526W        W 7270   5.754   8.065   1.611
 3527W        W 7271   1.206   4.291  11.923
 3528W        W 7272   3.110   9.924  10.442
 3529W        W 7273   6.584   0.171   1.822
 3530W        W 7274   5.401   0.491   3.492
 3531W        W 7275   5.086   9.986   2.507
 3532W        W 7276   0.618   0.233  11.946
 3533W        W 7277   6.575   4.492  11.097
 3534W        W 7278   0.739   0.417  11.056
 3535W        W 7279   2.930   1.634  10.303
 3536W        W 7280   3.165   7.853   0.945
 3537W        W 7281   2.646   4.266  11.956
 3538W        W 7282   2.281   1.654  11.220
 3539W        W 7283   4.682   9.624   9.084
 3540W        W 7284   3.713   0.323   1.003
 3541W        W 7285   4.984   6.073   0.876
 3542W        W 7286   3.342   2.682  11.768
 3543W        W 7287   0.486   4.017   1.527
 3544W        W 7288   7.594   7.419  10.753
 3545W        W 7289   7.107   6.229  11.078
 3546W        W 7290   8.428   8.968   0.988
 3547W        W 7291   0.563   2.517   3.440
 3548W        W 7292   0.389   7.451  11.858
 3549W        W 7293   3.556   4.959  10.747
 3550W        W 7294   7.112   8.825   9.608
 3551W        W 7295   9.757   4.310   3.163
 3552W        W 7296   3.639   8.512  11.802
 3553W        W 7297   3.980   0.069   2.166
 3554W        W 7298   6.878   7.882   2.057
 3555W        W 7299   1.364   4.976  11.339
 3556W        W 7300   0.343   5.291  11.311
 3557W        W 7301   7.533   3.178   9.694
 3558W        W 7302  10.031   9.123   9.419
 3559W        W 7303   7.132   0.405   1.173
 3560W        W 7304   0.573   1.390   8.997
 3561W        W 7305   5.711   6.393   1.426
 3562W        W 7306   8.854   0.549  10.639
 3563W        W 7307   0.817   7.024  10.079
 3564W        W 7308   4.552   7.644  10.770
 3565W        W 7309   2.335   6.891   8.148
 3566W        W 7310   4.732   6.832   3.143
 3567W        W 7311   2.857   3.183  11.409
 3568W        W 7312  10.349   2.973   1.295
 3569W        W 7313   0.535   6.994   8.924
 3570W        W 7314   9.973   9.495   9.074
 3571W        W 7315   4.268   3.663   2.712
 3572W        W 7316   8.554   6.676   3.441
 3573W        W 7317   0.813   7.803   9.119
 3574W        W 7318   1.928   2.183   9.515
 3575W        W 7319   7.236   9.409   2.754
 3576W        W 7320   1.466   7.969   9.549
 3577W        W 7321   6.692   7.018  10.935
 3578W        W 7322   4.596   0.754  11.797
 3579W        W 7323   1.287   1.029  11.551
 3580W        W 7324   5.197   4.279   9.130
 3581W        W 7325   6.717   7.383  10.015
 3582W        W 7326   4.000   3.119   1.403
 3583W        W 7327   4.717   6.953   2.139
 3584W        W 7328   5.560   2.546  10.452
 3585W        W 7329   6.265   8.713   8.607
 3586W        W 7330   4.047   8.044   8.696
 3587W        W 7331   2.229   6.599   9.218
 3588W        W 7332  10.280   8.017   2.828
 3589W        W 7333   3.139   1.867   3.262
 3590W        W 7334  10.426   0.901  11.756
 3591W        W 7335   7.483  10.100   1.538
 3592W        W 7336   1.312   3.303   2.694
 3593W        W 7337   3.372   6.116   1.859
 3594W        W 7338   0.852   4.728   2.460
 3595W        W 7339   6.057   2.012  11.749
 3596W        W 7340   8.627   9.377   1.283
 3597W        W 7341   6.553   2.294   2.993
 3598W        W 7342   6.919   6.471  11.499
 3599W        W 7343   4.562   1.075   9.241
 3600W        W 7344   0.719   8.380   2.793
 3601W        W 7345  10.263   0.755   3.496
 3602W        W 7346   4.288   9.423  10.611
 3603W        W 7347   0.529   2.786   8.731
 3604W        W 7348   4.171   4.199   3.605
 3605W        W 7349   4.572   9.978   0.480
 3606W        W 7350   2.213   3.751   9.762
 3607W        W 7351   5.589   5.116   9.844
 3608W        W 7352   5.496   9.875  11.070
 3609W        W 7353   9.298   8.986   8.714
 3610W        W 7354   1.417   9.246   0.632
 3611W        W 7355   9.375   8.083  11.957
 3612W        W 7356   1.364  10.032   2.755
 3613W        W 7357   2.470   1.801   0.015
 3614W        W 7358   5.955   7.925   9.957
 3615W        W 7359   0.814  10.230   2.777
 3616W        W 7360   1.235   2.849   2.968
 3617W        W 7361   5.670   3.580   4.270
 3618W        W 7362   0.379   8.954  11.579
 3619W        W 7363   2.641   7.537  11.493
 3620W        W 7364   7.452  10.097  11.265
 3621W        W 7365   1.755   2.824   1.720
 3622W        W 7366   1.730   9.303   9.966
 3623W        W 7367  10.361   5.962   8.500
 3624W        W 7368   2.037   7.138   8.505
 3625W        W 7369  10.007   7.898  10.318
 3626W        W 7370   1.255   3.633  11.568
 3627W        W 7371   7.229   0.159   3.673
 3628W        W 7372   3.988   0.902  10.919
 3629W        W 7373   7.774   6.141  10.455
 3630W        W 7374   7.681   1.987   9.752
 3631W        W 7375   7.885   7.842   3.154
 3632W        W 7376   1.705   5.201  11.870
 3633W        W 7377   5.071   4.070   8.181
 3634W        W 7378   8.074   1.997  11.397
 3635W        W 7379   5.340   4.433   0.688
 3636W        W 7380   8.734   2.614   0.696
 3637W        W 7381   6.857   1.765   9.665
 3638W        W 7382   6.961   4.032  10.489
 3639W        W 7383   1.360   4.338   9.883
 3640W        W 7384   5.308   6.661   8.485
 3641W        W 7385  10.036   2.221  11.206
 3642W        W 7386   2.514   1.354   3.627
 3643W        W 7387   5.761   5.113   2.155
 3644W        W 7388   6.961   0.179   0.745
 3645W        W 7389  10.278   9.002   3.264
 3646W        W 7390   9.951   2.871   2.817
 3647W        W 7391   4.700   3.108  11.579
 3648W        W 7392   2.218   9.905   2.966
 3649W        W 7393  10.279   3.082  10.860
 3650W        W 7394   9.495   1.110  11.946
 3651W        W 7395   4.425   8.889  11.129
 3652W        W 7396   0.903   6.639   2.606
 3653W        W 7397   7.962   4.093   2.167
 3654W        W 7398   6.475   9.059   9.011
 3655W        W 7399   5.225   8.378   8.897
 3656W        W 7400   5.006  10.439   9.743
 3657W        W 7401   4.498   9.588   2.345
 3658W        W 7402   1.142   0.492   0.768
 3659W        W 7403   4.877   0.277  10.503
 3660W        W 7404   3.885   9.871   1.176
 3661W        W 7405   4.190   7.897  10.302
 3662W        W 7406   3.738   1.929  11.506
 3663W        W 7407  10.299   8.427   1.647
 3664W        W 7408   7.613   1.838   1.653
 3665W        W 7409   7.499   9.962  10.752
 3666W        W 7410   8.829   9.031   1.761
 3667W        W 7411   1.776   8.072  11.492
 3668W        W 7412   1.017   5.564   3.251
 3669W        W 7413   9.476   7.900   3.429
 3670W        W 7414   9.399   8.590  11.863
 3671W        W 7415   8.602   4.296  11.778
 3672W        W 7416   3.580  10.334   3.074
 3673W        W 7417   4.160   4.383  11.249
 3674W        W 7418   9.790   0.965   1.847
 3675W        W 7419   7.536   8.928   4.023
 3676W        W 7420   2.579   2.381   0.420
 3677W        W 7421   9.855   9.786  11.695
 3678W        W 7422   4.437   3.601   9.134
 3679W        W 7423   9.373   2.248   2.657
 3680W        W 7424   4.215   6.558   9.924
 3681W        W 7425   1.007   2.389   0.763
 3682W        W 7426   6.246   0.765   1.142
 3683W        W 7427   5.981   5.689  11.374
 3684W        W 7428   4.226   8.920  10.308
 3685W        W 7429   8.503   8.004   1.031
 3686W        W 7430   0.490   5.106   0.119
 3687W        W 7431   7.815   9.349   0.336
 3688W        W 7432   2.819   8.995   3.332
 3689W        W 7433   2.189   1.229   1.185
 3690W        W 7434   9.910   2.322   2.751
 3691W        W 7435   1.813   1.432   1.456
 3692W        W 7436   0.290   4.922  11.674
 3693W        W 7437   8.923   8.000   2.851
 3694W        W 7438   8.920   1.740   9.331
 3695W        W 7439   4.571   9.071   2.429
 3696W        W 7440   8.339   2.361   2.544
 3697W        W 7441   3.619   1.381   0.408
 3698W        W 7442   8.263   6.324   3.698
 3699W        W 7443   1.829   4.812  11.556
 3700W        W 7444   6.759   6.734   9.075
 3701W        W 7445   7.636   0.907   0.714
 3702W        W 7446   8.577   1.452  10.971
 3703W        W 7447   2.081   9.309  10.352
 3704W        W 7448   9.837   4.627   9.910
 3705W        W 7449   3.788   9.145  10.384
 3706W        W 7450   0.706   9.410   2.269
 3707W        W 7451   2.643   2.273  11.914
 3708W        W 7452   2.828   3.075   3.088
 3709W        W 7453   9.943   6.397   1.845
 3710W        W 7454   1.428   3.618   8.677
 3711W        W 7455   9.428   3.947  11.549
 3712W        W 7456   8.321  10.060  10.763
 3713W        W 7457   2.027   4.904   3.692
 3714W        W 7458   0.753   6.524   2.107
 3715W        W 7459   0.643   0.379   1.960
 3716W        W 7460   9.576   4.262   8.757
 3717W        W 7461   0.860   2.740  11.852
 3718W        W 7462   8.118   7.952  11.779
 3719W        W 7463   6.523   8.492  10.893
 3720W        W 7464   3.630   7.614   9.322
 3721W        W 7465   3.320   3.816   2.650
 3722W        W 7466   6.007   6.090  10.016
 3723W        W 7467  10.392   8.172  11.920
 3724W        W 7468   9.784   4.997   0.793
 3725W        W 7469   7.475   4.584  11.019
 3726W        W 7470   5.170   8.361  10.068
 3727W        W 7471  10.327   5.107  10.573
 3728W        W 7472  10.295   7.035   1.204
 3729W        W 7473   7.146   7.218  10.808
 3730W        W 7474   7.626   9.134   9.711
 3731W        W 7475   8.620   9.253   9.579
 3732W        W 7476   9.588   3.467   9.399
 3733W        W 7477   0.066   0.829   9.683
 3734W        W 7478   9.919   9.331   9.896
 3735W        W 7479   9.910   6.143   9.464
 3736W        W 7480   6.921  10.158  11.879
 3737W        W 7481   5.444   9.984   1.728
 3738W        W 7482   5.499   3.324   9.842
 3739W        W 7483   9.553   6.659   1.681
 3740W        W 7484   5.062   8.509  11.549
 3741W        W 7485   3.737  10.487  10.830
 3742W        W 7486   9.338   9.484   0.502
 3743W        W 7487   4.803   8.690   8.849
 3744W        W 7488   9.335  10.317  11.857
 3745W        W 7489   3.736   8.660   1.770
 3746W        W 7490  10.346   5.547   9.979
 3747W        W 7491   1.480   3.782   2.774
 3748W        W 7492   6.622   8.471   1.312
 3749W        W 7493   2.892   7.439   2.286
 3750W        W 7494   3.078   5.090  10.874
 3751W        W 7495   5.257   9.662   0.057
 3752W        W 7496   0.040   3.208   9.936
 3753W        W 7497   9.384   3.282   0.292
 3754W        W 7498   8.901   8.347   1.075
 3755W        W 7499   4.282   6.842   3.404
 3756W        W 7500   9.990   8.816   0.547
 3757W        W 7501   2.425   3.405   0.371
 3758W        W 7502   7.398   2.448   0.938
 3759W        W 7503   6.632   0.246   8.759
 3760W        W 7504   2.680   6.930   8.533
 3761W        W 7505   0.249   3.369   0.338
 3762W        W 7506   9.402   6.291   3.053
 3763W        W 7507   7.615   0.044   9.918
 3764W        W 7508   3.047   6.589   3.079
 3765W        W 7509   1.457   8.179   3.201
 3766W        W 7510   2.793   2.794   0.230
 3767W        W 7511   1.301   9.756   8.477
 3768W        W 7512   5.779   4.240   3.617
 3769W        W 7513   0.195   4.137   2.827
 3770W        W 7514   9.760   5.871  11.021
 3771W        W 7515   6.019  10.395   9.922
 3772W        W 7516   4.221   7.343   0.457
 3773W        W 7517   7.344   9.024   0.217
 3774W        W 7518  10.310   9.469   2.482
 3775W        W 7519   3.248   7.082  11.756
 3776W        W 7520   2.468   7.818  11.875
 3777W        W 7521   5.700   0.705  11.424
 3778W        W 7522   9.172   2.265   3.152
 3779W        W 7523   3.744   3.168  11.166
 3780W        W 7524   4.711   3.131   3.196
 3781W        W 7525   7.384   6.972   1.634
 3782W        W 7526   2.397   9.938   9.635
 3783W        W 7527   8.316   3.783  11.056
 3784W        W 7528   5.656   9.097   0.756
 3785W        W 7529   3.870   9.436   2.918
 3786W        W 7530   1.729   9.461  11.296
 3787W        W 7531   1.729   6.507   2.949
 3788W        W 7532   3.355   7.390   8.959
 3789W        W 7533   0.323   1.545   8.553
 3790W        W 7534   6.541   0.176  11.492
 3791W        W 7535   4.716   4.569  11.195
 3792W        W 7536   8.229   2.652   0.738
 3793W        W 7537   6.195   8.199   1.378
 3794W        W 7538   0.804   9.295  11.545
 3795W        W 7539   5.141   6.046   2.434
 3796W        W 7540   2.665   8.100  10.865
 3797W        W 7541   6.140   4.259   1.243
 3798W        W 7542   4.750   8.566  10.280
 3799W        W 7543   5.605   9.027  10.534
 3800W        W 7544   7.482   0.086  10.410
 3801W        W 7545   4.501   4.729  10.357
 3802W        W 7546   7.127   4.927   3.338
 3803W        W 7547   4.944   7.377   8.135
 3804W        W 7548   8.024   3.207   1.581
 3805W        W 7549   5.493  10.446   9.928
 3806W        W 7550   9.171   6.694   0.128
 3807W        W 7551   9.620   8.968   9.689
 3808W        W 7552   2.251   0.744   9.632
 3809W        W 7553   8.063   6.622  10.250
 3810W        W 7554   5.261   7.128   4.187
 3811W        W 7555   7.376   7.130  10.341
 3812W        W 7556   3.060   6.624  11.763
 3813W        W 7557   0.301   2.924   9.589
 3814W        W 7558   6.244   7.051   3.998
 3815W        W 7559   1.817   6.710   1.512
 3816W        W 7560   1.129   5.249   1.061
 3817W        W 7561   8.729   7.416   3.547
 3818W        W 7562   1.312   7.066  10.654
 3819W        W 7563   8.849  10.297   0.866
 3820W        W 7564   7.003   7.084   8.778
 3821W        W 7565   1.854   4.949   2.316
 3822W        W 7566   4.222   5.206  10.090
 3823W        W 7567   6.189   8.366   2.859
 3824W        W 7568   5.079   3.362   0.348
 3825W        W 7569   3.146   1.017   2.850
 3826W        W 7570  10.433   0.646   1.366
 3827W        W 7571   1.510   7.825   2.413
 3828W        W 7572   6.908   6.275   8.133
 3829W        W 7573   5.952   9.639  11.021
 3830W        W 7574   4.457   1.695   2.805
 3831W        W 7575   8.144   2.769   2.807
 3832W        W 7576   8.587   6.784   0.937
 3833W        W 7577   4.841   1.332   2.138
 3834W        W 7578   9.386  10.135   2.086
 3835W        W 7579   9.974  10.141   0.962
 3836W        W 7580   7.664   8.144   0.031
 3837W        W 7581   3.314   5.972   9.163
 3838W        W 7582   2.285   5.983  11.896
 3839W        W 7583   8.391   6.953  10.473
 3840W        W 7584   0.224   7.154   0.962
 3841W        W 7585   8.534   2.839   9.972
 3842W        W 7586   5.154   6.486   2.141
 3843W        W 7587   1.372   6.841   8.873
 3844W        W 7588   5.673   3.324   2.770
 3845W        W 7589   8.141   6.523   3.167
 3846W        W 7590   4.673   9.858  10.813
 3847W        W 7591   9.026   4.734   1.543
 3848W        W 7592   1.762   2.886   9.994
 3849W        W 7593   6.996   8.966   2.868
 3850W        W 7594   6.142   6.497  10.844
 3851W        W 7595   1.317   3.304   2.180
 3852W        W 7596   7.056   2.738  11.544
 3853W        W 7597   9.860  10.236  11.956
 3854W        W 7598   3.728   8.090   9.514
 3855W        W 7599   3.156   1.439   1.983
 3856W        W 7600   6.477   0.217   0.459
 3857W        W 7601   5.081   1.780  10.754
 3858W        W 7602   2.287   5.573  11.497
 3859W        W 7603   5.356   5.715   8.589
 3860W        W 7604   2.205   7.367   9.697
 3861W        W 7605   6.143   8.087  11.082
 3862W        W 7606   2.183   7.772   9.363
 3863W        W 7607   6.940   3.500   2.524
 3864W        W 7608   1.897   4.512   1.411
 3865W        W 7609   0.328   0.946   2.673
 3866W        W 7610   0.911   5.093   9.938
 3867W        W 7611   0.460   4.848  10.069
 3868W        W 7612   4.631   5.382  11.189
 3869W        W 7613   5.128   3.810   0.133
 3870W        W 7614   4.320   4.602  10.822
 3871W        W 7615   5.581   3.325   2.269
 3872W        W 7616   2.098   9.761  10.569
 3873W        W 7617   7.646   9.606   1.642
 3874W        W 7618   4.091   6.057   1.001
 3875W        W 7619  10.320   1.790  11.463
 3876W        W 7620   8.970   2.863   1.472
 3877W        W 7621   0.589   5.918   1.449
 3878W        W 7622   7.415   0.527   9.462
 3879W        W 7623   8.501   3.902   3.314
 3880W        W 7624   9.069   2.241  11.469
 3881W        W 7625   9.346   4.609  10.107
 3882W        W 7626   1.916   9.175   2.815
 3883W        W 7627   1.798   0.890   9.346
 3884W        W 7628   9.441   1.299  10.939
 3885W        W 7629   8.572   4.605  11.312
 3886W        W 7630   8.434   2.724   8.947
 3887W        W 7631   8.783   1.942   3.146
 3888W        W 7632   7.198   7.880   8.569
 3889W        W 7633   1.968   7.759   2.631
 3890W        W 7634   9.898   0.647   0.985
 3891W        W 7635   1.168   4.048   1.459
 3892W        W 7636   5.736   1.272  10.770
 3893W        W 7637   8.067   7.854  11.267
 3894W        W 7638   2.279   5.230   3.387
 3895W        W 7639   7.997   9.814   9.324
 3896W        W 7640   2.688   8.962  10.979
 3897W        W 7641   0.001   1.824  11.953
 3898W        W 7642   9.433   8.637   2.756
 3899W        W 7643   3.197   4.718   3.604
 3900W        W 7644   9.758   0.880  10.997
 3901W        W 7645   7.153   6.696  10.736
 3902W        W 7646   9.066   0.733   0.746
 3903W        W 7647   9.965   9.995  10.805
 3904W        W 7648   5.242   9.707  10.369
 3905W        W 7649   7.510   8.598   3.148
 3906W        W 7650   5.709   6.458   0.928
 3907W        W 7651   1.395   9.550  10.897
 3908W        W 7652   9.785   3.707   9.820
 3909W        W 7653   7.045   0.032   9.057
 3910W        W 7654   6.474   6.650  11.229
 3911W        W 7655   1.748   6.182  11.846
 3912W        W 7656   5.258   4.466  11.017
 3913W        W 7657   5.683   4.223   2.152
 3914W        W 7658   5.583   5.111   3.112
 3915W        W 7659   1.941   3.240   9.674
 3916W        W 7660   6.156   3.343  11.425
 3917W        W 7661   6.373   7.731   1.264
 3918W        W 7662   5.645   0.267   0.422
 3919W        W 7663   3.275   4.981   4.029
 3920W        W 7664   8.194   6.696   2.212
 3921W        W 7665   1.073   3.544   1.465
 3922W        W 7666   4.814   9.472   3.190
 3923W        W 7667  10.443   0.003  10.185
 3924W        W 7668   9.286   4.066   2.499
 3925W        W 7669   8.343   1.882   2.376
 3926W        W 7670   3.687   4.018   1.368
 3927W        W 7671   1.074   7.094   9.646
 3928W        W 7672   9.656   4.737  10.484
 3929W        W 7673   2.762   1.220   0.787
 3930W        W 7674   2.221   8.313  11.566
 3931W        W 7675   8.034   8.455  11.761
 3932W        W 7676   1.850  10.024   1.625
 3933W        W 7677   6.536   9.346  10.347
 3934W        W 7678   9.622   3.794  10.601
 3935W        W 7679  10.492   0.823  11.238
 3936W        W 7680   1.272   1.411   2.250
 3937W        W 7681   9.454   2.681   1.506
 3938W        W 7682   4.909  10.256   2.937
 3939W        W 7683   4.119   2.686   9.085
 3940W        W 7684   9.338  10.046   2.580
 3941W        W 7685   5.608   6.649   8.945
 3942W        W 7686   8.075   2.878  10.718
 3943W        W 7687   1.763   2.800  11.805
 3944W        W 7688   3.580   0.907   2.606
 3945W        W 7689   8.487   8.938  10.284
 3946W        W 7690   0.257   4.216   9.222
 3947W        W 7691   1.562   1.386   8.918
 3948W        W 7692   4.950   2.237  11.883
 3949W        W 7693   8.606   0.014  10.872
 3950W        W 7694   2.147   1.062  10.059
 3951W        W 7695   0.971   7.001   2.111
 3952W        W 7696   8.064   0.681   1.744
 3953W        W 7697   7.284   6.245  10.381
 3954W        W 7698   9.340   0.825   3.525
 3955W        W 7699  10.469   5.102   9.717
 3956W        W 7700   8.818   5.094  10.504
 3957W        W 7701   8.977   4.537   8.887
 3958W        W 7702   4.891   3.671   8.446
 3959W        W 7703   4.976   5.689   0.293
 3960W        W 7704   2.396   0.304   2.772
 3961W        W 7705   9.762   9.035   3.450
 3962W        W 7706  10.480   8.597  10.084
 3963W        W 7707   6.325  10.325   2.758
 3964W        W 7708   4.251   5.345  10.583
 3965W        W 7709   7.079   3.357  11.229
 3966W        W 7710   1.450   1.669   0.213
 3967W        W 7711   7.434   5.225   9.366
 3968W        W 7712   3.273   0.480   1.290
 3969W        W 7713   1.243   3.659   1.005
 3970W        W 7714   7.070   6.103   9.108
 3971W        W 7715   5.976   2.121   9.149
 3972W        W 7716   9.848   1.873   9.410
 3973W        W 7717   0.859   1.697   2.478
 3974W        W 7718   3.322   9.570  11.800
 3975W        W 7719   6.586   0.507   0.868
 3976W        W 7720   3.319   3.971   3.121
 3977W        W 7721   3.393   5.418   3.217
 3978W        W 7722   7.228   4.114  11.819
 3979W        W 7723   1.218   6.117  11.886
 3980W        W 7724   0.865   9.644   9.543
 3981W        W 7725   7.165   7.517   2.378
 3982W        W 7726   9.384   3.637   1.122
 3983W        W 7727   3.930   9.710   0.699
 3984W        W 7728   5.630   1.758   3.034
 3985W        W 7729   3.267   4.896   0.545
 3986W        W 7730   5.073   4.074  10.747
 3987W        W 7731   8.039   5.386   1.253
 3988W        W 7732   4.511   4.137   9.407
 3989W        W 7733   5.341   9.755  11.556
 3990W        W 7734   7.476   9.616  10.053
 3991W        W 7735   6.878   9.385  10.721
 3992W        W 7736   0.188   6.182   0.822
 3993W        W 7737   2.646   5.636   9.932
 3994W        W 7738   3.179   4.205   1.245
 3995W        W 7739  10.182   6.910   9.366
 3996W        W 7740   9.628   7.421   0.832
 3997W        W 7741   7.065   5.238   0.278
 3998W        W 7742   5.939   0.822   9.946
 3999W        W 7743   8.121   8.437   2.599
 4000W        W 7744   6.581   6.672   2.244
 4001W        W 7745   6.935   4.874   9.944
 4002W        W 7746   3.850   3.071   9.246
 4003W        W 7747   1.727   2.229  11.345
 4004W        W 7748   6.842  10.308   2.538
 4005W        W 7749   1.393  10.370  10.264
 4006W        W 7750   5.955   4.742  10.336
 4007W        W 7751   4.954   7.876   8.272
 4008W        W 7752   8.426   3.610   8.463
 4009W        W 7753  10.335   0.906   8.711
 4010W        W 7754   8.955   2.488   1.839
 4011W        W 7755   2.896   4.582   4.106
 4012W        W 7756   4.678   6.472   2.312
 4013W        W 7757   5.050   7.141   1.338
 4014W        W 7758   0.697   6.169   0.914
 4015W        W 7759   9.547   0.063   0.266
 4016W        W 7760   2.907   3.715  10.531
 4017W        W 7761   3.236   8.323  11.523
 4018W        W 7762   7.881   2.421  10.502
 4019W        W 7763   0.853   1.366   0.916
 4020W        W 7764   9.506   1.838   0.939
 4021W        W 7765   7.189   2.642   2.569
 4022W        W 7766   1.454   8.439   1.064
 4023W        W 7767   3.047   2.520   0.600
 4024W        W 7768   7.561   6.102   2.740
 4025W        W 7769   5.643   1.151   1.278
 4026W        W 7770   7.024   9.649   0.824
 4027W        W 7771   9.546   7.187  10.075
 4028W        W 7772   5.969   6.734   4.299
 4029W        W 7773   4.603   3.222  10.818
 4030W        W 7774  10.067   1.004   1.408
 4031W        W 7775   0.394   8.935   1.588
 4032W        W 7776   2.708   7.918   1.229
 4033W        W 7777  10.382   8.511   0.738
 4034W        W 7778   9.959   5.452   1.776
 4035W        W 7779   6.660   5.293  11.979
 4036W        W 7780   5.072   7.885  10.279
 4037W        W 7781   9.944   4.961  10.890
 4038W        W 7782   9.852   1.447  10.195
 4039W        W 7783   4.241   4.433   9.080
 4040W        W 7784   5.600   9.494  10.712
 4041W        W 7785   4.501   6.001   0.706
 4042W        W 7786   7.643   5.531   3.983
 4043W        W 7787   2.159   0.383   9.985
 4044W        W 7788   6.466  10.015   2.387
 4045W        W 7789   5.240   9.435   0.658
 4046W        W 7790   9.665   9.812  11.207
 4047W        W 7791   7.942   0.293  10.552
 4048W        W 7792   0.815   7.906  11.495
 4049W        W 7793  10.347  10.301   1.914
 4050W        W 7794   5.702   3.584  10.921
 4051W        W 7795   2.302   5.060  11.636
 4052W        W 7796  10.072   5.722   2.196
 4053W        W 7797   4.698   2.761   9.807
 4054W        W 7798   6.048   7.209   3.552
 4055W        W 7799   7.611   6.672  10.482
 4056W        W 7800   1.659   8.557  11.529
 4057W        W 7801   5.978   7.136   1.884
 4058W        W 7802   8.781   1.654   3.552
 4059W        W 7803   4.502   7.946   8.501
 4060W        W 7804   8.434   6.194   9.132
 4061W        W 7805   3.396   4.632   8.664
 4062W        W 7806   8.375   9.263   0.055
 4063W        W 7807   1.339   6.341   2.649
 4064W        W 7808  10.187   4.206   2.883
 4065W        W 7809   7.464   5.835   0.811
 4066W        W 7810  10.480   1.732   2.514
 4067W        W 7811   2.926   2.055   9.476
 4068W        W 7812   0.050   1.581   1.803
 4069W        W 7813   4.061   6.918  10.307
 4070W        W 7814   6.745   4.589   3.263
 4071W        W 7815   7.183   2.669   1.371
 4072W        W 7816   4.872   2.812   2.322
 4073W        W 7817   4.882   9.524   2.684
 4074W        W 7818   5.141   4.679  11.482
 4075W        W 7819   8.982   0.440   1.431
 4076W        W 7820   4.005   7.538   3.033
 4077W        W 7821   1.805   3.258   1.983
 4078W        W 7822   1.541   9.541   2.964
 4079W        W 7823   7.097   7.877  11.467
 4080W        W 7824   1.265   4.253   0.437
 4081W        W 7825   9.376   8.564   8.991
 4082W        W 7826   0.822   3.849  11.777
 4083W        W 7827   0.726   7.102   0.745
 4084W        W 7828   3.335   8.865   3.275
 4085W        W 7829   9.518  10.278   3.384
 4086W        W 7830   1.197   2.875   0.534
 4087W        W 7831   6.931   9.963  11.365
 4088W        W 7832   2.346   3.838   2.778
 4089W        W 7833   4.932   4.237   0.918
 4090W        W 7834   4.641   4.946   9.901
 4091W        W 7835   2.746   1.140   3.204
 4092W        W 7836   8.996   8.430   2.583
 4093W        W 7837   3.308   2.379  10.122
 4094W        W 7838   1.806   6.277  11.310
 4095W        W 7839   4.632   7.619  10.271
 4096W        W 7840   6.481   3.029  10.508
 4097W        W 7841   7.344   1.034   9.428
 4098W        W 7842   7.066   7.451   9.393
 4099W        W 7843   4.080  10.099   0.349
 4100W        W 7844   8.383   1.984  10.972
 4101W        W 7845   5.665   1.142   0.734
 4102W        W 7846   8.180   6.633   1.623
 4103W        W 7847   9.407   3.113  11.261
 4104W        W 7848   0.287   7.807   0.253
 4105W        W 7849   0.295   1.865   8.947
 4106W        W 7850   4.469   1.027  10.986
 4107W        W 7851   7.477   2.748   1.810
 4108W        W 7852   8.339   0.921   9.228
 4109W        W 7853   4.686   3.022   0.107
 4110W        W 7854   5.870   2.391   0.045
 4111W        W 7855   7.373   5.021  11.365
 4112W        W 7856   7.454   3.265   1.889
 4113W        W 7857   1.224   7.448   2.187
 4114W        W 7858   4.167   0.785  10.398
 4115W        W 7859   6.738   1.464  11.944
 4116W        W 7860   2.615   3.867  11.411
 4117W        W 7861   6.949   0.973   0.269
 4118W        W 7862   1.438   8.661  10.523
 4119W        W 7863   8.319   9.826  10.214
 4120W        W 7864   8.039   6.016   0.005
 4121W        W 7865   1.898   8.539  11.074
 4122W        W 7866   9.770   9.845   9.822
 4123W        W 7867   3.779   1.826   9.038
 4124W        W 7868   4.444   8.093   0.083
 4125W        W 7869   5.203   9.461   1.160
 4126W        W 7870   1.349  10.324   9.762
 4127W        W 7871   6.532   3.672   3.216
 4128W        W 7872   2.811   8.546  10.642
 4129W        W 7873   5.532   6.408  11.121
 4130W        W 7874   7.044   8.660   1.112
 4131W        W 7875   5.139   8.959   0.875
 4132W        W 7876  10.177  10.283   1.417
 4133W        W 7877   1.393   9.092   2.709
 4134W        W 7878   4.637   5.451   1.844
 4135W        W 7879   1.272   8.470   8.739
 4136W        W 7880   4.483  10.445  11.417
 4137W        W 7881  10.392   3.652   2.129
 4138W        W 7882   8.068   7.501   9.588
 4139W        W 7883   4.041   6.817  11.524
 4140W        W 7884   7.432   7.607   3.231
 4141W        W 7885  10.059   6.852   2.446
 4142W        W 7886   2.829   4.557  10.469
 4143W        W 7887   6.107   0.188  11.760
 4144W        W 7888   0.469   0.433   2.448
 4145W        W 7889   2.772   5.520   0.755
 4146W        W 7890   4.593  10.351  10.538
 4147W        W 7891   6.086   0.342   8.824
 4148W        W 7892   5.610  10.386   1.444
 4149W        W 7893   6.918   3.794  10.045
 4150W        W 7894   2.816   8.894   2.803
 4151W        W 7895   7.569   5.267   1.387
 4152W        W 7896   2.308   5.646   0.506
 4153W        W 7897   9.347   7.588  11.050
 4154W        W 7898   7.428   9.069   2.422
 4155W        W 7899   8.656   2.415  11.873
 4156W        W 7900   8.809   6.126   9.930
 4157W        W 7901   8.970  10.046   1.768
 4158W        W 7902   3.743   8.095  10.463
 4159W        W 7903   3.283   2.169   0.898
 4160W        W 7904   0.027   2.903   0.805
 4161W        W 7905   0.735   2.929   1.476
 4162W        W 7906   4.155   8.847   9.421
 4163W        W 7907   3.624   8.064   9.018
 4164W        W 7908   1.667   2.233   2.338
 4165W        W 7909   0.308   6.026   3.198
 4166W        W 7910   4.781  10.352  10.998
 4167W        W 7911   0.265   6.067   2.678
 4168W        W 7912   0.854   5.573   9.738
 4169W        W 7913   5.071   6.513   2.645
 4170W        W 7914   1.824   9.938   9.350
 4171W        W 7915   8.016   8.833   9.569
 4172W        W 7916   5.133   1.295  10.011
 4173W        W 7917   4.786   2.035   0.987
 4174W        W 7918   6.631   4.247   2.310
 4175W        W 7919   2.755   0.690   1.486
 4176W        W 7920   3.253   8.620   2.825
 4177W        W 7921   6.127   0.447  11.290
 4178W        W 7922   7.767   0.417  11.008
 4179W        W 7923   2.531   6.964   0.843
 4180W        W 7924  10.009   5.517   8.911
 4181W        W 7925   8.106   3.036  11.707
 4182W        W 7926   5.471   0.797   2.510
 4183W        W 7927   5.554   7.300   0.664
 4184W        W 7928   2.228   8.617   2.811
 4185W        W 7929   3.295   3.705   1.190
 4186W        W 7930   7.240   3.875   8.966
 4187W        W 7931   2.786   8.498   9.687
 4188W        W 7932   6.076   3.846  10.688
 4189W        W 7933   7.656   4.226   3.523
 4190W        W 7934   2.441   4.777   3.139
 4191W        W 7935   0.334   1.239  11.261
 4192W        W 7936   8.013   7.401  11.036
 4193W        W 7937   6.510   5.836  10.384
 4194W        W 7938   0.281   9.532  10.070
 4195W        W 7939   5.041   6.649  11.245
 4196W        W 7940   2.160   6.062   2.807
 4197W        W 7941   9.238   9.036   0.940
 4198W        W 7942   0.059   3.766   9.422
 4199W        W 7943   2.217   3.321   2.336
 4200W        W 7944   7.075   1.111   3.345
 4201W        W 7945   3.193   7.684   2.717
 4202W        W 7946   9.436   5.053   2.322
 4203W        W 7947   8.706   1.768  10.612
 4204W        W 7948   3.176   5.585  11.003
 4205W        W 7949   1.796   0.306   2.586
 4206W        W 7950  10.010   2.787   2.254
 4207W        W 7951   6.746   4.838   1.304
 4208W        W 7952   3.033   8.798  11.462
 4209W        W 7953   8.803   8.911  11.473
 4210W        W 7954   2.154   8.983  10.933
 4211W        W 7955   5.871   7.673   0.557
 4212W        W 7956   8.481   8.129   3.098
 4213W        W 7957   3.630   5.628   0.315
 4214W        W 7958   4.976   6.884   0.865
 4215W        W 7959   2.296   9.374   1.649
 4216W        W 7960   2.579   2.387  11.424
 4217W        W 7961   2.861   5.094   9.851
 4218W        W 7962   8.017   2.365   9.543
 4219W        W 7963   6.711   2.317   9.769
 4220W        W 7964   0.983   8.353   3.253
 4221W        W 7965   8.900   4.637   9.833
 4222W        W 7966   1.931   6.516   0.580
 4223W        W 7967   3.425   8.191   1.858
 4224W        W 7968   4.277  10.279   1.851
 4225W        W 7969   3.368   5.757  10.554
 4226W        W 7970   6.045   1.691  10.283
 4227W        W 7971   1.384   3.711   1.852
 4228W        W 7972   3.425   9.582   0.672
 4229W        W 7973   7.115   6.560   3.294
 4230W        W 7974   5.411   2.022   1.701
 4231W        W 7975   2.113   4.663   0.529
 4232W        W 7976   4.915   1.410   3.434
 4233W        W 7977   9.254   8.508  10.409
 4234W        W 7978   8.559   8.075   1.524
 4235W        W 7979   3.770   3.204   1.872
 4236W        W 7980   0.256   6.470   9.419
 4237W        W 7981   6.006   1.726  10.775
 4238W        W 7982   3.706   4.898   3.123
 4239W        W 7983   2.110   1.324   0.192
 4240W        W 7984   2.746   2.364  10.769
 4241W        W 7985   7.969   1.341   0.483
 4242W        W 7986   6.975   4.189   0.268
 4243W        W 7987   5.631   0.470  11.914
 4244W        W 7988   2.285   6.701   1.295
 4245W        W 7989   9.787   9.275   0.351
 4246W        W 7990   4.080   8.995  10.781
 4247W        W 7991   7.184   1.840   2.962
 4248W        W 7992   7.002   8.406   9.265
 4249W        W 7993   8.856   4.052  11.401
 4250W        W 7994   2.232   4.443  10.313
 4251W        W 7995  10.038   5.539   0.883
 4252W        W 7996   6.928   7.133   1.466
 4253W        W 7997   3.091   5.010   9.374
 4254W        W 7998   8.067   8.904   2.822
 4255W        W 7999   9.210   0.566   2.323
 4256W        W 8000   5.690   0.399   9.203
 4257W        W 8001   2.698   3.587   9.127
 4258W        W 8002   8.954   1.464  10.229
 4259W        W 8003   0.660   9.267   2.749
 4260W        W 8004   7.829   5.040   3.263
 4261W        W 8005   0.776   1.887   1.263
 4262W        W 8006   6.641   8.574   3.224
 4263W        W 8007   7.454   3.442   2.410
 4264W        W 8008  10.481   5.572   0.211
 4265W        W 8009   4.729   5.466   1.345
 4266W        W 8010   3.170   5.109  11.903
 4267W        W 8011   3.260   0.498   9.560
 4268W        W 8012   7.625   4.752  10.327
 4269W        W 8013   4.359   4.916  11.287
 4270W        W 8014   1.580   8.838  10.059
 4271W        W 8015   6.005   6.612  10.336
 4272W        W 8016   4.301   1.762  10.645
 4273W        W 8017   8.488   6.672  10.945
 4274W        W 8018   0.304   8.632  11.977
 4275W        W 8019   7.390  10.487   0.986
 4276W        W 8020   6.545   9.865   9.242
 4277W        W 8021   7.218   0.924   9.975
 4278W        W 8022   6.252   2.861   2.326
 4279W        W 8023   3.718   8.227   0.267
 4280W        W 8024   8.410   3.217   9.210
 4281W        W 8025  10.444   0.308   2.651
 4282W        W 8026   4.015   4.274   9.541
 4283W        W 8027   4.181   3.537   1.729
 4284W        W 8028   6.759   3.717   9.042
 4285W        W 8029   9.602   7.602  11.866
 4286W        W 8030   3.845   2.812   2.261
 4287W        W 8031   0.535   9.300   1.252
 4288W        W 8032   6.259   3.231   3.254
 4289W        W 8033   9.868   4.261  10.513
 4290W        W 8034   7.719   2.737  11.879
 4291W        W 8035   3.597   6.896   2.293
 4292W        W 8036   1.241   8.762   1.851
 4293W        W 8037   4.176   3.967   1.480
 4294W        W 8038   4.062   9.924   2.872
 4295W        W 8039   2.623   5.942  10.835
 4296W        W 8040   8.387   0.581   2.734
 4297W        W 8041   5.680   0.331   1.707
 4298W        W 8042   0.999   7.478  10.774
 4299W        W 8043   6.661   0.477   3.099
 4300W        W 8044   6.124   8.144   3.665
 4301W        W 8045   2.858   8.780   0.794
 4302W        W 8046   2.296   7.696   3.533
 4303W        W 8047   5.972   7.212   0.370
 4304W        W 8048   6.692   9.651   3.422
 4305W        W 8049   4.275   9.937  10.490
 4306W        W 8050   9.407   7.815   8.999
 4307W        W 8051   4.203   3.099  11.744
 4308W        W 8052   6.465   4.063   1.840
 4309W        W 8053   6.237   7.923  11.605
 4310W        W 8054   3.253   0.196   3.216
 4311W        W 8055   4.231   8.116  11.298
 4312W        W 8056   1.340   5.796  10.474
 4313W        W 8057   5.837   1.880   1.417
 4314W        W 8058   2.124   5.145  10.757
 4315W        W 8059   7.949   2.291   0.446
 4316W        W 8060   5.698   9.319   3.582
 4317W        W 8061   8.507   2.733   1.693
 4318W        W 8062   4.130  10.422  11.938
 4319W        W 8063   8.766   6.585  11.783
 4320W        W 8064   6.926   0.441   0.278
 4321W        W 8065   0.363   1.452   2.697
 4322W        W 8066   0.213   6.003   8.975
 4323W        W 8067   2.789   0.337   1.073
 4324W        W 8068   3.878   3.895   0.502
 4325W        W 8069   2.961   7.912  11.706
 4326W        W 8070   3.974   8.303  10.037
 4327W        W 8071   2.744   6.877  10.741
 4328W        W 8072   4.083   0.073   9.956
 4329W        W 8073   3.778   9.570   9.013
 4330W        W 8074   2.781   8.031   0.199
 4331W        W 8075   4.672   2.027   9.509
 4332W        W 8076   6.004   4.996   0.947
 4333W        W 8077   2.660   6.608  11.425
 4334W        W 8078   6.614   0.236   2.624
 4335W        W 8079   2.689   2.282   9.068
 4336W        W 8080   0.406   1.691   2.194
 4337W        W 8081   9.823   7.954   0.185
 4338W        W 8082   2.601   8.030  11.374
 4339W        W 8083   9.930   7.993   3.216
 4340W        W 8084   4.449   2.382  11.045
 4341W        W 8085  10.387   8.942   1.749
 4342W        W 8086   2.771   5.883   3.896
 4343W        W 8087   8.852   8.756   0.763
 4344W        W 8088   4.082   7.994   2.822
 4345W        W 8089   5.698   6.247   1.908
 4346W        W 8090  10.473   6.555  10.142
 4347W        W 8091   9.883   3.711   2.155
 4348W        W 8092   3.850   5.077   9.776
 4349W        W 8093   0.804   4.180   9.044
 4350W        W 8094   3.299   8.936   1.929
 4351W        W 8095   8.551   6.699   8.968
 4352W        W 8096   9.424   9.381  11.015
 4353W        W 8097   6.035  10.011   0.359
 4354W        W 8098   3.181  10.455  11.890
 4355W        W 8099   9.772   7.452   8.896
 4356W        W 8100   6.050   9.321   9.159
 4357W        W 8101   1.949   1.777   0.035
 4358W        W 8102   2.542   8.558   1.850
 4359W        W 8103   7.603   5.667  10.337
 4360W        W 8104   5.149   5.237  10.064
 4361W        W 8105  10.322   0.933   0.945
 4362W        W 8106   8.087   3.165   0.701
 4363W        W 8107   9.119   8.607   0.305
 4364W        W 8108   3.613   4.238   2.735
 4365W        W 8109   0.542   1.325   1.354
 4366W        W 8110   0.987   6.189  10.350
 4367W        W 8111   9.347   4.937  11.405
 4368W        W 8112   0.835   9.634   1.831
 4369W        W 8113   0.276   9.982   3.167
 4370W        W 8114   2.754   4.734  11.737
 4371W        W 8115   5.252   7.675   0.485
 4372W        W 8116   9.359   9.547   1.018
 4373W        W 8117   2.788   3.642   9.621
 4374W        W 8118   1.739   2.944   1.229
 4375W        W 8119   1.368   2.685   0.997
 4376W        W 8120   4.653   0.085   9.037
 4377W        W 8121   9.828   3.551   0.232
 4378W        W 8122   2.806   7.231   1.807
 4379W        W 8123   1.160   2.841  11.217
 4380W        W 8124   1.842   9.542   1.473
 4381W        W 8125   7.613   2.311   1.385
 4382W        W 8126   4.944   2.233  10.973
 4383W        W 8127  10.236   8.036   0.918
 4384W        W 8128   8.349   7.112   3.625
 4385W        W 8129   5.919   3.950   0.261
 4386W        W 8130   7.495   8.455   0.964
 4387W        W 8131   3.698   4.533   3.574
 4388W        W 8132   9.015   5.507  10.777
 4389W        W 8133   0.548   5.766  11.535
 4390W        W 8134   6.096   2.863   0.166
 4391W        W 8135   1.633   4.144  10.276
 4392W        W 8136   4.356   2.186   1.889
 4393W        W 8137   3.390  10.068   9.532
 4394W        W 8138   3.832   2.639   1.412
 4395W        W 8139   9.687   0.181  11.754
 4396W        W 8140   9.865   8.859   2.985
 4397W        W 8141   5.471   7.257   1.979
 4398W        W 8142   2.118   3.949  10.227
 4399W        W 8143   7.980   5.615   0.341
 4400W        W 8144   2.340   7.878  10.555
 4401W        W 8145   2.303   5.536  10.454
 4402W        W 8146   8.591   5.781   2.202
 4403W        W 8147   4.918   0.700   3.169
 4404W        W 8148   0.492   2.147   3.102
 4405W        W 8149   8.185   4.729   0.680
 4406W        W 8150   3.671   1.442   1.999
 4407W        W 8151   0.853   0.114   3.428
 4408W        W 8152   8.113   8.506   2.106
 4409W        W 8153   2.819   4.517   2.401
 4410W        W 8154   0.747   3.114   0.290
 4411W        W 8155   2.851   3.808   2.836
 4412W        W 8156   9.493   9.032   2.322
 4413W        W 8157   8.683   6.743   2.350
 4414W        W 8158   6.438   4.134   9.207
 4415W        W 8159   7.214   9.203   8.733
 4416W        W 8160   9.877   5.058   9.609
 4417W        W 8161   3.206   0.002   2.726
 4418W        W 8162   6.896   5.517   2.539
 4419W        W 8163   3.579   1.338   2.945
 4420W        W 8164   3.848   9.043   9.033
 4421W        W 8165   7.000   3.128   1.699
 4422W        W 8166   0.812   8.931   9.889
 4423W        W 8167   3.401   3.117  11.523
 4424W        W 8168   4.015   7.521   1.771
 4425W        W 8169   0.332   6.602   1.818
 4426W        W 8170   9.392   4.403  11.362
 4427W        W 8171   3.188   5.395   0.443
 4428W        W 8172   6.224   3.962   3.529
 4429W        W 8173   4.713   7.082   0.129
 4430W        W 8174   4.718   3.507  11.958
 4431W        W 8175   5.632   1.755   9.007
 4432W        W 8176   8.859   4.777   3.385
 4433W        W 8177   1.388   5.223   9.816
 4434W        W 8178   8.368   3.266   9.731
 4435W        W 8179   7.956   9.139  11.063
 4436W        W 8180   0.792   1.223   2.823
 4437W        W 8181   3.241   8.801   9.263
 4438W        W 8182   7.547   2.018   0.673
 4439W        W 8183   7.545   8.257   8.533
 4440W        W 8184   7.427   7.894   0.425
 4441W        W 8185   8.507   6.445  10.443
 4442W        W 8186   0.680   6.844   9.420
 4443W        W 8187   5.640   5.071   9.331
 4444W        W 8188   5.966   1.285   3.237
 4445W        W 8189   5.093   0.818   8.717
 4446W        W 8190   5.611   0.009   3.465
 4447W        W 8191   5.930   7.317   0.992
 4448W        W 8192   1.262   9.915   1.793
 4449W        W 8193   6.920   5.187   2.934
 4450W        W 8194   7.937   9.736   9.842
 4451W        W 8195   6.403   6.967   0.513
 4452W        W 8196   9.444   9.962   8.960
 4453W        W 8197   9.801   4.682  11.422
 4454W        W 8198   5.938   2.794   3.309
 4455W        W 8199   4.637  10.090   8.891
 4456W        W 8200   4.400   3.640   8.628
 4457W        W 8201   8.945   6.575   3.139
 4458W        W 8202   4.687   6.896   2.642
 4459W        W 8203   2.699   7.497   3.287
 4460W        W 8204   5.643   0.790   0.335
 4461W        W 8205   3.302   5.967   4.061
 4462W        W 8206   9.694   5.698   1.390
 4463W        W 8207   1.771   4.624  10.208
 4464W        W 8208   9.169   9.810  11.150
 4465W        W 8209   7.937   8.962   2.306
 4466W        W 8210   6.985   2.176   9.319
 4467W        W 8211   4.788   1.778   0.494
 4468W        W 8212   4.805   7.323   2.944
 4469W        W 8213   1.398   1.259   9.392
 4470W        W 8214   9.871   0.017   1.738
 4471W        W 8215  10.248   5.086   8.727
 4472W        W 8216   7.628   6.588   9.551
 4473W        W 8217   2.195   2.229   0.121
 4474W        W 8218   8.473   2.904   0.338
 4475W        W 8219   8.311   6.541   0.578
 4476W        W 8220   5.612   5.675   2.742
 4477W        W 8221   5.176   4.364  10.348
 4478W        W 8222   6.396   2.220   8.849
 4479W        W 8223   3.275   9.108   0.780
 4480W        W 8224   4.330   3.395  10.394
 4481W        W 8225   4.877   1.539   1.197
 4482W        W 8226   7.541   1.847  11.802
 4483W        W 8227   8.086   3.986   3.611
 4484W        W 8228   3.632   2.721   9.534
 4485W        W 8229   2.782   4.327  11.447
 4486W        W 8230   9.380   1.846   9.143
 4487W        W 8231   3.399   4.444   4.000
 4488W        W 8232   9.262   3.270  10.364
 4489W        W 8233   7.757   3.219  10.977
 4490W        W 8234   1.376   5.574   1.969
 4491W        W 8235   1.856   8.180   2.274
 4492W        W 8236   7.912   3.692  10.792
 4493W        W 8237   5.295   4.679   2.662
 4494W        W 8238   1.864   7.092   0.040
 4495W        W 8239   6.930   1.302   1.259
 4496W        W 8240   5.434   7.413  11.674
 4497W        W 8241   1.739   4.621   9.184
 4498W        W 8242   8.638   4.197  10.025
 4499W        W 8243   5.158   8.010  11.351
 4500W        W 8244  10.205   6.683   2.948
 4501W        W 8245   4.708  10.234   1.201
 4502W        W 8246  10.251   7.280   2.159
 4503W        W 8247   4.625   3.259   0.565
 4504W        W 8248   1.841   4.728   2.805
 4505W        W 8249   0.265   7.472   3.257
 4506W        W 8250   3.947   9.919  11.887
 4507W        W 8251   8.099   8.258   1.662
 4508W        W 8252   9.395   7.131   8.695
 4509W        W 8253   3.180   0.919   9.273
 4510W        W 8254   1.974   3.276   0.551
 4511W        W 8255   5.905   2.114   9.652
 4512W        W 8256   5.226   7.532   8.551
 4513W        W 8257   6.784   8.888  11.456
 4514W        W 8258   9.136   3.188   3.368
 4515W        W 8259  10.100   2.220   1.117
 4516W        W 8260   1.326   7.116   0.878
 4517W        W 8261   8.573   2.203   8.747
 4518W        W 8262   7.308   2.235   1.777
 4519W        W 8263   8.529   0.236   1.279
 4520W        W 8264  10.328   0.854   9.203
 4521W        W 8265   0.551   2.979   3.648
 4522W        W 8266   9.788   6.613   3.291
 4523W        W 8267   3.852   5.681   2.703
 4524W        W 8268   8.476  10.239   1.812
 4525W        W 8269   8.633   4.164  10.939
 4526W        W 8270   4.151   9.895   8.859
 4527W        W 8271   1.170   2.325   2.236
 4528W        W 8272   6.920   7.593   8.915
 4529W        W 8273   1.437   3.129   9.576
 4530W        W 8274   2.803  10.412  11.070
 4531W        W 8275   8.242   5.971  10.439
 4532W        W 8276   6.688   1.549   1.691
 4533W        W 8277   3.804   8.616  10.434
 4534W        W 8278   4.380   0.013   0.823
 4535W        W 8279   2.460   7.652  11.012
 4536W        W 8280   3.271   3.026   2.834
 4537W        W 8281   1.756   0.221   2.072
 4538W        W 8282   8.481   6.317   8.599
 4539W        W 8283   7.503   2.162   0.196
 4540W        W 8284   6.936   7.438  11.718
 4541W        W 8285   3.278   6.492   9.981
 4542W        W 8286   6.053   3.786  11.732
 4543W        W 8287   2.103   4.788  11.141
 4544W        W 8288   2.418   5.083   1.926
 4545W        W 8289   3.281   7.872  10.370
 4546W        W 8290   0.727   7.889   0.530
 4547W        W 8291  10.241   6.975  10.315
 4548W        W 8292   2.020   5.031   9.469
 4549W        W 8293   4.642   5.048   1.094
 4550W        W 8294   2.316   0.703  11.519
 4551W        W 8295   4.061   9.083   2.576
 4552W        W 8296   7.151   9.324   9.769
 4553W        W 8297   9.917   6.122   3.395
 4554W        W 8298   9.682  10.453   9.075
 4555W        W 8299   7.430   7.433   8.942
 4556W        W 8300   5.712   4.158  11.840
 4557W        W 8301   6.595   7.594   3.173
 4558W        W 8302  10.098   5.619  11.306
 4559W        W 8303   8.971   8.892   2.831
 4560W        W 8304   2.393   3.672  10.578
 4561W        W 8305   5.657   0.309   2.248
 4562W        W 8306   0.239  10.433  11.710
 4563W        W 8307  10.330   1.764   3.437
 4564W        W 8308   0.310   0.128   0.698
 4565W        W 8309   3.307   3.810   1.685
 4566W        W 8310   7.132   9.022  10.453
 4567W        W 8311   7.368   7.149   1.141
 4568W        W 8312   4.571   6.217   2.736
 4569W        W 8313   8.675   6.972  11.384
 4570W        W 8314   5.970   8.603  11.027
 4571W        W 8315   1.252   3.169   1.146
 4572W        W 8316   8.220   9.419   2.235
 4573W        W 8317   6.478   4.071   0.339
 4574W        W 8318   3.172   9.835   1.909
 4575W        W 8319   2.637   7.687   9.064
 4576W        W 8320   0.717   4.346  11.715
 4577W        W 8321   4.234   9.088  11.590
 4578W        W 8322   7.943   7.540   9.076
 4579W        W 8323   3.308   1.256  11.970
 4580W        W 8324   8.090   6.696   8.734
 4581W        W 8325   3.554   1.431  11.546
 4582W        W 8326   3.920   9.618  10.290
 4583W        W 8327   1.674   2.759  11.297
 4584W        W 8328   5.365   9.564   2.505
 4585W        W 8329   9.201  10.305   9.254
 4586W        W 8330   7.279   8.490   0.283
 4587W        W 8331   8.047  10.106   0.855
 4588W        W 8332   9.510   2.808  10.383
 4589W        W 8333   5.187   0.337  10.096
 4590W        W 8334   7.344   8.509   2.273
 4591W        W 8335   7.152   5.040   2.500
 4592W        W 8336   3.124  10.450  10.454
 4593W        W 8337   2.439   3.289   9.784
 4594W        W 8338   2.440   5.575   2.792
 4595W        W 8339   7.867   5.504   3.531
 4596W        W 8340  10.253   6.540   3.471
 4597W        W 8341   7.813   8.791  11.440
 4598W        W 8342   7.865   3.152   2.611
 4599W        W 8343   2.312   0.234   0.358
 4600W        W 8344   0.812   3.987   0.671
 4601W        W 8345   3.862   4.083  10.016
 4602W        W 8346   1.357   6.509  11.550
 4603W        W 8347   6.679   2.308   1.229
 4604W        W 8348   1.234   1.541  11.695
 4605W        W 8349   2.200   9.980   3.474
 4606W        W 8350   9.509   7.046   0.473
 4607W        W 8351   1.342   2.341   1.758
 4608W        W 8352  10.297   9.228   0.407
 4609W        W 8353   0.161   1.769   3.047
 4610W        W 8354   4.661   3.601  11.467
 4611W        W 8355   5.091   1.755   9.756
 4612W        W 8356   7.697   3.591   1.582
 4613W        W 8357   1.159   0.572  11.917
 4614W        W 8358   5.404   7.960   9.113
 4615W        W 8359   9.509   2.292   8.927
 4616W        W 8360   2.207   6.733   3.550
 4617W        W 8361   2.731   7.061  11.642
 4618W        W 8362   6.103   6.576   2.398
 4619W        W 8363   4.447   4.374   0.189
 4620W        W 8364   6.894   0.662   2.590
 4621W        W 8365   5.242   3.021   1.609
 4622W        W 8366   1.335   2.387   2.746
 4623W        W 8367   0.156   5.194   0.537
 4624W        W 8368   6.994   2.678   9.513
 4625W        W 8369   3.608   6.398   3.092
 4626W        W 8370   0.071   7.955   9.433
 4627W        W 8371   1.438   8.878   1.391
 4628W        W 8372   1.670   4.058   0.177
 4629W        W 8373   6.702   7.513  10.751
 4630W        W 8374  10.087   2.663   8.890
 4631W        W 8375   9.893  10.104   8.720
 4632W        W 8376   8.974   9.626  10.316
 4633W        W 8377   3.688   3.127   0.963
 4634W        W 8378   0.867   4.087   9.930
 4635W        W 8379   2.323   4.296  11.225
 4636W        W 8380   1.902   6.383   1.112
 4637W        W 8381   9.077   5.031   1.951
 4638W        W 8382   0.745   1.366  11.554
 4639W        W 8383   3.362   9.245   9.055
 4640W        W 8384   5.422   7.582  11.194
 4641W        W 8385   6.990   2.367  11.181
 4642W        W 8386   5.423   8.539   2.424
 4643W        W 8387   9.329  10.281  11.321
 4644W        W 8388   3.804   1.369   2.479
 4645W        W 8389   5.337   3.609   8.163
 4646W        W 8390   6.465   9.532   2.376
 4647W        W 8391   2.831   3.242   2.125
 4648W        W 8392   5.729   8.809   3.557
 4649W        W 8393   8.551   6.081  11.328
 4650W        W 8394   1.016   1.355   0.412
 4651W        W 8395  10.479   9.603   0.108
 4652W        W 8396   0.203   1.100  10.266
 4653W        W 8397   3.950   6.621   1.991
 4654W        W 8398   3.419   5.182   1.933
 4655W        W 8399   2.747   7.202  10.324
 4656W        W 8400   6.263   1.731   1.126
 4657W        W 8401   6.658   9.100   3.306
 4658W        W 8402   4.101   9.170   0.179
 4659W        W 8403   2.345   1.242   9.589
 4660W        W 8404   4.292   0.338  11.695
 4661W        W 8405   7.425   4.953   4.048
 4662W        W 8406   7.777  10.274   9.121
 4663W        W 8407   0.670   6.796   0.324
 4664W        W 8408   8.054   6.132  11.507
 4665W        W 8409   6.248   7.051  11.992
 4666W        W 8410   7.184   1.405  10.286
 4667W        W 8411   0.816   2.610   0.331
 4668W        W 8412   0.929   4.807  10.449
 4669W        W 8413   9.417   8.976  10.655
 4670W        W 8414   6.045   2.881  11.243
 4671W        W 8415   3.185   1.895   2.667
 4672W        W 8416   6.435   5.467  11.291
 4673W        W 8417   3.900   3.159  10.277
 4674W        W 8418   2.860   8.279   0.902
 4675W        W 8419   4.537   3.171   8.444
 4676W        W 8420   4.572   4.076   8.392
 4677W        W 8421   7.973   6.064  11.000
 4678W        W 8422   8.230   7.451  11.899
 4679W        W 8423   8.155   1.173   9.646
 4680W        W 8424   9.371   6.302   2.477
 4681W        W 8425   7.440   3.580   9.373
 4682W        W 8426   1.197   8.888   9.088
 4683W        W 8427   0.705   4.352  11.212
 4684W        W 8428   8.369   8.961   2.012
 4685W        W 8429   7.835   0.910   0.241
 4686W        W 8430  10.455   7.081   2.684
 4687W        W 8431   4.008   1.664   0.811
 4688W        W 8432   4.385   3.977   4.048
 4689W        W 8433   8.691   9.972   0.489
 4690W        W 8434   9.434   3.273   8.933
 4691W        W 8435   0.198   1.436   0.283
 4692W        W 8436   8.403   4.778   1.169
 4693W        W 8437   3.221   9.362   1.650
 4694W        W 8438   2.517   9.132   8.575
 4695W        W 8439   5.162   6.965   2.864
 4696W        W 8440   9.529   1.045   9.540
 4697W        W 8441   4.101   8.723  11.945
 4698W        W 8442   7.637   3.068  11.462
 4699W        W 8443   6.336   6.922   1.006
 4700W        W 8444   5.246   8.065   1.784
 4701W        W 8445   0.046   6.871   2.218
 4702W        W 8446   9.691   5.940   0.928
 4703W        W 8447   3.679   4.351  11.521
 4704W        W 8448   9.864   3.877  11.831
 4705W        W 8449   4.608   2.659   8.316
 4706W        W 8450   7.713   5.381   9.940
 4707W        W 8451   7.607   7.897  11.561
 4708W        W 8452   8.384  10.222  11.274
 4709W        W 8453   0.928   2.094  10.984
 4710W        W 8454   7.557   6.063   1.748
 4711W        W 8455   4.878   8.177   1.375
 4712W        W 8456   4.026   1.631   3.153
 4713W        W 8457   1.621   0.323  11.715
 4714W        W 8458   4.213   5.765   1.841
 4715W        W 8459   7.478   1.759  10.988
 4716W        W 8460   7.738   6.316   9.976
 4717W        W 8461   7.063   3.255   8.446
 4718W        W 8462   3.700   6.026   9.934
 4719W        W 8463   1.365   2.916  10.323
 4720W        W 8464   2.400   8.343   0.051
 4721W        W 8465   8.140   7.642   0.816
 4722W        W 8466   3.584   6.385   2.250
 4723W        W 8467   2.560   6.481   3.190
 4724W        W 8468   5.271   0.424  11.353
 4725W        W 8469   0.313   8.375   2.417
 4726W        W 8470   3.746   2.335  10.853
 4727W        W 8471   5.116   8.501   2.003
 4728W        W 8472   5.217   0.357   2.492
 4729W        W 8473   4.164   5.624   9.782
 4730W        W 8474   3.760   5.427  10.667
 4731W        W 8475   0.439   2.956   2.593
 4732W        W 8476   9.280   4.376   2.946
 4733W        W 8477   2.095   6.308   3.253
 4734W        W 8478   8.991   4.573  11.588
 4735W        W 8479   7.031   5.195  11.040
 4736W        W 8480   7.978   5.501  11.831
 4737W        W 8481   2.636   9.968  11.406
 4738W        W 8482   9.994  10.258   3.646
 4739W        W 8483   8.913   9.857   9.006
 4740W        W 8484   4.662  10.056   2.196
 4741W        W 8485   5.568   9.379  11.243
 4742W        W 8486   3.170   8.671  10.961
 4743W        W 8487   9.558   6.566   0.655
 4744W        W 8488   2.642  10.430  10.558
 4745W        W 8489   2.112   2.585   1.119
 4746W        W 8490   6.997   1.375   2.915
 4747W        W 8491   8.423   9.400   1.756
 4748W        W 8492   4.777   4.485  10.005
 4749W        W 8493   9.381   7.933   1.488
 4750W        W 8494   3.597   7.944   9.968
 4751W        W 8495   5.949   4.166   1.708
 4752W        W 8496   9.868   2.990  11.576
 4753W        W 8497   6.876   3.219  10.784
 4754W        W 8498   9.169   9.823   8.552
 4755W        W 8499  10.409   6.074  10.311
 4756W        W 8500   2.280   0.328   0.914
 4757W        W 8501   0.703   5.999  11.966
 4758W        W 8502   5.999   5.209  11.134
 4759W        W 8503  10.308   3.662   9.865
 4760W        W 8504   5.772   8.937  11.460
 4761W        W 8505   9.876   6.426   9.971
 4762W        W 8506   4.895   1.174  11.744
 4763W        W 8507   9.913   4.396  11.892
 4764W        W 8508   8.837   7.234   9.399
 4765W        W 8509   4.731   0.326   0.548
 4766W        W 8510   7.424   5.321   3.069
 4767W        W 8511   3.917  10.081   9.577
 4768W        W 8512   8.751   0.927  10.980
 4769W        W 8513   1.408   5.534   1.400
 4770W        W 8514   6.654   1.502   0.836
 4771W        W 8515   0.970   7.708   1.366
 4772W        W 8516  10.267   7.511  11.426
 4773W        W 8517   3.606   9.875   2.592
 4774W        W 8518   5.907   2.419   0.911
 4775W        W 8519   2.187   4.041  11.648
 4776W        W 8520   3.157   8.076   1.428
 4777W        W 8521   1.294   2.826   2.470
 4778W        W 8522   7.060   8.439   2.925
 4779W        W 8523   2.214   3.057   0.977
 4780W        W 8524   7.889   9.941   0.303
 4781W        W 8525   7.017   8.584  10.181
 4782W        W 8526   6.133   8.844   0.778
 4783W        W 8527   9.476   3.766   8.719
 4784W        W 8528   3.265   3.605   2.148
 4785W        W 8529   8.523   9.764  11.947
 4786W        W 8530   5.719   8.528  10.448
 4787W        W 8531   9.091   9.314   2.524
 4788W        W 8532   2.544   0.957  11.937
 4789W        W 8533   1.203  10.359   3.134
 4790W        W 8534   5.649   5.994   2.345
 4791W        W 8535   1.474   8.131  10.541
 4792W        W 8536   9.514   4.550   1.472
 4793W        W 8537   5.953   8.435   2.338
 4794W        W 8538   5.867   8.895   0.336
 4795W        W 8539   4.289   1.891   0.451
 4796W        W 8540   6.039   9.822   9.118
 4797W        W 8541   8.882   1.214   0.785
 4798W        W 8542   4.656   4.991   2.123
 4799W        W 8543   6.708   1.125  10.552
 4800W        W 8544   3.374   3.184   9.086
 4801W        W 8545   8.160   9.306   8.772
 4802W        W 8546   3.762   2.307  10.327
 4803W        W 8547   7.398   7.081   2.154
 4804W        W 8548   8.982   3.703   3.360
 4805W        W 8549   5.073   9.425  11.245
 4806W        W 8550   7.444  10.307   8.327
 4807W        W 8551   0.786   3.840   1.156
 4808W        W 8552   5.466   6.905  10.114
 4809W        W 8553   2.932   7.727  11.115
 4810W        W 8554   9.883   0.310   9.487
 4811W        W 8555   6.789   3.704   0.140
 4812W        W 8556   4.980   7.404   1.827
 4813W        W 8557   9.421   6.043   3.497
 4814W        W 8558   7.371   9.762   2.418
 4815W        W 8559  10.130   8.442  11.409
 4816W        W 8560   5.490   2.180   9.330
 4817W        W 8561   3.299   5.479   2.356
 4818W        W 8562   1.441   4.642   3.145
 4819W        W 8563   7.744   5.650   9.501
 4820W        W 8564   0.726   8.304  10.352
 4821W        W 8565  10.284   1.146   0.412
 4822W        W 8566   4.739   9.621   0.135
 4823W        W 8567   8.966   6.516  10.216
 4824W        W 8568   0.249  10.153   0.869
 4825W        W 8569   6.378   2.746   8.987
 4826W        W 8570   4.962   6.634  11.763
 4827W        W 8571   2.626   7.696   9.600
 4828W        W 8572   5.588   0.783   9.551
 4829W        W 8573  10.024   7.366  10.984
 4830W        W 8574   6.793   4.211   8.821
 4831W        W 8575  10.344   9.538  11.619
 4832W        W 8576   3.118   8.055   3.072
 4833W        W 8577   8.410   9.750   8.851
 4834W        W 8578   3.225   5.485  11.513
 4835W        W 8579   0.582   7.602   2.711
 4836W        W 8580   9.370   5.365   2.722
 4837W        W 8581   3.368   9.448  10.415
 4838W        W 8582   7.704   1.963   8.476
 4839W        W 8583   5.467   6.723  11.533
 4840W        W 8584   6.907   6.978   9.497
 4841W        W 8585   0.402   1.600   0.924
 4842W        W 8586  10.204   0.645   1.838
 4843W        W 8587   1.888   8.632   1.317
 4844W        W 8588   3.055   5.215   3.585
 4845W        W 8589   3.811   1.866  10.592
 4846W        W 8590   0.871   9.449  10.877
 4847W        W 8591   0.168   0.453  10.009
 4848W        W 8592   4.283   1.696  11.982
 4849W        W 8593   5.447   7.811   9.932
 4850W        W 8594   0.425   8.742  10.473
 4851W        W 8595   7.116   5.965  11.557
 4852W        W 8596   0.355   9.485  10.832
 4853W        W 8597   3.539   0.823   3.122
 4854W        W 8598   0.105   8.260   1.208
 4855W        W 8599   4.147   5.546  11.050
 4856W        W 8600   9.815   1.724   3.394
 4857W        W 8601   7.617   2.738  10.863
 4858W        W 8602   5.565   3.131   0.702
 4859W        W 8603   3.242   2.984   0.723
 4860W        W 8604   3.611   4.893  11.712
 4861W        W 8605   2.340   9.487   3.302
 4862W        W 8606   5.702   3.425  10.302
 4863W        W 8607   0.782   9.750  11.758
 4864W        W 8608   8.531   2.868  10.989
 4865W        W 8609   4.819   2.552   0.242
 4866W        W 8610   9.961   3.833   3.133
 4867W        W 8611   5.462   1.378   3.345
 4868W        W 8612   4.205   5.003   3.008
 4869W        W 8613   3.596   8.137   2.598
 4870W        W 8614   0.740  10.392   9.134
 4871W        W 8615   7.457   0.952   2.046
 4872W        W 8616   9.333   8.781   3.242
 4873W        W 8617  10.151   9.881  11.298
 4874W        W 8618   0.448   3.929   9.689
 4875W        W 8619   1.235   1.449   2.763
 4876W        W 8620   0.986   7.519   0.908
 4877W        W 8621   5.628   3.823  11.439
 4878W        W 8622   7.067   8.324   0.721
 4879W        W 8623   3.846   0.374   0.000
 4880W        W 8624   6.053   0.176  10.397
 4881W        W 8625   6.316   5.141   1.335
 4882W        W 8626   7.920   2.374  11.041
 4883W        W 8627   8.938   0.956  10.325
 4884W        W 8628   3.602   5.257   0.714
 4885W        W 8629   3.740   7.902  10.952
 4886W        W 8630   4.935   9.367   2.204
 4887W        W 8631   1.104   4.154   9.477
 4888W        W 8632   4.181   9.254   2.107
 4889W        W 8633   6.522   6.509   0.292
 4890W        W 8634   7.010   3.016  10.338
 4891W        W 8635   3.122  10.283   0.363
 4892W        W 8636   4.924   4.231   0.375
 4893W        W 8637   5.169  10.439   9.228
 4894W        W 8638   0.843   2.441   1.257
 4895W        W 8639   0.522   3.460  11.432
 4896W        W 8640   2.381   9.044   3.046
 4897W        W 8641   0.670   2.159   2.226
 4898W        W 8642   5.372   0.307   1.267
 4899W        W 8643   0.148   2.247   9.871
 4900W        W 8644   0.094   3.226   3.367
 4901W        W 8645   6.278   4.749  10.741
 4902W        W 8646   4.394   5.371  11.649
 4903W        W 8647   2.404   0.268   1.425
 4904W        W 8648   3.792   2.173   0.871
 4905W        W 8649   2.877   8.527   0.327
 4906W        W 8650   6.573   3.239   2.312
 4907W        W 8651   2.303   7.895   1.561
 4908W        W 8652   9.720   7.501   3.170
 4909W        W 8653   8.119   5.492  10.258
 4910W        W 8654   2.462   2.184   3.353
 4911W        W 8655   1.945   1.180   3.012
 4912W        W 8656   4.389   0.310  10.317
 4913W        W 8657   9.401   6.246   1.964
 4914W        W 8658   4.801   1.753  11.974
 4915W        W 8659   9.145   9.910   0.729
 4916W        W 8660   6.425   7.242   1.375
 4917W        W 8661   3.794   5.649   0.954
 4918W        W 8662   8.372   5.676  11.035
 4919W        W 8663   6.621   8.750   9.403
 4920W        W 8664   0.492   3.092  11.857
 4921W        W 8665   3.727   6.481   0.943
 4922W        W 8666   0.904   5.833  11.168
 4923W        W 8667   9.626   3.052   3.236
 4924W        W 8668   7.597   4.508   1.791
 4925W        W 8669   9.614   0.592   9.814
 4926W        W 8670   0.320   8.994  10.032
 4927W        W 8671   7.458   8.364  10.965
 4928W        W 8672   1.823   5.454   9.172
 4929W        W 8673   1.693   3.635   2.279
 4930W        W 8674   5.214   0.179  11.814
 4931W        W 8675   1.909   5.609   2.713
 4932W        W 8676   7.643   6.978  11.436
 4933W        W 8677   8.343   1.949   3.417
 4934W        W 8678  10.364   5.152  11.103
 4935W        W 8679   2.303   7.354  10.599
 4936W        W 8680   8.989   1.973   1.714
 4937W        W 8681   5.994   3.300  11.907
 4938W        W 8682   7.152   2.139   1.241
 4939W        W 8683   4.567   2.228   9.014
 4940W        W 8684   6.105  10.360  11.345
 4941W        W 8685   2.629  10.226   2.137
 4942W        W 8686   3.351   7.873  11.332
 4943W        W 8687   4.345   6.277   1.969
 4944W        W 8688   1.531   7.830   3.651
 4945W        W 8689   9.819   0.915   9.121
 4946W        W 8690   4.583   8.868   0.856
 4947W        W 8691   2.774   8.393  11.716
 4948W        W 8692   7.952   0.234   1.979
 4949W        W 8693   3.169   5.746   3.579
 4950W        W 8694   0.229   6.626   2.841
 4951W        W 8695   7.307   2.619   9.116
 4952W        W 8696   5.447   3.918   3.953
 4953W        W 8697   1.907   0.397   1.310
 4954W        W 8698   4.276   6.370  11.475
 4955W        W 8699   9.074   2.678  11.760
 4956W        W 8700   0.483   4.666   9.080
 4957W        W 8701   0.034   7.509   0.621
 4958W        W 8702   7.721   1.611  11.405
 4959W        W 8703   3.521   4.867   9.095
 4960W        W 8704   8.936   1.398   3.019
 4961W        W 8705   1.862   3.380   8.868
 4962W        W 8706   2.706   0.732   9.384
 4963W        W 8707   7.086   9.800   3.086
 4964W        W 8708   4.183  10.340   1.304
 4965W        W 8709   8.350   0.509   2.198
 4966W        W 8710   2.391   7.235   2.144
 4967W        W 8711   9.250   6.515  11.621
 4968W        W 8712  10.396   8.871  11.360
 4969W        W 8713   4.100   0.806  11.847
 4970W        W 8714   2.190   3.810   2.189
 4971W        W 8715   3.104   5.708   8.754
 4972W        W 8716   0.462   5.961   9.465
 4973W        W 8717   0.716   6.575   3.446
 4974W        W 8718   5.617   2.362   1.359
 4975W        W 8719   2.103   0.187   8.986
 4976W        W 8720   9.010   9.945   0.043
 4977W        W 8721   0.932   6.601   9.813
 4978W        W 8722  10.483   6.599   1.043
 4979W        W 8723   9.456   4.635  11.844
 4980W        W 8724   5.933   6.065  11.037
 4981W        W 8725   6.604   5.024   1.739
 4982W        W 8726   8.526   7.916  11.459
 4983W        W 8727   5.688   0.207   2.760
 4984W        W 8728   6.140   1.793   3.234
 4985W        W 8729   0.854   3.072   3.245
 4986W        W 8730   6.576  10.238  10.618
 4987W        W 8731   5.552   3.837   9.944
 4988W        W 8732   9.909   8.205   2.338
 4989W        W 8733   5.999   6.421   2.884
 4990W        W 8734   5.224  10.355   1.066
 4991W        W 8735   5.563   1.754  11.030
 4992W        W 8736   5.298   8.880   8.851
 4993W        W 8737   8.305   0.509  10.907
 4994W        W 8738   5.055   8.842   9.865
 4995W        W 8739   8.846   1.866  11.157
 4996W        W 8740   3.153  10.122   2.354
 4997W        W 8741   9.548   0.996  10.518
 4998W        W 8742   1.671   7.191   1.377
 4999W        W 8743   5.708   7.567   8.363
 5000W        W 8744   4.726   4.100  11.399
 5001W        W 8745   1.208  10.245   1.408
 5002W        W 8746   3.488  10.442   0.733
 5003W        W 8747   6.572   9.094   2.580
 5004W        W 8748   5.912  10.364   3.078
 5005W        W 8749   4.874   8.305   8.535
 5006W        W 8750   2.672   1.569   1.767
 5007W        W 8751   1.885   2.608   0.251
 5008W        W 8752   1.679   8.897   0.911
 5009W        W 8753   2.302   8.478   9.892
 5010W        W 8754   7.557   6.021  11.302
 5011W        W 8755   8.875   3.732  10.085
 5012W        W 8756   0.889   6.554  10.713
 5013W        W 8757   5.149   8.547   3.279
 5014W        W 8758   4.569   3.256   2.260
 5015W        W 8759   7.636   6.483   8.559
 5016W        W 8760   0.269   4.250  10.942
 5017W        W 8761   0.414   3.426   9.593
 5018W        W 8762   5.514   8.528  11.316
 5019W        W 8763   5.330   1.165   2.011
 5020W        W 8764   6.434   6.794   3.606
 5021W        W 8765   4.206   3.856   3.220
 5022W        W 8766   5.242   1.882  11.727
 5023W        W 8767   1.766   8.212   2.784
 5024W        W 8768   6.453   7.813   9.054
 5025W        W 8769   8.865   5.261   2.787
 5026W        W 8770  10.295   8.838  10.494
 5027W        W 8771   0.657   9.849   0.751
 5028W        W 8772   1.217   0.020   2.642
 5029W        W 8773   7.975   2.485  11.529
 5030W        W 8774   5.150   7.705   2.190
 5031W        W 8775   2.772   6.370   9.427
 5032W        W 8776   2.866   0.333   2.489
 5033W        W 8777   7.460   2.121   2.608
 5034W        W 8778   5.131   9.380   8.997
 5035W        W 8779   1.343   4.834   8.866
 5036W        W 8780   9.411   3.849   2.065
 5037W        W 8781   1.366   7.599  10.324
 5038W        W 8782   9.466   8.543  10.882
 5039W        W 8783   5.108   3.025   9.909
 5040W        W 8784   9.804   5.038   9.017
 5041W        W 8785   0.659   4.372   9.503
 5042W        W 8786   7.832   0.883   9.375
 5043W        W 8787   8.917   7.999   0.723
 5044W        W 8788   9.872   1.348  11.695
 5045W        W 8789   0.010   7.823  10.338
 5046W        W 8790   3.035   1.492   2.945
 5047W        W 8791   8.644   8.697  11.017
 5048W        W 8792  10.430   7.666  11.902
 5049W        W 8793   4.254   7.255  11.947
 5050W        W 8794   5.348   2.400   0.146
 5051W        W 8795   0.273   2.559  11.300
 5052W        W 8796   6.230   8.369   0.905
 5053W        W 8797   6.964   6.875   1.942
 5054W        W 8798   4.792   1.312   0.241
 5055W        W 8799   3.241   8.197   0.046
 5056W        W 8800   0.413   4.633   2.994
 5057W        W 8801   4.807   0.245   1.065
 5058W        W 8802   2.164   0.672  11.031
 5059W        W 8803   9.784   3.118   0.566
 5060W        W 8804   0.502   8.804   2.608
 5061W        W 8805   6.131   2.415   0.452
 5062W        W 8806   2.625   9.112  11.510
 5063W        W 8807   5.708   6.359   0.416
 5064W        W 8808   0.189   7.929  10.844
 5065W        W 8809   0.946   9.942  10.890
 5066W        W 8810   6.128   9.356   2.710
 5067W        W 8811   6.977   6.999   2.996
 5068W        W 8812  10.309   6.266  11.743
 5069W        W 8813   3.239   7.367  11.291
 5070W        W 8814   1.745   1.232   2.486
 5071W        W 8815   0.373   2.613   2.201
 5072W        W 8816   7.449   0.432   0.760
 5073W        W 8817  10.044   7.385   2.630
 5074W        W 8818   8.913   3.817   1.230
 5075W        W 8819   6.870   9.504   8.983
 5076W        W 8820   1.220   0.425  10.897
 5077W        W 8821   6.739   4.160   3.553
 5078W        W 8822   9.828   6.684  10.431
 5079W        W 8823   9.749   3.178   2.438
 5080W        W 8824   1.900   9.452   0.817
 5081W        W 8825   9.984   2.728  10.604
 5082W        W 8826   0.936  10.461  10.040
 5083W        W 8827   6.148   0.123   3.481
 5084W        W 8828   9.354   8.036   0.470
 5085W        W 8829   1.819  10.252  10.003
 5086W        W 8830   3.157   4.953  10.382
 5087W        W 8831   2.575   9.409  10.239
 5088W        W 8832   3.646   4.117  10.505
 5089W        W 8833   2.397   8.588   0.941
 5090W        W 8834   6.094   3.906   2.156
 5091W        W 8835   3.172   8.145  10.928
 5092W        W 8836  10.112   9.437   3.515
 5093W        W 8837   3.764   1.401   8.746
 5094W        W 8838   5.987   5.505   2.418
 5095W        W 8839   5.992   3.248   1.425
 5096W        W 8840   4.100   6.080  11.086
 5097W        W 8841   4.742   8.944  11.524
 5098W        W 8842   2.137   4.431   9.450
 5099W        W 8843   7.444   3.725   8.506
 5100W        W 8844   4.771   7.386   2.404
 5101W        W 8845   8.400   5.514   2.625
 5102W        W 8846   5.037   8.849  11.935
 5103W        W 8847   7.096   3.173   9.416
 5104W        W 8848   0.253   8.257   3.480
 5105W        W 8849   4.349   2.779  11.375
 5106W        W 8850   9.898   3.207   1.452
 5107W        W 8851   3.684   3.642   3.391
 5108W        W 8852   2.968   9.790   0.768
 5109W        W 8853   2.507   4.869   9.525
 5110W        W 8854   2.721   1.300   2.220
 5111W        W 8855   6.191   1.361  11.069
 5112W        W 8856   2.602   3.242  10.335
 5113W        W 8857   4.331   7.517   8.950
 5114W        W 8858   6.537   7.349   3.663
 5115W        W 8859   1.334   6.074   2.173
 5116W        W 8860   9.212   5.965  10.243
 5117W        W 8861   5.094   9.456   1.669
 5118W        W 8862   3.867   1.157   3.368
 5119W        W 8863   3.626   9.620   9.505
 5120W        W 8864   9.722   0.406   2.428
 5121W        W 8865   5.174   2.319  11.408
 5122W        W 8866   1.941   1.711   1.026
 5123W        W 8867   6.961   9.344   2.336
 5124W        W 8868   9.212  10.388   8.734
 5125W        W 8869   5.105   5.615   1.654
 5126W        W 8870   1.473   7.111   9.339
 5127W        W 8871   8.803   0.898   0.349
 5128W        W 8872   9.390   7.567   9.676
 5129W        W 8873   9.103   0.913   1.223
 5130W        W 8874   6.580   6.213   1.323
 5131W        W 8875   0.853   4.828  11.827
 5132W        W 8876   6.589   3.558  11.232
 5133W        W 8877   8.840   7.204   1.137
 5134W        W 8878   6.483   8.359  11.376
 5135W        W 8879   4.329   0.395   8.728
 5136W        W 8880   9.384   3.652  11.956
 5137W        W 8881   2.460   0.892   0.508
 5138W        W 8882   1.252   0.084   2.145
 5139W        W 8883   8.253   0.003   9.279
 5140W        W 8884   8.258   1.424   2.670
 5141W        W 8885   4.150   7.477   8.472
 5142W        W 8886   2.409   6.500  10.588
 5143W        W 8887   5.738   6.526   9.905
 5144W        W 8888   3.335   6.444   0.593
 5145W        W 8889   4.715   1.131   9.747
 5146W        W 8890   6.706   6.465  10.797
 5147W        W 8891   2.293   6.954  10.950
 5148W        W 8892   3.594   7.692   0.246
 5149W        W 8893   5.192   4.176  11.749
 5150W        W 8894   0.501   7.044   3.381
 5151W        W 8895   6.540   0.708  11.490
 5152W        W 8896   2.737   5.556   0.260
 5153W        W 8897   3.798   0.584   8.779
 5154W        W 8898   4.574   7.832   1.073
 5155W        W 8899   8.591   2.907  11.823
 5156W        W 8900   8.977   7.254   8.381
 5157W        W 8901   4.571   6.288   9.447
 5158W        W 8902  10.115  10.223   9.882
 5159W        W 8903   1.922   5.262  11.328
 5160W        W 8904  10.087   3.987   0.863
 5161W        W 8905   8.026   5.905   1.896
 5162W        W 8906   1.992   0.023   1.659
 5163W        W 8907   6.140   0.797   1.649
 5164W        W 8908   4.309   7.208   2.450
 5165W        W 8909   2.221   1.123   2.295
 5166W        W 8910   7.708   5.998   8.436
 5167W        W 8911   7.662   4.615   0.267
 5168W        W 8912   2.727   8.141   8.850
 5169W        W 8913   6.941   5.889   1.454
 5170W        W 8914   9.095   9.448   9.295
 5171W        W 8915   7.463   2.587   0.459
 5172W        W 8916   5.620   1.254   2.854
 5173W        W 8917   0.169   6.093  10.775
 5174W        W 8918   4.188   2.411  10.617
 5175W        W 8919   3.249  10.082   3.423
 5176W        W 8920   6.115   7.842   9.448
 5177W        W 8921   1.434   7.587   0.628
 5178W        W 8922   8.143   6.994  11.336
 5179W        W 8923   5.166   2.697  11.765
 5180W        W 8924   0.392   3.603  11.896
 5181W        W 8925   4.586   7.550   3.849
 5182W        W 8926   9.000   2.621   2.348
 5183W        W 8927   2.709   5.448  10.786
 5184W        W 8928   6.937   2.648   3.033
 5185W        W 8929   0.354   7.984  11.763
 5186W        W 8930  10.249   1.667   0.401
 5187W        W 8931   1.401   6.245   1.188
 5188W        W 8932   2.454   3.792   0.027
 5189W        W 8933   2.679   3.206   0.808
 5190W        W 8934   8.526   8.137   2.042
 5191W        W 8935   6.560   0.433   9.246
 5192W        W 8936   3.102   3.135  11.919
 5193W        W 8937   2.395   2.969  11.516
 5194W        W 8938   0.317   2.357   0.199
 5195W        W 8939   4.869   8.832   0.438
 5196W        W 8940   6.693   7.728   2.499
 5197W        W 8941   4.783   0.799  11.317
 5198W        W 8942   1.940   1.381  10.897
 5199W        W 8943   9.578   4.207  10.940
 5200W        W 8944   3.770   1.865  10.066
 5201W        W 8945   0.943  10.288  10.518
 5202W        W 8946   7.435   1.352   1.193
 5203W        W 8947   5.131   8.808  10.543
 5204W        W 8948   5.804   8.421   8.665
 5205W        W 8949   8.168   0.899   0.688
 5206W        W 8950   4.517   4.255   3.205
 5207W        W 8951   8.453  10.016   2.493
 5208W        W 8952  10.450   8.771   0.301
 5209W        W 8953   1.922   9.065   2.301
 5210W        W 8954   5.765   6.897  11.906
 5211W        W 8955   4.652   2.327   1.492
 5212W        W 8956   5.130   4.797   9.787
 5213W        W 8957   3.371   8.879  10.294
 5214W        W 8958   2.969   0.941   9.765
 5215W        W 8959   6.977   3.757  11.536
 5216W        W 8960   1.434   2.457   8.863
 5217W        W 8961   3.764   7.043   1.760
 5218W        W 8962  10.326   9.939   0.645
 5219W        W 8963   2.680  10.364   1.250
 5220W        W 8964   3.643   9.636   2.020
 5221W        W 8965   5.471   4.597  11.881
 5222W        W 8966   1.669   4.113   2.155
 5223W        W 8967  10.449   5.561   1.864
 5224W        W 8968   0.454   7.168   9.777
 5225W        W 8969   2.462   7.415   8.634
 5226W        W 8970   2.611   4.960  10.729
 5227W        W 8971   5.348   0.319   9.591
 5228W        W 8972   0.787   8.780  10.849
 5229W        W 8973   9.519   0.974   2.439
 5230W        W 8974   4.242   0.405   9.241
 5231W        W 8975   9.764   1.836   1.946
 5232W        W 8976   8.089   6.637   1.087
 5233W        W 8977   6.538   6.713  11.753
 5234W        W 8978   0.508   5.566   8.796
 5235W        W 8979   3.276   1.988   0.403
 5236W        W 8980   5.448   8.900  10.992
 5237W        W 8981   0.972   8.887   8.627
 5238W        W 8982   9.327   8.936  11.511
 5239W        W 8983   6.091   0.869   0.648
 5240W        W 8984   6.099   6.606   1.742
 5241W        W 8985   1.164   1.856   9.348
 5242W        W 8986   5.464   8.006   8.597
 5243W        W 8987   4.804   3.141   1.818
 5244W        W 8988  10.466   1.392   8.911
 5245W        W 8989   2.895   5.718   2.605
 5246W        W 8990   9.399   7.046   1.953
 5247W        W 8991   0.082   7.590   2.786
 5248W        W 8992   0.365  10.493   2.647
 5249W        W 8993   2.424   8.909  10.481
 5250W        W 8994   9.628   9.443   9.464
 5251W        W 8995   7.702   7.992   9.392
 5252W        W 8996   6.368   3.899   8.743
 5253W        W 8997   8.891   2.337  10.066
 5254W        W 8998   2.936   3.746   0.206
 5255W        W 8999   3.499   3.016   1.419
 5256W        W 9000   7.572   0.048   3.298
 5257W        W 9001   1.386   3.828   3.268
 5258W        W 9002   8.715   0.846   9.558
 5259W        W 9003   4.636   5.960   2.276
 5260W        W 9004   2.685   5.336   9.445
 5261W        W 9005   6.472   1.789  10.996
 5262W        W 9006   5.667   9.982  10.599
 5263W        W 9007   1.675   9.916   2.115
 5264W        W 9008   4.239   5.277   2.085
 5265W        W 9009   5.483   8.802  10.105
 5266W        W 9010   5.413   7.138   8.274
 5267W        W 9011   5.540   8.899  11.917
 5268W        W 9012   3.092   4.244   1.844
 5269W        W 9013   1.683   6.014   3.051
 5270W        W 9014   3.014   7.448   9.366
 5271W        W 9015   3.593   6.166   3.582
 5272W        W 9016   9.419   8.885   1.414
 5273W        W 9017   0.428  10.271   9.539
 5274W        W 9018   1.507   7.345   2.622
 5275W        W 9019   8.835   2.231   2.710
 5276W        W 9020   6.606   1.023   2.391
 5277W        W 9021   6.170  10.171   9.469
 5278W        W 9022   8.354   9.052  10.756
 5279W        W 9023   0.594   8.224   0.155
 5280W        W 9024   2.316   1.697   1.371
 5281W        W 9025  10.493   6.739   0.083
 5282W        W 9026   4.342   6.075   0.239
 5283W        W 9027   2.907   9.904   9.540
 5284W        W 9028   7.038   5.804   2.148
 5285W        W 9029   9.085   5.072  10.052
 5286W        W 9030  10.285   4.862   0.846
 5287W        W 9031   2.496   9.929   0.953
 5288W        W 9032   4.283   2.094   0.935
 5289W        W 9033   0.809   1.874   8.921
 5290W        W 9034   6.488   3.240   1.505
 5291W        W 9035   5.291   3.321   8.587
 5292W        W 9036   5.399   9.901   3.809
 5293W        W 9037   5.120   9.019   1.413
 5294W        W 9038   5.237   2.847   3.878
 5295W        W 9039   7.889   1.802   0.277
 5296W        W 9040   7.859   6.379   2.024
 5297W        W 9041   1.657   6.041  10.861
 5298W        W 9042   0.272   0.982   8.968
 5299W        W 9043   5.761   2.867   1.102
 5300W        W 9044   8.673   5.751   8.383
 5301W        W 9045   0.556   5.498   0.450
 5302W        W 9046   7.500   4.704   3.597
 5303W        W 9047   7.968   5.715   0.864
 5304W        W 9048   7.885   2.305   0.967
 5305W        W 9049   0.266  10.400  11.175
 5306W        W 9050   8.207   5.873   3.357
 5307W        W 9051   7.006   8.063  10.462
 5308W        W 9052   7.949  10.269   1.740
 5309W        W 9053   6.110  10.396   0.694
 5310W        W 9054   7.321   4.521   9.997
 5311W        W 9055   3.546   2.625   0.968
 5312W        W 9056   4.748   2.262   3.438
 5313W        W 9057   3.922   3.963   2.419
 5314W        W 9058   2.314   7.069  10.087
 5315W        W 9059   7.490  10.053   9.779
 5316W        W 9060   1.342   1.874   2.459
 5317W        W 9061   5.790   4.653   1.896
 5318W        W 9062   9.495   2.656  11.472
 5319W        W 9063   3.182   3.488   0.738
 5320W        W 9064   9.495   3.900   2.931
 5321W        W 9065   5.757   4.672   2.416
 5322W        W 9066   0.467   3.788   2.570
 5323W        W 9067   4.137   7.313  11.462
 5324W        W 9068   8.418   4.291   2.314
 5325W        W 9069   0.010   5.692   0.692
 5326W        W 9070   0.908   0.148   9.566
 5327W        W 9071   8.509   5.742  10.068
 5328W        W 9072  10.489   2.624  10.444
 5329W        W 9073   5.579   1.486   1.695
 5330W        W 9074   8.961   6.525   8.687
 5331W        W 9075   7.914   4.929   1.087
 5332W        W 9076   7.556   4.426   4.013
 5333W        W 9077   3.780   5.408   2.228
 5334W        W 9078  10.292   1.367  11.961
 5335W        W 9079   8.989   8.397   2.066
 5336W        W 9080   5.546   3.935   9.078
 5337W        W 9081   8.081   9.366   1.346
 5338W        W 9082   8.918   4.198   9.571
 5339W        W 9083   9.039   8.597   9.943
 5340W        W 9084   3.759   3.104   8.733
 5341W        W 9085   7.016   6.948   2.472
 5342W        W 9086   5.434  10.020   8.598
 5343W        W 9087   7.646   9.270  11.438
 5344W        W 9088   9.211   7.001   1.466
 5345W        W 9089   0.113   5.043   2.866
 5346W        W 9090   6.756   6.554   9.784
 5347W        W 9091   9.729   9.441   3.135
 5348W        W 9092   9.534   6.941   2.588
 5349W        W 9093   4.212   6.373  10.631
 5350W        W 9094   3.790   0.534   2.016
 5351W        W 9095   5.819   3.272   8.553
 5352W        W 9096   8.540   4.323   0.296
 5353W        W 9097   8.591   5.192  10.943
 5354W        W 9098   0.261   5.106   9.297
 5355W        W 9099   5.513   6.184   9.240
 5356W        W 9100   9.267   0.057   2.477
 5357W        W 9101   7.147   8.953   1.506
 5358W        W 9102   9.457   4.718   3.298
 5359W        W 9103   5.044   6.005  10.588
 5360W        W 9104   1.388   4.612   1.662
 5361W        W 9105   9.208   0.002   1.178
 5362W        W 9106   0.283   3.195   1.389
 5363W        W 9107   6.992   0.702  11.828
 5364W        W 9108   0.302   3.674   1.190
 5365W        W 9109   0.894   6.530  11.929
 5366W        W 9110   0.521   3.591   0.738
 5367W        W 9111   0.555   9.622  11.268
 5368W        W 9112   3.321   1.799   9.293
 5369W        W 9113   1.421  10.479  10.757
 5370W        W 9114   4.991   1.973   1.439
 5371W        W 9115   4.897   8.068   3.166
 5372W        W 9116   3.218   2.279   9.120
 5373W        W 9117   5.398   5.616  10.501
 5374W        W 9118  10.395   4.014   1.280
 5375W        W 9119   7.584   5.329   0.884
 5376W        W 9120   1.982   6.375  10.272
 5377W        W 9121   6.992   4.703  10.891
 5378W        W 9122   0.804   9.938   1.435
 5379W        W 9123   5.642   3.623   9.475
 5380W        W 9124  10.317   0.351  11.393
 5381W        W 9125   6.473   1.143   1.408
 5382W        W 9126   3.710   8.599   9.473
 5383W        W 9127   6.448   0.930  11.011
 5384W        W 9128   0.979   1.858   0.789
 5385W        W 9129   1.311   2.697   9.832
 5386W        W 9130   6.151   6.408   0.697
 5387W        W 9131   2.775   6.517   1.200
 5388W        W 9132   3.097   3.213   3.524
 5389W        W 9133  10.343   1.291  11.442
 5390W        W 9134   9.178   6.212   0.478
 5391W        W 9135  10.000   1.171   3.041
 5392W        W 9136   8.569   5.229  10.076
 5393W        W 9137   3.733   7.383  11.023
 5394W        W 9138   7.994   0.856  11.740
 5395W        W 9139   8.879   4.053   2.155
 5396W        W 9140   7.946  10.238   3.161
 5397W        W 9141   3.600  10.423   9.814
 5398W        W 9142   0.886   7.185   0.004
 5399W        W 9143   7.440   8.409   9.550
 5400W        W 9144   3.675   4.580   9.782
 5401W        W 9145   9.021   1.357  11.211
 5402W        W 9146   7.651   8.657   2.655
 5403W        W 9147   1.868   6.864   0.975
 5404W        W 9148   3.836   0.384  10.307
 5405W        W 9149   9.145   3.986  10.993
 5406W        W 9150   9.820   9.659  10.296
 5407W        W 9151   5.022   6.027   2.930
 5408W        W 9152   3.713   9.198   0.519
 5409W        W 9153   8.470   7.914   0.462
 5410W        W 9154   9.751   4.617   9.377
 5411W        W 9155   7.495   2.444   2.218
 5412W        W 9156   7.818   4.377  11.335
 5413W        W 9157   8.454   4.768   2.126
 5414W        W 9158   8.889   1.777   2.289
 5415W        W 9159   1.599   4.197   9.438
 5416W        W 9160   5.551   5.381   1.757
 5417W        W 9161   5.428   4.187   0.254
 5418W        W 9162   8.985   1.286  10.704
 5419W        W 9163   3.085   6.878  11.277
 5420W        W 9164   9.802   7.818   2.746
 5421W        W 9165   4.175   3.556   1.181
 5422W        W 9166   1.321   4.818  10.123
 5423W        W 9167   2.349   9.188   0.221
 5424W        W 9168   5.675   2.725   0.396
 5425W        W 9169   3.113   5.188   0.952
 5426W        W 9170   8.771   6.319   0.814
 5427W        W 9171   7.653  10.023   2.754
 5428W        W 9172   1.820   5.461   9.680
 5429W        W 9173   8.755   8.378   3.599
 5430W        W 9174   9.217   0.302  11.935
 5431W        W 9175   4.184   1.251   2.822
 5432W        W 9176   0.759   9.987   0.256
 5433W        W 9177   7.933   0.480   0.516
 5434W        W 9178   1.846  10.399  11.011
 5435W        W 9179   0.369   2.452   2.707
 5436W        W 9180   4.306   5.517   0.938
 5437W        W 9181   5.497   8.861   9.598
 5438W        W 9182   5.617   5.442   8.964
 5439W        W 9183   3.445   4.080   2.250
 5440W        W 9184   6.610   7.864  11.258
 5441W        W 9185   7.791   5.203  10.501
 5442W        W 9186   3.248   9.509   1.154
 5443W        W 9187   1.662   0.232   9.988
 5444W        W 9188   4.933   5.777  11.409
 5445W        W 9189   6.463   8.097   3.274
 5446W        W 9190   2.341   4.642   1.650
 5447W        W 9191   9.977   0.959   0.003
 5448W        W 9192   4.971   7.586  11.581
 5449W        W 9193   5.368   1.672   1.287
 5450W        W 9194   2.831   3.395   1.576
 5451W        W 9195   1.385   0.372  10.407
 5452W        W 9196   4.670   8.079  10.530
 5453W        W 9197   1.617   3.026   0.254
 5454W        W 9198   5.549   8.304  10.865
 5455W        W 9199   7.627   7.398   1.703
 5456W        W 9200   2.675   8.449   2.346
 5457W        W 9201   1.801   2.209   0.982
 5458W        W 9202   3.397   3.831   0.387
 5459W        W 9203   8.500   2.298   9.260
 5460W        W 9204   1.627   1.333  11.320
 5461W        W 9205   3.587   1.890   3.013
 5462W        W 9206   1.146   9.552  10.440
 5463W        W 9207   1.805   0.091   8.566
 5464W        W 9208   0.178   9.205  10.468
 5465W        W 9209   3.887  10.419   2.660
 5466W        W 9210   4.425   7.605   2.740
 5467W        W 9211   0.721   3.326   1.147
 5468W        W 9212   3.651   5.703   1.726
 5469W        W 9213   4.080   9.351   9.376
 5470W        W 9214   4.071   7.503  10.627
 5471W        W 9215   2.057   1.512   3.415
 5472W        W 9216   5.024  10.035   3.440
 5473W        W 9217   0.222   7.364   2.337
 5474W        W 9218   1.801   5.463   2.209
 5475W        W 9219   4.675   0.607   9.048
 5476W        W 9220   0.531   3.844   3.071
 5477W        W 9221   4.312   5.145   9.569
 5478W        W 9222   1.878   2.900   8.354
 5479W        W 9223   8.177   5.041  11.800
 5480W        W 9224   8.085   8.645   0.766
 5481W        W 9225   3.236   7.354  10.366
 5482W        W 9226   7.117   0.723   3.030
 5483W        W 9227   0.714   3.091  10.917
 5484W        W 9228  10.443   9.408   1.994
 5485W        W 9229   6.150   9.091   3.422
 5486W        W 9230   1.080   0.454   9.167
 5487W        W 9231   6.187   6.195   2.055
 5488W        W 9232   4.009   9.684   3.356
 5489W        W 9233   7.023   4.583   3.746
 5490W        W 9234   9.214   3.418   9.763
 5491W        W 9235   4.577   4.148  10.903
 5492W        W 9236   5.040   2.385   9.512
 5493W        W 9237   1.210   4.232  11.023
 5494W        W 9238   8.607   7.160   8.754
 5495W        W 9239   9.339   0.869   8.922
 5496W        W 9240   8.887   1.754   8.804
 5497W        W 9241   5.068   6.113   9.557
 5498W        W 9242   6.112   1.959   0.245
 5499W        W 9243   0.721   6.318   2.980
 5500W        W 9244   4.222   3.620  11.734
 5501W        W 9245   3.309   6.170   8.595
 5502W        W 9246   0.669   8.876   9.086
 5503W        W 9247   6.320   1.442   8.431
 5504W        W 9248   4.578   9.259   0.468
 5505W        W 9249   0.969   1.753   0.099
 5506W        W 9250  10.483   4.567   2.690
 5507W        W 9251   8.635   7.562   0.823
 5508W        W 9252   9.340   1.530   9.562
 5509W        W 9253   9.884   1.360  11.196
 5510W        W 9254   4.306   3.122   2.717
 5511W        W 9255   2.893   2.149  10.335
 5512W        W 9256   4.277   5.231   1.405
 5513W        W 9257   7.630   8.810   0.578
 5514W        W 9258   4.752   1.722  10.363
 5515W        W 9259   6.151   7.590   8.089
 5516W        W 9260   9.276   6.231   0.965
 5517W        W 9261   8.475   6.056   2.647
 5518W        W 9262   3.212   7.127   1.184
 5519W        W 9263   2.785   9.756   2.236
 5520W        W 9264   9.445   3.570   2.506
 5521W        W 9265   6.436   2.298  10.973
 5522W        W 9266   6.175   9.657  11.837
 5523W        W 9267   6.460   2.152  11.455
 5524W        W 9268   5.964   4.651  11.750
 5525W        W 9269   7.194   6.666   8.360
 5526W        W 9270   7.140   1.971  11.489
 5527W        W 9271   1.459   7.908   1.921
 5528W        W 9272   9.076   6.989  11.721
 5529W        W 9273   9.182   2.250  10.941
 5530W        W 9274   0.439   6.939  11.886
 5531W        W 9275   7.402   7.987   2.235
 5532W        W 9276   1.221  10.020   0.478
 5533W        W 9277   0.420   7.646   1.895
 5534W        W 9278   3.408   3.650  10.889
 5535W        W 9279   5.744  10.349  10.970
 5536W        W 9280   2.634   8.816  11.958
 5537W        W 9281   1.297   0.980   2.555
 5538W        W 9282   4.626  10.357   3.328
 5539W        W 9283   9.116   8.902  11.054
 5540W        W 9284   2.210   2.497   9.229
 5541W        W 9285   9.369   8.220   3.043
 5542W        W 9286   6.394   5.342  10.424
 5543W        W 9287   6.546   1.736   0.385
 5544W        W 9288   3.275   2.359  10.639
 5545W        W 9289   5.662   8.352   9.945
 5546W        W 9290   7.441   1.501   2.683
 5547W        W 9291   7.923   8.006  10.223
 5548W        W 9292  10.247   2.744   9.383
 5549W        W 9293   1.671   5.029  10.952
 5550W        W 9294   7.160   9.695   3.598
 5551W        W 9295   1.244   4.169   0.943
 5552W        W 9296   9.744   2.807   9.563
 5553W        W 9297   0.866   0.440   1.420
 5554W        W 9298   6.449   0.745   8.826
 5555W        W 9299   4.758  10.095   1.697
 5556W        W 9300   7.506   9.050   3.471
 5557W        W 9301   9.133   1.299   3.486
 5558W        W 9302   8.030   8.019   2.255
 5559W        W 9303   5.602   2.635   2.443
 5560W        W 9304   1.947   9.069   3.332
 5561W        W 9305   7.162   9.732  11.977
 5562W        W 9306   0.680   0.056  11.426
 5563W        W 9307   8.532   3.181   1.398
 5564W        W 9308   9.030   6.048  11.474
 5565W        W 9309   8.330   2.449  10.759
 5566W        W 9310   3.260   7.303   0.221
 5567W        W 9311   8.308   7.150   0.725
 5568W        W 9312   4.212   0.341   1.767
 5569W        W 9313   0.831   4.769   1.511
 5570W        W 9314   0.959  10.136   8.579
 5571W        W 9315   3.403   9.997   0.965
 5572W        W 9316   5.651   4.122   1.200
 5573W        W 9317   7.367   3.153  10.683
 5574W        W 9318   3.673   3.531   2.442
 5575W        W 9319   8.096   9.825   3.429
 5576W        W 9320   9.850   4.716   2.351
 5577W        W 9321   6.538   6.075   0.645
 5578W        W 9322   9.993   4.477  10.989
 5579W        W 9323  10.327   6.123  11.210
 5580W        W 9324   4.204   0.841   8.961
 5581W        W 9325   1.812   7.355   0.891
 5582W        W 9326   4.266   9.490   1.090
 5583W        W 9327   0.877   2.250  11.969
 5584W        W 9328   5.637   7.248   2.821
 5585W        W 9329   4.725   6.466  10.814
 5586W        W 9330   5.549   2.695  11.389
 5587W        W 9331   7.477   8.953   1.050
 5588W        W 9332   2.827   9.056   0.377
 5589W        W 9333   8.101   4.210   3.159
 5590W        W 9334   8.095   5.100   2.577
 5591W        W 9335   6.565   2.652  11.354
 5592W        W 9336   8.112   4.978   1.570
 5593W        W 9337   1.426   1.668   1.180
 5594W        W 9338   9.716   2.264   2.231
 5595W        W 9339   8.386   2.435  10.262
 5596W        W 9340   3.701   0.432   9.812
 5597W        W 9341   8.821   3.151   2.453
 5598W        W 9342   4.069   9.433   8.432
 5599W        W 9343   7.516   1.934   2.143
 5600W        W 9344   8.945   2.632   0.245
 5601W        W 9345   7.070   6.940  11.717
 5602W        W 9346   5.060   2.364  10.494
 5603W        W 9347   5.984   7.918   2.426
 5604W        W 9348   0.043   2.406   0.917
 5605W        W 9349   6.245   4.646   1.610
 5606W        W 9350   2.292   3.329   2.981
 5607W        W 9351   1.974   4.616   3.279
 5608W        W 9352   7.682   6.454   3.394
 5609W        W 9353   7.076  10.184  10.918
 5610W        W 9354   2.209  10.262   9.260
 5611W        W 9355   7.866   0.256   9.497
 5612W        W 9356   2.970   8.503   3.264
 5613W        W 9357   3.123   0.686  10.916
 5614W        W 9358   2.408  10.248   1.675
 5615W        W 9359   8.598   9.344   9.083
 5616W        W 9360   0.722  10.078  11.330
 5617W        W 9361   7.588   2.815  10.360
 5618W        W 9362   8.539   6.419   9.569
 5619W        W 9363   6.954  10.423   1.213
 5620W        W 9364   4.541   0.308  11.035
 5621W        W 9365   0.387   4.518   1.437
 5622W        W 9366   0.709  10.250  11.822
 5623W        W 9367   2.752   8.565   9.175
 5624W        W 9368   3.035   4.235   0.348
 5625W        W 9369   4.580   0.115   1.512
 5626W        W 9370   0.413   9.373   1.828
 5627W        W 9371   0.981   4.653   9.184
 5628W        W 9372  10.192   2.243  10.671
 5629W        W 9373   7.023   9.908   9.982
 5630W        W 9374   4.616   7.212  11.591
 5631W        W 9375   5.550   3.065  10.626
 5632W        W 9376  10.292   1.557   1.315
 5633W        W 9377   4.087   2.601   0.952
 5634W        W 9378   0.963   2.183   3.245
 5635W        W 9379   1.748   0.744  11.397
 5636W        W 9380   3.182   8.697  11.946
 5637W        W 9381   5.813   8.069   4.063
 5638W        W 9382   8.437   8.503   1.234
 5639W        W 9383   8.629   5.290  11.806
 5640W        W 9384   2.280   4.546  11.676
 5641W        W 9385   9.366   4.225  10.481
 5642W        W 9386   2.403   2.863   8.482
 5643W        W 9387   5.611   7.565   9.382
 5644W        W 9388   6.508   3.424   1.026
 5645W        W 9389   8.074   1.652   9.790
 5646W        W 9390   3.239   3.198   1.808
 5647W        W 9391   4.852  10.340   0.715
 5648W        W 9392   1.785   4.702   0.941
 5649W        W 9393   2.614   4.305   2.870
 5650W        W 9394   1.378   1.931   8.881
 5651W        W 9395   4.716   0.435   2.467
 5652W        W 9396   5.819   5.988   3.117
 5653W        W 9397   1.760   4.350  11.759
 5654W        W 9398   4.708   8.026  11.078
 5655W        W 9399   0.856   5.716  10.227
 5656W        W 9400   0.420  10.216  10.411
 5657W        W 9401   2.385   6.957   1.715
 5658W        W 9402   9.776   8.602  10.440
 5659W        W 9403   3.845  10.029   1.661
 5660W        W 9404   5.150   2.551   2.716
 5661W        W 9405   5.194   1.662   8.715
 5662W        W 9406   8.446   0.742   3.236
 5663W        W 9407   6.980   1.175   1.946
 5664W        W 9408   9.077   2.182  11.993
 5665W        W 9409   2.308   9.441   2.242
 5666W        W 9410   3.452   0.995   8.698
 5667W        W 9411   5.298   8.496   1.499
 5668W        W 9412   2.485   6.148   0.458
 5669W        W 9413   3.102   0.788  11.930
 5670W        W 9414   7.453   0.652  11.387
 5671W        W 9415   0.537   6.044   2.187
 5672W        W 9416   7.338   6.114   3.207
 5673W        W 9417   5.636   4.094  10.972
 5674W        W 9418   4.361   8.577   1.324
 5675W        W 9419  10.371   7.029  11.237
 5676W        W 9420   5.889   7.098  10.453
 5677W        W 9421   4.992   8.000   0.823
 5678W        W 9422   6.439   3.657   9.923
 5679W        W 9423   1.697   3.538   9.333
 5680W        W 9424   2.772   1.922   0.418
 5681W        W 9425   2.870   6.955   9.402
 5682W        W 9426   0.903   6.615   8.945
 5683W        W 9427   7.972   2.689   2.331
 5684W        W 9428   4.053   2.649   2.710
 5685W        W 9429   0.905   6.126   2.510
 5686W        W 9430  10.291   7.910   0.405
 5687W        W 9431   8.538   0.240   3.227
 5688W        W 9432   0.201   0.877   3.254
 5689W        W 9433   3.456   0.523   3.528
 5690W        W 9434   4.623   4.102   7.882
 5691W        W 9435   7.366   6.537   0.311
 5692W        W 9436   3.195   9.996   2.876
 5693W        W 9437   6.901   9.795   2.588
 5694W        W 9438   7.698   1.843   2.962
 5695W        W 9439  10.417   8.904   9.681
 5696W        W 9440   3.825   2.757  10.549
 5697W        W 9441   9.370   9.088   0.033
 5698W        W 9442   0.019   2.742   8.611
 5699W        W 9443   8.856   5.831   0.329
 5700W        W 9444   4.989   0.822   2.667
 5701W        W 9445   6.616   6.455   1.794
 5702W        W 9446   8.958   7.438   1.573
 5703W        W 9447   5.377   2.735   3.398
 5704W        W 9448  10.038   0.901   9.616
 5705W        W 9449   2.341   5.838   3.229
 5706W        W 9450   6.446   1.144   1.923
 5707W        W 9451   2.679   8.395   2.864
 5708W        W 9452   7.876   7.440  11.514
 5709W        W 9453   6.149   2.065   2.799
 5710W        W 9454   4.163   7.129   1.457
 5711W        W 9455   8.844   8.904   3.356
 5712W        W 9456   3.430   2.675   2.518
 5713W        W 9457   2.958   1.124   8.298
 5714W        W 9458   9.299   3.028   9.400
 5715W        W 9459   8.826   7.537   3.070
 5716W        W 9460   5.131   5.260   9.055
 5717W        W 9461   9.730   5.602  11.672
 5718W        W 9462  10.078   2.170   3.222
 5719W        W 9463  10.441   2.721   2.589
 5720W        W 9464   6.420   6.055  10.846
 5721W        W 9465   7.215   9.674   8.487
 5722W        W 9466   8.625   4.487   0.795
 5723W        W 9467   4.205   3.123   0.896
 5724W        W 9468   4.376   9.507   2.850
 5725W        W 9469   6.137   8.558   3.355
 5726W        W 9470   7.381  10.210   8.812
 5727W        W 9471   9.386   7.945   0.976
 5728W        W 9472   4.746   4.530   9.075
 5729W        W 9473   2.870   6.695  10.295
 5730W        W 9474   3.543   2.398   0.489
 5731W        W 9475   1.418   8.643   0.146
 5732W        W 9476  10.048   6.483   0.133
 5733W        W 9477   6.190  10.051  10.902
 5734W        W 9478   1.707   8.309   3.618
 5735W        W 9479   4.582   9.075   1.358
 5736W        W 9480   9.033   9.091   0.446
 5737W        W 9481   7.384   3.235   1.355
 5738W        W 9482   5.952   2.608   9.407
 5739W        W 9483   3.682   6.265   8.954
 5740W        W 9484   8.014   2.876   9.727
 5741W        W 9485   0.225   3.038  11.433
 5742W        W 9486   2.114   3.432  10.165
 5743W        W 9487   0.876   2.382  11.444
 5744W        W 9488   1.819   3.394   1.031
 5745W        W 9489   1.720   4.136   1.130
 5746W        W 9490   9.685   4.273   2.147
 5747W        W 9491   1.072   0.527   3.248
 5748W        W 9492   2.642   5.878   8.569
 5749W        W 9493   6.137   1.764   8.803
 5750W        W 9494   9.461   5.511   8.852
 5751W        W 9495   4.064   0.935   2.389
 5752W        W 9496   2.414   4.201   2.416
 5753W        W 9497   8.895   9.943   9.511
 5754W        W 9498   8.714   2.371  11.068
 5755W        W 9499   6.014   3.835   9.220
 5756W        W 9500   1.617   0.804   3.277
 5757W        W 9501   1.470   4.603   2.196
 5758W        W 9502   2.257   2.333  10.641
 5759W        W 9503   6.149   9.376  10.022
 5760W        W 9504   8.981   8.876   2.296
 5761W        W 9505   9.401   7.292  11.489
 5762W        W 9506   1.130   7.923   9.997
 5763W        W 9507   9.279   5.060   0.749
 5764W        W 9508   3.728   3.635   0.925
 5765W        W 9509   9.931   9.547   2.134
 5766W        W 9510   9.590   4.810   3.795
 5767W        W 9511   6.921   6.541   3.765
 5768W        W 9512   9.487   4.818   2.782
 5769W        W 9513   3.333   3.220   9.593
 5770W        W 9514   7.437   2.311   3.078
 5771W        W 9515   4.079   8.246  11.777
 5772W        W 9516   9.020   7.476   8.832
 5773W        W 9517   2.554   0.742  10.065
 5774W        W 9518   9.427   9.131   2.863
 5775W        W 9519   0.203   9.532   2.817
 5776W        W 9520   8.306   6.222   9.996
 5777W        W 9521   9.990   4.533   8.933
 5778W        W 9522   8.404   7.000   1.885
 5779W        W 9523  10.295   4.095   1.872
 5780W        W 9524   1.731   0.785   2.752
 5781W        W 9525   1.065  10.010   0.985
 5782W        W 9526   5.833   0.322   9.712
 5783W        W 9527   3.693   2.257   2.673
 5784W        W 9528   2.362   6.217   1.299
 5785W        W 9529   2.275   2.982   9.363
 5786W        W 9530   9.729   7.651  10.672
 5787W        W 9531   4.606   1.342   1.575
 5788W        W 9532   2.413   9.373  10.740
 5789W        W 9533   9.369   5.873   2.734
 5790W        W 9534   9.471   0.303   1.525
 5791W        W 9535   5.922   6.872   0.739
 5792W        W 9536   7.588   4.579   8.635
 5793W        W 9537   3.142   7.024   9.974
 5794W        W 9538   1.845   9.451   1.977
 5795W        W 9539   5.573   9.935   2.221
 5796W        W 9540   9.117   7.210   0.184
 5797W        W 9541   5.100   5.571   2.658
 5798W        W 9542   6.543   0.314  10.467
 5799W        W 9543   2.266   4.956  10.311
 5800W        W 9544   8.540   8.378   0.682
 5801W        W 9545   9.872   2.661   0.389
 5802W        W 9546   9.598   0.797   1.389
 5803W        W 9547   8.334   0.483  11.779
 5804W        W 9548   7.559   0.591  10.373
 5805W        W 9549   8.175   7.973   9.232
 5806W        W 9550   2.252   0.193  10.897
 5807W        W 9551   2.323   1.609   2.166
 5808W        W 9552   1.846   9.581   3.397
 5809W        W 9553   1.161   9.082  10.678
 5810W        W 9554   6.465   7.809  10.300
 5811W        W 9555   3.593   5.102   0.215
 5812W        W 9556   8.043   6.936  10.837
 5813W        W 9557   6.547   3.243   9.143
 5814W        W 9558   9.048   4.073   8.664
 5815W        W 9559   4.184   5.732   2.333
 5816W        W 9560   0.785   7.432   3.154
 5817W        W 9561   0.699   2.134   0.442
 5818W        W 9562   7.594   1.840   1.146
 5819W        W 9563   3.257   4.214   3.560
 5820W        W 9564   5.935   8.043   8.338
 5821W        W 9565   9.609   5.060  10.064
 5822W        W 9566   8.693   5.776   3.526
 5823W        W 9567   4.888   9.504   9.954
 5824W        W 9568   9.748   3.338  10.197
 5825W        W 9569   4.488   1.842   1.383
 5826W        W 9570   4.276   0.672  11.307
 5827W        W 9571   4.141   7.747  11.797
 5828W        W 9572   2.568   1.695   9.479
 5829W        W 9573   8.110   4.647   9.426
 5830W        W 9574   0.463   5.592   2.442
 5831W        W 9575   6.423   7.446  11.711
 5832W        W 9576   3.230   9.528   3.188
 5833W        W 9577   0.862   8.327   9.061
 5834W        W 9578   8.524   9.928   1.000
 5835W        W 9579   9.066   5.018  11.843
 5836W        W 9580   8.161   4.243   9.103
 5837W        W 9581   3.486   8.446  10.016
 5838W        W 9582   9.454   5.842   9.548
 5839W        W 9583   9.624   9.361   1.418
 5840W        W 9584   6.078   3.031   2.827
 5841W        W 9585   5.747   7.825  11.747
 5842W        W 9586   1.466   3.238  11.338
 5843W        W 9587   9.140   6.639   2.145
 5844W        W 9588   5.222   1.906   0.260
 5845W        W 9589   0.689   4.270   2.737
 5846W        W 9590  10.152   9.081  10.920
 5847W        W 9591   0.401   0.317   9.560
 5848W        W 9592   3.214   7.154   2.608
 5849W        W 9593   7.844   6.933   1.904
 5850W        W 9594   9.087   0.411   3.238
 5851W        W 9595   8.935   3.668   2.490
 5852W        W 9596   4.083   0.907   9.495
 5853W        W 9597   4.481   7.184  10.516
 5854W        W 9598   3.351   3.618  11.899
 5855W        W 9599   2.732   9.830   2.730
 5856W        W 9600   3.612   9.839   3.111
 5857W        W 9601   6.384   9.584   8.812
 5858W        W 9602   3.151   9.775   0.280
 5859W        W 9603   0.203   8.058   1.666
 5860W        W 9604   4.396   5.715   2.796
 5861W        W 9605   6.214   1.499   3.655
 5862W        W 9606   1.837   7.771  10.432
 5863W        W 9607   9.350   2.502   9.398
 5864W        W 9608   8.060   7.711   8.597
 5865W        W 9609   2.801   6.328   4.139
 5866W        W 9610   5.479   5.527   2.250
 5867W        W 9611   5.988  10.157   3.630
 5868W        W 9612   3.182   9.395   2.162
 5869W        W 9613   0.248   5.441  11.810
 5870W        W 9614   0.098   2.752   3.523
 5871W        W 9615   5.414  10.382   2.471
 5872W        W 9616   1.004   0.884   2.170
 5873W        W 9617   0.827   3.582   9.868
 5874W        W 9618   8.287   1.422   2.165
 5875W        W 9619   3.778   4.138   3.250
 5876W        W 9620   8.787  10.292   1.372
 5877W        W 9621   4.066   6.230   2.388
 5878W        W 9622   7.516   3.125   8.653
 5879W        W 9623   4.123   4.117   8.666
 5880W        W 9624   6.935   8.944  10.966
 5881W        W 9625   5.463   2.669   9.653
 5882W        W 9626   3.186   9.333   9.537
 5883W        W 9627   8.916   7.925  11.131
 5884W        W 9628   6.465   5.160   9.872
 5885W        W 9629   1.188  10.088   2.282
 5886W        W 9630   1.183   6.672   9.365
 5887W        W 9631   6.513   7.536   9.558
 5888W        W 9632   8.549   3.058   0.883
 5889W        W 9633   7.391   4.994  10.732
 5890W        W 9634  10.236   2.479   3.732
 5891W        W 9635   3.073   7.129   3.130
 5892W        W 9636   7.138   4.703   2.887
 5893W        W 9637  10.305   6.563   0.563
 5894W        W 9638   0.392   8.455   0.838
 5895W        W 9639   2.045   8.685   3.661
 5896W        W 9640   7.027   7.498   2.878
 5897W        W 9641   6.062  10.068   2.053
 5898W        W 9642   1.645   8.984  11.833
 5899W        W 9643   4.837   6.975  10.841
 5900W        W 9644   0.570   3.139  10.000
 5901W        W 9645   0.251   8.531   1.866
 5902W        W 9646   5.138   3.674  11.652
 5903W        W 9647   5.673   2.822  11.860
 5904W        W 9648   2.288   6.015  11.264
 5905W        W 9649   4.702   5.564  10.708
 5906W        W 9650   4.282   3.359   0.196
 5907W        W 9651   5.442   9.619   9.322
 5908W        W 9652   3.880   5.263   1.729
 5909W        W 9653   4.170   7.477   3.550
 5910W        W 9654   4.105   7.903   9.221
 5911W        W 9655   0.836   1.886  11.614
 5912W        W 9656   5.536   2.919  10.129
 5913W        W 9657   3.470   2.186  11.861
 5914W        W 9658   9.097   7.174   9.839
 5915W        W 9659   3.851   7.151   9.364
 5916W        W 9660   6.737   7.992   1.517
 5917W        W 9661   6.180   9.350   0.826
 5918W        W 9662   0.979   7.457   0.415
 5919W        W 9663   8.606   8.696   0.288
 5920W        W 9664   2.682  10.423   0.097
 5921W        W 9665   8.796   3.302  10.565
 5922W        W 9666   1.264   7.760  11.789
 5923W        W 9667   7.383   5.624   2.592
 5924W        W 9668   8.378  10.217   9.793
 5925W        W 9669   6.742  10.441   3.022
 5926W        W 9670   5.558   9.148   9.193
 5927W        W 9671   3.937   0.619   3.387
 5928W        W 9672   2.084   1.118  11.302
 5929W        W 9673   3.937  10.242   0.818
 5930W        W 9674   6.830   7.911   9.400
 5931W        W 9675   8.827   5.045  11.396
 5932W        W 9676   6.132   0.847   2.278
 5933W        W 9677  10.426   3.711   2.664
 5934W        W 9678  10.049   0.972   2.300
 5935W        W 9679   9.372   1.628   8.658
 5936W        W 9680   2.756   4.069   8.971
 5937W        W 9681   2.780   5.087   0.500
 5938W        W 9682   0.848   3.145  10.430
 5939W        W 9683   8.941   6.430  10.728
 5940W        W 9684   4.769   8.982   3.361
 5941W        W 9685   0.859   2.301  10.523
 5942W        W 9686   0.662   9.750   2.912
 5943W        W 9687   7.557  10.449  10.900
 5944W        W 9688   2.571   0.806   1.017
 5945W        W 9689   0.903   8.840   2.948
 5946W        W 9690   1.865   7.400   2.982
 5947W        W 9691  10.391   0.402   9.409
 5948W        W 9692   2.833   0.359  10.298
 5949W        W 9693   8.890   9.779   2.591
 5950W        W 9694   6.124   8.494   9.063
 5951W        W 9695   5.569   5.376  11.381
 5952W        W 9696   2.294   2.372   8.721
 5953W        W 9697   0.429  10.488   9.981
 5954W        W 9698   2.808   3.152   9.433
 5955W        W 9699   5.054   1.810  11.262
 5956W        W 9700   5.757   5.539  11.825
 5957W        W 9701   2.218   0.253   2.298
 5958W        W 9702   7.493   6.567   2.950
 5959W        W 9703   5.204   9.212  10.225
 5960W        W 9704   5.566   5.590   9.457
 5961W        W 9705   6.981   8.401  11.470
 5962W        W 9706   7.034   1.700   9.023
 5963W        W 9707   5.620   1.242   9.774
 5964W        W 9708   2.344   6.910  11.986
 5965W        W 9709   7.530   9.407  11.919
 5966W        W 9710   0.952   3.589   3.212
 5967W        W 9711   4.021   3.577  10.025
 5968W        W 9712   3.651   5.149  10.252
 5969W        W 9713   8.873   9.452   0.821
 5970W        W 9714   4.951   8.180   9.265
 5971W        W 9715   0.899   5.565  10.722
 5972W        W 9716   1.873   6.523  10.752
 5973W        W 9717   9.784   7.655   1.326
 5974W        W 9718   6.623   7.248   9.150
 5975W        W 9719   2.665   5.146  11.993
 5976W        W 9720   7.594   7.529   8.443
 5977W        W 9721   3.572  10.499   0.226
 5978W        W 9722  10.268   8.668  11.844
 5979W        W 9723   4.259   7.254   0.984
 5980W        W 9724   0.980   3.335  11.269
 5981W        W 9725   2.141   4.935   1.290
 5982W        W 9726   4.311   8.845   8.918
 5983W        W 9727   9.545   2.200  11.281
 5984W        W 9728   1.845   5.986   2.053
 5985W        W 9729   5.597  10.055   9.092
 5986W        W 9730   0.214   8.281  10.413
 5987W        W 9731   0.782   7.390  11.539
 5988W        W 9732   9.207   2.163   2.172
 5989W        W 9733   8.575   1.954  10.150
 5990W        W 9734   7.878   1.443   1.465
 5991W        W 9735   3.392   4.729   2.708
 5992W        W 9736   7.878   7.098  11.895
 5993W        W 9737   8.611   3.888   0.567
 5994W        W 9738   5.563   5.878   1.553
 5995W        W 9739   0.457   6.650   0.847
 5996W        W 9740   6.088   4.787   9.837
 5997W        W 9741   6.415   7.009   9.593
 5998W        W 9742   8.817   3.691   9.561
 5999W        W 9743   7.104   3.617   1.561
 6000W        W 9744   2.494   0.684   2.382
 6001W        W 9745   9.877   8.731   2.496
 6002W        W 9746   8.747   8.392  10.347
 6003W        W 9747   4.083   5.582   0.051
 6004W        W 9748   1.407   0.847   9.007
 6005W        W 9749   8.331   3.269   2.417
 6006W        W 9750   2.929   2.722   2.612
 6007W        W 9751   4.697   8.493   3.536
 6008W        W 9752   4.800   2.115  10.031
 6009W        W 9753   9.985   7.467   0.408
 6010W        W 9754   7.510  10.007   3.266
 6011W        W 9755   0.694  10.412   1.280
 6012W        W 9756   3.953   4.761   9.377
 6013W        W 9757   0.726   5.436   1.298
 6014W        W 9758   0.354   3.867   0.342
 6015W        W 9759   6.609   1.007   0.831
 6016W        W 9760   9.526   9.398  11.544
 6017W        W 9761   7.449   9.078  10.883
 6018W        W 9762   3.341   6.065   0.246
 6019W        W 9763   8.944   1.249   9.775
 6020W        W 9764   3.234   0.182  10.893
 6021W        W 9765   4.698   4.985   1.609
 6022W        W 9766   0.420   5.739   0.990
 6023W        W 9767   4.934   8.901  11.049
 6024W        W 9768   9.969   6.916   9.894
 6025W        W 9769   8.602   7.790  11.970
 6026W        W 9770   5.811   4.334  10.000
 6027W        W 9771   8.114   4.281  10.919
 6028W        W 9772   0.242   8.977   3.503
 6029W        W 9773  10.232   2.267  10.150
 6030W        W 9774   0.918   9.056   0.478
 6031W        W 9775   8.388   8.967   1.492
 6032W        W 9776   3.935   4.518   1.031
 6033W        W 9777   1.222   1.780   3.433
 6034W        W 9778  10.242   3.645   0.503
 6035W        W 9779   6.821   0.800   1.237
 6036W        W 9780   3.011   1.702   0.815
 6037W        W 9781   4.300   8.734   3.320
 6038W        W 9782   3.057   9.219  10.043
 6039W        W 9783   0.041   5.478   8.549
 6040W        W 9784   1.585   3.353  11.840
 6041W        W 9785   7.588   1.271   9.036
 6042W        W 9786   5.237   3.596  10.715
 6043W        W 9787   4.830   3.699  11.008
 6044W        W 9788   1.044   5.874   1.237
 6045W        W 9789   1.818   1.948   3.740
 6046W        W 9790   7.882   5.585   2.673
 6047W        W 9791   1.356   6.017  11.354
 6048W        W 9792   0.698   3.908   3.543
 6049W        W 9793   0.965   3.332   0.699
 6050W        W 9794   5.254   8.421   0.982
 6051W        W 9795   4.406   1.139  11.478
 6052W        W 9796   3.100   3.975   0.787
 6053W        W 9797   2.812   8.946   1.654
 6054W        W 9798   0.312   1.097   0.969
 6055W        W 9799   7.663   6.820  10.005
 6056W        W 9800   6.925   3.764   8.560
 6057W        W 9801   8.329   7.560   3.223
 6058W        W 9802   5.672   9.184   2.618
 6059W        W 9803   1.120   0.041   1.009
 6060W        W 9804   0.064   1.150   1.415
 6061W        W 9805   0.673   5.241  10.372
 6062W        W 9806   6.201   5.599  10.848
 6063W        W 9807   3.174   9.184  10.898
 6064W        W 9808   9.155   6.922  11.215
 6065W        W 9809   9.759  10.445   2.218
 6066W        W 9810   3.178   7.107   8.563
 6067W        W 9811   4.976   6.611   9.440
 6068W        W 9812  10.128   4.170   2.365
 6069W        W 9813   0.092   3.722   1.655
 6070W        W 9814   7.873   7.323   3.210
 6071W        W 9815   1.216   6.442   3.123
 6072W        W 9816   0.888   4.475   0.724
 6073W        W 9817   7.877   2.133   3.356
 6074W        W 9818   7.757   7.984   8.897
 6075W        W 9819   3.607   8.068   1.192
 6076W        W 9820   7.653   5.242   2.342
 6077W        W 9821   6.111   2.330   3.232
 6078W        W 9822   2.451   2.430  10.173
 6079W        W 9823   8.585   7.337   9.933
 6080W        W 9824   4.533   8.044   9.500
 6081W        W 9825   3.646   4.075  11.983
 6082W        W 9826   2.610   2.770  11.102
 6083W        W 9827   3.375   4.148   9.841
 6084W        W 9828   0.404   8.128  11.269
 6085W        W 9829   6.620   4.348   1.425
 6086W        W 9830   3.025   6.787   1.621
 6087W        W 9831   1.194   9.904  10.040
 6088W        W 9832   0.878   1.422   8.582
 6089W        W 9833   1.507  10.234   0.847
 6090W        W 9834   8.927   4.842   1.052
 6091W        W 9835   5.301   4.294   9.865
 6092W        W 9836   4.594   2.270   0.577
 6093W        W 9837   3.370   6.657   3.470
 6094W        W 9838   8.927   2.231   9.558
 6095W        W 9839  10.171   1.733  10.965
 6096W        W 9840   1.374   7.346   3.547
 6097W        W 9841   8.371   4.216  10.478
 6098W        W 9842   0.341   9.987   9.129
 6099W        W 9843   6.202   7.644  10.816
 6100W        W 9844   0.273   7.558   9.087
 6101W        W 9845   6.260   7.818   2.857
 6102W        W 9846   8.834   1.769   0.194
 6103W        W 9847   2.595   5.070   1.009
 6104W        W 9848   8.836   6.257   2.322
 6105W        W 9849   2.729   7.220  11.113
 6106W        W 9850   4.489   0.673   1.457
 6107W        W 9851   1.931   4.652  10.687
 6108W        W 9852   0.775   5.108   3.283
 6109W        W 9853   9.360   4.059   3.406
 6110W        W 9854   0.898   5.643   0.801
 6111W        W 9855   8.635   2.724   2.722
 6112W        W 9856   1.661   6.460   1.945
 6113W        W 9857   3.758   6.602   0.372
 6114W        W 9858   8.885   4.265   3.311
 6115W        W 9859   2.396   3.395   1.322
 6116W        W 9860   7.614   9.587   3.020
 6117W        W 9861   9.611   9.513   3.662
 6118W        W 9862   6.565  10.005   9.756
 6119W        W 9863   3.132   4.100  11.849
 6120W        W 9864   8.892   1.004   1.666
 6121W        W 9865   7.836  10.334   2.262
 6122W        W 9866   6.219   0.270   2.978
 6123W        W 9867   5.949   3.176   3.667
 6124W        W 9868   9.919   0.806   0.492
 6125W        W 9869   3.274   8.844   9.772
 6126W        W 9870   7.605   9.956   2.016
 6127W        W 9871   8.763   2.222   1.015
 6128W        W 9872   0.478   8.515   9.982
 6129W        W 9873   3.277   3.587  11.394
 6130W        W 9874   1.418   4.663  10.635
 6131W        W 9875   3.842   1.845   1.251
 6132W        W 9876   5.884   3.689   3.805
 6133W        W 9877   1.316   5.053   0.214
 6134W        W 9878   1.306   3.290   9.087
 6135W        W 9879   7.648   7.528   0.750
 6136W        W 9880   3.830   4.443   2.248
 6137W        W 9881   6.197   7.693   3.461
 6138W        W 9882   6.578   9.453   0.156
 6139W        W 9883   8.075   0.717  10.205
 6140W        W 9884   4.160   7.654  11.095
 6141W        W 9885   6.665   0.712   1.728
 6142W        W 9886   7.712   8.658   0.094
 6143W        W 9887   7.456   8.394   9.023
 6144W        W 9888   8.400   2.862   3.239
 6145W        W 9889   9.307   5.714  11.160
 6146W        W 9890   3.737   4.361   9.070
 6147W        W 9891   3.340   8.517   2.291
 6148W        W 9892   1.813   8.996   1.740
 6149W        W 9893   9.827   8.989   8.929
 6150W        W 9894   5.614   0.612   0.822
 6151W        W 9895   3.717   8.361   0.772
 6152W        W 9896   8.482   2.376   9.768
 6153W        W 9897   2.342   9.800  11.023
 6154W        W 9898   8.606   1.184  11.418
 6155W        W 9899   3.991   0.776   2.894
 6156W        W 9900   6.971   7.467   0.233
 6157W        W 9901   6.509   8.299  11.879
 6158W        W 9902   4.111   4.173   2.849
 6159W        W 9903   3.326   4.570   2.157
 6160W        W 9904   7.347  10.284   2.388
 6161W        W 9905   6.045   6.691   0.277
 6162W        W 9906   3.372   4.477   9.401
 6163W        W 9907   6.537   1.717   9.164
 6164W        W 9908   5.791   5.973   0.731
 6165W        W 9909   0.315   3.401   2.915
 6166W        W 9910  10.014   1.745   0.926
 6167W        W 9911   8.439   1.502   3.168
 6168W        W 9912   6.778   0.745  10.198
 6169W        W 9913   8.812   9.400   3.512
 6170W        W 9914   4.903   2.658   3.141
 6171W        W 9915   0.568   9.536   0.173
 6172W        W 9916   4.829   2.801   1.429
 6173W        W 9917   7.592   3.736   3.382
 6174W        W 9918   6.083   0.686  11.784
 6175W        W 9919   5.960   9.371   2.212
 6176W        W 9920   8.771   2.268  10.567
 6177W        W 9921   7.626   4.104  10.898
 6178W        W 9922   9.067   8.461  11.339
 6179W        W 9923   7.433   6.155   2.248
 6180W        W 9924   2.553   7.479   1.436
 6181W        W 9925   5.262   6.460   0.667
 6182W        W 9926   1.603   9.875  11.539
 6183W        W 9927   0.865   7.532   9.789
 6184W        W 9928  10.012   5.356   0.028
 6185W        W 9929  10.321   2.283   0.051
 6186W        W 9930   6.844   6.144  10.109
 6187W        W 9931   2.464  10.375   0.732
 6188W        W 9932   3.354   2.818  10.416
 6189W        W 9933   0.352   0.293   1.394
 6190W        W 9934   5.253   6.264  11.535
 6191W        W 9935   1.723   1.617   2.816
 6192W        W 9936   3.263   7.860   9.555
 6193W        W 9937   5.328   6.055   0.335
 6194W        W 9938   1.092   3.159   9.964
 6195W        W 9939   7.349  10.175   0.187
 6196W        W 9940   7.409   0.713   2.507
 6197W        W 9941   3.670  10.433  11.724
 6198W        W 9942   0.428   6.138  10.297
 6199W        W 9943   2.722   0.795  10.561
 6200W        W 9944   4.039   5.074  11.971
 6201W        W 9945   1.314   9.691   3.781
 6202W        W 9946  10.007   8.982   1.381
 6203W        W 9947   5.781   1.571   1.003
 6204W        W 9948   1.500   5.985   0.300
 6205W        W 9949   9.564   8.137  10.263
 6206W        W 9950   4.691   4.086   3.654
 6207W        W 9951   7.280   2.795   9.949
 6208W        W 9952   5.739   7.334  10.870
 6209W        W 9953   1.168   6.129   0.726
 6210W        W 9954   2.677   5.553   3.508
 6211W        W 9955  10.236   4.181   3.408
 6212W        W 9956   2.339   5.226   9.858
 6213W        W 9957   6.772   0.274  10.008
 6214W        W 9958   5.148   3.869  10.269
 6215W        W 9959   3.781   3.754   2.896
 6216W        W 9960   0.313   6.464   2.357
 6217W        W 9961   8.766   1.403   1.962
 6218W        W 9962  10.152   1.691   2.941
 6219W        W 9963   7.000   6.530   2.785
 6220W        W 9964   9.508   1.340   9.091
 6221W        W 9965   3.858   2.645   3.486
 6222W        W 9966   6.488   8.804  11.926
 6223W        W 9967   2.072   1.705   9.594
 6224W        W 9968   3.287   8.569   0.967
 6225W        W 9969  10.390   7.702   1.875
 6226W        W 9970   1.207   2.129   0.345
 6227W        W 9971   6.224   4.127   2.615
 6228W        W 9972   9.604   8.493  11.381
 6229W        W 9973   8.458   2.633  11.432
 6230W        W 9974   9.319   7.340  10.589
 6231W        W 9975   3.690   9.248   3.384
 6232W        W 9976   5.935   8.073   3.205
 6233W        W 9977   3.514   4.855   1.006
 6234W        W 9978   4.298   9.820   9.356
 6235W        W 9979   2.237   3.488   9.327
 6236W        W 9980   7.424   1.910   3.450
 6237W        W 9981   2.373   8.848   8.973
 6238W        W 9982   9.463   1.739  10.022
 6239W        W 9983   5.923   7.357  11.760
 6240W        W 9984   7.888  10.367  11.433
 6241W        W 9985   0.568   8.156   2.019
 6242W        W 9986  10.313   7.762   2.383
 6243W        W 9987   9.013   4.528   0.095
 6244W        W 9988   3.867   6.161   1.808
 6245W        W 9989   0.814   2.595   2.476
 6246W        W 9990  10.346   9.559  10.961
 6247W        W 9991   2.856   1.088   1.777
 6248W        W 9992   9.663   5.972   9.995
 6249W        W 9993   9.458   1.179  11.433
 6250W        W 9994   1.491   5.455   3.464
 6251W        W 9995   1.436   3.223   1.632
 6252W        W 9996   6.007   9.798   2.477
 6253W        W 9997   5.818   8.715   2.739
 6254W        W 9998   7.181   0.842   1.609
 6255W        W 9999   6.967   5.645   9.383
 6256W        W10000   7.620   1.565  10.546
 6257W        W10001   2.154   2.814   3.091
 6258W        W10002   8.882  10.211   2.247
 6259W        W10003   1.012   7.916  10.503
 6260W        W10004   0.413   6.662   9.846
 6261W        W10005   4.084   7.019  10.834
 6262W        W10006   9.998   0.892  11.451
 6263W        W10007   5.173   1.688   9.240
 6264W        W10008   5.058   6.081  10.072
 6265W        W10009   2.824   7.625  10.615
 6266W        W10010   3.445   7.595   8.494
 6267W        W10011   6.427   4.181   3.115
 6268W        W10012   5.914  10.332   2.461
 6269W        W10013  10.228   4.123   9.195
 6270W        W10014   9.775   5.192   2.989
 6271W        W10015   9.931   3.228   1.968
 6272W        W10016   1.805   9.438   9.460
 6273W        W10017   0.398   0.848  11.563
 6274W        W10018  10.240   3.264   2.434
 6275W        W10019   9.315   6.589   3.533
 6276W        W10020  10.464   4.724   9.081
 6277W        W10021   0.826   1.477   9.485
 6278W        W10022   8.080   7.895   1.303
 6279W        W10023   6.282   7.881   1.760
 6280W        W10024   9.248   0.775  10.930
 6281W        W10025   6.513   6.919  10.081
 6282W        W10026   7.107  10.285   3.345
 6283W        W10027   4.305   4.302   2.402
 6284W        W10028   0.906   0.807  10.749
 6285W        W10029   0.910   4.682   3.525
 6286W        W10030   8.465   7.716   2.314
 6287W        W10031   0.466   2.570   0.685
 6288W        W10032   8.577   7.477   1.874
 6289W        W10033   2.202   1.474   2.671
 6290W        W10034   9.559   1.951  10.492
 6291W        W10035   9.093   7.628  11.884
 6292W        W10036   9.377   8.400   1.263
 6293W        W10037   1.356   8.027   1.417
 6294W        W10038   4.416   9.016   2.926
 6295W        W10039   6.749   1.357  11.025
 6296W        W10040   0.404   3.762   2.043
 6297W        W10041   9.386   6.645   8.927
 6298W        W10042  10.440   2.268  11.564
 6299W        W10043   1.603   0.819  11.904
 6300W        W10044   5.207   3.332  10.301
 6301W        W10045   3.780   7.400  11.883
 6302W        W10046  10.479   3.583  10.432
 6303W        W10047   1.929   0.054   0.033
 6304W        W10048   7.409   1.666   0.255
 6305W        W10049   7.424   9.289   0.680
 6306W        W10050  10.499   9.585   9.084
 6307W        W10051   7.822   6.985   2.414
 6308W        W10052   2.635   1.686   3.226
 6309W        W10053   7.048   0.656   2.101
 6310W        W10054  10.218   4.664   9.540
 6311W        W10055   7.933   5.654  11.303
 6312W        W10056   5.695   0.762   2.030
 6313W        W10057  10.032   5.547   8.391
 6314W        W10058   1.738   1.192  10.362
 6315W        W10059   9.435   1.596  11.801
 6316W        W10060   8.161   4.547  11.683
 6317W        W10061   1.609   8.961  10.929
 6318W        W10062   7.374   4.323  10.488
 6319W        W10063  10.495   1.912   0.986
 6320W        W10064   2.340   9.210   9.440
 6321W        W10065   6.773   5.064  10.613
 6322W        W10066   7.429   3.623  10.944
 6323W        W10067   8.922   7.466  11.386
 6324W        W10068   7.890   5.076   9.571
 6325W        W10069   7.432   4.223   2.158
 6326W        W10070   1.921   8.428   0.848
 6327W        W10071   4.551   0.681   9.569
 6328W        W10072   9.974   1.787  11.952
 6329W        W10073   3.650   9.098   9.503
 6330W        W10074   2.214   9.945  10.114
 6331W        W10075   4.836   1.771   2.442
 6332W        W10076   9.036   3.684   0.757
 6333W        W10077   0.451   3.148   1.953
 6334W        W10078  10.460   5.071   0.073
 6335W        W10079   8.876   6.485  11.246
 6336W        W10080   8.852   8.486   8.918
 6337W        W10081   1.499   7.005   2.265
 6338W        W10082   2.629   7.340   8.166
 6339W        W10083   0.301   7.635  11.379
 6340W        W10084   2.230  10.223   0.279
 6341W        W10085   4.077   1.800   1.695
 6342W        W10086   5.662   2.145   2.403
 6343W        W10087   7.573   7.481   9.443
 6344W        W10088   5.076   2.122   9.021
 6345W        W10089   9.052   6.190  11.982
 6346W        W10090   5.325   6.778   3.604
 6347W        W10091   9.336   3.877   9.609
 6348W        W10092   5.354   4.765  10.629
 6349W        W10093   2.208   9.827   1.930
 6350W        W10094   3.453   6.643   1.841
 6351W        W10095   6.644   3.277   9.642
 6352W        W10096   5.985   0.801   9.083
 6353W        W10097   1.703   1.843   3.263
 6354W        W10098   4.289  10.390   8.669
 6355W        W10099   4.606   7.615  11.961
 6356W        W10100   2.255   6.485  11.102
 6357W        W10101   1.010  10.442  11.056
 6358W        W10102   2.188   2.034  11.628
 6359W        W10103   2.359   3.311   1.841
 6360W        W10104   6.497   2.091   3.477
 6361W        W10105   5.118   6.908   1.823
 6362W        W10106   5.442   2.563   0.815
 6363W        W10107   1.882   6.730   8.851
 6364W        W10108   5.592   9.757   0.461
 6365W        W10109   1.860   2.313   1.870
 6366W        W10110   6.491   4.034  11.376
 6367W        W10111   5.061  10.361  10.270
 6368W        W10112   8.000   4.594   3.456
 6369W        W10113   8.539   3.196   8.723
 6370W        W10114   1.333  10.452   8.721
 6371W        W10115  10.449  10.030   9.505
 6372W        W10116   0.815   0.733   2.740
 6373W        W10117   5.981   9.062   1.222
 6374W        W10118   4.318   0.444   0.202
 6375W        W10119   1.057   4.725  10.987
 6376W        W10120   7.558   6.381  10.888
 6377W        W10121   0.425   5.667  10.497
 6378W        W10122   7.703   5.763   3.127
 6379W        W10123   4.012   9.602   2.454
 6380W        W10124   1.776   5.061   0.426
 6381W        W10125   1.698   7.569   9.298
 6382W        W10126   6.174   2.799   1.672
 6383W        W10127   3.185  10.189  10.013
 6384W        W10128   6.653   8.879  10.537
 6385W        W10129   8.895  10.370   3.275
 6386W        W10130   6.280   7.069   2.302
 6387W        W10131   1.453   2.283   3.269
 6388W        W10132   8.785   9.986  10.006
 6389W        W10133   1.575   1.191   0.388
 6390W        W10134   3.637   8.965   0.071
 6391W        W10135   5.913   7.172   8.692
 6392W        W10136   8.322   4.174  11.369
 6393W        W10137   7.558   6.925  10.939
 6394W        W10138  10.487   8.428   9.573
 6395W        W10139   8.255   0.975   2.426
 6396W        W10140   9.767   7.604  11.353
 6397W        W10141  10.241   2.225   9.562
 6398W        W10142   4.014   0.944   8.465
 6399W        W10143   6.570   0.436  11.045
 6400W        W10144   7.552   1.788   8.978
 6401W        W10145   8.459   1.794   9.116
 6402W        W10146   2.693   6.106  11.551
 6403W        W10147   0.895   6.901   3.066
 6404W        W10148  10.221   5.378   2.808
 6405W        W10149   3.565   0.943   9.604
 6406W        W10150   9.890   4.961   1.693
 6407W        W10151   8.161   7.059   9.989
 6408W        W10152   7.313   8.746  11.268
 6409W        W10153   1.899  10.007  11.943
 6410W        W10154   8.080   7.428   8.167
 6411W        W10155   4.622   8.493  10.828
 6412W        W10156   3.031   8.507   1.880
 6413W        W10157   9.764   6.524   2.745
 6414W        W10158   0.820   3.779  10.349
 6415W        W10159   1.363   6.756   1.264
 6416W        W10160   5.226   1.373   0.501
 6417W        W10161  10.426   4.154   0.304
 6418W        W10162   0.695   1.676  11.168
 6419W        W10163   3.666   4.616  10.278
 6420W        W10164   4.414   2.356   9.823
 6421W        W10165   3.954   2.294   3.104
 6422W        W10166   1.155   6.678  10.283
 6423W        W10167   8.909   7.966   8.837
 6424W        W10168   0.658   8.037   9.938
 6425W        W10169   8.459  10.035   9.278
 6426W        W10170   1.297   8.717   0.621
 6427W        W10171   5.532   2.853   8.674
 6428W        W10172   4.378   8.073   1.468
 6429W        W10173   8.267   3.258   2.934
 6430W        W10174  10.354   5.160   1.505
 6431W        W10175   3.559   1.838   1.704
 6432W        W10176   0.984   6.902  11.590
 6433W        W10177   8.326   2.157   0.799
 6434W        W10178   4.613   5.991  10.961
 6435W        W10179   8.311   8.890  11.343
 6436W        W10180   1.842   9.923   2.626
 6437W        W10181   7.207   1.343  10.800
 6438W        W10182   4.626   9.628   1.854
 6439W        W10183   7.636   0.026   2.754
 6440W        W10184   6.951   6.312   0.495
 6441W        W10185   2.983   6.438   0.235
 6442W        W10186   5.114   7.156   3.322
 6443W        W10187   4.260  10.314  10.940
 6444W        W10188   0.759  10.464   2.310
 6445W        W10189   5.343   8.810   2.884
 6446W        W10190   6.060   4.210   8.418
 6447W        W10191   3.323   0.528   8.986
 6448W        W10192   0.834   4.353   1.222
 6449W        W10193   1.680   1.346  11.870
 6450W        W10194   0.561   6.646  11.474
 6451W        W10195   0.486   2.450   9.552
 6452W        W10196   8.146  10.029  11.720
 6453W        W10197   5.120   2.852  10.431
 6454W        W10198  10.476   3.778  10.942
 6455W        W10199   8.057   1.947   1.379
 6456W        W10200   6.729   2.709  10.851
 6457W        W10201   2.300   8.082   0.968
 6458W        W10202   3.186   6.614  10.829
 6459W        W10203   1.880   8.986  11.368
 6460W        W10204   6.684   9.836  10.920
 6461W        W10205   4.244   2.010  11.578
 6462W        W10206   1.645   7.001   0.500
 6463W        W10207   8.968   3.129  11.535
 6464W        W10208   1.357   0.222   1.464
 6465W        W10209   4.663   3.543   3.937
 6466W        W10210   2.339   8.739  11.334
 6467W        W10211   2.789   2.398   1.938
 6468W        W10212   1.397   5.702   0.926
 6469W        W10213   9.139   4.157  10.029
 6470W        W10214   9.864   2.388   9.269
 6471W        W10215   0.565   2.724  10.525
 6472W        W10216   0.892   2.157   2.715
 6473W        W10217   0.935   5.695   2.215
 6474W        W10218   4.864   8.650   1.204
 6475W        W10219   7.550   0.503   1.795
 6476W        W10220   2.160   6.008   0.861
 6477W        W10221   9.299   6.842   9.394
 6478W        W10222   6.985   9.720   9.486
 6479W        W10223   3.264   5.773   1.391
 6480W        W10224   8.441   4.097   1.839
 6481W        W10225   2.292   0.948   9.158
 6482W        W10226   2.419   4.514  10.785
 6483W        W10227   1.796   9.500  11.857
 6484W        W10228   4.371   8.449   8.566
 6485W        W10229   6.039   2.545   2.712
 6486W        W10230   7.266   0.384  10.927
 6487W        W10231   0.181  10.262   1.371
 6488W        W10232   0.328  10.190   2.182
 6489W        W10233   1.337   4.766   0.655
 6490W        W10234   8.085   9.777   1.867
 6491W        W10235   8.896   2.988   1.964
 6492W        W10236   7.425   9.477   1.169
 6493W        W10237   6.240   9.611   9.559
 6494W        W10238   3.592   9.344   9.949
 6495W        W10239   1.668   2.468   1.385
 6496W        W10240   7.392   7.040   9.640
 6497W        W10241   4.255   7.475   9.476
 6498W        W10242   1.942   7.297   2.375
 6499W        W10243   6.376   7.398   0.849
 6500W        W10244   1.388   9.317   8.747
 6501W        W10245   4.617   4.138   1.707
 6502W        W10246   6.646   9.506   9.861
 6503W        W10247   0.510   5.569   3.347
 6504W        W10248   2.279  10.307  11.756
 6505W        W10249   6.042   1.408   1.453
 6506W        W10250   6.206   5.200   0.512
 6507W        W10251   5.289   6.135   8.251
 6508W        W10252   0.912   3.876  11.266
 6509W        W10253   3.062   7.571   1.386
 6510W        W10254   7.498   5.270  11.934
 6511W        W10255   5.714   1.284  11.279
 6512W        W10256   7.808   2.283   1.844
 6513W        W10257   4.504   7.705   3.214
 6514W        W10258   3.813   4.524  10.785
 6515W        W10259   9.526   5.644  10.635
 6516W        W10260   5.982   2.232   1.751
 6517W        W10261   2.122   7.448   8.997
 6518W        W10262   0.194   7.335   1.542
 6519W        W10263   2.001   6.029   0.349
 6520W        W10264   5.664   4.371  10.523
 6521W        W10265   2.230   8.166   3.025
 6522W        W10266   7.421   1.444   2.185
 6523W        W10267   2.363   3.239   8.897
 6524W        W10268   6.442   5.697   1.398
 6525W        W10269   5.092   9.969   0.428
 6526W        W10270   4.643   2.334   2.348
 6527W        W10271  10.049   9.543   0.694
 6528W        W10272   4.147   7.691   2.351
 6529W        W10273   8.947   6.686   9.725
 6530W        W10274   7.897   8.455  10.402
 6531W        W10275   8.137   3.647   1.908
 6532W        W10276   8.346   5.248  11.374
 6533W        W10277   3.283   2.295   1.813
 6534W        W10278   0.344   9.462  11.725
 6535W        W10279   5.963   3.303   0.422
 6536W        W10280   3.817   6.555   1.466
 6537W        W10281   5.613   7.550   2.375
 6538W        W10282   7.457   6.049   0.337
 6539W        W10283   6.561   9.853  10.270
 6540W        W10284   7.389   0.650   0.312
 6541W        W10285   0.818   7.338   1.730
 6542W        W10286   5.067   3.737   3.670
 6543W        W10287   1.019   9.489   0.886
 6544W        W10288   5.048   5.130   2.404
 6545W        W10289   5.146   6.530   3.149
 6546W        W10290   4.752   6.259  11.394
 6547W        W10291   9.149   7.406   3.858
 6548W        W10292  10.309   4.118  11.726
 6549W        W10293   3.567   2.705   9.005
 6550W        W10294   2.099   5.124   0.829
 6551W        W10295   6.960   0.595   3.495
 6552W        W10296   1.724  10.002   3.150
 6553W        W10297   6.718   1.709  11.456
 6554W        W10298   1.207   5.157  10.774
 6555W        W10299   9.862   0.779   2.750
 6556W        W10300   0.594   9.305   3.250
 6557W        W10301   6.090   9.159  10.495
 6558W        W10302   7.408   1.168   0.337
 6559W        W10303   9.925   2.666   1.329
 6560W        W10304   9.714   4.320   2.659
 6561W        W10305   9.072   6.537   1.648
 6562W        W10306   8.822   3.118   2.968
 6563W        W10307   3.713   2.292   9.253
 6564W        W10308   1.295   6.269   9.965
 6565W        W10309   0.254  10.006   2.656
 6566W        W10310   9.005   0.754   8.508
 6567W        W10311   8.500   3.194  11.380
 6568W        W10312  10.354   0.418  10.463
 6569W        W10313   5.091   5.094   2.912
 6570W        W10314   6.469   0.871   9.811
 6571W        W10315   9.421   9.032   9.229
 6572W        W10316   8.951   5.530  10.260
 6573W        W10317  10.490   7.162  11.721
 6574W        W10318   3.867   1.892   2.160
 6575W        W10319   4.416   8.223   3.179
 6576W        W10320   7.947   8.382   1.191
 6577W        W10321   5.601   2.775   2.927
 6578W        W10322   5.196   4.010  11.245
 6579W        W10323   7.963   7.887   0.363
 6580W        W10324   7.164   9.671  11.021
 6581W        W10325   7.613   4.945   2.755
 6582W        W10326   5.691  10.422   9.430
 6583W        W10327   0.057   7.668   1.117
 6584W        W10328   6.225   1.592  11.516
 6585W        W10329   0.488   9.284   9.662
 6586W        W10330   0.446  10.444   1.760
 6587W        W10331   5.657   2.294   3.443
 6588W        W10332   8.352   4.943   3.416
 6589W        W10333   0.792   4.861   1.023
 6590W        W10334   4.604   1.136   3.132
 6591W        W10335   5.479   0.863   9.047
 6592W        W10336   5.088   7.601   4.004
 6593W        W10337   6.139   1.903   2.328
 6594W        W10338   2.232   2.379   2.822
 6595W        W10339   5.223   1.836   3.357
 6596W        W10340   8.694   6.919   0.181
 6597W        W10341   9.413   0.435   2.822
 6598W        W10342   9.398   3.087  11.789
 6599W        W10343   0.882   4.141   8.438
 6600W        W10344   4.793   5.597   0.796
 6601W        W10345   2.401   8.206   9.474
 6602W        W10346   5.001   5.622   2.152
 6603W        W10347  10.015   7.891  11.694
 6604W        W10348  10.209   8.666   8.703
 6605W        W10349   6.710   8.053   0.983
 6606W        W10350   1.291   9.456   9.753
 6607W        W10351   0.659   4.322  10.347
 6608W        W10352   5.628   3.111   4.070
 6609W        W10353   1.490   6.301  10.453
 6610W        W10354   8.202   4.178   8.166
 6611W        W10355   6.912   4.789  11.373
 6612W        W10356   0.080   8.795   1.212
 6613W        W10357   7.676   4.115   8.855
 6614W        W10358   9.031   5.260   1.466
 6615W        W10359   0.911   9.324   8.934
 6616W        W10360   6.961   8.829   2.377
 6617W        W10361   3.074   3.695   8.791
 6618W        W10362   4.139   2.629  10.140
 6619W        W10363   4.353   1.904   2.335
 6620W        W10364   0.237   9.035   2.984
 6621W        W10365   1.856   4.115  11.229
 6622W        W10366   9.297   7.036   0.945
 6623W        W10367   6.113   0.407   1.977
 6624W        W10368   7.449   3.781   1.199
 6625W        W10369   0.749   8.123   1.552
 6626W        W10370   5.596   3.879  10.497
 6627W        W10371  10.291   8.744   9.207
 6628W        W10372   8.086  10.298   2.684
 6629W        W10373   2.283   5.270   9.088
 6630W        W10374   8.559   6.106  11.843
 6631W        W10375   4.761   7.900   1.815
 6632W        W10376   2.380   4.953   8.609
 6633W        W10377   0.338   2.123  10.318
 6634W        W10378   6.419   6.515   9.392
 6635W        W10379   6.100  10.179  10.409
 6636W        W10380   8.901   0.373   9.645
 6637W        W10381   1.880   7.891   3.250
 6638W        W10382   2.640   6.096   2.384
 6639W        W10383   5.215   2.903   1.110
 6640W        W10384   2.801   1.517  11.205
 6641W        W10385   3.485   1.039  10.952
 6642W        W10386   5.501   3.863   3.441
 6643W        W10387  10.075   3.416  11.796
 6644W        W10388   3.093   8.993   1.238
 6645W        W10389   1.682   8.064  11.002
 6646W        W10390   8.761   5.997  10.460
 6647W        W10391   7.948   5.859   9.959
 6648W        W10392   3.521   1.925  11.033
 6649W        W10393   5.289   9.045   3.401
 6650W        W10394   9.345   9.868  11.632
 6651W        W10395   4.969   9.724   9.499
 6652W        W10396   3.390   5.936  11.348
 6653W        W10397   8.508   0.978  10.015
 6654W        W10398   5.246   2.636  10.929
 6655W        W10399   7.978   9.867   1.337
 6656W        W10400   4.889   7.780   2.748
 6657W        W10401   1.428   1.329  10.792
 6658W        W10402   4.218   8.726   2.227
 6659W        W10403   6.524   2.743   0.403
 6660W        W10404   2.228   5.620  10.950
 6661W        W10405   5.971   5.156  10.646
 6662W        W10406   1.471   9.726   0.816
 6663W        W10407   7.393   2.817   3.204
 6664W        W10408   1.907   5.393   1.251
 6665W        W10409   4.602   9.448  11.444
 6666W        W10410  10.085   0.031  10.991
 6667W        W10411   7.407   0.341  11.827
 6668W        W10412   3.682   5.836  10.951
 6669W        W10413   0.756   0.835   1.731
 6670W        W10414   3.969   1.815   2.670
 6671W        W10415  10.067   3.655   9.400
 6672W        W10416   9.461   6.027  11.745
 6673W        W10417   4.022   0.091   0.438
 6674W        W10418   7.966   9.223   1.836
 6675W        W10419   7.498   3.555  11.479
 6676W        W10420   6.228   4.633   2.591
 6677W        W10421  10.227   7.457   1.441
 6678W        W10422   8.041   1.305  10.628
 6679W        W10423   6.718   3.899   2.793
 6680W        W10424   2.575   9.900  10.502
 6681W        W10425   9.408   2.052   9.628
 6682W        W10426   0.214   0.638   1.801
 6683W        W10427   8.926   6.077   1.844
 6684W        W10428   4.609   5.954   9.841
 6685W        W10429   7.048   6.040   2.613
 6686W        W10430   1.463   6.221   9.488
 6687W        W10431   2.809   1.900   2.156
 6688W        W10432   7.289   2.331  10.252
 6689W        W10433   3.349   6.303  10.454
 6690W        W10434   0.802   4.088  10.771
 6691W        W10435   9.686   5.903   9.080
 6692W        W10436   8.538   6.567   2.812
 6693W        W10437   2.122   0.475   1.820
 6694W        W10438   9.402  10.296   1.611
 6695W        W10439   9.808   8.141   1.210
 6696W        W10440   6.329   9.102   9.639
 6697W        W10441   3.198   8.786   8.735
 6698W        W10442   1.772   2.647   2.719
 6699W        W10443   9.319   8.466   0.761
 6700W        W10444   4.219   0.188   3.255
 6701W        W10445   2.229   5.282   2.404
 6702W        W10446   1.777   0.703   9.820
 6703W        W10447   3.044   2.293  11.606
 6704W        W10448   2.533   4.042   8.505
 6705W        W10449   8.015   9.591  11.931
 6706W        W10450   5.041   0.790  10.393
 6707W        W10451   9.288   3.037   2.304
 6708W        W10452   1.511   8.454   9.739
 6709W        W10453   2.695   4.188   1.010
 6710W        W10454  10.467   1.262   9.437
 6711W        W10455   7.157   0.226   2.648
 6712W        W10456   1.385   6.994  11.230
 6713W        W10457   5.900   5.747   1.958
 6714W        W10458   2.708   7.017   1.314
 6715W        W10459   2.184   1.451  10.457
 6716W        W10460   4.950   4.581  11.966
 6717W        W10461   4.247   3.282   9.492
 6718W        W10462   8.072   0.192  10.073
 6719W        W10463   8.972   8.407   1.567
 6720W        W10464   6.671   2.754   1.455
 6721W        W10465   4.377   8.769   0.380
 6722W        W10466   2.386   8.999   2.521
 6723W        W10467   1.245   0.958   1.629
 6724W        W10468   7.135   5.700  11.109
 6725W        W10469   8.422   2.352   3.062
 6726W        W10470  10.143  10.408   9.338
 6727W        W10471   1.094   9.590   2.643
 6728W        W10472   2.643   2.846   9.906
 6729W        W10473   3.333   7.628  10.813
 6730W        W10474   0.995   1.076   9.751
 6731W        W10475   3.878   8.711   0.429
 6732W        W10476   6.082  10.174  11.836
 6733W        W10477   5.225   9.035   2.440
 6734W        W10478   5.168   2.371   2.245
 6735W        W10479   7.064   6.194   1.845
 6736W        W10480   1.522   0.278   3.258
 6737W        W10481   4.986   7.638   3.494
 6738W        W10482   5.211   5.679   9.818
 6739W        W10483   7.677   3.274   3.611
 6740W        W10484  10.168   0.257   2.180
 6741W        W10485   6.520   9.268   1.570
 6742W        W10486   5.090   9.974   9.946
 6743W        W10487   3.777   0.526   1.485
 6744W        W10488   5.724   5.043   0.000
 6745W        W10489   4.206   1.893   9.757
 6746W        W10490   8.057   5.236   0.693
 6747W        W10491   2.162   4.269   8.960
 6748W        W10492   7.057   3.300   9.915
 6749W        W10493   7.039   0.560   9.095
 6750W        W10494   5.682   7.381  10.058
 6751W        W10495   5.939   0.889  11.023
 6752W        W10496   4.961   7.050   8.531
 6753W        W10497   1.926   0.500   3.588
 6754W        W10498   5.536   5.997  11.878
 6755W        W10499   7.432   5.913   9.886
 6756W        W10500   9.242   4.188   9.159
 6757W        W10501   4.807   2.745   3.624
 6758W        W10502   5.148   5.168   3.422
 6759W        W10503   3.422   3.317   0.316
 6760W        W10504   0.880   4.583   9.961
 6761W        W10505   2.824   6.200   9.993
 6762W        W10506   8.300   5.071  10.515
 6763W        W10507   2.349   9.452   1.099
 6764W        W10508   6.208   0.802   3.170
 6765W        W10509   7.948   4.058   1.646
 6766W        W10510   1.860   7.443   3.479
 6767W        W10511   8.934   8.959   9.121
 6768W        W10512   5.125   4.024   1.885
 6769W        W10513  10.255   0.052  11.860
 6770W        W10514   7.921   6.099   0.521
 6771W        W10515   1.873   4.677   1.888
 6772W        W10516   9.971   8.592   2.012
 6773W        W10517   0.580   5.491   9.311
 6774W        W10518   4.034   2.760  10.996
 6775W        W10519   4.721   1.524   9.410
 6776W        W10520   8.757   0.005  10.010
 6777W        W10521   1.484   5.864   9.048
 6778W        W10522   0.429   3.973  11.462
 6779W        W10523   1.299   7.503   1.671
 6780W        W10524   7.998   2.784   9.235
 6781W        W10525   4.949   1.001  10.849
 6782W        W10526   4.089  10.419  10.454
 6783W        W10527   2.682   2.910   1.767
 6784W        W10528   3.212   3.636   9.300
 6785W        W10529   3.764   3.091   2.693
 6786W        W10530   6.566   8.007  10.759
 6787W        W10531   0.271   5.010   2.358
 6788W        W10532   7.026   6.459   2.283
 6789W        W10533   8.312   8.394  10.083
 6790W        W10534   0.417   3.741   9.045
 6791W        W10535   9.702   2.326  10.811
 6792W        W10536   2.226   2.934  10.186
 6793W        W10537   0.730   4.879  11.343
 6794W        W10538   2.265   1.968   2.539
 6795W        W10539   0.993   5.457   2.707
 6796W        W10540   3.596   5.336   1.287
 6797W        W10541   5.586   0.504   8.688
 6798W        W10542   5.680   0.415  10.173
 6799W        W10543   5.530   7.999   0.777
 6800W        W10544   5.251   0.786   1.167
 6801W        W10545   1.257   4.672   1.162
 6802W        W10546   1.467   6.586   0.785
 6803W        W10547   5.613   8.545   9.181
 6804W        W10548   4.312   2.204   2.753
 6805W        W10549   9.582   5.132  11.836
 6806W        W10550   0.693   0.318   0.957
 6807W        W10551   9.474   1.402   0.608
 6808W        W10552   6.439   3.676   9.422
 6809W        W10553   5.039   8.163   2.366
 6810W        W10554   9.444   1.409   2.897
 6811W        W10555   3.279   7.381   0.735
 6812W        W10556   7.975   3.840   8.528
 6813W        W10557   5.744   1.794   3.556
 6814W        W10558   8.445   0.837  10.537
 6815W        W10559   0.181   2.069   9.397
 6816W        W10560   3.825   7.615   8.856
 6817W        W10561   0.984   6.580  11.200
 6818W        W10562   6.377   8.776   1.669
 6819W        W10563   6.975   8.153  11.030
 6820W        W10564   0.368   9.770   9.615
 6821W        W10565   8.369   4.601   9.864
 6822W        W10566   2.125  10.368   2.643
 6823W        W10567   5.554   1.671  10.031
 6824W        W10568   0.397   0.011   3.157
 6825W        W10569   5.073   7.458   0.058
 6826W        W10570   2.663  10.356   9.480
 6827W        W10571   3.740   7.164   0.332
 6828W        W10572   4.050   5.689   1.378
 6829W        W10573   4.058   5.791   0.554
 6830W        W10574   1.422   0.460   8.558
 6831W        W10575   4.722   8.595   3.011
 6832W        W10576   9.054   5.383   2.330
 6833W        W10577   4.730   6.455   9.922
 6834W        W10578   8.496   9.837   1.506
 6835W        W10579   1.343   4.741   2.663
 6836W        W10580   1.669   5.512  10.177
 6837W        W10581   6.379   4.640   1.015
 6838W        W10582   3.016   7.697   8.164
 6839W        W10583   7.355   6.185   1.286
 6840W        W10584   6.904   1.320   9.362
 6841W        W10585   0.870   8.812  11.388
 6842W        W10586   3.061   0.307  11.342
 6843W        W10587   5.092   5.224  10.607
 6844W        W10588   3.493   0.040   2.300
 6845W        W10589   3.678  10.343   1.242
 6846W        W10590   8.981   2.725   9.724
 6847W        W10591   7.047   9.413   0.359
 6848W        W10592   7.658   8.364   1.903
 6849W        W10593   2.848   6.414   0.720
 6850W        W10594   5.763   0.869   3.509
 6851W        W10595   3.109   5.515   9.227
 6852W        W10596   6.192   3.461  10.349
 6853W        W10597   2.167   6.312   2.349
 6854W        W10598   6.482   9.714   0.600
 6855W        W10599   1.841   3.609   3.182
 6856W        W10600   2.671   9.997   0.415
 6857W        W10601   1.777   0.910  10.822
 6858W        W10602   4.177   1.440   1.281
 6859W        W10603   3.464   9.043  11.619
 6860W        W10604   1.069   2.747  10.704
 6861W        W10605   0.738   6.042   8.975
 6862W        W10606   0.522   8.708   0.434
 6863W        W10607   7.726   7.860   1.866
 6864W        W10608   8.911   9.379   2.998
 6865W        W10609   6.319   7.571   2.158
 6866W        W10610   0.395   6.380   1.299
 6867W        W10611   9.802   4.932   0.259
 6868W        W10612  10.235  10.068  10.377
 6869W        W10613   6.491   3.189   0.045
 6870W        W10614   0.680   1.263   2.327
 6871W        W10615   6.959   2.220   2.716
 6872W        W10616   6.723   5.228   2.171
 6873W        W10617   7.945   8.455   8.760
 6874W        W10618   3.228   4.462   0.786
 6875W        W10619   0.766   6.288   0.392
 6876W        W10620   1.508   2.455   0.586
 6877W        W10621   7.088   4.728   8.634
 6878W        W10622   6.833   7.093  10.441
 6879W        W10623   1.366   6.355   9.000
 6880W        W10624   2.328   8.993   2.007
 6881W        W10625   9.878   4.242   1.264
 6882W        W10626   9.595   8.487   9.917
 6883W        W10627   8.821   0.433  11.127
 6884W        W10628   2.101   6.886  10.489
 6885W        W10629   3.867   5.719  11.435
 6886W        W10630   1.983   7.664  10.895
 6887W        W10631   9.864   8.357   0.741
 6888W        W10632   4.497   4.526   1.992
 6889W        W10633   4.905  10.455   2.472
 6890W        W10634   9.753   7.907   9.838
 6891W        W10635   7.696   1.336  11.939
 6892W        W10636   7.597   9.146  10.237
 6893W        W10637  10.412   2.500   1.411
 6894W        W10638   0.491   0.714  10.454
 6895W        W10639   2.117   6.466   0.107
 6896W        W10640   4.152   9.773   1.981
 6897W        W10641   8.010   8.837  10.086
 6898W        W10642   2.249   6.897  11.485
 6899W        W10643   7.087   4.492   2.419
 6900W        W10644   4.623   4.076   2.736
 6901W        W10645   8.895   0.480   2.764
 6902W        W10646   9.053   1.861   1.181
 6903W        W10647   9.428   2.744  10.900
 6904W        W10648   0.370   7.119  11.390
 6905W        W10649   6.980   3.634   1.057
 6906W        W10650   3.033   0.159   8.755
 6907W        W10651   9.833   9.976   2.404
 6908W        W10652   9.613   8.163   9.381
 6909W        W10653   5.029   4.113   1.406
 6910W        W10654   9.716   9.218   0.873
 6911W        W10655   6.510   1.235   0.386
 6912W        W10656   1.424   7.371   0.160
 6913W        W10657  10.103   9.071   2.190
 6914W        W10658  10.426   6.926   1.710
 6915W        W10659   2.527   0.505   8.947
 6916W        W10660   0.403   1.204   1.827
 6917W        W10661   3.327   7.580  11.770
 6918W        W10662   8.733   0.784   2.370
 6919W        W10663   4.084   4.546   3.215
 6920W        W10664   9.129   1.116   3.954
 6921W        W10665   2.806   5.555   1.247
 6922W        W10666   8.462   6.161  10.852
 6923W        W10667   9.431   7.504   1.747
 6924W        W10668   1.653   5.079  10.453
 6925W        W10669   5.570   2.260  11.692
 6926W        W10670   2.713  10.421  10.019
 6927W        W10671   9.086   9.032   9.642
 6928W        W10672   7.232   4.070   3.764
 6929W        W10673   3.881   1.045  11.415
 6930W        W10674   2.615   1.631  10.722
 6931W        W10675   0.665   5.804   2.893
 6932W        W10676   7.618   9.127   1.500
 6933W        W10677   5.957   9.903   8.570
 6934W        W10678   6.827   6.148   3.084
 6935W        W10679   6.408   2.348   9.346
 6936W        W10680   6.321   4.332  10.017
 6937W        W10681   7.170   0.917  10.485
 6938W        W10682   7.897   0.843  11.234
 6939W        W10683   3.106   3.210   1.169
 6940W        W10684   8.346   1.376   1.657
 6941W        W10685   9.108   0.790  11.944
 6942W        W10686   7.886   1.252   0.991
 6943W        W10687   5.330   5.695   0.682
 6944W        W10688   4.550   5.152   0.621
 6945W        W10689   9.684   3.162  10.683
 6946W        W10690   3.873   4.908   1.368
 6947W        W10691   8.811   0.409  11.629
 6948W        W10692   2.574   2.471   1.318
 6949W        W10693   9.440  10.033   1.163
 6950W        W10694   5.272   7.001  11.981
 6951W        W10695   5.847   6.767   3.687
 6952W        W10696   9.417   2.989   9.920
 6953W        W10697   9.040   4.058  11.882
 6954W        W10698   6.916   2.418   0.760
 6955W        W10699   4.872   2.099   1.928
 6956W        W10700   2.458   8.320   8.253
 6957W        W10701  10.008   6.855  10.904
 6958W        W10702   1.749   7.681   1.523
 6959W        W10703   2.846   9.931  10.926
 6960W        W10704   1.118   7.198   1.330
 6961W        W10705   1.917   7.444   0.405
 6962W        W10706  10.202   3.135  10.341
 6963W        W10707   4.585   1.639  11.526
 6964W        W10708   3.570   6.337  11.031
 6965W        W10709   7.207   6.558   8.869
 6966W        W10710   2.351   8.718   0.400
 6967W        W10711   0.279   9.683   2.254
 6968W        W10712   2.325   7.444   0.746
 6969W        W10713   0.179   2.680  11.813
 6970W        W10714   6.017   8.186   0.001
 6971W        W10715   9.319   1.745  11.328
 6972W        W10716   5.005   0.511  10.939
 6973W        W10717   9.757   6.743   8.588
 6974W        W10718   1.687   7.858   0.265
 6975W        W10719   7.966   9.842   2.387
 6976W        W10720   4.792   1.618   8.341
 6977W        W10721   9.986   1.432   1.714
 6978W        W10722   6.447   8.019   9.806
 6979W        W10723  10.429   5.601  10.506
 6980W        W10724   7.077   9.918   1.275
 6981W        W10725   3.043   4.601   9.033
 6982W        W10726   5.314   2.865   2.073
 6983W        W10727   1.191   8.003   0.875
 6984W        W10728   8.981   3.975   2.907
 6985W        W10729   1.272   1.943  11.333
 6986W        W10730   7.110   1.137   2.462
 6987W        W10731   6.047   1.582   2.777
 6988W        W10732   5.743   9.060   3.113
 6989W        W10733   0.486   3.090   0.735
 6990W        W10734   8.591   2.250   1.532
 6991W        W10735   4.388   1.205  11.970
 6992W        W10736   9.003   6.969   8.992
 6993W        W10737   5.190   3.058   3.042
 6994W        W10738   5.825   1.388  11.771
 6995W        W10739   3.238   6.651   1.043
 6996W        W10740   0.393   7.618  10.017
 6997W        W10741   8.943   7.823   1.225
 6998W        W10742   0.709   0.888   3.233
 6999W        W10743   7.086   1.774   2.459
 7000W        W10744   0.171   9.928  11.408
 7001W        W10745   0.776   4.167   0.198
 7002W        W10746  10.497   2.938   2.128
 7003W        W10747   8.051   3.749  10.295
 7004W        W10748   7.001  10.377  10.382
 7005W        W10749   7.946   5.653  10.718
 7006W        W10750   7.674   3.591   0.353
 7007W        W10751   9.810   7.864   0.689
 7008W        W10752   3.276   9.277   0.274
 7009W        W10753   0.009   3.195  11.893
 7010W        W10754   9.500  10.025   0.260
 7011W        W10755   3.156   4.594   8.183
 7012W        W10756   3.409   4.481   3.153
 7013W        W10757   0.954   3.824   2.744
 7014W        W10758   9.171  10.308   9.776
 7015W        W10759   2.616   6.470   1.673
 7016W        W10760   1.411   9.793   1.327
 7017W        W10761   4.255   0.487   2.268
 7018W        W10762   9.992   6.694   1.419
 7019W        W10763   4.932   7.144   3.795
 7020W        W10764   3.834   9.055  11.246
 7021W        W10765   4.598   0.910   2.264
 7022W        W10766   0.660   9.993   9.996
 7023W        W10767   3.179   7.138  10.824
 7024W        W10768   5.778   4.693  10.915
 7025W        W10769   7.324   0.866   1.116
 7026W        W10770   4.663   6.485   0.791
 7027W        W10771   5.424   5.416   0.223
 7028W        W10772  10.312   0.810  10.140
 7029W        W10773   6.909  10.246   9.473
 7030W        W10774   3.795   1.452  10.901
 7031W        W10775   9.896   4.064   0.385
 7032W        W10776   2.823   6.680   9.807
 7033W        W10777   2.359   8.531  10.856
 7034W        W10778   9.775   3.593   0.762
 7035W        W10779   5.194   9.827   2.980
 7036W        W10780   9.231   7.461   3.368
 7037W        W10781   4.731   3.602   2.951
 7038W        W10782   9.854   6.364  10.930
 7039W        W10783   2.690   1.673   2.601
 7040W        W10784   0.373   3.595  10.104
 7041W        W10785   7.559   4.433   2.642
 7042W        W10786   2.142   2.901   2.057
 7043W        W10787   1.571   3.684   1.382
 7044W        W10788   8.980   8.350  10.825
 7045W        W10789   1.778   3.155  10.461
 7046W        W10790   7.299   3.344   3.233
 7047W        W10791   1.886   8.953   9.607
 7048W        W10792   7.358   4.533  11.521
 7049W        W10793   2.223   5.552   1.928
 7050W        W10794   8.088   1.583  11.054
 7051W        W10795   2.638   4.667  10.026
 7052W        W10796   2.927  10.235   1.689
 7053W        W10797   8.967   1.794   9.837
 7054W        W10798   6.086   3.297   9.411
 7055W        W10799  10.054   0.466   9.006
 7056W        W10800   6.213   0.594   3.638
 7057W        W10801  10.327   1.387  10.445
 7058W        W10802   3.579   9.952  11.529
 7059W        W10803   5.005   9.937  11.204
 7060W        W10804   7.566   5.034   1.844
 7061W        W10805   8.679   3.644   9.030
 7062W        W10806   6.289   0.814  10.333
 7063W        W10807   2.499   3.996   9.410
 7064W        W10808   8.513   3.370  11.986
 7065W        W10809   3.735   0.325   3.017
 7066W        W10810   9.716   0.387  10.782
 7067W        W10811   6.931   5.984  10.663
 7068W        W10812   0.888   3.839   1.853
 7069W        W10813   8.132   4.627  10.319
 7070W        W10814   1.227   3.830   2.315
 7071W        W10815   6.985   8.301   9.757
 7072W        W10816  10.047   1.829  10.445
 7073W        W10817  10.252   6.000   1.758
 7074W        W10818   5.879   0.674   2.777
 7075W        W10819   0.950   8.988   3.491
 7076W        W10820   4.082   4.089  10.803
 7077W        W10821   4.719   8.642   1.694
 7078W        W10822   0.001   3.754   3.184
 7079W        W10823   1.681   1.971   1.473
 7080W        W10824   6.632   6.214   4.041
 7081W        W10825   8.627   1.749   0.880
 7082W        W10826   0.158   0.847   0.558
 7083W        W10827   0.993   4.656   0.267
 7084W        W10828   0.162   2.165   2.310
 7085W        W10829   1.812   7.160  10.845
 7086W        W10830   8.946   7.529  10.305
 7087W        W10831   8.555   2.134  11.478
 7088W        W10832   6.542   0.977  11.936
 7089W        W10833   9.678   8.955  11.106
 7090W        W10834   2.790   9.567  11.660
 7091W        W10835   7.805   6.577   0.663
 7092W        W10836   8.480   3.709  11.540
 7093W        W10837   0.382   5.031   1.365
 7094W        W10838   3.644   4.092  11.052
 7095W        W10839   6.157   7.025  10.958
 7096W        W10840   0.798   2.197   1.716
 7097W        W10841   2.381   3.793   1.687
 7098W        W10842   0.709   1.767   3.448
 7099W        W10843   8.398   7.426  11.413
 7100W        W10844   7.612   3.750   2.045
 7101W        W10845   6.607   1.220  11.492
 7102W        W10846   2.774   7.390   2.789
 7103W        W10847   0.613   4.589  10.782
 7104W        W10848   0.741   0.938   8.735
 7105W        W10849   6.250   4.951   0.052
 7106W        W10850   3.954   2.091  11.989
 7107W        W10851   2.914  10.321   3.119
 7108W        W10852   5.814   0.430   3.224
 7109W        W10853   2.202   8.728   8.469
 7110W        W10854   1.502   1.353   3.187
 7111W        W10855   0.147   8.931  10.894
 7112W        W10856   1.193   0.969   3.039
 7113W        W10857   3.276   4.138   8.998
 7114W        W10858   8.576   1.348   0.375
 7115W        W10859   6.606   6.511   0.882
 7116W        W10860   7.422   2.253  10.855
 7117W        W10861   3.406  10.293   1.839
 7118W        W10862   9.342   1.814   0.247
 7119W        W10863   6.270   7.879   0.787
 7120W        W10864   2.701   0.565   0.218
 7121W        W10865   5.773   4.918   0.487
 7122W        W10866   6.414   8.978  10.994
 7123W        W10867   6.272   0.400   9.984
 7124W        W10868   3.114   9.294  11.383
 7125W        W10869   6.539  10.383   9.133
 7126W        W10870   6.837   4.362  10.091
 7127W        W10871  10.001   2.166   8.800
 7128W        W10872   7.575   2.219   9.293
 7129W        W10873   1.313   7.941   9.058
 7130W        W10874   8.578   1.291   8.952
 7131W        W10875   7.872   3.843   9.253
 7132W        W10876   4.282   1.795   9.258
 7133W        W10877  10.419   4.897   3.650
 7134W        W10878   9.996   1.882   2.478
 7135W        W10879   2.585   8.999   1.164
 7136W        W10880   3.704   7.577  10.286
 7137W        W10881   8.400   3.742   9.923
 7138W        W10882   2.873   2.393   9.853
 7139W        W10883  10.406   1.834   8.620
 7140W        W10884   6.575   1.958   2.064
 7141W        W10885   4.077   7.818   0.307
 7142W        W10886   0.812   3.239   8.957
 7143W        W10887   3.592   5.515   9.889
 7144W        W10888   1.783  10.420   9.519
 7145W        W10889   9.905   0.160   0.807
 7146W        W10890   5.986   0.809   8.573
 7147W        W10891   7.276   7.762  11.949
 7148W        W10892   6.760   2.696   2.309
 7149W        W10893   3.673   0.830  10.525
 7150W        W10894   2.193   8.204   3.523
 7151W        W10895   8.326   3.686   9.417
 7152W        W10896   7.917   3.213   2.100
 7153W        W10897   0.949   3.229   1.835
 7154W        W10898   7.450   8.636  10.514
 7155W        W10899   0.813   0.642   9.586
 7156W        W10900   9.087   1.936  10.320
 7157W        W10901   9.117   9.283   1.375
 7158W        W10902   4.334   2.898  10.515
 7159W        W10903   8.643   1.225   1.259
 7160W        W10904   6.791   2.542   3.528
 7161W        W10905   4.119   6.126   9.636
 7162W        W10906   2.308  10.327  11.252
 7163W        W10907   2.936   3.259   9.948
 7164W        W10908   9.035   1.263  11.725
 7165W        W10909   1.857   0.189  10.535
 7166W        W10910   1.109   2.634   3.443
 7167W        W10911   9.540   2.620  11.989
 7168W        W10912   7.145   4.195   2.853
 7169W        W10913   0.690   6.033  10.717
 7170W        W10914   6.533   1.934  11.912
 7171W        W10915   2.639   4.053  10.900
 7172W        W10916   8.284   6.978   2.617
 7173W        W10917   0.940   8.497   0.953
 7174W        W10918   1.419   0.276   9.529
 7175W        W10919   1.523   5.063   9.334
 7176W        W10920   4.077   4.360   0.565
 7177W        W10921   4.138   8.373   3.623
 7178W        W10922   6.454   6.092   9.769
 7179W        W10923   8.107   2.114   9.996
 7180W        W10924   3.213   8.986   2.466
 7181W        W10925   8.036   0.157   3.487
 7182W        W10926   3.098   3.731  10.006
 7183W        W10927   4.025  10.212  11.417
 7184W        W10928   1.151   5.961   2.935
 7185W        W10929   0.925   1.299   1.883
 7186W        W10930   8.825   8.561   9.445
 7187W        W10931   4.288   6.627   2.912
 7188W        W10932   7.533   6.100   8.906
 7189W        W10933   0.680   1.982   9.413
 7190W        W10934   3.774   0.978   1.768
 7191W        W10935   7.000   0.122   2.155
 7192W        W10936   5.825   2.895   2.071
 7193W        W10937   9.829   8.837   0.066
 7194W        W10938   1.809  10.178  10.511
 7195W        W10939   3.112   2.301   2.343
 7196W        W10940   0.660   1.353   0.059
 7197W        W10941   2.124   2.404   0.634
 7198W        W10942   7.457   4.123   9.351
 7199W        W10943   3.362   0.751  11.379
 7200W        W10944   2.691  10.353   2.641
 7201W        W10945   0.026   5.530   9.050
 7202W        W10946   4.963   1.657   2.942
 7203W        W10947   3.921   4.517   0.099
 7204W        W10948   9.308   4.556   2.371
 7205W        W10949   9.217  10.154  10.380
 7206W        W10950   9.380   0.922   0.399
 7207W        W10951   1.234   2.746   9.305
 7208W        W10952   2.594   4.216   1.928
 7209W        W10953   3.110   5.548   9.724
 7210W        W10954   2.810   8.984   9.504
 7211W        W10955   5.519   6.062  10.747
 7212W        W10956   7.715   7.793   9.839
 7213W        W10957   3.057   2.688   8.862
 7214W        W10958   5.048  10.376   8.720
 7215W        W10959   6.508  10.457   0.015
 7216W        W10960   3.821   3.169   9.761
 7217W        W10961   7.839   6.470   0.169
 7218W        W10962   6.037   2.172   8.472
 7219W        W10963   3.213   3.199  11.038
 7220W        W10964   4.739  10.171   9.384
 7221W        W10965   4.120   7.046   9.780
 7222W        W10966  10.243   9.927   2.724
 7223W        W10967   4.103   2.630   1.862
 7224W        W10968   0.487   0.838   2.173
 7225W        W10969   1.350   1.464   0.743
 7226W        W10970   2.038   1.801   1.787
 7227W        W10971   3.749  10.111   2.163
 7228W        W10972   5.637   4.874  11.401
 7229W        W10973   9.837   7.721   2.238
 7230ION    NA+10974   7.818   7.043   9.047
 7231ION    NA+10975   8.831  10.447  11.953
 7232ION    NA+10976   0.222   6.676   3.585
 7233ION    NA+10977   6.637   1.772   3.087
 7234ION    NA+10978  10.499   3.693  11.501
 7235ION    NA+10979   1.367   8.615   2.926
 7236ION    NA+10980   9.974   6.479   0.953
 7237ION    NA+10981   4.883   0.329   9.426
 7238ION    NA+10982   2.950   4.712   0.197
 7239ION    NA+10983   0.085   0.486   8.917
 7240ION    NA+10984   7.340   4.566   8.189
 7241ION    NA+10985   0.187   9.087   9.269
 7242ION    NA+10986   5.294   7.087  11.058
 7243ION    NA+10987   5.217   3.071   9.045
 7244ION    NA+10988   6.372   8.907  10.118
 7245ION    NA+10989   1.447   6.740   9.804
 7246ION    NA+10990   4.062   1.971  11.069
 7247ION    NA+10991   1.580   0.259   0.941
 7248ION    NA+10992   2.745   0.354  10.819
 7249ION    NA+10993   2.322   2.537   1.766
 7250ION    NA+10994   9.349   0.168   1.997
 7251ION    NA+10995   0.478   7.715   1.376
 7252ION    NA+10996   7.833   0.786   3.767
 7253ION    NA+10997   7.910   3.759   9.757
 7254ION    NA+10998   0.248   5.313  10.810
 7255ION    NA+10999   3.801   4.789  11.224
 7256ION    NA+11000   7.042   1.980   0.507
 7257ION    NA+11001   3.620   9.292   2.409
 7258ION    NA+11002   6.640   3.528   1.890
 7259ION    NA+11003   3.240   6.610   9.486
 7260ION    NA+11004   1.630   4.975   1.372
 7261ION    NA+11005  10.448  10.358   2.943
 7262ION    NA+11006   2.670   1.991  11.112
 7263ION    NA+11007   6.985  10.000   9.035
 7264ION    NA+11008   9.360   3.252   0.798
 7265ION    NA+11009   1.691   1.793  11.064
 7266ION    NA+11010   1.713   2.986   9.170
 7267ION    NA+11011   4.531   6.794   9.597
 7268ION    NA+11012   1.781   7.154  11.539
 7269ION    NA+11013   3.848   0.941   0.621
 7270ION    NA+11014   0.298   9.160   0.337
 7271ION    NA+11015   9.408   1.474  10.457
 7272ION    NA+11016   7.594   2.112  11.344
 7273ION    NA+11017   9.591   5.216   3.469
 7274ION    NA+11018   4.531   5.157   0.091
 7275ION    NA+11019   0.927   5.392   0.120
 7276ION    NA+11020  10.119   9.646   9.535
 7277ION    NA+11021   3.303   6.636   2.627
 7278ION    NA+11022   2.723   9.346   1.942
 7279ION    NA+11023   5.917   9.122  10.982
 7280ION    NA+11024   4.932   3.273   8.108
 7281ION    NA+11025   5.394   4.872   1.636
 7282ION    NA+11026   9.647   3.713  11.124
 7283ION    NA+11027   0.246   5.163   1.857
 7284ION    NA+11028   1.148  10.079  11.624
 7285ION    NA+11029   1.719   0.408  10.987
 7286ION    NA+11030   4.110   8.157   1.039
 7287ION    NA+11031   5.105   2.401   1.175
 7288ION    NA+11032   1.073   9.022  11.849
 7289ION    NA+11033   0.387   7.965   3.101
 7290ION    NA+11034   6.291   9.624   1.885
 7291ION    NA+11035   4.984   4.754   0.887
 7292ION    NA+11036   0.670   0.788   0.765
 7293ION    NA+11037   1.116   9.814   3.141
 7294ION    NA+11038   3.810   0.900  10.043
 7295ION    NA+11039   1.873   7.732   9.771
 7296ION    NA+11040   5.254   5.587  11.758
 7297ION    NA+11041   3.915   0.079   9.466
 7298ION    NA+11042   2.807   0.188   0.538
 7299ION    NA+11043   7.860   0.694   2.225
 7300ION    NA+11044   2.021   0.552   0.020
 7301ION    NA+11045   4.750   3.652   1.928
 7302ION    NA+11046   1.018   8.207  11.878
 7303ION    NA+11047   6.803   7.583   0.711
 7304ION    NA+11048   2.749   7.938   2.290
 7305ION    NA+11049   4.369   8.629   9.929
 7306ION    CL-11050   5.135   4.956   1.271
 7307ION    CL-11051   4.867   5.387  11.886
 7308ION    CL-11052   9.010   2.799  10.234
 7309ION    CL-11053   8.565   1.386   9.451
 7310ION    CL-11054  10.415   3.253   1.745
 7311ION    CL-11055   5.470   6.849   1.455
 7312ION    CL-11056   1.687  10.083   8.595
 7313ION    CL-11057   8.537   8.801   9.807
 7314ION    CL-11058   9.230   0.234  10.880
 7315ION    CL-11059   3.210   2.780   3.284
 7316ION    CL-11060   1.932   8.162   9.661
 7317ION    CL-11061   2.799   3.627   1.087
 7318ION    CL-11062   7.350  10.035   9.302
 7319ION    CL-11063   0.624   7.310   1.254
 7320ION    CL-11064   2.684   1.883  11.546
 7321ION    CL-11065   1.189   8.591  11.705
 7322ION    CL-11066   1.287   2.966  11.727
 7323ION    CL-11067   3.711   8.886   2.245
 7324ION    CL-11068   4.669   0.509   1.942
 7325ION    CL-11069   9.114   2.605   8.764
 7326ION    CL-11070   2.871   0.565   1.999
 7327ION    CL-11071   3.936   0.804   1.040
 7328ION    CL-11072   6.786   9.017   9.992
 7329ION    CL-11073   8.527   9.157   0.530
 7330ION    CL-11074   9.417   4.363   9.649
 7331ION    CL-11075   6.741   9.578   1.939
 7332ION    CL-11076   9.334   3.487  10.883
 7333ION    CL-11077   7.881   8.923  10.602
 7334ION    CL-11078   2.901   4.531   3.230
 7335ION    CL-11079   2.671   1.265   1.314
 7336ION    CL-11080   0.629   9.036   0.015
 7337ION    CL-11081   0.165   8.949   0.724
 7338ION    CL-11082   2.087   3.819   0.411
 7339ION    CL-11083   1.559   2.928   8.744
 7340ION    CL-11084   4.440  10.010  11.974
 7341ION    CL-11085   1.288   8.611   2.478
 7342ION    CL-11086   2.446   7.647   2.448
 7343ION    CL-11087   5.097   9.225   9.509
 7344ION    CL-11088   4.746   9.919  10.300
 7345ION    CL-11089   8.305   5.317   8.784
 7346ION    CL-11090   6.478   1.367   3.231
 7347ION    CL-11091  10.069   3.716  11.347
 7348ION    CL-11092   9.849   8.009   1.779
 7349ION    CL-11093   6.812   7.177   0.941
 7350ION    CL-11094   2.257   1.892   0.503
 7351ION    CL-11095   5.064   2.897   9.425
 7352ION    CL-11096  10.486   9.385   9.546
 7353ION    CL-11097   4.181   3.653   3.686
 7354ION    CL-11098   5.859   7.817   1.132
 7355ION    CL-11099   2.505   4.702   0.199
 7356ION    CL-11100   3.141   5.164   8.863
 7357ION    CL-11101   4.850   4.561  10.702
 7358ION    CL-11102   7.161   8.432   1.750
 7359ION    CL-11103   4.009   2.351  11.298
 7360ION    CL-11104   1.193   9.146  10.144
 7361ION    CL-11105   6.783   9.948   8.624
 7362ION    CL-11106   7.976   4.505   1.379
 7363ION    CL-11107   0.271   9.876   0.422
 7364ION    CL-11108   2.595   6.469  11.920
 7365ION    CL-11109   8.015   6.157   9.510
 7366ION    CL-11110   1.379   8.657   3.402
 7367ION    CL-11111   9.271   5.064   8.721
 7368ION    CL-11112   0.649   5.128  10.884
 7369ION    CL-11113   5.166   3.440   4.085
 7370ION    CL-11114   6.899   7.934   0.434
 7371ION    CL-11115   5.844   9.671   1.811
 7372ION    CL-11116   4.019   5.060  10.946
 7373ION    CL-11117   3.484   6.869   2.962
 7374ION    CL-11118   0.560   1.151   0.531
 7375ION    CL-11119   8.466   8.212  10.996
 7376ION    CL-11120   8.916   6.948  10.759
 7377ION    CL-11121   8.454  10.141   2.992
 7378ION    CL-11122   4.196   2.274   9.384
 7379ION    CL-11123   3.152   0.664   8.475
 7380ION    CL-11124   2.226   2.894   1.515
 7381ION    CL-11125   1.285   9.780  11.931
  10.50000  10.50000  12.00000
