Protein in INSANE! Membrane UpperLeaflet>POPC=1.0 LowerLeaflet>POPC=1.0
12676
    1AU     AUC    1   8.996   8.967   6.907 -0.0342 -0.0500  0.0106
    1AU     AUC    2   9.113   8.686   6.922 -0.0373  0.0319  0.0015
    1AU     AUC    3   8.990   8.840   7.176 -0.1054  0.0076  0.0417
    1AU     AUC    4   8.994   9.072   6.622 -0.0912  0.0271  0.0260
    1AU     AUC    5   8.891   9.242   6.876 -0.0299 -0.0813  0.0395
    1AU     AUC    6   9.198   9.193   6.869  0.0364 -0.1311  0.0453
    1AU     AUC    7   9.258   8.944   7.029 -0.0170  0.0438 -0.0304
    1AU     AUC    8   8.724   8.955   6.792 -0.0124  0.0242  0.0188
    1AU     AUC    9   8.806   8.742   6.947  0.0349  0.0856  0.0399
    1AU     AUC   10   8.769   9.021   7.084 -0.0258  0.0303 -0.0381
    1AU     AUC   11   9.061   9.146   7.124  0.0308 -0.0002  0.0107
    1AU     AUC   12   8.954   8.774   6.667 -0.0609  0.0063  0.0559
    1AU     AUC   13   9.227   8.892   6.717  0.0415  0.0390 -0.1330
    1AU     AUC   14   9.252   8.414   6.952  0.0495 -0.0326  0.0648
    1AU     AUC   15   9.112   8.556   7.205  0.0955  0.0001 -0.0257
    1AU     AUC   16   8.984   8.720   7.454  0.0464 -0.0106  0.0179
    1AU     AUC   17   8.977   9.195   6.361  0.0085 -0.0221 -0.0398
    1AU     AUC   18   8.834   9.349   6.600  0.0645 -0.0024  0.0342
    1AU     AUC   19   8.759   9.501   6.854  0.0593  0.0559 -0.0874
    1AU     AUC   20   9.362   9.414   6.824 -0.0478 -0.0797  0.0485
    1AU     AUC   21   9.461   9.187   7.007  0.0552  0.0005 -0.0370
    1AU     AUC   22   9.540   8.908   7.173  0.0185 -0.0320  0.0376
    1AU     AUC   23   8.443   8.977   6.652 -0.0414  0.0427  0.0086
    1AU     AUC   24   8.523   8.729   6.819  0.0171  0.0742  0.0138
    1AU     AUC   25   8.599   8.528   7.009  0.0352 -0.0985 -0.0622
    1AU     AUC   26   8.536   9.099   7.265  0.0564  0.0857 -0.0849
    1AU     AUC   27   8.810   9.221   7.331 -0.0611  0.0120 -0.0751
    1AU     AUC   28   9.088   9.332   7.354 -0.0091  0.0772 -0.0554
    1AU     AUC   29   8.886   8.601   6.440 -0.0958 -0.0708  0.0221
    1AU     AUC   30   9.190   8.742   6.478 -0.0373 -0.0609  0.1281
    1AU     AUC   31   9.474   8.842   6.536  0.0383  0.0258  0.0663
    1AU     AUC   32   8.760   8.903   7.382 -0.0564 -0.0535 -0.0009
    1AU     AUC   33   9.032   9.041   7.437  0.0958 -0.0697 -0.0022
    1AU     AUC   34   9.062   8.491   6.709 -0.0529  0.0556  0.1152
    1AU     AUC   35   9.351   8.602   6.751  0.0367 -0.0993 -0.0310
    1AU     AUC   36   8.639   9.311   7.073  0.0425 -0.0298  0.0180
    1AU     AUC   37   8.927   9.447   7.110 -0.0132  0.0554  0.0663
    1AU     AUC   38   8.945   8.897   6.395 -0.0604 -0.0006 -0.1168
    1AU     AUC   39   9.247   9.050   6.452  0.0458 -0.0519  0.0794
    1AU     AUC   40   9.384   8.661   7.058 -0.0870  0.0513 -0.0328
    1AU     AUC   41   9.259   8.817   7.306 -0.1054  0.0135 -0.0399
    1AU     AUC   42   9.165   9.320   6.587 -0.0504 -0.0378 -0.0445
    1AU     AUC   43   9.081   9.469   6.805  0.0586  0.0569 -0.0128
    1AU     AUC   44   8.926   8.446   7.000  0.0654  0.0441 -0.0374
    1AU     AUC   45   8.790   8.599   7.237  0.0011  0.0009 -0.0731
    1AU     AUC   46   8.738   9.091   6.484  0.1254  0.0416 -0.0214
    1AU     AUC   47   8.597   9.239   6.768 -0.0582 -0.0451 -0.0343
    1AU     AUC   48   9.234   9.378   7.081  0.0470 -0.0097  0.0876
    1AU     AUC   49   9.334   9.113   7.261  0.2193  0.0729  0.0486
    1AU     AUC   50   8.484   9.023   6.927  0.0256  0.0269 -0.0351
    1AU     AUC   51   8.556   8.810   7.136 -0.0808 -0.0678  0.0067
    1AU     AUC   52   9.437   9.119   6.687 -0.1128 -0.0933  0.0052
    1AU     AUC   53   9.500   8.865   6.860  0.1077 -0.0684  0.1029
    1AU     AUC   54   8.680   8.790   6.541 -0.0264 -0.0629 -0.0219
    1AU     AUC   55   8.764   8.540   6.724 -0.0822  0.0386  0.0521
    1AU    AUSL   56   8.833   8.949   7.589 -0.0561  0.0769  0.0525
    1AU    AUSL   57   8.413   8.880   7.531 -0.0764  0.0158 -0.0609
    1AU     AUL   58   8.456   8.822   7.895 -0.0234  0.0657 -0.0312
    1AU       S   59   8.186   8.498   7.666 -0.3834 -0.3447 -0.4221
    1AU     LIG   60   7.791   8.730   7.772  0.3128  0.0867  0.4696
    1AU     LIG   61   7.324   8.632   7.555 -0.1698  0.1549 -0.0705
    1AU     LIG   62   7.019   8.562   7.419  0.1345 -0.3675 -0.0753
    1AU     LIG   63   6.670   8.746   7.449 -0.3934 -0.0605  0.0677
    1AU     LIG   64   6.437   9.004   7.098  0.0942 -0.2487 -0.1266
    1AU     LIG   65   6.163   8.917   6.751  0.0244  0.0396 -0.1059
    1AU       S   66   8.684   9.231   8.107  0.2113  0.1329 -0.1197
    1AU     LIG   67   8.413   9.704   8.168 -0.0162 -0.0342  0.6757
    1AU     LIG   68   8.216  10.008   7.929 -0.3645  0.0091 -0.0711
    1AU     LIG   69   7.809  10.182   8.063  0.1669  0.1982 -0.0348
    1AU     LIG   70   7.566  10.561   8.044  0.0289  0.3086 -0.3224
    1AU     LIG   71   7.768  11.012   7.954 -0.4560 -0.1034 -0.1540
    1AU     LIG   72   7.941  11.379   7.959 -0.2158  0.2232 -0.0279
    1AU    AUSL   73   8.565   9.266   7.616 -0.0556 -0.0179 -0.0386
    1AU    AUSL   74   8.849   9.576   7.495 -0.0568  0.0019  0.0766
    1AU     AUL   75   8.729   9.670   7.835 -0.1213  0.0598 -0.0082
    1AU       S   76   8.520   9.270   7.819  0.1581 -0.3693 -0.4223
    1AU     LIG   77   8.084   9.080   7.957  0.0804  0.0999  0.2576
    1AU     LIG   78   7.657   9.200   7.942  0.2094  0.1417 -0.3275
    1AU     LIG   79   7.283   9.438   8.000  0.1356  0.3033 -0.1765
    1AU     LIG   80   6.964   9.700   8.193 -0.1486  0.4071 -0.3162
    1AU     LIG   81   6.614   9.800   8.246  0.1053 -0.0721 -0.2359
    1AU     LIG   82   6.154   9.879   8.215 -0.2515 -0.0788  0.1158
    1AU       S   83   8.460   9.868   7.557  0.1436 -0.2512 -0.1091
    1AU     LIG   84   8.627  10.158   7.708 -0.0967 -0.2199 -0.2441
    1AU     LIG   85   8.597  10.612   7.875  0.1775 -0.0708 -0.2216
    1AU     LIG   86   8.368  10.947   7.654 -0.1701  0.0339 -0.0153
    1AU     LIG   87   8.067  11.261   7.527  0.1577  0.1558 -0.3377
    1AU     LIG   88   8.328  11.601   7.658 -0.4301 -0.0527  0.1284
    1AU     LIG   89   8.723  11.632   7.812 -0.1465  0.1924  0.1600
    1AU    AUSL   90   9.019   9.283   7.729 -0.0295  0.0262  0.1139
    1AU    AUSL   91   9.179   8.808   7.738  0.0727  0.0395  0.0714
    1AU     AUL   92   8.885   8.894   7.914  0.0404 -0.1194  0.1124
    1AU       S   93   9.047   9.358   7.936 -0.1492 -0.3569 -0.0324
    1AU     LIG   94   9.212   9.772   7.857  0.0637 -0.0455  0.3851
    1AU     LIG   95   9.223  10.161   7.671 -0.0150  0.1797  0.3940
    1AU     LIG   96   8.964  10.467   7.460 -0.0677  0.1367  0.1470
    1AU     LIG   97   8.869  10.877   7.476  0.2338  0.2250  0.0264
    1AU     LIG   98   8.849  11.266   7.429 -0.1899 -0.2039 -0.2084
    1AU     LIG   99   8.642  11.519   7.259  0.0337 -0.2554  0.0618
    1AU       S  100   9.345   8.837   8.002  0.2365  0.4042 -0.0342
    1AU     LIG  101   9.118   8.441   8.023 -0.1127  0.4331 -0.3477
    1AU     LIG  102   8.907   8.013   8.091 -0.0950  0.0640 -0.0308
    1AU     LIG  103   8.579   7.733   8.032  0.0877  0.0638  0.2765
    1AU     LIG  104   8.728   7.418   7.739  0.1034  0.4115 -0.0769
    1AU     LIG  105   8.550   7.021   7.766 -0.1377  0.2321 -0.0139
    1AU     LIG  106   8.691   6.755   7.521 -0.0869  0.0128 -0.5482
    1AU    AUSL  107   9.346   8.241   6.626  0.0817  0.0377 -0.0419
    1AU    AUSL  108   9.698   8.519   6.582 -0.0014 -0.0616 -0.0716
    1AU     AUL  109   9.636   8.145   6.460  0.0855 -0.1695  0.0240
    1AU       S  110   9.341   7.971   6.150 -0.0065  0.2801  0.1756
    1AU     LIG  111   9.342   7.615   6.426  0.3500  0.2124  0.1695
    1AU     LIG  112   9.223   7.413   6.688  0.1729  0.0678  0.5537
    1AU     LIG  113   9.351   7.042   6.774 -0.1804 -0.2520 -0.1331
    1AU     LIG  114   9.651   6.664   6.910  0.1409 -0.3189  0.2181
    1AU     LIG  115  10.127   6.491   6.986 -0.0684 -0.2193 -0.2830
    1AU     LIG  116  10.522   6.319   6.899  0.1611 -0.2195  0.3035
    1AU       S  117  10.020   8.252   6.767 -0.1541 -0.2276  0.0570
    1AU     LIG  118   9.965   7.827   6.712  0.1440  0.0612 -0.1194
    1AU     LIG  119   9.848   7.665   6.328 -0.0032  0.2842 -0.0869
    1AU     LIG  120  10.192   7.640   6.032 -0.1542 -0.0668  0.0760
    1AU     LIG  121  10.419   7.486   5.773  0.3693 -0.1768  0.3491
    1AU     LIG  122  10.412   7.620   5.303  0.1692  0.3404  0.0357
    1AU     LIG  123  10.472   7.835   4.906  0.2052  0.2281 -0.2833
    1AU    AUSL  124   9.089   8.347   6.315  0.0216  0.0679 -0.0033
    1AU    AUSL  125   9.083   8.087   6.891 -0.0571 -0.0368  0.0250
    1AU     AUL  126   9.188   7.992   6.614 -0.0156 -0.0522  0.0165
    1AU       S  127   8.900   7.704   6.862 -0.3537  0.2623 -0.3455
    1AU     LIG  128   8.854   7.239   7.110  0.1288  0.0989  0.2783
    1AU     LIG  129   8.886   6.866   7.105  0.1759 -0.2305 -0.2983
    1AU     LIG  130   9.144   6.507   7.003 -0.1213 -0.5115  0.0372
    1AU     LIG  131   8.983   6.166   6.929 -0.2263  0.1374  0.1134
    1AU     LIG  132   9.223   5.828   7.132  0.5294  0.0422 -0.2867
    1AU     LIG  133   9.286   5.415   7.268 -0.2635  0.2983  0.0499
    1AU       S  134   9.065   8.055   6.155 -0.0495 -0.0221 -0.0074
    1AU     LIG  135   8.846   7.685   6.213  0.3592  0.0288 -0.2756
    1AU     LIG  136   8.819   7.264   6.439 -0.1768 -0.1944 -0.2234
    1AU     LIG  137   8.961   6.910   6.403 -0.2015 -0.1309 -0.4371
    1AU     LIG  138   9.061   6.745   6.010 -0.1251 -0.0957  0.1055
    1AU     LIG  139   9.221   6.353   5.995  0.1398  0.1463 -0.1884
    1AU     LIG  140   9.486   6.088   5.764  0.1968 -0.0087 -0.2235
    1AU    AUSL  141   9.327   8.633   6.556 -0.0094 -0.1428  0.0255
    1AU    AUSL  142   9.084   8.739   6.236  0.0690  0.0743 -0.0503
    1AU     AUL  143   9.419   8.438   6.208  0.0328  0.0160 -0.0521
    1AU       S  144   9.524   8.671   5.826 -0.0237 -0.3972 -0.0567
    1AU     LIG  145   9.662   8.287   5.802 -0.1952 -0.2514  0.5263
    1AU     LIG  146   9.998   8.142   6.102 -0.0259 -0.0310  0.1179
    1AU     LIG  147  10.267   8.048   6.435  0.1030 -0.4858  0.1594
    1AU     LIG  148  10.606   7.865   6.720 -0.1662 -0.4283  0.0599
    1AU     LIG  149  10.698   7.467   6.847 -0.0963 -0.0632 -0.1615
    1AU     LIG  150  10.674   7.355   7.272 -0.2145  0.3021  0.3599
    1AU       S  151   9.019   8.260   6.153  0.3846  0.2065  0.0155
    1AU     LIG  152   9.143   8.294   5.769  0.3839 -0.1065  0.0807
    1AU     LIG  153   9.301   8.458   5.390  0.5279  0.0699  0.2221
    1AU     LIG  154   9.428   8.844   5.079 -0.4162  0.0027  0.1377
    1AU     LIG  155   9.662   9.064   4.761 -0.2797  0.4243  0.3466
    1AU     LIG  156   9.730   9.204   4.347 -0.1897 -0.2333  0.0070
    1AU     LIG  157   9.855   8.958   4.077 -0.0254 -0.2878 -0.2328
    1AU    AUSL  158   8.627   9.645   7.168  0.1263  0.0397 -0.0116
    1AU    AUSL  159   9.093   9.501   7.185  0.0080 -0.0742  0.0031
    1AU     AUL  160   8.888   9.830   7.383  0.0879 -0.0174 -0.0334
    1AU       S  161   8.355   9.731   7.496 -0.2816  0.2240 -0.0767
    1AU     LIG  162   8.154  10.081   7.228 -0.0618  0.4453  0.1086
    1AU     LIG  163   8.218  10.355   6.979 -0.1281  0.1293  0.4175
    1AU     LIG  164   7.853  10.574   7.038 -0.1999  0.1427  0.2460
    1AU     LIG  165   7.354  10.392   6.850  0.5267  0.3335  0.3229
    1AU     LIG  166   6.933  10.415   6.894 -0.1891  0.1192  0.0655
    1AU     LIG  167   6.573  10.585   7.048 -0.0379 -0.3331 -0.1940
    1AU       S  168   9.143  10.127   7.125 -0.2252 -0.2069 -0.0311
    1AU     LIG  169   9.114  10.445   6.980  0.1033 -0.2583 -0.1078
    1AU     LIG  170   8.718  10.640   7.029  0.0545 -0.0441  0.5441
    1AU     LIG  171   8.548  10.991   7.031  0.2347  0.5517  0.2107
    1AU     LIG  172   8.099  11.092   6.922  0.3988  0.0420 -0.2306
    1AU     LIG  173   7.752  11.043   7.198  0.1842 -0.2753 -0.0457
    1AU     LIG  174   7.518  10.806   7.522 -0.3377 -0.0618  0.0561
    1AU    AUSL  175   8.656   9.254   7.221  0.0695  0.0528  0.0287
    1AU    AUSL  176   8.404   9.599   6.814  0.0428 -0.0301  0.0336
    1AU     AUL  177   8.434   9.726   7.038 -0.1416 -0.0762  0.0480
    1AU       S  178   7.983   9.647   7.021 -0.1831  0.1870 -0.1632
    1AU     LIG  179   7.789   9.796   7.379  0.1778  0.0839  0.0888
    1AU     LIG  180   7.366   9.764   7.450  0.1260 -0.2499  0.3047
    1AU     LIG  181   6.932   9.712   7.565 -0.5019 -0.1056  0.0671
    1AU     LIG  182   6.758  10.039   7.734  0.1258  0.4130 -0.2855
    1AU     LIG  183   6.641  10.482   7.673 -0.5518  0.0846  0.0590
    1AU     LIG  184   6.640  10.914   7.563 -0.2087 -0.3673  0.2447
    1AU       S  185   8.374   9.676   7.566 -0.0420 -0.3183  0.2816
    1AU     LIG  186   8.005   9.606   7.775  0.4604 -0.0320 -0.0520
    1AU     LIG  187   7.601   9.759   7.901  0.2375 -0.2154  0.3388
    1AU     LIG  188   7.254  10.160   7.841 -0.2396  0.3382 -0.1368
    1AU     LIG  189   7.061  10.280   8.218  0.1893  0.3825 -0.0122
    1AU     LIG  190   6.962  10.094   8.523  0.3296  0.0693  0.2402
    1AU     LIG  191   6.820   9.765   8.905  0.2306 -0.0374 -0.0539
    1AU    AUSL  192   9.179   9.097   6.063  0.0467 -0.0197  0.0014
    1AU    AUSL  193   8.700   8.682   6.156 -0.0631 -0.0430  0.0518
    1AU     AUL  194   9.037   8.761   5.942 -0.0690  0.0111 -0.0503
    1AU       S  195   9.483   8.901   5.757  0.1634  0.0750 -0.1363
    1AU     LIG  196   9.779   8.642   5.430 -0.0783 -0.0528  0.1525
    1AU     LIG  197   9.725   8.213   5.283 -0.2632 -0.2853  0.0221
    1AU     LIG  198   9.449   7.890   5.503  0.0140 -0.1134  0.1114
    1AU     LIG  199   9.151   7.685   5.819 -0.2008  0.4302  0.6574
    1AU     LIG  200   8.873   7.346   5.823  0.1966  0.0961  0.3017
    1AU     LIG  201   8.980   6.952   5.565 -0.1597 -0.0220 -0.0663
    1AU       S  202   8.632   8.746   5.751  0.0637 -0.1174 -0.1663
    1AU     LIG  203   8.621   8.312   5.873  0.0359 -0.1706  0.0789
    1AU     LIG  204   8.566   7.894   5.842 -0.0656 -0.4319  0.1432
    1AU     LIG  205   8.255   7.538   5.728  0.1669 -0.1698  0.1111
    1AU     LIG  206   7.872   7.249   5.786  0.0313 -0.0055 -0.1244
    1AU     LIG  207   7.859   7.009   6.096 -0.2607  0.2612  0.0265
    1AU     LIG  208   8.080   6.898   6.421 -0.3239  0.0816 -0.3286
    1AU    AUSL  209   9.477   8.862   6.246  0.0161 -0.0211 -0.0523
    1AU    AUSL  210   9.261   9.228   6.432 -0.0200  0.0225 -0.1188
    1AU     AUL  211   9.355   9.243   6.048  0.0685  0.0231 -0.0479
    1AU       S  212   9.699   9.591   6.053  0.0710 -0.0401  0.1270
    1AU     LIG  213  10.235   9.618   6.145 -0.1698  0.1040 -0.1877
    1AU     LIG  214  10.711   9.563   6.206 -0.0192 -0.1760  0.1149
    1AU     LIG  215  11.061   9.320   6.508 -0.0530  0.1099  0.0534
    1AU     LIG  216  11.106   9.337   6.877  0.2535  0.2496 -0.2337
    1AU     LIG  217  11.366   9.540   7.272  0.1320  0.2242  0.0755
    1AU     LIG  218  11.438   9.719   7.606  0.0528 -0.1560 -0.4215
    1AU       S  219   9.597   8.811   6.063  0.4080 -0.5111 -0.0327
    1AU     LIG  220   9.961   8.612   6.130  0.0864  0.1784 -0.0234
    1AU     LIG  221  10.188   8.610   6.346  0.0413 -0.3103 -0.2434
    1AU     LIG  222  10.428   8.538   6.624 -0.1377 -0.2025 -0.0633
    1AU     LIG  223  10.697   8.744   6.838  0.0383 -0.1238 -0.1355
    1AU     LIG  224  10.989   8.865   7.178 -0.4099  0.1784 -0.1986
    1AU     LIG  225  11.369   8.980   7.220 -0.0079 -0.1948  0.2247
    1AU    AUSL  226   9.631   8.591   7.311  0.0051  0.1019  0.0518
    1AU    AUSL  227   9.564   8.364   6.942  0.0999 -0.0007 -0.1601
    1AU     AUL  228   9.934   8.592   7.207 -0.0405  0.0387 -0.0140
    1AU       S  229   9.713   8.186   6.942  0.2914  0.2068 -0.2608
    1AU     LIG  230   9.491   7.782   6.947  0.0698 -0.1429 -0.1045
    1AU     LIG  231   9.727   7.391   6.676 -0.0328  0.0557 -0.1842
    1AU     LIG  232   9.950   7.077   6.769  0.1276  0.1362  0.1081
    1AU     LIG  233  10.350   6.998   6.638  0.0284  0.0380  0.3485
    1AU     LIG  234  10.618   6.950   6.945  0.1915  0.0737  0.1121
    1AU     LIG  235  10.561   6.804   7.331  0.1383 -0.0817  0.1097
    1AU       S  236   9.803   8.262   7.478  0.0027  0.1510 -0.0024
    1AU     LIG  237  10.217   8.255   7.495 -0.1413 -0.0854 -0.2023
    1AU     LIG  238  10.397   8.315   7.120  0.0487  0.4420 -0.2563
    1AU     LIG  239  10.881   8.344   7.008 -0.0155  0.2503 -0.2392
    1AU     LIG  240  11.209   8.539   6.816 -0.1473  0.1912  0.1073
    1AU     LIG  241  11.544   8.955   6.757 -0.2810 -0.2053  0.2798
    1AU     LIG  242  12.003   8.959   6.795 -0.0315  0.2096 -0.3501
    1AU    AUSL  243   9.345   8.270   7.269 -0.0119 -0.0711  0.0051
    1AU    AUSL  244   9.017   8.373   7.541  0.0139  0.0113  0.1052
    1AU     AUL  245   9.206   8.151   7.644 -0.0527  0.0826  0.0797
    1AU       S  246   9.597   8.077   7.361 -0.3215 -0.2367 -0.2534
    1AU     LIG  247   9.472   7.678   7.568  0.0978  0.2588 -0.2261
    1AU     LIG  248   9.578   7.169   7.602  0.1064 -0.1381  0.0766
    1AU     LIG  249   9.884   6.841   7.820 -0.0663 -0.1526  0.0613
    1AU     LIG  250  10.319   6.792   7.931 -0.4344 -0.3966 -0.2120
    1AU     LIG  251  10.468   7.027   8.268 -0.2391 -0.1126  0.1507
    1AU     LIG  252  10.745   7.153   8.563  0.1582  0.2539  0.1135
    1AU       S  253   8.821   7.864   7.581 -0.0166 -0.5113 -0.0825
    1AU     LIG  254   9.038   7.609   7.351 -0.5177 -0.0331 -0.0017
    1AU     LIG  255   9.290   7.406   7.195 -0.3695  0.0728 -0.2699
    1AU     LIG  256   9.627   7.180   7.135  0.0687 -0.2980  0.0905
    1AU     LIG  257  10.016   6.896   7.326  0.2010  0.0713 -0.0213
    1AU     LIG  258  10.153   6.536   7.523  0.0785 -0.2215  0.0182
    1AU     LIG  259  10.018   6.042   7.436  0.1148 -0.0546 -0.2553
    1AU    AUSL  260   9.236   8.661   7.370 -0.0721 -0.0284  0.0292
    1AU    AUSL  261   9.537   8.915   7.551  0.0062  0.0117 -0.0252
    1AU     AUL  262   9.446   8.562   7.646  0.0635  0.0450  0.1602
    1AU       S  263   9.538   8.923   7.897 -0.0674 -0.0177 -0.0275
    1AU     LIG  264   9.877   9.123   7.945 -0.0638 -0.1102  0.1108
    1AU     LIG  265  10.236   9.274   7.827  0.5549 -0.2450 -0.3263
    1AU     LIG  266  10.637   9.216   7.805 -0.0856  0.2278 -0.0204
    1AU     LIG  267  10.976   8.959   7.976  0.0305 -0.1498  0.0810
    1AU     LIG  268  11.221   9.116   7.692 -0.1112 -0.0128  0.0885
    1AU     LIG  269  11.642   9.191   7.533 -0.4156  0.0452 -0.0748
    1AU       S  270   9.681   8.191   7.582 -0.1821 -0.1236  0.0928
    1AU     LIG  271   9.857   7.962   7.846 -0.0946  0.2987  0.2073
    1AU     LIG  272  10.080   7.718   7.697 -0.2094 -0.0083 -0.5231
    1AU     LIG  273  10.049   7.383   7.420 -0.0301 -0.3444  0.0519
    1AU     LIG  274  10.191   7.429   7.022 -0.2596  0.0387 -0.3193
    1AU     LIG  275  10.267   7.494   6.524  0.1252  0.1520 -0.5935
    1AU     LIG  276  10.433   7.245   6.219 -0.0173  0.0951  0.0310
    1AU    AUSL  277   9.166   9.607   6.615  0.0999  0.0196  0.0809
    1AU    AUSL  278   8.929   9.783   6.922  0.0120  0.0761  0.0649
    1AU     AUL  279   9.210  10.004   6.605 -0.0222  0.0528  0.0611
    1AU       S  280   8.878  10.013   6.950  0.3156 -0.2475 -0.0788
    1AU     LIG  281   8.644  10.210   7.219 -0.1000  0.1490  0.1139
    1AU     LIG  282   8.387  10.455   7.449  0.1366  0.0324  0.0158
    1AU     LIG  283   7.949  10.360   7.561  0.1929 -0.3275  0.1820
    1AU     LIG  284   7.546  10.205   7.383 -0.2631  0.0396  0.2771
    1AU     LIG  285   7.112  10.214   7.325 -0.2370 -0.0852 -0.0999
    1AU     LIG  286   6.799  10.177   7.275  0.0279  0.1645  0.3192
    1AU       S  287   8.884  10.060   6.287 -0.2587 -0.0787 -0.1666
    1AU     LIG  288   9.084  10.529   6.428  0.0730 -0.0117 -0.1855
    1AU     LIG  289   9.249  11.023   6.508 -0.2046  0.1580  0.4258
    1AU     LIG  290   9.707  11.143   6.529 -0.2666  0.3484  0.1352
    1AU     LIG  291  10.097  11.204   6.397  0.1056 -0.1857 -0.3036
    1AU     LIG  292  10.173  11.601   6.170 -0.0230 -0.1163  0.3890
    1AU     LIG  293  10.289  11.630   5.763 -0.1376 -0.3772 -0.1239
    1AU    AUSL  294   9.009   9.484   6.249 -0.0133 -0.1004  0.0922
    1AU    AUSL  295   9.564   9.544   6.609  0.0692 -0.0442  0.0225
    1AU     AUL  296   9.319   9.608   6.308  0.0699 -0.0044  0.0098
    1AU       S  297   9.064   9.935   6.142  0.0082  0.0978  0.2819
    1AU     LIG  298   9.430  10.121   6.182 -0.0754 -0.0169 -0.1784
    1AU     LIG  299   9.693  10.289   6.485  0.1662 -0.1054 -0.1054
    1AU     LIG  300   9.606  10.661   6.786  0.1795  0.1265  0.4017
    1AU     LIG  301   9.707  11.067   7.058 -0.1195  0.2549 -0.4040
    1AU     LIG  302   9.480  11.371   7.351 -0.2719 -0.3620  0.2030
    1AU     LIG  303   9.133  11.759   7.369  0.3493 -0.4790 -0.0055
    1AU       S  304   9.800   9.661   6.382 -0.2213  0.0438 -0.2968
    1AU     LIG  305   9.958   9.925   6.781  0.5284 -0.2222 -0.0227
    1AU     LIG  306  10.086  10.407   6.784  0.2113  0.4250  0.4849
    1AU     LIG  307  10.089  10.872   6.817 -0.0115 -0.2417 -0.0826
    1AU     LIG  308  10.203  11.336   6.925  0.2594  0.1273  0.0617
    1AU     LIG  309  10.156  11.560   7.269 -0.1272  0.0485  0.2960
    1AU     LIG  310   9.944  11.495   7.592  0.0441  0.0189 -0.2768
    1AU    AUSL  311   8.765   9.716   6.554  0.0645 -0.0769 -0.0034
    1AU    AUSL  312   8.616   9.385   6.346  0.0796 -0.0089  0.0313
    1AU     AUL  313   8.735   9.614   6.093 -0.0174  0.0222  0.0066
    1AU       S  314   8.293   9.684   6.319 -0.0268 -0.2008  0.0379
    1AU     LIG  315   8.358  10.066   6.133  0.0438  0.1889 -0.5564
    1AU     LIG  316   8.092  10.460   6.256 -0.0365 -0.1213 -0.1530
    1AU     LIG  317   8.043  10.822   6.524  0.1537 -0.0974  0.0637
    1AU     LIG  318   7.598  11.017   6.570 -0.4965 -0.2557  0.1344
    1AU     LIG  319   7.386  10.868   6.936  0.3184 -0.0243 -0.1844
    1AU     LIG  320   7.044  10.699   7.255 -0.0265 -0.2762  0.2330
    1AU       S  321   8.762   9.919   6.458  0.0977 -0.1778  0.1186
    1AU     LIG  322   8.548  10.234   6.603  0.1348 -0.0590  0.2587
    1AU     LIG  323   8.537  10.696   6.505  0.2824  0.3194 -0.0040
    1AU     LIG  324   8.453  11.116   6.473  0.2216  0.2545 -0.3141
    1AU     LIG  325   8.052  11.303   6.365 -0.0520 -0.0805  0.1112
    1AU     LIG  326   7.827  11.527   6.665 -0.3875 -0.2090 -0.3209
    1AU     LIG  327   7.675  11.586   7.042 -0.1456  0.0819 -0.1071
    1AU    AUSL  328   8.639   8.264   7.299 -0.0405  0.0971  0.0589
    1AU    AUSL  329   8.679   8.571   7.608  0.0209  0.0291  0.0590
    1AU     AUL  330   8.770   8.338   7.749  0.0070 -0.0288 -0.0194
    1AU       S  331   8.582   7.967   7.488  0.2396 -0.3703 -0.0790
    1AU     LIG  332   8.240   7.595   7.636 -0.3194  0.2152 -0.0879
    1AU     LIG  333   7.879   7.311   7.608 -0.1578 -0.0406  0.2066
    1AU     LIG  334   7.770   6.990   7.398 -0.1803 -0.1747  0.3698
    1AU     LIG  335   7.411   6.796   7.350 -0.1356  0.1306 -0.3056
    1AU     LIG  336   7.485   6.379   7.106  0.0560  0.2324 -0.0844
    1AU     LIG  337   7.148   6.035   6.946  0.2496  0.0314 -0.0636
    1AU       S  338   8.362   8.476   7.593  0.2080 -0.5693 -0.0666
    1AU     LIG  339   8.149   8.035   7.796 -0.0620 -0.0423  0.0331
    1AU     LIG  340   7.798   7.869   7.626 -0.0585  0.1339 -0.1166
    1AU     LIG  341   7.488   7.600   7.379  0.0088 -0.0893 -0.0919
    1AU     LIG  342   7.219   7.301   7.356  0.1549 -0.0788  0.2332
    1AU     LIG  343   6.835   7.031   7.351  0.1413  0.1121  0.3634
    1AU     LIG  344   6.463   6.871   7.400  0.3308 -0.1697 -0.1749
    1AU    AUSL  345   8.992   8.398   7.127  0.0301 -0.0115  0.0345
    1AU    AUSL  346   8.655   8.169   6.892  0.0087  0.0290 -0.0274
    1AU     AUL  347   8.934   8.028   7.185 -0.0129 -0.0405 -0.0176
    1AU       S  348   8.506   8.123   7.358 -0.1481 -0.4669 -0.3941
    1AU     LIG  349   8.168   8.009   7.166  0.0316  0.0028 -0.2222
    1AU     LIG  350   7.910   7.604   7.132 -0.0140  0.3220  0.2537
    1AU     LIG  351   8.019   7.191   6.943 -0.0715  0.3948 -0.2019
    1AU     LIG  352   7.841   6.707   6.824  0.3873  0.1244  0.0265
    1AU     LIG  353   7.736   6.324   6.626 -0.1556  0.2277 -0.0383
    1AU     LIG  354   7.461   6.121   6.576  0.0519  0.2978  0.0766
    1AU       S  355   8.596   7.850   6.912 -0.1524  0.2327  0.4907
    1AU     LIG  356   8.485   7.603   7.191 -0.1513 -0.0186 -0.1280
    1AU     LIG  357   8.400   7.218   7.324 -0.1729 -0.3231 -0.1376
    1AU     LIG  358   8.263   6.828   7.266 -0.0184 -0.1876  0.2407
    1AU     LIG  359   8.173   6.456   7.024 -0.4628  0.1142 -0.0831
    1AU     LIG  360   8.277   6.238   6.628  0.2220 -0.0138  0.0317
    1AU     LIG  361   8.089   6.364   6.227  0.4484  0.1377 -0.0652
    1AU    AUSL  362   8.264   9.176   6.456 -0.0747 -0.0380  0.0834
    1AU    AUSL  363   8.781   9.094   6.135 -0.1115  0.0058 -0.0004
    1AU     AUL  364   8.393   9.209   6.100 -0.1207 -0.0053  0.0063
    1AU       S  365   8.730   9.099   5.826 -0.1773  0.0512 -0.1826
    1AU     LIG  366   8.871   9.384   5.621 -0.1685  0.0251 -0.0032
    1AU     LIG  367   8.722   9.832   5.484  0.2468  0.2635  0.2502
    1AU     LIG  368   8.648  10.133   5.769 -0.2117  0.1737 -0.0795
    1AU     LIG  369   8.698  10.473   6.078  0.0256 -0.0932 -0.2603
    1AU     LIG  370   8.867  10.920   6.195 -0.0397  0.0168 -0.0892
    1AU     LIG  371   9.010  11.192   5.809  0.0945  0.0163 -0.0771
    1AU       S  372   8.153   9.561   6.270 -0.3214  0.3652 -0.1273
    1AU     LIG  373   7.903   9.276   6.174  0.3068 -0.0674  0.2736
    1AU     LIG  374   7.858   8.829   6.113  0.1238  0.2538  0.2651
    1AU     LIG  375   7.661   8.485   6.302  0.4306 -0.1798  0.1310
    1AU     LIG  376   7.429   8.317   6.503 -0.0578  0.4014 -0.7163
    1AU     LIG  377   7.102   8.027   6.621  0.2829  0.1623 -0.0907
    1AU     LIG  378   6.805   7.717   6.508  0.0295  0.0264  0.2544
    1AU    AUSL  379   8.715   9.363   6.734 -0.0409 -0.0205  0.0764
    1AU    AUSL  380   8.355   9.193   6.851 -0.0195 -0.0797 -0.0578
    1AU     AUL  381   8.192   9.384   6.701 -0.0295  0.0253  0.0054
    1AU       S  382   7.872   9.526   6.973 -0.1147  0.3424 -0.2395
    1AU     LIG  383   7.731   9.595   6.584  0.0062 -0.1667 -0.1774
    1AU     LIG  384   7.648   9.962   6.302  0.0085  0.0628 -0.3795
    1AU     LIG  385   7.259  10.256   6.385  0.0236  0.0390 -0.2133
    1AU     LIG  386   7.162  10.655   6.442  0.5086  0.3347  0.1878
    1AU     LIG  387   7.080  11.089   6.481  0.2069 -0.0517 -0.2000
    1AU     LIG  388   7.370  11.416   6.624 -0.2437 -0.1877 -0.4203
    1AU       S  389   8.371   9.630   6.347  0.0208 -0.0689 -0.0571
    1AU     LIG  390   8.088  10.029   6.610 -0.2384 -0.2217  0.3147
    1AU     LIG  391   7.740  10.078   6.942 -0.2813  0.0726  0.2989
    1AU     LIG  392   7.317   9.880   6.970  0.2940 -0.1954 -0.3718
    1AU     LIG  393   7.184   9.459   6.969  0.2623 -0.1091 -0.0734
    1AU     LIG  394   7.447   9.247   6.797 -0.1706 -0.4933 -0.0596
    1AU     LIG  395   7.774   9.079   6.623 -0.0315  0.0641  0.2769
    1AU    AUSL  396   9.378   9.499   7.473  0.0221  0.0528 -0.0418
    1AU    AUSL  397   9.344   9.738   6.962  0.1229  0.0319 -0.0711
    1AU     AUL  398   9.330   9.781   7.388  0.0137 -0.0400  0.1330
    1AU       S  399   9.407   9.929   6.988 -0.1973  0.2190  0.2058
    1AU     LIG  400   9.608  10.214   7.225  0.0072  0.0651  0.3270
    1AU     LIG  401   9.939  10.584   7.254  0.0223 -0.3248  0.0917
    1AU     LIG  402  10.103  11.037   7.408  0.2196  0.0866  0.1596
    1AU     LIG  403  10.420  11.326   7.585 -0.3028  0.1680  0.2227
    1AU     LIG  404  10.964  11.360   7.570 -0.0804  0.2851  0.0961
    1AU     LIG  405  11.337  11.247   7.674  0.1347 -0.1498 -0.0356
    1AU       S  406   9.786   9.635   7.460 -0.1288  0.1812 -0.1279
    1AU     LIG  407   9.722  10.008   7.729  0.5599 -0.5691 -0.2913
    1AU     LIG  408   9.690  10.383   7.688  0.2081 -0.0873 -0.1169
    1AU     LIG  409   9.429  10.642   7.425  0.3772 -0.0316 -0.0480
    1AU     LIG  410   9.241  10.927   7.181  0.4174 -0.0753 -0.2382
    1AU     LIG  411   9.026  11.264   6.913  0.1139  0.1497  0.2742
    1AU     LIG  412   8.862  11.426   6.578 -0.1875 -0.0415 -0.0299
    1AU    AUSL  413   9.644   9.504   7.045  0.0523 -0.1002  0.0225
    1AU    AUSL  414   9.859   9.038   7.028  0.0464 -0.1350  0.0074
    1AU     AUL  415  10.001   9.465   6.994  0.0615 -0.0237 -0.0490
    1AU       S  416   9.780   9.735   7.327 -0.4068  0.1549  0.2300
    1AU     LIG  417  10.180   9.964   7.261  0.0581  0.2150  0.0829
    1AU     LIG  418  10.380  10.309   7.252 -0.1869 -0.1987  0.1812
    1AU     LIG  419  10.597  10.702   7.087 -0.6279  0.2703 -0.1872
    1AU     LIG  420  11.040  10.884   7.094  0.2996 -0.1849  0.2169
    1AU     LIG  421  11.510  11.047   7.176 -0.0870 -0.1603  0.2021
    1AU     LIG  422  11.910  10.945   7.084  0.0283  0.1080 -0.1931
    1AU       S  423  10.194   9.022   6.974 -0.2452  0.4182  0.2177
    1AU     LIG  424  10.511   8.952   7.200  0.2255  0.0390 -0.0858
    1AU     LIG  425  10.547   8.714   7.591 -0.0739 -0.0175  0.0676
    1AU     LIG  426  10.793   8.327   7.525 -0.1142 -0.1373  0.0308
    1AU     LIG  427  11.225   8.226   7.337  0.0399  0.2596 -0.4499
    1AU     LIG  428  11.596   8.459   7.266  0.1070 -0.1634  0.0423
    1AU     LIG  429  11.838   8.798   7.295  0.3097 -0.4292 -0.3910
    1AU    AUSL  430   9.582   9.191   7.269 -0.0379 -0.0204  0.0069
    1AU    AUSL  431   9.197   9.120   7.404 -0.0186 -0.0151  0.0411
    1AU     AUL  432   9.504   9.290   7.631 -0.0216  0.0316 -0.0840
    1AU       S  433   9.340   9.008   7.946  0.1574 -0.3090 -0.0395
    1AU     LIG  434   9.490   9.428   8.138 -0.2759 -0.0434 -0.2765
    1AU     LIG  435   9.829   9.637   8.091 -0.3414 -0.1606  0.4774
    1AU     LIG  436  10.236   9.749   7.786 -0.1625  0.0872 -0.4177
    1AU     LIG  437  10.547   9.947   7.689 -0.2727  0.1725  0.0454
    1AU     LIG  438  10.931   9.693   7.525 -0.1373  0.2133  0.1740
    1AU     LIG  439  10.874   9.363   7.347  0.0158 -0.0189 -0.1311
    1AU       S  440   9.909   9.386   7.435  0.2186  0.2836 -0.1432
    1AU     LIG  441  10.360   9.420   7.319 -0.0361 -0.4421  0.5027
    1AU     LIG  442  10.539   9.705   7.152 -0.4890  0.1437  0.3807
    1AU     LIG  443  10.916   9.983   7.122 -0.2486 -0.2903  0.1179
    1AU     LIG  444  11.352  10.078   7.308  0.3579 -0.1665 -0.3282
    1AU     LIG  445  11.739  10.109   7.484  0.0942 -0.1211  0.2472
    1AU     LIG  446  12.161  10.409   7.566  0.0104 -0.0460  0.0370
    1AU    AUSL  447   8.260   8.926   7.166  0.0774 -0.0020 -0.0145
    1AU    AUSL  448   8.560   8.654   7.221 -0.0695 -0.0607 -0.0568
    1AU     AUL  449   8.144   8.939   7.486  0.0280  0.0885 -0.0358
    1AU       S  450   7.823   8.699   7.235 -0.1417  0.1059 -0.3061
    1AU     LIG  451   7.342   8.382   7.047  0.0024 -0.0056 -0.4776
    1AU     LIG  452   7.057   8.026   7.150 -0.2206  0.1917 -0.3635
    1AU     LIG  453   6.587   8.132   7.361 -0.3933  0.0936 -0.0660
    1AU     LIG  454   6.167   7.984   7.214 -0.0299  0.3213  0.1546
    1AU     LIG  455   5.894   7.805   7.411 -0.3310  0.1938 -0.1237
    1AU     LIG  456   5.672   7.581   7.667 -0.3474  0.0574 -0.1448
    1AU       S  457   8.196   8.453   7.485 -0.5378  0.2041 -0.2460
    1AU     LIG  458   7.735   8.290   7.409  0.0887 -0.1176 -0.0220
    1AU     LIG  459   7.391   8.110   7.557 -0.0366 -0.0290 -0.1286
    1AU     LIG  460   7.108   7.950   7.686  0.2752 -0.3594  0.3212
    1AU     LIG  461   6.842   7.720   7.475  0.2059 -0.0724  0.0315
    1AU     LIG  462   6.736   7.529   7.104 -0.0930  0.0087  0.1557
    1AU     LIG  463   6.421   7.587   6.745 -0.1984  0.0303 -0.0934
    1AU    AUSL  464   8.176   8.842   6.775 -0.0407 -0.1197 -0.0289
    1AU    AUSL  465   8.263   9.330   7.230 -0.0284  0.0128 -0.0471
    1AU     AUL  466   8.015   9.054   7.009  0.0220 -0.0214 -0.0814
    1AU       S  467   7.735   8.696   7.015 -0.0470  0.2455  0.3607
    1AU     LIG  468   7.267   8.898   7.086 -0.0947 -0.5304 -0.1518
    1AU     LIG  469   6.898   8.794   6.904 -0.0051 -0.0788  0.0806
    1AU     LIG  470   6.644   8.519   6.942  0.1010  0.1502  0.3671
    1AU     LIG  471   6.244   8.456   6.928 -0.3638 -0.2083 -0.1448
    1AU     LIG  472   5.821   8.334   6.783 -0.3603 -0.0305 -0.0676
    1AU     LIG  473   5.388   8.180   6.643  0.0984  0.1525  0.3626
    1AU       S  474   8.103   9.449   7.216  0.4019 -0.0081 -0.2559
    1AU     LIG  475   7.759   9.225   7.387 -0.1191  0.1776  0.3203
    1AU     LIG  476   7.550   9.032   7.482 -0.2653 -0.2279 -0.0696
    1AU     LIG  477   7.025   9.129   7.595 -0.1734  0.3010  0.1704
    1AU     LIG  478   6.779   9.320   7.237 -0.1199  0.0594 -0.3039
    1AU     LIG  479   6.704   9.355   6.829 -0.0316 -0.3713 -0.2155
    1AU     LIG  480   6.330   9.314   6.545 -0.0820 -0.1038  0.0122
    1AU    AUSL  481   8.246   8.512   7.030 -0.0436  0.1689 -0.0571
    1AU    AUSL  482   8.317   8.664   6.438  0.0414 -0.0355 -0.0097
    1AU     AUL  483   8.020   8.656   6.629  0.0167  0.0641 -0.0019
    1AU       S  484   8.133   8.304   6.337 -0.1544  0.1274 -0.2794
    1AU     LIG  485   7.888   8.203   5.969  0.0213  0.1672  0.2500
    1AU     LIG  486   7.507   8.117   5.994 -0.0221  0.0927  0.3539
    1AU     LIG  487   7.127   7.969   6.086 -0.1187  0.0653 -0.1676
    1AU     LIG  488   6.853   8.117   6.217 -0.3912 -0.6710 -0.3790
    1AU     LIG  489   6.961   8.470   6.509  0.0960 -0.2026 -0.1954
    1AU     LIG  490   7.301   8.790   6.605  0.0642  0.1394 -0.4029
    1AU       S  491   8.080   8.492   7.047  0.2496  0.2333  0.2137
    1AU     LIG  492   7.780   8.200   6.876  0.0180 -0.0995  0.3406
    1AU     LIG  493   7.503   7.890   6.943 -0.3790  0.0136 -0.2392
    1AU     LIG  494   7.244   7.598   6.895 -0.0724 -0.1118  0.1022
    1AU     LIG  495   6.923   7.227   6.640  0.0601  0.0613  0.1097
    1AU     LIG  496   6.747   7.071   6.403  0.0579  0.1326 -0.1612
    1AU     LIG  497   6.334   6.872   6.197 -0.2402  0.2351 -0.1446
    1AU    AUSL  498   9.761   8.914   6.614  0.0399 -0.0142 -0.0665
    1AU    AUSL  499   9.562   8.767   6.959  0.0554 -0.0240 -0.0089
    1AU     AUL  500   9.902   8.694   6.743  0.0242  0.0622  0.0028
    1AU       S  501  10.212   9.023   6.708  0.0575  0.5207 -0.1535
    1AU     LIG  502  10.353   9.367   6.582  0.2770 -0.1511 -0.1354
    1AU     LIG  503  10.744   9.628   6.708 -0.2802  0.0885 -0.0788
    1AU     LIG  504  10.880   9.959   6.615  0.3790 -0.0752  0.0069
    1AU     LIG  505  11.264  10.224   6.537 -0.2077 -0.0555 -0.3569
    1AU     LIG  506  11.531  10.241   6.858 -0.2498  0.1581  0.1139
    1AU     LIG  507  11.601  10.492   7.158 -0.1753  0.1367 -0.2805
    1AU       S  508   9.804   8.256   6.956 -0.0459  0.1077  0.0574
    1AU     LIG  509  10.003   7.872   7.217  0.1422 -0.1888  0.0269
    1AU     LIG  510  10.427   7.849   7.203 -0.2435  0.1786  0.1182
    1AU     LIG  511  10.938   7.806   7.205  0.1115 -0.2012 -0.0239
    1AU     LIG  512  11.391   7.952   6.963 -0.1264 -0.0256 -0.0530
    1AU     LIG  513  11.830   7.894   6.865 -0.3771  0.1104 -0.1001
    1AU     LIG  514  12.266   7.764   6.736 -0.1529 -0.0809  0.1658
    1AU    AUSL  515   9.536   9.202   6.812 -0.0725  0.0269  0.0234
    1AU    AUSL  516   9.651   9.208   6.364 -0.0015  0.0307 -0.1011
    1AU     AUL  517   9.855   9.283   6.606 -0.0011 -0.0198 -0.0471
    1AU       S  518   9.977   9.034   7.067  0.0366  0.0488 -0.2635
    1AU     LIG  519  10.045   8.961   7.513 -0.1713  0.1806  0.4184
    1AU     LIG  520   9.960   8.682   7.709  0.1650 -0.1673 -0.1062
    1AU     LIG  521  10.020   8.627   8.187 -0.2698 -0.0268  0.1955
    1AU     LIG  522   9.968   8.454   8.630 -0.1755  0.4039  0.0310
    1AU     LIG  523  10.264   8.339   8.884  0.3797 -0.0011 -0.0945
    1AU     LIG  524  10.165   8.389   9.284  0.2141  0.0278 -0.2889
    1AU       S  525   9.794   9.353   6.155  0.5547  0.4285 -0.5339
    1AU     LIG  526  10.150   9.138   6.195 -0.0694  0.1508  0.2971
    1AU     LIG  527  10.633   9.032   6.313  0.0130  0.0136  0.1551
    1AU     LIG  528  10.933   8.678   6.374  0.0297 -0.3037 -0.0372
    1AU     LIG  529  10.806   8.215   6.435 -0.2036  0.1178  0.1149
    1AU     LIG  530  11.044   7.749   6.559  0.0749  0.0170 -0.0652
    1AU     LIG  531  11.207   7.474   6.888  0.2762  0.0629 -0.2918
    1AU    AUSL  532   8.635   8.373   6.390 -0.0305  0.0389  0.0356
    1AU    AUSL  533   8.598   8.947   6.462 -0.0586 -0.1570 -0.0046
    1AU     AUL  534   8.407   8.731   6.166 -0.0411  0.0458  0.0377
    1AU       S  535   8.552   8.949   5.769  0.1098 -0.2840 -0.0164
    1AU     LIG  536   8.070   9.035   5.690 -0.1037  0.1745 -0.0754
    1AU     LIG  537   7.939   9.451   5.675  0.0328  0.0316  0.2148
    1AU     LIG  538   7.896   9.804   5.904  0.1530  0.0134  0.2889
    1AU     LIG  539   7.879  10.190   5.867  0.0487 -0.0932 -0.0569
    1AU     LIG  540   8.178  10.607   5.752  0.1507  0.2907  0.0624
    1AU     LIG  541   8.410  10.904   6.056 -0.1191 -0.0898  0.3277
    1AU       S  542   8.356   8.286   6.347  0.1328 -0.0230  0.1439
    1AU     LIG  543   8.401   7.857   6.303  0.2171 -0.0051  0.1595
    1AU     LIG  544   8.026   7.521   6.235 -0.0435 -0.0378  0.2174
    1AU     LIG  545   7.601   7.597   6.041  0.5727 -0.1800  0.1035
    1AU     LIG  546   7.342   7.674   5.756 -0.0402  0.3452 -0.0611
    1AU     LIG  547   6.950   7.687   5.657 -0.1206  0.2550  0.1426
    1AU     LIG  548   6.609   7.963   5.738  0.2099  0.2171  0.0260
    1AU    AUSL  549   8.534   8.529   6.749  0.0418 -0.0917 -0.0512
    1AU    AUSL  550   8.924   8.402   6.666  0.0605 -0.0269 -0.0315
    1AU     AUL  551   8.724   8.129   6.539  0.0335  0.0291 -0.1086
    1AU       S  552   8.257   8.248   6.622 -0.1725  0.2441 -0.3962
    1AU     LIG  553   8.101   7.813   6.696  0.4340  0.0879  0.0166
    1AU     LIG  554   7.734   7.484   6.707  0.6140  0.2030 -0.2462
    1AU     LIG  555   7.566   7.140   6.928  0.3905  0.2580  0.1524
    1AU     LIG  556   7.103   6.914   6.983  0.1034  0.0973 -0.6012
    1AU     LIG  557   6.807   6.615   6.802  0.2948 -0.2890 -0.3237
    1AU     LIG  558   6.425   6.498   6.609  0.0723  0.0078 -0.0370
    1AU       S  559   8.830   7.731   6.707  0.1504 -0.2551  0.1241
    1AU     LIG  560   8.428   7.426   6.732 -0.2562  0.0635  0.3420
    1AU     LIG  561   8.470   6.876   6.789  0.2291  0.2833  0.0931
    1AU     LIG  562   8.719   6.551   6.737 -0.0047 -0.0224 -0.0592
    1AU     LIG  563   9.000   6.398   6.495 -0.0859 -0.0290  0.2163
    1AU     LIG  564   9.443   6.462   6.422 -0.0115  0.0702  0.2088
    1AU     LIG  565   9.914   6.621   6.485 -0.0491 -0.0100  0.2057
    2POPC   NC3  566   3.846   3.186   8.853 -0.1143  0.1034 -0.2807
    2POPC   PO4  567   4.251   3.291   8.912 -0.3354 -0.0949 -0.1658
    2POPC   GL1  568   4.585   3.366   8.613 -0.0186 -0.1017  0.1376
    2POPC   GL2  569   4.837   3.125   8.418 -0.2747 -0.3672 -0.2069
    2POPC   C1A  570   4.572   3.514   8.251  0.1408 -0.1737  0.0010
    2POPC   D2A  571   4.512   3.655   7.750  0.4073  0.0017  0.0504
    2POPC   C3A  572   4.251   3.337   7.522  0.0061  0.0601 -0.0477
    2POPC   C4A  573   3.929   3.266   7.268 -0.3245 -0.0867 -0.1542
    2POPC   C1B  574   5.063   3.159   8.014  0.1105  0.2271  0.3032
    2POPC   C2B  575   5.119   3.281   7.645  0.1070  0.2245 -0.4687
    2POPC   C3B  576   4.834   3.377   7.271 -0.2833 -0.0084  0.1128
    2POPC   C4B  577   4.838   3.327   6.798 -0.3377  0.1044 -0.0310
    3POPC   NC3  578   1.033   3.166   9.377  0.1096  0.0148 -0.2826
    3POPC   PO4  579   1.087   2.783   9.136  0.1375  0.4211  0.2398
    3POPC   GL1  580   0.896   2.882   8.796  0.0192 -0.3058 -0.3296
    3POPC   GL2  581   0.567   3.085   8.668 -0.1527 -0.1013 -0.0838
    3POPC   C1A  582   0.930   2.703   8.447 -0.0809  0.2576  0.2395
    3POPC   D2A  583   1.246   2.608   8.115 -0.2314  0.2488 -0.3196
    3POPC   C3A  584   1.402   2.495   7.616  0.1265  0.1019 -0.0914
    3POPC   C4A  585   1.221   2.311   7.320 -0.1850 -0.0602 -0.0078
    3POPC   C1B  586   0.545   3.235   8.313  0.2391  0.0443 -0.0231
    3POPC   C2B  587   0.784   2.969   8.082 -0.4277 -0.2837  0.0064
    3POPC   C3B  588   0.800   2.483   7.944 -0.1993 -0.1550 -0.1574
    3POPC   C4B  589   0.388   2.328   7.778  0.0511  0.1066 -0.0816
    4POPC   NC3  590   4.704   3.294   9.317 -0.0184 -0.3094  0.1119
    4POPC   PO4  591   4.950   3.619   9.305 -0.3076 -0.1402 -0.2792
    4POPC   GL1  592   4.777   3.809   9.006 -0.1805 -0.1299  0.0729
    4POPC   GL2  593   4.980   3.714   8.750  0.0914 -0.1546 -0.0409
    4POPC   C1A  594   4.576   3.932   8.508  0.1310 -0.3217 -0.0794
    4POPC   D2A  595   4.635   3.998   8.148 -0.0420  0.3693  0.0105
    4POPC   C3A  596   4.812   4.272   7.910 -0.0518 -0.3162 -0.2777
    4POPC   C4A  597   5.024   4.806   7.896 -0.0029 -0.0029 -0.1519
    4POPC   C1B  598   5.044   3.654   8.364  0.0184 -0.0165 -0.0203
    4POPC   C2B  599   5.056   3.701   7.952 -0.2071 -0.4040  0.2301
    4POPC   C3B  600   4.987   3.909   7.553  0.1660 -0.5367  0.4397
    4POPC   C4B  601   5.032   4.059   7.158 -0.2098 -0.0681 -0.2260
    5POPC   NC3  602   7.735   3.098   8.494  0.1182 -0.2264 -0.1092
    5POPC   PO4  603   7.405   3.301   8.233  0.0585  0.0984 -0.3173
    5POPC   GL1  604   7.239   3.197   7.859 -0.2355 -0.0295  0.1325
    5POPC   GL2  605   7.088   2.916   7.935  0.0320 -0.1566  0.1537
    5POPC   C1A  606   7.051   3.129   7.438 -0.0011  0.0581  0.2030
    5POPC   D2A  607   7.176   2.727   7.217 -0.0479  0.1120 -0.1963
    5POPC   C3A  608   7.003   2.321   7.144  0.4157  0.2316  0.0986
    5POPC   C4A  609   6.955   2.026   6.952  0.1061  0.0001 -0.2845
    5POPC   C1B  610   7.395   2.708   7.743  0.1383 -0.0421  0.0097
    5POPC   C2B  611   7.315   2.330   7.536 -0.3146 -0.0502 -0.0081
    5POPC   C3B  612   7.337   1.885   7.342 -0.0958 -0.2012 -0.0821
    5POPC   C4B  613   7.233   1.655   7.070 -0.2061 -0.0581  0.0632
    6POPC   NC3  614   2.551   2.569   9.096 -0.1086  0.3487 -0.3189
    6POPC   PO4  615   2.489   2.868   9.301 -0.2168  0.0615  0.0518
    6POPC   GL1  616   2.903   2.863   8.959  0.0414 -0.0756  0.2117
    6POPC   GL2  617   2.725   2.741   8.632  0.1633 -0.0500 -0.1498
    6POPC   C1A  618   3.250   2.845   8.499  0.0809  0.0161  0.1989
    6POPC   D2A  619   3.648   2.734   8.481 -0.2884 -0.0250 -0.3302
    6POPC   C3A  620   3.837   2.862   8.056 -0.3011  0.0246 -0.0520
    6POPC   C4A  621   4.132   2.876   7.728 -0.0935  0.0271  0.0056
    6POPC   C1B  622   2.440   2.875   8.264  0.0263  0.1688  0.1118
    6POPC   C2B  623   2.125   3.161   8.253 -0.0753  0.4930 -0.0831
    6POPC   C3B  624   2.018   3.530   8.016  0.1661  0.1181  0.1774
    6POPC   C4B  625   1.798   3.871   7.880  0.1724  0.2816  0.2702
    7POPC   NC3  626   0.870   0.782   9.653  0.0180  0.5967 -0.2160
    7POPC   PO4  627   0.961   1.045   9.281  0.0596  0.2273  0.2413
    7POPC   GL1  628   0.941   0.860   8.862  0.1151 -0.2618  0.0312
    7POPC   GL2  629   1.308   0.764   8.854  0.3077  0.2267  0.1379
    7POPC   C1A  630   0.712   0.774   8.465 -0.0121  0.0126 -0.0650
    7POPC   D2A  631   0.453   0.526   8.266 -0.1625  0.4419  0.0468
    7POPC   C3A  632   0.225   0.184   7.993 -0.0421  0.0366 -0.3251
    7POPC   C4A  633  -0.030   0.060   7.684 -0.1064  0.0225 -0.3491
    7POPC   C1B  634   1.554   0.929   8.553  0.1503  0.7033  0.0579
    7POPC   C2B  635   1.490   1.194   8.332  0.0049 -0.0579  0.1827
    7POPC   C3B  636   1.488   1.333   7.876  0.2967 -0.2352 -0.3036
    7POPC   C4B  637   1.768   1.548   7.595 -0.0612 -0.0884  0.2376
    8POPC   NC3  638   6.319   8.199   9.452  0.0087 -0.0044  0.1176
    8POPC   PO4  639   6.500   8.509   9.715  0.3943 -0.2137  0.1440
    8POPC   GL1  640   6.855   8.321   9.413  0.0562 -0.1402 -0.0922
    8POPC   GL2  641   7.179   8.538   9.400  0.0135 -0.0265 -0.1209
    8POPC   C1A  642   6.758   8.187   9.019 -0.1473  0.1987  0.1332
    8POPC   D2A  643   6.674   8.306   8.654  0.2321  0.2148 -0.0340
    8POPC   C3A  644   6.826   8.145   8.292  0.1118  0.0684 -0.0597
    8POPC   C4A  645   6.623   8.063   7.858 -0.1127 -0.0808  0.0694
    8POPC   C1B  646   7.278   8.441   8.893  0.0037  0.1449 -0.0081
    8POPC   C2B  647   7.230   8.323   8.518 -0.1134 -0.0078 -0.1699
    8POPC   C3B  648   6.961   8.650   8.388  0.0098 -0.3303  0.1611
    8POPC   C4B  649   7.072   9.054   8.279  0.2315 -0.1006  0.0085
    9POPC   NC3  650   1.269   7.196   9.988 -0.0513 -0.2808  0.0657
    9POPC   PO4  651   1.298   7.440   9.518  0.0795 -0.0727  0.0618
    9POPC   GL1  652   1.357   7.642   9.148 -0.0665 -0.2533 -0.2588
    9POPC   GL2  653   1.452   7.314   8.906  0.1387 -0.5943 -0.1424
    9POPC   C1A  654   1.096   7.832   8.739  0.2324  0.3814  0.3120
    9POPC   D2A  655   0.865   8.063   8.530 -0.0960 -0.0041 -0.1242
    9POPC   C3A  656   1.073   8.483   8.383  0.0586  0.2200 -0.1381
    9POPC   C4A  657   0.904   8.856   8.600  0.2577  0.2017  0.1303
    9POPC   C1B  658   1.445   7.552   8.516  0.0971  0.1270  0.0079
    9POPC   C2B  659   1.463   7.661   8.082  0.0519 -0.1603  0.2543
    9POPC   C3B  660   1.545   7.657   7.677 -0.1336 -0.0251  0.0423
    9POPC   C4B  661   1.585   7.965   7.425 -0.1068  0.0234 -0.2122
   10POPC   NC3  662   7.609   1.494   9.684 -0.1329 -0.2637 -0.2228
   10POPC   PO4  663   7.378   1.484   9.306  0.4172  0.0669 -0.1032
   10POPC   GL1  664   7.374   1.371   8.971 -0.3186  0.1924 -0.2062
   10POPC   GL2  665   7.113   1.400   8.874  0.1888 -0.1289 -0.2952
   10POPC   C1A  666   7.633   1.299   8.730 -0.2287 -0.3090  0.2852
   10POPC   D2A  667   7.757   1.075   8.448 -0.0932  0.3083 -0.1493
   10POPC   C3A  668   7.444   0.802   8.463 -0.0581  0.1537  0.0165
   10POPC   C4A  669   7.059   0.613   8.265 -0.1145  0.0966 -0.0880
   10POPC   C1B  670   7.083   1.220   8.474  0.0015 -0.0067  0.0007
   10POPC   C2B  671   7.417   1.209   8.125  0.2675  0.0549 -0.3032
   10POPC   C3B  672   7.226   0.953   7.763 -0.1643  0.2391 -0.1707
   10POPC   C4B  673   7.101   0.493   7.743 -0.0863 -0.3183  0.0509
   11POPC   NC3  674   1.422   4.133   8.981  0.0315 -0.0301  0.0349
   11POPC   PO4  675   1.424   3.677   8.968  0.1548 -0.0522 -0.1414
   11POPC   GL1  676   1.496   3.828   8.612 -0.2020  0.4061  0.0772
   11POPC   GL2  677   1.213   3.777   8.541  0.0481 -0.0436  0.0972
   11POPC   C1A  678   1.704   4.129   8.299  0.4093  0.4315  0.1794
   11POPC   D2A  679   2.075   4.294   7.944  0.2797 -0.0933 -0.1983
   11POPC   C3A  680   1.989   4.255   7.588  0.0558 -0.1406 -0.1798
   11POPC   C4A  681   1.845   4.283   7.172 -0.0904 -0.3294  0.0279
   11POPC   C1B  682   1.524   3.581   8.214  0.0765  0.2112  0.0724
   11POPC   C2B  683   1.546   3.330   7.906  0.0922  0.0277  0.2601
   11POPC   C3B  684   1.300   2.945   7.747 -0.2759 -0.2978 -0.1187
   11POPC   C4B  685   0.921   2.767   7.513  0.4413  0.1113  0.1242
   12POPC   NC3  686   5.413   8.637   9.745 -0.2399  0.0882 -0.4078
   12POPC   PO4  687   5.459   8.451   9.305  0.1065  0.1248 -0.0054
   12POPC   GL1  688   5.452   8.376   8.819 -0.0851 -0.1768  0.0167
   12POPC   GL2  689   5.513   8.087   8.754  0.2539 -0.2045  0.3782
   12POPC   C1A  690   5.220   8.654   8.506 -0.0298 -0.2359  0.1311
   12POPC   D2A  691   5.162   8.702   7.994 -0.0420 -0.1296 -0.0725
   12POPC   C3A  692   4.938   8.892   7.599 -0.2920 -0.1731  0.1384
   12POPC   C4A  693   4.690   8.984   7.305 -0.0032  0.2051 -0.1623
   12POPC   C1B  694   5.351   7.891   8.428 -0.0152  0.0133 -0.2400
   12POPC   C2B  695   5.355   7.900   7.952 -0.3545  0.0268 -0.0617
   12POPC   C3B  696   5.329   7.908   7.501 -0.1688 -0.1256  0.3971
   12POPC   C4B  697   5.480   7.881   7.024  0.1366  0.0409 -0.2781
   13POPC   NC3  698   3.442   0.479   9.670  0.0621  0.1773  0.0182
   13POPC   PO4  699   3.852   0.535   9.309 -0.2311  0.2332  0.2378
   13POPC   GL1  700   3.865   0.249   8.912  0.0121  0.0907 -0.0546
   13POPC   GL2  701   3.561   0.219   8.773 -0.1379 -0.1632 -0.2152
   13POPC   C1A  702   3.893  -0.004   8.438 -0.1139  0.3368  0.2179
   13POPC   D2A  703   4.085  -0.066   7.983 -0.0156  0.0283  0.1007
   13POPC   C3A  704   3.867  -0.412   7.757 -0.1036 -0.4622  0.0627
   13POPC   C4A  705   3.565  -0.364   7.432  0.1086  0.3527 -0.0998
   13POPC   C1B  706   3.346   0.536   8.491 -0.3183  0.1649  0.0514
   13POPC   C2B  707   3.172   0.761   8.097 -0.1037  0.1423  0.0291
   13POPC   C3B  708   3.183   1.090   7.783 -0.4341 -0.2137  0.3803
   13POPC   C4B  709   3.375   1.550   7.699 -0.2652 -0.1117 -0.3673
   14POPC   NC3  710   4.217   1.409   9.553 -0.1899 -0.1028 -0.0199
   14POPC   PO4  711   4.245   1.493   9.097 -0.0236 -0.3884 -0.2121
   14POPC   GL1  712   4.060   1.528   8.633  0.1409 -0.1112 -0.1333
   14POPC   GL2  713   4.326   1.341   8.384  0.2073  0.0770  0.1849
   14POPC   C1A  714   3.870   1.518   8.194 -0.2613  0.0457 -0.0445
   14POPC   D2A  715   3.955   1.817   7.838  0.0740 -0.0671  0.3328
   14POPC   C3A  716   4.135   1.836   7.450 -0.2267 -0.1345  0.2015
   14POPC   C4A  717   4.259   1.540   7.095 -0.1849 -0.3659  0.1701
   14POPC   C1B  718   4.350   1.495   7.971  0.0454  0.0033  0.0532
   14POPC   C2B  719   4.354   1.200   7.602 -0.1399  0.0548 -0.1701
   14POPC   C3B  720   4.363   0.785   7.323  0.2211  0.0683 -0.3798
   14POPC   C4B  721   4.762   0.632   7.063 -0.3698 -0.1907  0.2225
   15POPC   NC3  722   7.181   3.022   8.605  0.0936  0.1002  0.3459
   15POPC   PO4  723   7.362   2.799   8.342 -0.1592  0.0516 -0.1095
   15POPC   GL1  724   7.776   2.525   8.400  0.1105 -0.2261  0.2087
   15POPC   GL2  725   7.965   2.631   8.278 -0.1827 -0.0766 -0.0970
   15POPC   C1A  726   8.001   2.151   8.304 -0.0551  0.0468  0.1435
   15POPC   D2A  727   8.448   2.122   8.200  0.1052  0.1773 -0.2808
   15POPC   C3A  728   8.704   2.016   7.836  0.4851 -0.0904  0.3530
   15POPC   C4A  729   8.689   1.853   7.452 -0.1220  0.0641  0.0854
   15POPC   C1B  730   7.868   2.667   7.812 -0.0880  0.2220  0.1715
   15POPC   C2B  731   7.674   2.726   7.410 -0.1369  0.1031 -0.1978
   15POPC   C3B  732   7.702   2.746   6.983  0.1091  0.1085 -0.3292
   15POPC   C4B  733   7.467   2.684   6.710 -0.0404 -0.2682 -0.0210
   16POPC   NC3  734   6.529   9.479   9.744 -0.2592  0.0354 -0.0238
   16POPC   PO4  735   6.824   9.379  10.063 -0.1474 -0.1876  0.2741
   16POPC   GL1  736   6.918   9.220   9.602 -0.2024 -0.0938  0.1077
   16POPC   GL2  737   6.791   8.861   9.482  0.0589 -0.0867  0.2016
   16POPC   C1A  738   7.170   9.187   9.194 -0.1973 -0.0625 -0.2415
   16POPC   D2A  739   7.163   9.073   8.780  0.0699  0.0444 -0.0654
   16POPC   C3A  740   7.440   8.793   8.549  0.0500 -0.1341  0.0977
   16POPC   C4A  741   7.774   8.924   8.353 -0.0968  0.0808 -0.1463
   16POPC   C1B  742   6.765   8.821   9.055 -0.3552 -0.1666 -0.0607
   16POPC   C2B  743   6.601   8.880   8.524  0.1692  0.2895 -0.2389
   16POPC   C3B  744   6.470   8.504   8.136  0.2281  0.0821 -0.0309
   16POPC   C4B  745   6.063   8.492   8.081  0.0315  0.4229 -0.5044
   17POPC   NC3  746   4.871   6.856   9.042 -0.1397 -0.2297  0.1106
   17POPC   PO4  747   4.795   6.474   9.168 -0.3051 -0.4247 -0.1091
   17POPC   GL1  748   4.488   6.290   8.802 -0.0765  0.0276  0.1484
   17POPC   GL2  749   4.121   6.277   8.772  0.3414 -0.0419 -0.1111
   17POPC   C1A  750   4.293   5.968   8.433 -0.0613 -0.1290  0.0203
   17POPC   D2A  751   4.091   5.741   8.101  0.2810 -0.0680 -0.0784
   17POPC   C3A  752   4.337   5.682   7.749 -0.3262 -0.0834 -0.1180
   17POPC   C4A  753   4.782   5.678   7.570 -0.1937  0.1631  0.1314
   17POPC   C1B  754   4.384   6.485   8.363 -0.3131  0.2683 -0.0439
   17POPC   C2B  755   4.640   6.558   7.976  0.0566  0.0679 -0.3012
   17POPC   C3B  756   4.830   6.538   7.527 -0.0239  0.1177  0.1574
   17POPC   C4B  757   5.224   6.289   7.500 -0.2332  0.1750 -0.0837
   18POPC   NC3  758   6.779   2.113   8.989 -0.1123 -0.1222 -0.2608
   18POPC   PO4  759   6.437   1.817   8.993 -0.1753  0.0730 -0.0023
   18POPC   GL1  760   6.069   1.803   8.765  0.1718  0.1947 -0.0980
   18POPC   GL2  761   6.204   1.634   8.536 -0.0303 -0.2114  0.0628
   18POPC   C1A  762   5.575   1.868   8.473 -0.1043  0.3683  0.1642
   18POPC   D2A  763   5.125   1.932   8.416  0.1361  0.0956  0.1403
   18POPC   C3A  764   4.736   1.861   8.066  0.1177  0.1824 -0.0535
   18POPC   C4A  765   4.585   1.817   7.563 -0.2066  0.0412 -0.4604
   18POPC   C1B  766   5.984   1.875   8.208  0.0234 -0.0152  0.1404
   18POPC   C2B  767   5.880   1.974   7.670 -0.0822 -0.2938  0.0635
   18POPC   C3B  768   5.538   1.921   7.316 -0.0694 -0.3285  0.1787
   18POPC   C4B  769   5.170   1.509   7.088 -0.2628 -0.0388 -0.1124
   19POPC   NC3  770   9.522   1.711   9.494  0.0980 -0.0431  0.1770
   19POPC   PO4  771   9.353   1.400   9.809 -0.1848 -0.2576 -0.0190
   19POPC   GL1  772   9.278   0.965   9.449  0.2364 -0.0082  0.1657
   19POPC   GL2  773   9.360   0.622   9.539  0.3128  0.1818 -0.1659
   19POPC   C1A  774   9.003   0.761   9.246 -0.3242  0.4078 -0.1414
   19POPC   D2A  775   8.588   0.922   9.135 -0.0087 -0.1323  0.3802
   19POPC   C3A  776   8.392   0.747   8.712  0.0083 -0.2807  0.1235
   19POPC   C4A  777   8.623   0.609   8.302 -0.1301  0.0183 -0.5182
   19POPC   C1B  778   9.437   0.551   9.080  0.1945  0.1107 -0.0590
   19POPC   C2B  779   9.298   0.515   8.597  0.1307  0.1789 -0.2167
   19POPC   C3B  780   9.100   0.542   8.273  0.0551  0.0462 -0.0610
   19POPC   C4B  781   9.104   0.446   7.901 -0.1259  0.3105 -0.1008
   20POPC   NC3  782   2.582   5.892   9.126  0.1690 -0.1444 -0.0398
   20POPC   PO4  783   2.509   5.441   9.155  0.0884  0.0721 -0.1316
   20POPC   GL1  784   2.584   5.465   8.746  0.0671  0.2207 -0.0200
   20POPC   GL2  785   2.576   5.862   8.627  0.1225  0.0889 -0.3224
   20POPC   C1A  786   2.498   5.424   8.256  0.0449  0.2774  0.0780
   20POPC   D2A  787   2.601   5.267   7.896  0.3129 -0.1395 -0.1529
   20POPC   C3A  788   2.466   4.891   7.893  0.0865  0.1586 -0.2824
   20POPC   C4A  789   2.453   4.501   8.174  0.0284 -0.0303  0.1536
   20POPC   C1B  790   2.857   5.838   8.313  0.1196 -0.0444 -0.0867
   20POPC   C2B  791   2.771   5.770   7.839 -0.2902 -0.2153  0.2565
   20POPC   C3B  792   2.635   5.637   7.430  0.2334 -0.0579 -0.1080
   20POPC   C4B  793   2.439   5.292   7.348  0.1134  0.2405 -0.0026
   21POPC   NC3  794   9.977   6.257   9.335 -0.0058  0.0215  0.0588
   21POPC   PO4  795  10.185   6.406   9.647  0.0399 -0.3465 -0.0216
   21POPC   GL1  796  10.072   6.787   9.391  0.3638 -0.5508 -0.1373
   21POPC   GL2  797  10.194   6.647   9.086  0.1467  0.2805 -0.3129
   21POPC   C1A  798   9.814   7.132   9.259 -0.0151  0.3304 -0.1237
   21POPC   D2A  799   9.438   7.171   8.938  0.0402  0.0040 -0.2637
   21POPC   C3A  800   9.314   7.178   8.525  0.1901  0.2844  0.0710
   21POPC   C4A  801   9.388   7.186   8.063  0.2580  0.3363 -0.1028
   21POPC   C1B  802  10.172   6.988   8.791  0.0795  0.0688 -0.0888
   21POPC   C2B  803  10.302   7.394   8.607 -0.1637  0.0041 -0.0515
   21POPC   C3B  804  10.321   7.584   8.171  0.0518 -0.2189 -0.1307
   21POPC   C4B  805  10.558   7.933   7.939  0.0915 -0.2406 -0.0697
   22POPC   NC3  806   1.662   9.996   9.400 -0.0070  0.1310 -0.1734
   22POPC   PO4  807   1.485  10.356   9.456 -0.0744  0.2952 -0.0911
   22POPC   GL1  808   1.548  10.315   9.030  0.0593 -0.3328 -0.2065
   22POPC   GL2  809   1.383  10.484   8.989 -0.2131  0.2778  0.1196
   22POPC   C1A  810   1.733  10.247   8.660  0.1483  0.1630  0.2010
   22POPC   D2A  811   1.702   9.941   8.303 -0.0330  0.2681 -0.1564
   22POPC   C3A  812   1.729   9.971   7.893 -0.0931  0.0574 -0.2642
   22POPC   C4A  813   2.171   9.926   7.831 -0.2821  0.2779 -0.1146
   22POPC   C1B  814   0.933  10.461   8.848 -0.2552  0.3670  0.2133
   22POPC   C2B  815   0.802  10.264   8.470  0.0007 -0.0520 -0.2425
   22POPC   C3B  816   0.697  10.189   8.149 -0.0411  0.2824  0.1851
   22POPC   C4B  817   0.854  10.040   7.808 -0.0524 -0.1043 -0.1340
   23POPC   NC3  818   9.474   3.671   9.392 -0.1307  0.1493  0.0028
   23POPC   PO4  819   9.379   3.744   9.026  0.0207 -0.1768  0.1720
   23POPC   GL1  820   9.473   3.812   8.571  0.2150 -0.1557  0.0158
   23POPC   GL2  821   9.175   3.986   8.497 -0.0495  0.1576  0.0678
   23POPC   C1A  822   9.727   3.684   8.196  0.1011  0.0778  0.1541
   23POPC   D2A  823   9.949   3.438   7.765  0.4054 -0.0936  0.1176
   23POPC   C3A  824   9.748   3.336   7.406  0.2464  0.1801  0.0306
   23POPC   C4A  825   9.445   3.322   7.024 -0.1111 -0.4235  0.0368
   23POPC   C1B  826   9.190   3.962   8.028  0.1129 -0.2836 -0.0703
   23POPC   C2B  827   9.260   4.107   7.563 -0.1619  0.0326 -0.2009
   23POPC   C3B  828   9.447   4.341   7.170 -0.1016  0.2336 -0.2188
   23POPC   C4B  829   9.741   4.283   6.786  0.1500 -0.0908 -0.1919
   24POPC   NC3  830   7.697   1.826   9.070  0.4125  0.1414 -0.0051
   24POPC   PO4  831   7.993   1.582   9.413  0.0127 -0.3009  0.1650
   24POPC   GL1  832   7.837   1.199   9.179 -0.0579 -0.0246  0.1376
   24POPC   GL2  833   8.134   1.102   8.959 -0.1659 -0.2178 -0.1240
   24POPC   C1A  834   7.580   0.877   9.163 -0.0030  0.1561  0.0069
   24POPC   D2A  835   7.378   0.627   8.985 -0.1329 -0.0257 -0.0150
   24POPC   C3A  836   7.591   0.247   9.004  0.0473  0.3972 -0.0429
   24POPC   C4A  837   7.716  -0.185   9.252  0.0088 -0.0038 -0.1536
   24POPC   C1B  838   8.209   1.306   8.598  0.0049  0.1313  0.0565
   24POPC   C2B  839   8.233   1.632   8.202 -0.0605  0.2054 -0.0397
   24POPC   C3B  840   8.161   1.826   7.876  0.2088  0.0360 -0.1917
   24POPC   C4B  841   8.263   2.204   7.653 -0.2798  0.1204 -0.0799
   25POPC   NC3  842   5.343   3.919   9.457 -0.2792 -0.0632  0.0376
   25POPC   PO4  843   5.797   3.915   9.202 -0.0153  0.2934 -0.0709
   25POPC   GL1  844   5.749   3.996   8.727  0.1607  0.1986  0.1408
   25POPC   GL2  845   5.511   3.684   8.626 -0.2347  0.2261 -0.1929
   25POPC   C1A  846   5.757   4.123   8.326  0.1427  0.1263 -0.0332
   25POPC   D2A  847   5.694   3.923   7.870  0.2133 -0.1758 -0.1665
   25POPC   C3A  848   5.452   3.917   7.479 -0.0894 -0.2156  0.1747
   25POPC   C4A  849   5.264   3.556   7.273 -0.2620 -0.2407 -0.0720
   25POPC   C1B  850   5.530   3.535   8.178 -0.0455  0.0529 -0.0924
   25POPC   C2B  851   5.559   3.475   7.812 -0.0942 -0.0068 -0.5643
   25POPC   C3B  852   5.662   3.338   7.461  0.0609 -0.0010  0.0667
   25POPC   C4B  853   5.839   3.236   7.086 -0.3598 -0.3322 -0.1504
   26POPC   NC3  854   9.727   2.102   9.130  0.1778 -0.1373  0.2549
   26POPC   PO4  855  10.039   1.769   9.364 -0.0001  0.0985 -0.0771
   26POPC   GL1  856   9.980   1.726   8.863 -0.3749 -0.2870 -0.0395
   26POPC   GL2  857  10.124   1.985   8.776  0.1095 -0.0472 -0.4320
   26POPC   C1A  858   9.800   1.828   8.408  0.2222  0.0732 -0.2014
   26POPC   D2A  859   9.540   1.809   8.071 -0.2957  0.2369  0.0461
   26POPC   C3A  860   9.594   1.639   7.653 -0.1294 -0.2066  0.2186
   26POPC   C4A  861   9.697   1.643   7.132 -0.3039 -0.1688 -0.0971
   26POPC   C1B  862  10.584   1.962   8.484  0.2245  0.1000 -0.0653
   26POPC   C2B  863  10.811   1.946   8.012  0.0415 -0.0527 -0.2091
   26POPC   C3B  864  10.728   1.836   7.689  0.0352 -0.0145  0.2281
   26POPC   C4B  865  10.676   1.560   7.423 -0.0695 -0.2085  0.1062
   27POPC   NC3  866   6.977   6.028   9.484 -0.0132 -0.0906  0.0866
   27POPC   PO4  867   6.710   6.374   9.323 -0.2210  0.2605 -0.2474
   27POPC   GL1  868   6.621   6.815   9.220 -0.0920  0.2738 -0.1461
   27POPC   GL2  869   6.363   6.811   9.047  0.0566  0.1414 -0.3406
   27POPC   C1A  870   6.781   7.011   8.759 -0.1912  0.0973  0.1036
   27POPC   D2A  871   7.188   7.019   8.475 -0.2998 -0.0179  0.3524
   27POPC   C3A  872   7.485   7.331   8.305 -0.3228  0.0839  0.2076
   27POPC   C4A  873   7.509   7.591   7.997 -0.1313 -0.1436  0.0309
   27POPC   C1B  874   6.362   6.800   8.634 -0.1653 -0.2841 -0.1030
   27POPC   C2B  875   6.496   6.906   8.255  0.0182 -0.0592  0.0188
   27POPC   C3B  876   6.633   7.231   8.000 -0.3040  0.1128 -0.2383
   27POPC   C4B  877   6.958   7.511   7.900 -0.1605  0.1321  0.4335
   28POPC   NC3  878   9.466   5.632   9.184  0.0075 -0.0882  0.1641
   28POPC   PO4  879   9.895   5.761   9.157 -0.1051  0.0567 -0.4812
   28POPC   GL1  880   9.795   6.039   8.892 -0.1489  0.0092 -0.2382
   28POPC   GL2  881   9.978   6.304   8.833 -0.0166 -0.1557  0.1106
   28POPC   C1A  882   9.951   6.030   8.443 -0.0473  0.2071  0.4322
   28POPC   D2A  883  10.352   6.111   8.219  0.2509  0.0711 -0.0074
   28POPC   C3A  884  10.326   6.046   7.849  0.1114  0.1710 -0.0374
   28POPC   C4A  885  10.427   5.680   7.541  0.0239  0.1156 -0.0824
   28POPC   C1B  886   9.566   6.388   8.555 -0.0229  0.1589 -0.0051
   28POPC   C2B  887   9.452   6.669   8.144 -0.0868 -0.0832  0.0523
   28POPC   C3B  888   9.327   6.644   7.763  0.2088 -0.4170  0.0125
   28POPC   C4B  889   9.496   6.757   7.383 -0.1724  0.2499  0.0401
   29POPC   NC3  890   9.166   7.469   9.724 -0.2494  0.0088 -0.4142
   29POPC   PO4  891   9.268   7.999   9.729  0.0674  0.1367 -0.1305
   29POPC   GL1  892   9.339   8.338   9.430  0.1669  0.2066 -0.0765
   29POPC   GL2  893   9.320   8.033   9.193  0.1945  0.1296  0.0288
   29POPC   C1A  894   9.599   8.427   9.024  0.0866 -0.0917  0.1624
   29POPC   D2A  895   9.393   8.498   8.582  0.3717  0.2232 -0.1956
   29POPC   C3A  896   9.249   8.142   8.396 -0.1502  0.0218  0.0963
   29POPC   C4A  897   9.190   7.716   8.479  0.1519  0.1034  0.0500
   29POPC   C1B  898   9.412   7.679   8.957  0.4285  0.3084  0.6102
   29POPC   C2B  899   9.801   7.467   8.871  0.0048  0.0681 -0.2121
   29POPC   C3B  900   9.886   7.478   8.394  0.1733 -0.0187  0.0000
   29POPC   C4B  901   9.896   7.349   7.947  0.0982  0.0877 -0.2837
   30POPC   NC3  902   6.321   3.132   8.520  0.2019 -0.2146  0.2062
   30POPC   PO4  903   6.445   3.502   8.397  0.0384 -0.1229  0.2771
   30POPC   GL1  904   6.564   3.701   7.972  0.1748 -0.0630  0.0746
   30POPC   GL2  905   6.923   3.664   7.829 -0.0333 -0.2014 -0.0973
   30POPC   C1A  906   6.594   3.861   7.495  0.3798 -0.1208 -0.2202
   30POPC   D2A  907   6.719   4.234   7.222  0.1539  0.2419  0.1113
   30POPC   C3A  908   6.937   4.027   6.851  0.1391  0.1021 -0.2301
   30POPC   C4A  909   6.734   3.774   6.596 -0.3135  0.1966  0.1334
   30POPC   C1B  910   7.107   4.038   7.650 -0.0405 -0.5414  0.0623
   30POPC   C2B  911   7.216   4.183   7.224  0.1130  0.0303 -0.1709
   30POPC   C3B  912   7.035   4.556   6.975  0.0839 -0.2713  0.1040
   30POPC   C4B  913   6.736   4.905   7.080 -0.2923 -0.2223 -0.0416
   31POPC   NC3  914   0.175   3.232   9.004  0.2842  0.1302 -0.0544
   31POPC   PO4  915  -0.042   2.959   8.775 -0.0966  0.1446 -0.3339
   31POPC   GL1  916  -0.019   2.947   8.308 -0.1076 -0.1988  0.0808
   31POPC   GL2  917   0.270   2.700   8.259 -0.2072 -0.3663 -0.1883
   31POPC   C1A  918  -0.012   3.053   7.884 -0.1589  0.0865 -0.2262
   31POPC   D2A  919  -0.044   2.911   7.439 -0.0367 -0.1728  0.4010
   31POPC   C3A  920  -0.360   2.956   7.041 -0.0056 -0.0511 -0.0009
   31POPC   C4A  921  -0.793   2.841   6.923  0.1755 -0.1655 -0.1392
   31POPC   C1B  922  -0.024   2.559   7.910 -0.0607  0.0953 -0.0866
   31POPC   C2B  923  -0.079   2.427   7.548  0.2464  0.0149  0.0352
   31POPC   C3B  924   0.255   2.373   7.286 -0.0339  0.1339  0.0857
   31POPC   C4B  925   0.381   2.052   7.014 -0.0692 -0.0893  0.0024
   32POPC   NC3  926   2.672   2.185   9.546 -0.1296  0.1425 -0.1261
   32POPC   PO4  927   2.300   2.156   9.317  0.1552  0.3585 -0.0850
   32POPC   GL1  928   2.184   2.169   8.933  0.2483 -0.0353 -0.2304
   32POPC   GL2  929   2.201   1.890   8.663  0.0865 -0.3541 -0.2119
   32POPC   C1A  930   1.847   2.226   8.654 -0.1805 -0.2508 -0.1910
   32POPC   D2A  931   1.637   1.861   8.501 -0.1429  0.0476 -0.0806
   32POPC   C3A  932   1.675   1.790   8.037 -0.0799  0.1327  0.2527
   32POPC   C4A  933   1.533   1.999   7.711 -0.0219 -0.2180 -0.1372
   32POPC   C1B  934   2.146   1.982   8.179 -0.4093  0.1582  0.1709
   32POPC   C2B  935   2.062   1.952   7.721  0.2314 -0.0619  0.2078
   32POPC   C3B  936   2.276   1.681   7.439  0.2395  0.0162 -0.3395
   32POPC   C4B  937   2.368   1.499   7.058 -0.0448 -0.0619 -0.1997
   33POPC   NC3  938   6.889   1.222   9.266 -0.0602 -0.0196 -0.0187
   33POPC   PO4  939   6.627   1.352   8.980  0.1124 -0.0707  0.0597
   33POPC   GL1  940   6.674   1.555   8.524  0.0955 -0.1664 -0.0091
   33POPC   GL2  941   6.921   1.784   8.572 -0.1238  0.1329 -0.0310
   33POPC   C1A  942   6.425   1.477   8.120 -0.1561  0.2279 -0.2317
   33POPC   D2A  943   6.503   1.510   7.668  0.2537 -0.1034 -0.0888
   33POPC   C3A  944   6.858   1.361   7.513 -0.2129 -0.0393 -0.0388
   33POPC   C4A  945   7.171   1.137   7.259  0.2753 -0.2135  0.1042
   33POPC   C1B  946   6.722   1.891   8.153 -0.1413  0.3594  0.0511
   33POPC   C2B  947   6.424   1.985   7.963  0.4582 -0.0869 -0.2855
   33POPC   C3B  948   6.359   2.026   7.494  0.1919 -0.0083 -0.2635
   33POPC   C4B  949   6.474   2.133   7.118  0.2212 -0.2116 -0.1379
   34POPC   NC3  950   5.580   7.936   9.263 -0.1507  0.0463  0.1743
   34POPC   PO4  951   5.925   7.781   9.396  0.1702  0.1487  0.1395
   34POPC   GL1  952   6.113   7.768   9.025  0.0676 -0.0676  0.1508
   34POPC   GL2  953   6.368   7.908   8.946 -0.0187 -0.1135  0.1105
   34POPC   C1A  954   6.009   7.725   8.622  0.0832  0.0612  0.2961
   34POPC   D2A  955   6.391   7.896   8.404 -0.2323 -0.1643  0.1246
   34POPC   C3A  956   6.610   7.701   8.180 -0.2554  0.0633 -0.0309
   34POPC   C4A  957   6.900   7.370   8.436  0.0468 -0.1411  0.0900
   34POPC   C1B  958   6.811   7.705   8.809 -0.4681  0.0331  0.0686
   34POPC   C2B  959   7.208   7.732   8.495  0.0361 -0.0567 -0.0428
   34POPC   C3B  960   7.337   8.061   8.152  0.1014 -0.1389  0.1760
   34POPC   C4B  961   7.356   8.528   8.072  0.1440  0.3586 -0.0957
   35POPC   NC3  962   2.991   1.208   8.839  0.0643  0.1821  0.2540
   35POPC   PO4  963   3.191   0.896   8.984  0.1423 -0.1773  0.2104
   35POPC   GL1  964   3.405   1.057   8.560  0.0360 -0.1388 -0.1806
   35POPC   GL2  965   3.483   1.404   8.489  0.0567 -0.3638  0.0936
   35POPC   C1A  966   3.577   1.151   8.080  0.2395  0.0793  0.3429
   35POPC   D2A  967   3.772   1.270   7.701 -0.4495 -0.0516 -0.2022
   35POPC   C3A  968   3.789   1.335   7.303  0.0026 -0.0307  0.2084
   35POPC   C4A  969   3.971   1.215   6.863 -0.0502 -0.0872 -0.0105
   35POPC   C1B  970   3.096   1.281   8.212  0.0748 -0.1509 -0.0701
   35POPC   C2B  971   2.818   1.414   7.869 -0.2056 -0.0641  0.1814
   35POPC   C3B  972   2.889   1.702   7.559 -0.0593 -0.1196 -0.0744
   35POPC   C4B  973   3.183   1.645   7.240  0.0134  0.1985 -0.0736
   36POPC   NC3  974   6.956   3.516   8.314  0.1303 -0.0563 -0.0280
   36POPC   PO4  975   6.804   3.087   8.289  0.0065 -0.0430 -0.0530
   36POPC   GL1  976   6.620   3.194   7.921  0.5153 -0.3822 -0.0576
   36POPC   GL2  977   6.575   2.869   7.814 -0.0015  0.1414  0.3477
   36POPC   C1A  978   6.593   3.388   7.534  0.2057  0.0024 -0.1805
   36POPC   D2A  979   6.604   3.492   7.103 -0.1497  0.5014  0.0409
   36POPC   C3A  980   6.427   3.906   6.978  0.1119 -0.0262  0.1393
   36POPC   C4A  981   6.270   4.372   7.097  0.0110 -0.3853  0.0306
   36POPC   C1B  982   6.605   2.445   7.813  0.2560 -0.3356 -0.2109
   36POPC   C2B  983   6.867   2.126   7.711 -0.0177  0.0249  0.0604
   36POPC   C3B  984   6.816   1.878   7.398  0.1826 -0.0778  0.3052
   36POPC   C4B  985   6.543   1.599   7.182  0.2996  0.4141 -0.0743
   37POPC   NC3  986   1.796   4.889   9.044 -0.2046 -0.0460 -0.0275
   37POPC   PO4  987   1.474   4.616   8.963  0.0534  0.4558 -0.0098
   37POPC   GL1  988   1.469   4.762   8.563 -0.0103  0.1401  0.0800
   37POPC   GL2  989   1.618   5.044   8.567 -0.2287 -0.0462  0.0540
   37POPC   C1A  990   1.463   4.570   8.120  0.1760  0.3167 -0.1748
   37POPC   D2A  991   1.372   4.177   7.967  0.0264 -0.0582 -0.0088
   37POPC   C3A  992   0.978   4.190   7.771 -0.0559  0.1204 -0.1262
   37POPC   C4A  993   0.668   4.465   7.627 -0.1279  0.0748  0.1773
   37POPC   C1B  994   1.499   5.074   8.055 -0.1204 -0.0709 -0.0548
   37POPC   C2B  995   1.159   5.169   7.917  0.1463  0.0114  0.2399
   37POPC   C3B  996   0.675   4.885   7.856  0.1265  0.0101  0.0676
   37POPC   C4B  997   0.281   4.949   7.713  0.0845  0.0194  0.1948
   38POPC   NC3  998   3.148   6.568   9.227  0.0048 -0.2895 -0.2350
   38POPC   PO4  999   3.400   6.935   9.088  0.0410  0.1140  0.1742
   38POPC   GL1 1000   3.666   6.925   8.728 -0.0845  0.2646  0.0632
   38POPC   GL2 1001   3.430   6.906   8.506  0.0609  0.2200  0.0045
   38POPC   C1A 1002   3.813   6.747   8.307 -0.0844 -0.1587 -0.0673
   38POPC   D2A 1003   3.867   6.813   7.894 -0.1950  0.0052 -0.1613
   38POPC   C3A 1004   4.170   6.591   7.664 -0.1450  0.2041 -0.2104
   38POPC   C4A 1005   4.311   6.304   7.479 -0.1102 -0.2000  0.1532
   38POPC   C1B 1006   3.677   7.228   8.241  0.0528  0.0463 -0.1311
   38POPC   C2B 1007   3.575   7.651   8.218  0.2040  0.0552 -0.1676
   38POPC   C3B 1008   3.450   8.003   8.177  0.0261  0.2307  0.0861
   38POPC   C4B 1009   3.204   8.295   8.217  0.1273  0.1102  0.2941
   39POPC   NC3 1010   6.127   0.368   9.971  0.4131 -0.3337 -0.0018
   39POPC   PO4 1011   6.171   0.102   9.569  0.0013 -0.0591 -0.0060
   39POPC   GL1 1012   6.246  -0.109   9.147  0.1577 -0.0731  0.2036
   39POPC   GL2 1013   6.528  -0.060   9.008  0.1722 -0.0327 -0.2182
   39POPC   C1A 1014   6.074  -0.227   8.764  0.1418  0.1148 -0.0772
   39POPC   D2A 1015   5.704  -0.182   8.557  0.0708  0.1594 -0.2060
   39POPC   C3A 1016   5.635  -0.136   8.134  0.1522  0.0231  0.0327
   39POPC   C4A 1017   5.728  -0.270   7.751 -0.2102 -0.0837  0.3189
   39POPC   C1B 1018   6.489  -0.055   8.612 -0.0500 -0.0424 -0.0628
   39POPC   C2B 1019   6.462   0.102   8.194  0.2517  0.0003 -0.4209
   39POPC   C3B 1020   6.264  -0.035   7.810  0.1069 -0.1096  0.1868
   39POPC   C4B 1021   6.170  -0.083   7.312  0.0875 -0.0259 -0.1704
   40POPC   NC3 1022   6.649   8.935   9.939 -0.0948 -0.3473  0.1172
   40POPC   PO4 1023   6.243   9.082   9.716 -0.1378  0.0563  0.3071
   40POPC   GL1 1024   6.363   9.035   9.273  0.1130  0.0851 -0.0517
   40POPC   GL2 1025   6.322   8.653   9.170 -0.1044  0.1728  0.1976
   40POPC   C1A 1026   6.296   9.096   8.853  0.2873 -0.4280 -0.1743
   40POPC   D2A 1027   6.120   8.884   8.393 -0.0926 -0.0708  0.3867
   40POPC   C3A 1028   5.708   8.620   8.438  0.0869 -0.0381 -0.0716
   40POPC   C4A 1029   5.534   8.347   8.265 -0.4656  0.3815  0.0112
   40POPC   C1B 1030   6.240   8.598   8.815 -0.2332 -0.0498 -0.0579
   40POPC   C2B 1031   6.027   8.284   8.563 -0.3080 -0.2252  0.2007
   40POPC   C3B 1032   5.910   8.052   8.265  0.2069 -0.0021  0.1856
   40POPC   C4B 1033   6.171   8.003   7.870 -0.1236  0.0776  0.2871
   41POPC   NC3 1034   1.022   1.370   8.892 -0.0556 -0.2412  0.0138
   41POPC   PO4 1035   1.426   1.684   9.033  0.1009  0.4167 -0.1057
   41POPC   GL1 1036   1.178   1.888   8.759 -0.0497 -0.0625  0.0323
   41POPC   GL2 1037   0.776   1.729   8.732  0.0985 -0.0331  0.2851
   41POPC   C1A 1038   1.205   1.639   8.360  0.1036 -0.0415 -0.2441
   41POPC   D2A 1039   1.006   1.224   8.191  0.2718 -0.0189 -0.3711
   41POPC   C3A 1040   1.141   0.741   8.195  0.2803 -0.0983 -0.1962
   41POPC   C4A 1041   1.326   0.446   8.446  0.2801  0.0232  0.4136
   41POPC   C1B 1042   0.714   1.592   8.338 -0.0071  0.3460  0.1496
   41POPC   C2B 1043   0.976   1.597   7.936 -0.1459 -0.2319  0.0401
   41POPC   C3B 1044   1.049   1.603   7.621 -0.1854 -0.3042  0.1791
   41POPC   C4B 1045   1.326   1.779   7.320  0.3081 -0.1242 -0.2970
   42POPC   NC3 1046   0.709   8.057   9.720  0.1952 -0.0688 -0.2072
   42POPC   PO4 1047   0.999   8.410   9.606  0.0833  0.0406 -0.0737
   42POPC   GL1 1048   0.989   8.370   9.087 -0.2824 -0.2327 -0.1690
   42POPC   GL2 1049   1.285   8.153   9.011  0.0043 -0.1014  0.0148
   42POPC   C1A 1050   0.695   8.471   8.858  0.2009  0.0847  0.2605
   42POPC   D2A 1051   0.399   8.623   8.612  0.2381 -0.1557  0.2483
   42POPC   C3A 1052   0.595   8.567   8.273  0.0607 -0.1860  0.0537
   42POPC   C4A 1053   0.762   8.296   8.040  0.2261 -0.1078  0.1902
   42POPC   C1B 1054   1.521   8.451   8.657 -0.3055  0.0209  0.0773
   42POPC   C2B 1055   1.622   8.531   8.215  0.0329  0.1575 -0.0166
   42POPC   C3B 1056   1.428   8.575   7.837 -0.0447  0.0599  0.2462
   42POPC   C4B 1057   1.079   8.641   7.662 -0.0140  0.2967  0.2768
   43POPC   NC3 1058   9.806  10.019  10.406  0.3222  0.0426  0.1444
   43POPC   PO4 1059   9.842  10.094   9.992 -0.0231 -0.3665 -0.2492
   43POPC   GL1 1060   9.510  10.262   9.750  0.0569 -0.1058 -0.1945
   43POPC   GL2 1061   9.689  10.552   9.818 -0.1908  0.1126  0.0622
   43POPC   C1A 1062   9.269  10.320   9.432  0.3047 -0.1486  0.2122
   43POPC   D2A 1063   9.126  10.335   9.027 -0.0426 -0.1328 -0.2234
   43POPC   C3A 1064   8.938   9.975   8.923  0.0480  0.1887  0.0942
   43POPC   C4A 1065   8.910   9.554   8.842  0.0999  0.1671  0.0627
   43POPC   C1B 1066   9.901  10.692   9.438  0.1888 -0.2658 -0.2124
   43POPC   C2B 1067  10.129  10.389   9.057 -0.3589  0.1615 -0.2103
   43POPC   C3B 1068  10.044   9.976   8.848 -0.2743 -0.0989  0.2300
   43POPC   C4B 1069   9.745  10.009   8.549 -0.0843 -0.1178  0.2056
   44POPC   NC3 1070   6.586   4.409   8.857 -0.0829  0.2879  0.0993
   44POPC   PO4 1071   6.984   4.407   8.554 -0.0458  0.2433 -0.0879
   44POPC   GL1 1072   7.045   4.700   8.242 -0.1186  0.1962  0.0407
   44POPC   GL2 1073   6.803   5.004   8.324  0.1931  0.1213 -0.3248
   44POPC   C1A 1074   7.062   4.906   7.809  0.4601 -0.0241  0.1327
   44POPC   D2A 1075   7.021   4.759   7.410 -0.1765  0.0519  0.0081
   44POPC   C3A 1076   7.422   4.995   7.027  0.0922  0.1265  0.1808
   44POPC   C4A 1077   7.673   5.218   6.738 -0.0591  0.0281 -0.4583
   44POPC   C1B 1078   6.771   5.374   8.017 -0.1042  0.0917 -0.5027
   44POPC   C2B 1079   6.871   5.608   7.637  0.1609 -0.0427  0.3083
   44POPC   C3B 1080   6.809   5.778   7.238  0.0276 -0.5174  0.1278
   44POPC   C4B 1081   6.872   5.611   6.904  0.2504 -0.1207  0.0324
   45POPC   NC3 1082   6.815   0.846   9.567 -0.2280  0.1199 -0.3480
   45POPC   PO4 1083   7.060   0.464   9.432 -0.0396 -0.0353  0.1194
   45POPC   GL1 1084   7.031   0.221   9.011  0.3303 -0.1396 -0.1822
   45POPC   GL2 1085   6.848   0.321   8.700 -0.0644 -0.0130 -0.0968
   45POPC   C1A 1086   7.282  -0.175   8.930 -0.0411  0.0402  0.0964
   45POPC   D2A 1087   7.298  -0.604   8.825 -0.0693 -0.2546  0.2481
   45POPC   C3A 1088   7.459  -0.707   8.436 -0.1898 -0.1799 -0.1264
   45POPC   C4A 1089   7.868  -0.644   8.292  0.0280  0.6786 -0.1122
   45POPC   C1B 1090   7.328   0.255   8.608  0.2938  0.0775 -0.0946
   45POPC   C2B 1091   7.673   0.304   8.494 -0.0681 -0.4576 -0.4182
   45POPC   C3B 1092   8.055   0.189   8.654 -0.0654 -0.1847 -0.2443
   45POPC   C4B 1093   8.336   0.146   8.310  0.2177 -0.0268  0.0736
   46POPC   NC3 1094   5.895   9.194   9.343 -0.0630 -0.2813 -0.0538
   46POPC   PO4 1095   5.463   9.476   9.362 -0.0329 -0.0302 -0.0501
   46POPC   GL1 1096   5.532   9.244   9.002 -0.0132 -0.2123  0.0886
   46POPC   GL2 1097   5.846   9.414   8.862 -0.1614  0.0926  0.1243
   46POPC   C1A 1098   5.639   9.113   8.579 -0.2114  0.0738  0.0594
   46POPC   D2A 1099   5.659   9.030   8.187 -0.0636 -0.2983 -0.0726
   46POPC   C3A 1100   6.188   8.931   7.929  0.0593 -0.1209 -0.1509
   46POPC   C4A 1101   6.431   9.137   7.591  0.1139  0.0030 -0.0280
   46POPC   C1B 1102   5.824   9.554   8.415 -0.0901 -0.2063 -0.4786
   46POPC   C2B 1103   5.673   9.542   8.018 -0.2549  0.3504  0.0846
   46POPC   C3B 1104   5.926   9.431   7.614  0.2681  0.1572 -0.1014
   46POPC   C4B 1105   6.032   9.034   7.342  0.4221 -0.0936  0.2480
   47POPC   NC3 1106   5.068   6.585   9.677 -0.2951  0.0284  0.1029
   47POPC   PO4 1107   5.232   6.995   9.424  0.1557 -0.0007  0.0902
   47POPC   GL1 1108   5.319   7.127   8.987  0.2621  0.0814 -0.0947
   47POPC   GL2 1109   5.246   6.917   8.703 -0.0767 -0.1005 -0.2018
   47POPC   C1A 1110   5.219   7.464   8.593 -0.1165  0.0572 -0.0269
   47POPC   D2A 1111   4.909   7.722   8.493 -0.4269  0.2682  0.1570
   47POPC   C3A 1112   4.911   7.739   8.015  0.3880 -0.1523 -0.1403
   47POPC   C4A 1113   4.793   7.915   7.656  0.0284 -0.0253  0.0943
   47POPC   C1B 1114   5.397   6.881   8.250 -0.0265 -0.3605 -0.4655
   47POPC   C2B 1115   5.594   7.066   7.864 -0.1453 -0.1517 -0.4791
   47POPC   C3B 1116   5.486   7.154   7.479 -0.1330  0.1874 -0.1436
   47POPC   C4B 1117   5.591   7.435   7.183 -0.2453  0.4847 -0.1328
   48POPC   NC3 1118   1.036   6.042   9.126 -0.4691  0.1523  0.0766
   48POPC   PO4 1119   1.312   6.394   9.434 -0.0724 -0.0044  0.1666
   48POPC   GL1 1120   1.162   6.548   8.984 -0.0970  0.0908  0.0006
   48POPC   GL2 1121   1.281   6.415   8.685  0.0701 -0.1411  0.5943
   48POPC   C1A 1122   0.938   6.850   8.711  0.1143 -0.4322 -0.0739
   48POPC   D2A 1123   0.852   6.901   8.278  0.0200  0.2593 -0.2738
   48POPC   C3A 1124   0.648   7.357   8.101 -0.4410 -0.1962 -0.1343
   48POPC   C4A 1125   0.907   7.733   8.156  0.0754  0.4378 -0.0383
   48POPC   C1B 1126   0.934   6.377   8.389  0.2810 -0.2723  0.0225
   48POPC   C2B 1127   0.564   6.410   8.068  0.0467  0.0120  0.4225
   48POPC   C3B 1128   0.463   6.435   7.684  0.0975 -0.0349 -0.0807
   48POPC   C4B 1129   0.315   6.197   7.415 -0.0260  0.2734 -0.3470
   49POPC   NC3 1130   6.504   0.449   9.062 -0.0533  0.3758 -0.2745
   49POPC   PO4 1131   6.899   0.780   9.029  0.0076 -0.2823 -0.1611
   49POPC   GL1 1132   6.701   0.966   8.640  0.0664  0.1350 -0.2215
   49POPC   GL2 1133   6.346   1.178   8.571 -0.2056 -0.0279  0.0470
   49POPC   C1A 1134   6.709   1.043   8.162 -0.0867  0.0037 -0.1899
   49POPC   D2A 1135   6.970   1.491   7.977 -0.0969  0.3111  0.2160
   49POPC   C3A 1136   7.297   1.496   7.679 -0.0083 -0.0088  0.3531
   49POPC   C4A 1137   7.591   1.190   7.587 -0.1048  0.0816  0.0754
   49POPC   C1B 1138   6.228   1.030   8.213  0.0454  0.0174 -0.1916
   49POPC   C2B 1139   6.278   1.046   7.789  0.0217  0.0406 -0.5139
   49POPC   C3B 1140   6.314   1.169   7.373  0.2006 -0.1018  0.1260
   49POPC   C4B 1141   6.420   0.977   7.026  0.0185 -0.0821 -0.0798
   50POPC   NC3 1142   6.222   4.076   9.081 -0.3046 -0.1228  0.2769
   50POPC   PO4 1143   6.088   4.391   8.993 -0.1434  0.0086 -0.1335
   50POPC   GL1 1144   6.176   4.508   8.546 -0.0428 -0.4230  0.0710
   50POPC   GL2 1145   6.516   4.510   8.362 -0.1186 -0.2175  0.0478
   50POPC   C1A 1146   6.037   4.571   8.124 -0.0626  0.3806 -0.0901
   50POPC   D2A 1147   5.909   4.417   7.781 -0.2574  0.1600 -0.1879
   50POPC   C3A 1148   5.965   4.686   7.401 -0.0948  0.0190 -0.3052
   50POPC   C4A 1149   6.278   4.933   7.332 -0.3138  0.0584 -0.0642
   50POPC   C1B 1150   6.625   4.671   7.989  0.2877  0.4839 -0.2759
   50POPC   C2B 1151   6.471   4.505   7.619 -0.3066 -0.1876 -0.3192
   50POPC   C3B 1152   6.193   4.115   7.541  0.0149 -0.2768  0.1506
   50POPC   C4B 1153   5.937   4.039   7.384  0.0613  0.1256 -0.1288
   51POPC   NC3 1154   2.916  10.111   9.335 -0.3361 -0.3881 -0.2674
   51POPC   PO4 1155   3.241  10.243   9.339 -0.0920  0.0048 -0.0656
   51POPC   GL1 1156   3.129  10.142   8.882  0.0088 -0.0199 -0.1924
   51POPC   GL2 1157   3.091   9.791   8.829  0.1320 -0.0373  0.1804
   51POPC   C1A 1158   3.217  10.169   8.432  0.1519  0.1313 -0.0002
   51POPC   D2A 1159   3.524  10.296   8.144  0.0600 -0.1022  0.1415
   51POPC   C3A 1160   3.605  10.322   7.741  0.1551  0.0985 -0.0327
   51POPC   C4A 1161   3.674  10.364   7.408 -0.0695 -0.2560 -0.1194
   51POPC   C1B 1162   3.118   9.501   8.409 -0.1212 -0.0104  0.0445
   51POPC   C2B 1163   3.605   9.362   8.146  0.3186  0.2414  0.1217
   51POPC   C3B 1164   3.498   9.315   7.703 -0.2218  0.2086  0.1929
   51POPC   C4B 1165   3.085   9.428   7.447 -0.0527 -0.0109 -0.0915
   52POPC   NC3 1166   5.440   1.124   9.046  0.0530  0.0091  0.1791
   52POPC   PO4 1167   4.982   1.144   8.965  0.2647  0.0836  0.2340
   52POPC   GL1 1168   4.829   1.217   8.524  0.1200 -0.2029  0.0864
   52POPC   GL2 1169   4.791   1.523   8.527 -0.0814 -0.1530 -0.4196
   52POPC   C1A 1170   4.734   1.152   8.057 -0.0073 -0.0616  0.0237
   52POPC   D2A 1171   4.910   1.260   7.778  0.0914 -0.1558 -0.1263
   52POPC   C3A 1172   4.926   0.934   7.467  0.0254  0.0316  0.0732
   52POPC   C4A 1173   4.870   0.518   7.561  0.2242  0.1103 -0.1553
   52POPC   C1B 1174   4.561   1.763   8.495  0.1904 -0.0194  0.2597
   52POPC   C2B 1175   4.188   1.968   8.228  0.0486 -0.1620  0.0237
   52POPC   C3B 1176   3.782   2.015   8.265  0.2497 -0.2205 -0.1129
   52POPC   C4B 1177   3.442   1.874   8.105 -0.0115 -0.2084 -0.0191
   53POPC   NC3 1178   0.722   3.806   9.636  0.2351  0.1130  0.1114
   53POPC   PO4 1179   0.640   3.993   9.231 -0.2108 -0.0929 -0.2080
   53POPC   GL1 1180   0.650   4.051   8.895 -0.1685  0.2133 -0.0821
   53POPC   GL2 1181   0.942   4.065   8.864  0.0601 -0.4071  0.0115
   53POPC   C1A 1182   0.415   4.268   8.616 -0.2016  0.0029  0.0971
   53POPC   D2A 1183   0.035   4.466   8.486  0.1825  0.0583  0.3063
   53POPC   C3A 1184   0.080   4.817   8.173 -0.1087 -0.1593  0.0654
   53POPC   C4A 1185  -0.207   4.859   7.881 -0.1893 -0.1961  0.3167
   53POPC   C1B 1186   0.823   4.174   8.317  0.0061  0.2943 -0.2852
   53POPC   C2B 1187   0.975   4.516   8.159  0.2523  0.0272 -0.0648
   53POPC   C3B 1188   1.212   4.638   7.718  0.1575 -0.1025 -0.0705
   53POPC   C4B 1189   1.553   4.704   7.362 -0.0099  0.0185 -0.0861
   54POPC   NC3 1190   2.796   9.395  10.060 -0.1129 -0.3951 -0.1116
   54POPC   PO4 1191   2.664   9.251   9.649  0.1887  0.3205  0.2449
   54POPC   GL1 1192   2.694   9.149   9.114 -0.1709 -0.4151 -0.3211
   54POPC   GL2 1193   2.494   9.370   9.007 -0.2543  0.1312 -0.1859
   54POPC   C1A 1194   2.982   9.192   8.751  0.0929  0.0404 -0.2064
   54POPC   D2A 1195   3.413   9.057   8.563  0.1976 -0.3361  0.0423
   54POPC   C3A 1196   3.288   8.986   8.246  0.1642 -0.1757 -0.2017
   54POPC   C4A 1197   2.836   9.053   8.212  0.1202 -0.1720  0.4680
   54POPC   C1B 1198   2.429   9.578   8.663  0.0258 -0.1809 -0.0283
   54POPC   C2B 1199   2.408   9.504   8.202 -0.1494 -0.0013  0.2440
   54POPC   C3B 1200   2.227   9.369   7.839  0.1113 -0.1097 -0.1330
   54POPC   C4B 1201   1.980   9.161   7.468  0.0645  0.0059 -0.0034
   55POPC   NC3 1202   4.775   8.613   9.072 -0.0283 -0.0302  0.3571
   55POPC   PO4 1203   5.007   8.211   9.096  0.0077 -0.0777  0.0197
   55POPC   GL1 1204   4.974   8.232   8.651  0.2410  0.1425  0.0558
   55POPC   GL2 1205   4.572   8.130   8.433  0.0608 -0.2745  0.0633
   55POPC   C1A 1206   5.026   8.203   8.171  0.3021  0.2099  0.2268
   55POPC   D2A 1207   5.318   8.316   7.739 -0.3338 -0.1172  0.0307
   55POPC   C3A 1208   5.728   8.264   7.670  0.0449  0.1188 -0.0742
   55POPC   C4A 1209   6.185   8.516   7.560  0.2417 -0.0340  0.1918
   55POPC   C1B 1210   4.450   8.118   8.034  0.1536  0.0986 -0.1239
   55POPC   C2B 1211   4.213   8.232   7.668  0.1198 -0.1400 -0.0585
   55POPC   C3B 1212   3.988   8.499   7.306 -0.1635  0.0144 -0.1066
   55POPC   C4B 1213   3.978   8.704   6.936 -0.2960 -0.1465  0.1022
   56POPC   NC3 1214   8.945   5.344   9.082 -0.1319 -0.0749 -0.1589
   56POPC   PO4 1215   9.309   5.273   8.866  0.0968  0.0819 -0.1089
   56POPC   GL1 1216   8.997   5.325   8.489  0.0530  0.0566  0.0464
   56POPC   GL2 1217   9.175   5.049   8.379 -0.0293 -0.0059 -0.2457
   56POPC   C1A 1218   9.149   5.566   8.122  0.0574 -0.0373  0.2369
   56POPC   D2A 1219   9.107   5.729   7.705  0.0267 -0.1998 -0.0190
   56POPC   C3A 1220   8.809   5.699   7.389 -0.1358  0.5879  0.0353
   56POPC   C4A 1221   8.767   5.511   6.987 -0.1900 -0.1368 -0.0224
   56POPC   C1B 1222   9.204   4.865   7.979 -0.2255 -0.1398 -0.2484
   56POPC   C2B 1223   9.376   4.801   7.513  0.0000  0.1481 -0.0017
   56POPC   C3B 1224   9.245   4.884   7.103  0.1726 -0.1691  0.1006
   56POPC   C4B 1225   9.499   4.855   6.746  0.1256  0.0053  0.0904
   57POPC   NC3 1226   8.860   1.248   9.709 -0.1395  0.1293  0.0779
   57POPC   PO4 1227   8.950   1.605   9.549 -0.1312  0.1263  0.2587
   57POPC   GL1 1228   9.069   1.479   9.191 -0.1463 -0.2399 -0.0768
   57POPC   GL2 1229   8.883   1.303   8.970 -0.2001  0.1135 -0.1200
   57POPC   C1A 1230   9.396   1.237   9.019  0.1393 -0.0184  0.1157
   57POPC   D2A 1231   9.413   0.996   8.612 -0.1087 -0.0872 -0.0449
   57POPC   C3A 1232   9.138   1.014   8.274 -0.0247 -0.2494  0.0063
   57POPC   C4A 1233   8.861   0.930   7.921  0.4346  0.3791  0.0702
   57POPC   C1B 1234   9.084   1.430   8.619 -0.1763 -0.2547  0.0739
   57POPC   C2B 1235   9.490   1.397   8.313  0.3005 -0.4019 -0.3312
   57POPC   C3B 1236   9.838   1.412   8.081 -0.0011 -0.1778 -0.0546
   57POPC   C4B 1237  10.166   1.165   8.074  0.2738  0.1334 -0.0428
   58POPC   NC3 1238   0.119   2.657   9.195  0.2035 -0.2064  0.1892
   58POPC   PO4 1239  -0.255   2.515   8.927 -0.0846  0.2059  0.3098
   58POPC   GL1 1240  -0.102   2.444   8.524 -0.0466  0.2986  0.0727
   58POPC   GL2 1241  -0.408   2.607   8.292 -0.0935 -0.2204 -0.2149
   58POPC   C1A 1242  -0.052   2.104   8.219  0.2455  0.0940  0.1103
   58POPC   D2A 1243   0.085   1.985   7.852  0.1155  0.1333  0.1889
   58POPC   C3A 1244   0.138   1.621   7.833 -0.0982 -0.3275 -0.0230
   58POPC   C4A 1245   0.446   1.450   7.936  0.0513  0.1578 -0.2392
   58POPC   C1B 1246  -0.540   2.286   8.115  0.1587 -0.0695 -0.0676
   58POPC   C2B 1247  -0.366   2.103   7.791  0.0080 -0.0707 -0.0249
   58POPC   C3B 1248  -0.067   1.834   7.397 -0.1260  0.1231 -0.2173
   58POPC   C4B 1249  -0.042   1.827   6.938  0.2660  0.5304  0.3565
   59POPC   NC3 1250   4.470   9.717   9.619  0.0121  0.1670  0.0433
   59POPC   PO4 1251   4.573   9.487   9.231  0.1771 -0.0541 -0.1450
   59POPC   GL1 1252   4.620   9.693   8.854 -0.0287 -0.3561  0.4274
   59POPC   GL2 1253   4.913  10.005   8.792 -0.3552  0.0895 -0.0480
   59POPC   C1A 1254   4.534   9.863   8.393 -0.1894  0.0402  0.3035
   59POPC   D2A 1255   4.684   9.918   8.012 -0.0927 -0.1596 -0.3005
   59POPC   C3A 1256   4.990  10.354   8.106 -0.2245 -0.0101 -0.0200
   59POPC   C4A 1257   4.863  10.856   8.060 -0.3746  0.2148  0.1102
   59POPC   C1B 1258   5.144   9.895   8.381 -0.0929 -0.1826  0.2235
   59POPC   C2B 1259   5.221   9.807   8.001  0.0384 -0.0408  0.0891
   59POPC   C3B 1260   5.373   9.662   7.554 -0.4434  0.2454  0.0064
   59POPC   C4B 1261   5.620   9.394   7.257  0.1391  0.3744  0.3096
   60POPC   NC3 1262   3.205   5.682   9.871 -0.0547 -0.0450 -0.0085
   60POPC   PO4 1263   3.409   5.735   9.523 -0.0222 -0.3385  0.0442
   60POPC   GL1 1264   3.356   5.968   9.116 -0.1010 -0.0211  0.0879
   60POPC   GL2 1265   3.612   5.821   8.900  0.0019  0.1477  0.2132
   60POPC   C1A 1266   3.252   5.958   8.584 -0.0878  0.1202  0.0179
   60POPC   D2A 1267   3.431   5.744   8.269  0.5183  0.3401  0.0452
   60POPC   C3A 1268   3.647   5.930   7.908  0.0417 -0.3056  0.0895
   60POPC   C4A 1269   3.843   6.138   7.474  0.1954 -0.0368 -0.5277
   60POPC   C1B 1270   3.886   5.655   8.705 -0.4361  0.3643 -0.1958
   60POPC   C2B 1271   3.915   5.329   8.362 -0.3880 -0.2083 -0.1849
   60POPC   C3B 1272   4.280   5.239   8.022  0.1132  0.0718 -0.1769
   60POPC   C4B 1273   4.457   5.120   7.569 -0.0773 -0.4742 -0.0368
   61POPC   NC3 1274   5.023   9.747   9.218  0.2320 -0.2397  0.0266
   61POPC   PO4 1275   5.101   9.466   8.830 -0.1147  0.0126 -0.0805
   61POPC   GL1 1276   4.886   9.395   8.510 -0.0991  0.1647  0.0644
   61POPC   GL2 1277   4.825   9.089   8.391  0.6061  0.2513  0.0546
   61POPC   C1A 1278   4.851   9.419   7.977 -0.0750  0.0381  0.1319
   61POPC   D2A 1279   4.847   9.701   7.628  0.0250 -0.2590 -0.1111
   61POPC   C3A 1280   5.059   9.412   7.309 -0.1369  0.0220  0.0389
   61POPC   C4A 1281   4.882   9.441   6.928  0.1314 -0.0056  0.0127
   61POPC   C1B 1282   5.247   9.256   8.264  0.2693  0.0530 -0.1157
   61POPC   C2B 1283   5.271   9.198   7.865  0.2393  0.2317  0.0026
   61POPC   C3B 1284   5.576   9.002   7.594 -0.3316 -0.2336  0.1721
   61POPC   C4B 1285   5.680   8.658   7.304 -0.1746 -0.2567  0.0012
   62POPC   NC3 1286   0.585   6.559   9.912 -0.1516  0.0232  0.2658
   62POPC   PO4 1287   0.393   6.800   9.632 -0.0806  0.0688  0.3122
   62POPC   GL1 1288   0.361   7.049   9.270  0.0813  0.1182 -0.1366
   62POPC   GL2 1289   0.512   6.955   9.082 -0.1194 -0.1243 -0.1006
   62POPC   C1A 1290   0.049   7.407   9.112 -0.0950  0.0597 -0.1149
   62POPC   D2A 1291   0.010   7.794   9.193  0.1376 -0.1044  0.2833
   62POPC   C3A 1292  -0.288   7.989   9.021 -0.0849 -0.0588 -0.1311
   62POPC   C4A 1293  -0.447   7.964   8.629  0.0090 -0.1360  0.3471
   62POPC   C1B 1294   0.458   6.708   8.718 -0.1505  0.1112  0.0127
   62POPC   C2B 1295   0.002   6.562   8.464 -0.0211 -0.1034  0.1467
   62POPC   C3B 1296  -0.300   6.419   8.126 -0.0777  0.2822 -0.4158
   62POPC   C4B 1297  -0.435   6.371   7.757  0.1517  0.1439  0.2552
   63POPC   NC3 1298   3.718   0.840   8.973  0.1696  0.1703  0.3201
   63POPC   PO4 1299   3.991   1.061   9.092  0.0473  0.0227  0.1656
   63POPC   GL1 1300   3.970   1.015   8.548  0.1422 -0.1806 -0.3515
   63POPC   GL2 1301   3.856   0.590   8.498 -0.1383 -0.1054 -0.3969
   63POPC   C1A 1302   4.110   0.987   8.106  0.0974  0.1017 -0.2031
   63POPC   D2A 1303   4.259   0.706   7.812 -0.1758 -0.2440 -0.3150
   63POPC   C3A 1304   3.990   0.508   7.500  0.0150 -0.1945 -0.0830
   63POPC   C4A 1305   3.945   0.453   7.120  0.1508  0.0409  0.1439
   63POPC   C1B 1306   3.746   0.551   8.054  0.2347 -0.1480  0.1013
   63POPC   C2B 1307   3.584   0.709   7.691  0.0036 -0.1595 -0.0884
   63POPC   C3B 1308   3.594   0.876   7.333 -0.1243  0.3801 -0.2764
   63POPC   C4B 1309   3.628   0.918   6.977  0.0157  0.0024 -0.1259
   64POPC   NC3 1310   3.979   4.043   9.276 -0.2823 -0.1565 -0.1129
   64POPC   PO4 1311   4.119   3.769   8.945 -0.1422 -0.0615 -0.0092
   64POPC   GL1 1312   4.135   3.719   8.549 -0.1769 -0.6478 -0.1981
   64POPC   GL2 1313   4.057   3.446   8.431  0.0981  0.0154  0.0638
   64POPC   C1A 1314   4.134   3.819   8.127 -0.1111  0.1002 -0.2404
   64POPC   D2A 1315   3.954   3.781   7.650 -0.4985  0.1906  0.1537
   64POPC   C3A 1316   4.290   3.852   7.300 -0.2328  0.2159 -0.0541
   64POPC   C4A 1317   4.423   4.130   6.922  0.0120 -0.0458  0.1032
   64POPC   C1B 1318   3.904   3.320   7.965 -0.0678  0.0751  0.2186
   64POPC   C2B 1319   3.587   3.246   7.623  0.1117  0.2796  0.0551
   64POPC   C3B 1320   3.352   3.055   7.457 -0.0819 -0.0799 -0.1328
   64POPC   C4B 1321   3.257   2.824   7.144 -0.2096  0.0197 -0.0599
   65POPC   NC3 1322   8.445   4.683   8.794  0.0139 -0.0133  0.1017
   65POPC   PO4 1323   8.086   4.589   8.668  0.1913  0.3823 -0.0001
   65POPC   GL1 1324   7.852   4.609   8.297 -0.0563 -0.1097  0.0763
   65POPC   GL2 1325   7.886   4.546   7.981 -0.1482 -0.1281 -0.0434
   65POPC   C1A 1326   7.527   4.852   8.087  0.2518  0.0936  0.2305
   65POPC   D2A 1327   7.618   5.000   7.672  0.0721 -0.4291 -0.0610
   65POPC   C3A 1328   7.404   5.215   7.503 -0.0374  0.2440 -0.0596
   65POPC   C4A 1329   7.022   5.282   7.292 -0.1768 -0.0108  0.1079
   65POPC   C1B 1330   7.963   4.495   7.592 -0.0696 -0.0907  0.1459
   65POPC   C2B 1331   8.152   4.081   7.312 -0.1215  0.1518 -0.1156
   65POPC   C3B 1332   8.553   3.762   7.288 -0.1926  0.0820  0.1582
   65POPC   C4B 1333   8.646   3.332   7.383  0.0086  0.2813 -0.2594
   66POPC   NC3 1334   0.098   3.840   9.217 -0.1368 -0.1771 -0.0076
   66POPC   PO4 1335   0.324   3.554   9.344  0.0119  0.2184  0.2129
   66POPC   GL1 1336   0.651   3.501   8.958  0.1080  0.0737  0.0263
   66POPC   GL2 1337   0.934   3.575   9.021  0.0457 -0.3834  0.4909
   66POPC   C1A 1338   0.733   3.717   8.521 -0.0705  0.2389  0.0432
   66POPC   D2A 1339   0.651   3.731   8.143  0.0114  0.3003 -0.4071
   66POPC   C3A 1340   1.105   3.769   8.015 -0.2034 -0.1181 -0.4050
   66POPC   C4A 1341   1.365   3.752   7.646  0.0609 -0.2168 -0.1377
   66POPC   C1B 1342   1.014   3.307   8.575  0.0615  0.0005 -0.3587
   66POPC   C2B 1343   1.198   3.204   8.274  0.4310  0.0786  0.3359
   66POPC   C3B 1344   0.922   3.412   7.779  0.1105  0.1268 -0.1541
   66POPC   C4B 1345   0.827   3.342   7.318  0.1057  0.0907  0.0511
   67POPC   NC3 1346   2.774   5.070   9.395  0.0068 -0.0244  0.3019
   67POPC   PO4 1347   3.212   5.182   9.425 -0.0888  0.1010 -0.3779
   67POPC   GL1 1348   3.435   5.337   9.101  0.1485  0.1440  0.2278
   67POPC   GL2 1349   3.700   5.098   9.000 -0.1060 -0.1677  0.2864
   67POPC   C1A 1350   3.458   5.407   8.642 -0.0319  0.1145  0.0579
   67POPC   D2A 1351   3.449   5.126   8.237 -0.3060 -0.0040 -0.0499
   67POPC   C3A 1352   3.733   5.395   7.931  0.0339  0.0420  0.1548
   67POPC   C4A 1353   3.901   5.553   7.567  0.0939 -0.1874  0.0754
   67POPC   C1B 1354   3.745   4.858   8.668 -0.4696 -0.0283  0.0779
   67POPC   C2B 1355   3.961   4.822   8.259  0.4517  0.1821  0.2733
   67POPC   C3B 1356   4.060   4.690   7.967  0.0921 -0.1301 -0.1109
   67POPC   C4B 1357   3.984   4.815   7.644 -0.1801 -0.2338 -0.1614
   68POPC   NC3 1358   7.245   4.010   8.658 -0.1265 -0.2761  0.1173
   68POPC   PO4 1359   7.301   3.891   8.246  0.3347 -0.2234 -0.1013
   68POPC   GL1 1360   7.496   3.796   7.931 -0.0694  0.2123 -0.1981
   68POPC   GL2 1361   7.751   3.627   7.897  0.0707 -0.2701  0.1293
   68POPC   C1A 1362   7.383   3.624   7.602  0.2578 -0.0336  0.0394
   68POPC   D2A 1363   7.011   3.676   7.340  0.0472  0.0272  0.2082
   68POPC   C3A 1364   7.085   3.595   6.925 -0.1829 -0.0378  0.3962
   68POPC   C4A 1365   6.924   3.345   6.542 -0.0310  0.0253  0.1342
   68POPC   C1B 1366   7.703   4.054   7.579 -0.2135 -0.1867  0.0221
   68POPC   C2B 1367   7.699   4.206   7.156 -0.0468 -0.1341  0.0877
   68POPC   C3B 1368   7.638   4.471   6.746 -0.0469  0.2054  0.0532
   68POPC   C4B 1369   7.574   4.371   6.256  0.0861  0.1629  0.0544
   69POPC   NC3 1370   1.561   4.150   9.481 -0.1023 -0.0201 -0.2393
   69POPC   PO4 1371   1.818   4.458   9.347 -0.1014  0.0508 -0.1769
   69POPC   GL1 1372   2.005   4.387   8.924 -0.0869 -0.0103 -0.1033
   69POPC   GL2 1373   1.965   4.178   8.702 -0.1585 -0.0042  0.1412
   69POPC   C1A 1374   2.080   4.652   8.506  0.2007  0.0575 -0.2395
   69POPC   D2A 1375   1.930   4.778   8.157 -0.1031  0.2712 -0.4492
   69POPC   C3A 1376   2.022   4.732   7.645 -0.4371  0.1449  0.1994
   69POPC   C4A 1377   2.281   4.587   7.284 -0.0705 -0.1480 -0.0782
   69POPC   C1B 1378   2.191   3.934   8.332 -0.1345 -0.1214 -0.3884
   69POPC   C2B 1379   2.370   3.865   7.854 -0.2609 -0.1415  0.0036
   69POPC   C3B 1380   2.785   3.786   7.570  0.0162  0.0747  0.0668
   69POPC   C4B 1381   2.918   3.922   7.216  0.0085  0.2802  0.1293
   70POPC   NC3 1382   2.192   6.586   9.088  0.0309 -0.0310 -0.0216
   70POPC   PO4 1383   2.620   6.546   9.118  0.2451  0.2518  0.1900
   70POPC   GL1 1384   2.624   6.504   8.662 -0.1758 -0.1237 -0.2470
   70POPC   GL2 1385   2.283   6.568   8.553  0.3191  0.2526  0.3596
   70POPC   C1A 1386   2.874   6.313   8.448 -0.1039  0.1823 -0.0598
   70POPC   D2A 1387   3.006   6.191   7.922  0.0929 -0.5262 -0.0419
   70POPC   C3A 1388   2.928   6.477   7.719 -0.0118 -0.1550  0.1890
   70POPC   C4A 1389   3.011   6.930   7.545  0.2164 -0.0079  0.1861
   70POPC   C1B 1390   2.116   6.848   8.178  0.1114 -0.6445  0.0751
   70POPC   C2B 1391   2.169   6.861   7.752 -0.1288  0.0281 -0.2585
   70POPC   C3B 1392   2.069   7.074   7.379  0.1434 -0.1352 -0.1298
   70POPC   C4B 1393   1.678   7.043   7.181  0.4200  0.1239 -0.1466
   71POPC   NC3 1394   7.839   4.092   8.215  0.2137  0.0794  0.0272
   71POPC   PO4 1395   8.127   3.935   8.607  0.0434  0.2677  0.0592
   71POPC   GL1 1396   8.348   4.280   8.382 -0.1688  0.1142  0.1743
   71POPC   GL2 1397   8.331   4.466   8.215 -0.2699  0.0667 -0.1968
   71POPC   C1A 1398   8.720   4.173   8.042 -0.2381 -0.1207 -0.2200
   71POPC   D2A 1399   8.986   4.412   7.813  0.0740 -0.1275  0.0286
   71POPC   C3A 1400   8.812   4.767   7.566  0.1954  0.0664 -0.2125
   71POPC   C4A 1401   8.532   4.678   7.235  0.0288  0.1555  0.0450
   71POPC   C1B 1402   8.461   4.511   7.798  0.0034  0.2066  0.2376
   71POPC   C2B 1403   8.566   4.210   7.473 -0.2080 -0.1074  0.1243
   71POPC   C3B 1404   8.607   4.258   6.999  0.1895 -0.2157 -0.3930
   71POPC   C4B 1405   8.499   4.522   6.696 -0.1150 -0.2306 -0.1896
   72POPC   NC3 1406   8.477   6.796   9.386  0.1098  0.1512 -0.0519
   72POPC   PO4 1407   8.799   7.126   9.587  0.1072 -0.0736 -0.3841
   72POPC   GL1 1408   8.872   7.023   9.163 -0.0096  0.0083 -0.3473
   72POPC   GL2 1409   8.577   7.003   8.935 -0.1191 -0.3223 -0.0419
   72POPC   C1A 1410   9.124   6.786   8.887 -0.1216 -0.0120 -0.0706
   72POPC   D2A 1411   9.250   6.717   8.536  0.4073 -0.2251  0.3634
   72POPC   C3A 1412   9.092   6.374   8.270  0.1453  0.1481 -0.1695
   72POPC   C4A 1413   8.847   6.420   7.877  0.1500 -0.1163  0.0632
   72POPC   C1B 1414   8.772   7.046   8.605  0.1442  0.1721  0.0264
   72POPC   C2B 1415   8.869   7.327   8.226  0.0478 -0.0601 -0.1382
   72POPC   C3B 1416   9.065   7.591   8.043 -0.1479  0.1697 -0.4091
   72POPC   C4B 1417   9.551   7.727   8.114 -0.1217  0.2892 -0.0219
   73POPC   NC3 1418   8.961   3.559   8.664  0.1207 -0.0832  0.2359
   73POPC   PO4 1419   8.580   3.481   8.466 -0.1178 -0.0292 -0.1154
   73POPC   GL1 1420   8.692   3.674   8.081 -0.4709 -0.0366 -0.1496
   73POPC   GL2 1421   8.498   3.443   7.835  0.0869 -0.4000  0.0071
   73POPC   C1A 1422   8.819   3.855   7.695 -0.3764  0.0162 -0.3409
   73POPC   D2A 1423   9.055   3.919   7.158  0.2294  0.0847  0.1008
   73POPC   C3A 1424   8.829   3.830   6.721 -0.3207 -0.2330 -0.0417
   73POPC   C4A 1425   8.928   3.610   6.307  0.3631  0.0421 -0.1562
   73POPC   C1B 1426   8.186   3.551   7.640 -0.1384  0.0398 -0.0065
   73POPC   C2B 1427   8.056   3.604   7.227  0.2590  0.2485  0.1927
   73POPC   C3B 1428   7.603   3.745   7.030  0.1763 -0.2964  0.0681
   73POPC   C4B 1429   7.366   4.025   6.676  0.2955  0.1616 -0.3629
   74POPC   NC3 1430   4.515   2.005   9.252  0.0875 -0.2391 -0.1577
   74POPC   PO4 1431   4.517   2.380   8.939  0.1653 -0.0125 -0.2539
   74POPC   GL1 1432   4.533   2.411   8.488 -0.2534  0.0337  0.0869
   74POPC   GL2 1433   4.628   2.683   8.255 -0.2787 -0.0392 -0.2395
   74POPC   C1A 1434   4.883   2.279   8.229 -0.2404  0.1312 -0.0488
   74POPC   D2A 1435   5.271   2.204   7.879  0.3714  0.1645  0.2597
   74POPC   C3A 1436   5.505   2.422   7.568  0.1244  0.0616 -0.2376
   74POPC   C4A 1437   5.936   2.255   7.280 -0.3439  0.1671 -0.0376
   74POPC   C1B 1438   4.443   2.444   7.887 -0.0155 -0.0545 -0.1868
   74POPC   C2B 1439   4.199   2.429   7.451 -0.1232 -0.1548  0.0368
   74POPC   C3B 1440   3.909   2.182   7.072 -0.0084 -0.0995  0.1556
   74POPC   C4B 1441   3.760   2.404   6.800  0.0401 -0.0637  0.0685
   75POPC   NC3 1442   7.899   0.707   9.662 -0.1527  0.0894 -0.1157
   75POPC   PO4 1443   8.047   0.448   9.894 -0.2734 -0.2596 -0.1363
   75POPC   GL1 1444   8.085   0.251   9.461 -0.2406  0.2500 -0.3072
   75POPC   GL2 1445   8.381   0.399   9.543  0.1028  0.1393 -0.0378
   75POPC   C1A 1446   8.184   0.449   9.054 -0.2633 -0.1319  0.2535
   75POPC   D2A 1447   7.890   0.686   8.790  0.1006 -0.0354  0.0730
   75POPC   C3A 1448   8.083   0.656   8.337  0.4646 -0.2214  0.2305
   75POPC   C4A 1449   8.052   0.388   8.009 -0.2009 -0.1251 -0.0109
   75POPC   C1B 1450   8.667   0.418   9.190  0.0750 -0.0639 -0.3258
   75POPC   C2B 1451   8.734   0.354   8.698  0.0080 -0.0531  0.1053
   75POPC   C3B 1452   8.970   0.076   8.520 -0.4402 -0.1748  0.1441
   75POPC   C4B 1453   8.830  -0.055   8.194 -0.0788 -0.3133 -0.2276
   76POPC   NC3 1454   7.038   4.942   8.768 -0.3008 -0.2298  0.0009
   76POPC   PO4 1455   6.820   5.288   8.978  0.1798 -0.1160 -0.2237
   76POPC   GL1 1456   6.991   5.414   8.560 -0.0933  0.0578 -0.2686
   76POPC   GL2 1457   7.232   5.341   8.436  0.2285  0.3707 -0.1992
   76POPC   C1A 1458   7.107   5.743   8.161 -0.1555 -0.0759  0.2286
   76POPC   D2A 1459   7.516   6.073   7.977  0.3132  0.2701  0.0938
   76POPC   C3A 1460   7.661   6.184   7.580  0.1384 -0.1222  0.0168
   76POPC   C4A 1461   7.845   6.522   7.391 -0.0904 -0.0416  0.2782
   76POPC   C1B 1462   7.367   5.366   7.980 -0.0559 -0.5268  0.0794
   76POPC   C2B 1463   7.478   5.635   7.739 -0.0092  0.0891 -0.0091
   76POPC   C3B 1464   7.338   5.694   7.307 -0.0636 -0.1592 -0.0517
   76POPC   C4B 1465   7.466   5.663   6.908  0.1788  0.1096 -0.2509
   77POPC   NC3 1466   1.554   6.073   9.191  0.0222  0.2656 -0.1189
   77POPC   PO4 1467   1.634   6.046   8.878 -0.1470 -0.0397 -0.0207
   77POPC   GL1 1468   1.669   6.099   8.388 -0.2692 -0.0322 -0.0421
   77POPC   GL2 1469   1.404   6.252   8.203 -0.1044 -0.2236 -0.1620
   77POPC   C1A 1470   1.957   5.830   8.084 -0.0242 -0.3300  0.3867
   77POPC   D2A 1471   2.302   5.823   7.932 -0.2540  0.1908 -0.2119
   77POPC   C3A 1472   2.544   6.181   7.621 -0.0954  0.1671 -0.0532
   77POPC   C4A 1473   2.533   6.723   7.459  0.4232 -0.0039 -0.2732
   77POPC   C1B 1474   1.016   6.372   7.856  0.0766  0.2633  0.1410
   77POPC   C2B 1475   0.836   6.759   7.819  0.3930 -0.1335  0.1105
   77POPC   C3B 1476   0.560   6.973   7.725 -0.3831  0.2483 -0.1272
   77POPC   C4B 1477   0.269   7.287   7.764 -0.2134  0.0036  0.0632
   78POPC   NC3 1478   3.887   7.023   9.163 -0.1656 -0.0542 -0.1530
   78POPC   PO4 1479   3.696   6.612   9.343 -0.1547 -0.0087  0.2727
   78POPC   GL1 1480   3.586   6.356   8.854 -0.0468 -0.0855  0.0588
   78POPC   GL2 1481   3.275   6.463   8.674  0.1105  0.0611 -0.3784
   78POPC   C1A 1482   3.768   6.177   8.439 -0.0704  0.3320  0.0852
   78POPC   D2A 1483   3.991   6.275   8.075 -0.0739  0.2455 -0.4087
   78POPC   C3A 1484   4.425   6.135   7.939 -0.0565  0.2691  0.2277
   78POPC   C4A 1485   4.845   6.126   7.791 -0.1312 -0.1910 -0.1587
   78POPC   C1B 1486   3.342   6.417   8.315 -0.0906 -0.1726  0.0118
   78POPC   C2B 1487   3.486   6.443   7.832 -0.2051  0.3128 -0.0156
   78POPC   C3B 1488   3.374   6.298   7.394 -0.0833  0.1699  0.2609
   78POPC   C4B 1489   3.356   6.154   6.973 -0.0481 -0.1497 -0.2349
   79POPC   NC3 1490   0.399   8.874  10.153 -0.0111  0.1105  0.1201
   79POPC   PO4 1491   0.629   9.187  10.001  0.1010  0.0613  0.3327
   79POPC   GL1 1492   0.375   9.375   9.608 -0.1032  0.0198  0.1222
   79POPC   GL2 1493   0.488   9.755   9.442  0.0415  0.1221  0.4668
   79POPC   C1A 1494   0.344   9.274   9.189  0.0843  0.0098  0.0929
   79POPC   D2A 1495   0.030   9.201   8.858  0.0831 -0.1771  0.2122
   79POPC   C3A 1496   0.048   8.930   8.532  0.1697 -0.2764  0.0095
   79POPC   C4A 1497   0.274   8.941   8.202  0.1762  0.1619  0.0997
   79POPC   C1B 1498   0.762   9.523   9.156  0.3004 -0.1293  0.0990
   79POPC   C2B 1499   1.016   9.365   8.771  0.3668 -0.1273  0.0146
   79POPC   C3B 1500   1.096   9.231   8.354  0.0312 -0.0297  0.0833
   79POPC   C4B 1501   1.311   8.997   8.039 -0.1189  0.2224  0.1296
   80POPC   NC3 1502   8.347  10.094  10.438 -0.0411  0.1967  0.3472
   80POPC   PO4 1503   8.083   9.808  10.213  0.2623  0.1161  0.1184
   80POPC   GL1 1504   7.962   9.894   9.776  0.0897  0.1090  0.2118
   80POPC   GL2 1505   7.681   9.681   9.641 -0.2819  0.4160  0.1390
   80POPC   C1A 1506   8.291   9.960   9.454  0.0645 -0.3046  0.0198
   80POPC   D2A 1507   8.429  10.170   9.100  0.1579  0.0850  0.0720
   80POPC   C3A 1508   8.407   9.987   8.635  0.0561 -0.0977  0.0889
   80POPC   C4A 1509   8.357   9.522   8.609 -0.1426 -0.0936  0.1339
   80POPC   C1B 1510   7.959   9.441   9.389 -0.0469 -0.1508  0.1059
   80POPC   C2B 1511   8.226   9.258   9.058  0.0849  0.0202  0.0437
   80POPC   C3B 1512   8.126   9.057   8.657 -0.2064 -0.2223 -0.0944
   80POPC   C4B 1513   8.367   8.873   8.421 -0.0981  0.3265  0.1619
   81POPC   NC3 1514   9.807   9.228  10.335  0.1592 -0.2524  0.0640
   81POPC   PO4 1515   9.613   9.009  10.021 -0.0875 -0.1145  0.1336
   81POPC   GL1 1516   9.653   9.184   9.622 -0.2258  0.1555 -0.2031
   81POPC   GL2 1517  10.024   9.244   9.488  0.1029  0.2047  0.1520
   81POPC   C1A 1518   9.672   9.604   9.520 -0.0093  0.1494 -0.1581
   81POPC   D2A 1519   9.333   9.762   9.281  0.0268 -0.1726  0.0678
   81POPC   C3A 1520   9.399   9.855   8.868  0.1126  0.0429 -0.0326
   81POPC   C4A 1521   9.355   9.512   8.700  0.0507  0.0959  0.2346
   81POPC   C1B 1522   9.812   9.273   9.126  0.0174 -0.2018 -0.1787
   81POPC   C2B 1523   9.700   9.082   8.742  0.1756 -0.2124  0.0062
   81POPC   C3B 1524   9.881   9.348   8.465  0.2200 -0.1291 -0.0808
   81POPC   C4B 1525  10.271   9.426   8.276  0.3956 -0.2878 -0.1036
   82POPC   NC3 1526   8.687   4.280   9.395  0.2394  0.0348  0.1850
   82POPC   PO4 1527   8.905   4.325   8.863 -0.2410  0.0789  0.1294
   82POPC   GL1 1528   8.852   4.468   8.500 -0.3058 -0.1086 -0.0548
   82POPC   GL2 1529   9.214   4.498   8.387  0.1350  0.0573  0.1012
   82POPC   C1A 1530   8.768   4.819   8.182  0.0200 -0.1086  0.1870
   82POPC   D2A 1531   8.843   5.223   7.978 -0.0925  0.0859 -0.0349
   82POPC   C3A 1532   9.089   5.243   7.706 -0.0349  0.2445 -0.1791
   82POPC   C4A 1533   9.591   5.265   7.717  0.0796 -0.2008 -0.1165
   82POPC   C1B 1534   9.482   4.428   7.989  0.0781  0.0759  0.2349
   82POPC   C2B 1535   9.697   4.402   7.607 -0.5535  0.1495  0.1134
   82POPC   C3B 1536   9.893   4.643   7.190 -0.0728 -0.2090  0.6033
   82POPC   C4B 1537  10.177   4.953   7.095 -0.0492 -0.2108  0.0569
   83POPC   NC3 1538   4.951   0.684   9.130  0.1728  0.0026  0.2492
   83POPC   PO4 1539   5.362   0.687   8.867 -0.2837  0.1949  0.1436
   83POPC   GL1 1540   5.260   0.773   8.444  0.0914 -0.4024 -0.0731
   83POPC   GL2 1541   5.288   1.126   8.527 -0.1537  0.1058  0.2205
   83POPC   C1A 1542   5.340   0.973   7.970  0.1588 -0.0022 -0.0407
   83POPC   D2A 1543   5.401   1.180   7.601  0.0372 -0.0032 -0.0128
   83POPC   C3A 1544   5.584   1.427   7.334 -0.1217 -0.4215 -0.1354
   83POPC   C4A 1545   5.657   1.427   6.899  0.1220  0.1211 -0.1087
   83POPC   C1B 1546   5.298   1.429   8.137  0.3966  0.1773  0.5885
   83POPC   C2B 1547   5.393   1.678   7.790  0.1164  0.0326  0.1954
   83POPC   C3B 1548   5.088   1.971   7.491  0.0612 -0.0942  0.1364
   83POPC   C4B 1549   4.794   2.309   7.557  0.0176  0.0069 -0.0680
   84POPC   NC3 1550   8.070   5.493   8.944 -0.0953  0.1632  0.4154
   84POPC   PO4 1551   8.485   5.168   9.023  0.0701  0.1041  0.2871
   84POPC   GL1 1552   8.496   5.160   8.593  0.3600 -0.0401  0.1052
   84POPC   GL2 1553   8.346   4.919   8.392 -0.0753 -0.2599  0.1416
   84POPC   C1A 1554   8.457   5.380   8.298  0.2681  0.0979  0.1175
   84POPC   D2A 1555   8.330   5.467   7.962  0.3002 -0.0695 -0.2444
   84POPC   C3A 1556   8.575   5.302   7.575 -0.1490 -0.0153 -0.0692
   84POPC   C4A 1557   8.331   5.317   7.225  0.0993  0.0039 -0.0914
   84POPC   C1B 1558   8.258   4.999   7.909  0.0767  0.1648 -0.3266
   84POPC   C2B 1559   8.129   4.982   7.586  0.1207  0.0875  0.0589
   84POPC   C3B 1560   7.842   5.227   7.238  0.1628 -0.1207  0.2075
   84POPC   C4B 1561   7.936   5.578   6.888 -0.0084 -0.1351  0.0332
   85POPC   NC3 1562   2.324   3.352   9.177  0.0984 -0.2955  0.0399
   85POPC   PO4 1563   2.436   3.111   8.895 -0.1160  0.2189  0.2537
   85POPC   GL1 1564   2.606   3.389   8.578 -0.3239  0.1677 -0.0640
   85POPC   GL2 1565   2.982   3.264   8.564  0.1494 -0.0778  0.1695
   85POPC   C1A 1566   2.543   3.453   8.179  0.0272  0.1234  0.0946
   85POPC   D2A 1567   2.451   3.271   7.764  0.1523 -0.0195  0.1112
   85POPC   C3A 1568   2.060   3.063   7.740  0.1109 -0.0344  0.0923
   85POPC   C4A 1569   1.740   2.896   7.501  0.3536  0.1538 -0.1219
   85POPC   C1B 1570   2.961   3.104   8.225  0.3502 -0.0041 -0.0727
   85POPC   C2B 1571   2.915   2.913   7.804 -0.1179  0.0154 -0.0098
   85POPC   C3B 1572   2.889   2.527   7.575  0.1112  0.0603 -0.1661
   85POPC   C4B 1573   2.550   2.230   7.484 -0.2921  0.0412 -0.1432
   86POPC   NC3 1574   2.342   4.319   9.266  0.1295  0.1234 -0.2510
   86POPC   PO4 1575   2.400   3.876   9.021  0.0196 -0.3454 -0.0649
   86POPC   GL1 1576   2.771   3.936   8.679 -0.1137 -0.3428  0.1685
   86POPC   GL2 1577   3.067   3.799   8.655  0.0710 -0.0866 -0.0156
   86POPC   C1A 1578   2.880   4.206   8.346 -0.1950  0.4383 -0.1488
   86POPC   D2A 1579   2.812   4.100   7.955 -0.0292  0.1535 -0.1053
   86POPC   C3A 1580   2.610   4.451   7.723 -0.1860 -0.0151  0.0283
   86POPC   C4A 1581   2.771   4.828   7.489  0.2633 -0.2925  0.2215
   86POPC   C1B 1582   3.100   3.694   8.209  0.0049 -0.0168  0.0823
   86POPC   C2B 1583   3.109   3.426   7.821  0.1041  0.0818 -0.1086
   86POPC   C3B 1584   3.148   3.490   7.384 -0.2822 -0.0357  0.1535
   86POPC   C4B 1585   3.000   3.370   7.062 -0.0836  0.1104 -0.0064
   87POPC   NC3 1586   0.263   0.235  10.135 -0.3259 -0.0447 -0.2294
   87POPC   PO4 1587   0.154  -0.165  10.069  0.3760 -0.1525  0.2347
   87POPC   GL1 1588   0.030  -0.406   9.587 -0.2341 -0.1835 -0.2043
   87POPC   GL2 1589  -0.225  -0.186   9.420 -0.0147 -0.1390 -0.4563
   87POPC   C1A 1590   0.009  -0.527   9.159 -0.0687 -0.1700  0.1685
   87POPC   D2A 1591   0.199  -0.568   8.729 -0.1109  0.3394  0.1689
   87POPC   C3A 1592   0.643  -0.498   8.657  0.0491  0.2961 -0.0231
   87POPC   C4A 1593   0.960  -0.373   8.465  0.0771  0.0268 -0.1970
   87POPC   C1B 1594  -0.501   0.121   9.123  0.0702 -0.3207  0.4594
   87POPC   C2B 1595  -0.429   0.316   8.718 -0.1286 -0.2138  0.1241
   87POPC   C3B 1596  -0.467   0.595   8.354  0.2295 -0.3232 -0.0693
   87POPC   C4B 1597  -0.507   0.970   8.148 -0.1591 -0.0194  0.1091
   88POPC   NC3 1598   4.402   6.137   9.264  0.4775 -0.0643 -0.1199
   88POPC   PO4 1599   4.342   5.743   9.319  0.0442 -0.1383  0.0280
   88POPC   GL1 1600   4.339   5.763   8.895 -0.0534 -0.0671 -0.1789
   88POPC   GL2 1601   4.670   5.616   8.944  0.2541 -0.0919  0.2274
   88POPC   C1A 1602   4.379   5.533   8.454  0.0292  0.0428 -0.2430
   88POPC   D2A 1603   4.630   5.714   8.165  0.0474 -0.0772  0.0668
   88POPC   C3A 1604   5.068   5.693   8.081  0.0551 -0.1853 -0.1753
   88POPC   C4A 1605   5.263   5.587   7.674 -0.1794 -0.0773  0.0064
   88POPC   C1B 1606   4.797   5.819   8.640 -0.1119  0.0465 -0.4453
   88POPC   C2B 1607   4.840   6.176   8.397  0.2612  0.1456 -0.0878
   88POPC   C3B 1608   4.849   6.678   8.400  0.2990 -0.0900 -0.2125
   88POPC   C4B 1609   5.009   7.140   8.279  0.0554  0.1680 -0.0357
   89POPC   NC3 1610   8.095   3.443   8.693  0.2360  0.1616  0.0792
   89POPC   PO4 1611   8.210   3.036   8.465 -0.4869  0.1847 -0.2465
   89POPC   GL1 1612   8.211   3.075   8.044  0.2453 -0.0605 -0.0622
   89POPC   GL2 1613   7.864   3.150   8.012 -0.0726  0.3125 -0.0098
   89POPC   C1A 1614   8.153   3.034   7.627 -0.0233  0.2757  0.2809
   89POPC   D2A 1615   8.087   3.069   7.224 -0.0672 -0.0373  0.0521
   89POPC   C3A 1616   8.220   2.885   6.910 -0.2328  0.0447  0.1667
   89POPC   C4A 1617   8.603   2.832   6.818 -0.5632  0.0477  0.0796
   89POPC   C1B 1618   7.719   3.221   7.583  0.2877 -0.0616  0.1247
   89POPC   C2B 1619   7.457   3.250   7.190  0.0769  0.0118 -0.1274
   89POPC   C3B 1620   7.195   3.096   6.893 -0.0428 -0.1426  0.2979
   89POPC   C4B 1621   6.951   2.826   6.776 -0.1898  0.1561 -0.2584
   90POPC   NC3 1622   3.467   9.756   9.377  0.1146  0.0728 -0.0420
   90POPC   PO4 1623   3.689   9.995   9.029 -0.0989  0.0981 -0.1290
   90POPC   GL1 1624   3.605   9.719   8.755  0.4044  0.0183 -0.0301
   90POPC   GL2 1625   3.753   9.414   8.721  0.3400  0.1126 -0.2307
   90POPC   C1A 1626   3.596   9.842   8.322 -0.0746 -0.0315 -0.3052
   90POPC   D2A 1627   3.387   9.877   7.962 -0.2082 -0.4563  0.0610
   90POPC   C3A 1628   3.041   9.449   7.954  0.0156  0.0268  0.0830
   90POPC   C4A 1629   2.698   9.369   7.759  0.0130  0.0950  0.1150
   90POPC   C1B 1630   3.990   9.604   8.385 -0.1189  0.1250  0.0273
   90POPC   C2B 1631   4.270   9.599   8.049  0.2559 -0.4893 -0.0929
   90POPC   C3B 1632   4.384   9.773   7.614  0.0990 -0.1381 -0.1705
   90POPC   C4B 1633   4.511   9.911   7.223  0.3994 -0.0848  0.0659
   91POPC   NC3 1634   4.012   8.409   9.004 -0.1217 -0.0094 -0.0015
   91POPC   PO4 1635   3.773   8.897   9.018  0.1509 -0.1086 -0.0883
   91POPC   GL1 1636   3.796   8.773   8.628  0.2359 -0.0196  0.0712
   91POPC   GL2 1637   3.508   8.575   8.558  0.0912 -0.4293 -0.1889
   91POPC   C1A 1638   4.023   9.069   8.238  0.0681  0.0071 -0.1436
   91POPC   D2A 1639   4.389   9.044   8.080  0.0806 -0.1014 -0.2533
   91POPC   C3A 1640   4.424   8.798   7.701 -0.0829  0.0199  0.0564
   91POPC   C4A 1641   4.202   8.986   7.348  0.2445 -0.1626  0.1505
   91POPC   C1B 1642   3.671   8.484   8.079 -0.0984  0.1325  0.0749
   91POPC   C2B 1643   3.426   8.235   7.763 -0.1178 -0.3168 -0.0703
   91POPC   C3B 1644   3.086   8.482   7.455 -0.0990  0.0329  0.2506
   91POPC   C4B 1645   2.961   8.905   7.516  0.1556 -0.2819 -0.1545
   92POPC   NC3 1646   6.327   3.983   8.521 -0.4320  0.2518 -0.2726
   92POPC   PO4 1647   6.705   3.939   8.717  0.5909 -0.0154  0.0234
   92POPC   GL1 1648   6.781   4.047   8.312 -0.2053 -0.3379 -0.1155
   92POPC   GL2 1649   6.959   4.253   8.052  0.1105 -0.0798 -0.3577
   92POPC   C1A 1650   6.484   4.174   7.964  0.2324  0.3920 -0.0084
   92POPC   D2A 1651   6.113   3.988   8.036  0.1306  0.1675  0.2534
   92POPC   C3A 1652   6.073   3.658   7.735  0.1657 -0.2108 -0.1190
   92POPC   C4A 1653   6.128   3.580   7.280  0.0823  0.3690  0.0960
   92POPC   C1B 1654   7.346   4.444   7.745  0.3716  0.3047 -0.0977
   92POPC   C2B 1655   7.497   4.591   7.413 -0.3736  0.0586  0.0270
   92POPC   C3B 1656   7.933   4.684   7.140 -0.2843 -0.2824 -0.1432
   92POPC   C4B 1657   8.242   4.903   6.959 -0.1218 -0.0266 -0.0773
   93POPC   NC3 1658   4.514   7.452   9.516  0.1324  0.0152  0.2756
   93POPC   PO4 1659   4.845   7.415   9.115 -0.2495  0.2693 -0.0126
   93POPC   GL1 1660   4.682   7.311   8.664 -0.3165  0.0788  0.0596
   93POPC   GL2 1661   4.374   7.515   8.717  0.2310 -0.2865  0.0898
   93POPC   C1A 1662   4.492   7.031   8.226 -0.1110  0.2504  0.0730
   93POPC   D2A 1663   4.252   7.065   8.088 -0.1501 -0.2804 -0.0336
   93POPC   C3A 1664   4.255   7.150   7.741  0.0894  0.1002 -0.2020
   93POPC   C4A 1665   4.161   7.317   7.386 -0.3489 -0.1480 -0.1427
   93POPC   C1B 1666   4.453   7.592   8.313  0.1672  0.2395  0.2370
   93POPC   C2B 1667   4.535   7.533   7.794  0.2134  0.0140  0.1164
   93POPC   C3B 1668   4.322   7.809   7.506 -0.0129  0.1971  0.1393
   93POPC   C4B 1669   4.306   8.034   7.208 -0.0242  0.0716 -0.2393
   94POPC   NC3 1670   5.651   4.383   9.292 -0.0694  0.1665  0.1435
   94POPC   PO4 1671   5.253   4.450   9.482  0.1655  0.1639 -0.0484
   94POPC   GL1 1672   5.141   4.261   9.066  0.1119  0.2746  0.0379
   94POPC   GL2 1673   5.353   4.067   8.993  0.0038 -0.0302  0.1465
   94POPC   C1A 1674   4.828   4.295   8.696 -0.2793 -0.1407 -0.0506
   94POPC   D2A 1675   4.794   4.422   8.410  0.0908  0.2931 -0.0371
   94POPC   C3A 1676   5.167   4.600   8.360  0.3077 -0.0294 -0.2063
   94POPC   C4A 1677   5.526   4.601   8.119 -0.2220  0.2452  0.1939
   94POPC   C1B 1678   5.218   4.124   8.526 -0.1411 -0.1709  0.1256
   94POPC   C2B 1679   5.239   4.165   8.162 -0.0852  0.0314  0.2686
   94POPC   C3B 1680   5.325   4.329   7.756 -0.1336  0.3362 -0.1089
   94POPC   C4B 1681   5.587   4.433   7.391 -0.2297  0.4719 -0.3399
   95POPC   NC3 1682   3.667   2.225   8.941  0.4212  0.0784  0.3046
   95POPC   PO4 1683   4.043   2.312   9.213 -0.0910  0.2312 -0.1537
   95POPC   GL1 1684   4.024   2.513   8.721 -0.0736  0.0773  0.0841
   95POPC   GL2 1685   4.167   2.884   8.628 -0.3010 -0.0661 -0.1090
   95POPC   C1A 1686   4.050   2.474   8.282 -0.0939  0.0159  0.1923
   95POPC   D2A 1687   3.893   2.369   7.825 -0.2351  0.1050 -0.0058
   95POPC   C3A 1688   3.544   2.626   7.597  0.1902  0.2018  0.1229
   95POPC   C4A 1689   3.445   2.383   7.153 -0.1707  0.2979 -0.1706
   95POPC   C1B 1690   4.288   3.025   8.188 -0.0951  0.0131  0.0658
   95POPC   C2B 1691   4.604   2.971   7.821  0.1368  0.0889  0.3169
   95POPC   C3B 1692   4.556   2.738   7.430  0.1858  0.1904  0.1308
   95POPC   C4B 1693   4.353   2.582   6.954 -0.2076 -0.0832 -0.1132
   96POPC   NC3 1694   5.742   7.068   9.307 -0.0804  0.2517  0.0265
   96POPC   PO4 1695   6.005   7.318   9.190 -0.0538 -0.1243 -0.0787
   96POPC   GL1 1696   6.022   7.223   8.848  0.0474 -0.1202  0.1374
   96POPC   GL2 1697   5.834   6.907   8.792  0.2173 -0.0438 -0.2194
   96POPC   C1A 1698   5.708   7.310   8.520 -0.0920  0.3401 -0.2132
   96POPC   D2A 1699   5.706   7.610   8.225  0.2605  0.1476 -0.0693
   96POPC   C3A 1700   5.297   7.440   8.062 -0.1742  0.0644 -0.0760
   96POPC   C4A 1701   5.142   7.303   7.766  0.1189 -0.0626 -0.1178
   96POPC   C1B 1702   5.893   6.863   8.322  0.4798  0.3575  0.1040
   96POPC   C2B 1703   6.181   6.845   7.914 -0.1560  0.0929 -0.1513
   96POPC   C3B 1704   6.636   6.696   7.820 -0.1170  0.2411  0.1872
   96POPC   C4B 1705   6.959   6.808   8.055 -0.1086 -0.4420  0.0755
   97POPC   NC3 1706   1.981   8.098   9.701 -0.0633 -0.0400  0.0226
   97POPC   PO4 1707   2.096   8.530   9.513 -0.3088  0.1992 -0.0260
   97POPC   GL1 1708   1.913   8.600   9.065 -0.1349  0.0556 -0.1861
   97POPC   GL2 1709   2.179   8.616   8.914 -0.0045 -0.2281 -0.0759
   97POPC   C1A 1710   1.836   8.985   8.829 -0.0068 -0.0430 -0.5518
   97POPC   D2A 1711   1.719   9.001   8.363  0.0019 -0.0618  0.2996
   97POPC   C3A 1712   1.900   8.886   7.920 -0.1121 -0.1032  0.1668
   97POPC   C4A 1713   2.140   8.732   7.606 -0.0420 -0.0018 -0.0488
   97POPC   C1B 1714   2.039   8.621   8.536  0.0857 -0.1852 -0.0566
   97POPC   C2B 1715   2.129   8.400   8.212  0.0633  0.0632 -0.1016
   97POPC   C3B 1716   2.337   8.235   7.761  0.3185  0.1309  0.0649
   97POPC   C4B 1717   2.582   8.511   7.502 -0.0321  0.2079  0.1367
   98POPC   NC3 1718   0.303   4.416   9.223  0.2433  0.2074  0.4457
   98POPC   PO4 1719   0.407   4.827   9.307  0.4462 -0.0192  0.0711
   98POPC   GL1 1720   0.418   4.759   8.859  0.1868  0.3250  0.0982
   98POPC   GL2 1721   0.158   4.984   8.802  0.0708  0.1424  0.0003
   98POPC   C1A 1722   0.501   4.758   8.389 -0.1707 -0.3654  0.0747
   98POPC   D2A 1723   0.874   4.988   8.282  0.0783 -0.1655 -0.0631
   98POPC   C3A 1724   0.870   5.493   8.239  0.1697  0.0962  0.2177
   98POPC   C4A 1725   1.133   5.744   8.142  0.0505 -0.2024  0.3854
   98POPC   C1B 1726   0.256   5.161   8.514  0.0103 -0.2853  0.0718
   98POPC   C2B 1727   0.306   5.283   8.116 -0.1573  0.0538  0.4390
   98POPC   C3B 1728   0.521   5.342   7.823  0.0512 -0.2904 -0.0495
   98POPC   C4B 1729   0.764   5.473   7.660  0.1212  0.0371 -0.0867
   99POPC   NC3 1730   6.374   7.288  10.075 -0.2165 -0.1091  0.2983
   99POPC   PO4 1731   6.714   7.448   9.866 -0.0022 -0.0211 -0.1400
   99POPC   GL1 1732   6.764   7.300   9.433 -0.0844 -0.2352  0.1240
   99POPC   GL2 1733   6.500   7.309   9.084 -0.2514 -0.1146 -0.1407
   99POPC   C1A 1734   6.986   7.475   9.174 -0.0645 -0.1266  0.1710
   99POPC   D2A 1735   7.212   7.380   8.835 -0.1938 -0.0878 -0.1141
   99POPC   C3A 1736   7.569   7.583   8.846  0.0847  0.3438  0.1928
   99POPC   C4A 1737   7.919   7.523   8.574  0.3788 -0.1257 -0.1340
   99POPC   C1B 1738   6.440   7.431   8.642  0.0129  0.2699 -0.0567
   99POPC   C2B 1739   6.239   7.415   8.324 -0.2376 -0.0150  0.2502
   99POPC   C3B 1740   6.108   7.483   7.906 -0.3101  0.2584 -0.0478
   99POPC   C4B 1741   6.362   7.560   7.405 -0.0357  0.0110 -0.0053
  100POPC   NC3 1742   4.589   5.202   9.489  0.0482 -0.0183 -0.1487
  100POPC   PO4 1743   4.929   5.150   9.123  0.1921 -0.2217 -0.3257
  100POPC   GL1 1744   5.051   5.079   8.599  0.0330 -0.1287  0.3575
  100POPC   GL2 1745   4.802   5.262   8.483 -0.0449  0.2686  0.1425
  100POPC   C1A 1746   5.242   5.092   8.247  0.1975  0.3248 -0.0324
  100POPC   D2A 1747   5.474   5.136   7.852  0.3242  0.3370 -0.1421
  100POPC   C3A 1748   5.374   4.869   7.559  0.2473 -0.0465  0.0550
  100POPC   C4A 1749   4.920   4.658   7.416 -0.0280  0.2113 -0.1928
  100POPC   C1B 1750   4.815   5.223   8.050  0.0283 -0.1769  0.0987
  100POPC   C2B 1751   4.987   5.193   7.581  0.1441  0.0236  0.2039
  100POPC   C3B 1752   4.790   5.097   7.152  0.3003 -0.1101 -0.0447
  100POPC   C4B 1753   4.404   5.032   6.838  0.1234 -0.0819 -0.2298
  101POPC   NC3 1754   2.334   1.706   9.116 -0.0957 -0.1421 -0.1320
  101POPC   PO4 1755   1.912   1.489   8.975  0.1052 -0.0929  0.0084
  101POPC   GL1 1756   1.931   1.327   8.547 -0.0973 -0.0383  0.2490
  101POPC   GL2 1757   1.903   1.467   8.315  0.0950  0.0288  0.0414
  101POPC   C1A 1758   1.990   0.934   8.312  0.2358  0.2176 -0.1419
  101POPC   D2A 1759   1.733   0.915   7.997  0.0380  0.3417  0.0395
  101POPC   C3A 1760   1.732   1.002   7.516 -0.0834 -0.0863  0.0980
  101POPC   C4A 1761   1.700   1.290   7.154  0.1642  0.2201  0.2152
  101POPC   C1B 1762   2.111   1.469   7.962  0.0800 -0.0586  0.2346
  101POPC   C2B 1763   2.360   1.332   7.745 -0.0666 -0.2696 -0.0607
  101POPC   C3B 1764   2.716   1.253   7.359 -0.0428 -0.0136 -0.1566
  101POPC   C4B 1765   3.076   1.208   7.031 -0.1684  0.1187 -0.0851
  102POPC   NC3 1766   8.888   7.815  10.072  0.1633  0.3432 -0.0207
  102POPC   PO4 1767   8.697   7.643   9.768  0.0010 -0.0993 -0.0969
  102POPC   GL1 1768   8.959   7.782   9.348  0.2900  0.1319  0.1764
  102POPC   GL2 1769   9.052   7.484   9.254  0.1972  0.0323  0.1231
  102POPC   C1A 1770   8.940   7.910   8.933 -0.4924  0.1873  0.1602
  102POPC   D2A 1771   8.769   8.200   8.545 -0.2743 -0.0374  0.0485
  102POPC   C3A 1772   8.869   8.671   8.552 -0.1767  0.0806  0.1497
  102POPC   C4A 1773   9.190   9.011   8.400 -0.0616 -0.1153 -0.1337
  102POPC   C1B 1774   8.936   7.397   8.853 -0.1125  0.0653  0.0992
  102POPC   C2B 1775   8.624   7.529   8.671 -0.2769 -0.0107  0.4317
  102POPC   C3B 1776   8.266   7.832   8.413  0.2524  0.1204 -0.1184
  102POPC   C4B 1777   7.848   7.886   8.225 -0.0267  0.2865  0.0137
  103POPC   NC3 1778   8.465   2.494   8.988 -0.3788  0.0779 -0.1460
  103POPC   PO4 1779   8.413   2.557   8.612  0.1727  0.6650  0.1963
  103POPC   GL1 1780   8.596   2.712   8.220  0.1353 -0.0038  0.1187
  103POPC   GL2 1781   8.849   2.466   8.200 -0.1367 -0.1673  0.1545
  103POPC   C1A 1782   8.431   2.664   7.762  0.1990  0.1713  0.1932
  103POPC   D2A 1783   8.186   2.605   7.422  0.1257 -0.0757 -0.0300
  103POPC   C3A 1784   8.386   2.404   7.125 -0.0791  0.0204 -0.1581
  103POPC   C4A 1785   8.422   2.032   6.736  0.0869  0.0218 -0.1715
  103POPC   C1B 1786   9.180   2.177   7.893  0.1480  0.1485  0.2803
  103POPC   C2B 1787   9.277   2.081   7.503  0.2204 -0.0761 -0.0736
  103POPC   C3B 1788   9.726   2.110   7.255  0.0576 -0.3214 -0.3275
  103POPC   C4B 1789   9.942   2.349   7.039 -0.1407  0.3470  0.0690
  104POPC   NC3 1790   3.084   7.697   9.622 -0.0523 -0.4608  0.2111
  104POPC   PO4 1791   2.734   7.879   9.304  0.0784  0.0280  0.0167
  104POPC   GL1 1792   2.822   8.040   8.907  0.2439  0.1881  0.1987
  104POPC   GL2 1793   2.578   8.262   8.913  0.2156 -0.1035  0.1025
  104POPC   C1A 1794   2.796   8.051   8.512  0.1749 -0.1068 -0.0200
  104POPC   D2A 1795   2.955   7.802   8.109  0.0511  0.0233  0.1242
  104POPC   C3A 1796   2.868   8.062   7.743  0.0979 -0.3623 -0.0279
  104POPC   C4A 1797   2.807   8.140   7.254  0.0368 -0.2294  0.2442
  104POPC   C1B 1798   2.273   8.120   8.671 -0.0578  0.0144  0.0721
  104POPC   C2B 1799   2.349   7.932   8.303  0.1441 -0.0605  0.1808
  104POPC   C3B 1800   2.483   7.769   7.927 -0.0823 -0.2440  0.1799
  104POPC   C4B 1801   2.521   7.748   7.460  0.1597 -0.0177 -0.2901
  105POPC   NC3 1802   8.959   6.138   9.420 -0.1535 -0.1377 -0.3637
  105POPC   PO4 1803   8.975   5.846   9.175 -0.1708 -0.0584 -0.2916
  105POPC   GL1 1804   8.714   5.979   8.899  0.0196 -0.0602 -0.0016
  105POPC   GL2 1805   8.575   5.712   8.704 -0.3157 -0.2978 -0.1315
  105POPC   C1A 1806   8.677   6.079   8.408 -0.3699  0.1658  0.0206
  105POPC   D2A 1807   8.698   5.892   7.956  0.0728 -0.0957  0.0966
  105POPC   C3A 1808   8.698   6.131   7.492 -0.0070  0.2476 -0.2408
  105POPC   C4A 1809   8.650   6.388   7.175 -0.1157  0.1186  0.1353
  105POPC   C1B 1810   9.123   5.912   8.554  0.1990  0.1618  0.1828
  105POPC   C2B 1811   9.444   6.009   8.255 -0.0744  0.0562  0.1676
  105POPC   C3B 1812   9.269   6.134   7.895  0.3000 -0.0299 -0.1886
  105POPC   C4B 1813   9.231   6.222   7.482  0.2244 -0.1885  0.0793
  106POPC   NC3 1814   8.746   1.893   9.219  0.1787 -0.2901  0.4426
  106POPC   PO4 1815   9.215   2.011   9.185  0.1326  0.0178 -0.4042
  106POPC   GL1 1816   8.985   1.858   8.765  0.1035  0.1124  0.0233
  106POPC   GL2 1817   9.072   2.016   8.474  0.0432 -0.0244 -0.0672
  106POPC   C1A 1818   8.703   1.683   8.435  0.0756  0.1418  0.2012
  106POPC   D2A 1819   8.558   1.171   8.240  0.0053  0.0161  0.1969
  106POPC   C3A 1820   8.722   1.068   8.564  0.1835  0.0338 -0.0635
  106POPC   C4A 1821   8.934   0.875   8.787 -0.1164  0.0458 -0.3086
  106POPC   C1B 1822   9.069   1.758   8.113 -0.1992  0.1459  0.2571
  106POPC   C2B 1823   9.211   1.343   7.934 -0.0751 -0.3511 -0.0545
  106POPC   C3B 1824   9.361   0.932   7.760  0.2263  0.1359  0.0682
  106POPC   C4B 1825   9.760   0.719   7.742 -0.2718 -0.3610 -0.0087
  107POPC   NC3 1826   1.927   7.572   9.101  0.2308 -0.3386  0.0040
  107POPC   PO4 1827   1.726   7.887   9.298  0.0106 -0.2628  0.4267
  107POPC   GL1 1828   1.755   8.039   8.867  0.2423  0.0708  0.1455
  107POPC   GL2 1829   1.890   7.774   8.592  0.1728  0.2515 -0.2021
  107POPC   C1A 1830   1.461   8.067   8.415  0.2343 -0.2733 -0.2671
  107POPC   D2A 1831   1.327   8.119   8.011 -0.0730  0.0167  0.0396
  107POPC   C3A 1832   1.061   7.865   7.696  0.0362 -0.2396 -0.0752
  107POPC   C4A 1833   0.622   7.593   7.638 -0.0171 -0.0003  0.1002
  107POPC   C1B 1834   1.829   8.007   8.161 -0.3620 -0.3884 -0.2544
  107POPC   C2B 1835   1.860   8.158   7.865  0.2150 -0.0453 -0.0777
  107POPC   C3B 1836   1.818   8.375   7.591 -0.3447 -0.1243 -0.1501
  107POPC   C4B 1837   1.916   8.304   7.173 -0.0140 -0.0069  0.0766
  108POPC   NC3 1838   8.557   6.934   9.969 -0.0283  0.0649  0.1656
  108POPC   PO4 1839   8.785   6.563   9.792 -0.0862 -0.0461  0.0570
  108POPC   GL1 1840   9.038   6.644   9.397 -0.0912 -0.0157  0.2778
  108POPC   GL2 1841   8.841   6.523   9.132  0.0224 -0.1852  0.0898
  108POPC   C1A 1842   9.419   6.573   9.205  0.2128  0.4789  0.4050
  108POPC   D2A 1843   9.633   6.648   8.958 -0.0206 -0.1087  0.0905
  108POPC   C3A 1844   9.718   6.836   8.595 -0.0140  0.1490  0.2062
  108POPC   C4A 1845   9.899   6.996   8.319 -0.3606  0.1157  0.1157
  108POPC   C1B 1846   8.744   6.506   8.708  0.1999 -0.1921 -0.1958
  108POPC   C2B 1847   8.680   6.656   8.318  0.1189  0.0194  0.0185
  108POPC   C3B 1848   9.003   6.864   8.039  0.3964 -0.0703  0.3843
  108POPC   C4B 1849   9.110   7.064   7.575  0.4835 -0.0786 -0.0716
  109POPC   NC3 1850   2.969   8.328   9.222 -0.1545  0.0970  0.0468
  109POPC   PO4 1851   2.682   8.635   9.186 -0.3558 -0.1399  0.0830
  109POPC   GL1 1852   2.577   8.868   8.779  0.1023 -0.2061  0.1315
  109POPC   GL2 1853   2.331   9.082   8.619 -0.0056  0.2881 -0.2440
  109POPC   C1A 1854   2.580   8.639   8.472 -0.0408  0.0968  0.1934
  109POPC   D2A 1855   2.652   8.448   8.106  0.0654  0.0681 -0.1283
  109POPC   C3A 1856   2.951   8.624   7.996  0.3541  0.2618  0.1177
  109POPC   C4A 1857   3.380   8.762   7.765 -0.1055  0.1578 -0.1536
  109POPC   C1B 1858   2.252   9.010   8.183 -0.2243  0.0070 -0.4815
  109POPC   C2B 1859   2.551   8.879   7.824  0.0049 -0.0996 -0.1608
  109POPC   C3B 1860   2.482   9.116   7.425  0.0898  0.1903  0.1298
  109POPC   C4B 1861   2.586   9.453   7.194  0.0216  0.1316 -0.2476
  110POPC   NC3 1862   3.134   4.124   9.653  0.3709  0.0066  0.1114
  110POPC   PO4 1863   3.494   4.331   9.368  0.2778 -0.3096 -0.0359
  110POPC   GL1 1864   3.537   4.404   8.989  0.2168 -0.1270 -0.1767
  110POPC   GL2 1865   3.854   4.319   8.880  0.0467  0.1747  0.0285
  110POPC   C1A 1866   3.267   4.230   8.645 -0.2573  0.1465  0.1090
  110POPC   D2A 1867   3.354   4.142   8.279  0.2319 -0.1204 -0.3265
  110POPC   C3A 1868   3.151   4.438   7.947 -0.1824  0.1357  0.0131
  110POPC   C4A 1869   3.194   4.612   7.526 -0.2523 -0.0926  0.1740
  110POPC   C1B 1870   3.855   4.204   8.398  0.1303  0.3087  0.1557
  110POPC   C2B 1871   3.773   4.186   8.069 -0.0690  0.0099 -0.1777
  110POPC   C3B 1872   3.620   4.320   7.710  0.0154  0.0890  0.1687
  110POPC   C4B 1873   3.684   4.561   7.263  0.0348  0.1653  0.1835
  111POPC   NC3 1874   5.610   2.701   8.617  0.1782 -0.1839 -0.2136
  111POPC   PO4 1875   5.298   3.062   8.582 -0.0645 -0.0826  0.0310
  111POPC   GL1 1876   5.243   2.709   8.287 -0.0479  0.0036 -0.0358
  111POPC   GL2 1877   5.403   2.409   8.287 -0.0216  0.3656 -0.1998
  111POPC   C1A 1878   5.036   2.675   7.834  0.0679 -0.0251 -0.1326
  111POPC   D2A 1879   5.092   2.757   7.418 -0.3164 -0.2300  0.1503
  111POPC   C3A 1880   5.339   3.081   7.132 -0.2528  0.0925 -0.2114
  111POPC   C4A 1881   5.370   3.295   6.839  0.0775 -0.1190 -0.0196
  111POPC   C1B 1882   5.723   2.449   8.004 -0.6308  0.2055 -0.1502
  111POPC   C2B 1883   6.072   2.397   7.799  0.0685  0.2655  0.1696
  111POPC   C3B 1884   6.347   2.547   7.391  0.1261  0.1035 -0.0808
  111POPC   C4B 1885   6.669   2.723   7.272  0.2167  0.1221 -0.1675
  112POPC   NC3 1886  10.162   7.683   9.982  0.0238  0.0189 -0.0770
  112POPC   PO4 1887  10.325   7.983   9.739  0.1132 -0.0064  0.0180
  112POPC   GL1 1888  10.631   8.086   9.325  0.0169 -0.0255  0.1186
  112POPC   GL2 1889  10.671   8.431   9.257  0.0178  0.2194 -0.2566
  112POPC   C1A 1890  10.660   7.954   8.893 -0.0844 -0.0062  0.0681
  112POPC   D2A 1891  10.257   7.883   8.673 -0.2270  0.1548 -0.1191
  112POPC   C3A 1892  10.081   8.044   8.250  0.0074 -0.0669 -0.1094
  112POPC   C4A 1893   9.678   8.236   8.175  0.0750 -0.3001 -0.4665
  112POPC   C1B 1894  10.461   8.742   9.139  0.0006  0.1545  0.2521
  112POPC   C2B 1895   9.998   8.819   9.089 -0.0610 -0.0140 -0.1066
  112POPC   C3B 1896   9.685   8.798   9.269 -0.1194 -0.2642 -0.3227
  112POPC   C4B 1897   9.236   8.797   9.380  0.2433  0.0208  0.2226
  113POPC   NC3 1898   2.327   8.986   9.342 -0.0086 -0.1917  0.1023
  113POPC   PO4 1899   2.090   9.454   9.352 -0.3593  0.3745 -0.1400
  113POPC   GL1 1900   2.032   9.545   8.940 -0.2937  0.2319 -0.0834
  113POPC   GL2 1901   1.926   9.837   8.779 -0.2725 -0.0449 -0.2269
  113POPC   C1A 1902   1.998   9.468   8.399  0.1327  0.1264  0.1147
  113POPC   D2A 1903   1.784   9.438   7.926  0.2074 -0.0719 -0.1448
  113POPC   C3A 1904   1.732   9.620   7.528 -0.2848 -0.0932  0.2128
  113POPC   C4A 1905   2.114   9.786   7.319  0.0080  0.0418  0.1372
  113POPC   C1B 1906   2.231   9.926   8.360  0.3424 -0.1314 -0.0442
  113POPC   C2B 1907   2.385  10.245   8.077 -0.2695 -0.0666 -0.1017
  113POPC   C3B 1908   2.528  10.269   7.667  0.3344 -0.0333  0.3818
  113POPC   C4B 1909   2.396  10.235   7.261  0.1444 -0.1562 -0.0710
  114POPC   NC3 1910   3.792   1.726   8.987  0.2445  0.2688  0.2745
  114POPC   PO4 1911   3.353   1.766   8.981 -0.0337  0.2114  0.0147
  114POPC   GL1 1912   3.075   1.665   8.587 -0.0210  0.2153  0.1068
  114POPC   GL2 1913   2.757   1.687   8.679  0.4773  0.2841  0.0104
  114POPC   C1A 1914   2.991   1.785   8.210 -0.1876  0.0482  0.0182
  114POPC   D2A 1915   3.050   2.084   7.837  0.0020  0.0701  0.0846
  114POPC   C3A 1916   3.475   2.101   7.675  0.2864 -0.0835  0.0240
  114POPC   C4A 1917   3.655   1.876   7.385 -0.1360  0.2466  0.1080
  114POPC   C1B 1918   2.653   2.151   8.464 -0.0720 -0.1317  0.0321
  114POPC   C2B 1919   2.294   2.450   8.494  0.2244 -0.0198 -0.3120
  114POPC   C3B 1920   1.958   2.686   8.331  0.0514 -0.1262  0.0182
  114POPC   C4B 1921   1.704   2.853   8.075 -0.0600  0.1352 -0.0515
  115POPC   NC3 1922   1.072   2.333   9.423 -0.1196 -0.5730 -0.3696
  115POPC   PO4 1923   0.574   2.459   9.317 -0.4183 -0.2685  0.0069
  115POPC   GL1 1924   0.829   2.267   8.956 -0.2647 -0.0501  0.2427
  115POPC   GL2 1925   1.150   2.401   8.868 -0.2997 -0.1988 -0.0826
  115POPC   C1A 1926   0.889   2.161   8.491  0.0344  0.0887  0.0974
  115POPC   D2A 1927   1.151   2.143   8.118  0.0602 -0.1143  0.0707
  115POPC   C3A 1928   0.936   2.074   7.656 -0.0617 -0.0442 -0.0075
  115POPC   C4A 1929   0.735   2.358   7.332 -0.2494  0.0949  0.1313
  115POPC   C1B 1930   1.370   2.287   8.533 -0.0502  0.3542 -0.3136
  115POPC   C2B 1931   1.654   2.282   8.166 -0.1003  0.1892  0.0342
  115POPC   C3B 1932   1.970   2.442   7.929  0.0385  0.0068  0.1014
  115POPC   C4B 1933   2.336   2.646   7.684  0.0418 -0.0464 -0.0720
  116POPC   NC3 1934   2.483   0.989   9.528  0.1201 -0.0413  0.4747
  116POPC   PO4 1935   2.627   0.769   9.100  0.1320 -0.3225  0.1507
  116POPC   GL1 1936   2.604   0.637   8.646  0.0096  0.2532  0.0222
  116POPC   GL2 1937   2.923   0.770   8.562  0.1091 -0.0054 -0.1430
  116POPC   C1A 1938   2.305   0.524   8.392 -0.3098  0.0354  0.0720
  116POPC   D2A 1939   2.258   0.509   7.915  0.0943  0.3585  0.0789
  116POPC   C3A 1940   2.111   0.743   7.701  0.0065  0.1478 -0.1769
  116POPC   C4A 1941   2.219   1.051   7.301  0.1633  0.0750  0.2652
  116POPC   C1B 1942   2.869   0.342   8.340  0.1226  0.2185 -0.2487
  116POPC   C2B 1943   3.019   0.241   7.913  0.0793 -0.0096 -0.1597
  116POPC   C3B 1944   3.141   0.582   7.548 -0.0599  0.3923 -0.2068
  116POPC   C4B 1945   3.238   0.644   7.076  0.4336  0.1507 -0.0292
  117POPC   NC3 1946   8.399   9.286  10.087  0.1606 -0.0662 -0.2101
  117POPC   PO4 1947   8.718   9.027  10.091  0.1964  0.0250  0.1639
  117POPC   GL1 1948   8.661   8.848   9.570  0.0703 -0.1638 -0.2954
  117POPC   GL2 1949   8.357   8.740   9.467 -0.0180  0.2035  0.1615
  117POPC   C1A 1950   8.862   8.477   9.358 -0.1164 -0.3526  0.0749
  117POPC   D2A 1951   9.023   8.504   8.999 -0.0603 -0.2169 -0.1434
  117POPC   C3A 1952   9.262   8.914   8.898  0.1556 -0.1375 -0.0336
  117POPC   C4A 1953   9.309   9.269   9.191  0.0942 -0.0644  0.2597
  117POPC   C1B 1954   8.011   8.674   9.116  0.0859  0.1546  0.1336
  117POPC   C2B 1955   7.983   8.555   8.725 -0.3176  0.0786  0.2749
  117POPC   C3B 1956   8.178   8.311   8.535 -0.2464  0.1201  0.1554
  117POPC   C4B 1957   8.453   8.331   8.180  0.0376  0.0215 -0.1846
  118POPC   NC3 1958   9.667   2.908   8.728 -0.1941 -0.0989 -0.5181
  118POPC   PO4 1959   9.662   3.306   8.916  0.1945  0.1301 -0.5640
  118POPC   GL1 1960   9.507   3.305   8.413 -0.1642  0.3806 -0.1408
  118POPC   GL2 1961   9.276   3.452   8.266 -0.2346  0.0072  0.0376
  118POPC   C1A 1962   9.676   3.142   8.089 -0.4783 -0.0420  0.2445
  118POPC   D2A 1963   9.747   2.779   7.785  0.1615  0.1300  0.2903
  118POPC   C3A 1964   9.471   2.519   7.642  0.1748  0.3974  0.0829
  118POPC   C4A 1965   9.202   2.495   7.270 -0.4827  0.1139 -0.0472
  118POPC   C1B 1966   9.398   3.558   7.836  0.0277  0.2601 -0.3152
  118POPC   C2B 1967   9.221   3.490   7.408 -0.4451 -0.1622 -0.0639
  118POPC   C3B 1968   8.930   3.480   7.012  0.0149  0.1578 -0.0714
  118POPC   C4B 1969   8.971   3.195   6.629 -0.2775 -0.1734  0.1236
  119POPC   NC3 1970   8.706   2.979   8.615  0.1501 -0.1802  0.0900
  119POPC   PO4 1971   9.134   3.099   8.657 -0.0215 -0.0872 -0.0234
  119POPC   GL1 1972   9.201   2.894   8.241 -0.0508  0.1804 -0.0870
  119POPC   GL2 1973   9.327   2.671   8.059  0.0607  0.1533  0.0752
  119POPC   C1A 1974   9.254   3.125   7.823  0.3487 -0.1486 -0.2727
  119POPC   D2A 1975   9.330   2.969   7.401  0.1069 -0.1059 -0.1211
  119POPC   C3A 1976   8.991   2.980   7.124  0.1899  0.3086 -0.3476
  119POPC   C4A 1977   8.639   2.857   7.373  0.1328  0.0548  0.1684
  119POPC   C1B 1978   8.973   2.647   7.758 -0.0086 -0.1858 -0.1659
  119POPC   C2B 1979   8.809   2.321   7.475  0.0546 -0.0111  0.1732
  119POPC   C3B 1980   8.831   2.177   7.090  0.1262  0.0683  0.0043
  119POPC   C4B 1981   8.797   1.784   6.946  0.2632 -0.1257 -0.0846
  120POPC   NC3 1982   7.434   8.452   9.865 -0.1866 -0.0840 -0.1949
  120POPC   PO4 1983   7.170   8.010   9.883  0.2344 -0.2374 -0.0222
  120POPC   GL1 1984   7.149   7.916   9.404  0.1828  0.0375  0.0584
  120POPC   GL2 1985   7.478   7.706   9.283 -0.0587  0.0082 -0.1790
  120POPC   C1A 1986   7.231   7.934   8.952 -0.2839  0.4708 -0.0364
  120POPC   D2A 1987   7.638   8.104   8.752  0.0579 -0.3343  0.2981
  120POPC   C3A 1988   7.695   8.371   8.378  0.1267 -0.3041 -0.2120
  120POPC   C4A 1989   7.783   8.295   7.987 -0.0982 -0.2240  0.4618
  120POPC   C1B 1990   7.889   7.801   9.088 -0.0959  0.2418 -0.3614
  120POPC   C2B 1991   8.246   7.942   8.864 -0.0067 -0.1317 -0.5755
  120POPC   C3B 1992   8.591   8.248   9.023 -0.1037 -0.0695  0.1067
  120POPC   C4B 1993   8.549   8.714   8.935  0.0197 -0.5338 -0.1318
  121POPC   NC3 1994   5.451   5.067   9.085 -0.0632  0.3104  0.2926
  121POPC   PO4 1995   5.887   4.859   9.066  0.1590  0.0287  0.1257
  121POPC   GL1 1996   5.977   4.934   8.683 -0.2275 -0.1623  0.1164
  121POPC   GL2 1997   5.625   5.004   8.624  0.2508 -0.0196  0.0846
  121POPC   C1A 1998   6.266   4.964   8.309  0.0009  0.0555 -0.0899
  121POPC   D2A 1999   6.186   4.932   7.876  0.2013  0.3678 -0.0757
  121POPC   C3A 2000   6.596   5.150   7.610 -0.0626 -0.1394  0.0584
  121POPC   C4A 2001   6.512   5.395   7.194  0.1093 -0.0215 -0.0630
  121POPC   C1B 2002   5.740   5.240   8.199 -0.0884 -0.0613  0.1460
  121POPC   C2B 2003   5.868   5.394   7.837  0.6431 -0.0397  0.0741
  121POPC   C3B 2004   6.063   5.316   7.463 -0.1263  0.0209 -0.2934
  121POPC   C4B 2005   6.005   5.251   7.072 -0.0109  0.2727 -0.1099
  122POPC   NC3 2006   5.915   1.397   9.473 -0.1107  0.0078 -0.0195
  122POPC   PO4 2007   5.655   1.581   9.099  0.0251 -0.0906 -0.0322
  122POPC   GL1 2008   5.705   1.439   8.702  0.0061 -0.3240  0.1497
  122POPC   GL2 2009   5.784   1.046   8.710  0.0139 -0.0801 -0.1674
  122POPC   C1A 2010   5.839   1.382   8.320 -0.0918 -0.2775  0.0257
  122POPC   D2A 2011   5.749   1.251   7.898  0.0437  0.0605  0.3218
  122POPC   C3A 2012   6.022   1.494   7.687 -0.0392 -0.1286  0.1860
  122POPC   C4A 2013   6.077   1.640   7.318  0.3960 -0.0303  0.1742
  122POPC   C1B 2014   5.743   0.839   8.295  0.2099  0.0832 -0.1954
  122POPC   C2B 2015   5.778   0.751   7.853 -0.1027 -0.0910  0.1097
  122POPC   C3B 2016   5.786   0.875   7.406  0.0256 -0.0081 -0.0493
  122POPC   C4B 2017   5.804   0.961   6.995 -0.0619  0.0476 -0.0900
  123POPC   NC3 2018   0.251   1.502   9.421  0.1603 -0.0517  0.0676
  123POPC   PO4 2019   0.655   1.474   9.199  0.2256  0.0317 -0.0619
  123POPC   GL1 2020   0.373   1.254   8.794  0.0049 -0.1102 -0.4577
  123POPC   GL2 2021   0.220   1.084   8.797 -0.0692  0.2024 -0.0996
  123POPC   C1A 2022   0.425   1.138   8.339  0.0246  0.0365  0.0255
  123POPC   D2A 2023   0.463   0.892   7.931  0.0390  0.6103  0.0057
  123POPC   C3A 2024   0.730   0.443   7.867  0.0321  0.0221  0.2393
  123POPC   C4A 2025   0.708   0.233   7.483 -0.0799  0.2307 -0.0411
  123POPC   C1B 2026   0.060   0.813   8.464  0.0503  0.1101 -0.0725
  123POPC   C2B 2027   0.008   0.666   8.019 -0.1806 -0.4838  0.2289
  123POPC   C3B 2028   0.198   0.553   7.652  0.1547  0.1894 -0.0049
  123POPC   C4B 2029   0.561   0.755   7.504 -0.1173  0.2001  0.0203
  124POPC   NC3 2030   5.663   0.250   9.117 -0.0082  0.2018 -0.0362
  124POPC   PO4 2031   5.951   0.454   9.316 -0.0613 -0.2102  0.1998
  124POPC   GL1 2032   6.047   0.274   8.828  0.3623 -0.0835 -0.0021
  124POPC   GL2 2033   5.842   0.556   8.686  0.1814 -0.0555  0.0581
  124POPC   C1A 2034   6.033   0.122   8.426  0.0184 -0.0872 -0.1391
  124POPC   D2A 2035   5.963   0.260   8.077 -0.3012  0.1185 -0.2255
  124POPC   C3A 2036   5.770   0.310   7.642 -0.1260  0.2237  0.0161
  124POPC   C4A 2037   5.710   0.000   7.328  0.2936  0.0144 -0.1482
  124POPC   C1B 2038   6.279   0.516   8.421  0.0478 -0.0805  0.2207
  124POPC   C2B 2039   6.381   0.561   7.988  0.4601  0.1589  0.1213
  124POPC   C3B 2040   6.181   0.562   7.621 -0.0529  0.1381  0.3362
  124POPC   C4B 2041   6.114   0.598   7.284 -0.2047 -0.0109  0.0037
  125POPC   NC3 2042   4.230   9.187   9.007 -0.2018 -0.0295  0.1463
  125POPC   PO4 2043   4.317   8.777   8.957 -0.0457 -0.1908  0.0739
  125POPC   GL1 2044   4.308   8.747   8.531  0.1226 -0.0130  0.1050
  125POPC   GL2 2045   4.613   8.670   8.565  0.1723  0.0252  0.2672
  125POPC   C1A 2046   4.149   8.623   8.099 -0.2178  0.0808 -0.0358
  125POPC   D2A 2047   3.891   8.898   7.758 -0.2475  0.0221  0.1345
  125POPC   C3A 2048   4.033   9.242   7.759 -0.0068  0.0488  0.1677
  125POPC   C4A 2049   3.988   9.508   7.391  0.5368  0.1264 -0.0066
  125POPC   C1B 2050   4.678   8.579   8.149 -0.1540  0.2096 -0.1576
  125POPC   C2B 2051   4.795   8.400   7.707  0.2313 -0.1250 -0.0450
  125POPC   C3B 2052   4.589   8.435   7.399 -0.1676  0.1217  0.3063
  125POPC   C4B 2053   4.431   8.477   6.970 -0.1231  0.0451  0.0762
  126POPC   NC3 2054   2.465   7.448   9.131 -0.0927 -0.0360  0.0793
  126POPC   PO4 2055   2.392   7.002   9.090  0.1674 -0.0185 -0.1827
  126POPC   GL1 2056   2.226   7.055   8.678  0.1893  0.0479  0.2017
  126POPC   GL2 2057   1.992   7.244   8.662  0.0477  0.0731  0.0343
  126POPC   C1A 2058   2.287   7.356   8.240  0.0154  0.1398 -0.1568
  126POPC   D2A 2059   1.959   7.616   7.958 -0.1400 -0.1358 -0.0392
  126POPC   C3A 2060   2.048   7.773   7.577  0.2855 -0.2578  0.0544
  126POPC   C4A 2061   2.190   7.920   7.175  0.1093 -0.1650  0.1021
  126POPC   C1B 2062   1.709   7.217   8.264 -0.0215  0.0795  0.2163
  126POPC   C2B 2063   1.637   7.182   7.810 -0.2337  0.1540 -0.2965
  126POPC   C3B 2064   1.320   7.013   7.477  0.0548 -0.1401 -0.1077
  126POPC   C4B 2065   0.882   7.031   7.331 -0.2467  0.0696 -0.1981
  127POPC   NC3 2066   1.526   9.755   9.973  0.1309 -0.0357  0.2957
  127POPC   PO4 2067   1.306   9.764   9.619 -0.1746 -0.0186 -0.1334
  127POPC   GL1 2068   1.152   9.856   9.174 -0.1105  0.0208 -0.1272
  127POPC   GL2 2069   1.420   9.799   8.969  0.0969  0.1437  0.0723
  127POPC   C1A 2070   0.839  10.022   9.049 -0.3850 -0.1280 -0.0149
  127POPC   D2A 2071   0.471  10.184   8.984 -0.0582 -0.1486  0.0036
  127POPC   C3A 2072   0.330  10.029   8.525  0.2363 -0.0266 -0.2587
  127POPC   C4A 2073  -0.037   9.980   8.231  0.0669  0.0542  0.1294
  127POPC   C1B 2074   1.266  10.104   8.648  0.3828 -0.2765 -0.1178
  127POPC   C2B 2075   1.250  10.233   8.147  0.1131  0.0660 -0.0879
  127POPC   C3B 2076   1.173  10.481   7.799  0.1980  0.0116  0.2802
  127POPC   C4B 2077   1.077  10.782   7.521  0.1878  0.1297 -0.0129
  128POPC   NC3 2078   6.305   5.313   9.036 -0.0448 -0.3419  0.2489
  128POPC   PO4 2079   5.828   5.414   8.872 -0.0501 -0.0006  0.1076
  128POPC   GL1 2080   6.058   5.478   8.492 -0.3318  0.2782 -0.1824
  128POPC   GL2 2081   6.431   5.389   8.509  0.1376  0.0841  0.1780
  128POPC   C1A 2082   6.230   5.644   8.086  0.0486  0.0552 -0.3996
  128POPC   D2A 2083   6.352   5.521   7.790  0.2647  0.0521 -0.4187
  128POPC   C3A 2084   6.271   5.807   7.516 -0.0515 -0.0178 -0.2651
  128POPC   C4A 2085   6.120   5.767   7.185  0.2986 -0.0590 -0.1435
  128POPC   C1B 2086   6.588   5.741   8.416 -0.0037  0.1421 -0.0178
  128POPC   C2B 2087   6.944   5.925   8.534 -0.4473 -0.4160  0.0816
  128POPC   C3B 2088   7.437   6.074   8.577 -0.1505  0.1590  0.1158
  128POPC   C4B 2089   7.836   6.261   8.376 -0.2133  0.0851  0.4170
  129POPC   NC3 2090   9.063   9.269  10.369 -0.1341 -0.1261  0.0035
  129POPC   PO4 2091   8.876   9.456   9.979  0.0007  0.1123 -0.0875
  129POPC   GL1 2092   8.881   9.386   9.512  0.0352 -0.0139 -0.2437
  129POPC   GL2 2093   8.793   9.720   9.363 -0.0417 -0.0017  0.1910
  129POPC   C1A 2094   8.814   9.150   9.067  0.1415  0.0277 -0.2903
  129POPC   D2A 2095   8.733   9.145   8.592 -0.0625  0.1634  0.1447
  129POPC   C3A 2096   8.969   9.508   8.363  0.3061  0.0334  0.2989
  129POPC   C4A 2097   9.275   9.890   8.356 -0.2101 -0.0691 -0.4941
  129POPC   C1B 2098   8.514   9.710   9.098  0.0901  0.0446 -0.0199
  129POPC   C2B 2099   8.141   9.758   9.016 -0.3044  0.0449 -0.3411
  129POPC   C3B 2100   7.794   9.964   8.782 -0.1966 -0.0869  0.2233
  129POPC   C4B 2101   7.507   9.983   8.505 -0.0921 -0.2727  0.4339
  130POPC   NC3 2102   3.593   4.809   9.346 -0.1486  0.0177 -0.0311
  130POPC   PO4 2103   3.168   4.698   9.413 -0.0931  0.2745 -0.2298
  130POPC   GL1 2104   3.169   4.811   9.061 -0.0146 -0.0263  0.2160
  130POPC   GL2 2105   3.000   5.077   8.937  0.0958  0.6175 -0.2713
  130POPC   C1A 2106   3.107   4.700   8.665 -0.4411  0.2496  0.1912
  130POPC   D2A 2107   3.478   4.597   8.294 -0.0613  0.0232  0.3047
  130POPC   C3A 2108   3.513   4.765   7.903 -0.1977  0.0079 -0.0360
  130POPC   C4A 2109   3.562   5.065   7.602  0.1116  0.0754 -0.1336
  130POPC   C1B 2110   2.917   5.248   8.476  0.1574 -0.1355  0.2765
  130POPC   C2B 2111   3.063   5.463   8.085 -0.1995  0.1018  0.0802
  130POPC   C3B 2112   3.302   5.638   7.727  0.0066  0.0607  0.0563
  130POPC   C4B 2113   3.597   5.775   7.235  0.0478  0.0871 -0.0942
  131POPC   NC3 2114   8.064   6.070   9.713 -0.2158 -0.0651  0.0556
  131POPC   PO4 2115   8.063   5.862   9.298 -0.0487 -0.1067 -0.0081
  131POPC   GL1 2116   8.196   6.060   8.979 -0.0280  0.4147  0.0397
  131POPC   GL2 2117   8.093   5.948   8.676 -0.2420 -0.0928  0.2858
  131POPC   C1A 2118   8.256   6.410   8.551  0.0761  0.0863 -0.0632
  131POPC   D2A 2119   8.128   6.610   8.201 -0.2280 -0.2044  0.0358
  131POPC   C3A 2120   7.792   6.512   7.945  0.0632  0.2555  0.1071
  131POPC   C4A 2121   7.393   6.597   7.804  0.0668  0.2183  0.1013
  131POPC   C1B 2122   8.219   5.902   8.293 -0.0179 -0.1165 -0.2231
  131POPC   C2B 2123   8.370   6.225   7.995  0.1112  0.2181  0.0222
  131POPC   C3B 2124   8.263   6.544   7.722  0.2865 -0.1845 -0.0741
  131POPC   C4B 2125   8.089   6.956   7.859 -0.0324  0.2119 -0.0241
  132POPC   NC3 2126   5.700   6.267   9.061  0.1196  0.1561  0.1382
  132POPC   PO4 2127   5.485   6.615   9.006 -0.1903 -0.3062 -0.1625
  132POPC   GL1 2128   5.562   6.473   8.586 -0.0289  0.0994  0.0834
  132POPC   GL2 2129   5.976   6.412   8.684 -0.0075 -0.3272  0.0278
  132POPC   C1A 2130   5.752   6.387   8.117 -0.2698  0.0572  0.0679
  132POPC   D2A 2131   5.702   6.552   7.744 -0.0792 -0.3045 -0.1323
  132POPC   C3A 2132   5.952   6.674   7.482  0.2298 -0.0282  0.2014
  132POPC   C4A 2133   6.064   6.878   7.131  0.0058 -0.2753 -0.0606
  132POPC   C1B 2134   6.197   6.322   8.313  0.0377  0.0379 -0.0659
  132POPC   C2B 2135   6.525   6.220   8.073  0.0278 -0.5126 -0.0419
  132POPC   C3B 2136   6.779   6.074   7.744  0.0729 -0.1358  0.1329
  132POPC   C4B 2137   7.194   6.149   7.571 -0.0535 -0.0119  0.2130
  133POPC   NC3 2138   4.736   4.569   9.324 -0.2313 -0.2062  0.1890
  133POPC   PO4 2139   4.412   4.706   9.468 -0.0295 -0.2177 -0.2685
  133POPC   GL1 2140   4.457   4.952   9.043 -0.0147 -0.2675 -0.0684
  133POPC   GL2 2141   4.543   4.704   8.897  0.1220 -0.1360  0.1315
  133POPC   C1A 2142   4.372   4.986   8.527 -0.0534 -0.1599 -0.2309
  133POPC   D2A 2143   4.502   4.798   8.176  0.2001 -0.2076 -0.2942
  133POPC   C3A 2144   4.481   4.676   7.744 -0.2645  0.0501 -0.1825
  133POPC   C4A 2145   4.553   4.350   7.423 -0.1157  0.0901 -0.4029
  133POPC   C1B 2146   4.359   4.541   8.645 -0.2137  0.5376  0.1272
  133POPC   C2B 2147   4.332   4.332   8.210  0.1010  0.2722 -0.1130
  133POPC   C3B 2148   4.175   4.223   7.810  0.1169  0.0467  0.1115
  133POPC   C4B 2149   4.044   4.360   7.504 -0.1155 -0.0124  0.1879
  134POPC   NC3 2150   7.194   5.309   9.280 -0.1453  0.3223  0.4600
  134POPC   PO4 2151   7.388   5.320   8.921  0.0556 -0.2665 -0.1480
  134POPC   GL1 2152   7.705   5.369   8.568  0.0108  0.3744 -0.0895
  134POPC   GL2 2153   7.995   5.228   8.558 -0.0820  0.2327  0.2266
  134POPC   C1A 2154   7.608   5.696   8.274  0.2216  0.3386  0.0644
  134POPC   D2A 2155   7.899   5.817   7.897 -0.1933 -0.3368 -0.0440
  134POPC   C3A 2156   8.244   5.895   7.642 -0.0958  0.0869  0.1301
  134POPC   C4A 2157   8.328   5.956   7.153  0.3273  0.0972 -0.4711
  134POPC   C1B 2158   7.841   5.250   8.111 -0.2923  0.3024 -0.0985
  134POPC   C2B 2159   7.967   5.395   7.666  0.0185  0.0132  0.0914
  134POPC   C3B 2160   7.858   5.737   7.383 -0.0885 -0.2152  0.0107
  134POPC   C4B 2161   7.809   6.012   7.053 -0.1385 -0.1727  0.2767
  135POPC   NC3 2162   9.479   4.260   8.837  0.0635  0.1636 -0.1779
  135POPC   PO4 2163   9.783   4.006   9.205  0.1524  0.3685  0.2323
  135POPC   GL1 2164   9.923   3.754   8.783 -0.0599  0.0720 -0.0092
  135POPC   GL2 2165   9.998   3.523   8.589  0.1307  0.0933  0.2086
  135POPC   C1A 2166  10.229   3.959   8.400 -0.0553 -0.2270 -0.1078
  135POPC   D2A 2167  10.575   4.169   8.101  0.3122  0.0378 -0.1731
  135POPC   C3A 2168  10.371   4.430   7.782 -0.1130  0.0584 -0.2353
  135POPC   C4A 2169  10.312   4.558   7.428  0.2249  0.0615 -0.0819
  135POPC   C1B 2170  10.246   3.422   8.229  0.1418  0.0618 -0.0891
  135POPC   C2B 2171  10.523   3.431   7.889 -0.1758  0.1807 -0.3000
  135POPC   C3B 2172  10.706   3.651   7.619  0.0794  0.1364 -0.0534
  135POPC   C4B 2173  11.035   3.829   7.493 -0.0497 -0.1953  0.0162
  136POPC   NC3 2174   3.051   3.149   9.322  0.1613  0.2374  0.0975
  136POPC   PO4 2175   3.351   3.319   9.062  0.0950  0.1508  0.0333
  136POPC   GL1 2176   3.492   3.541   8.636  0.0370  0.0903 -0.3163
  136POPC   GL2 2177   3.668   3.877   8.697  0.1412 -0.2069 -0.1137
  136POPC   C1A 2178   3.451   3.258   8.189  0.0089 -0.0067  0.1657
  136POPC   D2A 2179   3.340   2.890   7.949  0.1312  0.4023  0.1775
  136POPC   C3A 2180   3.431   2.478   8.129 -0.0371 -0.0269  0.0861
  136POPC   C4A 2181   3.248   2.216   8.397 -0.0476 -0.0801 -0.1063
  136POPC   C1B 2182   3.653   3.731   8.262 -0.3058 -0.0668 -0.0360
  136POPC   C2B 2183   3.455   3.806   7.898  0.1374  0.0701 -0.2360
  136POPC   C3B 2184   3.249   3.993   7.671  0.0398 -0.2449 -0.1978
  136POPC   C4B 2185   3.334   4.203   7.312  0.0933  0.2830 -0.1495
  137POPC   NC3 2186   6.217   9.818   9.619  0.2550 -0.0154  0.1312
  137POPC   PO4 2187   6.248   9.552   9.359  0.2311 -0.0368  0.3671
  137POPC   GL1 2188   6.419   9.542   8.975  0.1428 -0.0615 -0.1290
  137POPC   GL2 2189   6.722   9.290   9.038  0.0548  0.2303  0.2330
  137POPC   C1A 2190   6.324   9.519   8.510 -0.0281 -0.2162  0.1460
  137POPC   D2A 2191   6.171   9.378   8.143 -0.1342 -0.0729 -0.2442
  137POPC   C3A 2192   6.378   9.599   7.855  0.1065 -0.0281  0.2832
  137POPC   C4A 2193   6.421   9.697   7.419 -0.2933 -0.0015 -0.0244
  137POPC   C1B 2194   6.765   9.356   8.613 -0.2207  0.3318  0.1076
  137POPC   C2B 2195   6.692   9.280   8.126 -0.0576 -0.0677  0.2527
  137POPC   C3B 2196   6.723   8.902   7.972 -0.0541 -0.0336  0.2610
  137POPC   C4B 2197   6.922   8.536   7.914  0.0093 -0.2207  0.1461
  138POPC   NC3 2198   6.341   3.078   9.022 -0.0527 -0.2398 -0.3452
  138POPC   PO4 2199   6.095   2.796   8.817  0.2259  0.2347  0.1450
  138POPC   GL1 2200   5.956   2.852   8.320  0.0795 -0.0721 -0.1546
  138POPC   GL2 2201   5.649   3.097   8.165  0.2334  0.0224 -0.2196
  138POPC   C1A 2202   6.111   2.868   7.875  0.1321 -0.1312  0.1294
  138POPC   D2A 2203   6.145   3.162   7.545 -0.0544  0.0204  0.2871
  138POPC   C3A 2204   6.292   2.985   7.173  0.3152 -0.0158  0.2930
  138POPC   C4A 2205   6.523   3.051   6.771 -0.0973 -0.0784 -0.2363
  138POPC   C1B 2206   5.539   2.936   7.787  0.0290 -0.0790  0.0158
  138POPC   C2B 2207   5.822   2.791   7.405 -0.2099  0.0741  0.0614
  138POPC   C3B 2208   5.935   2.683   7.057 -0.0527  0.0740  0.6369
  138POPC   C4B 2209   6.359   2.589   6.769  0.1845 -0.3804 -0.0704
  139POPC   NC3 2210   5.236   5.659   9.107  0.0285  0.2622 -0.0126
  139POPC   PO4 2211   5.570   5.777   9.147  0.1431  0.1131 -0.2315
  139POPC   GL1 2212   5.695   5.867   8.718 -0.0190  0.1169 -0.2343
  139POPC   GL2 2213   5.399   5.978   8.688  0.1355 -0.3026 -0.1790
  139POPC   C1A 2214   5.658   5.774   8.199 -0.0013  0.1676 -0.0145
  139POPC   D2A 2215   5.735   5.932   7.860 -0.1969 -0.1097  0.3841
  139POPC   C3A 2216   6.069   6.219   7.773 -0.4799  0.0489 -0.1493
  139POPC   C4A 2217   6.403   6.335   7.477 -0.0974 -0.0798 -0.1295
  139POPC   C1B 2218   5.352   6.126   8.248  0.0730  0.1792  0.3417
  139POPC   C2B 2219   5.158   6.507   8.033  0.0680 -0.1553 -0.4542
  139POPC   C3B 2220   5.078   6.754   7.890 -0.1552  0.0271  0.0523
  139POPC   C4B 2221   4.728   7.027   7.773 -0.0885 -0.0243  0.0824
  140POPC   NC3 2222   1.352   6.906   9.280 -0.1862  0.0208 -0.0661
  140POPC   PO4 2223   1.846   7.048   9.118 -0.1252 -0.4603  0.0315
  140POPC   GL1 2224   1.636   6.924   8.664 -0.0417 -0.3306  0.1737
  140POPC   GL2 2225   1.752   6.586   8.538  0.0059  0.1149 -0.0179
  140POPC   C1A 2226   1.358   6.771   8.325  0.1584 -0.0386  0.3123
  140POPC   D2A 2227   1.346   6.742   7.919 -0.0207  0.0556  0.1426
  140POPC   C3A 2228   1.700   6.636   7.702  0.1443 -0.0378 -0.1789
  140POPC   C4A 2229   1.824   6.566   7.408 -0.1618 -0.1325  0.1704
  140POPC   C1B 2230   1.849   6.462   8.151 -0.4453  0.2752  0.1145
  140POPC   C2B 2231   2.074   6.300   7.811 -0.0410 -0.1566 -0.0439
  140POPC   C3B 2232   2.023   6.071   7.532 -0.0384  0.1300 -0.1067
  140POPC   C4B 2233   2.108   6.213   7.226  0.2805  0.1554 -0.1579
  141POPC   NC3 2234   2.089   0.965   9.043  0.1489 -0.0403 -0.4104
  141POPC   PO4 2235   2.554   1.232   9.074 -0.0637  0.0578 -0.2926
  141POPC   GL1 2236   2.403   1.338   8.623  0.0692  0.2165 -0.0088
  141POPC   GL2 2237   2.592   1.221   8.486 -0.2046  0.4733  0.1094
  141POPC   C1A 2238   2.493   1.636   8.282  0.0927 -0.1109  0.1621
  141POPC   D2A 2239   2.588   1.851   7.894 -0.1528 -0.0717  0.2816
  141POPC   C3A 2240   2.542   2.256   7.986  0.1187 -0.1411 -0.0270
  141POPC   C4A 2241   2.895   2.513   8.204  0.2424 -0.0159  0.0588
  141POPC   C1B 2242   2.558   0.972   8.072 -0.1432  0.2106 -0.2410
  141POPC   C2B 2243   2.670   0.908   7.723 -0.1128 -0.1448  0.0778
  141POPC   C3B 2244   2.584   0.570   7.506  0.0915  0.0385 -0.0548
  141POPC   C4B 2245   2.240   0.495   7.232  0.1180  0.3827 -0.1405
  142POPC   NC3 2246   2.816   6.891   9.381  0.2300  0.2515  0.4456
  142POPC   PO4 2247   2.967   7.289   9.244 -0.0120 -0.1494  0.0804
  142POPC   GL1 2248   2.926   7.497   8.799 -0.0350 -0.0715 -0.0613
  142POPC   GL2 2249   2.558   7.536   8.662 -0.1794  0.1704  0.0206
  142POPC   C1A 2250   3.159   7.378   8.509  0.2183  0.3396 -0.2670
  142POPC   D2A 2251   3.084   7.289   8.076  0.5203  0.1134  0.1176
  142POPC   C3A 2252   2.864   7.404   7.736 -0.1076  0.1094  0.1918
  142POPC   C4A 2253   3.003   7.482   7.326  0.1358  0.1142 -0.4171
  142POPC   C1B 2254   2.663   7.121   8.450 -0.0514  0.1350  0.1748
  142POPC   C2B 2255   2.954   6.809   8.310 -0.1275 -0.3707 -0.3293
  142POPC   C3B 2256   3.297   6.830   8.045  0.2853 -0.3902 -0.4038
  142POPC   C4B 2257   3.515   6.980   7.631 -0.3951 -0.0464  0.4334
  143POPC   NC3 2258   4.212   0.184   9.255 -0.1401 -0.0372 -0.1828
  143POPC   PO4 2259   4.638   0.282   9.340  0.0049  0.1013 -0.1142
  143POPC   GL1 2260   4.653   0.246   8.882 -0.2901  0.0774 -0.0494
  143POPC   GL2 2261   4.301   0.057   8.778 -0.3136  0.3673  0.0693
  143POPC   C1A 2262   4.955   0.289   8.599 -0.1093 -0.2420 -0.2469
  143POPC   D2A 2263   5.417   0.284   8.434  0.4237  0.0664  0.0972
  143POPC   C3A 2264   5.455   0.431   8.045  0.0986  0.2163  0.3777
  143POPC   C4A 2265   5.362   0.590   7.625  0.3483 -0.1717 -0.1406
  143POPC   C1B 2266   4.501   0.168   8.385 -0.4138 -0.1827  0.0348
  143POPC   C2B 2267   4.469   0.202   7.931 -0.0586  0.2438 -0.2800
  143POPC   C3B 2268   4.831   0.029   7.645 -0.3287  0.0657 -0.1875
  143POPC   C4B 2269   5.327   0.059   7.705 -0.2273  0.0320  0.3346
  144POPC   NC3 2270   1.291   5.087   8.986  0.2405  0.0084 -0.6022
  144POPC   PO4 2271   1.714   5.361   8.997 -0.1127  0.0183 -0.1815
  144POPC   GL1 2272   1.742   5.541   8.660  0.0102  0.0545  0.0234
  144POPC   GL2 2273   1.884   5.712   8.625 -0.0951  0.1789  0.0236
  144POPC   C1A 2274   1.580   5.573   8.245  0.2598 -0.0207  0.1979
  144POPC   D2A 2275   1.539   5.749   7.768 -0.0921 -0.1430  0.0542
  144POPC   C3A 2276   1.233   6.054   7.541 -0.2521  0.1786  0.1288
  144POPC   C4A 2277   1.129   6.549   7.419  0.0402 -0.1356 -0.0175
  144POPC   C1B 2278   2.154   6.100   8.435  0.2037  0.0166  0.0081
  144POPC   C2B 2279   2.509   6.226   8.132  0.1597 -0.0981  0.2002
  144POPC   C3B 2280   2.521   6.568   7.973  0.5328 -0.0042  0.1883
  144POPC   C4B 2281   2.634   6.972   7.925 -0.4181 -0.2353 -0.0608
  145POPC   NC3 2282   8.231   8.220  10.412  0.0676  0.1534  0.2458
  145POPC   PO4 2283   7.884   8.407  10.111 -0.2553  0.2574  0.2923
  145POPC   GL1 2284   8.071   8.303   9.696  0.0813 -0.3676  0.3284
  145POPC   GL2 2285   7.752   8.110   9.567 -0.0155 -0.1235 -0.0333
  145POPC   C1A 2286   8.261   8.123   9.374  0.1821 -0.1784  0.0075
  145POPC   D2A 2287   8.471   7.844   9.350  0.1346  0.0382 -0.2232
  145POPC   C3A 2288   8.471   7.437   9.111  0.2337  0.0785 -0.3449
  145POPC   C4A 2289   8.144   7.366   9.035  0.0846 -0.1611  0.3290
  145POPC   C1B 2290   7.548   8.224   9.240 -0.0266 -0.0695 -0.4714
  145POPC   C2B 2291   7.542   8.769   9.116  0.4797  0.0327 -0.0424
  145POPC   C3B 2292   7.743   9.122   9.029 -0.1177  0.1292 -0.2241
  145POPC   C4B 2293   7.780   9.449   8.815 -0.2186 -0.1878  0.2121
  146POPC   NC3 2294   2.522   4.831   9.774  0.2698  0.1290  0.0020
  146POPC   PO4 2295   2.284   4.857   9.402  0.1233 -0.1759 -0.0039
  146POPC   GL1 2296   2.308   5.003   8.887  0.1077 -0.1885  0.0212
  146POPC   GL2 2297   2.144   5.247   8.798 -0.1484 -0.1167  0.3147
  146POPC   C1A 2298   2.435   4.969   8.459 -0.1019  0.0140  0.1923
  146POPC   D2A 2299   2.818   4.819   8.242 -0.0209 -0.0285  0.1935
  146POPC   C3A 2300   3.043   4.952   7.911 -0.1512  0.1249  0.2525
  146POPC   C4A 2301   3.051   5.205   7.544  0.1167  0.0459 -0.1490
  146POPC   C1B 2302   2.046   5.259   8.333  0.2060  0.0061 -0.1736
  146POPC   C2B 2303   1.974   5.239   7.887  0.1900  0.1605 -0.1729
  146POPC   C3B 2304   2.049   5.585   7.599  0.0344 -0.3485 -0.4598
  146POPC   C4B 2305   1.908   5.708   7.165 -0.0501  0.0113  0.2330
  147POPC   NC3 2306   0.483   7.313   9.857  0.1140  0.0717  0.0798
  147POPC   PO4 2307   0.793   7.094   9.744 -0.1220 -0.0555  0.1723
  147POPC   GL1 2308   0.814   7.291   9.296  0.1017  0.1496 -0.1175
  147POPC   GL2 2309   0.983   7.271   9.025 -0.1924 -0.0413  0.1171
  147POPC   C1A 2310   0.546   7.502   8.969  0.0898 -0.0601  0.2056
  147POPC   D2A 2311   0.577   7.655   8.507 -0.1098  0.0896 -0.0365
  147POPC   C3A 2312   0.414   8.133   8.355 -0.1664  0.0271  0.1279
  147POPC   C4A 2313   0.251   8.392   7.945 -0.1093 -0.0528  0.0831
  147POPC   C1B 2314   1.029   7.303   8.594  0.1016  0.1585  0.2921
  147POPC   C2B 2315   1.194   7.201   8.178 -0.3291 -0.1368  0.3212
  147POPC   C3B 2316   1.111   7.385   7.767 -0.3158  0.0269 -0.2894
  147POPC   C4B 2317   1.299   7.547   7.303  0.1880 -0.0385 -0.0316
  148POPC   NC3 2318   7.445   6.918   9.700 -0.0859  0.1655 -0.2972
  148POPC   PO4 2319   7.737   6.594   9.744  0.2539 -0.1331  0.1425
  148POPC   GL1 2320   7.871   6.443   9.368 -0.2976 -0.2040 -0.0668
  148POPC   GL2 2321   8.175   6.521   9.154 -0.2463  0.4702 -0.2295
  148POPC   C1A 2322   7.788   6.302   8.937 -0.3407 -0.3762  0.0287
  148POPC   D2A 2323   7.611   6.610   8.643 -0.0701 -0.0456 -0.1490
  148POPC   C3A 2324   7.335   6.468   8.261  0.1253 -0.0299  0.1694
  148POPC   C4A 2325   7.009   6.252   8.136  0.0110 -0.1657 -0.3739
  148POPC   C1B 2326   8.049   6.762   8.862 -0.0350  0.0040 -0.0374
  148POPC   C2B 2327   8.314   6.961   8.565  0.1691  0.1199 -0.1564
  148POPC   C3B 2328   8.364   7.257   8.309  0.1207  0.0901  0.0663
  148POPC   C4B 2329   8.122   7.408   8.165 -0.1200  0.2202  0.2100
  149POPC   NC3 2330  10.079   4.833   9.358  0.1298  0.5870  0.0347
  149POPC   PO4 2331   9.957   4.651   8.937  0.3261  0.1305  0.0107
  149POPC   GL1 2332   9.770   4.599   8.565 -0.2301  0.2462  0.3225
  149POPC   GL2 2333   9.782   4.267   8.418 -0.0180  0.0378 -0.1846
  149POPC   C1A 2334   9.667   4.910   8.250  0.1534 -0.1390 -0.0499
  149POPC   D2A 2335   9.549   5.324   8.227 -0.0215 -0.0371 -0.0483
  149POPC   C3A 2336   9.649   5.648   8.005  0.1977  0.2350 -0.0794
  149POPC   C4A 2337   9.621   5.856   7.696 -0.0576  0.1309  0.0275
  149POPC   C1B 2338   9.976   4.221   8.050 -0.2892 -0.1908 -0.1329
  149POPC   C2B 2339  10.245   3.856   7.888  0.1453  0.1786 -0.2938
  149POPC   C3B 2340  10.252   3.690   7.495 -0.0159 -0.0075  0.0856
  149POPC   C4B 2341  10.546   3.479   7.190  0.1287 -0.2674  0.1817
  150POPC   NC3 2342   6.907   2.574   8.452 -0.2711 -0.1834 -0.1356
  150POPC   PO4 2343   7.323   2.320   8.631  0.2277  0.3474 -0.3465
  150POPC   GL1 2344   7.134   2.182   8.292  0.0424 -0.0235 -0.1952
  150POPC   GL2 2345   7.202   2.420   8.077  0.4144  0.1905 -0.2566
  150POPC   C1A 2346   7.274   1.893   7.989 -0.1606  0.5139 -0.2527
  150POPC   D2A 2347   7.641   1.648   7.966 -0.2356  0.2923 -0.1415
  150POPC   C3A 2348   7.854   1.613   7.506  0.0269  0.0900 -0.2178
  150POPC   C4A 2349   8.241   1.794   7.260  0.0131  0.1508  0.0852
  150POPC   C1B 2350   7.572   2.242   7.962 -0.3293  0.3711 -0.1150
  150POPC   C2B 2351   7.801   2.173   7.616 -0.1825  0.3023  0.3315
  150POPC   C3B 2352   7.684   2.218   7.227  0.1989  0.0349  0.3364
  150POPC   C4B 2353   7.483   2.164   6.869  0.2043  0.0592 -0.0666
  151POPC   NC3 2354   1.284   0.686   9.323 -0.1986 -0.0298 -0.1613
  151POPC   PO4 2355   1.704   0.602   9.217  0.1311  0.0523  0.0017
  151POPC   GL1 2356   1.787   0.510   8.793  0.1630  0.0935  0.0727
  151POPC   GL2 2357   2.120   0.393   8.941 -0.1882 -0.1584 -0.3322
  151POPC   C1A 2358   1.793   0.514   8.386  0.1847  0.1555 -0.3674
  151POPC   D2A 2359   1.916   0.174   8.220  0.2883  0.0397 -0.3399
  151POPC   C3A 2360   1.645   0.237   7.938 -0.3725 -0.0325 -0.1490
  151POPC   C4A 2361   1.561   0.488   7.589 -0.3345 -0.0960 -0.1788
  151POPC   C1B 2362   2.319   0.104   8.640 -0.0861 -0.2117  0.0264
  151POPC   C2B 2363   2.752  -0.245   8.505  0.1099  0.1168  0.0366
  151POPC   C3B 2364   2.891  -0.309   8.092 -0.0915  0.1918 -0.3627
  151POPC   C4B 2365   2.781  -0.309   7.623 -0.2746 -0.1145 -0.0206
  152POPC   NC3 2366   1.540   8.974  10.019 -0.1284 -0.0511 -0.0133
  152POPC   PO4 2367   1.391   8.778   9.657 -0.1135  0.1120  0.0966
  152POPC   GL1 2368   1.192   8.746   9.304 -0.0896 -0.1139 -0.1291
  152POPC   GL2 2369   1.372   8.798   9.055  0.1333  0.1930 -0.0088
  152POPC   C1A 2370   0.783   8.927   9.186 -0.2418  0.0838 -0.1644
  152POPC   D2A 2371   0.540   9.160   8.770  0.1200  0.2270  0.1288
  152POPC   C3A 2372   0.585   9.307   8.338 -0.1650 -0.0390 -0.4559
  152POPC   C4A 2373   0.486   9.717   8.121  0.1771  0.1360 -0.0468
  152POPC   C1B 2374   1.347   8.991   8.673 -0.2090 -0.2337 -0.0144
  152POPC   C2B 2375   1.463   9.503   8.523  0.2533  0.1303 -0.0267
  152POPC   C3B 2376   1.331   9.690   8.164  0.1053 -0.2840  0.0422
  152POPC   C4B 2377   0.953   9.563   7.969  0.0425  0.1654 -0.1518
  153POPC   NC3 2378   0.492   0.091   9.668  0.0022 -0.1733 -0.3389
  153POPC   PO4 2379   0.404   0.548   9.701 -0.3984  0.5298 -0.0623
  153POPC   GL1 2380   0.227   0.545   9.343 -0.2796  0.0433  0.1024
  153POPC   GL2 2381   0.511   0.596   9.064 -0.1370  0.1622  0.1365
  153POPC   C1A 2382  -0.086   0.720   9.041 -0.1536  0.2568  0.0047
  153POPC   D2A 2383  -0.288   1.105   8.857 -0.1090 -0.0631  0.2661
  153POPC   C3A 2384  -0.193   1.216   8.520 -0.2056 -0.0260  0.0096
  153POPC   C4A 2385   0.081   1.562   8.394 -0.0658 -0.0311  0.0458
  153POPC   C1B 2386   0.305   0.483   8.783  0.0293  0.0321  0.1549
  153POPC   C2B 2387   0.047   0.279   8.489 -0.1197  0.0794  0.1502
  153POPC   C3B 2388  -0.277   0.216   8.128  0.0556  0.0177 -0.2273
  153POPC   C4B 2389  -0.688   0.170   8.234  0.1370  0.1291  0.0678
  154POPC   NC3 2390   7.558   7.751   9.813 -0.1401  0.2145 -0.0281
  154POPC   PO4 2391   7.797   7.360   9.562  0.1128  0.1530 -0.0579
  154POPC   GL1 2392   7.723   7.063   9.164 -0.1058  0.2176 -0.2422
  154POPC   GL2 2393   7.527   6.791   9.134  0.0975 -0.0920 -0.2789
  154POPC   C1A 2394   7.708   7.090   8.686 -0.2323 -0.0751  0.0857
  154POPC   D2A 2395   7.831   6.957   8.299 -0.1874  0.3077 -0.2278
  154POPC   C3A 2396   7.620   6.928   8.039  0.3650  0.0902  0.0901
  154POPC   C4A 2397   7.301   7.094   7.812 -0.2868  0.1008  0.1131
  154POPC   C1B 2398   7.168   6.679   8.898 -0.1484 -0.0839  0.0755
  154POPC   C2B 2399   6.924   6.501   8.577 -0.2259 -0.0632 -0.1430
  154POPC   C3B 2400   6.562   6.225   8.700  0.1150  0.2028 -0.1925
  154POPC   C4B 2401   6.222   5.915   8.684 -0.0636 -0.2449 -0.2152
  155POPC   NC3 2402   0.397   5.502   9.002 -0.0540 -0.1747  0.0502
  155POPC   PO4 2403   0.729   5.792   8.754 -0.1510  0.1850 -0.2201
  155POPC   GL1 2404   0.332   5.643   8.479  0.0490 -0.2086  0.0045
  155POPC   GL2 2405  -0.013   5.666   8.672 -0.0017 -0.0339  0.0956
  155POPC   C1A 2406   0.442   5.720   8.081 -0.1179 -0.2222  0.0716
  155POPC   D2A 2407   0.654   5.989   7.815  0.2541 -0.4495 -0.0113
  155POPC   C3A 2408   0.755   5.879   7.388  0.1955 -0.2571  0.2055
  155POPC   C4A 2409   0.752   5.969   6.996 -0.2122  0.0248  0.1177
  155POPC   C1B 2410  -0.133   5.551   8.360  0.0932  0.2702 -0.2208
  155POPC   C2B 2411  -0.104   5.395   7.802 -0.0449  0.0231 -0.0165
  155POPC   C3B 2412  -0.231   5.482   7.355 -0.1388 -0.3023 -0.1484
  155POPC   C4B 2413  -0.447   5.748   7.171 -0.3075 -0.0013 -0.0637
  156POPC   NC3 2414   4.678   7.864   8.869 -0.3448 -0.1175  0.1053
  156POPC   PO4 2415   4.477   8.278   8.887 -0.1667  0.1257 -0.3247
  156POPC   GL1 2416   4.129   8.020   8.722  0.1032 -0.0170  0.0845
  156POPC   GL2 2417   3.798   8.200   8.600 -0.0670  0.1678 -0.1844
  156POPC   C1A 2418   3.925   7.681   8.587 -0.0580 -0.3491  0.0011
  156POPC   D2A 2419   4.038   7.513   8.014  0.2947  0.1927 -0.0783
  156POPC   C3A 2420   3.724   7.448   7.678  0.0029  0.0978  0.0515
  156POPC   C4A 2421   3.364   7.466   7.675  0.0566 -0.4732 -0.1804
  156POPC   C1B 2422   3.964   8.026   8.199 -0.1733 -0.0199 -0.1172
  156POPC   C2B 2423   3.856   7.927   7.857 -0.0279  0.2244 -0.1075
  156POPC   C3B 2424   3.773   8.064   7.413 -0.0188 -0.2074 -0.0917
  156POPC   C4B 2425   3.887   7.758   7.125  0.1883 -0.1445  0.2500
  157POPC   NC3 2426   1.733   5.418   5.600 -0.1408  0.3520  0.4074
  157POPC   PO4 2427   1.604   4.991   5.564 -0.0356  0.1811 -0.1167
  157POPC   GL1 2428   1.528   5.125   5.984  0.0095  0.0487  0.0810
  157POPC   GL2 2429   1.290   4.938   6.146  0.4945  0.0310  0.0513
  157POPC   C1A 2430   1.613   5.308   6.335 -0.0759  0.2140  0.1004
  157POPC   D2A 2431   1.680   5.220   6.741 -0.1221 -0.0424  0.0487
  157POPC   C3A 2432   1.340   5.024   7.017  0.2134 -0.1653 -0.4058
  157POPC   C4A 2433   1.112   5.060   7.401 -0.0341 -0.0411  0.0957
  157POPC   C1B 2434   1.149   5.024   6.579  0.0371  0.2309 -0.1468
  157POPC   C2B 2435   1.004   4.736   6.808  0.1448 -0.1087  0.1908
  157POPC   C3B 2436   1.059   4.562   7.199 -0.0548 -0.0463  0.1067
  157POPC   C4B 2437   1.331   4.279   7.381 -0.0519  0.3197  0.1418
  158POPC   NC3 2438   7.857   2.550   4.284 -0.1037 -0.1768 -0.1472
  158POPC   PO4 2439   7.595   2.570   4.549 -0.0246 -0.1370 -0.1364
  158POPC   GL1 2440   7.728   2.347   5.023 -0.2690 -0.3039  0.0599
  158POPC   GL2 2441   7.940   2.586   5.159  0.2647  0.0932  0.2702
  158POPC   C1A 2442   7.334   2.158   5.242  0.1803  0.0325  0.0421
  158POPC   D2A 2443   7.378   2.020   5.650  0.0710 -0.1175  0.1448
  158POPC   C3A 2444   7.104   1.929   6.019 -0.0461 -0.1067 -0.0955
  158POPC   C4A 2445   7.106   1.789   6.511 -0.1818  0.1256 -0.2002
  158POPC   C1B 2446   8.156   2.720   5.641  0.3537  0.1402 -0.0447
  158POPC   C2B 2447   8.250   2.518   6.088  0.0187 -0.0265 -0.1085
  158POPC   C3B 2448   8.238   2.426   6.510 -0.2311 -0.0786  0.0940
  158POPC   C4B 2449   8.007   2.383   6.810  0.0842  0.0763 -0.0749
  159POPC   NC3 2450   3.792   9.679   5.248  0.1371 -0.1191 -0.2164
  159POPC   PO4 2451   3.734   9.265   5.266  0.2114  0.0672  0.0949
  159POPC   GL1 2452   4.002   9.185   5.686  0.1350 -0.1614  0.3525
  159POPC   GL2 2453   3.734   9.222   6.032  0.0943 -0.2335 -0.0236
  159POPC   C1A 2454   4.160   9.101   6.131 -0.0680  0.1591  0.0962
  159POPC   D2A 2455   4.167   8.818   6.420 -0.1000  0.0540  0.0834
  159POPC   C3A 2456   4.499   8.472   6.493 -0.1157 -0.3331 -0.0931
  159POPC   C4A 2457   4.589   8.096   6.771  0.0013 -0.0943  0.0521
  159POPC   C1B 2458   3.808   9.357   6.380 -0.1707 -0.2952  0.0423
  159POPC   C2B 2459   3.581   9.424   6.796  0.2524 -0.5406 -0.0561
  159POPC   C3B 2460   3.506   9.256   7.107 -0.0190 -0.1338 -0.0879
  159POPC   C4B 2461   3.523   8.859   7.263 -0.0240  0.0342  0.1138
  160POPC   NC3 2462   7.417   1.536   4.354 -0.2225  0.1726 -0.2009
  160POPC   PO4 2463   7.757   1.160   4.406 -0.2076 -0.3076  0.1116
  160POPC   GL1 2464   7.522   1.168   4.707  0.3791 -0.1086  0.2006
  160POPC   GL2 2465   7.331   1.124   4.633  0.1123 -0.2493 -0.2082
  160POPC   C1A 2466   7.470   1.166   5.085 -0.1646 -0.1349 -0.1118
  160POPC   D2A 2467   7.455   1.446   5.378 -0.1697  0.1185  0.0351
  160POPC   C3A 2468   7.480   1.535   5.822 -0.1973  0.1890 -0.1076
  160POPC   C4A 2469   7.639   1.555   6.292 -0.0809  0.0437  0.0828
  160POPC   C1B 2470   7.080   1.366   5.014  0.2032  0.2903 -0.1494
  160POPC   C2B 2471   6.990   1.450   5.432  0.1769  0.0366 -0.1663
  160POPC   C3B 2472   7.039   1.410   5.796 -0.1191  0.1409  0.0007
  160POPC   C4B 2473   7.135   1.366   6.198 -0.0863  0.1457  0.0855
  161POPC   NC3 2474   3.806   8.070   5.362 -0.0717 -0.0900  0.1288
  161POPC   PO4 2475   3.400   8.149   5.210  0.4873 -0.1956  0.1618
  161POPC   GL1 2476   3.268   8.044   5.666  0.1365  0.2953  0.2845
  161POPC   GL2 2477   3.598   8.098   5.797  0.0556 -0.0910  0.0114
  161POPC   C1A 2478   3.041   8.217   5.982 -0.1226  0.0145 -0.0532
  161POPC   D2A 2479   2.831   8.454   6.361 -0.0973 -0.0729 -0.0906
  161POPC   C3A 2480   2.885   8.800   6.592 -0.1549 -0.1532 -0.3410
  161POPC   C4A 2481   2.788   8.691   7.035 -0.0627 -0.0803 -0.2240
  161POPC   C1B 2482   3.601   8.111   6.265 -0.0802 -0.1930  0.3500
  161POPC   C2B 2483   3.653   7.806   6.585 -0.0926 -0.0238 -0.0183
  161POPC   C3B 2484   3.424   7.938   7.032 -0.0240 -0.2193  0.1190
  161POPC   C4B 2485   3.261   7.906   7.466  0.3815  0.2154 -0.1204
  162POPC   NC3 2486   0.540   4.142   5.624 -0.0752 -0.0725 -0.0575
  162POPC   PO4 2487   0.041   3.979   5.457  0.1280  0.0046 -0.1002
  162POPC   GL1 2488  -0.208   3.940   5.854 -0.0739  0.1615  0.4814
  162POPC   GL2 2489  -0.547   4.020   5.909  0.1663  0.0847  0.0246
  162POPC   C1A 2490  -0.276   3.609   6.184 -0.1162  0.0610 -0.1432
  162POPC   D2A 2491  -0.386   3.745   6.626 -0.1751  0.0709  0.2446
  162POPC   C3A 2492  -0.138   3.830   6.978 -0.2323 -0.2333 -0.1162
  162POPC   C4A 2493  -0.195   4.184   7.298  0.0550  0.3056  0.2270
  162POPC   C1B 2494  -0.697   3.893   6.269  0.1331 -0.1183  0.1418
  162POPC   C2B 2495  -0.884   3.825   6.684 -0.0182 -0.0659 -0.0045
  162POPC   C3B 2496  -0.630   3.850   7.183  0.4390  0.2556  0.2766
  162POPC   C4B 2497  -0.444   3.841   7.609  0.0175 -0.1286 -0.0432
  163POPC   NC3 2498   9.579   3.196   4.964  0.3440 -0.2368 -0.0143
  163POPC   PO4 2499   9.522   3.131   5.337  0.2725  0.2405 -0.1554
  163POPC   GL1 2500   9.148   3.285   5.601  0.1170  0.3666  0.4143
  163POPC   GL2 2501   9.364   3.302   5.984 -0.1107 -0.1040 -0.1705
  163POPC   C1A 2502   8.962   3.077   6.042 -0.1024  0.2985 -0.2519
  163POPC   D2A 2503   8.611   2.861   6.258 -0.3133 -0.1275 -0.1717
  163POPC   C3A 2504   8.719   2.374   6.448 -0.0159  0.0821  0.0522
  163POPC   C4A 2505   9.004   2.071   6.614  0.3965  0.0510  0.0915
  163POPC   C1B 2506   9.358   3.376   6.397 -0.0087  0.0458  0.3925
  163POPC   C2B 2507   9.606   3.130   6.620  0.0804 -0.6191 -0.0530
  163POPC   C3B 2508   9.875   2.690   6.626  0.2689  0.0425 -0.0215
  163POPC   C4B 2509   9.912   2.261   6.566 -0.1545 -0.2240  0.1356
  164POPC   NC3 2510   2.620   5.191   5.542 -0.0224 -0.1688  0.2253
  164POPC   PO4 2511   2.192   5.152   5.569  0.2455  0.1461  0.1821
  164POPC   GL1 2512   2.393   5.054   5.978 -0.0301  0.0610 -0.1504
  164POPC   GL2 2513   2.150   4.977   6.179 -0.4178  0.0794 -0.2606
  164POPC   C1A 2514   2.663   5.228   6.347  0.1931 -0.0838 -0.2889
  164POPC   D2A 2515   2.718   5.386   6.759 -0.0415 -0.0312 -0.2471
  164POPC   C3A 2516   2.412   5.706   6.800 -0.3153  0.0220 -0.2762
  164POPC   C4A 2517   2.189   5.949   6.754  0.0333 -0.1262  0.1557
  164POPC   C1B 2518   1.787   4.843   6.422 -0.1941  0.0404  0.1993
  164POPC   C2B 2519   1.554   4.621   6.669  0.0331  0.2677 -0.0911
  164POPC   C3B 2520   1.313   4.388   6.400 -0.2006  0.1053  0.2201
  164POPC   C4B 2521   1.137   4.144   5.898 -0.1092  0.1026  0.1159
  165POPC   NC3 2522   2.248   1.326   5.108  0.0271 -0.1640  0.0933
  165POPC   PO4 2523   2.070   0.954   5.191 -0.0072  0.0480  0.0253
  165POPC   GL1 2524   1.964   0.916   5.525  0.0335  0.0538  0.2020
  165POPC   GL2 2525   2.150   1.276   5.640  0.3162  0.4714 -0.0880
  165POPC   C1A 2526   1.975   0.753   5.919 -0.0720 -0.0889  0.6051
  165POPC   D2A 2527   2.204   0.671   6.315  0.2406  0.2256  0.0121
  165POPC   C3A 2528   2.676   0.672   6.154 -0.4611 -0.0642  0.3306
  165POPC   C4A 2529   3.120   0.592   6.314 -0.0234 -0.0074 -0.1868
  165POPC   C1B 2530   2.350   1.082   6.013 -0.1590  0.0552  0.4347
  165POPC   C2B 2531   2.550   1.168   6.336  0.2850  0.5670 -0.3861
  165POPC   C3B 2532   2.558   1.152   6.791  0.0667  0.1107  0.1237
  165POPC   C4B 2533   2.636   0.791   7.095 -0.0745 -0.0461 -0.0989
  166POPC   NC3 2534   4.994   6.142   5.375 -0.3581 -0.0762 -0.1111
  166POPC   PO4 2535   4.824   6.034   5.671 -0.1936 -0.1349  0.0622
  166POPC   GL1 2536   5.088   6.190   5.917 -0.0104 -0.1835  0.2870
  166POPC   GL2 2537   4.968   6.174   6.143  0.0149 -0.0338 -0.2044
  166POPC   C1A 2538   5.360   6.461   6.186  0.0972  0.0272 -0.2462
  166POPC   D2A 2539   5.405   6.535   6.620  0.1815 -0.1642  0.0046
  166POPC   C3A 2540   5.378   6.254   6.956  0.1400 -0.1924 -0.5578
  166POPC   C4A 2541   5.297   5.897   7.204  0.2475 -0.3157  0.0004
  166POPC   C1B 2542   5.284   6.030   6.431  0.1648 -0.2740  0.1510
  166POPC   C2B 2543   5.628   6.123   6.529  0.3555 -0.4217 -0.0456
  166POPC   C3B 2544   5.996   5.995   6.680  0.1917  0.0930  0.0937
  166POPC   C4B 2545   6.302   6.173   7.026  0.0209 -0.0668  0.1286
  167POPC   NC3 2546   9.088   2.645   4.972  0.0161  0.2225 -0.0159
  167POPC   PO4 2547   8.667   2.670   5.065  0.0651 -0.0608  0.1241
  167POPC   GL1 2548   8.398   2.484   5.307  0.2652 -0.0321 -0.0545
  167POPC   GL2 2549   8.534   2.266   5.390  0.3483  0.1955 -0.2402
  167POPC   C1A 2550   8.025   2.212   5.479  0.2254  0.1744  0.1002
  167POPC   D2A 2551   7.920   1.954   5.812  0.0508 -0.1437  0.5211
  167POPC   C3A 2552   7.767   2.028   6.207  0.0442 -0.1408  0.1980
  167POPC   C4A 2553   7.440   2.212   6.380 -0.3081 -0.1809 -0.0757
  167POPC   C1B 2554   8.371   2.185   5.780 -0.1171 -0.3743  0.3238
  167POPC   C2B 2555   8.504   2.015   6.137  0.0005 -0.3286  0.1167
  167POPC   C3B 2556   8.611   1.673   6.434  0.1310  0.1228 -0.1366
  167POPC   C4B 2557   8.391   1.347   6.761 -0.1322  0.3363 -0.1540
  168POPC   NC3 2558   3.017   9.034   5.061 -0.0680 -0.1223  0.3369
  168POPC   PO4 2559   3.393   8.938   5.126 -0.3002  0.0559 -0.1843
  168POPC   GL1 2560   3.473   8.571   5.481  0.0220  0.0659 -0.0826
  168POPC   GL2 2561   3.812   8.581   5.573  0.0529 -0.4005  0.4055
  168POPC   C1A 2562   3.362   8.643   5.868  0.0033  0.0140 -0.0692
  168POPC   D2A 2563   3.198   8.909   6.121 -0.4683 -0.0694 -0.1028
  168POPC   C3A 2564   3.328   9.056   6.379 -0.2942  0.0852  0.1333
  168POPC   C4A 2565   3.521   8.874   6.695 -0.0817 -0.0990  0.0177
  168POPC   C1B 2566   3.815   8.716   5.993  0.1259  0.0926  0.0277
  168POPC   C2B 2567   3.672   8.637   6.325  0.0557  0.1036  0.2148
  168POPC   C3B 2568   3.294   8.460   6.520 -0.1024  0.0795 -0.0359
  168POPC   C4B 2569   2.951   8.271   6.806  0.0268  0.0967 -0.1399
  169POPC   NC3 2570   0.486   7.128   4.055 -0.0420 -0.0974 -0.0073
  169POPC   PO4 2571   0.789   7.432   4.155  0.0013  0.1397  0.1442
  169POPC   GL1 2572   0.789   7.281   4.605 -0.2396  0.2460  0.2056
  169POPC   GL2 2573   0.970   7.403   4.757  0.0939 -0.1197  0.0728
  169POPC   C1A 2574   0.578   7.491   5.006  0.1031  0.0624 -0.0386
  169POPC   D2A 2575   0.694   7.912   5.243  0.0978  0.0257  0.2057
  169POPC   C3A 2576   0.390   7.933   5.635  0.0977 -0.0779  0.0626
  169POPC   C4A 2577   0.307   8.068   5.970 -0.1384 -0.2271  0.2764
  169POPC   C1B 2578   1.056   7.607   5.147  0.0805 -0.1598 -0.1281
  169POPC   C2B 2579   1.319   7.544   5.515 -0.1963 -0.2530  0.1265
  169POPC   C3B 2580   1.607   7.776   5.665  0.0217  0.2518 -0.0150
  169POPC   C4B 2581   1.604   8.077   6.025 -0.1002 -0.3765  0.1563
  170POPC   NC3 2582   0.116   9.334   3.617  0.0451 -0.1112 -0.3683
  170POPC   PO4 2583   0.412   9.130   3.989  0.0157 -0.3346 -0.2751
  170POPC   GL1 2584   0.326   9.080   4.410 -0.0941 -0.1646  0.1370
  170POPC   GL2 2585   0.431   8.762   4.687  0.2276  0.1022 -0.1490
  170POPC   C1A 2586   0.335   9.284   4.873 -0.1984  0.0679 -0.0687
  170POPC   D2A 2587   0.750   9.303   5.114 -0.1362  0.0041 -0.1840
  170POPC   C3A 2588   0.758   9.393   5.498  0.1265 -0.1214  0.0681
  170POPC   C4A 2589   0.906   9.772   5.769  0.1405  0.0182  0.3063
  170POPC   C1B 2590  -0.017   8.792   4.991 -0.3357  0.4698  0.0746
  170POPC   C2B 2591  -0.359   8.576   4.908  0.0806 -0.5353 -0.0820
  170POPC   C3B 2592  -0.375   8.147   4.737 -0.0976 -0.0477  0.0810
  170POPC   C4B 2593  -0.196   7.767   4.667 -0.1774 -0.0119  0.2243
  171POPC   NC3 2594   3.220   1.422   5.215  0.2056 -0.1450 -0.0292
  171POPC   PO4 2595   3.016   1.043   5.431 -0.1480 -0.4333 -0.1140
  171POPC   GL1 2596   3.204   1.185   5.705 -0.1677  0.0035  0.0643
  171POPC   GL2 2597   3.129   0.953   5.923  0.1672  0.1985 -0.2803
  171POPC   C1A 2598   3.519   1.270   6.078 -0.2915 -0.3170 -0.1768
  171POPC   D2A 2599   3.932   1.269   6.360  0.1319 -0.0448 -0.1397
  171POPC   C3A 2600   4.339   0.972   6.292  0.3121 -0.2246  0.2956
  171POPC   C4A 2601   4.580   0.672   6.061  0.7933 -0.3289 -0.1884
  171POPC   C1B 2602   3.625   0.738   6.072  0.0697 -0.0377  0.1728
  171POPC   C2B 2603   3.845   0.822   6.419  0.3014  0.4201 -0.1127
  171POPC   C3B 2604   4.202   0.764   6.784  0.0125  0.1363 -0.0248
  171POPC   C4B 2605   4.457   1.103   6.953 -0.1264  0.2669  0.1698
  172POPC   NC3 2606   6.668   6.378   4.349 -0.0224 -0.2525 -0.0023
  172POPC   PO4 2607   6.807   6.298   4.750 -0.3186 -0.4317 -0.1735
  172POPC   GL1 2608   6.857   6.593   5.053 -0.2633  0.0044  0.2240
  172POPC   GL2 2609   6.895   6.874   5.090  0.0949  0.3696 -0.3821
  172POPC   C1A 2610   6.986   6.665   5.525 -0.1747 -0.2520 -0.0498
  172POPC   D2A 2611   7.304   6.738   5.735 -0.2452  0.2528 -0.0666
  172POPC   C3A 2612   7.617   6.918   5.533 -0.1578 -0.1910  0.1644
  172POPC   C4A 2613   7.686   7.250   5.252 -0.1455 -0.5886  0.1355
  172POPC   C1B 2614   7.153   7.070   5.262 -0.2130 -0.1143 -0.0189
  172POPC   C2B 2615   7.223   7.269   5.532  0.1640  0.1001  0.1577
  172POPC   C3B 2616   7.300   7.195   5.960  0.0232 -0.1749 -0.0750
  172POPC   C4B 2617   7.436   7.075   6.439  0.1319  0.1947 -0.0833
  173POPC   NC3 2618   0.660   0.937   4.964  0.0224 -0.1837  0.0142
  173POPC   PO4 2619   0.882   1.233   5.181  0.2731 -0.1728  0.2568
  173POPC   GL1 2620   1.071   1.103   5.480  0.0155 -0.0148 -0.3713
  173POPC   GL2 2621   1.389   0.892   5.480 -0.2515 -0.1390 -0.0598
  173POPC   C1A 2622   1.208   1.140   5.972  0.4005  0.1473 -0.3460
  173POPC   D2A 2623   1.366   1.403   6.229  0.1922 -0.2575 -0.0009
  173POPC   C3A 2624   1.169   1.763   6.445 -0.4278  0.2539  0.1710
  173POPC   C4A 2625   0.781   1.876   6.531  0.3223 -0.0991  0.3314
  173POPC   C1B 2626   1.483   0.726   5.840  0.1553  0.0981 -0.1001
  173POPC   C2B 2627   1.591   0.856   6.221  0.1182 -0.0379  0.1549
  173POPC   C3B 2628   1.806   0.749   6.608  0.1213 -0.3780  0.3074
  173POPC   C4B 2629   2.183   0.811   6.884 -0.0722 -0.2192  0.0719
  174POPC   NC3 2630   9.359   6.086   4.654 -0.3375 -0.2923  0.0056
  174POPC   PO4 2631   9.043   5.962   4.748  0.0021 -0.1042  0.0022
  174POPC   GL1 2632   8.993   5.756   5.126 -0.0315  0.5182 -0.3615
  174POPC   GL2 2633   8.721   5.674   5.004  0.1468  0.2201 -0.0858
  174POPC   C1A 2634   8.951   5.795   5.513  0.1525 -0.2853  0.1041
  174POPC   D2A 2635   8.933   5.960   5.877 -0.0308  0.0531 -0.0413
  174POPC   C3A 2636   9.160   5.820   6.217  0.2211 -0.0477  0.0222
  174POPC   C4A 2637   9.164   5.818   6.652  0.2653 -0.0885  0.0994
  174POPC   C1B 2638   8.506   5.843   5.266  0.0222 -0.2585  0.0753
  174POPC   C2B 2639   8.464   5.984   5.661  0.0852 -0.0617 -0.1256
  174POPC   C3B 2640   8.498   6.249   5.994 -0.1042  0.1929 -0.1679
  174POPC   C4B 2641   8.492   6.672   6.279  0.1090  0.1153 -0.1307
  175POPC   NC3 2642   1.685   3.437   5.206  0.1041 -0.2460  0.5566
  175POPC   PO4 2643   1.273   3.554   5.183  0.4348  0.1423  0.1051
  175POPC   GL1 2644   1.371   3.493   5.659 -0.0573 -0.1252 -0.2728
  175POPC   GL2 2645   1.484   3.251   5.906  0.0181 -0.1383 -0.0674
  175POPC   C1A 2646   1.132   3.686   5.995 -0.0688 -0.1270 -0.2274
  175POPC   D2A 2647   0.712   3.819   6.067  0.0632 -0.0834  0.1105
  175POPC   C3A 2648   0.639   3.847   6.500 -0.3732 -0.2911 -0.1038
  175POPC   C4A 2649   0.634   3.848   6.944  0.0639 -0.1216  0.1472
  175POPC   C1B 2650   1.345   3.330   6.290 -0.0531 -0.0170 -0.1802
  175POPC   C2B 2651   1.236   3.027   6.563 -0.1235  0.1846  0.0939
  175POPC   C3B 2652   1.026   2.644   6.400  0.0357 -0.0839  0.1756
  175POPC   C4B 2653   0.861   2.308   6.228  0.1478  0.1320  0.0012
  176POPC   NC3 2654   7.908   8.134   3.730  0.0337 -0.0103 -0.0702
  176POPC   PO4 2655   7.719   8.587   3.775  0.0068  0.0671 -0.2020
  176POPC   GL1 2656   7.764   8.590   4.146  0.1131  0.1772 -0.2211
  176POPC   GL2 2657   7.588   8.738   4.381  0.0184  0.0835  0.2054
  176POPC   C1A 2658   7.890   8.252   4.424  0.0119  0.2435 -0.1473
  176POPC   D2A 2659   7.631   8.305   4.787 -0.3251 -0.1487  0.1953
  176POPC   C3A 2660   7.489   8.654   4.906  0.2907 -0.2507 -0.0488
  176POPC   C4A 2661   7.600   9.085   4.826 -0.0676  0.1368 -0.3274
  176POPC   C1B 2662   7.881   8.746   4.663  0.1259  0.2762  0.1642
  176POPC   C2B 2663   7.962   8.665   5.016 -0.1821 -0.0625 -0.3363
  176POPC   C3B 2664   8.090   8.585   5.383  0.1630 -0.3157 -0.0633
  176POPC   C4B 2665   8.195   8.572   5.737 -0.0165  0.0855 -0.0126
  177POPC   NC3 2666   3.522   9.506   5.693 -0.1477 -0.1842 -0.1746
  177POPC   PO4 2667   3.911   9.695   5.706 -0.3339 -0.3076  0.0671
  177POPC   GL1 2668   3.745   9.777   6.083  0.2387  0.0262 -0.0111
  177POPC   GL2 2669   3.382   9.608   6.157 -0.2522  0.0532 -0.0072
  177POPC   C1A 2670   3.841   9.943   6.516 -0.1307  0.0387 -0.1286
  177POPC   D2A 2671   3.939   9.699   6.938 -0.0379  0.1979  0.0750
  177POPC   C3A 2672   4.026   9.227   6.902 -0.1776 -0.0267 -0.2296
  177POPC   C4A 2673   4.399   9.049   6.830  0.1261 -0.0883  0.0478
  177POPC   C1B 2674   3.097   9.447   6.570  0.0042 -0.0243  0.1657
  177POPC   C2B 2675   3.030   9.667   7.014 -0.0547 -0.0634 -0.0808
  177POPC   C3B 2676   2.767  10.033   7.020 -0.0593 -0.1558  0.1515
  177POPC   C4B 2677   2.826  10.494   7.171 -0.2883  0.1337 -0.0557
  178POPC   NC3 2678   6.987   1.464   4.045 -0.2389 -0.1205  0.1721
  178POPC   PO4 2679   7.023   1.807   4.319  0.1158  0.5069  0.3088
  178POPC   GL1 2680   7.135   1.784   4.753 -0.0463  0.2655  0.1326
  178POPC   GL2 2681   7.480   1.725   4.925 -0.2436 -0.1479  0.2393
  178POPC   C1A 2682   6.885   1.888   5.153 -0.0174 -0.2911 -0.1748
  178POPC   D2A 2683   6.847   1.927   5.599 -0.1769  0.0044 -0.0764
  178POPC   C3A 2684   6.346   2.048   5.849  0.0474  0.1517  0.1504
  178POPC   C4A 2685   6.031   2.257   5.637  0.2062 -0.1965 -0.0981
  178POPC   C1B 2686   7.757   1.816   5.266 -0.3467  0.0095 -0.0383
  178POPC   C2B 2687   7.915   1.458   5.572 -0.0711 -0.0223  0.3485
  178POPC   C3B 2688   7.870   1.215   5.930 -0.3166  0.2192  0.1943
  178POPC   C4B 2689   7.955   0.752   6.043  0.4045 -0.0215 -0.0387
  179POPC   NC3 2690   4.258   4.614   5.090 -0.4290  0.0855  0.3811
  179POPC   PO4 2691   4.270   4.841   5.464  0.2044 -0.1650 -0.2321
  179POPC   GL1 2692   4.366   4.759   5.904 -0.2911  0.0386 -0.0369
  179POPC   GL2 2693   4.767   4.569   5.804  0.2376  0.0419  0.1436
  179POPC   C1A 2694   4.186   4.430   6.128 -0.0522  0.0938 -0.0621
  179POPC   D2A 2695   3.816   4.118   6.348  0.2387 -0.2403 -0.4381
  179POPC   C3A 2696   3.643   3.722   6.005  0.0614 -0.2933  0.1197
  179POPC   C4A 2697   3.681   3.229   5.812  0.2131  0.1711 -0.3189
  179POPC   C1B 2698   4.929   4.719   6.272  0.1120 -0.1156  0.1325
  179POPC   C2B 2699   4.891   5.022   6.549 -0.1006  0.0877  0.1412
  179POPC   C3B 2700   5.128   5.233   6.850 -0.0634  0.1160  0.0538
  179POPC   C4B 2701   5.381   5.371   7.223 -0.3511 -0.4460  0.1364
  180POPC   NC3 2702   1.999   6.312   5.377  0.1453 -0.1887 -0.2593
  180POPC   PO4 2703   2.388   6.192   5.378  0.3095  0.3033  0.2791
  180POPC   GL1 2704   2.328   5.983   5.839  0.1231  0.2783 -0.4986
  180POPC   GL2 2705   2.268   5.581   5.840  0.0069  0.3195  0.1172
  180POPC   C1A 2706   2.224   5.939   6.210 -0.4034  0.0951  0.1343
  180POPC   D2A 2707   2.031   6.268   6.422  0.1866  0.0091  0.3287
  180POPC   C3A 2708   1.831   6.284   6.850 -0.2537 -0.0344 -0.0980
  180POPC   C4A 2709   1.604   6.144   7.183  0.0040 -0.1230  0.0043
  180POPC   C1B 2710   2.242   5.442   6.355  0.1740  0.1381 -0.1658
  180POPC   C2B 2711   2.218   5.266   6.744 -0.0387 -0.0719  0.0233
  180POPC   C3B 2712   2.501   4.894   6.946  0.3431 -0.1669  0.3360
  180POPC   C4B 2713   2.715   4.476   6.947 -0.0103  0.2122  0.1695
  181POPC   NC3 2714   4.895   0.709   5.486 -0.0108  0.2815 -0.0855
  181POPC   PO4 2715   5.154   1.082   5.407 -0.1905  0.0953  0.1225
  181POPC   GL1 2716   5.510   1.141   5.611 -0.2182 -0.2934 -0.1064
  181POPC   GL2 2717   5.775   1.035   5.509  0.4110 -0.1239  0.3787
  181POPC   C1A 2718   5.533   1.144   6.064 -0.2833 -0.0633 -0.0734
  181POPC   D2A 2719   5.684   1.074   6.376  0.0442 -0.3202 -0.1878
  181POPC   C3A 2720   6.047   0.941   6.567  0.0042 -0.0009  0.0075
  181POPC   C4A 2721   6.211   0.585   6.750  0.1042  0.0949  0.2366
  181POPC   C1B 2722   5.956   0.936   5.926  0.0068  0.5494 -0.1650
  181POPC   C2B 2723   6.175   0.628   6.244 -0.0225  0.2016 -0.1823
  181POPC   C3B 2724   6.557   0.752   6.479  0.0746  0.1353 -0.0133
  181POPC   C4B 2725   6.887   0.775   6.911  0.3453  0.1089  0.1538
  182POPC   NC3 2726   1.596   3.784   4.882  0.0294  0.0464  0.0289
  182POPC   PO4 2727   1.974   3.830   5.265 -0.1102  0.0658  0.2594
  182POPC   GL1 2728   1.827   3.800   5.592 -0.0869  0.4215 -0.4114
  182POPC   GL2 2729   1.970   3.442   5.732  0.0785  0.0879  0.0995
  182POPC   C1A 2730   1.627   3.878   5.933 -0.2768  0.0856  0.1153
  182POPC   D2A 2731   1.428   3.924   6.302  0.3369  0.0669  0.0872
  182POPC   C3A 2732   1.154   3.739   6.551  0.0297  0.0807  0.0896
  182POPC   C4A 2733   0.858   3.422   6.661 -0.4976 -0.0711  0.0453
  182POPC   C1B 2734   1.970   3.489   6.119 -0.3129  0.2410 -0.0138
  182POPC   C2B 2735   1.797   3.689   6.488 -0.0547  0.1797  0.3920
  182POPC   C3B 2736   1.587   3.518   6.803 -0.0322 -0.1010 -0.2247
  182POPC   C4B 2737   1.724   3.378   7.246 -0.1865 -0.1944  0.2266
  183POPC   NC3 2738   5.867   3.001   5.019 -0.0313  0.1753 -0.0162
  183POPC   PO4 2739   5.395   2.947   5.135  0.2411 -0.0717  0.1432
  183POPC   GL1 2740   5.519   3.025   5.488 -0.2607 -0.1157  0.1442
  183POPC   GL2 2741   5.831   3.092   5.505  0.1147 -0.1042 -0.0686
  183POPC   C1A 2742   5.734   2.883   5.918  0.2107  0.0519 -0.2113
  183POPC   D2A 2743   5.935   2.655   6.308 -0.2024  0.0844  0.1222
  183POPC   C3A 2744   6.251   2.385   6.310  0.0705  0.4499  0.1145
  183POPC   C4A 2745   6.566   2.170   6.585  0.0050  0.2854 -0.0767
  183POPC   C1B 2746   5.581   3.452   5.717 -0.0701 -0.1111 -0.2700
  183POPC   C2B 2747   5.558   3.666   6.150  0.2172  0.3078  0.0655
  183POPC   C3B 2748   5.711   3.502   6.601  0.1643 -0.3164  0.1221
  183POPC   C4B 2749   6.163   3.480   6.826 -0.0341  0.2440 -0.0171
  184POPC   NC3 2750   1.628   8.309   4.236  0.1752  0.1096 -0.0085
  184POPC   PO4 2751   2.035   8.122   4.462 -0.1488  0.1892  0.0964
  184POPC   GL1 2752   1.759   8.041   4.844  0.1440  0.1279  0.1474
  184POPC   GL2 2753   1.948   7.866   4.964 -0.0985 -0.2225  0.1099
  184POPC   C1A 2754   1.436   7.944   5.185  0.3931  0.1467 -0.0062
  184POPC   D2A 2755   1.126   8.056   5.562 -0.0201 -0.1767 -0.2279
  184POPC   C3A 2756   0.790   7.671   5.701  0.0697 -0.1742  0.1852
  184POPC   C4A 2757   0.596   7.254   5.523  0.1192  0.0229  0.4142
  184POPC   C1B 2758   1.881   7.978   5.342  0.1824  0.0331 -0.1053
  184POPC   C2B 2759   1.682   8.227   5.506  0.0597  0.1349  0.2503
  184POPC   C3B 2760   1.342   8.484   5.669 -0.2252 -0.1765 -0.2271
  184POPC   C4B 2761   0.943   8.617   5.883  0.3975  0.3189 -0.1270
  185POPC   NC3 2762   0.638   3.408   5.300 -0.1097 -0.0905  0.1032
  185POPC   PO4 2763   0.481   3.663   5.519  0.0094  0.2919 -0.1432
  185POPC   GL1 2764   0.247   3.514   5.938  0.0612  0.1024  0.2429
  185POPC   GL2 2765   0.213   3.800   6.158 -0.0882 -0.2036  0.0133
  185POPC   C1A 2766   0.413   3.376   6.400  0.0269 -0.0302  0.2273
  185POPC   D2A 2767   0.351   3.362   6.714  0.0369  0.0292 -0.3066
  185POPC   C3A 2768   0.148   2.926   6.782 -0.1659 -0.5427 -0.0084
  185POPC   C4A 2769   0.180   2.519   6.769 -0.1061  0.1223 -0.3876
  185POPC   C1B 2770   0.357   4.201   6.354 -0.2229  0.0054  0.1455
  185POPC   C2B 2771   0.459   4.563   6.598  0.0767  0.2172  0.1722
  185POPC   C3B 2772   0.447   4.717   7.022  0.1574 -0.1475 -0.1057
  185POPC   C4B 2773   0.640   4.872   7.316  0.0241  0.0287 -0.0405
  186POPC   NC3 2774   7.449   3.170   4.702  0.0153  0.0431  0.0376
  186POPC   PO4 2775   7.159   2.824   4.668  0.3339 -0.0992  0.3241
  186POPC   GL1 2776   7.218   2.840   5.088 -0.2931 -0.1640  0.0496
  186POPC   GL2 2777   7.447   2.758   5.113  0.0013  0.2767 -0.3105
  186POPC   C1A 2778   6.979   2.954   5.392  0.0368  0.2127 -0.0133
  186POPC   D2A 2779   6.753   2.868   5.829  0.4883 -0.4521 -0.0885
  186POPC   C3A 2780   6.616   3.303   6.078  0.0087 -0.1532  0.2418
  186POPC   C4A 2781   6.432   3.454   6.379  0.0230  0.3766 -0.1461
  186POPC   C1B 2782   7.554   2.556   5.498  0.1561  0.0641  0.0816
  186POPC   C2B 2783   7.658   2.405   5.883 -0.2605 -0.2503  0.2224
  186POPC   C3B 2784   7.765   2.617   6.244 -0.1483  0.2218  0.1318
  186POPC   C4B 2785   8.100   2.909   6.394 -0.0283 -0.2094  0.0602
  187POPC   NC3 2786   0.281   5.864   4.486  0.0163 -0.0527  0.0450
  187POPC   PO4 2787   0.603   6.032   4.765  0.2385  0.1073 -0.2766
  187POPC   GL1 2788   0.532   6.078   5.249  0.1827  0.3523 -0.3242
  187POPC   GL2 2789   0.472   5.666   5.316  0.0784 -0.0216 -0.1165
  187POPC   C1A 2790   0.719   6.172   5.670 -0.0119 -0.1376  0.0778
  187POPC   D2A 2791   1.116   6.213   5.780  0.1610 -0.2401 -0.2491
  187POPC   C3A 2792   1.400   6.183   6.077  0.0814  0.1985 -0.2984
  187POPC   C4A 2793   1.537   6.377   6.418 -0.0002 -0.1411  0.0372
  187POPC   C1B 2794   0.405   5.681   5.750 -0.1806  0.0733  0.0940
  187POPC   C2B 2795   0.323   5.890   6.056  0.0126 -0.3845  0.2078
  187POPC   C3B 2796   0.127   5.936   6.543 -0.0265  0.0060 -0.1475
  187POPC   C4B 2797  -0.142   6.087   6.716 -0.0703  0.1539  0.1102
  188POPC   NC3 2798   3.112   8.515   5.105  0.3148  0.1222  0.1421
  188POPC   PO4 2799   2.862   8.125   5.082  0.3918  0.3816  0.1540
  188POPC   GL1 2800   2.873   8.272   5.530  0.3918 -0.0409 -0.2665
  188POPC   GL2 2801   2.969   8.588   5.583  0.0237 -0.0552  0.0192
  188POPC   C1A 2802   2.587   8.354   5.809  0.0399 -0.2995  0.0792
  188POPC   D2A 2803   2.340   8.393   6.233 -0.1249  0.0219 -0.2967
  188POPC   C3A 2804   2.485   8.238   6.640  0.1591  0.2606 -0.2551
  188POPC   C4A 2805   2.442   8.345   7.012 -0.0785 -0.1977  0.2186
  188POPC   C1B 2806   2.786   8.825   5.912 -0.0809  0.2145 -0.2975
  188POPC   C2B 2807   2.536   8.860   6.215 -0.1133 -0.1472  0.1619
  188POPC   C3B 2808   2.435   8.922   6.638 -0.2318  0.0092  0.0540
  188POPC   C4B 2809   2.267   8.810   7.060 -0.0550 -0.0669  0.0728
  189POPC   NC3 2810   6.836   8.369   3.884  0.1381  0.4182  0.0864
  189POPC   PO4 2811   6.341   8.555   4.089 -0.1255  0.1326  0.3579
  189POPC   GL1 2812   6.706   8.462   4.344 -0.3361  0.3738 -0.0072
  189POPC   GL2 2813   6.775   8.766   4.424 -0.1070 -0.0583  0.0202
  189POPC   C1A 2814   7.069   8.384   4.676  0.1652 -0.1515 -0.0875
  189POPC   D2A 2815   7.009   8.466   5.152 -0.3025 -0.5482  0.1495
  189POPC   C3A 2816   6.782   8.430   5.477 -0.2282 -0.4784  0.1964
  189POPC   C4A 2817   6.656   8.428   5.903  0.1364  0.1682 -0.1804
  189POPC   C1B 2818   6.992   8.894   4.910  0.2588  0.2318 -0.2514
  189POPC   C2B 2819   7.247   8.988   5.253  0.0329 -0.0151  0.0627
  189POPC   C3B 2820   7.407   8.706   5.452 -0.0265  0.0523 -0.1734
  189POPC   C4B 2821   7.691   8.606   5.707  0.1463  0.1822  0.0545
  190POPC   NC3 2822   8.496   0.614   4.019  0.1736  0.0789 -0.0587
  190POPC   PO4 2823   8.090   0.429   3.975  0.0919  0.2820  0.0298
  190POPC   GL1 2824   8.036   0.166   4.400  0.0416 -0.1086 -0.0198
  190POPC   GL2 2825   7.649   0.090   4.482  0.0934  0.2513 -0.1340
  190POPC   C1A 2826   7.933  -0.202   4.766  0.0627 -0.0220  0.2009
  190POPC   D2A 2827   7.808  -0.500   5.016  0.1803 -0.0674 -0.0689
  190POPC   C3A 2828   8.226  -0.559   5.320 -0.0048  0.1313  0.1008
  190POPC   C4A 2829   8.350  -0.517   5.785 -0.2020  0.2632 -0.2622
  190POPC   C1B 2830   7.903   0.260   5.001  0.0158 -0.0955 -0.2187
  190POPC   C2B 2831   7.628   0.406   5.352  0.1722  0.0872 -0.0064
  190POPC   C3B 2832   7.275   0.121   5.495  0.3586 -0.1683 -0.0067
  190POPC   C4B 2833   7.265  -0.057   5.889  0.2881 -0.2316 -0.0662
  191POPC   NC3 2834   3.720   6.291   5.550 -0.1621 -0.0373  0.2536
  191POPC   PO4 2835   4.040   6.111   5.372  0.3594 -0.3131 -0.1720
  191POPC   GL1 2836   4.084   6.162   5.852  0.2662 -0.2199 -0.0313
  191POPC   GL2 2837   4.445   6.144   5.936  0.1376 -0.1924  0.0327
  191POPC   C1A 2838   3.933   6.186   6.245 -0.0916  0.1347 -0.1011
  191POPC   D2A 2839   3.928   6.465   6.586  0.2805  0.2398  0.1724
  191POPC   C3A 2840   3.804   6.339   6.959 -0.0688  0.0355  0.1657
  191POPC   C4A 2841   3.752   6.634   7.306  0.0365 -0.1342  0.4645
  191POPC   C1B 2842   4.493   6.373   6.317  0.0776  0.3716  0.0952
  191POPC   C2B 2843   4.290   6.738   6.407 -0.0127  0.1791  0.1138
  191POPC   C3B 2844   3.977   7.015   6.362  0.0366  0.1966 -0.2490
  191POPC   C4B 2845   3.927   7.435   6.434 -0.2575  0.0976  0.0722
  192POPC   NC3 2846   2.116   0.421   5.315 -0.2254 -0.0084  0.0900
  192POPC   PO4 2847   1.844   0.090   5.287 -0.0858 -0.1404  0.1358
  192POPC   GL1 2848   1.749   0.019   5.741  0.0576 -0.3838 -0.1929
  192POPC   GL2 2849   1.834   0.354   5.735 -0.2157  0.1132  0.0266
  192POPC   C1A 2850   1.822  -0.294   6.004  0.0314 -0.0969 -0.0808
  192POPC   D2A 2851   1.960  -0.533   6.434 -0.1499  0.0083 -0.3104
  192POPC   C3A 2852   1.704  -0.706   6.556 -0.0921  0.3567 -0.0213
  192POPC   C4A 2853   1.355  -0.806   6.462  0.1268 -0.0487 -0.3782
  192POPC   C1B 2854   1.811   0.321   6.149 -0.0306 -0.0369  0.0364
  192POPC   C2B 2855   1.605   0.266   6.543 -0.2045 -0.1356 -0.1398
  192POPC   C3B 2856   1.303   0.598   6.765  0.1096  0.1295 -0.0496
  192POPC   C4B 2857   1.474   1.093   6.704  0.2921  0.1957 -0.1512
  193POPC   NC3 2858   1.429   4.515   5.308 -0.2508 -0.1496  0.1324
  193POPC   PO4 2859   1.769   4.316   5.557 -0.1947 -0.1341 -0.0504
  193POPC   GL1 2860   2.005   4.280   5.919 -0.2224  0.0017 -0.0123
  193POPC   GL2 2861   2.249   4.014   6.081  0.0942  0.2382 -0.0363
  193POPC   C1A 2862   1.879   4.331   6.341  0.1145 -0.0565 -0.2098
  193POPC   D2A 2863   1.698   4.130   6.685  0.1225  0.0779  0.2387
  193POPC   C3A 2864   1.289   4.252   6.886  0.0358  0.1101  0.1935
  193POPC   C4A 2865   1.161   3.877   7.088 -0.2607 -0.1832  0.0958
  193POPC   C1B 2866   2.335   3.728   6.355 -0.2108 -0.0425 -0.2135
  193POPC   C2B 2867   2.237   3.725   6.740  0.0296  0.1720  0.2720
  193POPC   C3B 2868   1.961   3.842   7.014  0.4722  0.0948  0.2047
  193POPC   C4B 2869   1.770   3.874   7.378  0.0306 -0.0295 -0.1741
  194POPC   NC3 2870   2.985   2.878   4.881 -0.3028  0.0501 -0.0946
  194POPC   PO4 2871   2.755   2.734   5.191  0.4625  0.1917  0.2942
  194POPC   GL1 2872   2.810   2.807   5.577  0.0272  0.3931  0.2593
  194POPC   GL2 2873   2.597   2.924   5.683  0.2308  0.4669 -0.1044
  194POPC   C1A 2874   3.052   2.931   5.958  0.0795 -0.0660  0.0192
  194POPC   D2A 2875   3.463   2.814   6.057  0.1878  0.2044 -0.2725
  194POPC   C3A 2876   3.673   2.530   6.334  0.2668  0.0188 -0.0700
  194POPC   C4A 2877   4.065   2.300   6.440  0.0832  0.0666 -0.1074
  194POPC   C1B 2878   2.418   3.168   6.060  0.0839 -0.4389 -0.1481
  194POPC   C2B 2879   2.377   3.199   6.460 -0.3407  0.1130  0.2153
  194POPC   C3B 2880   2.155   3.248   6.892 -0.2201 -0.0416 -0.1840
  194POPC   C4B 2881   2.153   2.978   7.288  0.0527 -0.0717  0.0916
  195POPC   NC3 2882   4.940   9.724   4.933 -0.2129  0.0363 -0.0888
  195POPC   PO4 2883   5.215   9.782   5.234 -0.2481  0.1152  0.0540
  195POPC   GL1 2884   5.212   9.711   5.625 -0.0157  0.0750  0.1852
  195POPC   GL2 2885   4.960   9.969   5.710 -0.0844  0.1591 -0.2110
  195POPC   C1A 2886   5.506   9.669   5.979 -0.1029  0.2934 -0.0636
  195POPC   D2A 2887   5.768   9.644   6.284 -0.1035 -0.0682 -0.0517
  195POPC   C3A 2888   5.650   9.560   6.801 -0.0397  0.1680  0.2534
  195POPC   C4A 2889   5.831   9.779   7.069  0.1797 -0.1261 -0.1582
  195POPC   C1B 2890   5.031   9.784   6.105  0.0836 -0.0562  0.1064
  195POPC   C2B 2891   5.258   9.666   6.498  0.2330 -0.1106 -0.0534
  195POPC   C3B 2892   5.179   9.851   6.927  0.3035 -0.0449 -0.1631
  195POPC   C4B 2893   5.135   9.934   7.246  0.2473  0.3232 -0.0081
  196POPC   NC3 2894   1.125   6.220   5.147 -0.0565 -0.1133 -0.0086
  196POPC   PO4 2895   0.928   5.761   5.201  0.1398  0.1987  0.0775
  196POPC   GL1 2896   0.923   5.712   5.669 -0.2236  0.3994  0.3061
  196POPC   GL2 2897   1.015   5.313   5.821 -0.2854  0.2941 -0.0015
  196POPC   C1A 2898   0.806   5.938   6.132  0.1164  0.2079 -0.1348
  196POPC   D2A 2899   0.638   6.113   6.509  0.1306 -0.3242 -0.0997
  196POPC   C3A 2900   0.727   6.541   6.619  0.1476  0.1385 -0.1696
  196POPC   C4A 2901   0.779   6.521   7.096  0.2158  0.2420  0.2255
  196POPC   C1B 2902   0.692   5.411   6.114 -0.0768 -0.0212  0.0770
  196POPC   C2B 2903   0.583   5.634   6.497  0.1895  0.0676  0.2161
  196POPC   C3B 2904   0.522   5.534   6.937 -0.1937 -0.0482  0.0798
  196POPC   C4B 2905   0.354   5.388   7.203  0.1021  0.3277 -0.0361
  197POPC   NC3 2906   2.767   9.877   5.228 -0.0728  0.2215 -0.2815
  197POPC   PO4 2907   2.730   9.437   5.114  0.2266  0.3133  0.4212
  197POPC   GL1 2908   2.618   9.513   5.558  0.1165  0.0775  0.2741
  197POPC   GL2 2909   2.644   9.843   5.729  0.2124  0.0080  0.0033
  197POPC   C1A 2910   2.360   9.332   5.951  0.1294 -0.1971 -0.0666
  197POPC   D2A 2911   2.055   9.127   6.305  0.2407  0.0679 -0.2112
  197POPC   C3A 2912   1.654   9.046   6.249 -0.1817 -0.2911 -0.0507
  197POPC   C4A 2913   1.224   8.994   6.222  0.1679 -0.1221  0.0766
  197POPC   C1B 2914   2.345   9.815   6.148 -0.1073 -0.1006 -0.0854
  197POPC   C2B 2915   2.490   9.430   6.429 -0.1376  0.0946  0.2284
  197POPC   C3B 2916   2.679   9.306   6.761 -0.0923 -0.0244 -0.1093
  197POPC   C4B 2917   3.024   9.126   6.982  0.2281 -0.0629  0.0413
  198POPC   NC3 2918   9.805   5.229   5.073  0.0550 -0.0389  0.2114
  198POPC   PO4 2919  10.302   5.280   5.186  0.1946  0.3623 -0.2589
  198POPC   GL1 2920  10.164   5.543   5.416  0.0367 -0.1252 -0.0726
  198POPC   GL2 2921   9.922   5.636   5.565  0.0927 -0.0634  0.0498
  198POPC   C1A 2922  10.275   6.010   5.565 -0.3861 -0.4427  0.2071
  198POPC   D2A 2923  10.403   6.447   5.532  0.1922 -0.1418 -0.1848
  198POPC   C3A 2924  10.573   6.419   5.953 -0.0027 -0.1028 -0.0034
  198POPC   C4A 2925  10.799   6.393   6.137 -0.2086 -0.3253 -0.1450
  198POPC   C1B 2926   9.915   5.826   5.982 -0.1704  0.3365 -0.0032
  198POPC   C2B 2927   9.654   5.998   6.258 -0.1955 -0.2672  0.0228
  198POPC   C3B 2928   9.568   6.089   6.808  0.2249 -0.2460  0.0745
  198POPC   C4B 2929   9.621   6.259   7.198 -0.2138  0.1689 -0.0244
  199POPC   NC3 2930   1.875   9.478   4.641 -0.1017 -0.1309 -0.0325
  199POPC   PO4 2931   1.955   9.016   4.608 -0.1549 -0.0659 -0.2093
  199POPC   GL1 2932   1.750   8.950   4.978  0.6878  0.0764 -0.0537
  199POPC   GL2 2933   1.561   9.165   5.014  0.0686 -0.0163 -0.3084
  199POPC   C1A 2934   1.769   8.848   5.432 -0.0713 -0.5405 -0.1984
  199POPC   D2A 2935   1.588   8.869   5.820 -0.2598  0.1496 -0.1307
  199POPC   C3A 2936   1.219   9.186   5.754 -0.1340  0.0004  0.0548
  199POPC   C4A 2937   0.875   9.307   5.955 -0.1488  0.2201  0.0195
  199POPC   C1B 2938   1.309   8.870   5.245  0.0422  0.0171 -0.0044
  199POPC   C2B 2939   0.890   8.787   5.421 -0.0688  0.0608  0.1863
  199POPC   C3B 2940   0.603   8.904   5.626  0.0929  0.4355 -0.0516
  199POPC   C4B 2941   0.334   9.262   5.831 -0.0580 -0.1379 -0.1203
  200POPC   NC3 2942   3.081   6.902   5.630 -0.1294  0.1563 -0.0646
  200POPC   PO4 2943   3.148   6.430   5.731 -0.2724 -0.0182 -0.0777
  200POPC   GL1 2944   3.047   6.603   6.087  0.1146  0.5206  0.3034
  200POPC   GL2 2945   2.715   6.513   6.253  0.2592 -0.0681 -0.0546
  200POPC   C1A 2946   3.070   6.842   6.430 -0.2074  0.0328 -0.1279
  200POPC   D2A 2947   2.960   7.281   6.547  0.0633  0.2572 -0.2194
  200POPC   C3A 2948   3.347   7.410   6.790 -0.1123 -0.1892 -0.0081
  200POPC   C4A 2949   3.607   7.350   7.177  0.1658 -0.1546 -0.1293
  200POPC   C1B 2950   2.612   6.846   6.559  0.0543  0.2251 -0.1911
  200POPC   C2B 2951   2.704   7.019   6.963  0.0436 -0.0327  0.0441
  200POPC   C3B 2952   2.578   7.213   7.307  0.0417 -0.1147 -0.2954
  200POPC   C4B 2953   2.319   7.332   7.695 -0.1097 -0.1604  0.3373
  201POPC   NC3 2954   4.443   6.956   5.386 -0.0065  0.0347 -0.0183
  201POPC   PO4 2955   4.353   7.373   5.343  0.0686 -0.1123  0.1185
  201POPC   GL1 2956   4.101   7.494   5.671  0.1959  0.0156  0.0560
  201POPC   GL2 2957   4.192   7.799   5.847  0.0914 -0.2887 -0.2210
  201POPC   C1A 2958   3.676   7.638   6.021 -0.1013 -0.2646 -0.1916
  201POPC   D2A 2959   3.227   7.672   6.193 -0.0035 -0.2326 -0.1991
  201POPC   C3A 2960   3.141   7.884   6.560 -0.1720  0.0480  0.0251
  201POPC   C4A 2961   2.930   7.789   6.944 -0.1240  0.1580 -0.1803
  201POPC   C1B 2962   4.060   7.894   6.324 -0.2536  0.4059 -0.1453
  201POPC   C2B 2963   4.214   7.773   6.681  0.2730  0.2184 -0.1030
  201POPC   C3B 2964   4.562   7.590   6.964 -0.0005  0.1189 -0.2115
  201POPC   C4B 2965   4.641   7.262   7.284  0.0117 -0.2137 -0.0307
  202POPC   NC3 2966   6.047   0.258   5.078  0.1883 -0.1491  0.1371
  202POPC   PO4 2967   6.049   0.779   5.013 -0.5133 -0.3001  0.2348
  202POPC   GL1 2968   6.169   0.708   5.509  0.0676  0.1550  0.0458
  202POPC   GL2 2969   6.434   0.469   5.372 -0.3360  0.1190  0.0715
  202POPC   C1A 2970   6.493   0.671   5.805 -0.2321  0.1857  0.0398
  202POPC   D2A 2971   6.686   0.446   6.076  0.1225 -0.1483 -0.0466
  202POPC   C3A 2972   6.484   0.241   6.474 -0.1232 -0.2283  0.0299
  202POPC   C4A 2973   6.493  -0.005   6.856  0.2757 -0.0504 -0.4367
  202POPC   C1B 2974   6.822   0.409   5.553  0.0597 -0.0427 -0.3037
  202POPC   C2B 2975   7.247   0.539   5.854 -0.1315 -0.0765  0.2651
  202POPC   C3B 2976   7.591   0.345   6.131 -0.0418 -0.1754 -0.0558
  202POPC   C4B 2977   7.773   0.267   6.586  0.1866  0.1043  0.2178
  203POPC   NC3 2978   7.259   8.896   3.899  0.1644 -0.2197 -0.1131
  203POPC   PO4 2979   6.880   9.241   4.097 -0.1315 -0.0591  0.1770
  203POPC   GL1 2980   6.717   9.267   4.501  0.3647 -0.2797  0.0468
  203POPC   GL2 2981   7.007   9.475   4.589  0.3214  0.1894  0.4313
  203POPC   C1A 2982   6.724   9.285   4.928 -0.0310 -0.0240 -0.0859
  203POPC   D2A 2983   6.680   9.127   5.272 -0.1444 -0.0967  0.0816
  203POPC   C3A 2984   6.856   8.874   5.646  0.1063 -0.2320  0.1594
  203POPC   C4A 2985   6.837   8.887   6.084 -0.0435  0.5137 -0.0937
  203POPC   C1B 2986   7.205   9.400   4.993  0.0160  0.0489  0.2342
  203POPC   C2B 2987   7.500   9.381   5.347 -0.0138 -0.2885  0.1772
  203POPC   C3B 2988   7.746   9.076   5.279  0.1165  0.0604 -0.1468
  203POPC   C4B 2989   8.072   9.115   5.085 -0.4007 -0.1685 -0.0782
  204POPC   NC3 2990   8.544   2.264   4.756  0.2392 -0.0074 -0.0584
  204POPC   PO4 2991   8.938   2.281   4.633 -0.3369  0.0720 -0.1260
  204POPC   GL1 2992   8.966   2.155   5.180  0.2670 -0.1774  0.1797
  204POPC   GL2 2993   9.291   2.034   5.327  0.0054  0.3671  0.2542
  204POPC   C1A 2994   8.746   1.804   5.333  0.0925 -0.3307  0.0395
  204POPC   D2A 2995   8.668   1.427   5.483 -0.1405 -0.0460 -0.2925
  204POPC   C3A 2996   8.721   1.002   5.358  0.1020 -0.2020 -0.3644
  204POPC   C4A 2997   8.655   0.638   5.663  0.0511  0.3601 -0.1686
  204POPC   C1B 2998   8.932   2.085   5.705  0.0173  0.0674  0.2480
  204POPC   C2B 2999   9.039   2.001   6.151 -0.1519 -0.2254  0.1150
  204POPC   C3B 3000   9.140   1.662   6.373 -0.0705 -0.1302  0.0546
  204POPC   C4B 3001   9.212   1.267   6.197 -0.4299  0.0936 -0.2487
  205POPC   NC3 3002   2.340   6.965   5.492  0.0315 -0.4299  0.1983
  205POPC   PO4 3003   2.040   6.724   5.658 -0.0191 -0.1889 -0.2604
  205POPC   GL1 3004   1.796   6.661   5.958 -0.0848 -0.3961  0.0861
  205POPC   GL2 3005   1.740   6.852   6.270  0.3314 -0.4542  0.1608
  205POPC   C1A 3006   1.323   6.660   5.926 -0.1463 -0.0365  0.2485
  205POPC   D2A 3007   1.068   6.494   6.293  0.1199 -0.1724  0.0801
  205POPC   C3A 3008   1.171   6.766   6.485  0.0347  0.0405  0.0433
  205POPC   C4A 3009   1.041   6.925   6.877 -0.1197  0.2337 -0.2319
  205POPC   C1B 3010   1.590   7.022   6.684  0.2908 -0.0812  0.1791
  205POPC   C2B 3011   1.481   7.469   6.709 -0.1182  0.1686 -0.1211
  205POPC   C3B 3012   1.343   7.893   6.428  0.1631  0.0865  0.0071
  205POPC   C4B 3013   1.194   8.392   6.207  0.0070  0.1937 -0.0323
  206POPC   NC3 3014  10.036   4.257   5.111 -0.0489  0.2486  0.1003
  206POPC   PO4 3015   9.690   4.534   5.130 -0.1826  0.2455  0.2203
  206POPC   GL1 3016   9.821   4.909   5.492 -0.0410  0.0582  0.0640
  206POPC   GL2 3017   9.648   5.222   5.507  0.0846 -0.1463  0.2824
  206POPC   C1A 3018   9.810   4.786   5.932 -0.2429  0.2051 -0.0192
  206POPC   D2A 3019   9.711   4.530   6.294  0.1718  0.0411  0.0300
  206POPC   C3A 3020  10.017   4.144   6.359 -0.1135 -0.2169 -0.1668
  206POPC   C4A 3021  10.345   3.792   6.620 -0.3002  0.1850  0.1273
  206POPC   C1B 3022   9.793   5.324   5.873 -0.3956  0.3630 -0.4686
  206POPC   C2B 3023   9.959   5.168   6.267  0.2478  0.1825 -0.0832
  206POPC   C3B 3024   9.867   5.167   6.724  0.5066  0.1059 -0.1078
  206POPC   C4B 3025   9.684   5.135   7.106 -0.0161 -0.1071  0.0953
  207POPC   NC3 3026   8.904   9.050   3.264  0.0478  0.1557  0.1158
  207POPC   PO4 3027   8.621   9.467   3.385 -0.1502 -0.2444  0.0005
  207POPC   GL1 3028   8.635   9.281   3.811  0.4137 -0.1332 -0.2650
  207POPC   GL2 3029   8.371   9.141   3.933 -0.3129  0.1609  0.0287
  207POPC   C1A 3030   8.971   9.362   4.143 -0.0807 -0.0658 -0.2379
  207POPC   D2A 3031   9.225   9.232   4.614  0.1130  0.0098 -0.3609
  207POPC   C3A 3032   8.993   9.103   5.091 -0.1967  0.1566  0.0269
  207POPC   C4A 3033   9.056   8.917   5.468 -0.0536 -0.1058  0.2993
  207POPC   C1B 3034   8.485   9.244   4.346  0.0049 -0.0431 -0.2265
  207POPC   C2B 3035   8.609   9.048   4.722 -0.1192  0.4935  0.1842
  207POPC   C3B 3036   8.410   8.558   4.847 -0.0166  0.1274  0.1109
  207POPC   C4B 3037   8.367   8.198   4.648  0.0722 -0.0854  0.3543
  208POPC   NC3 3038   7.997   4.811   4.668 -0.4108 -0.0874  0.1645
  208POPC   PO4 3039   7.632   4.584   4.717 -0.0163  0.2206 -0.0678
  208POPC   GL1 3040   7.660   4.698   5.133 -0.0736  0.2308  0.1995
  208POPC   GL2 3041   7.408   4.678   5.211 -0.2774 -0.0922 -0.2826
  208POPC   C1A 3042   7.917   4.769   5.530  0.4419  0.1664 -0.0541
  208POPC   D2A 3043   7.695   4.918   5.853  0.1223 -0.0307  0.2055
  208POPC   C3A 3044   7.589   5.054   6.219 -0.2492 -0.3097  0.1419
  208POPC   C4A 3045   7.364   4.853   6.503 -0.0914 -0.0885 -0.2036
  208POPC   C1B 3046   7.204   4.286   5.249  0.2543  0.0274  0.0905
  208POPC   C2B 3047   6.999   4.027   5.584 -0.1577 -0.1943  0.0159
  208POPC   C3B 3048   7.155   3.806   5.915 -0.1514 -0.0531  0.3035
  208POPC   C4B 3049   7.088   3.703   6.259  0.1155 -0.0973  0.2344
  209POPC   NC3 3050   2.237   4.252   5.394 -0.0027 -0.0512 -0.0717
  209POPC   PO4 3051   2.669   4.123   5.416  0.1328  0.0420 -0.3193
  209POPC   GL1 3052   2.629   4.212   5.803  0.2372 -0.3117  0.0247
  209POPC   GL2 3053   2.461   4.468   5.948  0.2699  0.2058  0.3739
  209POPC   C1A 3054   2.689   4.089   6.252 -0.0208  0.2551  0.2928
  209POPC   D2A 3055   2.720   4.008   6.653 -0.1147  0.0803 -0.1064
  209POPC   C3A 3056   2.336   4.162   6.876 -0.1121  0.2290  0.4813
  209POPC   C4A 3057   2.315   4.059   7.285 -0.0050  0.1115  0.1868
  209POPC   C1B 3058   2.361   4.487   6.365 -0.2604 -0.3514  0.1286
  209POPC   C2B 3059   2.154   4.570   6.754  0.3735 -0.3920 -0.0333
  209POPC   C3B 3060   1.916   4.809   7.018  0.0323 -0.0574  0.1431
  209POPC   C4B 3061   1.938   5.186   7.251  0.0600 -0.2638 -0.1335
  210POPC   NC3 3062   8.193   1.522   4.187  0.1434  0.2852  0.0426
  210POPC   PO4 3063   8.388   1.900   4.456  0.1420 -0.2236 -0.0132
  210POPC   GL1 3064   8.271   1.704   4.840 -0.0949 -0.0197  0.0185
  210POPC   GL2 3065   8.351   1.927   5.060  0.3329  0.2795  0.0036
  210POPC   C1A 3066   8.059   1.434   5.067  0.0428  0.0503  0.2272
  210POPC   D2A 3067   8.244   1.150   5.385 -0.1812  0.1051  0.3475
  210POPC   C3A 3068   8.349   1.114   5.799 -0.0816 -0.3277  0.1771
  210POPC   C4A 3069   8.646   1.205   6.138 -0.1816  0.1695  0.1998
  210POPC   C1B 3070   8.281   1.751   5.425 -0.1803 -0.5443  0.1346
  210POPC   C2B 3071   8.298   1.589   5.903 -0.0573 -0.1991  0.3591
  210POPC   C3B 3072   8.140   1.664   6.295  0.0514  0.1584  0.1124
  210POPC   C4B 3073   7.960   1.850   6.626 -0.0281 -0.0500  0.2352
  211POPC   NC3 3074   9.140   9.851   3.720  0.0704 -0.1873 -0.1091
  211POPC   PO4 3075   9.188  10.239   3.832 -0.0305  0.3570  0.0267
  211POPC   GL1 3076   9.159  10.384   4.257 -0.0741 -0.0454  0.2250
  211POPC   GL2 3077   9.174  10.646   4.315  0.0466  0.2914 -0.2000
  211POPC   C1A 3078   9.218  10.237   4.564 -0.0608  0.0696 -0.0200
  211POPC   D2A 3079   9.203   9.811   4.766 -0.1505  0.1346 -0.1626
  211POPC   C3A 3080   9.195   9.776   5.313  0.1433 -0.1448  0.0681
  211POPC   C4A 3081   9.160  10.103   5.607  0.2624 -0.3464  0.3721
  211POPC   C1B 3082   8.852  10.614   4.607 -0.0525 -0.1414 -0.1192
  211POPC   C2B 3083   8.756  10.727   5.013  0.1834  0.1700  0.1268
  211POPC   C3B 3084   9.054  10.757   5.413 -0.0758  0.0899  0.1513
  211POPC   C4B 3085   9.079  10.582   5.800 -0.0942  0.0825  0.0583
  212POPC   NC3 3086   2.256   8.703   5.017 -0.0069  0.0610  0.0300
  212POPC   PO4 3087   2.595   8.595   5.073 -0.0270 -0.0981 -0.0328
  212POPC   GL1 3088   2.464   8.831   5.470 -0.1932 -0.5025  0.2719
  212POPC   GL2 3089   2.476   9.050   5.395  0.1907 -0.2278 -0.2428
  212POPC   C1A 3090   2.152   8.818   5.829 -0.1464 -0.0470 -0.2193
  212POPC   D2A 3091   1.848   8.483   5.941  0.1457 -0.0360 -0.0185
  212POPC   C3A 3092   1.641   8.547   6.370  0.0405 -0.0278 -0.0954
  212POPC   C4A 3093   1.577   8.400   6.805 -0.0386 -0.2830  0.3900
  212POPC   C1B 3094   2.112   9.239   5.532  0.4015  0.1727 -0.1063
  212POPC   C2B 3095   1.621   9.375   5.456 -0.0104  0.1043 -0.2700
  212POPC   C3B 3096   1.212   9.513   5.274 -0.3845 -0.0029  0.0520
  212POPC   C4B 3097   1.048   9.927   5.200 -0.2071  0.1281  0.2389
  213POPC   NC3 3098   5.401   6.320   5.574 -0.0260 -0.0436  0.1310
  213POPC   PO4 3099   5.595   6.104   5.346  0.0345 -0.0030 -0.1481
  213POPC   GL1 3100   5.778   6.051   5.789  0.4456  0.2200 -0.1110
  213POPC   GL2 3101   6.138   6.084   5.873 -0.0967 -0.0248 -0.1524
  213POPC   C1A 3102   5.738   5.837   6.077 -0.1447  0.2968 -0.0624
  213POPC   D2A 3103   5.627   5.664   6.459  0.2214  0.0577 -0.1596
  213POPC   C3A 3104   5.672   5.742   6.939  0.0025 -0.0625  0.1954
  213POPC   C4A 3105   5.717   5.712   7.409 -0.0685  0.1103 -0.3189
  213POPC   C1B 3106   6.332   6.103   6.327 -0.1300 -0.1373 -0.0075
  213POPC   C2B 3107   6.600   6.028   6.708  0.1919 -0.0999  0.0308
  213POPC   C3B 3108   6.782   6.255   7.129  0.1609 -0.1686  0.1005
  213POPC   C4B 3109   6.937   6.585   7.400 -0.0556  0.1419 -0.0441
  214POPC   NC3 3110   5.883   8.041   4.840 -0.0235 -0.1706 -0.2411
  214POPC   PO4 3111   5.715   7.686   5.112 -0.3749 -0.2869 -0.1367
  214POPC   GL1 3112   5.764   7.693   5.520 -0.2751  0.3127  0.0537
  214POPC   GL2 3113   5.582   7.574   5.736 -0.0741 -0.2226 -0.0867
  214POPC   C1A 3114   5.923   7.341   5.972 -0.2664  0.2697 -0.2365
  214POPC   D2A 3115   6.061   7.273   6.445 -0.1462 -0.0542  0.0091
  214POPC   C3A 3116   6.279   7.009   6.666  0.1964  0.1653 -0.1264
  214POPC   C4A 3117   6.519   7.119   6.964  0.0075  0.4851 -0.1726
  214POPC   C1B 3118   5.588   7.781   6.232  0.1965  0.0117  0.0390
  214POPC   C2B 3119   5.739   7.591   6.683  0.0258  0.0307  0.2364
  214POPC   C3B 3120   6.040   7.395   7.014  0.3064 -0.1157  0.0993
  214POPC   C4B 3121   6.034   7.171   7.513  0.3422  0.0543 -0.1677
  215POPC   NC3 3122   4.453   9.602   4.913  0.0488  0.1249 -0.3101
  215POPC   PO4 3123   4.296   9.930   5.349 -0.3906 -0.4088  0.1878
  215POPC   GL1 3124   4.407   9.760   5.795 -0.2726  0.5409 -0.0489
  215POPC   GL2 3125   4.210   9.584   6.017 -0.1690  0.1282  0.2299
  215POPC   C1A 3126   4.621  10.037   6.090  0.0001  0.1775  0.2478
  215POPC   D2A 3127   4.579  10.471   6.405  0.4225 -0.1588 -0.0618
  215POPC   C3A 3128   4.412  10.536   6.815 -0.1647  0.1722 -0.1879
  215POPC   C4A 3129   4.357  10.416   7.319  0.0409  0.0067 -0.3261
  215POPC   C1B 3130   4.213   9.555   6.420 -0.0681 -0.0578 -0.2128
  215POPC   C2B 3131   4.406   9.603   6.831  0.0781 -0.0030 -0.0261
  215POPC   C3B 3132   4.473   9.409   7.228  0.0563  0.0448 -0.1844
  215POPC   C4B 3133   4.520   9.279   7.654  0.0668  0.0406 -0.1803
  216POPC   NC3 3134   9.206   8.269   3.669 -0.0026  0.0321 -0.2491
  216POPC   PO4 3135   8.952   8.509   3.491  0.2475 -0.1871 -0.4438
  216POPC   GL1 3136   9.047   8.854   3.698 -0.5921 -0.0437 -0.2235
  216POPC   GL2 3137   8.912   8.800   3.913  0.0159  0.0765 -0.0021
  216POPC   C1A 3138   9.362   9.108   3.972  0.0596 -0.0307 -0.3906
  216POPC   D2A 3139   9.498   8.784   4.351 -0.2023  0.0049  0.2556
  216POPC   C3A 3140   9.764   8.609   4.382 -0.0614 -0.1679  0.1759
  216POPC   C4A 3141  10.074   8.926   4.525  0.0564  0.0054  0.2974
  216POPC   C1B 3142   8.938   8.954   4.347  0.1882 -0.1580  0.1458
  216POPC   C2B 3143   9.087   8.781   4.660  0.1046  0.0589 -0.0973
  216POPC   C3B 3144   8.939   8.580   4.979  0.1730 -0.0548 -0.3243
  216POPC   C4B 3145   8.795   8.397   5.419  0.0768 -0.1135  0.0760
  217POPC   NC3 3146   2.808   3.195   5.277  0.1751 -0.1673 -0.2868
  217POPC   PO4 3147   2.322   3.259   5.345 -0.0103  0.0208 -0.1226
  217POPC   GL1 3148   2.684   3.414   5.669  0.0152 -0.4523 -0.0943
  217POPC   GL2 3149   2.692   3.695   5.963 -0.1263 -0.1363 -0.0949
  217POPC   C1A 3150   3.195   3.422   5.877 -0.0911  0.0168 -0.2326
  217POPC   D2A 3151   3.421   3.386   6.253 -0.1182  0.1663 -0.1821
  217POPC   C3A 3152   3.695   3.675   6.536 -0.1470 -0.3204 -0.2865
  217POPC   C4A 3153   3.978   3.807   6.742 -0.0462  0.0418 -0.0589
  217POPC   C1B 3154   2.817   3.397   6.329  0.0770  0.0328  0.0713
  217POPC   C2B 3155   2.740   3.443   6.686  0.1041 -0.0866 -0.0843
  217POPC   C3B 3156   2.479   3.576   7.151  0.1611  0.2794 -0.0650
  217POPC   C4B 3157   2.168   3.555   7.459  0.1116 -0.2168 -0.3984
  218POPC   NC3 3158   7.879   2.953   4.773  0.2183 -0.3735 -0.0612
  218POPC   PO4 3159   7.935   3.388   4.700 -0.0880 -0.1772 -0.1695
  218POPC   GL1 3160   7.899   3.369   5.085  0.2907 -0.1976 -0.2422
  218POPC   GL2 3161   7.486   3.315   5.189  0.3195  0.0205  0.2630
  218POPC   C1A 3162   7.883   3.025   5.411  0.1330 -0.0349 -0.0264
  218POPC   D2A 3163   7.870   3.078   5.876 -0.1343 -0.0045  0.0504
  218POPC   C3A 3164   7.967   3.366   6.261  0.1205  0.1999  0.2315
  218POPC   C4A 3165   7.917   3.697   6.580  0.1537 -0.0854 -0.0128
  218POPC   C1B 3166   7.454   3.654   5.578 -0.1186 -0.1729 -0.2490
  218POPC   C2B 3167   7.595   4.064   5.766  0.1511 -0.3048 -0.0750
  218POPC   C3B 3168   7.545   4.473   5.660 -0.1076 -0.1848 -0.4955
  218POPC   C4B 3169   7.055   4.622   5.612  0.2112  0.0980 -0.0645
  219POPC   NC3 3170   3.901   8.817   5.176 -0.0280  0.0890 -0.1262
  219POPC   PO4 3171   4.433   8.822   5.211 -0.0294 -0.1607  0.1945
  219POPC   GL1 3172   4.692   8.539   5.473  0.4333 -0.1544 -0.0534
  219POPC   GL2 3173   4.695   8.125   5.474 -0.3108  0.1090  0.0290
  219POPC   C1A 3174   5.024   8.542   5.819 -0.1985 -0.1504  0.1163
  219POPC   D2A 3175   5.094   8.785   6.124  0.0433 -0.0065  0.0222
  219POPC   C3A 3176   5.314   8.666   6.480  0.0803  0.2165 -0.2232
  219POPC   C4A 3177   5.700   8.700   6.486  0.0511 -0.1606 -0.0908
  219POPC   C1B 3178   4.679   8.187   5.923  0.3574  0.2358 -0.0154
  219POPC   C2B 3179   4.541   8.009   6.207 -0.1054  0.0006  0.1495
  219POPC   C3B 3180   4.450   7.566   6.254  0.4648  0.0168 -0.0519
  219POPC   C4B 3181   4.330   7.133   6.054 -0.0385  0.1532  0.2112
  220POPC   NC3 3182   0.444   9.859   4.481 -0.0721 -0.1563  0.1597
  220POPC   PO4 3183   0.757   9.736   4.587  0.0820 -0.2558 -0.0572
  220POPC   GL1 3184   0.597   9.910   5.007 -0.3419 -0.2109  0.2514
  220POPC   GL2 3185   0.519  10.282   4.953  0.1774 -0.1459  0.3094
  220POPC   C1A 3186   0.586   9.811   5.376 -0.1724  0.0145 -0.0320
  220POPC   D2A 3187   0.392   9.735   5.687 -0.0767  0.0155 -0.0182
  220POPC   C3A 3188   0.396  10.034   6.032 -0.1077  0.1194 -0.0714
  220POPC   C4A 3189   0.214   9.994   6.417  0.2952 -0.1499 -0.3205
  220POPC   C1B 3190   0.438  10.293   5.359 -0.3598 -0.3210  0.4816
  220POPC   C2B 3191   0.189  10.427   5.713  0.0618 -0.0699  0.0587
  220POPC   C3B 3192   0.140  10.502   6.111 -0.1221  0.4776  0.2398
  220POPC   C4B 3193   0.219  10.729   6.495 -0.0042  0.3596 -0.2914
  221POPC   NC3 3194   2.814   6.055   5.471 -0.2814 -0.0566  0.2767
  221POPC   PO4 3195   2.716   5.662   5.585 -0.4002  0.2555  0.4415
  221POPC   GL1 3196   2.791   5.581   5.956 -0.0387 -0.1380 -0.3264
  221POPC   GL2 3197   2.979   5.374   5.960 -0.0112 -0.3003  0.0386
  221POPC   C1A 3198   2.774   5.730   6.358  0.1237 -0.1621  0.0737
  221POPC   D2A 3199   2.600   6.152   6.523  0.1137 -0.0478 -0.0649
  221POPC   C3A 3200   2.938   6.442   6.703 -0.1922  0.1710 -0.3812
  221POPC   C4A 3201   2.978   6.582   7.167  0.3376  0.1913  0.0929
  221POPC   C1B 3202   3.315   5.595   6.151 -0.1522 -0.0815  0.0476
  221POPC   C2B 3203   3.615   5.800   6.392 -0.1406 -0.0430 -0.0814
  221POPC   C3B 3204   3.837   5.899   6.776 -0.0294  0.2627  0.1206
  221POPC   C4B 3205   4.048   5.895   7.080  0.0818 -0.0185 -0.4594
  222POPC   NC3 3206   5.465   7.268   5.311  0.0732 -0.1828 -0.1986
  222POPC   PO4 3207   4.960   7.115   5.405 -0.1274  0.0554 -0.1741
  222POPC   GL1 3208   4.698   7.144   5.754 -0.2338 -0.0262 -0.1179
  222POPC   GL2 3209   4.612   7.524   5.721  0.1330  0.2610  0.0195
  222POPC   C1A 3210   4.840   7.288   6.159  0.2006 -0.1245  0.3745
  222POPC   D2A 3211   4.868   7.368   6.608  0.1722 -0.0708  0.0646
  222POPC   C3A 3212   4.474   7.230   6.657 -0.1933 -0.1636  0.0496
  222POPC   C4A 3213   4.023   7.356   6.885  0.1291 -0.1313 -0.0497
  222POPC   C1B 3214   4.925   7.739   5.972 -0.0557  0.0857  0.1007
  222POPC   C2B 3215   5.078   7.708   6.301 -0.2271 -0.0064 -0.1254
  222POPC   C3B 3216   5.150   7.724   6.699  0.0023 -0.1762  0.0829
  222POPC   C4B 3217   5.019   8.036   7.073 -0.2744 -0.1407 -0.2052
  223POPC   NC3 3218   4.912   5.295   5.195 -0.1228 -0.0233  0.0347
  223POPC   PO4 3219   4.869   5.560   5.508 -0.1868 -0.3030  0.2159
  223POPC   GL1 3220   4.903   5.573   5.959 -0.0485 -0.0651 -0.0522
  223POPC   GL2 3221   4.734   5.754   6.064 -0.5112 -0.1324  0.1159
  223POPC   C1A 3222   5.178   5.576   6.280  0.0509 -0.1343  0.1640
  223POPC   D2A 3223   5.195   5.691   6.784 -0.0522  0.2692  0.2988
  223POPC   C3A 3224   4.864   5.599   7.109  0.0174 -0.1008  0.0150
  223POPC   C4A 3225   4.739   6.067   7.285 -0.1164  0.2044  0.0291
  223POPC   C1B 3226   4.326   5.847   6.323  0.1463 -0.1570  0.0108
  223POPC   C2B 3227   4.250   6.162   6.743 -0.3168 -0.0475  0.0402
  223POPC   C3B 3228   4.458   6.458   6.899  0.0789  0.0403 -0.2201
  223POPC   C4B 3229   4.616   6.827   6.816 -0.0673  0.3718  0.4050
  224POPC   NC3 3230   1.758   8.776   4.201 -0.0958  0.0615 -0.4016
  224POPC   PO4 3231   1.310   8.741   4.267  0.0870  0.0133 -0.1183
  224POPC   GL1 3232   1.315   8.480   4.664 -0.0341 -0.2735 -0.0352
  224POPC   GL2 3233   1.254   8.149   4.620 -0.3268 -0.0881 -0.0397
  224POPC   C1A 3234   1.511   8.486   5.106  0.1682  0.2567 -0.1826
  224POPC   D2A 3235   1.911   8.450   5.135 -0.2721  0.0125  0.2087
  224POPC   C3A 3236   2.118   8.360   5.526  0.1845 -0.0006 -0.2160
  224POPC   C4A 3237   2.192   8.120   5.812  0.1285 -0.3205  0.1255
  224POPC   C1B 3238   0.997   8.103   4.874 -0.4846  0.2219 -0.0101
  224POPC   C2B 3239   0.998   8.344   5.202  0.1626 -0.0749  0.0519
  224POPC   C3B 3240   0.639   8.348   5.614  0.4856 -0.0617  0.0071
  224POPC   C4B 3241   0.425   8.578   6.035  0.0418  0.0114 -0.1005
  225POPC   NC3 3242   8.640   1.460   4.511  0.0950 -0.0969  0.0085
  225POPC   PO4 3243   8.560   1.091   4.236  0.0478 -0.3383 -0.1915
  225POPC   GL1 3244   8.577   0.790   4.463 -0.1875 -0.1247 -0.1044
  225POPC   GL2 3245   8.794   0.935   4.662  0.3419  0.1891 -0.1643
  225POPC   C1A 3246   8.324   0.463   4.661  0.2000 -0.3819  0.1022
  225POPC   D2A 3247   8.390   0.135   4.941  0.1331 -0.2169  0.1922
  225POPC   C3A 3248   8.398  -0.331   4.923  0.1039 -0.0392  0.0241
  225POPC   C4A 3249   8.406  -0.723   4.873 -0.2779 -0.1508  0.1595
  225POPC   C1B 3250   9.017   0.975   4.935 -0.0816 -0.0417  0.0794
  225POPC   C2B 3251   9.245   1.023   5.318  0.3810 -0.2495 -0.1338
  225POPC   C3B 3252   9.255   1.465   5.574 -0.0089 -0.0414 -0.1864
  225POPC   C4B 3253   8.925   1.579   5.834 -0.2042 -0.2045  0.0913
  226POPC   NC3 3254   3.441  10.039   5.657  0.1963 -0.2534 -0.1593
  226POPC   PO4 3255   3.094   9.710   5.765 -0.2656  0.0287 -0.1122
  226POPC   GL1 3256   3.114  10.005   6.068  0.2892 -0.1387 -0.2482
  226POPC   GL2 3257   2.828   9.922   6.199  0.2315 -0.0766  0.2094
  226POPC   C1A 3258   3.219   9.905   6.501 -0.1339  0.1209  0.1916
  226POPC   D2A 3259   3.406   9.953   6.887 -0.1185  0.2043  0.0225
  226POPC   C3A 3260   3.298  10.233   7.096  0.0150 -0.0665 -0.0510
  226POPC   C4A 3261   3.119  10.242   7.499  0.1445 -0.4219  0.2220
  226POPC   C1B 3262   2.612   9.937   6.553  0.1058  0.0254  0.3894
  226POPC   C2B 3263   2.314   9.649   6.831  0.0901  0.0296  0.0037
  226POPC   C3B 3264   2.047   9.355   6.989 -0.1919 -0.0665 -0.0649
  226POPC   C4B 3265   1.628   9.318   7.089  0.0078 -0.2403 -0.1812
  227POPC   NC3 3266   9.685   6.467   4.532 -0.0096  0.2357 -0.2627
  227POPC   PO4 3267  10.057   6.160   4.536  0.1421  0.2214  0.1942
  227POPC   GL1 3268  10.121   6.463   4.833  0.5064  0.1881 -0.0279
  227POPC   GL2 3269  10.093   6.275   5.095  0.0491 -0.1738 -0.0378
  227POPC   C1A 3270  10.058   6.888   4.806 -0.0285 -0.0427  0.0227
  227POPC   D2A 3271   9.901   7.301   5.035 -0.1319 -0.1068  0.2608
  227POPC   C3A 3272  10.054   7.210   5.372 -0.1202  0.1884  0.0345
  227POPC   C4A 3273   9.956   7.256   5.758  0.0873 -0.1854 -0.0189
  227POPC   C1B 3274   9.877   6.302   5.486 -0.1116 -0.1317 -0.1690
  227POPC   C2B 3275   9.936   6.310   5.897  0.0512 -0.2390 -0.2189
  227POPC   C3B 3276  10.212   6.235   6.237 -0.0367 -0.2953  0.2674
  227POPC   C4B 3277  10.452   6.529   6.479 -0.0290 -0.0659  0.0563
  228POPC   NC3 3278   3.354   5.357   5.184 -0.0118  0.1667  0.1730
  228POPC   PO4 3279   3.135   5.194   5.500 -0.1357  0.1323  0.1062
  228POPC   GL1 3280   3.478   5.302   5.758 -0.0364 -0.0027  0.0805
  228POPC   GL2 3281   3.398   4.947   5.824 -0.1191  0.0838 -0.2480
  228POPC   C1A 3282   3.689   5.266   6.209  0.0920 -0.2283 -0.2249
  228POPC   D2A 3283   3.703   5.007   6.625 -0.2588 -0.0341 -0.1605
  228POPC   C3A 3284   3.448   4.808   6.784  0.0313  0.0654  0.0715
  228POPC   C4A 3285   3.172   4.664   7.063 -0.2869 -0.2787  0.1094
  228POPC   C1B 3286   3.581   4.660   6.168  0.0113  0.0925  0.1430
  228POPC   C2B 3287   3.849   4.547   6.563  0.1739  0.0080  0.1529
  228POPC   C3B 3288   4.165   4.659   6.851  0.0520  0.3246  0.1357
  228POPC   C4B 3289   4.338   4.705   7.226 -0.4547  0.1471  0.2633
  229POPC   NC3 3290   1.081   6.897   4.762  0.0754 -0.0837 -0.1459
  229POPC   PO4 3291   1.311   6.690   5.008  0.0063  0.1837 -0.0967
  229POPC   GL1 3292   0.927   6.858   5.222 -0.2833  0.1712  0.1313
  229POPC   GL2 3293   1.011   6.617   5.492  0.1279  0.1206 -0.3827
  229POPC   C1A 3294   0.568   6.795   5.456 -0.0726 -0.1913  0.1360
  229POPC   D2A 3295   0.301   6.928   5.805 -0.1631 -0.1178  0.1383
  229POPC   C3A 3296   0.027   6.817   6.043 -0.0733  0.0767 -0.1327
  229POPC   C4A 3297  -0.245   7.138   6.230  0.0261  0.2753 -0.4977
  229POPC   C1B 3298   0.806   6.762   5.906  0.2524  0.1597  0.3003
  229POPC   C2B 3299   0.631   6.851   6.294 -0.0172 -0.3745 -0.0829
  229POPC   C3B 3300   0.731   7.134   6.508  0.2664 -0.0441 -0.2135
  229POPC   C4B 3301   1.122   7.329   6.385 -0.0408 -0.0833 -0.0534
  230POPC   NC3 3302   6.766   2.105   4.579  0.2246 -0.1570  0.2058
  230POPC   PO4 3303   6.615   2.478   4.573  0.1193 -0.0752  0.2860
  230POPC   GL1 3304   6.628   2.480   4.977  0.2619  0.1677 -0.5757
  230POPC   GL2 3305   6.526   2.822   5.196 -0.0947 -0.2872  0.0410
  230POPC   C1A 3306   6.911   2.405   5.218 -0.0075 -0.1579 -0.0369
  230POPC   D2A 3307   7.051   2.381   5.636 -0.0278  0.1596 -0.3136
  230POPC   C3A 3308   7.248   2.719   5.835 -0.2256 -0.0561  0.0908
  230POPC   C4A 3309   7.420   3.079   5.664  0.0882  0.0421 -0.0420
  230POPC   C1B 3310   6.415   3.110   5.466  0.1767  0.0760  0.3991
  230POPC   C2B 3311   6.127   3.167   5.870  0.0542  0.1883  0.2111
  230POPC   C3B 3312   5.955   3.229   6.280 -0.2696 -0.2837 -0.0052
  230POPC   C4B 3313   6.037   3.041   6.671  0.1079  0.1383 -0.0064
  231POPC   NC3 3314   9.795   2.041   4.575  0.1096 -0.1664 -0.0328
  231POPC   PO4 3315   9.773   1.904   4.960  0.0649 -0.0317  0.1041
  231POPC   GL1 3316   9.526   1.649   5.090 -0.0355 -0.2203  0.0038
  231POPC   GL2 3317   9.612   1.403   5.197  0.1538  0.1062  0.1197
  231POPC   C1A 3318   9.125   1.456   5.040  0.0199  0.0979 -0.0547
  231POPC   D2A 3319   8.623   1.310   4.942  0.2963  0.0427 -0.0494
  231POPC   C3A 3320   8.434   0.928   4.974  0.0823 -0.1913 -0.0347
  231POPC   C4A 3321   8.189   0.564   5.259  0.1421 -0.2000  0.1134
  231POPC   C1B 3322   9.769   1.583   5.627  0.2367 -0.1235 -0.1992
  231POPC   C2B 3323   9.706   1.407   6.060 -0.0555 -0.1355 -0.0921
  231POPC   C3B 3324   9.876   1.470   6.567  0.1673 -0.2541 -0.1660
  231POPC   C4B 3325   9.498   1.334   6.871  0.1685  0.1798  0.0127
  232POPC   NC3 3326   4.607   1.412   4.869  0.0694  0.1643  0.0500
  232POPC   PO4 3327   4.681   1.443   5.309 -0.0545  0.0796 -0.1053
  232POPC   GL1 3328   4.829   1.427   5.726 -0.1706 -0.0887 -0.0404
  232POPC   GL2 3329   4.608   1.217   5.806  0.0125 -0.3586 -0.0281
  232POPC   C1A 3330   4.745   1.668   6.087  0.2353  0.2721  0.0555
  232POPC   D2A 3331   4.504   1.508   6.540 -0.1033  0.0145  0.1113
  232POPC   C3A 3332   4.702   1.671   6.895  0.1511 -0.2502 -0.2162
  232POPC   C4A 3333   5.042   1.994   6.911 -0.1744  0.0774 -0.0363
  232POPC   C1B 3334   4.792   1.173   6.237 -0.2215  0.3225  0.1740
  232POPC   C2B 3335   5.163   1.130   6.401  0.0440  0.0424  0.0597
  232POPC   C3B 3336   5.331   1.019   6.717 -0.0284 -0.1662 -0.2817
  232POPC   C4B 3337   5.280   0.983   7.152 -0.0646 -0.0825 -0.0418
  233POPC   NC3 3338   6.441   1.047   4.727  0.0941 -0.1376 -0.0086
  233POPC   PO4 3339   6.420   1.424   4.872  0.1559  0.0064  0.1338
  233POPC   GL1 3340   6.278   1.234   5.247 -0.2992  0.3062 -0.0508
  233POPC   GL2 3341   6.508   0.968   5.248 -0.0955 -0.0738 -0.0086
  233POPC   C1A 3342   6.079   1.394   5.659  0.2596 -0.0400  0.0464
  233POPC   D2A 3343   5.945   1.487   6.130  0.3662 -0.0708  0.0675
  233POPC   C3A 3344   6.228   1.413   6.448  0.2366  0.1447  0.1188
  233POPC   C4A 3345   6.136   1.340   6.872  0.2827 -0.0272  0.4469
  233POPC   C1B 3346   6.700   1.116   5.577  0.1037 -0.0255  0.1291
  233POPC   C2B 3347   6.462   1.140   6.062 -0.2886  0.1108 -0.1068
  233POPC   C3B 3348   6.712   1.271   6.444  0.1226 -0.0115  0.2395
  233POPC   C4B 3349   6.854   1.281   6.896 -0.0738 -0.0298  0.0924
  234POPC   NC3 3350   1.675   2.647   5.054  0.2328 -0.0379 -0.1508
  234POPC   PO4 3351   1.578   2.490   5.390  0.1662 -0.2496  0.0190
  234POPC   GL1 3352   1.551   2.318   5.751 -0.1145  0.5317  0.0126
  234POPC   GL2 3353   1.265   2.296   5.951  0.1594  0.3383  0.5052
  234POPC   C1A 3354   1.779   2.349   6.097 -0.1194  0.0858 -0.0048
  234POPC   D2A 3355   1.902   2.171   6.518 -0.1028  0.0239 -0.4877
  234POPC   C3A 3356   1.689   2.329   6.781 -0.1513 -0.2296 -0.3378
  234POPC   C4A 3357   1.718   2.521   7.132  0.3067 -0.0367 -0.0791
  234POPC   C1B 3358   1.321   2.246   6.429 -0.2460 -0.0549 -0.0144
  234POPC   C2B 3359   1.227   2.055   6.838 -0.0068  0.1456  0.0913
  234POPC   C3B 3360   1.318   1.587   6.899 -0.1522  0.0769  0.1429
  234POPC   C4B 3361   1.146   1.319   7.186 -0.0149 -0.1031 -0.3018
  235POPC   NC3 3362   3.926   0.965   5.406 -0.1289  0.2411 -0.1263
  235POPC   PO4 3363   4.333   1.115   5.334 -0.1432 -0.1711 -0.2238
  235POPC   GL1 3364   4.185   1.381   5.692  0.0604  0.4941 -0.3857
  235POPC   GL2 3365   4.045   1.199   5.874  0.2191  0.0261 -0.2736
  235POPC   C1A 3366   4.254   1.561   6.132 -0.0488 -0.4325  0.3570
  235POPC   D2A 3367   4.076   1.717   6.558 -0.2602  0.2385  0.0384
  235POPC   C3A 3368   4.390   2.029   6.803 -0.0332  0.2964 -0.1203
  235POPC   C4A 3369   4.586   2.114   7.199  0.5660 -0.0435 -0.0673
  235POPC   C1B 3370   3.828   1.666   5.860 -0.0621 -0.5198 -0.0735
  235POPC   C2B 3371   3.763   1.897   6.209  0.0885 -0.0286  0.3032
  235POPC   C3B 3372   3.579   1.972   6.608  0.0240  0.0793 -0.2785
  235POPC   C4B 3373   3.679   1.675   6.967 -0.0022  0.2208  0.1315
  236POPC   NC3 3374   1.245   0.950   4.539 -0.0137  0.1764 -0.1202
  236POPC   PO4 3375   0.912   0.532   4.712  0.1324 -0.2101  0.0654
  236POPC   GL1 3376   0.727   0.478   5.149  0.1124  0.4854  0.2615
  236POPC   GL2 3377   0.955   0.634   5.425  0.0409  0.0849  0.0982
  236POPC   C1A 3378   0.432   0.578   5.436 -0.1448 -0.0751 -0.1150
  236POPC   D2A 3379   0.282   0.741   5.830 -0.2198  0.1931  0.0505
  236POPC   C3A 3380  -0.053   0.746   6.003 -0.0702  0.0994 -0.2098
  236POPC   C4A 3381  -0.217   0.521   6.380  0.1900  0.0898 -0.0277
  236POPC   C1B 3382   0.878   0.743   5.882  0.1398  0.0643 -0.0158
  236POPC   C2B 3383   0.657   0.586   6.199  0.0788  0.0488 -0.0749
  236POPC   C3B 3384   0.718   0.567   6.670 -0.2234  0.0608 -0.0689
  236POPC   C4B 3385   0.875   0.248   6.970 -0.0340  0.0186 -0.1006
  237POPC   NC3 3386   3.804   4.560   5.604 -0.0035 -0.1639 -0.1324
  237POPC   PO4 3387   3.726   4.980   5.419  0.1666 -0.0113  0.2184
  237POPC   GL1 3388   3.948   5.043   5.836  0.0642 -0.2028 -0.2279
  237POPC   GL2 3389   4.134   5.306   5.771  0.1582 -0.0598  0.3408
  237POPC   C1A 3390   4.098   4.927   6.292 -0.1168  0.3522 -0.0791
  237POPC   D2A 3391   4.467   4.753   6.431  0.0496 -0.0835 -0.1738
  237POPC   C3A 3392   4.618   4.346   6.359 -0.0147  0.2634 -0.2382
  237POPC   C4A 3393   4.288   3.978   6.389  0.1378  0.2074 -0.0506
  237POPC   C1B 3394   4.475   5.252   6.028  0.0814  0.0148 -0.2262
  237POPC   C2B 3395   4.641   5.451   6.441  0.0435  0.0217 -0.0165
  237POPC   C3B 3396   4.712   5.897   6.690  0.0998  0.1122  0.2242
  237POPC   C4B 3397   4.924   6.283   6.750  0.1166  0.1984  0.2635
  238POPC   NC3 3398   5.087   8.928   4.419  0.1933 -0.1498 -0.1505
  238POPC   PO4 3399   4.917   9.293   4.648 -0.0615  0.3932 -0.0320
  238POPC   GL1 3400   5.208   9.295   5.075  0.1661  0.3613  0.2397
  238POPC   GL2 3401   5.214   9.202   5.412  0.0562  0.1762  0.2133
  238POPC   C1A 3402   5.666   9.174   5.108 -0.2197  0.1762 -0.1678
  238POPC   D2A 3403   5.817   8.980   5.435 -0.2860 -0.2915 -0.5784
  238POPC   C3A 3404   6.097   8.626   5.336  0.0801  0.0770  0.2232
  238POPC   C4A 3405   6.301   8.241   5.239 -0.3292  0.2156 -0.0050
  238POPC   C1B 3406   5.599   9.309   5.685  0.1138  0.2037 -0.0501
  238POPC   C2B 3407   5.945   9.175   5.901 -0.0123  0.1270 -0.1204
  238POPC   C3B 3408   6.334   8.989   6.153  0.3198 -0.0176 -0.0948
  238POPC   C4B 3409   6.574   8.788   6.514  0.3263 -0.2684 -0.0263
  239POPC   NC3 3410   2.461   6.457   5.806 -0.1670  0.1652 -0.0541
  239POPC   PO4 3411   2.602   6.820   5.890 -0.2383 -0.1210 -0.1445
  239POPC   GL1 3412   2.278   6.834   6.213 -0.0883 -0.1485  0.2147
  239POPC   GL2 3413   2.129   7.064   6.040 -0.0749  0.2990 -0.1128
  239POPC   C1A 3414   2.102   6.818   6.609  0.2094 -0.3670  0.2449
  239POPC   D2A 3415   2.202   6.789   7.014  0.1873  0.1557 -0.0278
  239POPC   C3A 3416   2.526   6.445   6.959  0.3100  0.0390 -0.2903
  239POPC   C4A 3417   2.644   6.087   7.091 -0.1043  0.3579  0.1090
  239POPC   C1B 3418   1.879   7.346   6.380  0.2684  0.3733  0.2634
  239POPC   C2B 3419   1.558   7.549   6.178  0.3801 -0.3369  0.0172
  239POPC   C3B 3420   1.175   7.782   5.944  0.2250 -0.1811 -0.3874
  239POPC   C4B 3421   0.755   8.013   6.020 -0.0351  0.1729  0.0366
  240POPC   NC3 3422   5.848   6.414   5.069 -0.1182 -0.0030  0.0354
  240POPC   PO4 3423   5.843   6.751   5.307  0.2726 -0.1598  0.1130
  240POPC   GL1 3424   5.862   6.559   5.728 -0.1174  0.2721 -0.0793
  240POPC   GL2 3425   5.918   6.855   5.929 -0.1935 -0.0220 -0.0938
  240POPC   C1A 3426   5.809   6.418   6.177 -0.0608 -0.2208  0.0312
  240POPC   D2A 3427   5.947   6.632   6.654 -0.0179 -0.0411  0.1026
  240POPC   C3A 3428   5.857   6.466   6.970 -0.1123 -0.0111  0.2497
  240POPC   C4A 3429   5.827   6.166   7.229  0.0490 -0.1646  0.0941
  240POPC   C1B 3430   5.669   6.886   6.222  0.2653  0.0779  0.1599
  240POPC   C2B 3431   5.709   7.077   6.724 -0.3872  0.3313  0.0575
  240POPC   C3B 3432   5.594   6.883   7.048 -0.1877  0.2820  0.0766
  240POPC   C4B 3433   5.485   6.623   7.274  0.2555 -0.2238 -0.2548
  241POPC   NC3 3434   7.510   5.349   4.158 -0.1204  0.0311  0.1860
  241POPC   PO4 3435   7.279   5.450   4.480  0.1175 -0.0520  0.1442
  241POPC   GL1 3436   7.303   5.481   4.872 -0.3421  0.2031  0.0088
  241POPC   GL2 3437   7.226   5.722   5.036 -0.1149 -0.2173 -0.3901
  241POPC   C1A 3438   7.171   5.191   5.088  0.1400 -0.0265  0.1945
  241POPC   D2A 3439   6.845   4.894   5.200  0.1133  0.0961  0.1295
  241POPC   C3A 3440   6.715   4.461   5.284 -0.0426  0.2356  0.1655
  241POPC   C4A 3441   6.421   4.086   5.414 -0.2508  0.2307  0.0727
  241POPC   C1B 3442   7.073   5.749   5.458 -0.0758  0.0517 -0.2337
  241POPC   C2B 3443   7.199   5.706   6.026 -0.3465 -0.4264  0.0735
  241POPC   C3B 3444   7.531   5.561   6.403  0.2859 -0.2188 -0.0796
  241POPC   C4B 3445   7.945   5.463   6.300 -0.0480  0.1255 -0.1836
  242POPC   NC3 3446   5.776   4.012   4.916  0.1112  0.3036 -0.1986
  242POPC   PO4 3447   5.301   4.035   5.203  0.1173 -0.1692  0.0626
  242POPC   GL1 3448   5.176   3.912   5.617 -0.2024  0.2386  0.0686
  242POPC   GL2 3449   5.145   3.718   5.583 -0.0208 -0.1071  0.1491
  242POPC   C1A 3450   5.094   4.127   5.950  0.0390  0.1663 -0.3158
  242POPC   D2A 3451   5.205   4.160   6.331 -0.0770  0.2480  0.1523
  242POPC   C3A 3452   4.979   4.248   6.664 -0.2355  0.0084  0.1844
  242POPC   C4A 3453   4.751   4.544   6.884 -0.0582 -0.1993 -0.1073
  242POPC   C1B 3454   5.081   3.580   5.982 -0.0431  0.2137  0.1400
  242POPC   C2B 3455   5.144   3.595   6.448  0.2635 -0.3026 -0.1277
  242POPC   C3B 3456   5.207   3.783   6.706 -0.1375 -0.1891  0.2320
  242POPC   C4B 3457   5.426   4.140   6.899  0.0190  0.2982  0.1980
  243POPC   NC3 3458   7.989   5.739   4.402  0.0673 -0.1056  0.3669
  243POPC   PO4 3459   7.877   5.323   4.541  0.1197 -0.2696  0.3100
  243POPC   GL1 3460   7.828   5.207   5.036 -0.2381 -0.1801 -0.1785
  243POPC   GL2 3461   8.039   5.007   5.133  0.2324 -0.0177  0.1055
  243POPC   C1A 3462   7.520   5.184   5.420 -0.1909  0.0990 -0.2370
  243POPC   D2A 3463   7.166   5.084   5.740 -0.1176  0.1067 -0.1338
  243POPC   C3A 3464   7.277   4.760   6.022 -0.0302 -0.1213 -0.1246
  243POPC   C4A 3465   7.134   4.298   5.989 -0.1500 -0.0125 -0.0832
  243POPC   C1B 3466   8.005   5.269   5.503 -0.3213  0.1871  0.1812
  243POPC   C2B 3467   8.117   5.558   5.790 -0.2166 -0.1519  0.1638
  243POPC   C3B 3468   8.295   5.830   6.138  0.1153 -0.0179  0.3195
  243POPC   C4B 3469   8.420   5.646   6.554  0.0054  0.1472 -0.1616
  244POPC   NC3 3470   5.128   1.701   5.357  0.0509 -0.0211  0.1353
  244POPC   PO4 3471   4.918   1.830   4.943  0.2223  0.1450  0.4163
  244POPC   GL1 3472   4.589   1.967   5.322 -0.0039  0.2663  0.1727
  244POPC   GL2 3473   4.809   2.025   5.586  0.0727 -0.2429  0.0095
  244POPC   C1A 3474   4.438   1.899   5.802  0.2096  0.2379  0.0132
  244POPC   D2A 3475   4.425   2.034   6.218  0.3798  0.1736  0.2097
  244POPC   C3A 3476   4.806   1.969   6.440 -0.1687 -0.0169 -0.0398
  244POPC   C4A 3477   5.007   1.645   6.540 -0.0067  0.2619 -0.0203
  244POPC   C1B 3478   5.200   2.220   5.648 -0.1360 -0.0976  0.0159
  244POPC   C2B 3479   5.553   2.257   5.825  0.0360 -0.1764 -0.3550
  244POPC   C3B 3480   5.785   2.065   6.135  0.0135 -0.0592  0.0750
  244POPC   C4B 3481   6.074   1.891   6.449  0.1311 -0.1514  0.0435
  245POPC   NC3 3482   6.526   3.887   4.409 -0.1867  0.1716  0.0187
  245POPC   PO4 3483   6.940   3.846   4.626 -0.0158 -0.3203 -0.0713
  245POPC   GL1 3484   6.877   3.930   5.027 -0.0722 -0.1447  0.0791
  245POPC   GL2 3485   6.672   3.655   5.078  0.1949  0.2491  0.1351
  245POPC   C1A 3486   7.063   3.556   5.338 -0.0960  0.1988  0.1556
  245POPC   D2A 3487   7.015   3.355   5.770  0.1936 -0.2935  0.0944
  245POPC   C3A 3488   7.051   3.088   6.149  0.4702 -0.0869  0.1822
  245POPC   C4A 3489   7.409   2.933   6.302  0.1441 -0.1417 -0.1849
  245POPC   C1B 3490   6.592   3.558   5.527  0.0975 -0.0278  0.0578
  245POPC   C2B 3491   6.613   3.810   5.950 -0.3837  0.1971 -0.0641
  245POPC   C3B 3492   6.721   4.217   6.272 -0.1527  0.2658  0.1913
  245POPC   C4B 3493   7.091   4.379   6.455  0.2069  0.1001 -0.2592
  246POPC   NC3 3494   6.129   4.897   4.796  0.3329 -0.1568 -0.3958
  246POPC   PO4 3495   5.819   4.502   4.781 -0.2977 -0.1746  0.1364
  246POPC   GL1 3496   6.049   4.459   5.091 -0.1791 -0.0838  0.0780
  246POPC   GL2 3497   5.964   4.198   5.347 -0.2691  0.0675 -0.2457
  246POPC   C1A 3498   6.268   4.607   5.546 -0.2644 -0.2529  0.1792
  246POPC   D2A 3499   6.553   4.579   5.809 -0.1187 -0.1689  0.2163
  246POPC   C3A 3500   6.787   4.812   6.006 -0.3353  0.0333  0.0774
  246POPC   C4A 3501   7.016   5.172   6.205 -0.2331 -0.1770 -0.1654
  246POPC   C1B 3502   6.096   4.221   5.718 -0.3861 -0.0666 -0.0386
  246POPC   C2B 3503   6.185   4.330   6.132 -0.1560  0.1300 -0.0326
  246POPC   C3B 3504   5.990   4.525   6.530 -0.1046 -0.1092 -0.1072
  246POPC   C4B 3505   5.815   4.429   6.845  0.0321  0.0872  0.1104
  247POPC   NC3 3506   1.020   7.905   3.781  0.1421  0.5321  0.1466
  247POPC   PO4 3507   0.712   8.018   4.147  0.0652  0.1970  0.2250
  247POPC   GL1 3508   0.797   8.333   4.527 -0.2936 -0.0212  0.0439
  247POPC   GL2 3509   0.874   8.643   4.454 -0.2703 -0.1384  0.1455
  247POPC   C1A 3510   0.589   8.277   4.827  0.1580  0.0583  0.1587
  247POPC   D2A 3511   0.132   8.287   4.930  0.1528  0.2428  0.1769
  247POPC   C3A 3512   0.078   8.289   5.261  0.0708 -0.2138 -0.0520
  247POPC   C4A 3513  -0.053   8.431   5.679 -0.0948  0.0915  0.1455
  247POPC   C1B 3514   0.858   8.718   4.915  0.1518  0.0700  0.0342
  247POPC   C2B 3515   0.428   8.632   5.198  0.0427 -0.1375 -0.0969
  247POPC   C3B 3516   0.140   8.839   5.483  0.2048  0.0853 -0.1388
  247POPC   C4B 3517  -0.203   8.975   5.761  0.0457  0.4024 -0.2913
  248POPC   NC3 3518   5.142   2.747   4.756 -0.0520 -0.2998  0.0350
  248POPC   PO4 3519   4.841   2.871   4.995  0.3189  0.3085 -0.0183
  248POPC   GL1 3520   4.995   3.003   5.422 -0.2016 -0.0742 -0.0373
  248POPC   GL2 3521   4.935   3.141   5.701  0.1527  0.0729 -0.3445
  248POPC   C1A 3522   5.237   2.688   5.797  0.2498  0.2485 -0.0162
  248POPC   D2A 3523   5.393   2.613   6.251  0.1046  0.0950  0.2967
  248POPC   C3A 3524   5.556   2.384   6.541 -0.2549  0.2962 -0.1382
  248POPC   C4A 3525   5.937   2.310   6.720  0.2541  0.0825  0.2456
  248POPC   C1B 3526   5.248   3.099   6.068 -0.0444  0.0276 -0.0979
  248POPC   C2B 3527   5.505   3.080   6.428  0.1937 -0.0451 -0.1226
  248POPC   C3B 3528   5.523   2.774   6.783  0.0919 -0.1390 -0.1207
  248POPC   C4B 3529   5.409   2.410   7.088 -0.0035  0.1355 -0.1549
  249POPC   NC3 3530   0.475   2.565   5.045  0.3082  0.2225  0.0745
  249POPC   PO4 3531   0.660   2.943   5.215  0.2340 -0.0051  0.2096
  249POPC   GL1 3532   0.596   2.847   5.702  0.1815  0.1020 -0.0590
  249POPC   GL2 3533   0.532   2.545   5.902 -0.0173  0.1944  0.3621
  249POPC   C1A 3534   0.301   3.031   5.971 -0.1130  0.2975 -0.1538
  249POPC   D2A 3535   0.064   2.982   6.326  0.0273 -0.0952  0.0785
  249POPC   C3A 3536  -0.105   3.309   6.572  0.0599 -0.1889 -0.0300
  249POPC   C4A 3537  -0.124   3.365   7.064 -0.0291  0.0638  0.0651
  249POPC   C1B 3538   0.399   2.171   5.955  0.0756  0.0417  0.3678
  249POPC   C2B 3539   0.332   1.800   6.125  0.2974 -0.0506  0.3170
  249POPC   C3B 3540   0.369   1.570   6.530  0.3647 -0.1078  0.0654
  249POPC   C4B 3541   0.312   1.516   6.972 -0.3204  0.1496  0.3747
  250POPC   NC3 3542   8.973   6.543   4.055 -0.1107  0.0404  0.5362
  250POPC   PO4 3543   9.177   6.492   4.461  0.1284 -0.0104 -0.0413
  250POPC   GL1 3544   9.254   6.589   4.878  0.0195  0.1031  0.2522
  250POPC   GL2 3545   9.509   6.749   4.881 -0.2436 -0.2076 -0.0274
  250POPC   C1A 3546   9.280   6.576   5.260 -0.1576  0.0234 -0.1167
  250POPC   D2A 3547   9.413   6.649   5.649  0.1452  0.0131 -0.0883
  250POPC   C3A 3548   9.341   7.191   5.816  0.1927 -0.0651 -0.0188
  250POPC   C4A 3549   9.569   7.458   5.968  0.1373  0.0282 -0.1908
  250POPC   C1B 3550   9.770   6.729   5.281  0.0129  0.2246 -0.3762
  250POPC   C2B 3551   9.908   6.769   5.645  0.0269  0.0105 -0.0320
  250POPC   C3B 3552   9.675   6.750   6.018 -0.1748 -0.4059 -0.1219
  250POPC   C4B 3553   9.402   7.039   6.285 -0.0733  0.0379  0.0303
  251POPC   NC3 3554   0.420   4.970   4.965  0.0414 -0.0064 -0.1185
  251POPC   PO4 3555   0.572   4.804   5.392  0.1984  0.0961 -0.1742
  251POPC   GL1 3556   0.361   5.184   5.652 -0.2409 -0.2510  0.0183
  251POPC   GL2 3557   0.516   5.057   5.850  0.2074  0.2351 -0.0038
  251POPC   C1A 3558   0.135   5.430   6.067 -0.2280 -0.1558 -0.0182
  251POPC   D2A 3559   0.182   5.256   6.573  0.1387 -0.3801 -0.1506
  251POPC   C3A 3560   0.012   5.538   6.846  0.1512  0.1393  0.2416
  251POPC   C4A 3561   0.191   5.888   7.044 -0.1090  0.1530 -0.2081
  251POPC   C1B 3562   0.266   4.949   6.161  0.1797  0.1425  0.0184
  251POPC   C2B 3563  -0.001   4.777   6.449  0.1313 -0.0852 -0.3182
  251POPC   C3B 3564  -0.028   4.487   6.730  0.0168 -0.3479  0.2018
  251POPC   C4B 3565   0.213   4.224   6.935 -0.4833 -0.0056 -0.0746
  252POPC   NC3 3566   8.940   4.850   4.789  0.0576  0.0551  0.0393
  252POPC   PO4 3567   8.513   4.997   4.678 -0.0153  0.2561  0.1120
  252POPC   GL1 3568   8.623   5.187   5.060 -0.2859  0.2283 -0.1551
  252POPC   GL2 3569   8.917   5.228   5.141 -0.2599 -0.1491  0.2256
  252POPC   C1A 3570   8.621   5.409   5.472  0.3665  0.1546 -0.0046
  252POPC   D2A 3571   8.641   5.563   5.918 -0.0336 -0.2897 -0.0875
  252POPC   C3A 3572   8.398   5.342   6.150 -0.1375 -0.0208 -0.1315
  252POPC   C4A 3573   8.341   5.162   6.502  0.0810 -0.0887 -0.5319
  252POPC   C1B 3574   9.087   5.311   5.532  0.0756  0.0860  0.2902
  252POPC   C2B 3575   9.040   5.289   6.037 -0.0438  0.2435 -0.3231
  252POPC   C3B 3576   8.855   5.473   6.416  0.2201  0.1100  0.0278
  252POPC   C4B 3577   8.707   6.000   6.373 -0.2655 -0.1370  0.0288
  253POPC   NC3 3578   4.714   9.217   5.175 -0.1761  0.0745  0.1400
  253POPC   PO4 3579   4.725   9.603   5.406  0.2768  0.1216 -0.0628
  253POPC   GL1 3580   4.784   9.331   5.665 -0.0670  0.0195  0.2828
  253POPC   GL2 3581   4.465   9.215   5.702 -0.1892  0.0807 -0.2286
  253POPC   C1A 3582   5.037   9.229   5.940  0.1217 -0.0399  0.1185
  253POPC   D2A 3583   5.056   9.212   6.383 -0.0845 -0.1639 -0.0779
  253POPC   C3A 3584   5.336   9.185   6.634 -0.1346  0.1403  0.2611
  253POPC   C4A 3585   5.690   9.026   6.883  0.0472  0.0844 -0.3682
  253POPC   C1B 3586   4.607   9.308   6.167  0.2838 -0.2227  0.2544
  253POPC   C2B 3587   4.703   9.583   6.437 -0.0813  0.0810 -0.0593
  253POPC   C3B 3588   4.760   9.973   6.788  0.1689  0.4304  0.0805
  253POPC   C4B 3589   4.823  10.308   7.022 -0.1588 -0.0917 -0.1453
  254POPC   NC3 3590   6.783   5.736   4.785  0.3586  0.1630  0.1426
  254POPC   PO4 3591   6.468   5.761   5.056  0.0761 -0.0628 -0.2050
  254POPC   GL1 3592   6.795   6.060   5.216  0.0878  0.1453 -0.1776
  254POPC   GL2 3593   6.642   6.284   5.415  0.3053  0.1507 -0.0680
  254POPC   C1A 3594   7.168   6.220   5.345 -0.1253 -0.0715 -0.0816
  254POPC   D2A 3595   7.314   6.138   5.750  0.0894  0.2256 -0.2370
  254POPC   C3A 3596   7.435   6.321   6.142  0.1662 -0.1309  0.4054
  254POPC   C4A 3597   7.641   6.601   6.249 -0.0366  0.0439  0.0639
  254POPC   C1B 3598   6.604   5.961   5.709  0.0250 -0.1781  0.1828
  254POPC   C2B 3599   6.351   5.669   6.033  0.2467  0.1458  0.3027
  254POPC   C3B 3600   6.200   5.647   6.397 -0.1871 -0.3097 -0.2630
  254POPC   C4B 3601   6.309   5.608   6.791 -0.0542 -0.2045  0.3043
  255POPC   NC3 3602   0.222   1.014   4.578 -0.2308  0.0058  0.1657
  255POPC   PO4 3603   0.317   1.348   4.814 -0.0889  0.1630  0.2413
  255POPC   GL1 3604   0.253   1.193   5.301 -0.0855 -0.0591  0.0085
  255POPC   GL2 3605   0.473   1.065   5.439 -0.1102  0.0445  0.2262
  255POPC   C1A 3606  -0.151   1.070   5.574 -0.2644 -0.0214  0.2717
  255POPC   D2A 3607  -0.614   1.082   5.615 -0.0546  0.1997  0.1788
  255POPC   C3A 3608  -0.667   0.896   5.974 -0.5349  0.1661  0.0491
  255POPC   C4A 3609  -0.682   0.457   6.194 -0.0186  0.4936  0.1513
  255POPC   C1B 3610   0.569   1.278   5.846 -0.2851 -0.0818 -0.3006
  255POPC   C2B 3611   0.447   1.071   6.264  0.0296  0.2719  0.2981
  255POPC   C3B 3612   0.465   1.074   6.649 -0.1686 -0.0442  0.3316
  255POPC   C4B 3613   0.422   0.996   7.061  0.1289  0.2245  0.0776
  256POPC   NC3 3614   4.348   3.644   5.154 -0.0638 -0.2207 -0.0549
  256POPC   PO4 3615   4.535   3.849   5.444  0.1040  0.1206  0.0955
  256POPC   GL1 3616   4.677   3.779   5.754  0.1324 -0.2489  0.1835
  256POPC   GL2 3617   4.538   4.059   5.936  0.0405  0.0426 -0.2043
  256POPC   C1A 3618   4.601   3.470   6.038  0.1395 -0.1108  0.0144
  256POPC   D2A 3619   4.772   3.273   6.284 -0.4386  0.2443 -0.0109
  256POPC   C3A 3620   4.528   2.955   6.581 -0.3874 -0.3236  0.0344
  256POPC   C4A 3621   4.126   2.823   6.641 -0.1555 -0.0694  0.1138
  256POPC   C1B 3622   4.743   3.861   6.274  0.0243 -0.0809  0.0979
  256POPC   C2B 3623   4.657   3.735   6.731 -0.0114  0.3299  0.1633
  256POPC   C3B 3624   4.384   3.501   6.925  0.0874 -0.2019  0.1879
  256POPC   C4B 3625   4.331   3.101   7.044 -0.3743  0.0923  0.3517
  257POPC   NC3 3626   4.778   3.411   5.290 -0.1423  0.0763 -0.0396
  257POPC   PO4 3627   4.436   3.032   5.343  0.0357 -0.2216  0.0214
  257POPC   GL1 3628   4.376   3.175   5.653  0.1702 -0.0211 -0.0665
  257POPC   GL2 3629   4.178   3.467   5.684 -0.1041  0.2481 -0.1587
  257POPC   C1A 3630   4.166   3.069   6.017 -0.0009 -0.2140  0.2932
  257POPC   D2A 3631   3.794   3.022   6.348 -0.2661 -0.0480 -0.1833
  257POPC   C3A 3632   3.619   2.930   6.672  0.1040  0.3386  0.0539
  257POPC   C4A 3633   3.827   2.835   7.054 -0.1059  0.0415 -0.0129
  257POPC   C1B 3634   4.131   3.582   6.096  0.1692 -0.1471  0.0141
  257POPC   C2B 3635   4.265   3.488   6.459 -0.2302 -0.1613 -0.2285
  257POPC   C3B 3636   3.978   3.302   6.761 -0.1471  0.2274  0.1537
  257POPC   C4B 3637   3.500   3.305   6.982 -0.2291  0.1636 -0.2175
  258POPC   NC3 3638   1.035   3.167   5.412  0.0189 -0.1769  0.1267
  258POPC   PO4 3639   1.479   3.040   5.372  0.0360 -0.1026  0.1316
  258POPC   GL1 3640   1.754   2.958   5.670 -0.1028 -0.1493  0.0620
  258POPC   GL2 3641   2.099   2.949   5.655  0.0932 -0.0159 -0.1894
  258POPC   C1A 3642   1.780   3.051   6.166 -0.0019 -0.3109  0.3125
  258POPC   D2A 3643   1.822   3.147   6.588  0.0087 -0.0323  0.0726
  258POPC   C3A 3644   1.656   2.992   6.916 -0.1982 -0.0809 -0.2171
  258POPC   C4A 3645   1.293   3.066   7.213  0.0589  0.0384  0.0746
  258POPC   C1B 3646   2.161   2.733   6.068  0.1543 -0.3032 -0.0637
  258POPC   C2B 3647   2.050   2.666   6.509  0.1322 -0.1223  0.1495
  258POPC   C3B 3648   2.205   2.622   6.871 -0.1396 -0.0661 -0.0020
  258POPC   C4B 3649   2.516   2.633   7.210 -0.0930  0.2594  0.1642
  259POPC   NC3 3650   1.150   2.639   5.225 -0.0212 -0.0481 -0.2471
  259POPC   PO4 3651   0.931   2.529   5.573  0.0383  0.2068  0.0402
  259POPC   GL1 3652   1.204   2.744   5.717  0.1286 -0.0990  0.3754
  259POPC   GL2 3653   1.038   2.917   5.865 -0.0744 -0.1357 -0.2151
  259POPC   C1A 3654   1.430   2.750   6.039  0.0968 -0.1871 -0.0849
  259POPC   D2A 3655   1.585   2.683   6.492  0.4666  0.0244  0.1139
  259POPC   C3A 3656   1.274   2.602   6.876 -0.2930  0.2060 -0.0314
  259POPC   C4A 3657   0.997   2.789   6.948  0.1639  0.1371  0.0354
  259POPC   C1B 3658   0.795   3.029   6.195  0.1799  0.0483  0.0533
  259POPC   C2B 3659   0.626   2.999   6.641 -0.2024  0.2348 -0.0226
  259POPC   C3B 3660   0.514   2.954   7.168 -0.3912  0.2054  0.2507
  259POPC   C4B 3661   0.427   2.892   7.603  0.1596  0.1979  0.0193
  260POPC   NC3 3662   4.187   2.202   5.115 -0.1067  0.0011  0.2137
  260POPC   PO4 3663   3.799   2.498   4.923 -0.1302  0.1519  0.0955
  260POPC   GL1 3664   3.798   2.466   5.408  0.1876 -0.0697  0.2065
  260POPC   GL2 3665   3.809   2.748   5.616 -0.2218 -0.0816  0.0332
  260POPC   C1A 3666   3.567   2.216   5.842  0.4300 -0.1911  0.1823
  260POPC   D2A 3667   3.092   2.310   6.067  0.0109  0.0754 -0.0358
  260POPC   C3A 3668   3.055   2.644   6.339  0.0232 -0.1245 -0.0703
  260POPC   C4A 3669   3.169   3.082   6.608  0.0578 -0.1634  0.0169
  260POPC   C1B 3670   3.952   2.669   5.944  0.0079 -0.2257  0.2524
  260POPC   C2B 3671   4.332   2.654   6.219  0.2161  0.0083  0.3230
  260POPC   C3B 3672   4.576   2.418   6.497 -0.5502 -0.2466  0.1541
  260POPC   C4B 3673   5.021   2.400   6.572 -0.0162 -0.1837 -0.2488
  261POPC   NC3 3674   6.506   7.428   4.381 -0.1549 -0.0847  0.0879
  261POPC   PO4 3675   6.746   7.074   4.337  0.2384  0.2824 -0.0169
  261POPC   GL1 3676   6.849   7.184   4.719 -0.0249 -0.0099 -0.2928
  261POPC   GL2 3677   6.634   7.401   4.828 -0.0965 -0.1801 -0.1428
  261POPC   C1A 3678   7.037   7.479   5.101  0.0376 -0.1473 -0.1881
  261POPC   D2A 3679   7.411   7.683   5.228  0.1686  0.1070  0.1015
  261POPC   C3A 3680   7.774   7.813   4.958  0.0349  0.0666  0.0463
  261POPC   C4A 3681   7.990   8.094   5.070  0.0004 -0.0352 -0.2791
  261POPC   C1B 3682   6.516   7.215   5.242  0.0797 -0.0209 -0.2539
  261POPC   C2B 3683   6.763   7.236   5.570  0.0595 -0.0666 -0.3218
  261POPC   C3B 3684   6.813   7.033   5.930  0.2467 -0.0967  0.0102
  261POPC   C4B 3685   7.151   6.753   6.201 -0.0164 -0.0463 -0.0065
  262POPC   NC3 3686   1.092   1.776   4.827 -0.1880  0.4635  0.0209
  262POPC   PO4 3687   1.091   1.712   5.167 -0.1889 -0.2741 -0.2460
  262POPC   GL1 3688   1.334   1.625   5.459  0.0320 -0.0534 -0.1469
  262POPC   GL2 3689   1.248   1.795   5.727  0.0491  0.1264  0.2402
  262POPC   C1A 3690   1.601   1.265   5.686  0.0882  0.0418  0.1200
  262POPC   D2A 3691   1.846   1.218   6.022 -0.0664 -0.1296 -0.3414
  262POPC   C3A 3692   1.849   1.270   6.388  0.1686 -0.1838  0.0427
  262POPC   C4A 3693   2.009   1.272   6.798 -0.1013 -0.1041  0.1052
  262POPC   C1B 3694   1.507   1.876   6.155  0.2476 -0.0082  0.2986
  262POPC   C2B 3695   1.694   1.707   6.568 -0.0260  0.0803  0.0632
  262POPC   C3B 3696   1.776   1.787   6.896  0.1682  0.1366 -0.0674
  262POPC   C4B 3697   1.773   1.986   7.280 -0.1662 -0.1096  0.1335
  263POPC   NC3 3698   5.741   9.737   4.429  0.0906 -0.0529 -0.0597
  263POPC   PO4 3699   5.938   9.945   4.789  0.0083  0.1109  0.0674
  263POPC   GL1 3700   6.122   9.955   5.242  0.0182 -0.1098  0.0041
  263POPC   GL2 3701   6.262  10.136   5.389 -0.1555  0.0067 -0.0167
  263POPC   C1A 3702   6.303   9.705   5.616 -0.0406  0.1674  0.2596
  263POPC   D2A 3703   6.284   9.551   6.073 -0.1708  0.0727  0.1272
  263POPC   C3A 3704   6.725   9.341   6.163 -0.1268  0.0950 -0.2647
  263POPC   C4A 3705   7.016   9.170   6.518  0.1385  0.1373  0.1203
  263POPC   C1B 3706   6.364  10.194   5.805 -0.3894  0.2370  0.1207
  263POPC   C2B 3707   6.746  10.093   6.143  0.2475 -0.0846 -0.0053
  263POPC   C3B 3708   6.716   9.805   6.548 -0.3040 -0.3386  0.1632
  263POPC   C4B 3709   6.835   9.818   6.953  0.1435 -0.3719 -0.1216
  264POPC   NC3 3710   8.183   7.112   3.658 -0.0468 -0.2148 -0.0389
  264POPC   PO4 3711   7.878   6.938   3.851  0.0609 -0.1116 -0.0577
  264POPC   GL1 3712   7.798   7.071   4.353  0.0227  0.4950  0.2178
  264POPC   GL2 3713   7.749   6.708   4.567 -0.3920 -0.0080  0.0162
  264POPC   C1A 3714   7.988   7.234   4.728  0.0658 -0.1869  0.0120
  264POPC   D2A 3715   8.199   7.343   5.102  0.0698 -0.1451 -0.0484
  264POPC   C3A 3716   8.288   7.758   5.266  0.1851  0.0214  0.2817
  264POPC   C4A 3717   8.352   8.140   5.505  0.1967  0.0300 -0.1516
  264POPC   C1B 3718   7.900   6.746   5.070  0.1520  0.3113  0.0350
  264POPC   C2B 3719   8.274   6.879   5.336 -0.1433  0.3380 -0.2918
  264POPC   C3B 3720   8.518   7.053   5.622  0.3546 -0.0733  0.0651
  264POPC   C4B 3721   8.460   7.140   6.082  0.3131  0.1767  0.0983
  265POPC   NC3 3722   2.587   1.953   5.525 -0.4207  0.1943  0.3037
  265POPC   PO4 3723   2.217   1.724   5.394 -0.1441  0.0181 -0.3052
  265POPC   GL1 3724   2.251   1.676   5.880  0.1110 -0.1607  0.3113
  265POPC   GL2 3725   2.544   1.569   5.940  0.1180 -0.1184  0.3591
  265POPC   C1A 3726   2.136   1.782   6.291 -0.2025 -0.0720  0.0818
  265POPC   D2A 3727   2.241   1.747   6.637  0.0853 -0.3833 -0.1544
  265POPC   C3A 3728   2.224   2.083   7.030  0.1169  0.3556  0.0305
  265POPC   C4A 3729   2.089   2.324   7.400  0.3292 -0.0822  0.1161
  265POPC   C1B 3730   2.692   1.694   6.388  0.3110  0.0974 -0.1191
  265POPC   C2B 3731   2.963   1.955   6.451 -0.0165 -0.1199 -0.0215
  265POPC   C3B 3732   3.129   2.011   6.912 -0.1124  0.1307 -0.2830
  265POPC   C4B 3733   3.083   2.164   7.340 -0.0067  0.0246  0.0668
  266POPC   NC3 3734   9.302   4.505   4.901  0.2643 -0.3501  0.2241
  266POPC   PO4 3735   9.485   4.851   4.751 -0.2011  0.2825  0.0008
  266POPC   GL1 3736   9.357   4.874   5.263  0.2581  0.0426 -0.3685
  266POPC   GL2 3737   9.075   4.698   5.260  0.1497  0.1162  0.0306
  266POPC   C1A 3738   9.337   5.004   5.796  0.0552  0.1409 -0.0375
  266POPC   D2A 3739   9.320   4.908   6.233 -0.3602  0.3499  0.1651
  266POPC   C3A 3740   9.242   5.229   6.622 -0.1092  0.2392  0.1272
  266POPC   C4A 3741   9.463   5.475   6.825  0.3378 -0.0551 -0.2227
  266POPC   C1B 3742   8.662   4.942   5.498  0.1791  0.1970 -0.1742
  266POPC   C2B 3743   8.373   5.011   5.806  0.2527 -0.2357 -0.0476
  266POPC   C3B 3744   8.127   4.915   6.126  0.1841  0.1533  0.1384
  266POPC   C4B 3745   7.886   4.821   6.552  0.0788 -0.2786  0.0931
  267POPC   NC3 3746   8.252   9.899   3.526  0.0741  0.0685 -0.1305
  267POPC   PO4 3747   8.663   9.893   3.802 -0.1185  0.2499  0.0513
  267POPC   GL1 3748   8.656   9.765   4.191 -0.1077  0.0556  0.0158
  267POPC   GL2 3749   9.044   9.878   4.308  0.1767  0.3552 -0.0953
  267POPC   C1A 3750   8.785   9.566   4.586  0.2399 -0.0962 -0.2556
  267POPC   D2A 3751   8.811   9.549   5.076  0.3142  0.2159 -0.0243
  267POPC   C3A 3752   8.518   9.178   5.255 -0.2842 -0.1117  0.0887
  267POPC   C4A 3753   8.511   8.772   5.276  0.0546  0.1255 -0.2605
  267POPC   C1B 3754   9.430   9.712   4.321  0.0686  0.1654  0.2161
  267POPC   C2B 3755   9.625   9.544   4.740  0.1302  0.2281  0.0046
  267POPC   C3B 3756   9.404   9.407   5.106 -0.0902  0.0195  0.1344
  267POPC   C4B 3757   9.452   9.367   5.498  0.1079 -0.0416  0.1279
  268POPC   NC3 3758   6.048   1.711   4.660  0.0055  0.0361 -0.2993
  268POPC   PO4 3759   5.748   2.052   4.729  0.2538 -0.0926  0.0249
  268POPC   GL1 3760   5.887   1.937   5.067 -0.2136  0.0881 -0.1776
  268POPC   GL2 3761   6.062   1.672   5.164  0.4078 -0.0490 -0.3295
  268POPC   C1A 3762   5.773   1.846   5.482 -0.0250  0.0538 -0.1604
  268POPC   D2A 3763   5.624   1.642   5.706  0.1795  0.1955 -0.1629
  268POPC   C3A 3764   5.306   1.686   5.976  0.1495  0.3484 -0.0158
  268POPC   C4A 3765   5.531   1.568   6.414 -0.0800 -0.0453 -0.0454
  268POPC   C1B 3766   6.492   1.614   5.480  0.1352 -0.1395  0.0936
  268POPC   C2B 3767   6.533   1.574   5.889 -0.1406  0.3321  0.2749
  268POPC   C3B 3768   6.618   1.741   6.313  0.0596  0.0045 -0.1635
  268POPC   C4B 3769   6.594   1.691   6.712 -0.3198  0.2353  0.1499
  269POPC   NC3 3770   6.144   7.617   4.049  0.1346  0.1161 -0.2356
  269POPC   PO4 3771   6.066   7.661   4.502  0.0250  0.0684 -0.0148
  269POPC   GL1 3772   6.237   7.622   4.907  0.2334 -0.3525  0.1307
  269POPC   GL2 3773   6.159   7.743   5.250 -0.4114 -0.1100 -0.2968
  269POPC   C1A 3774   6.635   7.726   5.180  0.1485  0.0590 -0.0955
  269POPC   D2A 3775   7.004   8.000   5.273 -0.2786 -0.0430  0.1160
  269POPC   C3A 3776   7.208   8.266   5.666  0.0971  0.0160 -0.0781
  269POPC   C4A 3777   7.277   8.565   5.969  0.1728 -0.0349  0.0038
  269POPC   C1B 3778   6.328   7.592   5.556  0.0191 -0.2077  0.1031
  269POPC   C2B 3779   6.157   7.852   5.868 -0.3740 -0.0179  0.0666
  269POPC   C3B 3780   6.284   7.859   6.262 -0.1065  0.1805  0.1231
  269POPC   C4B 3781   6.005   7.974   6.531  0.3091  0.1098  0.3311
  270POPC   NC3 3782   1.632   0.538   5.271 -0.4045  0.2653 -0.1229
  270POPC   PO4 3783   1.409   0.409   4.793  0.0636  0.0088 -0.2622
  270POPC   GL1 3784   1.174   0.276   5.094  0.2406  0.1784  0.0190
  270POPC   GL2 3785   1.338   0.156   5.323  0.2076 -0.1956 -0.1317
  270POPC   C1A 3786   0.897   0.010   5.577  0.2682  0.0408  0.4902
  270POPC   D2A 3787   0.878   0.022   6.084 -0.2330 -0.1519  0.2256
  270POPC   C3A 3788   0.565   0.160   6.419 -0.2303 -0.2772  0.1762
  270POPC   C4A 3789   0.380   0.148   6.773  0.1189  0.2669  0.2091
  270POPC   C1B 3790   1.249   0.296   5.752  0.0163 -0.0642  0.2365
  270POPC   C2B 3791   1.175   0.424   6.224  0.1156  0.3258  0.1268
  270POPC   C3B 3792   1.125   0.856   6.373 -0.0240 -0.0180  0.0176
  270POPC   C4B 3793   0.940   0.985   6.706  0.0153 -0.1290  0.2660
  271POPC   NC3 3794   6.554   3.390   4.504  0.1698  0.0130  0.0737
  271POPC   PO4 3795   6.239   3.689   4.787  0.0876  0.0425 -0.1964
  271POPC   GL1 3796   6.044   3.707   5.308 -0.2163  0.2854 -0.2825
  271POPC   GL2 3797   5.738   3.771   5.391 -0.2259  0.0493 -0.1849
  271POPC   C1A 3798   6.116   3.658   5.729  0.1093 -0.1226 -0.4123
  271POPC   D2A 3799   6.063   3.721   6.239  0.0527 -0.3168  0.2471
  271POPC   C3A 3800   6.316   4.041   6.479  0.0807  0.1656 -0.3013
  271POPC   C4A 3801   6.636   4.351   6.711  0.1059 -0.4233  0.1387
  271POPC   C1B 3802   5.653   4.010   5.742  0.1609 -0.2039 -0.1498
  271POPC   C2B 3803   5.719   4.225   6.042  0.1624 -0.0891 -0.2880
  271POPC   C3B 3804   5.792   4.039   6.465  0.3158  0.3289  0.4536
  271POPC   C4B 3805   5.935   3.881   6.887  0.2743 -0.1936  0.1710
  272POPC   NC3 3806   4.612   2.552   5.353  0.3175 -0.1781  0.1001
  272POPC   PO4 3807   4.315   2.559   5.479  0.0287  0.6918 -0.2348
  272POPC   GL1 3808   4.670   2.734   5.810 -0.2217  0.1408  0.0036
  272POPC   GL2 3809   4.632   2.427   5.849  0.3709  0.0468 -0.1133
  272POPC   C1A 3810   4.875   2.828   6.196  0.2304  0.1182  0.0994
  272POPC   D2A 3811   5.051   2.887   6.589 -0.0812  0.3166  0.0207
  272POPC   C3A 3812   4.946   2.854   6.963 -0.0578 -0.4842  0.3080
  272POPC   C4A 3813   4.858   2.517   7.088 -0.0104 -0.2193  0.0088
  272POPC   C1B 3814   4.906   2.292   6.097  0.2075 -0.3590  0.1982
  272POPC   C2B 3815   5.284   2.080   6.281 -0.1015 -0.0818  0.1726
  272POPC   C3B 3816   5.481   1.934   6.772 -0.1891 -0.0756 -0.0625
  272POPC   C4B 3817   5.935   1.822   6.911  0.0836 -0.0336  0.0183
  273POPC   NC3 3818   2.997   2.064   4.854  0.3824  0.2121  0.1079
  273POPC   PO4 3819   3.050   1.858   5.270  0.0613 -0.0634 -0.3388
  273POPC   GL1 3820   3.031   1.712   5.725  0.1657  0.0730  0.3005
  273POPC   GL2 3821   3.340   1.792   5.759  0.0741  0.2196  0.1144
  273POPC   C1A 3822   2.947   1.351   6.130 -0.2041  0.1665  0.0783
  273POPC   D2A 3823   2.960   1.407   6.609 -0.3318  0.1970 -0.0173
  273POPC   C3A 3824   2.760   1.690   6.872 -0.1021 -0.1287 -0.2376
  273POPC   C4A 3825   2.659   1.930   7.152 -0.1595  0.1508 -0.5939
  273POPC   C1B 3826   3.300   1.736   6.151  0.3170 -0.1409 -0.2037
  273POPC   C2B 3827   3.440   1.499   6.524  0.0254 -0.1140  0.2023
  273POPC   C3B 3828   3.368   1.023   6.490  0.0704  0.0926  0.0968
  273POPC   C4B 3829   3.474   0.616   6.636 -0.0915  0.0954  0.0558
  274POPC   NC3 3830   5.393   8.034   4.989  0.3976  0.0111 -0.1767
  274POPC   PO4 3831   5.551   8.425   4.769 -0.1241 -0.0493 -0.2217
  274POPC   GL1 3832   5.588   8.489   5.181 -0.1872  0.0823 -0.0514
  274POPC   GL2 3833   5.712   8.205   5.310  0.2137  0.0250  0.1579
  274POPC   C1A 3834   5.371   8.745   5.494 -0.0174  0.0302  0.2147
  274POPC   D2A 3835   5.570   8.648   5.907  0.1755 -0.0608  0.0689
  274POPC   C3A 3836   5.519   9.049   6.116 -0.2930  0.0022  0.2124
  274POPC   C4A 3837   5.875   9.125   6.430 -0.0558 -0.2687 -0.0123
  274POPC   C1B 3838   6.026   8.250   5.649 -0.0587 -0.0376 -0.3527
  274POPC   C2B 3839   6.144   8.567   5.840 -0.1493  0.4293  0.0608
  274POPC   C3B 3840   6.356   8.906   5.650  0.1862  0.1059  0.1665
  274POPC   C4B 3841   6.465   9.240   5.692  0.1380 -0.1821 -0.3612
  275POPC   NC3 3842   7.057   0.916   4.215  0.0546 -0.0302  0.2184
  275POPC   PO4 3843   7.355   1.114   4.105  0.0055  0.0629  0.0003
  275POPC   GL1 3844   7.449   0.692   4.458 -0.0318 -0.0014  0.0178
  275POPC   GL2 3845   7.708   0.648   4.648  0.1817  0.3039  0.3127
  275POPC   C1A 3846   7.340   0.651   4.951  0.0776 -0.1358 -0.0994
  275POPC   D2A 3847   7.013   0.817   5.137  0.0463  0.2505  0.2287
  275POPC   C3A 3848   7.117   0.885   5.506  0.0388 -0.2245  0.0717
  275POPC   C4A 3849   6.945   0.903   5.954  0.4882 -0.1697 -0.1216
  275POPC   C1B 3850   7.932   0.867   4.922 -0.1043 -0.0195 -0.2684
  275POPC   C2B 3851   7.796   0.917   5.329 -0.2113 -0.1837  0.0345
  275POPC   C3B 3852   7.612   0.871   5.694  0.0019  0.4465 -0.2419
  275POPC   C4B 3853   7.475   0.951   6.071 -0.2872 -0.2373  0.0240
  276POPC   NC3 3854   0.320   0.165   4.056  0.1080  0.0277  0.2912
  276POPC   PO4 3855   0.109   0.022   3.794 -0.0648 -0.0565  0.0796
  276POPC   GL1 3856  -0.176   0.007   4.244  0.1214  0.2264  0.1901
  276POPC   GL2 3857  -0.468   0.177   4.267 -0.1509  0.2609  0.2901
  276POPC   C1A 3858  -0.251  -0.450   4.390 -0.0337  0.1429 -0.0271
  276POPC   D2A 3859  -0.045  -0.750   4.565 -0.0262 -0.2042  0.1178
  276POPC   C3A 3860  -0.148  -0.772   4.931  0.0852  0.0848 -0.0062
  276POPC   C4A 3861  -0.285  -1.055   5.240 -0.2218 -0.1214 -0.1934
  276POPC   C1B 3862  -0.498  -0.113   4.642  0.2229  0.4483 -0.2177
  276POPC   C2B 3863  -0.550  -0.241   5.082 -0.0111  0.1866  0.1011
  276POPC   C3B 3864  -0.301  -0.524   5.317  0.1120 -0.1512  0.0578
  276POPC   C4B 3865  -0.082  -0.669   5.705  0.1341 -0.3469 -0.1666
  277POPC   NC3 3866   6.528   6.718   4.752 -0.1735 -0.1111 -0.1836
  277POPC   PO4 3867   6.384   6.578   5.102  0.0769  0.0485  0.1588
  277POPC   GL1 3868   6.343   6.630   5.513 -0.2327 -0.1386  0.3645
  277POPC   GL2 3869   6.314   6.971   5.669  0.0627  0.0419 -0.2204
  277POPC   C1A 3870   6.471   6.504   5.855 -0.1706 -0.2835  0.2938
  277POPC   D2A 3871   6.846   6.299   5.960 -0.0552 -0.2413 -0.1433
  277POPC   C3A 3872   7.020   6.276   6.407 -0.1067  0.2253  0.2344
  277POPC   C4A 3873   7.261   6.584   6.668  0.0173  0.0733 -0.1047
  277POPC   C1B 3874   6.472   7.410   5.988 -0.3267  0.2337 -0.3410
  277POPC   C2B 3875   6.893   7.506   6.124  0.0235  0.0761  0.0547
  277POPC   C3B 3876   7.310   7.529   6.409  0.4501 -0.0267  0.0404
  277POPC   C4B 3877   7.615   7.895   6.451 -0.1497 -0.0593  0.0829
  278POPC   NC3 3878   2.469   9.744   4.815  0.2029 -0.0866 -0.0980
  278POPC   PO4 3879   2.398  10.169   5.012 -0.3167  0.2161  0.3364
  278POPC   GL1 3880   2.161   9.775   5.231 -0.3134  0.0034 -0.0067
  278POPC   GL2 3881   1.838   9.760   5.270  0.1100 -0.1922 -0.1516
  278POPC   C1A 3882   2.127   9.697   5.644 -0.2199  0.0230  0.0314
  278POPC   D2A 3883   1.861   9.398   5.920 -0.3390 -0.0333  0.0838
  278POPC   C3A 3884   1.395   9.628   6.008  0.0358  0.3656 -0.1502
  278POPC   C4A 3885   1.051   9.733   6.281  0.2830 -0.0378 -0.0229
  278POPC   C1B 3886   1.413   9.939   5.627  0.1494 -0.1120  0.0804
  278POPC   C2B 3887   1.403  10.113   6.076  0.0151  0.1261  0.1396
  278POPC   C3B 3888   1.515   9.916   6.436 -0.2428  0.1484  0.0762
  278POPC   C4B 3889   1.279   9.752   6.825  0.2208  0.2387  0.0875
  279POPC   NC3 3890   0.681   0.193   4.400 -0.1189  0.0015  0.1934
  279POPC   PO4 3891   0.436   0.570   4.347 -0.3402 -0.0935 -0.1360
  279POPC   GL1 3892   0.263   0.553   4.763 -0.3028  0.2637 -0.0633
  279POPC   GL2 3893   0.159   0.782   5.085  0.0828  0.0100 -0.0623
  279POPC   C1A 3894   0.000   0.176   4.980  0.2602 -0.0023  0.0145
  279POPC   D2A 3895  -0.001  -0.280   4.930  0.0966 -0.2528 -0.0797
  279POPC   C3A 3896   0.168  -0.495   5.108 -0.2773  0.1157 -0.0594
  279POPC   C4A 3897   0.184  -0.879   5.332  0.2343  0.1374  0.1096
  279POPC   C1B 3898  -0.126   0.536   5.437  0.3543  0.1175 -0.0598
  279POPC   C2B 3899  -0.250   0.029   5.457  0.0298 -0.2226 -0.2683
  279POPC   C3B 3900  -0.574  -0.257   5.691  0.2577 -0.0113 -0.0621
  279POPC   C4B 3901  -0.885  -0.491   5.806 -0.2313 -0.3617 -0.1243
  280POPC   NC3 3902  10.142   2.637   5.083  0.1242  0.3058 -0.2650
  280POPC   PO4 3903   9.935   2.408   4.871  0.1470 -0.3060  0.3079
  280POPC   GL1 3904   9.846   2.273   5.331  0.0381  0.0909  0.1412
  280POPC   GL2 3905   9.769   1.997   5.480  0.1101  0.2350 -0.0119
  280POPC   C1A 3906   9.644   2.437   5.676  0.0862  0.0820 -0.2307
  280POPC   D2A 3907   9.725   2.490   6.094 -0.0601 -0.1416  0.3217
  280POPC   C3A 3908   9.461   2.351   6.378  0.0886  0.2230 -0.0127
  280POPC   C4A 3909   9.497   2.371   6.869 -0.0407  0.1302  0.1067
  280POPC   C1B 3910   9.465   1.978   5.824  0.1515 -0.1052 -0.1225
  280POPC   C2B 3911   9.590   1.885   6.273 -0.1070 -0.1047  0.0751
  280POPC   C3B 3912   9.533   1.897   6.742 -0.2957 -0.1414  0.0320
  280POPC   C4B 3913   9.250   1.948   7.040  0.0840  0.0016  0.0132
  281POPC   NC3 3914   7.739   4.085   4.770  0.0800  0.2832 -0.0108
  281POPC   PO4 3915   8.202   3.909   4.683 -0.0523  0.2287  0.1074
  281POPC   GL1 3916   8.142   3.894   5.151 -0.1122  0.1382 -0.3758
  281POPC   GL2 3917   8.008   3.757   5.411  0.1783  0.0556  0.2611
  281POPC   C1A 3918   8.132   4.282   5.504 -0.3947  0.0964 -0.3663
  281POPC   D2A 3919   8.043   4.437   5.945  0.0884  0.1356  0.1774
  281POPC   C3A 3920   8.052   4.377   6.369  0.1417  0.1013 -0.0155
  281POPC   C4A 3921   8.056   4.255   6.777 -0.1718 -0.0330  0.0347
  281POPC   C1B 3922   7.927   3.505   5.728  0.1948  0.0516 -0.0789
  281POPC   C2B 3923   7.509   3.435   6.032  0.0079  0.1278 -0.2316
  281POPC   C3B 3924   7.483   3.432   6.525  0.0235  0.6726  0.0813
  281POPC   C4B 3925   7.795   3.221   6.801  0.2533 -0.0412 -0.1305
  282POPC   NC3 3926   5.285   5.186   4.480 -0.2801 -0.0294  0.0578
  282POPC   PO4 3927   5.213   4.942   4.944 -0.3145  0.0718  0.0054
  282POPC   GL1 3928   5.365   4.974   5.419  0.0921 -0.1516 -0.0869
  282POPC   GL2 3929   5.351   5.241   5.602 -0.2098  0.1099  0.0485
  282POPC   C1A 3930   5.241   4.793   5.824  0.5352  0.0464 -0.1722
  282POPC   D2A 3931   5.386   4.594   6.117 -0.0730 -0.2819  0.0277
  282POPC   C3A 3932   5.468   4.637   6.538  0.1396 -0.3768 -0.1768
  282POPC   C4A 3933   5.265   4.665   7.027 -0.1857 -0.0987  0.1517
  282POPC   C1B 3934   5.380   5.257   5.976  0.0426 -0.1710  0.1110
  282POPC   C2B 3935   5.433   5.142   6.376  0.0045  0.1937 -0.0190
  282POPC   C3B 3936   5.658   5.159   6.735 -0.1163 -0.0992  0.0609
  282POPC   C4B 3937   5.668   4.884   7.035  0.0413 -0.2387  0.3203
  283POPC   NC3 3938   9.807   7.478   3.625  0.2214  0.0417 -0.2445
  283POPC   PO4 3939   9.470   7.858   3.497 -0.3433 -0.1152 -0.1574
  283POPC   GL1 3940   9.344   7.873   3.990  0.0252 -0.0913 -0.2429
  283POPC   GL2 3941   9.101   7.559   4.125 -0.2287 -0.2051  0.1720
  283POPC   C1A 3942   9.417   8.198   4.323  0.2049  0.0937 -0.0030
  283POPC   D2A 3943   9.338   8.325   4.768  0.0525  0.1147 -0.1153
  283POPC   C3A 3944   9.046   8.052   5.093  0.0365 -0.2432 -0.0667
  283POPC   C4A 3945   8.889   7.909   5.423 -0.0226  0.0697 -0.2268
  283POPC   C1B 3946   8.813   7.457   4.475 -0.0920  0.0695  0.2443
  283POPC   C2B 3947   8.576   7.195   4.768 -0.1484 -0.1037  0.0488
  283POPC   C3B 3948   8.723   7.099   5.130 -0.0877 -0.2424 -0.0100
  283POPC   C4B 3949   8.806   6.710   5.222 -0.1443  0.1133  0.0908
  284POPC   NC3 3950   4.846  10.096   5.251 -0.0120 -0.0620 -0.0092
  284POPC   PO4 3951   4.724  10.458   5.143  0.2479 -0.2795  0.1393
  284POPC   GL1 3952   4.704  10.355   5.666  0.0472 -0.4273 -0.1121
  284POPC   GL2 3953   4.967  10.502   5.927 -0.1356 -0.0362  0.0051
  284POPC   C1A 3954   4.379  10.453   5.916  0.0942  0.1962  0.1260
  284POPC   D2A 3955   4.109  10.696   6.161 -0.2534 -0.0150 -0.2210
  284POPC   C3A 3956   3.942  10.469   6.543  0.1350  0.1090  0.2672
  284POPC   C4A 3957   3.677  10.305   6.754  0.0719 -0.2236  0.0755
  284POPC   C1B 3958   5.018  10.812   6.283  0.3376  0.0834 -0.0991
  284POPC   C2B 3959   4.770  11.001   6.599 -0.2459  0.2998 -0.0833
  284POPC   C3B 3960   4.892  11.417   6.822 -0.0441 -0.3797  0.0881
  284POPC   C4B 3961   4.741  11.549   7.291  0.0659 -0.0438  0.3240
  285POPC   NC3 3962   5.632  10.169   5.089 -0.1062  0.0446 -0.2091
  285POPC   PO4 3963   5.226  10.377   5.246  0.1807  0.0116  0.0769
  285POPC   GL1 3964   5.395  10.178   5.526  0.2399  0.1783 -0.4925
  285POPC   GL2 3965   5.676  10.007   5.605 -0.1036 -0.0496  0.2899
  285POPC   C1A 3966   5.383  10.135   5.991 -0.0599  0.0078  0.1964
  285POPC   D2A 3967   5.162  10.203   6.444  0.1166  0.1838  0.2104
  285POPC   C3A 3968   5.196  10.706   6.797 -0.2619 -0.0861  0.3066
  285POPC   C4A 3969   5.568  10.752   7.161  0.0832 -0.0349  0.1997
  285POPC   C1B 3970   5.893   9.912   5.854 -0.4806  0.0618  0.2591
  285POPC   C2B 3971   6.175   9.994   6.284 -0.2507  0.2103 -0.0899
  285POPC   C3B 3972   6.182   9.764   6.743 -0.3114  0.1321  0.1480
  285POPC   C4B 3973   6.098   9.386   6.972 -0.1915 -0.1521  0.1142
  286POPC   NC3 3974   3.159   4.168   5.269  0.1638 -0.0601  0.0325
  286POPC   PO4 3975   3.576   4.071   5.488  0.0354  0.2115  0.3661
  286POPC   GL1 3976   3.245   4.260   5.732 -0.0779  0.1100 -0.1641
  286POPC   GL2 3977   3.160   3.959   5.788 -0.0536  0.0365  0.1009
  286POPC   C1A 3978   3.129   4.335   6.105 -0.3140 -0.0693 -0.2222
  286POPC   D2A 3979   3.102   4.385   6.534 -0.1067 -0.4884  0.2201
  286POPC   C3A 3980   3.386   4.266   6.827 -0.4299 -0.1063  0.2477
  286POPC   C4A 3981   3.776   4.044   7.113 -0.2296  0.0778  0.3758
  286POPC   C1B 3982   3.137   3.820   6.213 -0.1307  0.2037 -0.0577
  286POPC   C2B 3983   3.166   3.696   6.629  0.1634  0.1776 -0.0616
  286POPC   C3B 3984   3.342   3.770   6.997 -0.0595 -0.0332  0.0519
  286POPC   C4B 3985   3.532   3.746   7.392 -0.0537  0.1527  0.1658
  287POPC   NC3 3986   3.286   4.697   5.374 -0.0257  0.0542 -0.1690
  287POPC   PO4 3987   2.912   4.613   5.510  0.2583  0.1934 -0.1118
  287POPC   GL1 3988   2.894   4.746   5.928  0.4357 -0.0487 -0.3739
  287POPC   GL2 3989   2.784   4.715   6.237 -0.1962  0.3622 -0.1312
  287POPC   C1A 3990   3.187   5.025   6.243 -0.1299 -0.1527  0.2378
  287POPC   D2A 3991   3.149   5.356   6.535 -0.3230  0.0495  0.1300
  287POPC   C3A 3992   3.484   5.511   6.848  0.0985  0.0221  0.1987
  287POPC   C4A 3993   3.948   5.409   7.020  0.1846 -0.0704 -0.0608
  287POPC   C1B 3994   2.921   4.884   6.650 -0.1539  0.1662  0.1258
  287POPC   C2B 3995   3.035   5.112   6.997  0.0343 -0.1824 -0.1930
  287POPC   C3B 3996   3.412   5.153   7.167  0.1314  0.1973  0.0692
  287POPC   C4B 3997   3.885   4.985   7.184 -0.2925  0.3958  0.2014
  288POPC   NC3 3998   3.608   7.086   4.909  0.0701  0.0000 -0.3010
  288POPC   PO4 3999   3.355   7.113   5.305  0.0280 -0.1005 -0.1656
  288POPC   GL1 4000   3.459   7.208   5.792  0.0429 -0.0229 -0.1412
  288POPC   GL2 4001   3.822   7.085   5.931 -0.0766  0.3770  0.0355
  288POPC   C1A 4002   3.418   7.233   6.223  0.4227  0.3673 -0.2628
  288POPC   D2A 4003   3.520   6.994   6.565  0.0422 -0.0279 -0.0317
  288POPC   C3A 4004   3.884   6.887   6.857  0.0918 -0.3252 -0.0176
  288POPC   C4A 4005   4.183   6.839   7.123  0.2503 -0.1414 -0.0074
  288POPC   C1B 4006   3.589   6.775   6.154 -0.3029 -0.3700 -0.0055
  288POPC   C2B 4007   3.430   6.472   6.484  0.1665 -0.0164 -0.2541
  288POPC   C3B 4008   3.385   6.657   6.909 -0.0288 -0.1004 -0.0414
  288POPC   C4B 4009   3.224   7.034   7.083 -0.2026  0.4030 -0.0128
  289POPC   NC3 4010   8.167   9.418   3.511  0.1114  0.1473  0.1405
  289POPC   PO4 4011   7.799   9.710   3.635  0.1916 -0.1111  0.0002
  289POPC   GL1 4012   8.031   9.647   4.041 -0.0369 -0.2928 -0.3481
  289POPC   GL2 4013   7.793   9.572   4.342  0.1591 -0.2196 -0.1466
  289POPC   C1A 4014   8.229   9.743   4.454 -0.0717  0.2608  0.1737
  289POPC   D2A 4015   8.469  10.102   4.478 -0.0204  0.0671 -0.2610
  289POPC   C3A 4016   8.781  10.115   4.680 -0.2832 -0.2201 -0.1869
  289POPC   C4A 4017   8.882  10.138   5.104 -0.0457 -0.1712 -0.4266
  289POPC   C1B 4018   7.998   9.244   4.545 -0.2002 -0.0912  0.0175
  289POPC   C2B 4019   8.268   8.778   4.323 -0.1528  0.0244 -0.2500
  289POPC   C3B 4020   8.603   8.512   4.318  0.2802  0.2268  0.1212
  289POPC   C4B 4021   9.030   8.475   4.292  0.1222  0.1886  0.0715
  290POPC   NC3 4022   0.094   3.412   5.410  0.2037 -0.3145 -0.3467
  290POPC   PO4 4023  -0.198   3.141   5.220 -0.1519  0.3071 -0.1401
  290POPC   GL1 4024  -0.277   2.881   5.503 -0.1058 -0.0318  0.2037
  290POPC   GL2 4025  -0.199   3.106   5.775  0.0152  0.0396 -0.0142
  290POPC   C1A 4026  -0.046   2.637   5.842  0.3018 -0.3220 -0.1245
  290POPC   D2A 4027   0.051   2.532   6.191  0.1345  0.1102  0.1681
  290POPC   C3A 4028   0.465   2.610   6.355  0.0769 -0.2624 -0.3824
  290POPC   C4A 4029   0.824   2.359   6.741  0.0997  0.2375  0.2831
  290POPC   C1B 4030  -0.401   2.997   6.208 -0.2407 -0.2854 -0.0216
  290POPC   C2B 4031  -0.800   2.795   6.285  0.0723  0.0398 -0.1141
  290POPC   C3B 4032  -1.067   2.727   6.399  0.2479  0.0840  0.1174
  290POPC   C4B 4033  -1.171   2.556   6.807 -0.1178 -0.1084  0.0968
  291POPC   NC3 4034   1.271   5.414   5.423 -0.1592  0.2110  0.1190
  291POPC   PO4 4035   1.413   5.851   5.470  0.0184 -0.1311 -0.1671
  291POPC   GL1 4036   1.440   5.730   5.866  0.0765  0.1262  0.0939
  291POPC   GL2 4037   1.723   5.724   5.999 -0.2226  0.0385  0.0020
  291POPC   C1A 4038   1.211   5.522   6.254 -0.2043  0.0325  0.0740
  291POPC   D2A 4039   1.089   6.004   6.528 -0.0584 -0.4187  0.0196
  291POPC   C3A 4040   1.176   6.234   6.938 -0.0396  0.3238  0.3114
  291POPC   C4A 4041   1.419   6.601   7.029 -0.1916 -0.0375  0.1243
  291POPC   C1B 4042   1.626   5.875   6.394  0.3849 -0.0765  0.0575
  291POPC   C2B 4043   1.553   5.810   6.805  0.0039  0.0846  0.0301
  291POPC   C3B 4044   1.342   5.567   7.282  0.0127 -0.1097 -0.2067
  291POPC   C4B 4045   1.559   5.294   7.593  0.0504 -0.0590  0.1589
  292POPC   NC3 4046   7.661   7.347   3.940  0.0228 -0.2773 -0.0063
  292POPC   PO4 4047   7.581   7.761   3.871  0.0710  0.1276  0.1500
  292POPC   GL1 4048   7.940   7.716   4.189 -0.0177  0.0379 -0.0956
  292POPC   GL2 4049   7.765   7.577   4.442  0.1995  0.0990  0.1140
  292POPC   C1A 4050   8.294   7.667   4.370  0.0139  0.3179  0.2943
  292POPC   D2A 4051   8.270   7.704   4.772  0.0520  0.2407  0.2220
  292POPC   C3A 4052   8.727   7.699   4.901  0.1624  0.0920  0.1785
  292POPC   C4A 4053   9.151   7.549   5.150 -0.1506  0.1486 -0.3582
  292POPC   C1B 4054   7.469   7.383   4.770  0.0640 -0.2482 -0.1384
  292POPC   C2B 4055   7.411   6.926   4.872 -0.0190 -0.3846 -0.1963
  292POPC   C3B 4056   7.410   6.657   5.188  0.1416 -0.0272  0.0609
  292POPC   C4B 4057   7.648   6.448   5.564  0.1735  0.3991  0.1614
  293POPC   NC3 4058   3.392   0.283   5.418  0.2747  0.0690 -0.1997
  293POPC   PO4 4059   2.941   0.078   5.508  0.5772 -0.0075 -0.1198
  293POPC   GL1 4060   2.725   0.168   5.861 -0.1866  0.1520 -0.1171
  293POPC   GL2 4061   2.433   0.411   5.709  0.0348 -0.0243  0.0636
  293POPC   C1A 4062   2.641   0.199   6.303 -0.1285 -0.1874 -0.0889
  293POPC   D2A 4063   2.458   0.272   6.678  0.1983 -0.3163  0.2459
  293POPC   C3A 4064   2.077   0.382   6.759 -0.0628  0.0586  0.5312
  293POPC   C4A 4065   1.868   0.208   7.082 -0.0625 -0.0537 -0.1820
  293POPC   C1B 4066   2.249   0.132   6.057 -0.1720 -0.2113  0.1592
  293POPC   C2B 4067   2.101  -0.060   6.425  0.1780 -0.0531  0.0846
  293POPC   C3B 4068   1.879  -0.129   6.747 -0.2822 -0.4139 -0.1736
  293POPC   C4B 4069   1.682  -0.332   7.090  0.1762  0.0422 -0.0440
  294POPC   NC3 4070   8.821   3.595   4.578 -0.1750 -0.2398  0.0446
  294POPC   PO4 4071   8.992   3.572   4.981  0.1168 -0.0673 -0.2380
  294POPC   GL1 4072   8.826   3.594   5.372  0.0549 -0.0040  0.0737
  294POPC   GL2 4073   8.611   3.837   5.408 -0.1999 -0.3494 -0.3405
  294POPC   C1A 4074   8.693   3.497   5.818 -0.1332 -0.0756  0.0264
  294POPC   D2A 4075   8.392   3.391   6.012 -0.1559  0.2818 -0.3320
  294POPC   C3A 4076   8.438   3.514   6.380 -0.0860  0.1989 -0.1842
  294POPC   C4A 4077   8.350   3.358   6.822  0.1265  0.1070  0.2543
  294POPC   C1B 4078   8.415   3.322   5.435  0.1455  0.1784  0.1688
  294POPC   C2B 4079   8.572   3.000   5.760  0.1472  0.0786 -0.2744
  294POPC   C3B 4080   8.752   2.605   5.858 -0.2535 -0.2502 -0.2507
  294POPC   C4B 4081   9.190   2.466   5.942 -0.0439 -0.0338 -0.0109
  295POPC   NC3 4082   6.048   2.426   4.306  0.0232  0.0147 -0.0761
  295POPC   PO4 4083   6.257   2.150   4.442 -0.0974  0.1335  0.1277
  295POPC   GL1 4084   6.189   2.202   4.808  0.0533  0.0311 -0.1816
  295POPC   GL2 4085   6.450   1.943   4.881  0.1955 -0.0919  0.2164
  295POPC   C1A 4086   6.149   2.394   5.159 -0.0895 -0.1320  0.0309
  295POPC   D2A 4087   6.080   2.715   5.484  0.0976 -0.1251  0.0036
  295POPC   C3A 4088   6.183   2.626   5.891 -0.1471 -0.0038 -0.1636
  295POPC   C4A 4089   6.370   2.874   6.275  0.1358 -0.0003 -0.1240
  295POPC   C1B 4090   6.447   2.053   5.323 -0.0749 -0.0865  0.1865
  295POPC   C2B 4091   6.524   2.433   5.542  0.1925 -0.0683  0.2486
  295POPC   C3B 4092   6.692   2.446   6.062  0.1688 -0.1812 -0.0457
  295POPC   C4B 4093   6.998   2.583   6.365 -0.0778 -0.3017  0.0365
  296POPC   NC3 4094   4.202   0.236   5.181  0.1006 -0.1133  0.1366
  296POPC   PO4 4095   3.793   0.032   5.275 -0.1391  0.3866  0.0908
  296POPC   GL1 4096   4.010   0.023   5.644 -0.0054  0.3621  0.2031
  296POPC   GL2 4097   3.788   0.106   5.818  0.0535 -0.3076 -0.0249
  296POPC   C1A 4098   4.111  -0.095   6.080  0.1887  0.1498 -0.1614
  296POPC   D2A 4099   4.319  -0.122   6.497 -0.1051 -0.0826  0.1921
  296POPC   C3A 4100   4.212  -0.058   6.941 -0.0702  0.3415  0.2424
  296POPC   C4A 4101   4.011  -0.172   7.330 -0.0238 -0.1580 -0.0876
  296POPC   C1B 4102   3.640   0.254   6.114  0.0161 -0.1404  0.1038
  296POPC   C2B 4103   3.416   0.108   6.356 -0.1086 -0.2934 -0.0873
  296POPC   C3B 4104   3.074   0.261   6.691 -0.0163 -0.5728 -0.0065
  296POPC   C4B 4105   2.833   0.725   6.665  0.1013 -0.0002  0.0291
  297POPC   NC3 4106   7.594   9.903   4.013  0.4383 -0.5039 -0.0088
  297POPC   PO4 4107   7.257  10.071   4.216 -0.1485  0.1260  0.1359
  297POPC   GL1 4108   7.226   9.975   4.629 -0.1895  0.4572 -0.1448
  297POPC   GL2 4109   7.024  10.020   4.864  0.0969  0.0555 -0.0438
  297POPC   C1A 4110   7.481  10.177   4.997  0.2045 -0.2856 -0.0164
  297POPC   D2A 4111   7.726  10.082   5.377  0.1295  0.0800 -0.2534
  297POPC   C3A 4112   8.165  10.169   5.422 -0.3122 -0.2376 -0.0927
  297POPC   C4A 4113   8.565  10.408   5.394 -0.1167 -0.0313  0.1601
  297POPC   C1B 4114   7.187   9.887   5.285 -0.1574  0.1015  0.0061
  297POPC   C2B 4115   7.391   9.726   5.672 -0.0930  0.1691 -0.0700
  297POPC   C3B 4116   7.483   9.536   6.008 -0.2204  0.1387  0.0435
  297POPC   C4B 4117   7.409   9.143   6.236  0.1358 -0.2048 -0.0629
  298POPC   NC3 4118   5.465   4.514   5.093 -0.0924  0.0824 -0.1548
  298POPC   PO4 4119   5.747   4.857   5.077 -0.1901 -0.0598  0.1189
  298POPC   GL1 4120   5.830   4.694   5.438  0.0404 -0.0422  0.0420
  298POPC   GL2 4121   5.890   5.072   5.518  0.0232  0.0964 -0.1684
  298POPC   C1A 4122   5.860   4.716   5.831  0.3440  0.2440 -0.1060
  298POPC   D2A 4123   6.106   4.838   6.134  0.0706 -0.2542 -0.1812
  298POPC   C3A 4124   6.451   4.682   6.359 -0.1368 -0.1033 -0.0914
  298POPC   C4A 4125   6.820   4.793   6.573 -0.0165 -0.0935 -0.2262
  298POPC   C1B 4126   5.891   5.323   5.894 -0.0958  0.0815 -0.0750
  298POPC   C2B 4127   5.889   5.280   6.299  0.0854 -0.2170  0.1048
  298POPC   C3B 4128   6.186   5.092   6.637 -0.3227  0.1291  0.3347
  298POPC   C4B 4129   6.348   4.736   6.831 -0.0712  0.0264  0.0109
  299POPC   NC3 4130   4.796   6.767   4.739  0.5319  0.2328  0.1651
  299POPC   PO4 4131   4.866   6.643   5.221  0.0183 -0.0749  0.2213
  299POPC   GL1 4132   4.979   6.661   5.656  0.1747  0.3148 -0.3928
  299POPC   GL2 4133   4.667   6.577   5.734  0.3185  0.0455  0.1520
  299POPC   C1A 4134   5.168   6.938   6.095 -0.1982 -0.0032 -0.1607
  299POPC   D2A 4135   5.366   7.298   6.406 -0.0801 -0.2703 -0.1225
  299POPC   C3A 4136   5.252   7.259   6.881  0.0908  0.1575 -0.1236
  299POPC   C4A 4137   5.126   7.545   7.293  0.4588  0.0422  0.0947
  299POPC   C1B 4138   4.676   6.772   6.099 -0.2698  0.1293  0.0223
  299POPC   C2B 4139   5.008   6.886   6.538 -0.3836  0.0810  0.0379
  299POPC   C3B 4140   5.116   6.802   6.959 -0.0419 -0.1114 -0.2048
  299POPC   C4B 4141   5.089   6.911   7.354 -0.3730  0.0448  0.0981
  300POPC   NC3 4142   8.694   6.309   4.625  0.1101 -0.1077 -0.0195
  300POPC   PO4 4143   8.290   6.162   4.415 -0.1483 -0.0446  0.1862
  300POPC   GL1 4144   8.172   6.440   4.826  0.2669 -0.1964  0.1158
  300POPC   GL2 4145   8.370   6.479   5.092 -0.0553  0.0430  0.1333
  300POPC   C1A 4146   7.809   6.228   5.037 -0.1181  0.2252  0.1170
  300POPC   D2A 4147   7.581   5.893   5.301  0.0767 -0.0299  0.2377
  300POPC   C3A 4148   7.559   5.682   5.586 -0.2105  0.0595  0.2603
  300POPC   C4A 4149   7.628   5.446   5.874 -0.0144 -0.0137  0.0512
  300POPC   C1B 4150   8.158   6.328   5.391  0.1837  0.1489 -0.1902
  300POPC   C2B 4151   7.916   6.068   5.738  0.0222 -0.5130  0.3496
  300POPC   C3B 4152   7.819   5.906   6.086  0.3555 -0.0511  0.1011
  300POPC   C4B 4153   7.964   5.890   6.526 -0.2108  0.1891 -0.0284
  301POPC   NC3 4154   9.513   7.022   3.761  0.1745 -0.0858  0.1382
  301POPC   PO4 4155   9.122   6.906   3.694 -0.0770  0.1473  0.2219
  301POPC   GL1 4156   9.167   7.086   4.100  0.1833  0.1823 -0.1268
  301POPC   GL2 4157   8.916   6.983   4.313 -0.4887 -0.2316 -0.1740
  301POPC   C1A 4158   9.359   7.284   4.474  0.3082  0.1564 -0.0886
  301POPC   D2A 4159   9.479   7.394   4.806  0.2725  0.1894  0.1752
  301POPC   C3A 4160   9.553   7.744   4.996  0.2265 -0.1324  0.0292
  301POPC   C4A 4161  10.007   7.839   5.146 -0.0917 -0.2046 -0.0632
  301POPC   C1B 4162   9.104   7.047   4.777 -0.0773  0.1759 -0.1051
  301POPC   C2B 4163   9.346   7.056   5.262  0.0896  0.2440  0.4298
  301POPC   C3B 4164   9.599   7.475   5.389  0.0606  0.0205  0.1272
  301POPC   C4B 4165   9.947   7.774   5.619 -0.2275 -0.1381  0.0795
  302POPC   NC3 4166   4.588   8.400   4.964 -0.0375  0.3132  0.2677
  302POPC   PO4 4167   4.187   8.334   5.192 -0.1331  0.1476 -0.2633
  302POPC   GL1 4168   4.236   8.326   5.679 -0.0383 -0.1029  0.1271
  302POPC   GL2 4169   4.255   8.698   5.691  0.1825 -0.0892  0.3185
  302POPC   C1A 4170   4.180   8.438   6.140 -0.1933  0.1243 -0.1172
  302POPC   D2A 4171   4.117   8.251   6.667 -0.0161 -0.1673 -0.1722
  302POPC   C3A 4172   3.765   8.229   6.891 -0.1141 -0.0327 -0.0309
  302POPC   C4A 4173   3.378   8.468   7.062  0.0418  0.2105 -0.1490
  302POPC   C1B 4174   4.607   8.820   6.030  0.3122  0.0456 -0.0248
  302POPC   C2B 4175   4.715   8.909   6.433  0.1792 -0.0194 -0.2312
  302POPC   C3B 4176   4.896   8.949   6.886  0.1897 -0.0009  0.3651
  302POPC   C4B 4177   5.264   9.013   7.131  0.1556 -0.0298 -0.0526
  303POPC   NC3 4178   0.865   5.226   5.306  0.2241  0.0594 -0.2103
  303POPC   PO4 4179   1.117   4.918   5.542  0.0874 -0.0126 -0.1455
  303POPC   GL1 4180   0.883   4.746   5.845 -0.1561  0.1505  0.1954
  303POPC   GL2 4181   0.770   4.447   5.896  0.1583 -0.0146  0.2443
  303POPC   C1A 4182   0.795   4.937   6.258 -0.3811  0.0279 -0.1499
  303POPC   D2A 4183   0.629   5.080   6.638  0.0132  0.1427  0.1621
  303POPC   C3A 4184   0.864   5.213   6.954  0.1340 -0.1930  0.1460
  303POPC   C4A 4185   1.106   5.535   6.783  0.0423  0.0939 -0.2150
  303POPC   C1B 4186   0.857   4.283   6.349 -0.1627 -0.2540 -0.0033
  303POPC   C2B 4187   0.886   4.255   6.701  0.2320 -0.1282 -0.3053
  303POPC   C3B 4188   0.664   4.292   7.117 -0.2608 -0.0876  0.0503
  303POPC   C4B 4189   0.345   4.081   7.416 -0.0301 -0.1829  0.0769
  304POPC   NC3 4190   4.822   7.561   5.289  0.1852  0.0693  0.0787
  304POPC   PO4 4191   5.203   7.721   5.362 -0.1879 -0.1354 -0.1362
  304POPC   GL1 4192   5.326   8.001   5.699 -0.0900 -0.2802  0.2814
  304POPC   GL2 4193   5.569   8.213   5.760 -0.0121  0.0256  0.2259
  304POPC   C1A 4194   5.258   8.164   6.145 -0.1143 -0.0637 -0.2646
  304POPC   D2A 4195   4.928   8.243   6.386  0.0661 -0.0355 -0.5029
  304POPC   C3A 4196   4.898   8.466   6.833 -0.1625  0.2456  0.1271
  304POPC   C4A 4197   5.164   8.541   7.144 -0.0024 -0.0313  0.0176
  304POPC   C1B 4198   5.760   8.267   6.167 -0.2561 -0.3940  0.2420
  304POPC   C2B 4199   6.192   8.411   6.364  0.0008 -0.3474 -0.1547
  304POPC   C3B 4200   6.483   8.273   6.572 -0.0668  0.1119  0.0100
  304POPC   C4B 4201   6.575   8.010   6.929  0.0282  0.1125 -0.0647
  305POPC   NC3 4202   2.759   7.621   5.004 -0.1041  0.1262 -0.1335
  305POPC   PO4 4203   2.699   7.057   5.186 -0.2295 -0.0892  0.1985
  305POPC   GL1 4204   2.695   7.280   5.653 -0.3467 -0.4809  0.0610
  305POPC   GL2 4205   2.451   7.389   5.712  0.1158 -0.4464  0.0997
  305POPC   C1A 4206   2.807   7.778   5.808  0.1365 -0.2386  0.5102
  305POPC   D2A 4207   2.668   7.972   6.140  0.2426 -0.1806 -0.1639
  305POPC   C3A 4208   2.631   7.764   6.591 -0.1335  0.1929  0.2185
  305POPC   C4A 4209   2.456   7.561   6.983 -0.0235  0.2426  0.1197
  305POPC   C1B 4210   2.436   7.529   6.156 -0.0505  0.2685  0.4816
  305POPC   C2B 4211   2.331   7.258   6.586  0.0422  0.0038 -0.0295
  305POPC   C3B 4212   1.984   7.268   6.887 -0.2530  0.0269  0.2535
  305POPC   C4B 4213   1.792   7.527   7.222 -0.0010  0.2541 -0.0360
  306POPC   NC3 4214   6.324   9.101   4.090 -0.1688 -0.0027 -0.1645
  306POPC   PO4 4215   6.289   9.532   4.353 -0.1270 -0.1067 -0.0296
  306POPC   GL1 4216   6.494   9.763   4.734  0.2128  0.0857 -0.2089
  306POPC   GL2 4217   6.514  10.149   4.942  0.0804  0.1204 -0.0140
  306POPC   C1A 4218   6.671   9.655   5.212 -0.0333 -0.0755  0.0126
  306POPC   D2A 4219   7.006   9.413   5.480  0.1985 -0.0786 -0.0612
  306POPC   C3A 4220   7.190   9.168   5.727 -0.2992  0.0694 -0.0459
  306POPC   C4A 4221   7.566   9.081   5.743  0.1876  0.1866  0.1002
  306POPC   C1B 4222   6.752  10.141   5.378 -0.1906 -0.0391 -0.1925
  306POPC   C2B 4223   6.794   9.880   5.692  0.1635  0.2875 -0.0716
  306POPC   C3B 4224   7.056   9.748   6.137 -0.1185 -0.1840 -0.1815
  306POPC   C4B 4225   7.234   9.663   6.455 -0.2967 -0.1016 -0.1857
  307POPC   NC3 4226   1.723   1.990   5.299 -0.1255 -0.0603 -0.0281
  307POPC   PO4 4227   2.024   2.316   5.240 -0.0101  0.1481 -0.2485
  307POPC   GL1 4228   2.158   2.212   5.606  0.5830  0.1834  0.1389
  307POPC   GL2 4229   2.471   2.408   5.670 -0.1217 -0.0078  0.0377
  307POPC   C1A 4230   2.293   2.185   6.051 -0.2779 -0.0546 -0.0782
  307POPC   D2A 4231   2.386   2.285   6.424 -0.1801  0.1124  0.4160
  307POPC   C3A 4232   2.685   2.279   6.696  0.1650 -0.0414  0.1624
  307POPC   C4A 4233   2.888   2.549   6.901 -0.0118  0.1073  0.0393
  307POPC   C1B 4234   2.645   2.540   6.008 -0.0159  0.2291  0.2870
  307POPC   C2B 4235   2.565   2.731   6.507  0.0387  0.3625 -0.0875
  307POPC   C3B 4236   2.651   3.006   6.891  0.2679  0.6289 -0.1076
  307POPC   C4B 4237   2.646   3.137   7.344  0.1407  0.3549  0.1474
  308POPC   NC3 4238   5.316   0.550   4.572 -0.2260 -0.2656 -0.0473
  308POPC   PO4 4239   5.548   0.447   4.854 -0.1429 -0.1502  0.0103
  308POPC   GL1 4240   5.619   0.456   5.262 -0.1037 -0.1382  0.0263
  308POPC   GL2 4241   5.460   0.615   5.465 -0.4002  0.2797  0.1935
  308POPC   C1A 4242   5.903   0.307   5.654  0.1734  0.0025  0.2833
  308POPC   D2A 4243   5.890   0.221   6.141  0.1481  0.0144  0.0355
  308POPC   C3A 4244   5.701  -0.089   6.450  0.0814 -0.0467 -0.2004
  308POPC   C4A 4245   5.468   0.015   6.863  0.3817 -0.2926 -0.2253
  308POPC   C1B 4246   5.426   0.591   5.917  0.1065 -0.3832  0.1594
  308POPC   C2B 4247   5.465   0.561   6.330 -0.1361  0.3653 -0.3549
  308POPC   C3B 4248   5.725   0.396   6.711 -0.0306 -0.2228 -0.3065
  308POPC   C4B 4249   5.955   0.116   6.944 -0.0540 -0.3459  0.2451
  309POPC   NC3 4250   3.828   5.454   5.461 -0.1247 -0.1887  0.3429
  309POPC   PO4 4251   3.645   5.789   5.277 -0.0212 -0.0954  0.2454
  309POPC   GL1 4252   3.718   5.856   5.722  0.1866  0.2196 -0.1164
  309POPC   GL2 4253   3.424   6.089   6.025  0.2723  0.0917  0.1011
  309POPC   C1A 4254   3.932   5.681   6.025  0.0005 -0.0435 -0.0092
  309POPC   D2A 4255   4.091   5.391   6.421 -0.0819  0.4636 -0.1512
  309POPC   C3A 4256   4.330   5.621   6.777 -0.4515  0.0002 -0.1414
  309POPC   C4A 4257   4.384   5.558   7.279 -0.0291 -0.1946 -0.1321
  309POPC   C1B 4258   3.153   6.105   6.334 -0.0502  0.3655  0.0819
  309POPC   C2B 4259   3.017   5.858   6.779 -0.2046 -0.1339 -0.2785
  309POPC   C3B 4260   3.034   5.627   7.118 -0.1920 -0.1518 -0.0684
  309POPC   C4B 4261   3.022   5.991   7.474  0.0714  0.1985 -0.0711
  310POPC   NC3 4262   1.945   7.013   5.091  0.0371  0.2598  0.2829
  310POPC   PO4 4263   2.285   7.414   5.136  0.0069 -0.1017 -0.3012
  310POPC   GL1 4264   2.061   7.571   5.447  0.1667 -0.4463  0.1741
  310POPC   GL2 4265   1.888   7.259   5.548  0.0848  0.1207 -0.0004
  310POPC   C1A 4266   1.992   7.588   5.894  0.0204  0.5242  0.3489
  310POPC   D2A 4267   2.090   7.828   6.200 -0.1301  0.1684  0.2021
  310POPC   C3A 4268   1.915   8.155   6.444  0.1590 -0.1556  0.3292
  310POPC   C4A 4269   2.096   8.520   6.682  0.1728 -0.0421 -0.1048
  310POPC   C1B 4270   1.531   7.110   5.798 -0.3661 -0.2974 -0.2322
  310POPC   C2B 4271   1.109   7.181   5.889  0.2593 -0.3982 -0.0687
  310POPC   C3B 4272   0.700   7.304   6.009  0.1336 -0.0783 -0.1278
  310POPC   C4B 4273   0.535   7.614   6.270  0.2921  0.3685 -0.2099
  311POPC   NC3 4274   0.293   7.678   4.274  0.0520 -0.0976  0.0947
  311POPC   PO4 4275   0.021   7.528   3.952  0.0906 -0.2587  0.4065
  311POPC   GL1 4276  -0.353   7.637   4.119  0.1624 -0.0826 -0.2536
  311POPC   GL2 4277  -0.604   7.390   4.061  0.0275  0.1085 -0.4672
  311POPC   C1A 4278  -0.573   7.751   4.397  0.1450 -0.0070 -0.0292
  311POPC   D2A 4279  -1.034   7.822   4.547  0.0949 -0.2042  0.1357
  311POPC   C3A 4280  -1.307   8.136   4.672  0.0752 -0.0039 -0.1918
  311POPC   C4A 4281  -1.603   8.161   5.081 -0.0338 -0.1116  0.1755
  311POPC   C1B 4282  -0.323   7.290   4.460  0.0552 -0.1259  0.0501
  311POPC   C2B 4283   0.118   7.331   4.754 -0.1957  0.0161  0.1714
  311POPC   C3B 4284   0.253   7.084   5.079 -0.0608  0.1820  0.0795
  311POPC   C4B 4285   0.293   6.617   5.040 -0.1770 -0.2138 -0.1811
  312POPC   NC3 4286   9.385   3.629   5.258  0.0278 -0.1447  0.0143
  312POPC   PO4 4287   9.596   4.009   5.381  0.3322  0.0311 -0.1089
  312POPC   GL1 4288   9.223   3.959   5.644 -0.0544  0.0689 -0.2139
  312POPC   GL2 4289   9.138   3.709   5.887  0.2694  0.0594  0.0498
  312POPC   C1A 4290   9.159   4.213   5.999 -0.3089  0.1181  0.1139
  312POPC   D2A 4291   8.961   4.128   6.321 -0.1656  0.3563 -0.1402
  312POPC   C3A 4292   9.034   4.379   6.806 -0.1192 -0.1268  0.1874
  312POPC   C4A 4293   8.965   4.422   7.280  0.1009 -0.3486  0.1644
  312POPC   C1B 4294   8.722   4.000   5.873 -0.0977 -0.0905  0.2758
  312POPC   C2B 4295   8.358   3.989   5.886  0.0683 -0.0822 -0.1351
  312POPC   C3B 4296   7.916   3.830   6.035 -0.0806 -0.0489 -0.2590
  312POPC   C4B 4297   7.525   3.870   6.198  0.4587  0.2234  0.2490
  313POPC   NC3 4298   8.615   3.993   4.943  0.1752 -0.3011 -0.0849
  313POPC   PO4 4299   8.811   4.398   4.971  0.0078  0.1559 -0.0447
  313POPC   GL1 4300   8.696   4.367   5.401 -0.3282 -0.1932  0.3243
  313POPC   GL2 4301   8.915   4.413   5.574  0.2672  0.0942 -0.1211
  313POPC   C1A 4302   8.491   4.519   5.767 -0.0235  0.0479  0.2936
  313POPC   D2A 4303   8.594   4.426   6.164 -0.1940  0.0978  0.0957
  313POPC   C3A 4304   8.418   4.004   6.427 -0.3043 -0.0749 -0.1772
  313POPC   C4A 4305   8.354   3.855   6.836 -0.2928  0.0940 -0.0238
  313POPC   C1B 4306   8.897   4.754   5.958  0.0762  0.2898  0.1832
  313POPC   C2B 4307   8.723   4.928   6.353 -0.1560  0.3388  0.0266
  313POPC   C3B 4308   8.820   4.929   6.806 -0.1602 -0.1898  0.0019
  313POPC   C4B 4309   8.822   5.110   7.232  0.2823 -0.0648 -0.4607
  314POPC   NC3 4310   9.551   0.731   4.157 -0.1772  0.0737  0.4039
  314POPC   PO4 4311   9.584   1.192   4.236 -0.2208  0.1301  0.0736
  314POPC   GL1 4312   9.375   0.919   4.562 -0.1287 -0.0447 -0.0563
  314POPC   GL2 4313   9.499   1.025   4.901 -0.0906 -0.0399 -0.2271
  314POPC   C1A 4314   9.281   0.516   4.853 -0.1447 -0.0185  0.0286
  314POPC   D2A 4315   9.296   0.203   5.063 -0.0423 -0.1530 -0.1158
  314POPC   C3A 4316   9.691   0.285   5.061 -0.0442  0.1860  0.0165
  314POPC   C4A 4317   9.972   0.572   4.885  0.2270 -0.1454  0.3405
  314POPC   C1B 4318   9.596   0.726   5.207  0.0270  0.2078  0.1149
  314POPC   C2B 4319   9.602   0.536   5.636  0.0054  0.2060 -0.1151
  314POPC   C3B 4320   9.848   0.291   5.876  0.0584 -0.1126 -0.0969
  314POPC   C4B 4321   9.938  -0.114   6.105 -0.1581  0.0343  0.1584
  315POPC   NC3 4322   1.154   2.131   5.400  0.1781  0.5132  0.1509
  315POPC   PO4 4323   0.772   2.133   5.194 -0.1047  0.1939  0.3275
  315POPC   GL1 4324   0.749   2.018   5.681  0.0619 -0.2246 -0.0733
  315POPC   GL2 4325   0.472   1.831   5.636  0.0492  0.1016  0.0702
  315POPC   C1A 4326   0.852   1.735   6.045  0.2111 -0.0833  0.1428
  315POPC   D2A 4327   0.822   1.344   6.372 -0.0942  0.0935  0.0635
  315POPC   C3A 4328   0.776   1.495   6.807 -0.0659 -0.0290 -0.2283
  315POPC   C4A 4329   0.838   1.762   7.145  0.2093  0.0793  0.0829
  315POPC   C1B 4330   0.061   1.966   5.595 -0.2728 -0.1856  0.1428
  315POPC   C2B 4331  -0.209   1.942   5.932  0.2329 -0.0446  0.2999
  315POPC   C3B 4332  -0.103   1.849   6.383 -0.1941 -0.0810 -0.1521
  315POPC   C4B 4333   0.209   2.043   6.541 -0.2848  0.2159  0.1351
  316POPC   NC3 4334   0.128   5.844   4.939  0.2735  0.2020  0.0934
  316POPC   PO4 4335  -0.107   5.516   4.722  0.2012  0.2060  0.1597
  316POPC   GL1 4336  -0.367   5.771   5.100  0.4503  0.2831  0.2143
  316POPC   GL2 4337  -0.572   6.091   5.118 -0.2345  0.0446  0.3284
  316POPC   C1A 4338  -0.715   5.690   5.351  0.2597 -0.0034  0.1530
  316POPC   D2A 4339  -0.775   5.557   5.819 -0.1337  0.0770 -0.0846
  316POPC   C3A 4340  -0.677   5.476   6.254 -0.3081  0.1870 -0.1169
  316POPC   C4A 4341  -0.319   5.634   6.526 -0.3180 -0.2991  0.0253
  316POPC   C1B 4342  -0.929   6.124   5.370 -0.2833 -0.1815  0.0650
  316POPC   C2B 4343  -1.228   6.371   5.590  0.2097 -0.1225 -0.1030
  316POPC   C3B 4344  -1.626   6.555   5.623 -0.0188  0.1507 -0.1113
  316POPC   C4B 4345  -1.970   6.614   5.858 -0.0209  0.1429 -0.0433
  317POPC   NC3 4346   7.145   7.590   3.652  0.0671 -0.1108  0.3485
  317POPC   PO4 4347   6.812   7.493   3.993 -0.0086 -0.1229 -0.0995
  317POPC   GL1 4348   6.928   7.723   4.472 -0.0135  0.1398  0.2207
  317POPC   GL2 4349   6.729   7.876   4.617  0.3534 -0.0440  0.0706
  317POPC   C1A 4350   7.233   7.910   4.793  0.0253 -0.1087 -0.2146
  317POPC   D2A 4351   7.431   8.191   5.165 -0.3256  0.4031 -0.2272
  317POPC   C3A 4352   7.701   8.111   5.474  0.2102 -0.1171 -0.2139
  317POPC   C4A 4353   7.846   7.672   5.530 -0.0634 -0.0817  0.0355
  317POPC   C1B 4354   6.658   8.284   4.933  0.1464  0.2784  0.5600
  317POPC   C2B 4355   6.547   8.697   4.974  0.5190 -0.1468 -0.0285
  317POPC   C3B 4356   6.212   9.056   5.023 -0.0556 -0.2083 -0.1001
  317POPC   C4B 4357   6.244   9.345   5.204  0.2607  0.1143  0.4934
  318POPC   NC3 4358   6.702   5.397   4.289  0.2274  0.1510  0.0480
  318POPC   PO4 4359   6.391   5.273   4.641 -0.0606 -0.2277  0.0302
  318POPC   GL1 4360   6.523   5.272   5.104 -0.2506  0.3355 -0.1854
  318POPC   GL2 4361   6.284   4.983   5.267 -0.3136 -0.2237  0.1102
  318POPC   C1A 4362   6.797   5.316   5.442 -0.5022 -0.1591 -0.1120
  318POPC   D2A 4363   6.778   5.489   5.839  0.0369  0.2973 -0.0371
  318POPC   C3A 4364   6.735   5.542   6.284  0.2634 -0.2091 -0.3811
  318POPC   C4A 4365   6.969   5.804   6.483  0.1466 -0.1593 -0.0180
  318POPC   C1B 4366   6.374   5.099   5.730  0.3842  0.0497 -0.0054
  318POPC   C2B 4367   6.475   5.151   6.183  0.1309 -0.1945 -0.0341
  318POPC   C3B 4368   6.658   5.256   6.638  0.1670  0.0772  0.0793
  318POPC   C4B 4369   7.185   5.287   6.675 -0.2866  0.1006 -0.0174
  319W        W 4370   6.199   1.353   0.374  0.0501  0.0468 -0.3093
  320W        W 4371   3.328   5.589  10.548  0.4019  0.1604 -0.1553
  321W        W 4372   1.896   7.194   0.780  0.0647  0.2680 -0.0079
  322W        W 4373   6.637   7.851   3.572  0.3500 -0.2090  0.1789
  323W        W 4374   5.765   1.618   2.190  0.1113  0.3051  0.0435
  324W        W 4375   0.575   3.963  13.357 -0.1367 -0.1060  0.0829
  325W        W 4376   4.629   4.981   4.995  0.0807  0.1917  0.1843
  326W        W 4377   6.798   5.738  13.815 -0.2956 -0.3374  0.0904
  327W        W 4378   8.140   0.735   3.518 -0.3665 -0.1251 -0.0442
  328W        W 4379   6.453   8.620  11.188 -0.2874  0.0093  0.3740
  329W        W 4380   2.953   8.837   4.250  0.0134 -0.1514 -0.1946
  330W        W 4381   9.480   4.368   3.125 -0.1913 -0.3315 -0.0744
  331W        W 4382   1.908   5.434   2.194 -0.1564 -0.3135 -0.2402
  332W        W 4383   6.310   2.688   9.740  0.0709 -0.1044 -0.0678
  333W        W 4384   3.488   9.395  13.113  0.0563  0.3431 -0.1355
  334W        W 4385   6.998  10.176  13.182  0.0395 -0.0863 -0.0115
  335W        W 4386   3.471   5.478  12.560  0.0240  0.0443  0.1503
  336W        W 4387   0.356   1.540   0.376 -0.3602  0.0236  0.0685
  337W        W 4388   0.629   1.959  12.030 -0.0146 -0.0248  0.0354
  338W        W 4389   8.532   6.422   2.932 -0.2402 -0.1645  0.2710
  339W        W 4390   5.474   8.404  12.037 -0.2149  0.3762  0.0549
  340W        W 4391   8.345   8.023   1.552 -0.3449 -0.2878 -0.0943
  341W        W 4392   0.400   9.354  13.210 -0.1588 -0.0080 -0.4097
  342W        W 4393   8.820   8.127  12.192  0.0308 -0.4052  0.3148
  343W        W 4394   9.361   2.649  11.953 -0.0769  0.0748 -0.0160
  344W        W 4395   0.579   0.164   0.837  0.1103  0.1090  0.0303
  345W        W 4396   7.197   3.219  11.140 -0.1519 -0.0707  0.1477
  346W        W 4397   7.694   9.530   3.109  0.0872 -0.3075  0.1113
  347W        W 4398   1.221   9.879   3.229 -0.3065  0.0612  0.2371
  348W        W 4399   4.922   0.049   3.611  0.4337  0.0627  0.1037
  349W        W 4400   8.519   0.395  10.753  0.2225  0.0101  0.0646
  350W        W 4401   2.344   6.714   9.530 -0.2411 -0.3013  0.0257
  351W        W 4402   1.563   2.150  10.389 -0.0052 -0.0963 -0.0704
  352W        W 4403   7.917   2.863  11.614 -0.2924 -0.2513  0.2328
  353W        W 4404   2.326   8.615   4.516  0.3491 -0.0411  0.1574
  354W        W 4405   5.213   9.160  11.697 -0.1036  0.1088 -0.1535
  355W        W 4406   5.431   1.544  10.836  0.0795 -0.1170  0.0097
  356W        W 4407   1.834   1.392   9.937  0.0583  0.0539  0.1032
  357W        W 4408   6.786   0.774   3.802 -0.0176  0.2179 -0.1556
  358W        W 4409   5.637   4.467   1.170  0.2125  0.1988 -0.0308
  359W        W 4410   9.063   4.523   0.602  0.0773  0.3708  0.2395
  360W        W 4411   4.886   4.082   9.455 -0.0245  0.0373 -0.0253
  361W        W 4412   1.214   4.111   1.157  0.0608 -0.0062 -0.0021
  362W        W 4413   3.000   9.233   0.431 -0.1595  0.1040  0.3255
  363W        W 4414   8.500   3.058   0.561  0.1183 -0.1153 -0.0499
  364W        W 4415   2.261   8.188   4.902  0.0302 -0.2688  0.1654
  365W        W 4416   7.009   4.609  13.214 -0.1306  0.2292  0.0226
  366W        W 4417   6.219   9.695  10.061  0.0478  0.2371  0.0789
  367W        W 4418   0.442   8.067   0.832  0.0229 -0.0115 -0.4936
  368W        W 4419   7.516   9.246   2.712  0.3156 -0.0112 -0.0576
  369W        W 4420   6.839   5.132  12.421  0.3026 -0.1466  0.0519
  370W        W 4421   1.402   8.074   2.346  0.3411  0.4232 -0.4093
  371W        W 4422   6.312   6.129   4.727  0.0277 -0.2672 -0.1785
  372W        W 4423   2.835   1.790  10.163 -0.0710  0.0563 -0.0685
  373W        W 4424   9.399   7.248  13.904  0.1900  0.3612  0.2037
  374W        W 4425   1.805   2.836   3.775 -0.1874  0.0484  0.0456
  375W        W 4426   1.382   5.684   3.418  0.1894 -0.0257  0.2333
  376W        W 4427   9.446   4.833  10.647 -0.2229 -0.0538 -0.0276
  377W        W 4428   7.615   5.697   1.326 -0.1226  0.0753 -0.0303
  378W        W 4429   1.993   6.867   3.392 -0.2936  0.0084 -0.2931
  379W        W 4430   0.114   2.019  12.029 -0.3952 -0.2213  0.1706
  380W        W 4431   8.427   3.409  10.433  0.2288 -0.1102  0.0916
  381W        W 4432   2.842   7.918   1.105  0.0813  0.1776 -0.2068
  382W        W 4433   7.744   0.215   2.221  0.2074  0.0071 -0.1347
  383W        W 4434   5.805   2.287   2.732 -0.0622  0.4285  0.2098
  384W        W 4435   2.179   2.879   1.776  0.1191  0.0716  0.4575
  385W        W 4436   2.712   4.393   9.624 -0.0193 -0.3232 -0.1388
  386W        W 4437   6.979   2.101  12.172  0.3118  0.3165 -0.0232
  387W        W 4438   1.636  10.088  13.286 -0.1599 -0.1242  0.1023
  388W        W 4439   6.895   5.420  10.308 -0.2048  0.0555  0.0996
  389W        W 4440   9.250   8.330   0.145 -0.1953 -0.0616 -0.1689
  390W        W 4441   9.720   3.357   4.512  0.0473 -0.0184 -0.2546
  391W        W 4442   7.851   5.681  12.758  0.1733  0.1777 -0.2181
  392W        W 4443   5.842   3.602  13.087 -0.0415  0.0340 -0.1006
  393W        W 4444   3.144   0.299  11.587  0.0884  0.0068 -0.0354
  394W        W 4445   2.261   9.471   1.849 -0.0634 -0.1636  0.0883
  395W        W 4446   1.734  10.027  12.265 -0.1974 -0.0326  0.0484
  396W        W 4447   4.349   0.475   2.818 -0.0401 -0.1594  0.1791
  397W        W 4448   3.358   9.152  12.644 -0.0195  0.0143 -0.0991
  398W        W 4449   1.502   3.309   9.937 -0.0695  0.1330  0.2435
  399W        W 4450   2.036   7.895  11.963 -0.3492  0.0701  0.0617
  400W        W 4451   2.925   7.515  13.777 -0.0897  0.0548 -0.0268
  401W        W 4452   8.213   5.118  10.650  0.0316  0.1210 -0.0532
  402W        W 4453   7.493   3.213   3.884  0.1851  0.0576 -0.3022
  403W        W 4454   6.050   2.905   9.343  0.2787 -0.0058 -0.0810
  404W        W 4455   8.183   5.513  12.393  0.1309  0.1929 -0.4793
  405W        W 4456   9.437   7.397   3.195 -0.1825  0.0000 -0.0694
  406W        W 4457   8.896   4.761   9.219  0.0941  0.1063  0.1510
  407W        W 4458   7.019   7.398   1.390 -0.1568  0.1004  0.2781
  408W        W 4459   8.641   7.278   0.615  0.1244  0.0636  0.0122
  409W        W 4460   7.887   6.451   0.971 -0.1541 -0.0123 -0.1037
  410W        W 4461   9.459   2.819   9.707  0.3375  0.0465 -0.0760
  411W        W 4462   1.420   6.560  11.707  0.0252 -0.0869  0.0524
  412W        W 4463   1.057   4.899  11.570  0.6582  0.1197 -0.0406
  413W        W 4464   4.310   8.031  13.801  0.0384  0.1331  0.2183
  414W        W 4465   0.559  10.078   0.445  0.0345 -0.4356  0.1905
  415W        W 4466   6.044   7.521   0.551 -0.1116  0.2490 -0.1099
  416W        W 4467   2.936   4.793  11.498 -0.2692  0.0839 -0.1320
  417W        W 4468   9.884   7.204   0.294  0.3110  0.0451 -0.3648
  418W        W 4469   4.230   5.441   9.748 -0.0302 -0.0580 -0.0888
  419W        W 4470   6.827   0.982  12.720  0.2771 -0.1242  0.0329
  420W        W 4471   9.718   3.694  10.185  0.1890 -0.0435 -0.0614
  421W        W 4472   1.862   2.398   1.588  0.2652  0.0819 -0.3009
  422W        W 4473   1.527   9.455   0.207  0.0481 -0.1632  0.0225
  423W        W 4474   6.710   3.683   1.646 -0.0575  0.3070 -0.0451
  424W        W 4475   1.836   9.060   9.289  0.1560 -0.1519 -0.2488
  425W        W 4476   9.585   2.231  11.376 -0.2061  0.1802  0.1333
  426W        W 4477   4.065   4.947  13.197 -0.0260 -0.3592 -0.0764
  427W        W 4478   4.527   2.631  10.847  0.2310  0.1813  0.1628
  428W        W 4479   5.537   3.403   1.683 -0.2500  0.2631  0.2097
  429W        W 4480   5.438   4.050  12.361  0.1571  0.0513  0.0514
  430W        W 4481   6.743   6.350   1.158  0.0125 -0.0528 -0.2033
  431W        W 4482   5.539   6.924   1.547  0.1130  0.0059 -0.0808
  432W        W 4483   0.436   1.560   2.922  0.0738  0.1667 -0.0442
  433W        W 4484   6.611   7.412  11.876 -0.0611  0.0506  0.0819
  434W        W 4485   2.024   1.662   3.694 -0.0342  0.2305  0.1157
  435W        W 4486   7.890   6.662  11.911  0.1002  0.1610  0.1166
  436W        W 4487   0.571   7.118  13.754  0.3481 -0.1126  0.1501
  437W        W 4488   9.916   4.457   0.118  0.0475 -0.3185  0.0591
  438W        W 4489   3.553   8.238  12.445  0.0230 -0.3340 -0.0061
  439W        W 4490   8.056   7.701   1.806 -0.0302 -0.1460 -0.0385
  440W        W 4491   4.249   8.710   0.234 -0.1149  0.2230  0.2645
  441W        W 4492   4.046   4.103   5.135  0.6533  0.1110  0.0110
  442W        W 4493   2.659   1.367  13.375 -0.2602 -0.0101  0.1873
  443W        W 4494   1.068   8.442  12.910  0.0588 -0.0042 -0.0047
  444W        W 4495   5.745   2.911   4.169 -0.0589  0.0634  0.4475
  445W        W 4496   4.381   6.289  13.687  0.1014  0.0059  0.0465
  446W        W 4497   1.498   4.133   4.499  0.2096  0.2053  0.0995
  447W        W 4498   2.753   2.487   4.760 -0.1656  0.1579 -0.2778
  448W        W 4499   7.369   6.683  13.150 -0.2341  0.0837  0.3611
  449W        W 4500   0.526   3.286   0.202  0.2072 -0.1458  0.0578
  450W        W 4501   7.213   9.488   1.412 -0.1357 -0.1875  0.0506
  451W        W 4502   3.704  10.092  10.296  0.1466  0.1178  0.0511
  452W        W 4503   0.712   4.605  11.315 -0.1628 -0.0638 -0.2665
  453W        W 4504   9.232   2.268   0.638 -0.0465  0.1657 -0.2426
  454W        W 4505   3.873   9.060  12.953 -0.1931  0.1508  0.1550
  455W        W 4506   0.221   9.993  11.530  0.1335  0.0138  0.2057
  456W        W 4507   2.798   0.887   1.750 -0.2478 -0.1519 -0.2803
  457W        W 4508   6.607   3.092  13.148  0.0439 -0.0157 -0.0286
  458W        W 4509   2.034   6.993  13.311  0.0642 -0.0230 -0.3513
  459W        W 4510   6.438   4.958   3.582 -0.2731 -0.0547  0.1826
  460W        W 4511   3.324   0.557   2.500 -0.0628  0.2577  0.4038
  461W        W 4512   4.190   0.817  13.235 -0.2229  0.1199 -0.2292
  462W        W 4513   0.964   2.471   1.548 -0.1501  0.0972  0.2220
  463W        W 4514   2.256   8.983   1.156  0.1280  0.2652  0.0650
  464W        W 4515   5.783   3.752  10.369  0.0664  0.1176  0.0274
  465W        W 4516   5.328   9.125  13.330 -0.2931 -0.1008  0.0813
  466W        W 4517   9.367   3.077   9.254  0.3457  0.0940 -0.1311
  467W        W 4518   6.932   7.942  11.145 -0.2959  0.0240 -0.0021
  468W        W 4519   8.291   5.697   4.001 -0.3828  0.0302 -0.2136
  469W        W 4520   3.039   3.406  12.065  0.0297  0.1035  0.1909
  470W        W 4521   2.014   1.974   0.614 -0.1786 -0.1892  0.2067
  471W        W 4522   6.786   7.435   2.854  0.3708 -0.0067  0.3648
  472W        W 4523   1.397   7.572  11.643  0.1871 -0.4750  0.0372
  473W        W 4524   7.106   3.410   3.691 -0.0364  0.0123 -0.1254
  474W        W 4525   1.271   2.458   3.152  0.3098 -0.2434 -0.2038
  475W        W 4526   9.107   2.346   1.601  0.0848  0.2099  0.0384
  476W        W 4527   4.982   1.586   1.015  0.0604  0.0039  0.0906
  477W        W 4528   8.062   5.346   3.428 -0.1172  0.0346 -0.3880
  478W        W 4529   3.093   7.302   4.032  0.0811  0.2681  0.1651
  479W        W 4530   3.325   9.283   3.640  0.1269 -0.1758 -0.0555
  480W        W 4531   7.658   3.120   2.025 -0.0515  0.2248 -0.0175
  481W        W 4532   7.935  10.104  12.104 -0.0148 -0.0835  0.0314
  482W        W 4533   8.833   8.488   1.197  0.3028 -0.0224 -0.1491
  483W        W 4534   3.721   6.085   3.306 -0.2238 -0.1370 -0.1659
  484W        W 4535   1.387   1.672  12.582  0.2994 -0.0490 -0.2060
  485W        W 4536   4.971   1.860   4.054 -0.0062  0.2288 -0.0674
  486W        W 4537   2.370   9.370   4.475 -0.1204 -0.0132  0.0743
  487W        W 4538   9.190   1.478   0.011 -0.0273 -0.2146 -0.4508
  488W        W 4539   7.179   9.526   0.253  0.2603  0.1030  0.1820
  489W        W 4540   2.768   4.700  10.989 -0.2070 -0.0371  0.2958
  490W        W 4541   7.103   3.531   9.214  0.0961 -0.0448  0.0166
  491W        W 4542   7.342   8.037  10.753  0.1855  0.2871 -0.2175
  492W        W 4543   5.828   2.636   0.208  0.0971  0.2886  0.0441
  493W        W 4544   0.634   5.021   3.726  0.1399  0.0617  0.2269
  494W        W 4545   0.315   3.605   3.327  0.1819 -0.0521 -0.1769
  495W        W 4546   3.796   4.599  11.822 -0.0802 -0.0647 -0.2415
  496W        W 4547   6.240   7.430   1.083 -0.2427  0.0615  0.2524
  497W        W 4548   3.265   1.695  12.659 -0.2416  0.1042  0.2948
  498W        W 4549   1.835   4.665   3.840 -0.1363 -0.2009 -0.0608
  499W        W 4550   5.375   0.062  12.397 -0.6436  0.0312 -0.1217
  500W        W 4551   3.988   9.578   0.594  0.2020 -0.0132  0.1062
  501W        W 4552   5.874   3.275  12.345  0.0829 -0.0263 -0.1532
  502W        W 4553   8.807   2.655  13.713  0.0542 -0.0408 -0.0521
  503W        W 4554   2.679   6.373   2.743  0.2614  0.1763  0.0635
  504W        W 4555   4.262   9.595  12.512  0.1498 -0.0798  0.2495
  505W        W 4556   1.384   0.895   3.884  0.1327 -0.2697 -0.0520
  506W        W 4557   2.941   1.301   1.489 -0.5221 -0.0436  0.0157
  507W        W 4558   2.692   6.555   1.932  0.0233 -0.0442  0.0641
  508W        W 4559   4.644   0.462  13.109 -0.1191 -0.2134 -0.1790
  509W        W 4560   7.816   0.809  12.047 -0.1352  0.2665 -0.1778
  510W        W 4561   8.041   5.960  11.076 -0.2280 -0.0830  0.2343
  511W        W 4562   5.011   2.967   2.118 -0.0936 -0.0313 -0.1692
  512W        W 4563   4.348   4.328   5.575  0.0946  0.3015 -0.2433
  513W        W 4564   5.564   6.595  12.110  0.2255 -0.2833  0.3150
  514W        W 4565   0.270   0.339   0.360 -0.0396  0.3453 -0.1266
  515W        W 4566   8.761   9.602  10.943 -0.2187  0.0976 -0.1233
  516W        W 4567   8.602   1.587  11.878 -0.0136  0.1862 -0.0724
  517W        W 4568   4.271   2.440   4.519  0.1162  0.0319  0.2581
  518W        W 4569   9.120   5.974  12.692 -0.0549 -0.1198 -0.0275
  519W        W 4570   3.213   8.451   1.912  0.1322  0.0928  0.1781
  520W        W 4571   9.175   3.550  11.468 -0.1115 -0.0795  0.0927
  521W        W 4572   7.883   2.015   1.983  0.1668  0.1947  0.1082
  522W        W 4573   9.835  10.038   2.572  0.1362  0.1540 -0.0358
  523W        W 4574   6.223   9.107   3.203 -0.1885 -0.2095  0.1592
  524W        W 4575   1.755   0.542   9.742  0.0834  0.2161  0.1434
  525W        W 4576   3.485   1.167  10.725 -0.0459 -0.0483 -0.0753
  526W        W 4577   3.989   2.216   0.482  0.3165  0.2157  0.0242
  527W        W 4578   6.300   8.771   3.617  0.1087  0.1996 -0.0194
  528W        W 4579   9.127   9.371  12.990  0.1675 -0.1950  0.2255
  529W        W 4580   2.581   5.505  11.053 -0.1186  0.1753 -0.4251
  530W        W 4581   2.179   3.400   2.859 -0.1870  0.0607 -0.0351
  531W        W 4582   2.768   8.048  12.591 -0.0461  0.0709 -0.1301
  532W        W 4583   9.943   8.880   3.555  0.2273 -0.1424 -0.2874
  533W        W 4584   3.849   0.375   0.873 -0.0158 -0.0240 -0.1109
  534W        W 4585   1.257   9.204   2.985 -0.1034  0.1055 -0.2643
  535W        W 4586   4.146   3.011   2.642 -0.4021  0.1434  0.1789
  536W        W 4587   0.667   0.510   2.921  0.2037  0.1285 -0.1571
  537W        W 4588   4.453   6.425   4.457 -0.1347 -0.0384 -0.2024
  538W        W 4589   3.200   3.046   0.306  0.3568  0.0653  0.0647
  539W        W 4590   0.361   4.125   0.684 -0.0749 -0.4296  0.2171
  540W        W 4591   3.966   1.489   2.130 -0.0274 -0.2168 -0.0801
  541W        W 4592  10.009   3.567   4.153 -0.0510  0.1120  0.0940
  542W        W 4593   8.444   0.248   3.607 -0.0395 -0.0670  0.1006
  543W        W 4594   6.131   7.777   3.562 -0.1803 -0.0325 -0.0430
  544W        W 4595   2.379   3.653   0.008  0.0873  0.1189  0.2108
  545W        W 4596   2.716   3.989   1.381 -0.2171 -0.1658  0.2898
  546W        W 4597   0.200   2.755   0.420  0.0953 -0.0232 -0.1226
  547W        W 4598   7.261   1.584   3.050  0.0744 -0.0530 -0.0597
  548W        W 4599   3.102   5.897  13.494  0.1386  0.2822 -0.2268
  549W        W 4600   6.121   1.887   9.356  0.1486  0.0550  0.2131
  550W        W 4601   1.321   4.421  11.008 -0.3052  0.2715 -0.1166
  551W        W 4602   4.729   1.582   9.035 -0.2519  0.1889  0.1230
  552W        W 4603   8.862   3.177   0.916  0.0144 -0.1891  0.2711
  553W        W 4604   8.307   0.851  12.314  0.0326  0.2753  0.0919
  554W        W 4605   1.139   7.752  12.924 -0.0069 -0.1893 -0.0359
  555W        W 4606   2.185   5.666   0.808 -0.0704 -0.3503  0.3314
  556W        W 4607   9.598   0.230  13.524 -0.0450  0.3668  0.0712
  557W        W 4608   9.403   2.587   1.223  0.1951 -0.0161 -0.2167
  558W        W 4609   7.403   5.393  10.311 -0.1051  0.0949 -0.3921
  559W        W 4610   5.373   4.777  11.672 -0.3160  0.1254  0.0604
  560W        W 4611   3.569   5.029  11.960 -0.1091  0.1968  0.2589
  561W        W 4612  10.050   8.591  13.000  0.0900 -0.0536 -0.2014
  562W        W 4613   8.614   5.810   4.503  0.2328 -0.3611  0.0761
  563W        W 4614   6.897   1.992  12.717 -0.1634  0.2334  0.0108
  564W        W 4615   4.236   0.650  10.612 -0.2389  0.3927  0.0711
  565W        W 4616   6.977   5.432   3.317  0.2185  0.0897  0.3928
  566W        W 4617   7.452   0.452   2.583  0.0585  0.2273  0.1443
  567W        W 4618   9.952   7.506   3.134  0.0952 -0.1358 -0.1069
  568W        W 4619   4.122   5.129   9.375 -0.0406 -0.1530 -0.1090
  569W        W 4620   8.722   4.208   1.824 -0.1192  0.4203 -0.3698
  570W        W 4621   6.641   0.221   4.508 -0.2362  0.2772 -0.0785
  571W        W 4622   5.468   2.501   4.441 -0.1799 -0.1838  0.3030
  572W        W 4623   9.159   1.374   3.914 -0.0183  0.2778  0.0643
  573W        W 4624   8.247   2.132   3.131  0.1336  0.1819 -0.2678
  574W        W 4625   0.235   5.883  12.518 -0.1392 -0.0755  0.0798
  575W        W 4626   3.147   8.838   3.724  0.2631 -0.0896  0.0982
  576W        W 4627   2.435   6.594   3.173 -0.2571  0.0985 -0.0369
  577W        W 4628   2.550   0.905  11.480  0.2225  0.0552  0.0817
  578W        W 4629   7.537   9.394   2.215  0.1474 -0.0869  0.0074
  579W        W 4630   6.998   6.890   1.724 -0.0625 -0.2915  0.2599
  580W        W 4631   0.899   1.858   2.680  0.2629 -0.1590  0.2299
  581W        W 4632   2.931   6.171   8.898  0.1063 -0.0331 -0.2151
  582W        W 4633  10.049   3.318  13.034  0.0785  0.0309  0.2145
  583W        W 4634   2.746   8.392  10.115  0.4636  0.4449 -0.1135
  584W        W 4635   7.130   9.875  10.311  0.0487  0.2280  0.1997
  585W        W 4636   3.189   8.715   0.389  0.3918 -0.0307 -0.2161
  586W        W 4637   7.255   6.493   1.977  0.0742 -0.2615 -0.1208
  587W        W 4638   1.143   7.789   4.261  0.4520  0.1790 -0.1342
  588W        W 4639   5.229   1.396   4.175 -0.2081 -0.0208  0.0022
  589W        W 4640   7.092   8.885  10.088  0.1752  0.0421 -0.0954
  590W        W 4641   2.268   5.139   2.463  0.3153 -0.0007  0.0215
  591W        W 4642   4.596   6.095  11.763  0.0117  0.3083 -0.2005
  592W        W 4643   5.211   4.376   0.371  0.0637  0.1244  0.0244
  593W        W 4644   1.935   8.045  10.851 -0.0697  0.0788 -0.0722
  594W        W 4645  10.004   7.378   1.786 -0.1741 -0.1622  0.0470
  595W        W 4646   3.334   0.405   3.720  0.2095  0.2360  0.0664
  596W        W 4647   2.244   4.848   4.244  0.0748  0.3058 -0.0473
  597W        W 4648   3.699   3.835   3.190  0.0627  0.0236  0.0948
  598W        W 4649   6.311   4.288  10.823 -0.1035  0.0962 -0.2749
  599W        W 4650   8.876   8.428  13.327  0.0231  0.1531  0.0062
  600W        W 4651   3.323   3.252   2.488 -0.0095  0.1452 -0.1822
  601W        W 4652   0.962   6.992   3.472  0.0801 -0.3284 -0.2290
  602W        W 4653   6.911  10.106   3.865  0.1000  0.0248  0.1872
  603W        W 4654   1.701   6.541   9.022  0.2711  0.0929  0.0987
  604W        W 4655   9.590   3.222   0.358  0.0415  0.1010  0.2109
  605W        W 4656   4.642   6.518   3.339  0.2561 -0.3288  0.1073
  606W        W 4657   4.682   8.980   3.787 -0.0514  0.0017  0.0915
  607W        W 4658   4.914   9.828   3.190  0.0465  0.1996  0.0656
  608W        W 4659   6.911   5.597   9.742  0.1762 -0.0585 -0.3527
  609W        W 4660   5.236   3.516  11.639 -0.0314  0.1546 -0.0232
  610W        W 4661   6.938   8.190  13.020 -0.3305 -0.1482  0.3732
  611W        W 4662   0.563   2.336   4.321  0.1137 -0.4694 -0.1194
  612W        W 4663   7.062   2.560  11.864 -0.0584  0.0221 -0.1966
  613W        W 4664   4.862   3.433  10.102 -0.1740 -0.1410  0.1425
  614W        W 4665   1.993   0.229  13.592  0.2275 -0.1211  0.0373
  615W        W 4666   1.788   6.359   0.154 -0.2000  0.0151 -0.1723
  616W        W 4667   0.476   5.158   0.189  0.0153 -0.0656 -0.1397
  617W        W 4668   5.484   2.100  11.073  0.0191 -0.0771 -0.3801
  618W        W 4669   7.610   1.003   9.966 -0.0386  0.2188 -0.1643
  619W        W 4670   1.024   6.824  13.784 -0.0262  0.1183 -0.2905
  620W        W 4671   8.639   7.051   3.431 -0.2951  0.1620  0.0429
  621W        W 4672   6.589   2.442  12.000  0.1658 -0.0697  0.0317
  622W        W 4673   9.649   5.234   2.249 -0.1742 -0.2321  0.3022
  623W        W 4674   3.641   9.612   2.946 -0.2733 -0.4896 -0.0800
  624W        W 4675   4.597   4.561   4.663  0.1273  0.0215 -0.2192
  625W        W 4676   4.734   4.911   1.463  0.0718  0.2194  0.1236
  626W        W 4677   2.905   4.209   3.867  0.0870 -0.2895 -0.2659
  627W        W 4678   1.774   2.519   3.345  0.0177 -0.0136 -0.0621
  628W        W 4679   5.037   9.390   4.119 -0.0892 -0.3205  0.1831
  629W        W 4680   1.614   3.249   1.534  0.6180 -0.1082 -0.1084
  630W        W 4681   2.575   8.420   1.852 -0.2186 -0.2936  0.1644
  631W        W 4682  10.115   2.318   9.921 -0.3223 -0.0410  0.1084
  632W        W 4683   4.703   8.132  13.572  0.0723  0.0788 -0.0723
  633W        W 4684   0.672   2.497  13.411  0.2416 -0.1384  0.0793
  634W        W 4685   6.314   1.011   9.820 -0.1568 -0.2659  0.2498
  635W        W 4686   0.771   3.473   3.303  0.4395 -0.0606  0.1482
  636W        W 4687   8.757   7.138  11.559 -0.0520  0.1072 -0.0961
  637W        W 4688   2.567   3.663   5.138 -0.1913  0.2367 -0.0496
  638W        W 4689   8.147   0.006   2.870  0.0310 -0.0105  0.1188
  639W        W 4690   3.337   3.792  12.529  0.2549 -0.3644  0.2076
  640W        W 4691   8.007   6.361  10.164 -0.2992 -0.3540  0.1180
  641W        W 4692   1.364   2.509   0.590 -0.1053  0.0429 -0.1771
  642W        W 4693   9.447   0.527  12.339  0.0205  0.2293 -0.0835
  643W        W 4694   7.857   9.905  10.638  0.1030 -0.2197 -0.0244
  644W        W 4695   7.964   5.087   0.754 -0.3610  0.2243 -0.1006
  645W        W 4696   1.396   6.151  11.942 -0.2628 -0.0305 -0.3912
  646W        W 4697   5.297   9.547   1.775  0.4901  0.2317  0.0935
  647W        W 4698   0.673   3.483   3.831  0.0730  0.3046  0.0057
  648W        W 4699   4.498   6.602   0.690 -0.0344 -0.0429  0.0293
  649W        W 4700   1.227   3.356  13.416  0.3741 -0.0480  0.3237
  650W        W 4701   7.870   0.593  11.091  0.1720  0.1964 -0.1550
  651W        W 4702   2.155   7.637  11.089  0.2539  0.2788 -0.0562
  652W        W 4703   5.228   2.421   2.395  0.1265  0.0605  0.2607
  653W        W 4704   8.002   4.741   2.766 -0.0882 -0.1333  0.0569
  654W        W 4705   1.046   4.657   4.974  0.0323 -0.0048 -0.0459
  655W        W 4706   7.266   0.819  10.420  0.1057 -0.0339  0.1017
  656W        W 4707   6.113   9.482   2.646 -0.2225 -0.5721 -0.1735
  657W        W 4708   3.940   8.307   9.507 -0.1995  0.1253 -0.2788
  658W        W 4709   8.267   2.700   4.698  0.1424  0.1833 -0.0383
  659W        W 4710   3.298   1.293   1.036 -0.0020  0.2182  0.3884
  660W        W 4711   6.821   9.463  13.903  0.1347  0.0746 -0.1572
  661W        W 4712   5.208   8.094   9.546  0.0655  0.2239  0.3349
  662W        W 4713   5.150   6.133  11.763 -0.2631  0.1582 -0.1835
  663W        W 4714   1.741   9.370   9.725 -0.1409  0.1971 -0.1073
  664W        W 4715   0.253   5.348  12.258  0.0965  0.0614  0.0599
  665W        W 4716   7.374   2.132  12.657  0.0608 -0.1111  0.0119
  666W        W 4717   3.332   0.367   1.631 -0.1349  0.1518  0.1921
  667W        W 4718   9.241   5.352  13.384 -0.1026 -0.1813  0.0014
  668W        W 4719   5.565  10.090   2.711  0.1805 -0.2262 -0.2258
  669W        W 4720   9.516   2.874   1.723  0.0806  0.1994  0.0010
  670W        W 4721   7.307   0.716   3.749  0.0583 -0.4321  0.1583
  671W        W 4722   3.992   3.993   5.766  0.0627 -0.2679 -0.0893
  672W        W 4723   9.238   5.376   1.974 -0.1452 -0.1192  0.0432
  673W        W 4724   0.349   9.267   1.711 -0.1281  0.4186 -0.0831
  674W        W 4725   9.138   2.798  10.085  0.0569  0.0246  0.2493
  675W        W 4726   9.487   2.862   5.801 -0.3179  0.2132  0.4470
  676W        W 4727   3.214   6.766  13.742  0.0900 -0.3739  0.0001
  677W        W 4728   6.209   2.829   2.210 -0.2146 -0.3640  0.1972
  678W        W 4729   8.926   3.402   2.285  0.0307  0.0081 -0.2563
  679W        W 4730   4.501   1.379   2.866 -0.0825 -0.2799 -0.0710
  680W        W 4731   7.638   7.343  11.961  0.0791  0.0857  0.0300
  681W        W 4732   0.650   3.057  11.602  0.1490  0.0445 -0.1313
  682W        W 4733   2.358   2.173   9.896  0.3972 -0.0336 -0.2487
  683W        W 4734  10.099   9.695  11.834  0.1017 -0.0038 -0.0648
  684W        W 4735   2.214   0.840  12.705  0.2326  0.2230 -0.0106
  685W        W 4736   5.126   6.571   3.641  0.2177 -0.1691 -0.1321
  686W        W 4737   8.233   1.995   9.119  0.2715  0.2190 -0.0046
  687W        W 4738   6.842   7.283  13.143  0.0601 -0.2128 -0.3683
  688W        W 4739   2.106   7.098  11.782 -0.0271 -0.1206 -0.1940
  689W        W 4740   5.626   3.652  12.125  0.1503 -0.0192  0.1031
  690W        W 4741   2.542   3.611   2.288  0.0580 -0.4206  0.2159
  691W        W 4742   5.574   2.706   2.741  0.1143 -0.2329 -0.1861
  692W        W 4743   5.861   3.551   3.558  0.1715  0.1263 -0.2849
  693W        W 4744   1.155   6.710   1.885  0.1159 -0.0365  0.0571
  694W        W 4745   6.166   0.391  12.171  0.0495 -0.2674 -0.2135
  695W        W 4746   4.276   9.533  13.580  0.0893 -0.3217  0.1734
  696W        W 4747   3.363   9.459   4.802 -0.0583  0.0975  0.2330
  697W        W 4748   0.613   7.806   3.334 -0.0429  0.0896  0.2267
  698W        W 4749   1.574   7.149   1.166  0.1230 -0.3295 -0.1538
  699W        W 4750   0.199   5.438   2.972 -0.0577 -0.1120 -0.1786
  700W        W 4751   0.960   0.636   1.389  0.0815  0.3027 -0.2393
  701W        W 4752   4.234   4.534   3.411  0.0576 -0.1321  0.0588
  702W        W 4753   0.687   2.518   3.829  0.0329 -0.0104  0.0033
  703W        W 4754   8.837   0.668  11.459 -0.1610  0.0090  0.2464
  704W        W 4755   5.658   6.801  10.182  0.3206  0.1848  0.0145
  705W        W 4756   6.241   5.582  10.525 -0.0146  0.0181 -0.2422
  706W        W 4757   7.614   7.912   1.936  0.2399  0.1846 -0.1091
  707W        W 4758   5.913  10.087   3.541 -0.0391  0.1701 -0.1498
  708W        W 4759   7.780   6.318   3.443  0.2231  0.1431  0.0539
  709W        W 4760   7.617   1.493   1.029 -0.0742 -0.1726 -0.0494
  710W        W 4761   9.816   8.029   1.407  0.0359  0.2857  0.0064
  711W        W 4762   0.210   7.921  12.294  0.3723 -0.1963  0.3253
  712W        W 4763   7.307   4.649  11.827  0.1138  0.0922  0.1934
  713W        W 4764   0.973   5.692   9.658 -0.3206  0.1165 -0.2537
  714W        W 4765   3.761   2.420  13.672  0.0792  0.0689 -0.1743
  715W        W 4766   1.524   9.549   1.298  0.0550  0.0029  0.0780
  716W        W 4767   4.953   0.922  12.270 -0.2379 -0.1681  0.0718
  717W        W 4768   9.052   4.170   4.110 -0.0453 -0.0884 -0.0418
  718W        W 4769   5.610   4.391  13.697  0.0291 -0.0864 -0.3131
  719W        W 4770   0.284   8.607   4.227  0.2161 -0.0380  0.0483
  720W        W 4771   0.738   2.026  10.289  0.0843  0.1956 -0.2105
  721W        W 4772   7.495   9.965   0.121  0.4109 -0.0318  0.1098
  722W        W 4773   6.208   7.282   3.583  0.3078  0.0589  0.2116
  723W        W 4774   6.290   8.786  12.104  0.1216  0.1065  0.1859
  724W        W 4775   5.635   2.596   0.761  0.2011 -0.3663  0.0079
  725W        W 4776   8.876   4.428  10.220  0.1885  0.1282 -0.1657
  726W        W 4777   6.236   2.464  12.456 -0.1322  0.0209 -0.0674
  727W        W 4778   9.212   1.619   2.490 -0.0327 -0.3214  0.1868
  728W        W 4779   6.911   8.855  12.887 -0.3904 -0.0997  0.2015
  729W        W 4780   7.709   4.143  10.427 -0.1838  0.1701 -0.0317
  730W        W 4781   7.223   9.819   1.826 -0.2618 -0.2381  0.3085
  731W        W 4782   3.566   2.900  12.482  0.2473  0.0184 -0.3077
  732W        W 4783   5.904   3.890   0.954  0.3081 -0.1285  0.0272
  733W        W 4784   4.415   7.846   5.192  0.3065  0.2335 -0.0128
  734W        W 4785   8.544   6.107   0.831 -0.0154 -0.1512  0.0758
  735W        W 4786   6.841   1.316   9.754 -0.0471  0.1051  0.0218
  736W        W 4787   6.759   5.339   1.324 -0.2264 -0.0880  0.3063
  737W        W 4788   2.915   3.122   9.805  0.0316 -0.0218  0.2277
  738W        W 4789   2.471   6.827  11.954  0.1051  0.0285  0.0151
  739W        W 4790   3.558   6.748   5.648  0.2898 -0.0601  0.0288
  740W        W 4791   8.634   7.635  11.417  0.2601  0.0224 -0.2979
  741W        W 4792   2.394   8.547  10.533  0.1064  0.2778 -0.0116
  742W        W 4793   3.667   6.407  13.131 -0.0211 -0.1839  0.1666
  743W        W 4794   4.749   5.688  10.907  0.2181  0.0292 -0.0611
  744W        W 4795   0.509   2.920  13.741 -0.3085 -0.0527  0.1959
  745W        W 4796   1.758   1.779   5.753 -0.0104  0.3790 -0.0356
  746W        W 4797   4.030   4.211   1.008 -0.0320 -0.0608  0.0834
  747W        W 4798   0.883   9.359  11.664 -0.1079  0.0267 -0.0454
  748W        W 4799   1.820   8.943  12.498  0.1736  0.1601  0.0642
  749W        W 4800   9.343   1.982  13.195  0.2529 -0.0836 -0.0917
  750W        W 4801   6.113  10.120  11.444 -0.0587  0.0439 -0.2684
  751W        W 4802   9.815   7.049   3.369 -0.0703 -0.1165 -0.3810
  752W        W 4803   2.866   5.642   2.428  0.1498  0.3714  0.0485
  753W        W 4804   6.256   6.681   4.219 -0.0714 -0.1600  0.2003
  754W        W 4805   0.250   4.810  11.349 -0.1556 -0.1430 -0.4282
  755W        W 4806   4.510   9.996   9.226 -0.0742 -0.0950 -0.1869
  756W        W 4807   7.255   2.547  13.900 -0.2516 -0.0112  0.0514
  757W        W 4808  10.062   7.029   2.204 -0.0711  0.0711  0.0278
  758W        W 4809   1.930   8.809   2.543  0.1836 -0.1057 -0.0815
  759W        W 4810   9.010   3.710  13.502  0.1000 -0.1187  0.1022
  760W        W 4811   4.525   3.154  13.618 -0.0147  0.2529 -0.0248
  761W        W 4812   9.930   7.327  12.825  0.1302  0.1461 -0.1825
  762W        W 4813   9.873   8.500   1.372  0.3195  0.2273  0.1887
  763W        W 4814   7.422   1.575  13.958 -0.3239  0.2742  0.0042
  764W        W 4815   8.824   1.553   2.211  0.0028  0.0502  0.0546
  765W        W 4816   6.980   2.631   9.512 -0.1084  0.2622 -0.2715
  766W        W 4817   8.525   7.851   0.528  0.0734 -0.2478  0.2142
  767W        W 4818   3.886   5.870  10.664 -0.1539  0.0334 -0.0856
  768W        W 4819   8.505   9.845  13.944  0.2433 -0.1343 -0.1317
  769W        W 4820   2.746   5.545  13.588  0.2445  0.1061  0.0110
  770W        W 4821   0.050   2.074  13.714 -0.0760  0.2606  0.0309
  771W        W 4822   9.164   0.251  10.044 -0.0658  0.2088  0.1594
  772W        W 4823   1.000   5.843  11.871 -0.2989  0.2417  0.1019
  773W        W 4824   6.594   8.211   3.229 -0.2120  0.1528 -0.1501
  774W        W 4825   8.639   7.728   1.854  0.0060  0.0301 -0.2394
  775W        W 4826   6.789   0.728  12.185 -0.0602  0.2355  0.0742
  776W        W 4827   3.150   5.233  12.890  0.1014 -0.1056  0.2467
  777W        W 4828   2.490   3.502  11.378 -0.2822 -0.0350 -0.2352
  778W        W 4829   4.421   8.353  12.759 -0.2132 -0.1572  0.0921
  779W        W 4830   5.505   7.484   0.270  0.1221  0.2200  0.0544
  780W        W 4831   0.913   5.398  11.670 -0.2979  0.1771 -0.3258
  781W        W 4832   0.231   6.424  13.354  0.2982  0.0340 -0.1333
  782W        W 4833   6.955   1.419   0.756 -0.1120 -0.0301  0.0226
  783W        W 4834   0.028   2.654  10.309  0.1817 -0.0661 -0.0984
  784W        W 4835   7.428   4.906   0.341  0.0534 -0.0172 -0.0937
  785W        W 4836   9.445   7.381  13.024 -0.2092  0.1342 -0.0020
  786W        W 4837   1.137   0.459   2.125  0.1530  0.2842 -0.0038
  787W        W 4838   0.386   6.931  10.219 -0.0704 -0.1230 -0.2809
  788W        W 4839   0.817   5.461   0.068  0.1082 -0.2055 -0.1622
  789W        W 4840   3.307   1.153   2.512 -0.0054  0.0635 -0.1084
  790W        W 4841   6.529   9.213   3.636  0.2925 -0.0472  0.0808
  791W        W 4842   8.504   5.200   3.865 -0.2562 -0.0849  0.1653
  792W        W 4843   6.634   7.845  10.178 -0.0480 -0.1669  0.0288
  793W        W 4844   5.987   2.351  11.893  0.1066  0.0824 -0.1668
  794W        W 4845   9.513   6.004  11.126 -0.2398 -0.2493 -0.0756
  795W        W 4846   9.517   1.433   3.534  0.1125  0.3334 -0.2437
  796W        W 4847   9.927   6.730  13.295  0.1379  0.2244 -0.3100
  797W        W 4848   7.487   2.753   2.321 -0.1662  0.0067  0.3225
  798W        W 4849   9.994   4.867   4.718 -0.2948 -0.2840 -0.2092
  799W        W 4850   5.483   7.463  12.713  0.0996 -0.2805 -0.0611
  800W        W 4851   8.670   6.107   3.298 -0.2069 -0.0344 -0.2159
  801W        W 4852   7.930   2.058  12.706  0.0742 -0.0382  0.1920
  802W        W 4853   4.237   2.283  13.968 -0.0119  0.0488  0.3270
  803W        W 4854   4.247   7.209   0.082  0.0933  0.2213 -0.0545
  804W        W 4855   0.012   2.901  13.965  0.2834  0.1832  0.1162
  805W        W 4856   2.415   1.114   4.634  0.0852 -0.0700 -0.0622
  806W        W 4857  10.111   2.371   0.124  0.1220 -0.0675  0.4091
  807W        W 4858   2.032   8.937   3.791 -0.2544 -0.0896 -0.1195
  808W        W 4859   5.801   3.146   2.653  0.0728 -0.0555  0.0651
  809W        W 4860   1.164   0.802   5.027  0.1633 -0.0622  0.2882
  810W        W 4861   8.598   4.305  10.649 -0.2152 -0.0343 -0.1058
  811W        W 4862   6.884   0.718  11.598  0.0589  0.1210  0.0706
  812W        W 4863   2.658   6.336   0.893 -0.3345 -0.0516 -0.2905
  813W        W 4864   1.150   6.381  10.190 -0.0163  0.1557 -0.0444
  814W        W 4865   0.878   6.688   9.410 -0.2586 -0.0757  0.1153
  815W        W 4866   4.712   0.790  13.645 -0.0781 -0.3007  0.1374
  816W        W 4867   1.038   3.127   9.968  0.0611 -0.3613 -0.0921
  817W        W 4868   3.009   9.041   2.627 -0.1401  0.2323  0.2413
  818W        W 4869   2.591   7.564  10.358 -0.0699 -0.0888  0.0634
  819W        W 4870   0.199   2.393   2.881  0.2019 -0.0869  0.1330
  820W        W 4871   3.916   1.327   2.622  0.2239 -0.0960 -0.0324
  821W        W 4872   9.634   9.571  13.178  0.1729 -0.5273  0.1594
  822W        W 4873   2.473   8.959   1.832  0.0861 -0.2475  0.0817
  823W        W 4874   9.511   7.280  12.500  0.2514 -0.0980 -0.1069
  824W        W 4875   1.713   4.799  11.007 -0.0365 -0.1311  0.1396
  825W        W 4876  10.175   4.410  10.837  0.1106 -0.1302 -0.4087
  826W        W 4877   4.209   2.018   8.748 -0.1392 -0.0347 -0.3151
  827W        W 4878   7.635   3.598   1.869 -0.2225 -0.5031  0.4850
  828W        W 4879   2.916   2.555  13.541 -0.5049 -0.3526 -0.2256
  829W        W 4880   6.521   3.277  12.218 -0.1605  0.0830 -0.0183
  830W        W 4881   8.451   9.656  12.218  0.1597  0.0592 -0.0426
  831W        W 4882   9.706   5.764   4.573 -0.0590 -0.3437 -0.2602
  832W        W 4883   1.067   9.246  13.610  0.0673  0.1303  0.0619
  833W        W 4884   6.869   2.772  10.391  0.0053 -0.2129 -0.2452
  834W        W 4885   0.724   5.400   0.570 -0.1298 -0.0745  0.0852
  835W        W 4886   7.603   4.448   9.899 -0.3005 -0.2042  0.1038
  836W        W 4887   5.200   4.884  12.123  0.0020 -0.2526  0.0605
  837W        W 4888   5.980   3.633   0.174 -0.0450 -0.1186  0.2501
  838W        W 4889   8.317   8.232  12.619  0.1725  0.1169 -0.1813
  839W        W 4890   5.344   7.443  11.827  0.0314  0.3752  0.0808
  840W        W 4891   9.165   3.007   2.155  0.1492 -0.2163 -0.0741
  841W        W 4892   1.088   5.330   3.725 -0.0192  0.0196  0.0810
  842W        W 4893   3.696   8.006   0.018  0.3701 -0.1381  0.3392
  843W        W 4894   0.247   2.936   1.763  0.4129 -0.0560  0.1056
  844W        W 4895   6.731   6.969   0.440  0.1231 -0.2803  0.0984
  845W        W 4896   2.240   3.499  10.458 -0.0547  0.1184 -0.3133
  846W        W 4897   3.313   7.936   3.424 -0.0113  0.1153  0.1762
  847W        W 4898   6.577   7.685   1.389  0.1095  0.2866  0.1088
  848W        W 4899   6.979   2.333  10.702  0.1105 -0.2800  0.5894
  849W        W 4900   0.702   5.272   4.145  0.0226 -0.2086  0.0637
  850W        W 4901   9.441   4.853   3.130 -0.2378  0.0957 -0.1974
  851W        W 4902   2.391   8.583  11.542 -0.0014 -0.1962 -0.1669
  852W        W 4903  10.004   5.729   2.870  0.0178 -0.0500  0.4128
  853W        W 4904   4.591   3.419  13.171  0.1753  0.0975 -0.2006
  854W        W 4905   4.007   1.046   4.911 -0.0435 -0.0939 -0.2056
  855W        W 4906   0.089   2.203   4.526 -0.2545  0.0470 -0.2491
  856W        W 4907   0.677   0.687   0.382  0.0405 -0.2308 -0.2470
  857W        W 4908   9.190   0.335   0.932 -0.0439 -0.3410 -0.2092
  858W        W 4909   6.974   1.211  12.224 -0.0728 -0.3286 -0.0575
  859W        W 4910   9.563   1.840  13.966  0.2575  0.3108 -0.3091
  860W        W 4911   8.694   0.374  10.234 -0.0514  0.1315 -0.0506
  861W        W 4912   0.084   5.200  11.013  0.3853  0.3592 -0.1175
  862W        W 4913   4.000   5.164   4.142  0.0001 -0.2208  0.1383
  863W        W 4914   8.598   1.117  11.463  0.1435 -0.1067  0.0366
  864W        W 4915   4.254   1.628   1.335 -0.0713  0.0650  0.2811
  865W        W 4916   7.244   7.174   2.750  0.1440  0.1170 -0.1084
  866W        W 4917   8.791   8.977   2.057  0.0293  0.1127 -0.0363
  867W        W 4918   5.752   5.315   0.935 -0.0009  0.0358 -0.0156
  868W        W 4919   0.575   0.753  10.545  0.0662 -0.1359  0.2799
  869W        W 4920   6.641   6.300   2.668  0.1110  0.0066  0.1752
  870W        W 4921   1.052   4.814   3.731 -0.1617  0.2022 -0.2620
  871W        W 4922   9.750   4.460   2.654  0.0344  0.0154 -0.4281
  872W        W 4923   3.747   8.285  10.322  0.0736  0.1808 -0.2113
  873W        W 4924   2.206   7.571   2.342  0.1112 -0.0852  0.0731
  874W        W 4925   9.817   2.626  10.716 -0.0291  0.0388  0.3014
  875W        W 4926   3.386   7.922   8.662 -0.1629 -0.0453  0.5743
  876W        W 4927   6.658   4.717  11.385  0.1964 -0.1143 -0.1086
  877W        W 4928   9.040   8.854  13.628 -0.2419 -0.0292 -0.0052
  878W        W 4929   2.914   1.917   0.140 -0.1712 -0.3411 -0.3542
  879W        W 4930   6.463   1.613   3.817 -0.2148 -0.2971 -0.0946
  880W        W 4931   0.775   4.191  11.705 -0.1284  0.2801 -0.0291
  881W        W 4932   2.676   8.646  11.934 -0.1365 -0.3769  0.2348
  882W        W 4933   4.071   1.303  12.066 -0.0669 -0.0399  0.2220
  883W        W 4934   0.762   8.516   1.919  0.0257 -0.0130  0.1130
  884W        W 4935   7.272   9.648   3.378 -0.0441 -0.2846  0.0372
  885W        W 4936   8.898   2.863  13.248 -0.3694  0.3155  0.1084
  886W        W 4937   9.768   3.246   9.651  0.0037  0.0327  0.2379
  887W        W 4938   1.544   3.160   9.430  0.0017  0.0041 -0.1482
  888W        W 4939   4.686   2.840   4.026 -0.0678 -0.1587  0.5518
  889W        W 4940   1.659   2.647   2.897 -0.4671  0.1381 -0.1422
  890W        W 4941   4.430  10.168  12.915 -0.0948  0.4274 -0.0772
  891W        W 4942   3.513   2.941   4.980 -0.1652 -0.0591 -0.1420
  892W        W 4943   3.686   5.569   3.255 -0.1516 -0.1298  0.2716
  893W        W 4944   7.465   9.252  12.382 -0.2946 -0.1133  0.0929
  894W        W 4945   7.463   4.541   2.481 -0.2166  0.2019 -0.0429
  895W        W 4946   5.391  10.062   9.411 -0.0880  0.1601  0.0309
  896W        W 4947   8.651   9.657  10.405 -0.0591 -0.0544 -0.0756
  897W        W 4948   6.080   8.671  12.799  0.2855 -0.0126 -0.3578
  898W        W 4949   9.259   6.463   0.335  0.0629  0.2670  0.3375
  899W        W 4950   5.657   1.342  11.957  0.1044  0.4846  0.2510
  900W        W 4951   5.638   3.864  13.789 -0.0507  0.3574  0.0407
  901W        W 4952   7.730   5.348   9.314 -0.2590  0.3548 -0.0977
  902W        W 4953   5.200   4.850   3.029  0.0237 -0.1353 -0.0575
  903W        W 4954   7.322   6.290   2.911  0.0672 -0.0669 -0.4393
  904W        W 4955   8.153   3.438   2.814  0.0135 -0.1522  0.2293
  905W        W 4956   3.125   0.552  13.299  0.2550 -0.3493 -0.0116
  906W        W 4957   5.494   1.045   4.529 -0.0684 -0.3915  0.1095
  907W        W 4958   8.880   7.268   1.899 -0.1150 -0.0967 -0.0825
  908W        W 4959   6.011   2.020  12.273  0.1225 -0.0475  0.1194
  909W        W 4960   9.651   4.168  10.241  0.0539 -0.4246  0.0604
  910W        W 4961   1.080   2.477  13.712  0.1554 -0.0499 -0.1773
  911W        W 4962   4.940   9.466   2.290  0.1128  0.1736  0.1166
  912W        W 4963   2.177   5.962   0.142  0.0149  0.1955  0.1644
  913W        W 4964   6.931  10.111   3.320 -0.0700 -0.0477  0.1222
  914W        W 4965   4.880   6.996   0.745 -0.0755 -0.2047  0.1717
  915W        W 4966   5.578   6.586   9.594  0.0247 -0.2929  0.2583
  916W        W 4967   8.795   8.381  13.855  0.0757  0.1716 -0.0193
  917W        W 4968   9.786   1.768  13.285  0.1432 -0.0414 -0.1124
  918W        W 4969   4.212   1.666  10.263 -0.2246 -0.3813 -0.0583
  919W        W 4970   7.236   6.470  10.674 -0.1179  0.0874  0.1738
  920W        W 4971   8.237   9.664   1.577 -0.0635 -0.1980 -0.2005
  921W        W 4972   3.644   2.506  13.155  0.2130  0.2963  0.1600
  922W        W 4973   5.956   9.362   1.785 -0.1222 -0.2203 -0.2603
  923W        W 4974   4.508   6.925   4.113 -0.0155 -0.1061  0.3728
  924W        W 4975   6.631   6.739  12.394  0.0106  0.1345 -0.2493
  925W        W 4976   2.576   4.421   0.525 -0.2527  0.0261 -0.0562
  926W        W 4977   5.472   9.909   9.898  0.0164 -0.0991 -0.0385
  927W        W 4978   3.295   3.485  11.069 -0.0255  0.1052  0.0324
  928W        W 4979   5.920   6.523  13.846  0.3321 -0.1034 -0.1864
  929W        W 4980   8.116   4.524  12.735  0.4089  0.2648  0.1285
  930W        W 4981   2.160   7.587   1.721  0.0338 -0.0548  0.0493
  931W        W 4982   1.752   5.977   1.607 -0.2439  0.1462  0.1987
  932W        W 4983   2.909   3.237  11.206 -0.0903 -0.1207  0.0433
  933W        W 4984   3.107   2.713  10.146 -0.3167  0.3319  0.0956
  934W        W 4985   3.492   0.927   9.400  0.1375  0.0869  0.0897
  935W        W 4986   1.230   3.574  13.877 -0.1417 -0.1162  0.1869
  936W        W 4987   4.894   3.822  13.314  0.0021  0.1152 -0.3115
  937W        W 4988   5.352   6.797   5.342 -0.0197  0.4419 -0.1125
  938W        W 4989   9.130  10.053   0.752  0.0340  0.0024  0.4069
  939W        W 4990   1.099   8.736  13.617  0.0423 -0.0425  0.0929
  940W        W 4991   3.207   8.209   0.192 -0.4993  0.2901 -0.1296
  941W        W 4992   0.788   8.380  13.442  0.0040  0.0479  0.1217
  942W        W 4993   4.797   1.927   0.700 -0.3976 -0.2360 -0.2852
  943W        W 4994   8.827   8.522   2.366  0.0213  0.0127  0.0114
  944W        W 4995   5.943   5.789   2.364  0.4293  0.2627 -0.0285
  945W        W 4996   0.161   6.783   2.586  0.2063  0.2495 -0.0739
  946W        W 4997   2.926   1.837  11.302 -0.0947  0.0354 -0.2572
  947W        W 4998   0.357   3.165   0.867 -0.1082 -0.3119  0.2233
  948W        W 4999   7.994   3.993   9.923  0.1096 -0.1796 -0.0945
  949W        W 5000   7.351   6.506   1.510 -0.1244 -0.0346 -0.0147
  950W        W 5001   1.765   9.536   2.084 -0.1580 -0.3349  0.2026
  951W        W 5002   8.677   5.843   2.847  0.0264 -0.1748  0.3455
  952W        W 5003   2.195   0.389   9.909  0.0137 -0.1458 -0.3585
  953W        W 5004   3.899   4.631   2.484 -0.1932 -0.0062 -0.1834
  954W        W 5005   3.058   0.828  11.537  0.3856  0.1344 -0.0931
  955W        W 5006   7.015   7.110   3.848  0.1696  0.2228  0.0102
  956W        W 5007   7.633   3.111   0.937 -0.1375 -0.0660  0.5457
  957W        W 5008   1.146   4.578   0.365 -0.0705 -0.1269  0.0086
  958W        W 5009   6.886   3.727  11.638 -0.0167  0.0168  0.2802
  959W        W 5010   1.004   7.765  12.058  0.3360 -0.1160  0.1715
  960W        W 5011   5.290   9.476   0.494 -0.0297  0.0736  0.0472
  961W        W 5012   0.163   2.839  11.520  0.1631  0.2579  0.0432
  962W        W 5013   7.283   2.083  13.148 -0.0723  0.0891 -0.1985
  963W        W 5014   1.999   0.814  12.214  0.0875  0.3533  0.1772
  964W        W 5015   6.473   6.059   9.645 -0.1714  0.2348 -0.2120
  965W        W 5016   5.524   4.244  10.297 -0.2437  0.1903 -0.0528
  966W        W 5017   0.353   8.638  12.042  0.2745  0.2444 -0.3861
  967W        W 5018   5.928   0.644   3.382  0.0640  0.1469 -0.2865
  968W        W 5019   1.561   4.956   1.020 -0.0426  0.0956 -0.0719
  969W        W 5020   5.723   2.084   3.599  0.1117 -0.1678 -0.0055
  970W        W 5021   0.652   6.139   4.291  0.0021 -0.1423 -0.4867
  971W        W 5022   4.625   7.460   2.893 -0.2999 -0.1196 -0.1002
  972W        W 5023   3.422   8.111   9.558 -0.0067  0.2830 -0.1479
  973W        W 5024   7.608   5.691  11.244 -0.0492  0.1655  0.0282
  974W        W 5025   1.552   1.558  10.881 -0.2062  0.1506 -0.3495
  975W        W 5026   1.465   1.710   3.445  0.0454  0.0490  0.0907
  976W        W 5027  10.131   6.621  11.039  0.1502  0.2024  0.1946
  977W        W 5028   1.354   9.238  11.806  0.2942 -0.1133  0.0477
  978W        W 5029   5.814   3.622   2.191  0.1322  0.0771 -0.2053
  979W        W 5030   1.124   7.147  11.583  0.3255  0.0178  0.0691
  980W        W 5031   6.629   5.784   8.967  0.0296 -0.0646 -0.0329
  981W        W 5032   4.967   4.665   2.452 -0.1414 -0.2180  0.0876
  982W        W 5033   7.407   9.124  11.572  0.2623  0.2316 -0.3315
  983W        W 5034   7.618   0.528  13.457 -0.0178 -0.0365  0.2033
  984W        W 5035   2.402   5.066   5.118  0.0475 -0.0407 -0.1800
  985W        W 5036   4.881   2.688  12.715 -0.1076  0.0107  0.0132
  986W        W 5037   1.828   2.264   4.777  0.0725 -0.1287  0.1223
  987W        W 5038   2.794   3.762  12.392 -0.0946 -0.2854 -0.0285
  988W        W 5039   3.411   9.365  11.810  0.1365  0.0064 -0.0778
  989W        W 5040   1.394   0.195  10.722  0.2080 -0.0288 -0.0720
  990W        W 5041   3.154   6.716  10.779  0.3749 -0.1209  0.3505
  991W        W 5042   6.544   7.154   1.530 -0.2989 -0.0298 -0.0899
  992W        W 5043   2.540   0.088   2.257 -0.0347 -0.2598 -0.1082
  993W        W 5044   7.165   9.328  13.004  0.1613 -0.1522  0.3235
  994W        W 5045   0.601   3.600  12.650 -0.0073 -0.0250 -0.0660
  995W        W 5046   2.520   8.314   0.549 -0.1351 -0.0740  0.1366
  996W        W 5047   0.351   1.824   2.420 -0.0191  0.1268 -0.0700
  997W        W 5048   7.480   3.466  13.656  0.2659  0.0037  0.2289
  998W        W 5049   6.589   3.887  13.590  0.1935  0.1752 -0.0174
  999W        W 5050   4.354   8.094  11.636  0.1259 -0.2488  0.1534
 1000W        W 5051   4.628   3.299  11.386 -0.0874  0.0721 -0.1662
 1001W        W 5052   8.638   6.834   3.891  0.1327  0.1821 -0.2101
 1002W        W 5053   3.526   1.728  11.261 -0.0801  0.0040  0.0805
 1003W        W 5054   8.303   4.272  10.250  0.0834 -0.1444  0.4639
 1004W        W 5055   1.900   2.421   9.944  0.3256 -0.0449 -0.2892
 1005W        W 5056   5.694   7.920   2.068  0.0598 -0.1534  0.0804
 1006W        W 5057   9.494   2.757  11.448  0.0292 -0.0295  0.0882
 1007W        W 5058   5.403   1.223  13.834  0.0386 -0.1303 -0.2674
 1008W        W 5059   9.350   6.601  10.417 -0.0707 -0.1491 -0.0381
 1009W        W 5060   1.178   5.895   4.769 -0.1223 -0.1410  0.1934
 1010W        W 5061   1.412   4.468   3.568 -0.0357 -0.1586  0.1551
 1011W        W 5062   9.697   4.935   2.703  0.1337  0.0668 -0.0028
 1012W        W 5063   3.852   7.107   5.384 -0.1446  0.1150  0.1660
 1013W        W 5064   8.526   1.483   3.756  0.1394  0.0077 -0.0528
 1014W        W 5065   1.107   3.854  11.403 -0.0046 -0.4206  0.1525
 1015W        W 5066   3.140   6.240   4.175 -0.0502 -0.1882 -0.2297
 1016W        W 5067   1.553   4.457   9.861 -0.1099 -0.0664  0.0962
 1017W        W 5068   6.968   1.228  11.414 -0.0604  0.0827 -0.3448
 1018W        W 5069   5.595   7.165   3.049  0.1470 -0.1085 -0.0528
 1019W        W 5070   8.997   3.791   9.514 -0.0465 -0.3001 -0.1587
 1020W        W 5071  10.154   1.068  13.705  0.3450 -0.3760  0.0271
 1021W        W 5072   1.323   2.886  13.534 -0.0889  0.0612  0.1078
 1022W        W 5073   3.349   9.430   1.861  0.2468 -0.5065 -0.1064
 1023W        W 5074   7.879   1.357   1.895 -0.1056  0.0820 -0.0121
 1024W        W 5075   3.520   4.031  10.344  0.2362  0.1357 -0.2518
 1025W        W 5076   9.619   1.098   1.899  0.2841 -0.1779 -0.0171
 1026W        W 5077   8.247   6.724   2.558  0.1360  0.0085 -0.0973
 1027W        W 5078   3.324   3.319   5.359  0.5234 -0.0235 -0.1328
 1028W        W 5079   2.270   5.010  12.726  0.0414  0.4969  0.2174
 1029W        W 5080   4.079   7.218   9.669  0.2378 -0.0325  0.0693
 1030W        W 5081   3.022   7.354  12.486 -0.1617  0.1638 -0.0312
 1031W        W 5082   9.184   5.788  12.164 -0.0586  0.3538 -0.0412
 1032W        W 5083   3.477   8.822   2.537 -0.2999  0.2429 -0.0861
 1033W        W 5084   3.287   5.674   3.959 -0.1003  0.1144  0.2338
 1034W        W 5085   0.234   9.452   3.149 -0.0307 -0.0970  0.3619
 1035W        W 5086   1.236   9.584   4.783  0.1355  0.1561  0.0447
 1036W        W 5087  10.064   8.385   3.009  0.1064 -0.2485 -0.1607
 1037W        W 5088   0.259   8.534  13.327 -0.1250  0.1220 -0.0249
 1038W        W 5089   9.120   6.412  11.359  0.0894  0.0420  0.0678
 1039W        W 5090   6.998   5.099  13.069  0.0014  0.0099  0.0690
 1040W        W 5091   4.921   7.498  10.373  0.0480 -0.2347  0.0987
 1041W        W 5092   7.053   1.669  13.055  0.2297  0.3645  0.0567
 1042W        W 5093   8.956   5.975   0.325  0.0300  0.0235  0.0205
 1043W        W 5094   3.468   2.075   1.722  0.0320  0.3033 -0.1579
 1044W        W 5095   0.531   4.508  13.543  0.1537 -0.1493  0.3759
 1045W        W 5096   4.470   8.512   2.544  0.3157  0.1509  0.2356
 1046W        W 5097   8.256   2.955   3.596  0.1318 -0.0060  0.0288
 1047W        W 5098   4.260   3.190   2.214  0.0576  0.1345 -0.2668
 1048W        W 5099   5.603   3.530   0.730 -0.0505 -0.0279 -0.0687
 1049W        W 5100   8.419   3.505  12.797  0.0208 -0.0520  0.3514
 1050W        W 5101   4.207   0.257  12.479 -0.1654  0.2528 -0.0724
 1051W        W 5102   9.629   7.679   9.885 -0.3783 -0.2165  0.2610
 1052W        W 5103   6.897   6.722  13.369 -0.0853 -0.0070 -0.0001
 1053W        W 5104   9.511   7.014  13.326  0.1819  0.1350 -0.0040
 1054W        W 5105   2.036   4.017   4.524 -0.0832  0.0018  0.0368
 1055W        W 5106   2.932   7.848   3.754  0.2112 -0.2793 -0.0472
 1056W        W 5107   0.809   0.693   2.429  0.1274 -0.2077  0.1987
 1057W        W 5108   5.862   9.518  11.558 -0.0635 -0.0694 -0.2867
 1058W        W 5109   8.674   4.673   3.758  0.2173 -0.3949  0.0084
 1059W        W 5110   5.746   2.496   3.250 -0.2186 -0.0605 -0.0206
 1060W        W 5111   4.198   9.494  11.703 -0.0336  0.4471  0.1891
 1061W        W 5112   3.276   8.120   4.721  0.1100 -0.0728 -0.1651
 1062W        W 5113   3.497   9.033   0.740 -0.3478 -0.1992  0.0537
 1063W        W 5114   2.858   1.593   0.978 -0.0332  0.2117 -0.2273
 1064W        W 5115   4.655   6.736   1.187  0.1335  0.0024 -0.3367
 1065W        W 5116   4.458   5.973   9.765 -0.1076  0.0079 -0.1139
 1066W        W 5117   6.472   0.359   2.570  0.2450 -0.2701 -0.0705
 1067W        W 5118   9.177   3.544   4.242  0.2288  0.4029 -0.0640
 1068W        W 5119   9.341   1.997   1.048 -0.0937  0.3181  0.0631
 1069W        W 5120   4.907   6.012   9.069 -0.1784 -0.1326  0.0633
 1070W        W 5121   0.674   0.269   1.571 -0.5047 -0.1705 -0.0008
 1071W        W 5122   2.353   4.377   4.142  0.0835 -0.1315  0.1838
 1072W        W 5123   5.360   9.635  11.583  0.0026  0.0023  0.0469
 1073W        W 5124   8.792   5.084  13.293  0.1790  0.0739  0.2256
 1074W        W 5125   8.269   9.599  11.344 -0.0500  0.0523 -0.2028
 1075W        W 5126   1.559   4.582  13.926 -0.0258  0.2671  0.1271
 1076W        W 5127   7.221   4.658   1.964 -0.0515 -0.0005 -0.3196
 1077W        W 5128   5.452   3.228   2.252  0.0111  0.0211 -0.2071
 1078W        W 5129   6.391   4.564  10.350  0.0418  0.2556  0.2050
 1079W        W 5130   0.025   0.715   9.884 -0.2740 -0.0760  0.1592
 1080W        W 5131   7.866   0.215  13.061 -0.1747  0.1353 -0.0071
 1081W        W 5132   8.972   6.349  10.211  0.0090  0.0125 -0.1030
 1082W        W 5133   8.016   4.345   9.586 -0.0812 -0.2196  0.1921
 1083W        W 5134   6.692   8.560  10.697 -0.0455  0.1079 -0.2258
 1084W        W 5135   5.845   0.952   2.936  0.1485 -0.0424 -0.2983
 1085W        W 5136  10.146   4.909   2.947  0.1377 -0.1013 -0.0262
 1086W        W 5137   3.785   4.879   1.639 -0.0638  0.4390 -0.0422
 1087W        W 5138   9.449   7.574   0.862 -0.6260 -0.0327 -0.1737
 1088W        W 5139  10.162   3.696   1.463  0.0317  0.0520 -0.2357
 1089W        W 5140   7.366   3.612   0.230  0.2325 -0.1031  0.0304
 1090W        W 5141   9.125   0.203   2.084 -0.0578 -0.0397 -0.2823
 1091W        W 5142   4.737   7.202  13.814  0.1813  0.0393  0.0333
 1092W        W 5143   1.560   1.614   0.687 -0.0949 -0.2632 -0.1705
 1093W        W 5144   3.482   0.432   3.247  0.0696  0.0346 -0.2480
 1094W        W 5145   4.287   5.244  13.461 -0.1033 -0.2104 -0.2112
 1095W        W 5146   4.850   2.700   9.719 -0.0850 -0.1186 -0.1480
 1096W        W 5147   7.164   6.734  10.228 -0.0833  0.0357  0.0873
 1097W        W 5148   2.264   1.750   9.696  0.0030 -0.3552 -0.1257
 1098W        W 5149   3.798   0.547   5.083  0.2846 -0.3962 -0.2769
 1099W        W 5150   0.701   8.465  10.105 -0.4014 -0.0067  0.2259
 1100W        W 5151   2.221   1.691   3.262 -0.2532 -0.3857 -0.2459
 1101W        W 5152   2.699   0.988   3.744  0.0054 -0.1065  0.1051
 1102W        W 5153   4.156   5.484   4.495  0.0926  0.1231  0.3267
 1103W        W 5154   6.567   1.587  11.076  0.1780 -0.2079 -0.3850
 1104W        W 5155   0.853   6.805   4.326 -0.1643 -0.1532  0.0511
 1105W        W 5156   9.953   7.375  10.856 -0.2794 -0.4140  0.0536
 1106W        W 5157   8.860   8.009   1.489 -0.0209 -0.1204  0.1431
 1107W        W 5158   8.345   1.780  13.684 -0.3445  0.0394  0.1453
 1108W        W 5159   1.567   7.118   2.494  0.3567  0.2637 -0.2894
 1109W        W 5160   0.183   4.124   1.294  0.2895  0.1818 -0.2549
 1110W        W 5161   9.754   5.059  13.922 -0.4830  0.0439 -0.1998
 1111W        W 5162   8.977  10.002  11.284  0.2663  0.0422  0.1185
 1112W        W 5163   9.156   1.148  11.171 -0.1718  0.1273  0.1521
 1113W        W 5164   8.637   1.475  10.530 -0.0813 -0.0276  0.3413
 1114W        W 5165   8.371   0.909   0.752 -0.3247  0.1183  0.2649
 1115W        W 5166   4.695   8.451  11.771 -0.2225 -0.0326  0.1168
 1116W        W 5167   8.754   0.237  11.162  0.0775 -0.1322 -0.2705
 1117W        W 5168   5.623   0.235   9.633  0.3131  0.1144  0.1169
 1118W        W 5169  10.124   4.321   3.752 -0.2860 -0.0892  0.0024
 1119W        W 5170   5.259   8.839   0.621  0.1635 -0.0580  0.0653
 1120W        W 5171   3.386   1.781  10.054 -0.0281 -0.0877  0.1532
 1121W        W 5172   3.676   5.271  13.400  0.2797 -0.2751 -0.2495
 1122W        W 5173   1.912   6.590   2.300 -0.0139 -0.0501 -0.0717
 1123W        W 5174   9.262   2.849   3.581 -0.2054 -0.1809 -0.1242
 1124W        W 5175   0.336   1.034   1.160 -0.1219 -0.0299 -0.3388
 1125W        W 5176   8.666  10.169   1.848  0.1724 -0.2992 -0.0392
 1126W        W 5177   7.926   7.252  10.560 -0.1945  0.3674 -0.2088
 1127W        W 5178   3.571   0.626   0.508  0.0769  0.1023  0.0307
 1128W        W 5179   0.725   0.425   3.923  0.0442 -0.1050  0.0716
 1129W        W 5180   2.878   6.636   3.119 -0.2100 -0.0995 -0.2547
 1130W        W 5181   6.311   7.749   0.185  0.1704 -0.1198  0.2571
 1131W        W 5182   1.671   4.946  10.158 -0.2343 -0.2903  0.0790
 1132W        W 5183   7.230   9.098  11.035 -0.0241  0.2250  0.0041
 1133W        W 5184  10.147   5.371  11.468 -0.0957  0.1455 -0.0523
 1134W        W 5185   3.769   9.553   9.710 -0.0243 -0.1454  0.1910
 1135W        W 5186   1.480   0.555   1.350 -0.3835  0.2361 -0.4209
 1136W        W 5187   9.276   7.453   0.362  0.0151  0.2058 -0.2726
 1137W        W 5188   5.751   4.429  10.995 -0.1573 -0.1957 -0.0757
 1138W        W 5189   9.400   4.008   9.776  0.1276  0.2457  0.1850
 1139W        W 5190   8.160   2.794   0.272  0.3123 -0.1197  0.0485
 1140W        W 5191   9.757   8.410   3.350  0.1841 -0.0556 -0.1572
 1141W        W 5192   7.410   4.366   8.347 -0.4602  0.0259 -0.0532
 1142W        W 5193   4.804   4.099   0.750  0.2828 -0.2650  0.2823
 1143W        W 5194   5.662   2.581   5.355 -0.1198 -0.0223 -0.1242
 1144W        W 5195   4.087   6.175  12.653 -0.0286  0.1059  0.0192
 1145W        W 5196   4.109   8.117   2.570  0.1161  0.1678 -0.2115
 1146W        W 5197   4.998   2.972  12.209 -0.0949  0.0857 -0.1229
 1147W        W 5198   5.839   8.967  10.961  0.0761 -0.0664 -0.0434
 1148W        W 5199   1.721   2.181   2.055 -0.1226 -0.4965 -0.2572
 1149W        W 5200   6.264   4.586   3.861  0.2502 -0.1428  0.3174
 1150W        W 5201   7.096   9.950  13.694  0.3141 -0.2690 -0.1108
 1151W        W 5202   3.888   4.980   0.941 -0.2133  0.0570  0.1635
 1152W        W 5203   3.072   2.690  11.298 -0.0704 -0.2225  0.0960
 1153W        W 5204   6.988   2.549   0.637 -0.1979  0.1813 -0.0331
 1154W        W 5205   9.379   3.709   2.344 -0.4585  0.1774 -0.0382
 1155W        W 5206   5.283   2.294   3.459 -0.0246 -0.3395 -0.0294
 1156W        W 5207   6.685   9.378   1.152  0.1110 -0.3071 -0.1180
 1157W        W 5208   2.180   2.546   9.523 -0.4983  0.0154  0.0361
 1158W        W 5209   0.418   1.118  13.328  0.1770  0.4158 -0.1809
 1159W        W 5210   8.817   9.262  13.522 -0.0335 -0.1235 -0.2721
 1160W        W 5211   3.400   0.155  13.425  0.1531 -0.2256  0.0337
 1161W        W 5212   9.245   4.403  11.924 -0.3609 -0.0055 -0.0777
 1162W        W 5213   8.109   2.431   3.784  0.2647 -0.2397  0.1208
 1163W        W 5214   5.881   9.486   3.097  0.3057  0.2839 -0.1445
 1164W        W 5215   5.528   3.798   1.259  0.0755  0.0896 -0.2787
 1165W        W 5216   8.676   0.976   1.836  0.1247 -0.0807  0.1810
 1166W        W 5217   3.190   9.345  12.232  0.3352 -0.0700  0.1572
 1167W        W 5218   5.794   9.204   0.893  0.0991  0.1627 -0.2429
 1168W        W 5219   8.937   4.542  13.968  0.1293  0.0316 -0.0520
 1169W        W 5220  10.007   4.069   1.677 -0.1009 -0.2367  0.1112
 1170W        W 5221   4.654   9.867  10.844  0.0820 -0.2820  0.1174
 1171W        W 5222   1.462   1.333   3.139  0.0428 -0.0239 -0.0910
 1172W        W 5223   6.588   9.635   3.918 -0.2694 -0.2717  0.1975
 1173W        W 5224   1.804   3.627  13.955  0.1969 -0.0809 -0.1374
 1174W        W 5225   3.009   5.547   1.945 -0.1363 -0.0573 -0.0261
 1175W        W 5226   2.667   8.463   4.167  0.3146 -0.1015 -0.1474
 1176W        W 5227   1.141   2.438   2.023 -0.4705  0.1875  0.0039
 1177W        W 5228   8.381   4.153  13.064  0.1159 -0.0223  0.2794
 1178W        W 5229   4.681   7.834   0.118  0.1315 -0.0775 -0.0279
 1179W        W 5230   3.135   0.693   5.100 -0.4342 -0.0759  0.1516
 1180W        W 5231   3.767   7.383   0.120 -0.1203 -0.0399  0.1533
 1181W        W 5232   7.094   3.123   2.322  0.0099 -0.1672  0.2535
 1182W        W 5233   4.031   4.296   3.829  0.1391  0.3569  0.0747
 1183W        W 5234   9.138   5.450  12.749 -0.2865  0.3123  0.0200
 1184W        W 5235   6.084   9.460   4.775  0.2078  0.0483 -0.0769
 1185W        W 5236   0.562   4.566   1.097 -0.0475  0.3764 -0.0449
 1186W        W 5237   4.580   8.379   0.057 -0.0044  0.1837  0.0657
 1187W        W 5238   3.175   5.105   3.702  0.1959 -0.0166  0.0270
 1188W        W 5239   8.651   2.585  10.006  0.2074 -0.2582  0.2615
 1189W        W 5240   0.199   0.842   2.373  0.0333  0.1124 -0.0410
 1190W        W 5241   4.044   5.438  11.511  0.0679 -0.1035  0.0979
 1191W        W 5242   0.942   7.699  13.363 -0.0742 -0.2488 -0.2491
 1192W        W 5243   4.713   1.456  13.214 -0.4013  0.1518  0.2060
 1193W        W 5244   6.539   1.891   2.013 -0.2006 -0.3508  0.1213
 1194W        W 5245   3.675   9.070   0.245 -0.0853  0.1346 -0.2035
 1195W        W 5246  10.155   6.037  13.739 -0.0686  0.0642 -0.3006
 1196W        W 5247   1.146   8.276   4.141  0.1888  0.0942 -0.2916
 1197W        W 5248   2.830   3.048   3.336  0.0528  0.0294 -0.0175
 1198W        W 5249   7.954   4.962  11.035  0.0220 -0.2662  0.1340
 1199W        W 5250   9.162   7.773   1.814 -0.2114  0.2308  0.0027
 1200W        W 5251   7.686   8.242   0.219 -0.0963  0.2455 -0.0310
 1201W        W 5252   6.236   8.387  12.442  0.3463  0.1049 -0.2431
 1202W        W 5253   5.712   7.425   2.035  0.2574  0.1590 -0.2758
 1203W        W 5254   5.896   2.580   1.739 -0.0464 -0.1287  0.2564
 1204W        W 5255   7.245   0.784  13.711  0.0043  0.1397 -0.1807
 1205W        W 5256   1.910   1.742  12.168  0.1779  0.1664  0.0933
 1206W        W 5257   5.147   5.408  12.195  0.0212  0.0109 -0.0224
 1207W        W 5258   7.542   6.366  10.266 -0.1098  0.4067 -0.3270
 1208W        W 5259   0.714   1.381   9.731 -0.1029 -0.3667  0.4149
 1209W        W 5260   4.725   8.680  10.504  0.0395  0.2464  0.0795
 1210W        W 5261   2.746   8.637   0.116 -0.1897 -0.0253  0.2091
 1211W        W 5262  10.003   9.765  13.927 -0.3853  0.2159 -0.0389
 1212W        W 5263   2.308   5.921  10.937 -0.0513  0.2119  0.1766
 1213W        W 5264   3.424   6.251   9.552 -0.1576  0.0332 -0.3332
 1214W        W 5265   2.356  10.096  13.717  0.1777  0.1633 -0.1862
 1215W        W 5266   0.212   0.659   2.901 -0.0728 -0.0179  0.0597
 1216W        W 5267   5.027   2.911   9.290 -0.2145  0.1423 -0.0319
 1217W        W 5268   7.769   3.103   0.441 -0.4135  0.2220 -0.4065
 1218W        W 5269   3.844   4.879   4.528  0.1469  0.1186  0.1302
 1219W        W 5270   6.177   7.128  10.544  0.0939 -0.2031  0.0586
 1220W        W 5271   3.590   3.373   9.629  0.0759 -0.4214 -0.1253
 1221W        W 5272   2.946   2.399   2.622 -0.0418  0.0703  0.2101
 1222W        W 5273   1.701   9.961   3.111 -0.1947  0.1269  0.1391
 1223W        W 5274   1.611   9.734   2.525 -0.1545  0.0123  0.3117
 1224W        W 5275   8.904   0.687  10.885  0.2341 -0.2117 -0.1313
 1225W        W 5276   6.117   8.457   1.296  0.2294 -0.2182 -0.0217
 1226W        W 5277   6.273   1.123  10.564 -0.3909 -0.0668  0.1231
 1227W        W 5278   8.809   2.771   3.817 -0.3438 -0.0707 -0.0768
 1228W        W 5279   2.030   5.261  10.428 -0.1120 -0.2081  0.1785
 1229W        W 5280   6.933   7.432  13.615 -0.0613  0.1412  0.2263
 1230W        W 5281   1.027   0.204   0.509 -0.0050 -0.0312 -0.1579
 1231W        W 5282   7.211   4.722   9.652  0.0083 -0.2243  0.0870
 1232W        W 5283   5.193   5.959   0.496 -0.2074 -0.0038  0.0539
 1233W        W 5284   6.576   3.252   1.458  0.0916 -0.0287 -0.0268
 1234W        W 5285   1.122   3.895   9.363  0.1343 -0.2139  0.2911
 1235W        W 5286   2.067   4.469   0.162  0.0909  0.1874  0.0814
 1236W        W 5287   0.494   1.094   0.627 -0.1232  0.0883  0.1246
 1237W        W 5288   5.026   4.874   9.723  0.0866 -0.0450  0.0191
 1238W        W 5289   7.889   6.172  11.890 -0.0762  0.0642  0.2024
 1239W        W 5290   1.066   6.314  11.025  0.3530  0.4605 -0.3651
 1240W        W 5291   9.168   1.964   3.328 -0.2041 -0.1270  0.2033
 1241W        W 5292   7.472   0.041  13.382  0.1325  0.1330  0.1919
 1242W        W 5293   6.110   8.954  13.658 -0.2463  0.1367  0.1875
 1243W        W 5294   8.836   5.381   4.655  0.1197  0.1605 -0.1529
 1244W        W 5295   5.760   0.182  11.922 -0.1977 -0.0789 -0.0664
 1245W        W 5296   9.212  10.135  13.695 -0.2444  0.2100  0.1668
 1246W        W 5297   4.843   4.488  13.743  0.0563 -0.1212 -0.0439
 1247W        W 5298   2.300   4.850   1.518 -0.1656 -0.1137  0.2012
 1248W        W 5299   1.139   4.160   2.536  0.0727 -0.0042  0.1434
 1249W        W 5300   7.333   8.161   2.915 -0.1357 -0.4246 -0.4093
 1250W        W 5301   7.066   6.670   4.552  0.2556 -0.0334 -0.1479
 1251W        W 5302   9.973   5.328   2.635  0.1652  0.2314 -0.0734
 1252W        W 5303   8.978   6.218  11.835  0.2865 -0.1473 -0.0319
 1253W        W 5304   7.645   7.514  12.992  0.0756  0.0411 -0.2309
 1254W        W 5305   7.607   0.707   0.124  0.0703  0.1097  0.0625
 1255W        W 5306   8.586   3.433   9.503  0.3911 -0.2285 -0.0401
 1256W        W 5307   3.496   8.388   9.015  0.1551  0.1382  0.2449
 1257W        W 5308   4.715   4.689  12.798  0.0293  0.0602 -0.2286
 1258W        W 5309   5.592   5.015  12.995 -0.2151 -0.2050 -0.1341
 1259W        W 5310   3.991   7.690   9.563 -0.3597 -0.5183  0.0315
 1260W        W 5311   6.155   8.170   2.482 -0.1984 -0.3414  0.1733
 1261W        W 5312   0.167   5.190   3.448  0.1058  0.1785  0.0840
 1262W        W 5313   1.390   5.797   1.290 -0.2217 -0.0036 -0.3061
 1263W        W 5314   8.561   8.845   3.539  0.3636 -0.0488  0.1382
 1264W        W 5315   4.870   9.556  10.524 -0.0232 -0.3325  0.3470
 1265W        W 5316   9.158   6.113  13.413  0.2130 -0.1129 -0.1028
 1266W        W 5317   7.701   3.080   9.866  0.0953  0.1275  0.3383
 1267W        W 5318   6.395   0.948  11.366 -0.0457  0.2444 -0.2411
 1268W        W 5319   4.936   5.708   0.955 -0.2958 -0.2227 -0.0728
 1269W        W 5320   6.595   4.885   4.304 -0.0137  0.1308 -0.0023
 1270W        W 5321   7.173   3.686   0.741 -0.0277 -0.2101 -0.0455
 1271W        W 5322   7.917   7.865  10.170  0.3260 -0.5724  0.1991
 1272W        W 5323   5.280   9.353   1.009  0.0787  0.0579  0.0225
 1273W        W 5324   2.343   1.558  11.816 -0.0713 -0.0892 -0.2062
 1274W        W 5325   1.391   0.843   3.396  0.1776 -0.0074  0.0939
 1275W        W 5326   7.328   4.342   3.788 -0.3175  0.1900  0.0687
 1276W        W 5327   2.281   6.075   3.435 -0.1057 -0.3200 -0.2070
 1277W        W 5328   8.964   7.387  13.120 -0.0655 -0.3366  0.0679
 1278W        W 5329   2.195   7.801  12.443 -0.1457 -0.1370 -0.3107
 1279W        W 5330   7.283   0.198  10.321  0.0022 -0.0218  0.2672
 1280W        W 5331   7.381   7.255   1.985 -0.2808  0.0015 -0.4341
 1281W        W 5332   3.908   9.816  10.765  0.0713  0.0364 -0.4339
 1282W        W 5333  10.141   8.631  10.265 -0.4044  0.3867 -0.1551
 1283W        W 5334   3.305   5.222   3.122 -0.0711  0.0114  0.0844
 1284W        W 5335   1.848   6.696   9.469 -0.1082  0.1520 -0.0055
 1285W        W 5336   3.049   5.558   1.036 -0.0632  0.3113 -0.1172
 1286W        W 5337   4.047   2.319   1.048  0.2974 -0.0317 -0.1386
 1287W        W 5338   0.832   0.694  13.875 -0.0267 -0.1763  0.3422
 1288W        W 5339   7.660   1.627   3.467  0.2923  0.2416  0.0760
 1289W        W 5340   9.430  10.097  13.215  0.3023  0.0845 -0.1571
 1290W        W 5341   9.093   2.587   2.525 -0.0063 -0.0683 -0.0654
 1291W        W 5342  10.071   3.440  11.307 -0.1648  0.2595  0.0184
 1292W        W 5343   1.781   6.499  12.527 -0.0689 -0.0762 -0.1543
 1293W        W 5344   9.065   8.790   0.444 -0.1023 -0.1998 -0.0308
 1294W        W 5345   3.239   0.892   0.304  0.2995  0.0492 -0.1625
 1295W        W 5346   3.697   7.030   1.054 -0.2925  0.0046  0.2617
 1296W        W 5347   8.020   4.900  12.325 -0.0457  0.3279  0.2847
 1297W        W 5348   8.925   1.830   3.718 -0.2258  0.3848 -0.1653
 1298W        W 5349   3.890   5.596   9.204  0.1284 -0.0036  0.0095
 1299W        W 5350   3.849   0.704  12.711 -0.0530  0.0341  0.2849
 1300W        W 5351   3.661   3.376  12.357  0.0456  0.0744  0.1265
 1301W        W 5352   8.031   2.695  13.290  0.1366 -0.3485  0.0634
 1302W        W 5353   6.496   6.978   3.868 -0.0548 -0.4747 -0.0978
 1303W        W 5354   8.542   2.258   3.675  0.0365 -0.0484  0.2083
 1304W        W 5355   0.837   3.028  13.340 -0.3046  0.1463  0.3880
 1305W        W 5356   8.070   6.100   0.603  0.0744 -0.3134 -0.0185
 1306W        W 5357   3.975   3.270   0.953 -0.1611 -0.0584  0.0206
 1307W        W 5358  10.178   0.195   9.680 -0.0649  0.0797 -0.3245
 1308W        W 5359   5.847   7.049   0.354  0.3088 -0.1906 -0.2397
 1309W        W 5360   1.767   7.993  13.489  0.1342  0.0870 -0.0800
 1310W        W 5361   8.524   2.904  12.907 -0.0458 -0.3113 -0.2185
 1311W        W 5362   4.147   9.959  12.163  0.0043  0.1892  0.3613
 1312W        W 5363   1.774   1.084  13.749  0.0416 -0.0149  0.0341
 1313W        W 5364   0.498   7.650  11.970  0.1462 -0.0285 -0.1869
 1314W        W 5365   8.738   1.009   2.329 -0.0577 -0.1301 -0.0097
 1315W        W 5366   3.503   4.695   0.819 -0.1374  0.2617  0.2102
 1316W        W 5367   5.247   0.773   1.118 -0.0046 -0.0990 -0.2123
 1317W        W 5368   7.065   2.512   3.197  0.1819 -0.2729 -0.2494
 1318W        W 5369   4.376   3.771   0.758 -0.0311  0.2102  0.0983
 1319W        W 5370  10.098   0.824  11.264 -0.2321 -0.0237  0.1847
 1320W        W 5371   3.153   5.847   1.480 -0.3014 -0.0691 -0.2988
 1321W        W 5372   2.210   8.392  12.287 -0.0158  0.2822 -0.3823
 1322W        W 5373   9.671   1.833   2.520  0.1742 -0.0385 -0.0373
 1323W        W 5374   7.171   7.033   0.701  0.2999  0.2832 -0.2103
 1324W        W 5375   6.232   3.546  10.381  0.1319  0.3533 -0.1100
 1325W        W 5376   8.589   4.132   0.708 -0.2065  0.0285 -0.1088
 1326W        W 5377   5.159   8.834   2.086  0.0811  0.1566  0.0628
 1327W        W 5378   2.268   3.408  13.550 -0.1294 -0.2267 -0.1284
 1328W        W 5379   1.517   5.266  11.090 -0.0431 -0.1930  0.0443
 1329W        W 5380   8.129   4.519  11.216 -0.4834  0.0969 -0.2524
 1330W        W 5381   1.835   1.311   3.412 -0.2169  0.1879 -0.2156
 1331W        W 5382   3.480   9.723   3.385 -0.2341  0.0893 -0.2110
 1332W        W 5383   4.916   1.552   4.488  0.1541  0.3594  0.0171
 1333W        W 5384   9.489   4.881   0.570  0.0426  0.1034 -0.1626
 1334W        W 5385   2.321   1.568   4.628 -0.0904 -0.0602 -0.0495
 1335W        W 5386   3.789   5.851   0.568  0.0867  0.3830 -0.0524
 1336W        W 5387   9.638   8.780   0.466  0.1119 -0.2351 -0.0127
 1337W        W 5388   5.073   9.781   2.724 -0.3022 -0.1109 -0.0391
 1338W        W 5389   0.038   6.236   2.864 -0.0445  0.2675  0.2327
 1339W        W 5390  10.106   0.117   3.317  0.0640  0.0497 -0.1124
 1340W        W 5391   6.754   1.240   2.580 -0.0830 -0.1353  0.1443
 1341W        W 5392   6.044   5.253   3.042  0.0676  0.0039 -0.2075
 1342W        W 5393   7.707   1.717   2.743  0.2050 -0.1714 -0.1581
 1343W        W 5394   2.420   4.693   0.956 -0.2404 -0.4223  0.1309
 1344W        W 5395   6.705   5.269  11.509 -0.0261 -0.1826 -0.0304
 1345W        W 5396  10.014   4.047  11.847  0.0864  0.1039 -0.1801
 1346W        W 5397   7.731   7.786  10.997  0.0928  0.2285 -0.0706
 1347W        W 5398   6.724   6.449  12.786 -0.1353  0.0238 -0.0286
 1348W        W 5399   0.277   2.058  10.932 -0.2434 -0.2083  0.4753
 1349W        W 5400   5.488   0.681  10.482  0.2613  0.0602 -0.0505
 1350W        W 5401   3.835   2.297  12.388  0.3060  0.2719 -0.3079
 1351W        W 5402   9.721   2.771   3.363 -0.2549  0.0240 -0.2026
 1352W        W 5403   0.584   3.022   9.197 -0.1691  0.1361  0.0425
 1353W        W 5404   9.685   3.037  10.967 -0.0508  0.1814 -0.0140
 1354W        W 5405   0.860   2.303   0.691 -0.0862  0.0580 -0.1572
 1355W        W 5406   1.312   0.213   3.248  0.1354 -0.0199 -0.3236
 1356W        W 5407   4.387   5.744  13.416  0.1446  0.2591 -0.3138
 1357W        W 5408   1.432   8.415  11.809  0.2105  0.0339  0.0062
 1358W        W 5409   9.646   5.114   9.243  0.2181  0.1098  0.0707
 1359W        W 5410   3.602   1.639  10.796  0.2072  0.1931 -0.0169
 1360W        W 5411   0.980   0.275  13.627  0.0374 -0.0487 -0.2576
 1361W        W 5412   8.883   5.320  11.454 -0.0199 -0.2088 -0.1897
 1362W        W 5413   2.587   2.275   0.412 -0.0772  0.1928  0.4363
 1363W        W 5414   3.464   2.231   3.978  0.0265  0.0872  0.2366
 1364W        W 5415   5.450   5.652  10.365  0.0564 -0.1734 -0.0094
 1365W        W 5416   8.014   4.781   0.257  0.1674 -0.2522 -0.1695
 1366W        W 5417   7.705   3.097   3.419  0.2224  0.0082 -0.3014
 1367W        W 5418   5.324   8.937  10.284 -0.1350 -0.0633  0.2155
 1368W        W 5419   7.732   1.164  11.731 -0.0350  0.2181  0.1952
 1369W        W 5420   0.278   0.027   1.223 -0.2176  0.2070  0.0075
 1370W        W 5421   7.647   8.423  13.646 -0.1918  0.2041  0.0207
 1371W        W 5422   2.915   6.451  13.973 -0.0359  0.1637 -0.0733
 1372W        W 5423   8.399   0.342  12.346  0.0956  0.0730  0.1337
 1373W        W 5424   6.465   9.602   2.956  0.3838  0.1231  0.2623
 1374W        W 5425   1.244   9.834   3.849 -0.1130  0.1929  0.0949
 1375W        W 5426   9.074  10.043  11.819 -0.2074 -0.0619  0.0990
 1376W        W 5427   6.239   1.194  12.793  0.3165  0.3674  0.1159
 1377W        W 5428   6.449   9.400   1.693 -0.0780  0.0941  0.1033
 1378W        W 5429   3.280   2.304   1.142 -0.2155  0.0161  0.3985
 1379W        W 5430   3.559   9.066  12.172  0.1619  0.0221  0.0603
 1380W        W 5431   8.056   1.568   2.395 -0.0013 -0.0444  0.0346
 1381W        W 5432   1.499   6.756  13.942 -0.2461  0.3235  0.1945
 1382W        W 5433   9.983   3.774   4.614 -0.1080 -0.2029  0.1912
 1383W        W 5434   9.145   6.779   1.849 -0.1366 -0.0791 -0.2996
 1384W        W 5435   7.595   9.493  10.731 -0.0611  0.3670 -0.1603
 1385W        W 5436   6.817   7.100  12.714  0.2978  0.3495  0.1473
 1386W        W 5437   7.408   2.996  11.975 -0.2305  0.0215 -0.1079
 1387W        W 5438   0.574   5.327   2.672  0.1374 -0.2374  0.0807
 1388W        W 5439   2.737   0.767   0.167 -0.1289  0.2565  0.0077
 1389W        W 5440   5.099   0.413   9.554 -0.1738 -0.3635  0.2110
 1390W        W 5441   5.959   3.171  13.883  0.0535 -0.0767 -0.2316
 1391W        W 5442   2.282   6.691   5.101 -0.2074 -0.0667 -0.1617
 1392W        W 5443   2.659   3.330  10.724  0.1865 -0.0119 -0.2607
 1393W        W 5444  10.114   5.904   9.958 -0.0930  0.1683  0.0948
 1394W        W 5445   0.779   3.693   0.067  0.0616 -0.4998 -0.1722
 1395W        W 5446   2.958   9.560   9.365 -0.3291  0.3401  0.1034
 1396W        W 5447   4.448   4.200   9.035  0.1469  0.0046 -0.0883
 1397W        W 5448   9.792   7.410  10.313  0.1617 -0.0297 -0.1570
 1398W        W 5449   6.144   7.026   5.035  0.0687 -0.2751 -0.1353
 1399W        W 5450   0.587   8.913   2.852 -0.0813 -0.0765  0.1289
 1400W        W 5451   4.740   1.002   5.064  0.1215 -0.1802  0.1906
 1401W        W 5452   4.462   4.873   0.816  0.4490  0.1669 -0.0020
 1402W        W 5453   3.974   4.588   0.052 -0.1913  0.3463 -0.2123
 1403W        W 5454   5.667   7.940  13.386 -0.1617 -0.3322 -0.1312
 1404W        W 5455   8.298   7.364  11.692  0.2504  0.3689 -0.0439
 1405W        W 5456   9.629  10.074   1.669  0.2614 -0.0229  0.1017
 1406W        W 5457   7.992   6.200  12.804  0.1792 -0.2948  0.0688
 1407W        W 5458   1.923   4.437   2.798 -0.1386 -0.0877 -0.1237
 1408W        W 5459   9.550   8.402   2.181  0.0399 -0.0587  0.2104
 1409W        W 5460   7.099   4.425   0.176  0.0468 -0.1346 -0.0201
 1410W        W 5461   1.768   5.141  13.248 -0.1141  0.2181  0.0809
 1411W        W 5462   3.663   5.982   0.039 -0.0806 -0.3844 -0.2992
 1412W        W 5463   8.143   1.093   3.920 -0.0289 -0.4484  0.0541
 1413W        W 5464   7.398   2.248   2.433  0.0279 -0.0946 -0.1173
 1414W        W 5465   9.391   4.763   8.892  0.3448 -0.1714  0.5459
 1415W        W 5466   8.856   3.530   0.107  0.0088 -0.2320 -0.1021
 1416W        W 5467   6.200   7.881  13.358  0.0375 -0.2186  0.0811
 1417W        W 5468   8.780   2.151  11.232 -0.0008 -0.0567 -0.2113
 1418W        W 5469   8.924   1.935   1.888 -0.2453  0.0870 -0.2449
 1419W        W 5470   0.671   2.706   2.466  0.0367 -0.3003  0.0100
 1420W        W 5471   6.898   5.157   4.715  0.0260 -0.1622 -0.1470
 1421W        W 5472   9.401   4.497  12.832 -0.2237 -0.2626 -0.0989
 1422W        W 5473   0.785   4.105  12.868  0.0049  0.1499 -0.1433
 1423W        W 5474   5.407   2.062   5.214 -0.0713 -0.1323  0.3884
 1424W        W 5475   2.329   7.277  13.056 -0.0292 -0.0911 -0.0423
 1425W        W 5476   2.886   0.443   2.165 -0.1303  0.3170 -0.2564
 1426W        W 5477   4.238   1.092   2.247 -0.4622 -0.1367 -0.3065
 1427W        W 5478   4.482   5.152  11.579 -0.0810 -0.1028 -0.0588
 1428W        W 5479   6.848   4.066   0.990  0.0961  0.0715  0.0642
 1429W        W 5480   0.937   1.430  11.081 -0.1279  0.0942  0.2058
 1430W        W 5481   5.617   6.280   0.302 -0.0027  0.1681  0.1228
 1431W        W 5482   9.477   0.949  13.309  0.0389  0.1453  0.2149
 1432W        W 5483   1.882  10.025   0.587 -0.2034  0.1487  0.0003
 1433W        W 5484   8.093   6.446   1.783 -0.2226  0.0788  0.0538
 1434W        W 5485   3.832   9.903  12.607 -0.3478  0.2560 -0.4302
 1435W        W 5486   3.775   6.859   2.570 -0.1695  0.0359 -0.2966
 1436W        W 5487   4.761   4.238   0.223  0.2944  0.0713 -0.0147
 1437W        W 5488   0.478   9.335  12.613 -0.3467 -0.0432  0.0996
 1438W        W 5489   4.703   4.201   1.569  0.2077 -0.0308 -0.2088
 1439W        W 5490   7.423   2.185   1.852 -0.0264 -0.0879  0.0200
 1440W        W 5491   8.964   1.780   4.234 -0.0278 -0.1250 -0.0308
 1441W        W 5492   1.906   2.873  10.893 -0.2694 -0.1423 -0.4350
 1442W        W 5493   1.909   6.253  11.020 -0.1731  0.0748  0.0937
 1443W        W 5494   5.719   3.668   4.549 -0.0906 -0.0037  0.1149
 1444W        W 5495   2.810   7.035   4.361  0.1021 -0.0066 -0.0496
 1445W        W 5496   4.256   8.492   9.906 -0.0098  0.1576 -0.3239
 1446W        W 5497   4.435   0.667   3.783  0.0953  0.3561  0.1176
 1447W        W 5498   5.880   1.248   9.985  0.0085 -0.2734  0.0841
 1448W        W 5499   6.909   4.963   3.418  0.0990 -0.1020 -0.0740
 1449W        W 5500   7.967   2.336  11.671 -0.1037  0.3004  0.2004
 1450W        W 5501   0.590   1.211  12.796  0.1843 -0.0089 -0.1792
 1451W        W 5502   1.089   5.441   4.908 -0.3289  0.2754  0.2579
 1452W        W 5503   1.604   2.838  13.098 -0.0413  0.1074  0.0579
 1453W        W 5504   7.153   2.620   1.993 -0.1447  0.0150 -0.1349
 1454W        W 5505   6.105   6.630  12.109 -0.1332 -0.1470  0.1700
 1455W        W 5506   6.518   0.596   4.862  0.2085 -0.0493 -0.1611
 1456W        W 5507   5.443   0.578   3.039  0.0470 -0.0267 -0.0641
 1457W        W 5508   7.225   3.910   3.569 -0.1259  0.0213 -0.0847
 1458W        W 5509   3.009   5.581   8.971  0.4497 -0.2070  0.0782
 1459W        W 5510   6.366   2.109   2.870  0.0365 -0.2329  0.2967
 1460W        W 5511   2.409   3.048   3.107  0.0261 -0.4472  0.2063
 1461W        W 5512   7.497   4.898   9.138 -0.5441 -0.1281 -0.0654
 1462W        W 5513   4.601   6.990   3.082  0.0138 -0.0380 -0.2127
 1463W        W 5514   5.212   1.957  10.004  0.1629 -0.1112 -0.0876
 1464W        W 5515   7.517   2.320   9.080  0.0867 -0.0497  0.0967
 1465W        W 5516   8.560   6.662  13.323 -0.0071  0.2283 -0.2967
 1466W        W 5517   2.482   9.938   2.700  0.0992  0.0238  0.3295
 1467W        W 5518   3.628   5.899  13.290 -0.0832 -0.2139 -0.1986
 1468W        W 5519   9.382   2.341   4.364  0.0932  0.4135  0.1195
 1469W        W 5520   9.284   4.078  11.098 -0.0480 -0.0643 -0.4457
 1470W        W 5521   8.704   6.443   0.250  0.0367  0.1022  0.2505
 1471W        W 5522  10.029   1.148   4.930 -0.3537  0.1463  0.3915
 1472W        W 5523   8.333   1.897   2.721 -0.1202  0.4083  0.1931
 1473W        W 5524   3.217   2.471   0.469 -0.0150  0.0139  0.2903
 1474W        W 5525   2.915   8.883  10.151 -0.0746  0.2761  0.0356
 1475W        W 5526   4.130   5.219  13.984  0.1922 -0.0089  0.3102
 1476W        W 5527   5.910   2.846  13.507  0.0169 -0.1640 -0.0494
 1477W        W 5528   9.748   0.304   0.872 -0.4494  0.2286  0.0505
 1478W        W 5529   0.414   0.869  11.228 -0.1272 -0.1370  0.1872
 1479W        W 5530   4.076   3.430  12.759  0.0625 -0.0249  0.1422
 1480W        W 5531   7.852   2.447   0.287 -0.3154 -0.0213  0.3271
 1481W        W 5532   5.832   8.947   4.684 -0.1533  0.1976 -0.0118
 1482W        W 5533   0.901   1.704   3.495 -0.0942 -0.0576  0.1025
 1483W        W 5534   4.453   2.351   3.037 -0.0092  0.0847  0.1682
 1484W        W 5535   6.373   6.531  13.723 -0.1859 -0.0490 -0.0543
 1485W        W 5536   1.384   5.913  10.941 -0.1445  0.0982  0.3798
 1486W        W 5537   7.505   5.229  11.075 -0.1054  0.1718 -0.2284
 1487W        W 5538   8.398   8.133   2.030 -0.0153  0.3276  0.1793
 1488W        W 5539   3.490   8.005  11.136  0.3731 -0.1839 -0.1110
 1489W        W 5540   1.259   0.337   3.775  0.1340 -0.1069  0.1731
 1490W        W 5541   0.126   0.583  10.442 -0.2370  0.0778 -0.0004
 1491W        W 5542   8.352   5.257   0.342 -0.1617  0.1510 -0.1613
 1492W        W 5543   9.031   0.712   1.308 -0.1377 -0.0293 -0.0825
 1493W        W 5544   1.545   8.305  11.011 -0.1738 -0.1839  0.1232
 1494W        W 5545   3.433   5.174  13.830  0.0307  0.0914  0.0047
 1495W        W 5546   8.450   7.466  13.367  0.1242  0.1726 -0.2344
 1496W        W 5547   8.361   2.946   1.711  0.0969 -0.0567  0.0628
 1497W        W 5548   3.784   3.636   5.449  0.2810  0.3925  0.0884
 1498W        W 5549   0.840   0.054   3.009  0.1795  0.1901  0.1419
 1499W        W 5550   2.720   3.934   9.839 -0.0736  0.0491  0.0897
 1500W        W 5551   8.102   2.230  13.339  0.1470  0.2021 -0.2366
 1501W        W 5552   1.409   7.641   4.675 -0.1091  0.0825  0.1553
 1502W        W 5553   1.502   3.091  12.532 -0.0312  0.0264 -0.0481
 1503W        W 5554   0.790   5.658   0.968 -0.0107 -0.0949  0.0340
 1504W        W 5555   7.484   8.241   0.715  0.0291 -0.3149  0.4577
 1505W        W 5556   7.524   3.814  10.912 -0.1802 -0.0969 -0.1305
 1506W        W 5557   7.900   9.305  11.479 -0.0623 -0.2697 -0.1072
 1507W        W 5558   7.047   7.144  10.570 -0.0184  0.3415  0.1703
 1508W        W 5559   0.024   7.795   1.658  0.3827  0.1513  0.1450
 1509W        W 5560   5.041   2.529  10.759 -0.0940 -0.0043 -0.0876
 1510W        W 5561   8.987   9.839   2.284 -0.1945 -0.2900  0.0662
 1511W        W 5562   0.935   5.465   9.076  0.0379 -0.0923 -0.0309
 1512W        W 5563   3.008   6.867   0.736  0.2998 -0.0153  0.3378
 1513W        W 5564   6.279   2.343   3.390  0.0287 -0.0123 -0.0935
 1514W        W 5565   2.518   3.321  12.346 -0.0037 -0.0373 -0.3072
 1515W        W 5566   3.516   8.959   1.227  0.2983  0.0254 -0.2305
 1516W        W 5567   0.691   7.413   2.910 -0.0545 -0.0187 -0.3399
 1517W        W 5568   0.500   1.632  11.117 -0.1534  0.0734 -0.0380
 1518W        W 5569   9.481   7.058  11.959  0.2155  0.4965 -0.0893
 1519W        W 5570   3.127   6.188   9.998  0.0246 -0.1160 -0.3862
 1520W        W 5571   2.085   7.288  12.656  0.0811 -0.0118  0.1241
 1521W        W 5572   7.826   2.833   3.848  0.2013 -0.3101  0.2083
 1522W        W 5573   6.894   8.454   2.031  0.0300  0.1199 -0.2125
 1523W        W 5574  10.161   7.042   3.841 -0.1356 -0.2095 -0.0545
 1524W        W 5575   5.800   0.715  11.828  0.0248  0.1234 -0.2917
 1525W        W 5576   9.281   1.081   3.119  0.0425 -0.1076 -0.4219
 1526W        W 5577   6.226   9.622  11.949 -0.0657  0.2821 -0.2883
 1527W        W 5578   4.674   6.107  13.246  0.2166 -0.1541  0.0737
 1528W        W 5579   4.179   5.296  12.818 -0.1495  0.2928 -0.0353
 1529W        W 5580   3.394   7.978  13.247  0.0462 -0.2372 -0.3404
 1530W        W 5581   2.203   4.792  13.165  0.0267 -0.2816 -0.2264
 1531W        W 5582   3.228   0.347   5.886  0.0397 -0.1065 -0.0977
 1532W        W 5583   9.902   0.934   4.533  0.0697 -0.1408 -0.1706
 1533W        W 5584   9.389   9.223   3.088  0.0448 -0.2569 -0.1808
 1534W        W 5585   6.849   5.733  12.387 -0.0782  0.0067 -0.0062
 1535W        W 5586   2.643   5.877   5.005 -0.1074  0.4428 -0.1534
 1536W        W 5587   3.989   4.437  11.363 -0.4155  0.0379 -0.2746
 1537W        W 5588   6.645   1.368   1.265 -0.1184  0.1844  0.4173
 1538W        W 5589   3.981   1.177  12.562 -0.0357 -0.1512 -0.2737
 1539W        W 5590   0.286   0.436  13.019 -0.0128 -0.1965  0.2403
 1540W        W 5591   0.233   2.146   4.015  0.0587 -0.4229  0.1277
 1541W        W 5592   3.024   4.319   9.106 -0.0641  0.2115  0.1097
 1542W        W 5593   5.801   6.630  10.634 -0.2209 -0.0695 -0.3140
 1543W        W 5594   9.640   1.579  11.218 -0.1543  0.0913  0.1955
 1544W        W 5595   8.860   1.574  10.990 -0.0551 -0.2438  0.1552
 1545W        W 5596   0.177   3.305   2.885 -0.2108 -0.0656  0.1681
 1546W        W 5597   4.984   0.339  13.819 -0.2644  0.0273 -0.3520
 1547W        W 5598   8.720   4.948   4.240  0.1092 -0.1826  0.0064
 1548W        W 5599   3.877   8.162  12.828 -0.0231 -0.0496 -0.0779
 1549W        W 5600  10.039   3.052  10.552 -0.3080 -0.1082  0.0893
 1550W        W 5601   4.032   6.047   4.431 -0.0471  0.1078  0.0733
 1551W        W 5602  10.162   5.134   4.271  0.0282 -0.3143  0.2529
 1552W        W 5603   0.308  10.107  11.023  0.3564  0.0957 -0.0804
 1553W        W 5604   8.117   5.538   0.692 -0.1954 -0.2542  0.1852
 1554W        W 5605   0.663   0.659  13.433 -0.0120 -0.0411  0.2110
 1555W        W 5606   5.194   0.474   2.136  0.0060 -0.0275  0.1116
 1556W        W 5607   5.883   4.707  11.810  0.3698 -0.1339 -0.2131
 1557W        W 5608   8.696   0.533   0.763  0.3236  0.0182 -0.2814
 1558W        W 5609   3.395   3.237   1.031 -0.0598 -0.0418 -0.2561
 1559W        W 5610   5.574   7.886   1.197  0.1577 -0.1139 -0.2245
 1560W        W 5611   3.250   8.105   2.917  0.2095  0.3139 -0.0981
 1561W        W 5612   5.384   7.413   1.609  0.0999 -0.2294  0.1971
 1562W        W 5613   6.080   6.200  10.516 -0.3445  0.1023  0.0790
 1563W        W 5614   7.836   4.659  13.157 -0.3067  0.0225  0.0145
 1564W        W 5615   7.017  10.097  12.578 -0.0545  0.1686  0.0332
 1565W        W 5616   7.217   6.509   9.532 -0.0586  0.2958 -0.0555
 1566W        W 5617   9.294   4.071  13.189  0.0606 -0.1068  0.2313
 1567W        W 5618   5.956   7.066   3.947 -0.1048 -0.0374  0.0063
 1568W        W 5619   7.634   6.831   1.939  0.3468  0.2739 -0.2133
 1569W        W 5620   1.316   1.613  13.136  0.0676 -0.3604 -0.0501
 1570W        W 5621   2.587   5.024   4.645 -0.1024 -0.0080 -0.0604
 1571W        W 5622   2.926   9.730   1.209 -0.3478  0.1145 -0.1034
 1572W        W 5623   2.868   8.915   1.169  0.0256 -0.1875 -0.0480
 1573W        W 5624   1.996   9.680  11.901  0.2668 -0.0650  0.1085
 1574W        W 5625   9.251   1.343  12.032 -0.0855  0.3336  0.0486
 1575W        W 5626   8.107   0.856  10.184  0.2642 -0.2478  0.0636
 1576W        W 5627   2.356   3.906  13.534 -0.0386  0.2368 -0.1746
 1577W        W 5628   0.790   2.650  11.930 -0.0598 -0.1063  0.1869
 1578W        W 5629   6.971   6.147   3.860 -0.1326  0.0168  0.1139
 1579W        W 5630   4.030   8.238   0.264 -0.5259  0.3425  0.1313
 1580W        W 5631   7.073   7.544  11.331 -0.1120 -0.1962  0.3619
 1581W        W 5632   4.891   4.033   4.540  0.3459  0.0244  0.1139
 1582W        W 5633   6.926   9.354  11.368  0.0332 -0.0703  0.0353
 1583W        W 5634   5.045   0.318  11.295 -0.1833 -0.1327  0.1565
 1584W        W 5635   8.951   4.972   2.987  0.0116 -0.1557  0.0066
 1585W        W 5636   5.985   0.168   2.639 -0.1913  0.1354 -0.1341
 1586W        W 5637   3.585   9.907   2.546  0.0472 -0.0760  0.4679
 1587W        W 5638   2.315   9.290  11.964 -0.1508  0.0771  0.3455
 1588W        W 5639   9.729   9.050  13.545  0.1520  0.1160  0.0529
 1589W        W 5640   1.738   1.693  11.667 -0.0433  0.5940  0.0670
 1590W        W 5641   3.857   2.482   3.599  0.1858 -0.1348 -0.2581
 1591W        W 5642   6.406   0.728   3.508  0.2736  0.3734  0.1913
 1592W        W 5643   9.691   9.932  11.807  0.2019 -0.3298 -0.0532
 1593W        W 5644   1.058   6.238  11.596 -0.0850 -0.0390 -0.2290
 1594W        W 5645   7.933   2.955  13.775  0.0164 -0.1422  0.4091
 1595W        W 5646  10.108   1.542   5.259  0.0271  0.1288  0.0046
 1596W        W 5647   8.823   1.770  12.840  0.0934 -0.1817  0.1356
 1597W        W 5648   4.596   3.686  10.929 -0.0978 -0.0265  0.0853
 1598W        W 5649   6.374   2.177   0.975  0.2293 -0.0834  0.2522
 1599W        W 5650   4.627   4.090  12.938 -0.1427  0.1601  0.2035
 1600W        W 5651   6.446   2.309  12.862 -0.0137 -0.3174 -0.1754
 1601W        W 5652   1.955   5.403   2.754 -0.0860 -0.1350  0.3644
 1602W        W 5653   1.735   2.372  12.996  0.1560 -0.0214  0.1365
 1603W        W 5654   2.365   6.298   4.781 -0.2266  0.0023  0.1619
 1604W        W 5655   3.377   7.979  10.649 -0.1911  0.0690  0.2982
 1605W        W 5656   1.452   3.495  11.363  0.4805 -0.1764  0.2660
 1606W        W 5657   1.817   9.255  12.084  0.2165 -0.1002 -0.0857
 1607W        W 5658   8.978   2.788   3.162 -0.3133  0.1302  0.1741
 1608W        W 5659   7.382  10.089  11.253  0.2564 -0.4690  0.1006
 1609W        W 5660   9.394   8.543   1.239 -0.1067  0.4784 -0.2381
 1610W        W 5661   4.312   2.305  11.530  0.0710 -0.2562 -0.0288
 1611W        W 5662   5.696   9.083  11.530  0.3138 -0.2781  0.0645
 1612W        W 5663   4.190   8.843   2.127  0.1095  0.0740 -0.3129
 1613W        W 5664   6.226   0.085   2.172  0.2384  0.2243 -0.0683
 1614W        W 5665   9.312   2.494   2.028 -0.2896 -0.2024  0.2520
 1615W        W 5666   2.037   2.245  12.228  0.0908  0.2190  0.1246
 1616W        W 5667   7.558   7.567  10.503  0.0354  0.2007  0.1487
 1617W        W 5668   8.533   3.920   2.773  0.0606 -0.0625  0.1085
 1618W        W 5669   3.878   8.620  10.890 -0.0329  0.0035  0.1423
 1619W        W 5670   7.087   3.991   3.008  0.1498  0.5694  0.0017
 1620W        W 5671   3.839   5.260   2.014 -0.2348  0.3070 -0.2888
 1621W        W 5672   9.238   1.173   2.183  0.2037  0.2836 -0.0500
 1622W        W 5673   8.286   0.576   0.192 -0.1180 -0.1134  0.0612
 1623W        W 5674   4.202   4.150  12.668 -0.2145 -0.0525  0.0930
 1624W        W 5675   2.655   7.531   2.823  0.1221  0.1616 -0.2796
 1625W        W 5676   7.903   2.117   2.516 -0.0383  0.3976  0.0585
 1626W        W 5677   4.116   6.537  10.795 -0.2769 -0.0134 -0.1010
 1627W        W 5678   3.989   2.756  11.656 -0.1869 -0.1569  0.1662
 1628W        W 5679   8.005   5.339   1.156  0.3157  0.2230 -0.1015
 1629W        W 5680   0.385   8.821   1.346 -0.1375 -0.2264  0.1992
 1630W        W 5681   5.041   1.130  11.815  0.0085  0.2092  0.0026
 1631W        W 5682   8.087   3.536   9.298  0.1310 -0.0193 -0.1778
 1632W        W 5683   8.201   8.145  10.901  0.0229 -0.1933  0.0226
 1633W        W 5684   2.165   0.456   4.033 -0.1316  0.3254  0.0461
 1634W        W 5685   7.223   9.944   0.586  0.1394  0.2904  0.1117
 1635W        W 5686   7.649   4.372   1.857 -0.0746 -0.2048 -0.3685
 1636W        W 5687   4.108   4.476  10.529 -0.0161 -0.0232  0.3026
 1637W        W 5688   0.271   8.793   3.703  0.0820  0.1168  0.1508
 1638W        W 5689   5.323   3.592   9.850  0.3013 -0.0076 -0.1155
 1639W        W 5690   8.845   3.223   8.087  0.0367 -0.1746  0.1013
 1640W        W 5691   9.935   6.513   1.581  0.0489  0.2431 -0.4309
 1641W        W 5692   1.795   1.074  11.015 -0.0013  0.1004  0.0133
 1642W        W 5693   3.811   2.935   3.589  0.1865 -0.2857 -0.1982
 1643W        W 5694   3.478   4.834  12.798 -0.0578 -0.2925  0.0347
 1644W        W 5695   2.555   6.099  10.265 -0.2309  0.1644 -0.1702
 1645W        W 5696   0.192   7.279  13.152 -0.1803 -0.2571  0.4344
 1646W        W 5697  10.068   4.979   1.369 -0.1107  0.0739 -0.0265
 1647W        W 5698   0.227   3.066  10.133  0.1725  0.1394 -0.1321
 1648W        W 5699   6.463   3.789  12.608  0.0995 -0.1884  0.1954
 1649W        W 5700   6.085   9.699   3.962 -0.0576  0.2034  0.1620
 1650W        W 5701   5.519   2.041   1.431  0.0687  0.2442  0.1991
 1651W        W 5702   1.294   4.599   2.717  0.1058 -0.0995  0.1482
 1652W        W 5703   9.216   4.467   1.866  0.1539  0.0852 -0.2222
 1653W        W 5704   6.460   6.054  10.831 -0.4042 -0.0780  0.1773
 1654W        W 5705   2.275   3.122  13.155  0.1065  0.0274  0.1845
 1655W        W 5706   4.057   8.799   9.526 -0.0071  0.0353  0.1017
 1656W        W 5707   7.714   3.448  11.848 -0.1342  0.3346 -0.0594
 1657W        W 5708   6.670   1.826   2.533 -0.1373  0.1142  0.0106
 1658W        W 5709   2.634   2.815  11.525  0.1099 -0.1089  0.0774
 1659W        W 5710   6.876   3.806  12.916 -0.2671 -0.3452  0.1218
 1660W        W 5711   7.925   3.634   1.417  0.0722  0.0974  0.1701
 1661W        W 5712   0.994   1.044   1.017 -0.1700 -0.0965  0.0036
 1662W        W 5713   7.697   1.705  12.395 -0.4265 -0.0547 -0.2034
 1663W        W 5714   0.568   0.796  11.738  0.2995  0.0816  0.2565
 1664W        W 5715   9.005   3.944  10.693  0.1250 -0.6899  0.1108
 1665W        W 5716   4.232   0.583   2.289  0.0325  0.0088  0.1927
 1666W        W 5717   0.307   2.147  12.890 -0.1128  0.0269 -0.3395
 1667W        W 5718   2.217   4.500  13.665 -0.0111 -0.0340  0.2638
 1668W        W 5719   5.310  10.086  11.885 -0.0430  0.0590  0.1256
 1669W        W 5720   7.893   3.912   1.035 -0.3670 -0.1736  0.0320
 1670W        W 5721   0.524   5.031   3.142  0.3343  0.2340 -0.0334
 1671W        W 5722   1.091   2.228  10.640  0.1048  0.1115 -0.2494
 1672W        W 5723   3.006   3.632   2.553  0.0004 -0.0320 -0.0793
 1673W        W 5724   8.727   9.403   2.338  0.0928  0.2738 -0.0048
 1674W        W 5725   3.380   2.397   4.499 -0.1039 -0.3946 -0.2411
 1675W        W 5726   8.758   3.707   4.065  0.2181  0.0907 -0.0338
 1676W        W 5727   4.088   3.357  13.327  0.2484 -0.0363  0.1453
 1677W        W 5728   3.263   6.856   2.786 -0.0664  0.0923  0.0624
 1678W        W 5729   7.137   6.927   2.254  0.0082  0.1412  0.1507
 1679W        W 5730   9.416   8.242   1.642 -0.2374 -0.1170  0.0234
 1680W        W 5731   6.528   2.517   4.065 -0.0207 -0.1190 -0.1926
 1681W        W 5732   5.521   1.803  13.719  0.0647 -0.2797 -0.0318
 1682W        W 5733   8.843   1.870   1.317 -0.2179 -0.2081 -0.4936
 1683W        W 5734   5.219   9.795   4.458 -0.1910  0.1502  0.2098
 1684W        W 5735   4.435   0.635  11.538 -0.1254  0.1367 -0.4083
 1685W        W 5736   3.772   0.541  13.428 -0.1449  0.1554  0.4838
 1686W        W 5737   9.686   5.451   1.280  0.1350  0.5911  0.0481
 1687W        W 5738  10.117   4.071  10.116  0.2390  0.1084 -0.0416
 1688W        W 5739   2.059   7.486   1.227 -0.1362 -0.2041  0.4580
 1689W        W 5740   2.869   3.060  13.239 -0.1563 -0.0678 -0.1816
 1690W        W 5741   1.018   8.310  12.019  0.2043 -0.1296  0.1130
 1691W        W 5742   9.871   6.318   0.612 -0.2263 -0.4256 -0.2236
 1692W        W 5743   0.057   6.054   0.272  0.1383 -0.1777 -0.2754
 1693W        W 5744   6.739   9.571   0.567  0.0235 -0.1128 -0.0142
 1694W        W 5745   6.184   5.647  13.098 -0.3595  0.0323 -0.1940
 1695W        W 5746   4.073   6.746   0.395  0.1657 -0.0057 -0.3209
 1696W        W 5747   1.329   2.029   0.706 -0.1209  0.0612  0.1657
 1697W        W 5748   5.261   5.077   1.533  0.0568 -0.2269 -0.1043
 1698W        W 5749   6.536   1.851   9.788 -0.0118  0.1235  0.0462
 1699W        W 5750   3.934   8.511   3.429  0.0672 -0.0367  0.0369
 1700W        W 5751   3.325   6.518   3.325  0.3216  0.1072 -0.3858
 1701W        W 5752   2.959   4.229  12.259 -0.1571  0.3107  0.2112
 1702W        W 5753   0.372   5.550  11.756  0.0644 -0.1147 -0.1286
 1703W        W 5754   7.767   0.810   3.871 -0.0830  0.0102 -0.1297
 1704W        W 5755   8.460   5.487  13.727 -0.0758  0.0203 -0.0916
 1705W        W 5756   9.186   6.899   9.883 -0.0569  0.1786 -0.0916
 1706W        W 5757   9.501   5.994   4.167 -0.0373  0.0205 -0.0529
 1707W        W 5758   2.783   6.189   1.586  0.2145 -0.1810  0.0161
 1708W        W 5759   1.531   6.225   2.284 -0.0185  0.1842 -0.1916
 1709W        W 5760   4.478   3.726   1.589 -0.0491 -0.2850  0.3047
 1710W        W 5761   0.016   2.981  11.042  0.0581 -0.1168  0.1708
 1711W        W 5762   3.363   1.678   2.607 -0.2714 -0.0959 -0.0128
 1712W        W 5763   8.817   5.526   0.132  0.2634 -0.0948 -0.0537
 1713W        W 5764   2.231   6.147   8.913  0.1632 -0.1297 -0.0163
 1714W        W 5765   4.082   2.673  11.123 -0.2134  0.0988 -0.2883
 1715W        W 5766   5.217   8.262  12.448  0.0316  0.0003 -0.0488
 1716W        W 5767   4.878   7.205   1.614  0.2942 -0.1583  0.1001
 1717W        W 5768   2.166   2.024   2.136  0.1177 -0.5111 -0.1733
 1718W        W 5769   9.556   5.338  12.085 -0.2118  0.3281  0.3248
 1719W        W 5770   7.808   8.655   0.941  0.0820  0.5291  0.1150
 1720W        W 5771   8.068   7.704  10.676 -0.2339  0.2717 -0.3505
 1721W        W 5772   4.338   8.582   1.681  0.0623 -0.1714 -0.4215
 1722W        W 5773   1.124   8.034  10.963 -0.1996  0.0243  0.1992
 1723W        W 5774   0.717   9.770  12.366 -0.0742  0.3571 -0.0376
 1724W        W 5775   1.432   2.092  13.791 -0.0655  0.0388 -0.1182
 1725W        W 5776   6.504   0.287  11.272  0.2164 -0.4510  0.5678
 1726W        W 5777   0.574   1.267   3.379 -0.1191 -0.2599  0.2059
 1727W        W 5778   5.081   6.395   8.784  0.0967  0.0783  0.3851
 1728W        W 5779   7.134   3.262  10.682 -0.0624 -0.2304 -0.1868
 1729W        W 5780   1.640   0.339   2.009 -0.0838 -0.1003 -0.1845
 1730W        W 5781   6.664   9.806  10.162 -0.4000 -0.1068  0.4236
 1731W        W 5782   4.128   9.773   8.866  0.1185 -0.0539  0.1679
 1732W        W 5783   3.719   4.838  10.247  0.0056  0.2060 -0.0655
 1733W        W 5784   3.550   8.444  13.165  0.3090  0.3360  0.0702
 1734W        W 5785   3.493   2.553   3.109 -0.0836  0.0459 -0.5100
 1735W        W 5786   8.353   1.258   2.091  0.2013 -0.2902  0.0631
 1736W        W 5787   1.285   8.949  12.212 -0.0329  0.3426 -0.0073
 1737W        W 5788   3.084   3.712   4.418 -0.0772  0.1990  0.3960
 1738W        W 5789   6.224   7.849  11.880 -0.0589  0.1232  0.0583
 1739W        W 5790   5.795   9.921  11.767 -0.3304 -0.0580 -0.4729
 1740W        W 5791   2.991   1.128   3.327 -0.1023 -0.3652 -0.0633
 1741W        W 5792  10.157   0.466   4.324 -0.2064 -0.1357 -0.2110
 1742W        W 5793   1.979   6.286   3.153  0.1199  0.0357  0.3435
 1743W        W 5794   9.211   8.694   1.907  0.0819 -0.0880  0.3897
 1744W        W 5795   5.570   6.727   3.880 -0.0884 -0.0161 -0.1792
 1745W        W 5796   4.086   1.372  13.871  0.0274 -0.0988  0.4202
 1746W        W 5797   3.279   9.694   4.370  0.2291  0.0820 -0.0061
 1747W        W 5798   2.610   5.809   1.874 -0.1395  0.1118 -0.0279
 1748W        W 5799   4.011   3.821   4.170  0.1574  0.1565 -0.2244
 1749W        W 5800   5.243   1.259   3.666  0.2408  0.1100 -0.1058
 1750W        W 5801   9.567   4.084   4.879  0.0257  0.0509  0.2463
 1751W        W 5802   8.564   5.998  13.441  0.4727  0.0307 -0.1638
 1752W        W 5803   2.101   6.156   0.587 -0.0609 -0.0987 -0.1153
 1753W        W 5804   7.745   3.601   9.954  0.1122  0.2474  0.2717
 1754W        W 5805   1.689   1.250  11.890  0.2069  0.0982 -0.1140
 1755W        W 5806   8.418   3.837   1.055  0.1116  0.1302  0.2751
 1756W        W 5807   1.754   5.956  13.849 -0.0055  0.1100  0.3314
 1757W        W 5808   9.066   4.005  12.241 -0.1561 -0.1168 -0.3414
 1758W        W 5809   8.254   1.716  10.433  0.1036 -0.0288  0.2279
 1759W        W 5810   3.202   9.465   5.315  0.2430 -0.0878  0.1808
 1760W        W 5811   4.369   2.600  12.417  0.1432  0.3624  0.0924
 1761W        W 5812   2.028   3.947  10.547  0.0665  0.2245  0.1523
 1762W        W 5813   1.870   8.513   2.987 -0.0036 -0.0484  0.3202
 1763W        W 5814   5.023   4.784  10.259  0.1115 -0.0094  0.0336
 1764W        W 5815   4.696  10.168   0.866  0.0674  0.0037 -0.0570
 1765W        W 5816   6.900   7.826   3.073 -0.0096 -0.0299 -0.2346
 1766W        W 5817   0.207   6.124   1.740  0.3542  0.0181 -0.0141
 1767W        W 5818   2.881   4.222   2.390  0.0039  0.0207  0.0281
 1768W        W 5819   2.747   9.231  13.251  0.1984  0.1435 -0.0519
 1769W        W 5820   1.495   8.010  10.561  0.0299  0.1701 -0.1332
 1770W        W 5821   3.378   3.587   1.803 -0.0450 -0.0519  0.0547
 1771W        W 5822   0.226   6.869  10.708 -0.2815 -0.2025 -0.0199
 1772W        W 5823   4.139   8.290  12.350 -0.1247 -0.1656 -0.3194
 1773W        W 5824   4.110   2.745  13.833  0.1065 -0.1271 -0.1517
 1774W        W 5825   0.261   3.675   8.724 -0.5819 -0.1685  0.1546
 1775W        W 5826   4.193   9.550   0.119 -0.0370  0.1263 -0.1881
 1776W        W 5827   8.966   5.131  11.001  0.3295  0.2194  0.0235
 1777W        W 5828   8.242   1.656   1.842  0.0041 -0.0723 -0.0306
 1778W        W 5829   8.309   6.456   3.481 -0.1620 -0.0404 -0.2293
 1779W        W 5830   5.432   1.344   1.966  0.1289 -0.0316  0.0500
 1780W        W 5831   4.757   7.556  10.877  0.0714  0.1205 -0.0755
 1781W        W 5832   4.843   6.200   4.276 -0.2838 -0.0036 -0.1476
 1782W        W 5833   6.580   8.773  11.695 -0.0218 -0.0779 -0.0355
 1783W        W 5834   7.918   6.575  13.131 -0.1043 -0.0436  0.0953
 1784W        W 5835   7.321   2.299   0.970  0.0699  0.2595  0.1116
 1785W        W 5836   9.795   7.446   2.225  0.0498  0.1092 -0.1383
 1786W        W 5837   3.158   2.859   0.772 -0.0327 -0.0938  0.1718
 1787W        W 5838   4.216   0.855  13.864 -0.0236  0.1413 -0.1020
 1788W        W 5839   0.486   7.572  12.509  0.1389  0.1738 -0.2358
 1789W        W 5840   5.301   3.270   3.522  0.1142 -0.0322 -0.3116
 1790W        W 5841   9.805   4.486   0.751 -0.3494  0.1459  0.3665
 1791W        W 5842   2.412   3.537   9.922  0.2638  0.3649  0.0762
 1792W        W 5843   6.552   1.528  10.562 -0.0218  0.1038 -0.0120
 1793W        W 5844   6.378   2.765  10.280 -0.0447 -0.0703  0.0143
 1794W        W 5845   6.120   2.870  12.058 -0.0577  0.3629 -0.0948
 1795W        W 5846   9.433   0.498   3.758 -0.0759 -0.0697 -0.4189
 1796W        W 5847   3.678   5.326   9.559 -0.2225  0.2760 -0.3242
 1797W        W 5848   0.988   6.144   2.200  0.0401  0.0886  0.2451
 1798W        W 5849   9.940   1.378   9.809  0.1896  0.4746 -0.2974
 1799W        W 5850   4.022   9.036  12.412 -0.0608  0.1259 -0.4131
 1800W        W 5851   3.129   6.401   0.611  0.4068 -0.0536  0.2773
 1801W        W 5852   3.150   7.251  11.536  0.0776 -0.3093  0.3770
 1802W        W 5853   0.764   8.450   2.843 -0.0480  0.0503  0.2809
 1803W        W 5854   6.339  10.060   4.308 -0.2055 -0.1540 -0.0774
 1804W        W 5855   1.051   7.164   2.192  0.3060 -0.0700 -0.1443
 1805W        W 5856   9.949   8.869  10.693  0.1097 -0.0893  0.1548
 1806W        W 5857   5.737   1.213  10.475 -0.2417 -0.0111  0.1178
 1807W        W 5858  10.066   0.078  11.852 -0.0423  0.0547 -0.0708
 1808W        W 5859   0.674   5.731   2.375 -0.0608  0.2027 -0.0403
 1809W        W 5860   6.494   0.944   2.244 -0.0553 -0.1452  0.1750
 1810W        W 5861   2.871   3.403   3.698  0.2417 -0.1790 -0.2457
 1811W        W 5862   0.225   9.795  12.620 -0.1150  0.3059 -0.0329
 1812W        W 5863   0.647   3.697   0.610 -0.1955 -0.3639  0.1782
 1813W        W 5864   0.273   5.482   0.784  0.1896  0.1624 -0.0160
 1814W        W 5865   7.816   5.603   9.797  0.0368 -0.2995 -0.0119
 1815W        W 5866   8.545   6.389  12.028  0.0414 -0.1619 -0.1551
 1816W        W 5867   8.266   0.085   0.459  0.0002  0.0067 -0.3151
 1817W        W 5868  10.065   9.115   2.726  0.0998  0.0426  0.1378
 1818W        W 5869   6.102   8.689   9.987 -0.1891 -0.3059 -0.1534
 1819W        W 5870   7.442   6.569   2.485  0.1331  0.0731 -0.2147
 1820W        W 5871   7.216   3.105   9.662 -0.2456 -0.1817  0.0069
 1821W        W 5872   2.682   3.227   0.124 -0.1727 -0.0087  0.0204
 1822W        W 5873   0.032   9.192   2.224 -0.0184  0.0635 -0.0295
 1823W        W 5874   7.723   0.453   1.693  0.1196  0.1894 -0.3927
 1824W        W 5875   1.340   0.839  11.962 -0.1872 -0.0754  0.1579
 1825W        W 5876   7.679   5.589  13.695  0.0084  0.0490 -0.1331
 1826W        W 5877   2.255   3.959  10.097  0.0955  0.0562 -0.1083
 1827W        W 5878   7.738   1.381   3.939 -0.0039  0.1108  0.1304
 1828W        W 5879   4.417   7.094  13.408  0.0404 -0.1516 -0.0199
 1829W        W 5880   8.299   0.424  11.453  0.0433  0.0963  0.0802
 1830W        W 5881   7.554   3.447  12.285  0.0553 -0.1448 -0.0210
 1831W        W 5882   3.467   4.349   3.002  0.1690 -0.0132  0.0057
 1832W        W 5883   7.914   8.853  12.937 -0.1494  0.0092 -0.2082
 1833W        W 5884   7.305   0.460   2.015  0.0310  0.2699 -0.0258
 1834W        W 5885   9.101   2.474  11.407 -0.0969  0.0620  0.3080
 1835W        W 5886  10.142   9.118   9.935  0.1164  0.2931  0.0113
 1836W        W 5887   0.322   5.015   9.780  0.0532 -0.1304 -0.1082
 1837W        W 5888   8.972   5.378   3.264 -0.1243 -0.1226 -0.1373
 1838W        W 5889   8.605   1.298   3.063  0.0256  0.0529 -0.2869
 1839W        W 5890   2.530   2.943  13.602  0.1905 -0.0160 -0.2644
 1840W        W 5891   3.748   8.637  12.206  0.2257  0.0159  0.2901
 1841W        W 5892   4.516   5.553  13.925  0.1322  0.0957  0.2781
 1842W        W 5893   4.831   2.222  11.702 -0.0639 -0.1054 -0.1515
 1843W        W 5894   3.142   3.396   4.868  0.0559 -0.1457 -0.0284
 1844W        W 5895   7.531   8.578  11.433  0.2073 -0.0603  0.1103
 1845W        W 5896   3.241   1.436  11.620 -0.3063 -0.3232  0.0317
 1846W        W 5897   1.996   0.315  12.624 -0.1235 -0.0582  0.2185
 1847W        W 5898   3.623   6.690  11.464  0.3913 -0.4794  0.1637
 1848W        W 5899   1.665   5.021   9.559  0.0021 -0.2253  0.2118
 1849W        W 5900   4.044   2.101   3.981 -0.1621  0.0415  0.2410
 1850W        W 5901   4.538   3.031   9.959 -0.0436 -0.3067 -0.4077
 1851W        W 5902   2.595   3.047   1.495 -0.2403 -0.2351 -0.2138
 1852W        W 5903   2.969   4.077   0.727 -0.0536 -0.0143 -0.0343
 1853W        W 5904   0.110   5.731   9.478 -0.2024 -0.4933 -0.1015
 1854W        W 5905   8.711   7.924   4.239 -0.2467  0.2468  0.0198
 1855W        W 5906   4.541   8.228   0.492 -0.1274 -0.1373 -0.0013
 1856W        W 5907   8.947   7.505   1.397  0.0176  0.2680  0.0861
 1857W        W 5908   0.801   9.989  13.832  0.3424  0.1535  0.1974
 1858W        W 5909   9.319   9.344  12.278 -0.1651 -0.0623 -0.2032
 1859W        W 5910   0.748   5.382   1.423 -0.0293  0.3214 -0.2154
 1860W        W 5911   6.409   2.918  12.523 -0.0580  0.1641  0.2061
 1861W        W 5912   2.204   2.970  10.527  0.1362  0.2838  0.1320
 1862W        W 5913   1.016   5.037   1.813  0.1952 -0.0644  0.0601
 1863W        W 5914   4.689   7.528   3.420 -0.2112 -0.0547 -0.2374
 1864W        W 5915   2.729   3.787   4.022  0.3536 -0.0694  0.1319
 1865W        W 5916   2.371   5.436  10.106 -0.0301 -0.4439 -0.2893
 1866W        W 5917   4.126   7.088   8.594 -0.0056  0.1896  0.1235
 1867W        W 5918   6.977   0.820   2.122  0.2362 -0.1720  0.2637
 1868W        W 5919   1.188   5.352   1.006  0.0602  0.1882  0.2430
 1869W        W 5920   1.143   5.403   2.152  0.1764  0.1145 -0.0193
 1870W        W 5921   6.212   7.891   0.834  0.1055  0.0564 -0.1530
 1871W        W 5922   4.887   3.321   0.949 -0.2281  0.3645 -0.0250
 1872W        W 5923   7.104   7.651  10.288  0.0252  0.2014 -0.1211
 1873W        W 5924   4.307   2.708   4.972  0.1906 -0.0607  0.0844
 1874W        W 5925   6.141   8.197  10.025 -0.0750 -0.0187 -0.1767
 1875W        W 5926   4.222   8.327  11.171  0.3817 -0.0134  0.1200
 1876W        W 5927   4.269   7.821   3.339  0.3092  0.0031 -0.1723
 1877W        W 5928   4.269   1.169   1.220 -0.0706  0.0816  0.3066
 1878W        W 5929   8.414   4.454   4.133 -0.4801  0.0017  0.2395
 1879W        W 5930   3.739   3.355   2.089  0.0077 -0.3005  0.0550
 1880W        W 5931   1.697   8.859  11.684  0.0286 -0.2382 -0.4992
 1881W        W 5932   4.012   6.453  13.972 -0.1665 -0.0782 -0.1585
 1882W        W 5933   7.536   8.018  12.880  0.0021  0.5110  0.0748
 1883W        W 5934   6.774   5.825   1.198 -0.0463 -0.1558 -0.2195
 1884W        W 5935   9.047   2.913   1.312 -0.2426  0.2854  0.0061
 1885W        W 5936   1.947   6.208   9.466 -0.1418 -0.2834  0.0535
 1886W        W 5937   8.967   3.121   0.447  0.2487  0.0920  0.1087
 1887W        W 5938   8.627   4.041   4.407  0.1728 -0.0024 -0.0927
 1888W        W 5939   5.607   5.033  11.005 -0.1150 -0.2562 -0.2292
 1889W        W 5940   3.851   7.718   2.281 -0.1012 -0.0781  0.0712
 1890W        W 5941   2.738   5.641   4.573 -0.0883  0.5324 -0.1297
 1891W        W 5942   8.273   6.841  12.823 -0.0513  0.1721  0.0057
 1892W        W 5943   1.888   6.175   5.834  0.2372  0.2262  0.1958
 1893W        W 5944   4.005   3.679  11.754  0.0648 -0.1505 -0.0693
 1894W        W 5945   1.512   2.501   2.384  0.2646 -0.1435  0.1605
 1895W        W 5946   0.371   1.927   0.049  0.1214 -0.1096  0.0682
 1896W        W 5947   3.761   1.004   2.061  0.0601 -0.2384  0.1755
 1897W        W 5948   5.111   3.976   2.971 -0.3058 -0.0955  0.0202
 1898W        W 5949   8.315   1.228   1.552 -0.3992  0.2203  0.1435
 1899W        W 5950   6.838   3.247   0.837 -0.3868  0.1657  0.1791
 1900W        W 5951   4.696   1.938  10.248  0.1723 -0.1410  0.0835
 1901W        W 5952   0.127   0.466  11.012 -0.0924  0.0818  0.3104
 1902W        W 5953   6.378   0.702  12.542  0.0675  0.0330 -0.2089
 1903W        W 5954   3.398   7.065   4.417  0.0895  0.0296 -0.3023
 1904W        W 5955   0.237   3.046   4.909 -0.1025  0.1575 -0.0412
 1905W        W 5956  10.051   8.645  11.612 -0.2475  0.1844 -0.2245
 1906W        W 5957   9.368  10.023  10.169  0.2235  0.1456  0.1327
 1907W        W 5958   8.742   4.852   0.479  0.0786  0.2967  0.2514
 1908W        W 5959   1.720   0.014   9.892  0.2074 -0.0561 -0.0579
 1909W        W 5960   2.264   8.746  12.634 -0.0599  0.1787 -0.0621
 1910W        W 5961   4.946   8.695   9.988 -0.1328  0.0020 -0.1994
 1911W        W 5962  10.172   3.470   2.395 -0.2459 -0.1443 -0.2220
 1912W        W 5963   8.535   4.768  12.468 -0.2147  0.0067 -0.0495
 1913W        W 5964   7.387   6.297  13.430 -0.1676  0.2444  0.1213
 1914W        W 5965   2.989   0.605   9.427  0.0592 -0.2399  0.0210
 1915W        W 5966   2.454   4.985  11.755  0.0722  0.0390  0.1926
 1916W        W 5967   3.417   2.781   8.971  0.4202 -0.0927 -0.1443
 1917W        W 5968   3.494   0.501   1.165 -0.0477 -0.2516 -0.0696
 1918W        W 5969   5.780   1.105   3.398 -0.2453 -0.1262  0.1585
 1919W        W 5970  10.094   9.857   3.000 -0.1472 -0.1369  0.1695
 1920W        W 5971   8.444   2.640  12.029 -0.1915 -0.1679  0.0312
 1921W        W 5972   4.197   8.652   4.773  0.1228  0.0989  0.2037
 1922W        W 5973   0.507   6.211   2.175  0.4051  0.0348 -0.1381
 1923W        W 5974   1.336   7.165   1.709 -0.0223  0.1045 -0.2098
 1924W        W 5975   7.084   5.077   1.730  0.0578 -0.1554  0.2187
 1925W        W 5976   0.374   1.709   4.264 -0.1687 -0.1300  0.2322
 1926W        W 5977   1.923   9.215   0.346 -0.0185  0.4065  0.2453
 1927W        W 5978   9.397   8.071  10.779  0.0301 -0.2543 -0.4090
 1928W        W 5979   3.986   7.071  13.615  0.1628 -0.1168  0.0128
 1929W        W 5980   5.538   2.160  12.059 -0.3837  0.1920  0.1261
 1930W        W 5981   3.032   1.960   2.229  0.1967  0.1244  0.1067
 1931W        W 5982   6.106   1.822  13.664 -0.2798 -0.1495 -0.1299
 1932W        W 5983   0.842   5.061   4.726  0.2672 -0.1464  0.0231
 1933W        W 5984   4.729   8.881  11.270 -0.3358 -0.1692 -0.1557
 1934W        W 5985   6.836   2.778  13.705  0.1198  0.2085  0.3015
 1935W        W 5986   1.764   1.835  13.048  0.0689 -0.1635 -0.1875
 1936W        W 5987   7.411   1.412  10.619 -0.1939  0.1110  0.5564
 1937W        W 5988   0.407   4.519  11.772  0.1481 -0.2208  0.4398
 1938W        W 5989   0.957   6.787  11.910 -0.2214  0.1383 -0.2238
 1939W        W 5990   2.893   7.773   0.239 -0.0356 -0.0271 -0.0488
 1940W        W 5991   9.669   7.790   1.859  0.0448 -0.4155  0.1844
 1941W        W 5992   5.470   3.397  10.738 -0.1092  0.0240  0.1365
 1942W        W 5993   5.477   9.815   3.982  0.3936 -0.0783 -0.0989
 1943W        W 5994   2.169   8.624   0.791  0.0831 -0.2167 -0.2544
 1944W        W 5995   2.783   4.691  11.964 -0.1411 -0.1571 -0.1543
 1945W        W 5996   3.581   2.259   0.762  0.0325 -0.2421  0.1159
 1946W        W 5997   0.009   9.642  13.084 -0.1830 -0.0003 -0.1007
 1947W        W 5998   8.376   3.452  11.024  0.2089  0.2344 -0.1168
 1948W        W 5999   0.235  10.073   0.050  0.0185  0.1130 -0.1690
 1949W        W 6000   6.617   6.349  11.177 -0.2538 -0.0562 -0.0545
 1950W        W 6001   1.766   1.841   2.496  0.0173 -0.0734 -0.2794
 1951W        W 6002   7.757   5.671   4.819 -0.0208  0.1494 -0.1432
 1952W        W 6003   8.127   8.258   0.492 -0.3111 -0.1926  0.1935
 1953W        W 6004   6.217   3.718  12.129  0.1169  0.2594 -0.0504
 1954W        W 6005   7.344   9.771  12.696  0.1338 -0.0476  0.0963
 1955W        W 6006   6.373   0.372   4.024  0.4163  0.0807  0.0248
 1956W        W 6007   3.878   2.443   1.608  0.3473 -0.1927  0.1011
 1957W        W 6008   6.727   0.347   3.119 -0.2391 -0.1721 -0.0578
 1958W        W 6009   0.209   4.759  12.205  0.2988 -0.3919 -0.2330
 1959W        W 6010   7.139   5.760   8.999 -0.1695  0.0807 -0.1883
 1960W        W 6011   6.485   4.870  13.327 -0.2200 -0.0753  0.0277
 1961W        W 6012   5.408   6.049   3.591  0.0609 -0.1065  0.0914
 1962W        W 6013   6.966   3.707  11.179  0.2106  0.1282  0.1554
 1963W        W 6014   0.825   0.931   3.791 -0.2253 -0.0860 -0.0304
 1964W        W 6015   3.407   7.673   3.923  0.1560  0.0013 -0.1337
 1965W        W 6016   9.531   2.287   2.452 -0.0920 -0.2130 -0.1092
 1966W        W 6017   2.729   2.598   3.514 -0.0771  0.2626 -0.2234
 1967W        W 6018   3.184   8.984  10.668  0.0818 -0.1342  0.0464
 1968W        W 6019   4.096   3.378   4.465 -0.1620 -0.0645 -0.0685
 1969W        W 6020   5.463   7.261  11.134  0.0707 -0.2761 -0.1434
 1970W        W 6021   6.336   7.231  11.424 -0.2794 -0.2429  0.0406
 1971W        W 6022   9.251   2.517  13.546 -0.0572  0.2035 -0.2154
 1972W        W 6023   3.663  10.023  12.142 -0.0746  0.1957 -0.2240
 1973W        W 6024   0.362   2.529   0.802 -0.0592  0.0257 -0.3267
 1974W        W 6025   7.279   6.615   3.727 -0.0507 -0.0400 -0.3649
 1975W        W 6026   2.963   0.002   2.544 -0.2033 -0.2067  0.1519
 1976W        W 6027   0.161   9.122  10.499 -0.0358  0.0217  0.0717
 1977W        W 6028   1.109   7.049   3.902 -0.0058  0.0711  0.0541
 1978W        W 6029   3.066   9.085  11.255 -0.2592 -0.0407 -0.2842
 1979W        W 6030   7.247   2.088   3.088 -0.1240  0.0345 -0.1734
 1980W        W 6031   4.463  10.012   3.984  0.2937 -0.0872 -0.0576
 1981W        W 6032   9.921   0.444   3.897  0.0098 -0.0076  0.1187
 1982W        W 6033   5.227   8.797   8.974  0.1555 -0.0920  0.1926
 1983W        W 6034   0.222   3.371  13.781 -0.2638  0.2369 -0.0136
 1984W        W 6035   7.154   0.384   3.424  0.1557  0.0420  0.1685
 1985W        W 6036   4.421   5.527   1.642 -0.1076  0.2805  0.3075
 1986W        W 6037   5.512   5.774   4.791  0.2147  0.0120 -0.1518
 1987W        W 6038   4.326   2.876   4.333  0.2047  0.0944 -0.0618
 1988W        W 6039   5.640   5.767   0.205 -0.0228 -0.2039 -0.0599
 1989W        W 6040   0.728   3.196  10.850  0.1853  0.0842 -0.0571
 1990W        W 6041   8.344   6.988  11.383  0.2860 -0.2665  0.2229
 1991W        W 6042   4.945   4.897  11.417  0.2586  0.0769  0.0583
 1992W        W 6043   7.902   0.027   3.781  0.0057 -0.1793 -0.0489
 1993W        W 6044   0.932   8.994  12.608  0.2496 -0.0834  0.2882
 1994W        W 6045   1.388   1.939   9.494  0.1568  0.2090  0.0243
 1995W        W 6046   5.646   2.979   1.384 -0.3063 -0.0079  0.1409
 1996W        W 6047   2.772   7.932   4.613  0.0074 -0.1357 -0.1303
 1997W        W 6048   3.210   5.067   0.318  0.2335  0.0020 -0.0619
 1998W        W 6049   9.070   4.071   4.679 -0.0139  0.0312  0.0494
 1999W        W 6050   2.263   0.995  13.959  0.1221  0.0044  0.1398
 2000W        W 6051   7.338   8.548   0.159  0.1620 -0.0109  0.2808
 2001W        W 6052   2.683   6.017  12.847  0.3095 -0.1229  0.0509
 2002W        W 6053   3.286   5.588  11.086  0.0577 -0.0795  0.1093
 2003W        W 6054   1.430   0.781   1.876  0.1119  0.3281 -0.0799
 2004W        W 6055   9.654   4.290   3.991 -0.1646 -0.0161 -0.2315
 2005W        W 6056   6.449   5.608   2.147  0.0090  0.1739 -0.2081
 2006W        W 6057   5.166   5.988   2.217  0.0475  0.1878 -0.2272
 2007W        W 6058   3.177   0.056  12.992  0.1022 -0.1258  0.0714
 2008W        W 6059   7.580   4.115  11.965 -0.3826 -0.0473 -0.1095
 2009W        W 6060   4.535   2.816   9.408 -0.2107  0.1157  0.1967
 2010W        W 6061   8.148   0.854  11.660  0.1425  0.3115 -0.1099
 2011W        W 6062   2.205   9.346   5.005 -0.0253 -0.1705  0.1159
 2012W        W 6063   8.974   5.729  13.153  0.1136  0.2165 -0.0226
 2013W        W 6064   4.629   4.938   9.969 -0.0648 -0.0505  0.3116
 2014W        W 6065   6.380   0.580   9.549 -0.1027  0.1107 -0.0736
 2015W        W 6066   8.887   3.608   3.598 -0.2103 -0.3411  0.0796
 2016W        W 6067   5.480   1.976  11.574 -0.0487  0.1224 -0.0588
 2017W        W 6068   7.466   6.333  12.783 -0.3022  0.0564 -0.1643
 2018W        W 6069   6.547   3.567  10.879  0.3017  0.1502 -0.0526
 2019W        W 6070   5.734   3.473   5.018  0.0407 -0.1104  0.2053
 2020W        W 6071   9.460   6.224   3.544  0.0181  0.1239  0.0431
 2021W        W 6072   3.211   3.725   1.229 -0.1146  0.0715 -0.0626
 2022W        W 6073   8.666   9.991  13.496 -0.0224 -0.1761  0.1368
 2023W        W 6074   7.191   6.029  11.507 -0.3544  0.0121  0.4721
 2024W        W 6075   4.748   8.455   3.895 -0.3055 -0.0003 -0.0466
 2025W        W 6076   8.839   3.981  11.275 -0.1113  0.3322 -0.2140
 2026W        W 6077   7.169   2.511   1.430  0.1464 -0.1406 -0.0420
 2027W        W 6078   9.994   0.579   0.430  0.0855  0.0626 -0.3895
 2028W        W 6079   3.235   9.071   2.171 -0.1426 -0.4033 -0.1706
 2029W        W 6080   1.715   3.037   0.948  0.0104 -0.0863 -0.0085
 2030W        W 6081   4.329   6.161   4.031  0.0706 -0.0335  0.2502
 2031W        W 6082   0.815   4.819   9.623 -0.2779 -0.1351  0.0302
 2032W        W 6083   2.112   3.975   2.562 -0.0926  0.3104  0.2709
 2033W        W 6084   3.710   5.804   3.729 -0.0117  0.0859 -0.3216
 2034W        W 6085   1.726   0.359  13.028  0.1366 -0.2009 -0.1180
 2035W        W 6086   1.101   7.945   0.187  0.1237  0.0329  0.0599
 2036W        W 6087   1.533   2.185   9.027  0.0561 -0.0350 -0.2631
 2037W        W 6088   3.670   4.641  13.217 -0.2624 -0.1543 -0.2058
 2038W        W 6089   4.964   0.354   1.044 -0.1556 -0.2538 -0.0708
 2039W        W 6090   5.856   3.378   1.183 -0.1398  0.0376  0.2407
 2040W        W 6091   2.652   6.795  13.068 -0.0948 -0.2798 -0.1541
 2041W        W 6092   4.330   7.428   4.272  0.0866  0.0860  0.0695
 2042W        W 6093   7.496   5.897  13.078  0.0952 -0.0148  0.0668
 2043W        W 6094   0.202   6.363  11.518  0.0673 -0.0575  0.0242
 2044W        W 6095   1.515  10.078  10.360 -0.1473  0.2771  0.0770
 2045W        W 6096   0.173   2.700   4.597  0.1702  0.1258  0.2490
 2046W        W 6097   2.708   4.496   1.310 -0.2578  0.3110 -0.1543
 2047W        W 6098   8.405   3.735   0.011 -0.0235  0.0663  0.1432
 2048W        W 6099   6.753   1.982  13.287  0.1060  0.0115 -0.0233
 2049W        W 6100  10.042   5.622  13.432  0.1207  0.2494 -0.0517
 2050W        W 6101   0.941   0.539   3.397 -0.0119 -0.0529  0.0684
 2051W        W 6102   6.772   3.348   8.753  0.2075  0.0306 -0.2335
 2052W        W 6103   5.518   4.663   9.979  0.0967 -0.1144  0.0863
 2053W        W 6104   2.518   3.057   4.832 -0.1689 -0.0696 -0.2211
 2054W        W 6105   8.874   1.177   1.095 -0.0058  0.0112 -0.0961
 2055W        W 6106   5.491   6.714   0.494  0.2737  0.3695  0.1409
 2056W        W 6107   4.334   6.965  12.590  0.0999 -0.1668 -0.2949
 2057W        W 6108   7.390   4.664   3.310 -0.8695 -0.2402 -0.1610
 2058W        W 6109   7.027   3.669  13.870 -0.3817 -0.0311  0.1575
 2059W        W 6110   4.403   0.406   0.716 -0.0786  0.3232 -0.1040
 2060W        W 6111   4.009   3.155  11.363 -0.0262 -0.0782 -0.0984
 2061W        W 6112   8.506   7.505   3.334  0.0574  0.1144 -0.2386
 2062W        W 6113   4.409   8.709  12.368 -0.0970  0.0213  0.0049
 2063W        W 6114   9.601   2.453  13.203  0.3397  0.0494 -0.1108
 2064W        W 6115   8.986   0.138   2.559  0.2567  0.2554 -0.0589
 2065W        W 6116   7.377   8.876   2.318 -0.0752  0.2376 -0.0202
 2066W        W 6117   6.195   9.818   1.595 -0.0660  0.5537 -0.1986
 2067W        W 6118   1.253   7.997  12.432 -0.3327  0.0386  0.2355
 2068W        W 6119   7.787   2.140   3.459  0.0526 -0.0274 -0.0897
 2069W        W 6120   3.184   9.350   1.402  0.1530  0.1891 -0.0115
 2070W        W 6121   2.379   4.975   2.014  0.2817 -0.3057  0.0397
 2071W        W 6122   5.605   5.639  12.160  0.2205 -0.3149  0.0112
 2072W        W 6123   0.656   8.683  13.836 -0.2139 -0.0068  0.1914
 2073W        W 6124   3.605   6.904   9.757  0.3790 -0.1715 -0.0903
 2074W        W 6125   2.155   8.199  13.796 -0.3678 -0.2537  0.0802
 2075W        W 6126   4.567   4.908   2.215 -0.1372  0.1789  0.3721
 2076W        W 6127   5.939   5.856   5.026 -0.4503 -0.1870 -0.1372
 2077W        W 6128   2.548   4.317   8.767  0.4607 -0.1660 -0.2811
 2078W        W 6129   0.826   0.721  10.952 -0.2161  0.0813 -0.1452
 2079W        W 6130   6.279   3.858   3.158 -0.2536  0.1864 -0.0007
 2080W        W 6131   1.919   2.510  10.495 -0.0042 -0.1321  0.0435
 2081W        W 6132   0.661   1.371   2.451 -0.0017 -0.0600  0.1935
 2082W        W 6133   4.887   6.957   2.101 -0.5941  0.0340 -0.0177
 2083W        W 6134   8.996   0.831  12.301  0.1627  0.0985 -0.2523
 2084W        W 6135   3.701   1.487  10.315  0.2743 -0.2755  0.0209
 2085W        W 6136   9.627   1.543   0.987  0.3048  0.0233 -0.1401
 2086W        W 6137   4.141   6.756   1.342  0.2986  0.1049  0.2846
 2087W        W 6138  10.149   1.430   0.694 -0.3195 -0.1700 -0.1416
 2088W        W 6139   8.247   4.715   0.683 -0.1820  0.0962 -0.1540
 2089W        W 6140   3.062   5.321   1.499 -0.0791 -0.0869 -0.0178
 2090W        W 6141   8.792   5.186   2.133 -0.0030  0.0457  0.4477
 2091W        W 6142   6.733   0.320   3.639  0.0687 -0.0023 -0.1272
 2092W        W 6143   2.018   7.044   2.540  0.0255  0.0218 -0.3661
 2093W        W 6144   7.464   7.763   0.478  0.1576  0.2903 -0.1663
 2094W        W 6145   9.133   0.775   1.864  0.0797  0.1869  0.0794
 2095W        W 6146   6.828   2.851  12.809 -0.4008  0.1896 -0.1749
 2096W        W 6147   2.327   9.219   3.469  0.1938 -0.1522  0.2357
 2097W        W 6148   6.638   5.819  11.308 -0.1479  0.0058  0.0278
 2098W        W 6149   6.251   0.793   8.881  0.2328  0.2429  0.1711
 2099W        W 6150   5.577   9.205   3.323  0.2863  0.0582 -0.0445
 2100W        W 6151   4.978   9.019  10.736  0.3389  0.1735 -0.0783
 2101W        W 6152   5.387   9.240  10.697 -0.1220  0.1841  0.0120
 2102W        W 6153   7.214   5.066  11.514  0.0660  0.0892 -0.1153
 2103W        W 6154   3.443   0.929   3.446  0.3356 -0.0043  0.0472
 2104W        W 6155   1.214   4.142  10.637 -0.0616 -0.2620 -0.0239
 2105W        W 6156   8.066  10.054   1.834 -0.0399  0.2258 -0.0811
 2106W        W 6157   7.913   4.750   1.696  0.1896 -0.0929  0.0324
 2107W        W 6158   5.477   4.969   1.104  0.1997 -0.1569 -0.0200
 2108W        W 6159   6.467   0.809   1.221  0.2537  0.2113  0.1044
 2109W        W 6160   5.881   4.349   1.860 -0.1107  0.0913 -0.0360
 2110W        W 6161   4.082   5.426   0.911  0.0153  0.0425  0.1551
 2111W        W 6162   0.193   9.002  12.413  0.1713 -0.1522  0.0666
 2112W        W 6163   5.666   1.194   4.004 -0.1835  0.1393  0.0588
 2113W        W 6164   2.995   1.124  10.748  0.3700 -0.0783 -0.0902
 2114W        W 6165   2.001   2.441   2.630 -0.1883 -0.4019  0.1607
 2115W        W 6166   0.824   7.533   0.001  0.0168  0.1158  0.0328
 2116W        W 6167   1.212   5.848   8.588 -0.1479 -0.4977 -0.1477
 2117W        W 6168   0.151   9.234   1.215 -0.1547 -0.0437  0.6289
 2118W        W 6169   0.585   4.132   2.601 -0.1059 -0.2794 -0.1761
 2119W        W 6170   0.972   3.316  11.294  0.0211  0.0615  0.2029
 2120W        W 6171   9.229   5.634   2.847  0.2443 -0.3001  0.2750
 2121W        W 6172   2.005   2.958   9.283  0.0759  0.2035 -0.0158
 2122W        W 6173   5.088   3.127  12.946  0.1255 -0.1680 -0.0595
 2123W        W 6174   4.351   1.611   2.480  0.4092 -0.1680  0.1447
 2124W        W 6175   5.223   7.096  12.954  0.0778 -0.0082 -0.1116
 2125W        W 6176   1.726   8.579  12.178  0.0088  0.1034 -0.0579
 2126W        W 6177   2.220   9.959   9.226 -0.1103 -0.0118 -0.1935
 2127W        W 6178   5.787   8.851  12.041  0.0154 -0.0244 -0.1270
 2128W        W 6179   5.894   5.055  11.419 -0.1187  0.0760  0.2442
 2129W        W 6180   6.271   4.583   2.168 -0.0555 -0.0169 -0.1220
 2130W        W 6181   9.690   3.293   2.210 -0.0441 -0.2853  0.0301
 2131W        W 6182   0.991   8.362  10.554  0.0137 -0.1299  0.1876
 2132W        W 6183   4.695   7.893   1.558 -0.1505  0.0579 -0.0579
 2133W        W 6184   0.197   2.931   5.421 -0.0605  0.0338 -0.3939
 2134W        W 6185   0.518   3.912  12.008 -0.1057 -0.2912  0.0968
 2135W        W 6186   8.927   4.793   9.864 -0.0111 -0.1991 -0.0570
 2136W        W 6187  10.052   9.861  10.901 -0.1831 -0.1323  0.0408
 2137W        W 6188   1.186   3.548  11.835 -0.1565 -0.0145  0.3391
 2138W        W 6189  10.015   1.651   1.339  0.1236  0.2425 -0.1559
 2139W        W 6190   3.007   3.141  10.418 -0.1416 -0.0764  0.4979
 2140W        W 6191   1.503   8.013   0.581  0.0984  0.0383  0.0166
 2141W        W 6192   9.869   5.004   3.342 -0.0963 -0.1161  0.1662
 2142W        W 6193   1.545   5.352   4.630 -0.1593 -0.1502  0.0936
 2143W        W 6194   5.927   3.400   9.212 -0.0782  0.2957 -0.0644
 2144W        W 6195   7.409   4.369   9.362 -0.0760  0.0284  0.2388
 2145W        W 6196   4.910   9.888  11.689 -0.0871  0.3125 -0.0070
 2146W        W 6197   6.297   5.107   2.182 -0.0465 -0.0112 -0.3855
 2147W        W 6198   6.640  10.086  11.530 -0.0616  0.0685  0.3579
 2148W        W 6199   7.983   1.804  13.174 -0.0621 -0.0351  0.3959
 2149W        W 6200   9.354   5.364  10.501  0.1261  0.1841 -0.1555
 2150W        W 6201   4.037   4.634  12.687 -0.0247  0.0428 -0.1030
 2151W        W 6202   8.806   9.712  12.726  0.1155  0.0848 -0.0481
 2152W        W 6203   0.959   2.098   4.432 -0.0522 -0.0187 -0.2874
 2153W        W 6204   5.144   0.223   9.089  0.0632 -0.2582  0.0360
 2154W        W 6205   6.986   8.061  13.564  0.2852 -0.0920 -0.1568
 2155W        W 6206   5.741   2.254   9.499  0.1699 -0.0261  0.0415
 2156W        W 6207   3.882   8.056   3.112  0.2437  0.1072 -0.1131
 2157W        W 6208  10.176   5.521   1.182 -0.1604  0.2669  0.0209
 2158W        W 6209   6.438   0.208  10.723  0.0789 -0.0706  0.1312
 2159W        W 6210   3.672   0.775  10.013  0.0802  0.0928  0.0798
 2160W        W 6211   7.656   6.200   1.845  0.2146  0.2541  0.1951
 2161W        W 6212   9.017   9.503   1.912 -0.0070 -0.0938  0.0851
 2162W        W 6213   5.745   6.427   1.769  0.1131  0.0481  0.0600
 2163W        W 6214   7.351   4.501   8.867 -0.0769 -0.0469  0.2289
 2164W        W 6215   7.233   9.300  10.338 -0.2173 -0.1068 -0.3818
 2165W        W 6216   0.536   6.900   3.110 -0.1586 -0.2209 -0.3313
 2166W        W 6217   0.810   7.373  10.225 -0.3194 -0.0678  0.0978
 2167W        W 6218   2.093   6.620   2.790  0.0037 -0.0059  0.3602
 2168W        W 6219   4.153   8.537  11.877 -0.1153 -0.5004  0.0120
 2169W        W 6220   8.104   0.788   4.328  0.4105  0.2248 -0.2452
 2170W        W 6221   3.030   2.585   2.078 -0.2614  0.0377  0.4661
 2171W        W 6222   9.386   3.377   0.810 -0.1725  0.4465 -0.0349
 2172W        W 6223   1.140   1.285   3.544  0.0393  0.4790 -0.2218
 2173W        W 6224   0.542   6.351   3.131 -0.0359 -0.0591 -0.1404
 2174W        W 6225   4.907   9.536  12.550  0.1634  0.2005 -0.1528
 2175W        W 6226   1.679   3.337   4.626  0.0181  0.3027  0.1379
 2176W        W 6227   2.497   1.216  10.621 -0.0534 -0.0140  0.2455
 2177W        W 6228   9.615   4.674   2.216 -0.3853 -0.1267  0.3078
 2178W        W 6229   1.550   9.092  13.845 -0.2015 -0.0184 -0.2241
 2179W        W 6230   8.669   4.417   2.789 -0.3015 -0.0562  0.0573
 2180W        W 6231   0.457   6.305  12.329 -0.0722 -0.3449  0.0645
 2181W        W 6232   2.409   4.684   5.546 -0.5494  0.1199  0.0364
 2182W        W 6233   6.513   6.384   3.559  0.2890 -0.0673 -0.1837
 2183W        W 6234   4.933   6.973   2.682  0.0928  0.1223 -0.0399
 2184W        W 6235   6.528   5.826   4.317  0.2577 -0.2799  0.4833
 2185W        W 6236   6.616   5.561   0.817  0.4370  0.1487  0.2773
 2186W        W 6237   4.261   3.856  13.073  0.0401 -0.0443  0.4452
 2187W        W 6238   6.156   4.127   9.585  0.1365  0.0536  0.1116
 2188W        W 6239   2.640   7.985  11.367 -0.1815 -0.0606  0.1035
 2189W        W 6240   2.315   4.553   3.216 -0.1664 -0.1677 -0.0411
 2190W        W 6241   7.856   4.528   3.910  0.0887 -0.0587  0.0621
 2191W        W 6242   5.768   7.419   1.196 -0.0584  0.2731 -0.5646
 2192W        W 6243   3.995   1.269  10.838 -0.1253 -0.1318  0.1297
 2193W        W 6244   6.158  10.152  12.420  0.1374 -0.1108 -0.2022
 2194W        W 6245   6.460   1.626   0.751 -0.0965  0.0307  0.1605
 2195W        W 6246   4.369   9.452  10.033  0.0641  0.1249 -0.1900
 2196W        W 6247   9.683   7.918   3.004 -0.0012  0.2781  0.2724
 2197W        W 6248   0.819   3.786  10.527 -0.0773  0.3161  0.2836
 2198W        W 6249   1.021   4.835   1.315  0.0303  0.1672 -0.0255
 2199W        W 6250   5.301   9.458  10.119 -0.3125  0.1077  0.0850
 2200W        W 6251   8.867   9.028   2.598 -0.1235 -0.0096 -0.4265
 2201W        W 6252   2.056   4.053  11.141 -0.0326  0.2345  0.0912
 2202W        W 6253   9.377   9.804  12.121 -0.3381 -0.0661  0.0548
 2203W        W 6254   5.770   8.084  12.333  0.2967  0.1838 -0.0412
 2204W        W 6255   2.928   8.268  10.936  0.0298  0.0100 -0.1036
 2205W        W 6256   0.290   4.537  10.333  0.0643 -0.1824  0.0743
 2206W        W 6257   7.789   6.186   2.711 -0.1217 -0.0165  0.1483
 2207W        W 6258   7.246   7.136  13.401  0.1412 -0.1453  0.1685
 2208W        W 6259   9.311   1.889   4.600  0.1032  0.3596  0.3862
 2209W        W 6260   3.144   5.335   4.695 -0.2040  0.0550  0.0594
 2210W        W 6261   5.721   9.623  13.069 -0.0801  0.0131  0.0527
 2211W        W 6262   5.192   5.301   9.511  0.1160  0.0565  0.1244
 2212W        W 6263   3.063   1.724   1.813  0.1887  0.1287 -0.1587
 2213W        W 6264   3.717   1.566   0.322  0.2941 -0.0382  0.1014
 2214W        W 6265   0.207   3.881  11.564  0.2417 -0.1306  0.2833
 2215W        W 6266   7.626   4.672  10.437 -0.1171  0.4682  0.2323
 2216W        W 6267   9.810   9.285  12.290  0.2254  0.2945  0.0210
 2217W        W 6268   5.689   5.602  11.254 -0.0228 -0.2177  0.0161
 2218W        W 6269   5.002   6.672   1.619 -0.0163  0.1771  0.3063
 2219W        W 6270   3.446  10.132   3.889  0.4791 -0.1221  0.0472
 2220W        W 6271   1.980   7.473   2.869  0.0720 -0.1366 -0.0477
 2221W        W 6272   5.832   6.912  12.507  0.0522  0.0137 -0.2133
 2222W        W 6273   6.261   6.915   0.067 -0.0037  0.2179  0.1117
 2223W        W 6274   8.240   8.372   3.426  0.3367  0.1238  0.1931
 2224W        W 6275   9.659   9.559   2.896 -0.1633  0.1906  0.0423
 2225W        W 6276   6.702   3.609   2.974 -0.0569  0.0215 -0.1304
 2226W        W 6277   6.554   8.124   1.098  0.1816  0.2994  0.1830
 2227W        W 6278  10.069   4.963   1.918 -0.2327 -0.0545  0.0696
 2228W        W 6279   5.725   9.473  12.028 -0.4716 -0.2209  0.1199
 2229W        W 6280   2.606   8.729   9.732 -0.4831 -0.0725  0.0476
 2230W        W 6281   5.317   5.686   3.232 -0.0944 -0.0966  0.1986
 2231W        W 6282   6.585   4.624  11.879  0.3877 -0.1345 -0.5640
 2232W        W 6283   6.199   7.195   2.197  0.1229 -0.0079  0.0083
 2233W        W 6284   9.545   2.721  12.645  0.0214  0.0809  0.2027
 2234W        W 6285   4.871   9.091   0.750 -0.2367  0.2229  0.0214
 2235W        W 6286   9.614   2.406  10.057 -0.0556 -0.1459 -0.2421
 2236W        W 6287   9.002   6.251   1.610  0.0407  0.3816 -0.0226
 2237W        W 6288   7.261   4.202  12.865  0.3585 -0.0292  0.0086
 2238W        W 6289   5.700   0.107  13.236  0.1362  0.1168 -0.1685
 2239W        W 6290   2.236   8.812  11.045  0.5320  0.0585 -0.0512
 2240W        W 6291   1.696   6.690   0.931 -0.3882 -0.0495  0.0564
 2241W        W 6292   1.785   3.161  11.403 -0.0464  0.3051 -0.0183
 2242W        W 6293   3.995   7.783  11.782 -0.1517  0.0262  0.2922
 2243W        W 6294   0.376   9.534  11.720 -0.0821  0.2124  0.3962
 2244W        W 6295   2.160   8.530   2.086 -0.1095 -0.0862 -0.2155
 2245W        W 6296   2.670   5.864   0.812 -0.1900 -0.4392  0.0643
 2246W        W 6297   8.267   5.444   4.889  0.0946  0.2944 -0.1016
 2247W        W 6298   1.827   6.005   1.070 -0.0060  0.0300 -0.0638
 2248W        W 6299   5.341   6.207   4.945 -0.1721 -0.0912  0.1144
 2249W        W 6300   9.913   2.648  11.203  0.0810 -0.0875  0.3359
 2250W        W 6301   4.774   7.969  10.465 -0.0270 -0.2752 -0.0383
 2251W        W 6302   3.202   4.946  12.298  0.1104 -0.1686  0.0634
 2252W        W 6303   2.558   2.371  12.344 -0.1596 -0.1090  0.0327
 2253W        W 6304   2.294   3.767   1.257  0.0384 -0.0632 -0.4145
 2254W        W 6305   2.707   9.286  13.848  0.1488 -0.0908  0.4072
 2255W        W 6306   0.862   4.617  10.826 -0.0642  0.0208 -0.0364
 2256W        W 6307   7.105   3.361  12.158  0.2583  0.0214 -0.1366
 2257W        W 6308   7.969   7.250   1.294 -0.0212  0.3976 -0.0853
 2258W        W 6309   2.421   0.789  10.261  0.1386  0.1725 -0.3830
 2259W        W 6310   1.932   4.168   2.098 -0.0676  0.0876  0.0407
 2260W        W 6311   6.528   8.115  13.771 -0.1577  0.2263 -0.0211
 2261W        W 6312   0.202   7.085   0.567  0.3861 -0.3160  0.0071
 2262W        W 6313   3.611   3.434  13.010  0.0356 -0.0396  0.1786
 2263W        W 6314   3.639   1.079  11.760  0.0019 -0.2353  0.0754
 2264W        W 6315   7.933   9.280   0.274 -0.1457 -0.2434 -0.1359
 2265W        W 6316   1.971   0.524   1.310 -0.1377 -0.0194 -0.0787
 2266W        W 6317   2.353   6.201  11.848  0.1424  0.0310 -0.4055
 2267W        W 6318   2.264   1.962   0.196 -0.0277  0.0430 -0.0662
 2268W        W 6319   4.295   2.618   0.414 -0.1859  0.2730  0.1273
 2269W        W 6320   0.769   4.612  12.931  0.0140  0.1056 -0.0751
 2270W        W 6321   0.891   1.880   9.791 -0.1469  0.0950 -0.0659
 2271W        W 6322   2.362   1.387   0.842 -0.1545  0.0450 -0.2193
 2272W        W 6323   4.109   3.617   3.000 -0.4800 -0.1480  0.1701
 2273W        W 6324   2.074   5.122   3.868  0.0783 -0.1455 -0.0119
 2274W        W 6325   0.305   8.127   4.479  0.0627  0.2930  0.1514
 2275W        W 6326   9.827   6.555  10.183  0.1701  0.0946 -0.1303
 2276W        W 6327   5.647   7.572   8.923  0.2703 -0.0092  0.2218
 2277W        W 6328   1.100   6.317   2.634 -0.2893 -0.2535 -0.1215
 2278W        W 6329   1.748   5.701  11.710 -0.1235 -0.2437 -0.2122
 2279W        W 6330   9.078   4.966   0.965 -0.0697 -0.2179  0.2158
 2280W        W 6331   9.634   4.458  11.644 -0.0627  0.0340  0.1051
 2281W        W 6332   0.374   0.357  12.000  0.1342  0.4129  0.4045
 2282W        W 6333   0.647   7.340   1.319  0.0685 -0.2473  0.2739
 2283W        W 6334   7.782   5.138  10.076  0.0026 -0.2113 -0.1360
 2284W        W 6335   1.939   2.275   3.751  0.2991 -0.1860 -0.1984
 2285W        W 6336   5.563   8.024   3.094 -0.4452 -0.2762  0.0169
 2286W        W 6337   6.677   8.961  10.418 -0.2305 -0.1131  0.0174
 2287W        W 6338   7.318   9.418   9.828  0.3114  0.0321 -0.2344
 2288W        W 6339   4.104   7.525   0.887  0.0716 -0.0997 -0.0220
 2289W        W 6340   3.935   0.304   1.613  0.4048  0.1250  0.3308
 2290W        W 6341   5.183   2.920   4.281 -0.2500 -0.2929 -0.1063
 2291W        W 6342   0.979   9.346   9.491 -0.2395 -0.0302  0.4037
 2292W        W 6343   2.271   5.571   5.264 -0.3593 -0.0247  0.1733
 2293W        W 6344   6.506   7.718   9.372  0.0152  0.0197 -0.3088
 2294W        W 6345   2.435   4.163   0.999  0.0926 -0.0741 -0.0442
 2295W        W 6346   2.548   8.922   2.747  0.0602  0.1778  0.1062
 2296W        W 6347   5.847   0.776   9.754  0.2095 -0.5479  0.3039
 2297W        W 6348   6.529   1.022  13.539  0.0397 -0.2152  0.1667
 2298W        W 6349   2.946   2.718  12.702  0.0984 -0.1903 -0.1014
 2299W        W 6350   2.690   9.095  11.620  0.5814 -0.3440 -0.2572
 2300W        W 6351   2.152   9.773   2.337  0.3318 -0.0035  0.1002
 2301W        W 6352   7.181   1.407   1.300 -0.1164  0.0706  0.2840
 2302W        W 6353   1.792   0.713   0.810 -0.1439  0.4078 -0.1299
 2303W        W 6354   5.224   7.581   2.155 -0.2224  0.0280  0.0563
 2304W        W 6355   9.514   6.513   4.026  0.0254  0.1698 -0.0429
 2305W        W 6356   6.393   1.889  10.244  0.0301 -0.1337 -0.3606
 2306W        W 6357   5.943   6.300   1.176 -0.2653  0.0897 -0.0420
 2307W        W 6358   0.874   6.215   9.582  0.0605  0.3368  0.0704
 2308W        W 6359   4.085   6.713   5.702  0.1624  0.0837  0.0249
 2309W        W 6360   4.333   7.911  12.158  0.0319  0.1129  0.0536
 2310W        W 6361   6.743   4.020  10.871 -0.1989  0.2563 -0.1832
 2311W        W 6362   4.334   7.313  10.941  0.3218  0.2902  0.1004
 2312W        W 6363   4.464   4.162   4.923  0.0028  0.0335  0.3125
 2313W        W 6364   4.732   0.355   9.893  0.1403  0.0983 -0.1383
 2314W        W 6365   2.171   5.433   0.415 -0.1044  0.1976  0.2743
 2315W        W 6366   7.520   1.937   9.516 -0.3542 -0.1728 -0.0824
 2316W        W 6367   2.375   8.269  10.935 -0.0384  0.2906 -0.2812
 2317W        W 6368   2.302   2.571   4.766 -0.0302  0.0279 -0.2074
 2318W        W 6369   8.341   1.950   2.245  0.5196  0.0488 -0.3612
 2319W        W 6370   4.394   4.717  13.539  0.2211 -0.1943  0.2747
 2320W        W 6371   9.280   5.655   3.804  0.0829  0.0793  0.1569
 2321W        W 6372   7.513   1.638  13.382  0.0483 -0.1637  0.2373
 2322W        W 6373   7.146   0.531   0.154 -0.1255 -0.5732  0.3364
 2323W        W 6374   3.704   1.593  11.774 -0.1781 -0.1139 -0.2800
 2324W        W 6375   0.650   0.696  12.801 -0.0824 -0.0028  0.1624
 2325W        W 6376   2.705   2.633  10.461 -0.1867 -0.3527 -0.0315
 2326W        W 6377   8.015   8.753  13.446 -0.0386  0.0902  0.1469
 2327W        W 6378   6.965   0.321   5.077 -0.2029  0.0574  0.0438
 2328W        W 6379   0.778   7.791   1.144  0.1673  0.0564  0.1625
 2329W        W 6380   6.348   7.413  13.240 -0.3716  0.1402  0.0814
 2330W        W 6381   4.317   9.348  13.035 -0.0740 -0.1908  0.3208
 2331W        W 6382   2.949   7.005   3.490  0.3169 -0.1693  0.2632
 2332W        W 6383   7.655   9.053  10.195  0.1540 -0.0701 -0.0877
 2333W        W 6384   6.735   4.377   4.819  0.0449 -0.0734 -0.0125
 2334W        W 6385   6.859   2.875   1.634 -0.0821 -0.1289 -0.0874
 2335W        W 6386   2.219   9.826   4.292 -0.0098 -0.3701  0.2157
 2336W        W 6387   8.304   2.976   5.119 -0.3531 -0.0692 -0.1773
 2337W        W 6388   5.839   0.017   1.150 -0.0012  0.0283 -0.1932
 2338W        W 6389   4.975   3.258   8.905 -0.1024 -0.0586 -0.0846
 2339W        W 6390   1.306   5.838   0.128  0.2742  0.2465  0.0141
 2340W        W 6391   0.568   8.136   3.675 -0.0946  0.2339  0.2065
 2341W        W 6392   5.885   6.384   9.935  0.1359 -0.1424 -0.0290
 2342W        W 6393   0.284   7.295   2.575  0.1258 -0.1567  0.0405
 2343W        W 6394   6.883   9.731  12.886 -0.0775  0.2083  0.3192
 2344W        W 6395   8.337   6.947  10.477 -0.0196 -0.1191  0.0731
 2345W        W 6396   2.339   1.710  11.358  0.0475 -0.0473  0.1247
 2346W        W 6397   0.086   7.716  12.864  0.0033 -0.0806  0.3150
 2347W        W 6398   3.267   1.535   4.695 -0.1504 -0.4471 -0.0924
 2348W        W 6399   2.999   2.398   3.949  0.0106 -0.4624  0.3338
 2349W        W 6400   2.584   8.251   3.601 -0.1166  0.1087 -0.0535
 2350W        W 6401   1.009   6.798  12.985  0.0616 -0.0801  0.0287
 2351W        W 6402   4.959   2.458  13.171 -0.1843  0.3302 -0.1500
 2352W        W 6403   1.469   6.666   2.778 -0.2813 -0.0921 -0.0641
 2353W        W 6404   7.424   8.958   1.191  0.0246  0.1650 -0.3267
 2354W        W 6405   2.069   2.020  11.782 -0.2451 -0.1187 -0.0524
 2355W        W 6406   4.328   4.914  12.469 -0.3175 -0.2298  0.4909
 2356W        W 6407   7.676   5.095   2.533 -0.0437 -0.1195  0.0876
 2357W        W 6408   3.471   5.409  11.598  0.0849  0.1331  0.0994
 2358W        W 6409   3.044   1.837   9.612  0.4115 -0.0410 -0.0709
 2359W        W 6410   9.888   8.305  10.600  0.1927 -0.0208 -0.0669
 2360W        W 6411   5.723   2.578   4.841  0.1129  0.0081  0.0291
 2361W        W 6412   8.944   1.427   3.454 -0.0621  0.0211 -0.1204
 2362W        W 6413   3.982   3.196   9.993 -0.0700 -0.0485 -0.3325
 2363W        W 6414   9.587   8.267  13.773 -0.0771 -0.1534 -0.1861
 2364W        W 6415   8.285   5.019   9.803  0.2324  0.3314  0.0892
 2365W        W 6416   7.139   7.329   3.203  0.0224  0.0559 -0.1024
 2366W        W 6417   0.755   3.253  10.331 -0.3891  0.0491  0.1786
 2367W        W 6418   9.086   7.193   0.872 -0.1296  0.1603 -0.3008
 2368W        W 6419   5.222   8.487   4.317 -0.1510  0.1587 -0.1345
 2369W        W 6420   1.318   3.573  12.779  0.0970  0.0694  0.1779
 2370W        W 6421   0.126  10.119   2.299 -0.0039 -0.2543  0.1111
 2371W        W 6422   9.300   3.055  12.346  0.0581 -0.2085  0.0986
 2372W        W 6423   0.958   1.089  10.554 -0.1457  0.3820 -0.2028
 2373W        W 6424   9.822   5.625  13.909 -0.1177  0.2005 -0.0307
 2374W        W 6425   8.529   0.833   1.343  0.4912  0.1476 -0.1688
 2375W        W 6426   9.422   0.584   0.497 -0.3137 -0.0178  0.0107
 2376W        W 6427   9.413   4.404   4.411  0.2364 -0.0059  0.0906
 2377W        W 6428   4.402   4.114  11.348  0.0723  0.3517 -0.0334
 2378W        W 6429   6.259   5.045  11.926  0.0412  0.2072 -0.0426
 2379W        W 6430   3.539   2.068  13.424  0.0569  0.0303 -0.1307
 2380W        W 6431   3.360   2.994  12.045  0.0961  0.2432  0.1832
 2381W        W 6432   2.765   7.100  13.497  0.2500  0.0544 -0.3493
 2382W        W 6433   1.076   0.009  12.269  0.1973  0.2362  0.1461
 2383W        W 6434   9.275   9.194   2.184 -0.1476 -0.0586 -0.4667
 2384W        W 6435   2.195   8.484   4.008 -0.0742  0.1724 -0.1622
 2385W        W 6436   4.124   8.935   3.048  0.1304  0.0114  0.0381
 2386W        W 6437   3.675   5.272  12.939  0.1364  0.2308 -0.1753
 2387W        W 6438   6.898   4.130   9.160  0.2617  0.2596 -0.1747
 2388W        W 6439   4.527   0.606  12.145 -0.0479 -0.0440  0.1254
 2389W        W 6440   9.277   0.319   1.591  0.0884  0.0661  0.0133
 2390W        W 6441   5.499   7.204   0.707 -0.2766  0.0785  0.3245
 2391W        W 6442   1.190   4.206   0.039 -0.1773  0.0234 -0.3963
 2392W        W 6443   8.364   8.281   2.509 -0.2454  0.1303 -0.0091
 2393W        W 6444   9.063   9.807  10.574  0.1561 -0.1082 -0.0409
 2394W        W 6445   7.121   3.212  10.201 -0.0048  0.2720 -0.0069
 2395W        W 6446   2.117   9.276  12.962 -0.0221 -0.1053 -0.2388
 2396W        W 6447   2.605   5.475  11.642  0.1528 -0.0140  0.0098
 2397W        W 6448   3.220   2.948  10.900 -0.2411  0.3600 -0.1771
 2398W        W 6449   7.938   0.493   2.618  0.0744 -0.1205 -0.0158
 2399W        W 6450   4.999   0.987   4.589 -0.0470 -0.1729  0.2762
 2400W        W 6451   2.397   5.973   4.386  0.0050 -0.1084 -0.0226
 2401W        W 6452   6.761   9.629   3.428 -0.0827  0.2085 -0.2173
 2402W        W 6453   2.299   2.413  13.571  0.2612  0.0479 -0.2903
 2403W        W 6454   3.742   4.795   3.934 -0.0075 -0.0582  0.0560
 2404W        W 6455   8.491   3.857  10.793 -0.0416  0.2615 -0.1216
 2405W        W 6456   6.139   8.357  13.466 -0.0350  0.0337 -0.2771
 2406W        W 6457   9.325   2.746   0.472 -0.1267  0.1564  0.1933
 2407W        W 6458   5.284   7.952  10.522  0.1059  0.1373  0.5501
 2408W        W 6459   6.047   3.828  13.485 -0.2023  0.0914 -0.0140
 2409W        W 6460   8.879   6.870  10.340  0.1515 -0.0120  0.0845
 2410W        W 6461   0.556   1.211  10.852  0.0552  0.0897 -0.1255
 2411W        W 6462   5.291   1.919   4.392 -0.0162  0.0028  0.0717
 2412W        W 6463   7.127   8.875  10.588 -0.0370  0.2268  0.1334
 2413W        W 6464   0.373   2.725   3.333  0.2489  0.3640 -0.1058
 2414W        W 6465   7.599   1.177   0.229  0.1272  0.1380  0.1674
 2415W        W 6466   7.398   4.884   2.883 -0.1988  0.0060  0.2412
 2416W        W 6467   7.136   5.427   2.741  0.1738 -0.1343  0.3398
 2417W        W 6468   7.229   6.214   3.392 -0.3814 -0.0939 -0.2042
 2418W        W 6469   1.133   0.913   0.490  0.1860  0.1316 -0.0880
 2419W        W 6470   6.330   3.428   2.248  0.1026  0.3509  0.1678
 2420W        W 6471   5.230   3.789  10.316  0.0144 -0.0444 -0.0513
 2421W        W 6472   3.271   6.220  12.014  0.1570  0.0519  0.0523
 2422W        W 6473   4.265   7.551   4.763  0.2619 -0.2034 -0.0320
 2423W        W 6474   6.900   3.110   9.203 -0.0748 -0.0136  0.1467
 2424W        W 6475   1.578   3.985  11.541  0.0812  0.3154 -0.0934
 2425W        W 6476   3.575   9.094   9.555  0.1273  0.0896 -0.0405
 2426W        W 6477  10.069   0.640   1.958  0.0178 -0.1026 -0.3687
 2427W        W 6478   3.853   7.984   9.934 -0.0496  0.2901  0.0910
 2428W        W 6479   3.758   7.717   0.569 -0.0240  0.2601 -0.1615
 2429W        W 6480   6.047   4.202   1.436 -0.0017  0.0677  0.1919
 2430W        W 6481   5.527   1.162   9.617  0.0447  0.2916  0.0111
 2431W        W 6482   6.489   5.272   1.751  0.0597  0.0599 -0.0144
 2432W        W 6483   2.848   6.305   5.011  0.4713  0.0821  0.2316
 2433W        W 6484   5.425   1.141   2.546 -0.2711  0.2741  0.0992
 2434W        W 6485   8.064   1.238   1.045  0.2664 -0.1467 -0.0910
 2435W        W 6486  10.173   6.469   1.146  0.1815  0.1498 -0.3160
 2436W        W 6487   6.183   2.086   3.901  0.0577  0.3632 -0.1447
 2437W        W 6488   8.240   1.346  13.300  0.2338 -0.2137  0.0579
 2438W        W 6489   9.031   2.917  11.647 -0.2599  0.0865  0.0020
 2439W        W 6490   9.400   6.689   3.319 -0.0395  0.3287 -0.2158
 2440W        W 6491   6.909   6.255   1.675 -0.2227  0.0519  0.0012
 2441W        W 6492   8.413   0.714  13.728 -0.1611  0.5088  0.0641
 2442W        W 6493   3.552   6.376   2.460  0.1830  0.0827  0.3797
 2443W        W 6494  10.167   2.550  12.158  0.5263 -0.0058  0.2017
 2444W        W 6495   2.641   3.085  12.793  0.0861 -0.2675  0.0999
 2445W        W 6496   5.914   7.495  13.510  0.0597  0.0904  0.1650
 2446W        W 6497   9.205   3.397   1.815  0.0676 -0.2055 -0.1471
 2447W        W 6498   5.855   5.366  13.357  0.1331 -0.1361  0.4638
 2448W        W 6499   7.801   0.136  11.232 -0.2677 -0.1433  0.3615
 2449W        W 6500   7.457   7.680  13.540 -0.3359 -0.0960  0.3300
 2450W        W 6501   2.550   3.110  10.190  0.0459  0.1141 -0.0579
 2451W        W 6502   8.094   3.897   3.195  0.4296  0.0828 -0.1902
 2452W        W 6503  10.023   4.502  12.408 -0.2718 -0.1232 -0.0326
 2453W        W 6504   7.809   9.858  12.940 -0.0350 -0.1857  0.2610
 2454W        W 6505   7.935   3.758  13.681 -0.1646 -0.0281 -0.1918
 2455W        W 6506   5.228   9.633  12.097 -0.0674 -0.4710  0.0301
 2456W        W 6507   2.351   7.391   0.853  0.4291  0.0837  0.0850
 2457W        W 6508   1.637   0.003  11.123  0.2612  0.0487 -0.1052
 2458W        W 6509   2.522   0.395  13.461  0.2004 -0.0876 -0.1013
 2459W        W 6510   8.381   3.703   3.689 -0.2342 -0.1989  0.3774
 2460W        W 6511   0.917   9.411   1.746 -0.1254 -0.0783  0.0641
 2461W        W 6512   1.354   5.990   9.753 -0.1189  0.1189  0.1925
 2462W        W 6513   6.689   2.817   1.188 -0.4998 -0.0307  0.2137
 2463W        W 6514   4.199   9.986  13.812  0.0389  0.0051 -0.0445
 2464W        W 6515   4.564   4.458  12.331  0.4565  0.0153 -0.0754
 2465W        W 6516   2.219   2.592   1.303  0.0027  0.0871  0.3842
 2466W        W 6517   9.512   1.318  12.489 -0.4463  0.2686  0.1757
 2467W        W 6518   9.284   7.390   2.297  0.1230  0.3801  0.0078
 2468W        W 6519   5.037   6.651  10.129  0.0452 -0.3898 -0.2382
 2469W        W 6520   0.706   8.535  12.446  0.0528  0.0589  0.1736
 2470W        W 6521   3.353   7.719   0.244  0.2745 -0.2570 -0.1007
 2471W        W 6522   3.104   7.378  11.996  0.1467  0.0369 -0.2380
 2472W        W 6523   3.257   4.021   1.625  0.5640  0.2377  0.1432
 2473W        W 6524   8.574   1.747   3.295 -0.0484  0.2734  0.3328
 2474W        W 6525   5.919   8.425  13.885 -0.0412 -0.4463  0.1942
 2475W        W 6526   6.510   5.596   9.453 -0.0052  0.1481  0.1088
 2476W        W 6527   0.385   6.376   9.359 -0.2919 -0.1297 -0.0854
 2477W        W 6528   3.340   9.683  12.662 -0.0947  0.0477  0.2716
 2478W        W 6529   4.379   2.856   3.554 -0.2145  0.0246  0.0134
 2479W        W 6530   2.820   6.067  11.222 -0.2609  0.0421  0.2006
 2480W        W 6531   0.862   1.142  13.587 -0.3415  0.2007  0.0096
 2481W        W 6532   2.255   2.172  13.121 -0.2268  0.0788 -0.2921
 2482W        W 6533   4.244   7.312   3.239  0.1482  0.0115  0.1782
 2483W        W 6534   5.801   9.374  13.925  0.0188 -0.3529  0.4245
 2484W        W 6535   5.535   2.260   0.447  0.0110  0.0786  0.4223
 2485W        W 6536   4.279   7.897  12.679  0.2161 -0.0371  0.0779
 2486W        W 6537   2.715   1.400  11.355 -0.1092  0.4980 -0.1097
 2487W        W 6538   0.250   1.987  10.364 -0.0147 -0.1371 -0.0309
 2488W        W 6539   8.683   8.126  10.654 -0.0902  0.0275  0.0396
 2489W        W 6540   5.840   5.308   4.505 -0.2074  0.0049  0.0104
 2490W        W 6541   9.530   3.347   3.572 -0.2198  0.1884  0.0599
 2491W        W 6542   0.669   0.645   1.913 -0.0181 -0.2550  0.0086
 2492W        W 6543   5.102   6.709   3.145 -0.0389 -0.0322  0.0538
 2493W        W 6544   4.114   2.584  13.348  0.1677  0.0480 -0.0289
 2494W        W 6545   6.749   0.424   1.116 -0.0040  0.0003 -0.1849
 2495W        W 6546   2.049   0.770   4.561  0.3134 -0.0791  0.0216
 2496W        W 6547   1.245   0.747  12.936 -0.1921  0.0702 -0.0168
 2497W        W 6548   1.089   3.126   4.477  0.1460  0.0306  0.1566
 2498W        W 6549   9.558   2.669   5.175 -0.0734 -0.0343  0.1321
 2499W        W 6550   3.022   6.827  11.854 -0.0610  0.1804  0.0299
 2500W        W 6551   6.284   6.801   3.359 -0.1552  0.1458  0.0074
 2501W        W 6552   6.953  10.121  11.988  0.1001 -0.1483 -0.1648
 2502W        W 6553   3.602   4.178  13.911 -0.0762  0.2980  0.0003
 2503W        W 6554   2.190  10.182   1.270 -0.1155  0.1766  0.0852
 2504W        W 6555   5.012   4.888   0.172 -0.0321  0.1458  0.0313
 2505W        W 6556   7.524  10.094   3.190  0.1709  0.0879  0.5248
 2506W        W 6557   7.852   4.470   9.098 -0.5678 -0.0080 -0.1720
 2507W        W 6558   9.004   5.462   1.164 -0.1321 -0.2187 -0.0058
 2508W        W 6559   9.524   3.903   4.255  0.0450 -0.1324  0.0324
 2509W        W 6560   9.735   0.865   9.937 -0.3099  0.2207  0.1557
 2510W        W 6561   4.051   2.184  13.000 -0.0178 -0.1183 -0.1369
 2511W        W 6562   1.463   2.937   3.297  0.1758 -0.0720 -0.0633
 2512W        W 6563   8.226   4.031   4.055  0.0030 -0.0643 -0.0973
 2513W        W 6564   0.613   0.111  12.393  0.0025  0.1055  0.1942
 2514W        W 6565   9.626   7.562  12.079  0.0485 -0.1173  0.1214
 2515W        W 6566   4.352   8.298   3.606 -0.0235 -0.0748  0.0587
 2516W        W 6567   9.931   7.172   2.735  0.0404 -0.2475 -0.0287
 2517W        W 6568   2.895   8.598   3.334 -0.4587  0.1919  0.1751
 2518W        W 6569   3.756   0.262   4.115 -0.0496  0.1820 -0.0839
 2519W        W 6570   8.322   2.478  10.844  0.1292  0.0144 -0.0119
 2520W        W 6571   4.411   3.366   1.252 -0.2838 -0.1389  0.0488
 2521W        W 6572   7.740   7.742   0.012 -0.0132  0.3022  0.1130
 2522W        W 6573   6.489   1.656   4.416 -0.0454 -0.1271  0.1457
 2523W        W 6574   6.125   0.420   1.160  0.2512 -0.1238  0.0372
 2524W        W 6575   4.556   4.461   2.611 -0.3164 -0.3381 -0.1291
 2525W        W 6576   7.888   1.513  13.746 -0.1233 -0.0358 -0.0387
 2526W        W 6577   7.125   3.366   4.410 -0.0451  0.1713 -0.0896
 2527W        W 6578   6.236   7.113   4.564  0.1699  0.4155  0.0834
 2528W        W 6579   5.149   6.494   4.589  0.2203 -0.0380  0.1741
 2529W        W 6580   2.593   4.025   4.421 -0.1560 -0.0282  0.0475
 2530W        W 6581   1.508   7.576  13.354  0.1610  0.0107  0.1529
 2531W        W 6582   0.804   2.651  12.893  0.4758  0.1692 -0.0587
 2532W        W 6583   2.037   2.549   2.080 -0.0425 -0.3288 -0.0469
 2533W        W 6584   8.417   9.278   9.529 -0.4899  0.1538 -0.1789
 2534W        W 6585   7.120   9.525  10.819 -0.0565  0.0743  0.1729
 2535W        W 6586   1.946   0.765  11.399  0.2127  0.0461  0.0589
 2536W        W 6587   6.406  10.128   3.086  0.0388  0.0042 -0.5952
 2537W        W 6588   1.015   6.938  12.434  0.1879  0.0280 -0.2542
 2538W        W 6589   7.627   7.808   0.961  0.0394 -0.1231  0.2290
 2539W        W 6590   6.859   1.737   9.271 -0.1626  0.0558 -0.0147
 2540W        W 6591   5.204  10.009  11.323 -0.0059 -0.4164 -0.2313
 2541W        W 6592   8.085   7.721   9.741  0.2253 -0.0726 -0.1094
 2542W        W 6593   4.352   6.926   4.565  0.1500  0.1806 -0.2366
 2543W        W 6594   5.492   3.385   4.119 -0.1024  0.0401 -0.0444
 2544W        W 6595   8.085   2.865   0.809  0.0811  0.0698  0.2311
 2545W        W 6596   1.373   2.646   4.653  0.2298 -0.1961  0.0565
 2546W        W 6597   6.365  10.032   2.608 -0.0647 -0.2702 -0.0078
 2547W        W 6598   6.748   8.449  12.647  0.3630  0.1094 -0.2094
 2548W        W 6599   1.235   9.790  13.050 -0.0244  0.3123  0.1527
 2549W        W 6600   2.642   4.673   9.102  0.1889  0.2514  0.0432
 2550W        W 6601   3.237   4.819  11.048  0.0572  0.3638  0.1554
 2551W        W 6602   6.088   9.412   1.316  0.1789  0.0726 -0.1092
 2552W        W 6603   1.203   4.946   2.274 -0.0038  0.1480 -0.1068
 2553W        W 6604   5.114   4.241   3.938  0.3632 -0.3455  0.0900
 2554W        W 6605   7.280   8.638   3.463 -0.0153  0.1156 -0.0455
 2555W        W 6606   8.617   7.189   1.091  0.0832 -0.0658  0.2628
 2556W        W 6607   5.816   9.113   2.763  0.2593 -0.0705 -0.0798
 2557W        W 6608   1.436   2.678  10.746 -0.0555  0.0202 -0.0723
 2558W        W 6609   0.454   0.281  11.355  0.1178  0.0114 -0.2360
 2559W        W 6610   8.046   8.967   1.270 -0.2054  0.1130  0.1915
 2560W        W 6611   2.509   8.002   4.058  0.0718 -0.1695  0.2026
 2561W        W 6612   2.618   3.090  11.897 -0.1110  0.2596 -0.0919
 2562W        W 6613   7.079   1.127   0.068  0.3833  0.0961 -0.1731
 2563W        W 6614   0.966   2.189  11.763 -0.0769  0.1339 -0.0373
 2564W        W 6615   3.167   0.388   0.294  0.0322  0.0464  0.3734
 2565W        W 6616   3.291   4.541  11.958 -0.0543  0.2388 -0.1143
 2566W        W 6617   7.818   7.808  11.871 -0.4136 -0.2812 -0.3292
 2567W        W 6618   1.278   1.101  11.019  0.0252  0.1433 -0.0920
 2568W        W 6619   8.614   4.817  10.868  0.1564 -0.1860 -0.0191
 2569W        W 6620   8.158   4.203  13.934 -0.1167 -0.2167 -0.1259
 2570W        W 6621   8.267   3.346  13.704  0.0744 -0.1363  0.1054
 2571W        W 6622   1.311   3.040  11.563  0.0386  0.1255 -0.0073
 2572W        W 6623   0.448   7.399   1.787  0.0830  0.1552  0.1375
 2573W        W 6624   3.975   1.116   0.373  0.1115  0.0803 -0.1367
 2574W        W 6625   1.873   7.580  11.570  0.1094  0.2154 -0.0480
 2575W        W 6626   5.663   0.134  11.447 -0.1001  0.1137 -0.1838
 2576W        W 6627   1.582   2.744   9.038  0.1660 -0.0172  0.1623
 2577W        W 6628   5.482   7.194   9.814  0.1282  0.0464 -0.2092
 2578W        W 6629   9.214   3.213   4.610 -0.2512 -0.0940 -0.0131
 2579W        W 6630   0.172   8.729   2.506  0.1118 -0.0792 -0.1118
 2580W        W 6631   2.843   1.096  10.230 -0.2320  0.0006  0.2103
 2581W        W 6632   8.871   7.642  13.580 -0.1105  0.2208 -0.2057
 2582W        W 6633   8.267   0.414   1.587 -0.1384 -0.3097  0.1635
 2583W        W 6634   2.196   4.657  10.987 -0.1623  0.3842 -0.2433
 2584W        W 6635   2.478   9.432   2.593  0.2491 -0.1370 -0.1439
 2585W        W 6636   4.966   5.326   4.020  0.1345  0.0627 -0.3800
 2586W        W 6637   4.913   3.758   1.247 -0.1843 -0.1637  0.4301
 2587W        W 6638   1.476   2.016  10.974 -0.0279 -0.2482  0.3322
 2588W        W 6639   8.363   9.047  13.282  0.1469  0.3827 -0.0506
 2589W        W 6640   2.260   9.438   9.887  0.1248  0.1295 -0.1315
 2590W        W 6641   9.256   9.668  11.521 -0.2161 -0.1687  0.0856
 2591W        W 6642   5.409   0.682  11.014  0.0476 -0.3938 -0.0979
 2592W        W 6643   4.164   5.752   2.985 -0.0891  0.2354 -0.1383
 2593W        W 6644   5.220   2.856   1.676 -0.0964 -0.3385  0.1035
 2594W        W 6645   1.984   9.753  10.189  0.1471  0.1582  0.3369
 2595W        W 6646   4.069   1.159   1.687 -0.0310  0.1265 -0.4654
 2596W        W 6647   7.809   4.688  11.927  0.0563  0.3854  0.0674
 2597W        W 6648   8.355   4.207   8.991  0.1086  0.1136 -0.2950
 2598W        W 6649   5.819   0.339   0.188 -0.0642 -0.2627  0.1352
 2599W        W 6650   5.348   4.381   5.586  0.1692 -0.4049  0.1150
 2600W        W 6651   0.136   0.684  13.396  0.0685  0.3417  0.3626
 2601W        W 6652   1.766   8.845   0.618  0.3897 -0.1049 -0.1614
 2602W        W 6653   4.836   2.124   3.186 -0.2775  0.1340  0.1480
 2603W        W 6654   2.672   4.902   3.638  0.3052  0.4155 -0.2777
 2604W        W 6655   5.974  10.009  12.893 -0.0403  0.0115  0.1275
 2605W        W 6656   7.097   4.974   4.294 -0.1492 -0.1663 -0.2359
 2606W        W 6657   8.875   5.582   2.385  0.0248  0.1711  0.3379
 2607W        W 6658   2.708  10.011   3.103 -0.3854  0.2262 -0.0918
 2608W        W 6659   2.580   9.880   3.572  0.0214  0.3616 -0.1722
 2609W        W 6660   4.343   8.036   9.710  0.2047 -0.2198 -0.3942
 2610W        W 6661   9.329   2.241  12.755  0.3105 -0.0341  0.4707
 2611W        W 6662   9.990   5.938   1.399  0.2056  0.0307 -0.1346
 2612W        W 6663   0.133   8.358   3.501 -0.2112 -0.2393  0.0309
 2613W        W 6664   5.278   2.189   0.967  0.2239  0.1987  0.0696
 2614W        W 6665   6.728   2.345  11.140  0.0948 -0.0599  0.3252
 2615W        W 6666   3.785   2.968  13.538  0.5465  0.2151  0.0639
 2616W        W 6667   7.259   5.299  12.650 -0.0663 -0.1966  0.0196
 2617W        W 6668   6.102   5.764   9.144  0.1073  0.3157 -0.2214
 2618W        W 6669   2.270   0.614   3.522 -0.1052 -0.2466 -0.0555
 2619W        W 6670   7.873   5.588  10.663  0.3141  0.1340  0.0467
 2620W        W 6671   5.806   4.910   4.085 -0.0904  0.0803  0.1244
 2621W        W 6672   2.510   0.256   9.238 -0.0929 -0.0527  0.0240
 2622W        W 6673   9.647   6.695   9.752 -0.3515  0.2378  0.0284
 2623W        W 6674  10.072   5.749   4.210  0.2937  0.0383  0.3348
 2624W        W 6675   6.910   4.057  10.090 -0.3915 -0.1765  0.1162
 2625W        W 6676   5.392   8.115   2.547 -0.2425  0.3546 -0.1162
 2626W        W 6677   4.930   1.667  13.610  0.1360  0.0561  0.1082
 2627W        W 6678   2.069   2.884  13.537  0.1034 -0.1905  0.1584
 2628W        W 6679   8.115   7.430  13.026  0.2934  0.1745  0.0200
 2629W        W 6680   6.133   3.312  11.376 -0.5417 -0.0654 -0.1903
 2630W        W 6681   7.569   7.533   1.379  0.1639  0.2420 -0.1033
 2631W        W 6682   1.932   6.246  11.584 -0.1083  0.4251  0.1774
 2632W        W 6683   6.037   8.531   4.861 -0.1276 -0.4508 -0.0356
 2633W        W 6684   5.189   0.775  13.862 -0.2106 -0.2553  0.1166
 2634W        W 6685   9.649   5.643   1.844 -0.1711  0.0224  0.3722
 2635W        W 6686   3.454   3.403  10.556 -0.2138 -0.1070  0.1411
 2636W        W 6687   7.904   4.627  13.673 -0.0082 -0.0580 -0.0379
 2637W        W 6688   4.824   5.010   4.511  0.0238  0.0048 -0.1443
 2638W        W 6689   4.529   8.924  11.842 -0.2507  0.3402  0.0020
 2639W        W 6690   4.902   1.100   1.045 -0.2538  0.2590  0.2331
 2640W        W 6691   6.050   9.505  11.107 -0.3624  0.5530 -0.1257
 2641W        W 6692   9.629   4.155   1.965 -0.0159 -0.4146 -0.0103
 2642W        W 6693   3.101   8.436   9.727 -0.2469 -0.2496  0.1778
 2643W        W 6694   2.862   0.619   5.645 -0.2451 -0.1253 -0.1739
 2644W        W 6695   5.585   9.716   0.858  0.1420 -0.1045 -0.1826
 2645W        W 6696   5.976   7.931  13.805 -0.1496  0.4269 -0.1093
 2646W        W 6697   5.194   8.290   1.287  0.0523  0.0156  0.0822
 2647W        W 6698   3.425   9.391   2.554  0.3444  0.1504  0.0848
 2648W        W 6699   3.743   2.931   2.327  0.1871 -0.0999  0.0031
 2649W        W 6700   0.564   6.796   3.673 -0.1936  0.0142 -0.0423
 2650W        W 6701   2.767   7.736   2.330  0.3610  0.1384  0.0331
 2651W        W 6702   8.848   8.151  12.739  0.0094  0.2366 -0.2222
 2652W        W 6703   8.347   2.191   9.963  0.0537 -0.0769 -0.0932
 2653W        W 6704   5.482   8.961   9.384 -0.0328 -0.2633 -0.3469
 2654W        W 6705   0.648   1.683  10.641 -0.2268  0.0640 -0.1046
 2655W        W 6706   4.845   0.217   0.408 -0.0412  0.0099  0.1882
 2656W        W 6707   7.944   0.820   1.421 -0.1347  0.1992 -0.4420
 2657W        W 6708   0.376   0.621   0.757 -0.0421 -0.0907 -0.2340
 2658W        W 6709  10.001   0.938   2.641  0.0708  0.1938 -0.1417
 2659W        W 6710   5.249   6.802   1.032 -0.1974  0.0726  0.1645
 2660W        W 6711   8.036   9.601   2.178  0.3044 -0.0703  0.1396
 2661W        W 6712   9.376   9.967   2.687 -0.1751 -0.0646 -0.1535
 2662W        W 6713   2.324   9.600  13.826 -0.3066  0.1189  0.0223
 2663W        W 6714   3.275   7.749   9.148 -0.3272  0.0143  0.1619
 2664W        W 6715   6.279   2.358   8.947  0.3323  0.0247 -0.1143
 2665W        W 6716   2.469  10.170   9.640  0.0113 -0.0347  0.3403
 2666W        W 6717   2.623   7.521   4.304 -0.0843 -0.0386  0.1142
 2667W        W 6718   4.272   5.108  10.266  0.0359  0.0897  0.0768
 2668W        W 6719   3.029  10.007  10.217  0.2675  0.0459 -0.0479
 2669W        W 6720   5.103   5.851  12.332 -0.0852  0.5070  0.0016
 2670W        W 6721   0.891   8.126   1.645 -0.0039 -0.0726 -0.0546
 2671W        W 6722   8.714   6.781  11.187 -0.2880  0.0412 -0.0631
 2672W        W 6723   7.316   4.526   4.228  0.0974  0.0940 -0.3695
 2673W        W 6724   8.610   3.966  11.830 -0.1018  0.1060 -0.2874
 2674W        W 6725   4.882   5.266  11.066 -0.1907  0.0189  0.2238
 2675W        W 6726   7.199   9.786  11.638  0.1106 -0.0696  0.0857
 2676W        W 6727   0.568   1.017   2.900  0.0935 -0.1071 -0.2225
 2677W        W 6728   8.880   8.891   1.583  0.1508 -0.2229  0.1233
 2678W        W 6729   7.251   6.657  13.813 -0.1033  0.1088  0.1922
 2679W        W 6730   8.928  10.165  13.062 -0.2935  0.1721  0.0334
 2680W        W 6731   6.096   7.109   1.743 -0.1653  0.2191 -0.0872
 2681W        W 6732   6.903   3.026   2.893  0.0850 -0.3723 -0.0494
 2682W        W 6733   7.648   3.431   2.947 -0.0836  0.0345  0.2261
 2683W        W 6734   0.879   5.945   0.386  0.1380  0.1178 -0.0047
 2684W        W 6735   2.171   3.593   4.261  0.0031  0.0427 -0.2744
 2685W        W 6736   9.106   9.801   9.750  0.1337 -0.0099  0.2815
 2686W        W 6737   4.501   1.814   3.796  0.1931 -0.1242 -0.1959
 2687W        W 6738   6.868   3.690   4.061 -0.1391 -0.1056 -0.2281
 2688W        W 6739   9.993   9.696   2.101  0.1504 -0.2175 -0.0110
 2689W        W 6740   3.979   5.275   2.951  0.1837 -0.1265  0.1280
 2690W        W 6741   4.918   0.466   2.963  0.0562 -0.1399  0.2422
 2691W        W 6742   6.299   8.822   4.550 -0.1305  0.2704  0.3727
 2692W        W 6743   0.126   3.875  11.019 -0.0521  0.0929 -0.0902
 2693W        W 6744   9.058   8.213   2.092  0.1477 -0.3406 -0.0820
 2694W        W 6745   0.613   4.314   9.610  0.0064  0.0617  0.0489
 2695W        W 6746   6.391   3.257   2.764  0.1048 -0.1737  0.1673
 2696W        W 6747   3.530   5.471   2.774  0.0693 -0.1885 -0.1604
 2697W        W 6748   0.503   7.491  13.478 -0.2514  0.1419  0.3014
 2698W        W 6749   0.770   0.084  11.802  0.2018  0.0556  0.0232
 2699W        W 6750   6.104   3.924  10.035 -0.2285 -0.0252  0.0721
 2700W        W 6751   4.297   4.588  10.967  0.3723 -0.2240 -0.0570
 2701W        W 6752   4.713   2.325   4.892  0.5754 -0.1577 -0.1270
 2702W        W 6753   2.807   5.922   3.670 -0.1834 -0.0530 -0.1516
 2703W        W 6754   6.715   9.413  10.579 -0.2273 -0.1608  0.0272
 2704W        W 6755   6.553   9.467  11.015 -0.1264 -0.3777 -0.2634
 2705W        W 6756   5.111   9.716   1.322  0.2117  0.1486 -0.0833
 2706W        W 6757   0.952   9.433   0.116 -0.2268  0.1354  0.5008
 2707W        W 6758   9.080   6.228   2.986 -0.1097 -0.0015 -0.0676
 2708W        W 6759   2.481   0.580   1.984  0.2635 -0.1624 -0.0730
 2709W        W 6760   4.737   2.927  13.171 -0.0068 -0.1158 -0.0480
 2710W        W 6761   2.811   1.664  11.803 -0.1331 -0.1030 -0.2435
 2711W        W 6762   6.811   8.779   3.506 -0.0487 -0.1678  0.1698
 2712W        W 6763   9.725   0.130  10.903  0.0810 -0.0645  0.1732
 2713W        W 6764   5.740   3.137   0.339  0.0985 -0.0462 -0.0463
 2714W        W 6765   7.861   2.728  10.715  0.0677  0.4659  0.3059
 2715W        W 6766   2.601   1.748   0.537 -0.2789  0.2337  0.0716
 2716W        W 6767   1.941   3.766   1.656 -0.1534  0.1135  0.1688
 2717W        W 6768   2.142   7.785  10.059 -0.3749 -0.1109 -0.0866
 2718W        W 6769   3.937   4.951  11.536 -0.2988  0.1701  0.2838
 2719W        W 6770   2.612   0.189  11.776  0.3071  0.1171 -0.1988
 2720W        W 6771   6.352   2.436  11.542 -0.1218  0.0321  0.0918
 2721W        W 6772   0.222   2.649  13.372 -0.0440  0.4051 -0.3183
 2722W        W 6773   2.326   3.056   9.757 -0.0255 -0.1459 -0.1423
 2723W        W 6774   8.314   2.952  10.597 -0.1032  0.1245  0.0259
 2724W        W 6775   3.506   1.586   2.161 -0.0469 -0.1757 -0.1965
 2725W        W 6776   7.131   1.323   2.298 -0.1334 -0.0695  0.1661
 2726W        W 6777   7.677   3.529   8.940  0.2023 -0.3598 -0.0150
 2727W        W 6778   0.023   4.701   0.984 -0.1817  0.2228  0.1830
 2728W        W 6779   9.671   4.348  11.004 -0.0531  0.0509  0.2546
 2729W        W 6780   7.593   8.670   2.787  0.4012 -0.3209  0.2454
 2730W        W 6781   4.591   0.110  12.144 -0.0093 -0.2124  0.1509
 2731W        W 6782   2.059   2.666  13.134 -0.0130 -0.3730  0.3092
 2732W        W 6783   5.850   4.812   0.686 -0.2750 -0.0060  0.2482
 2733W        W 6784   9.930   1.293  13.341 -0.0570  0.0792  0.0868
 2734W        W 6785   3.582   2.536   2.041  0.2493 -0.1743  0.0389
 2735W        W 6786   6.922   8.443  13.900 -0.2003 -0.2685 -0.2801
 2736W        W 6787   3.696   9.991  11.203  0.1266  0.1558 -0.0189
 2737W        W 6788   5.199   1.570   2.350 -0.0294  0.1296  0.0252
 2738W        W 6789  10.125   1.019   9.433 -0.0679  0.0929  0.4152
 2739W        W 6790   8.682   3.104   4.788 -0.2972  0.0309 -0.2064
 2740W        W 6791  10.002   7.849   0.080  0.2403 -0.2323  0.1302
 2741W        W 6792   1.200   4.258  12.561  0.2254 -0.0194  0.0066
 2742W        W 6793   1.144   5.715  10.163  0.3870 -0.0719  0.1972
 2743W        W 6794   1.232   6.719   1.000  0.0408 -0.2659 -0.0480
 2744W        W 6795   1.150   8.914  10.322 -0.0551 -0.2993 -0.1177
 2745W        W 6796   9.201   4.933  11.652  0.1006 -0.3002 -0.3115
 2746W        W 6797   7.152   2.916   3.800  0.1523  0.0944  0.2375
 2747W        W 6798   2.267   7.766   9.511  0.0859 -0.0097 -0.1728
 2748W        W 6799   2.017   6.012   2.132 -0.3197 -0.0290 -0.1485
 2749W        W 6800   4.687   3.084   2.567  0.0426  0.1561  0.0096
 2750W        W 6801   2.717   1.319   1.957 -0.0440  0.0549  0.2182
 2751W        W 6802   6.494   7.019  11.000 -0.0420  0.1672 -0.0923
 2752W        W 6803   9.135   1.486  13.127 -0.0655  0.0765  0.1048
 2753W        W 6804   5.940   5.519   1.915 -0.3432 -0.0393 -0.1010
 2754W        W 6805   6.384   8.519   1.708 -0.2051 -0.2052  0.0871
 2755W        W 6806   0.694   3.306   1.952  0.3174 -0.2414 -0.0823
 2756W        W 6807   4.908   5.548   2.273 -0.0631 -0.2185 -0.4585
 2757W        W 6808   4.773   2.454   2.584 -0.1535  0.0481 -0.1151
 2758W        W 6809   2.431   2.196   2.546 -0.1505 -0.1405 -0.0079
 2759W        W 6810   7.176   0.631   9.961  0.0225 -0.3723  0.1520
 2760W        W 6811   0.128   7.739  11.117  0.2182 -0.1734  0.0812
 2761W        W 6812   3.135   1.563  10.497  0.0340  0.1412 -0.1116
 2762W        W 6813   3.865   1.636   1.655 -0.2517  0.1908 -0.3009
 2763W        W 6814   2.683   3.514   9.511  0.0583  0.0112  0.1026
 2764W        W 6815   6.861   6.215   0.258  0.1211  0.0855 -0.0028
 2765W        W 6816   7.803   2.197   1.546 -0.0357  0.1380  0.0252
 2766W        W 6817   1.540   0.571   4.319 -0.0687 -0.0955 -0.0902
 2767W        W 6818   9.882   2.745   0.383  0.3445  0.0169 -0.0438
 2768W        W 6819   7.962   8.698   2.489 -0.2374 -0.2067 -0.0848
 2769W        W 6820   4.416   5.317   5.381 -0.1638 -0.1509  0.0399
 2770W        W 6821   9.156   6.952  12.931 -0.2862 -0.0106  0.1030
 2771W        W 6822   2.398   2.753   0.087 -0.0133 -0.0430  0.0150
 2772W        W 6823   8.199   4.288   2.847  0.0289  0.0977  0.2248
 2773W        W 6824   9.032   5.154   3.857  0.0716 -0.0798  0.3278
 2774W        W 6825   5.212   5.766  13.959  0.1541 -0.0647  0.3541
 2775W        W 6826   2.108   6.052  12.645 -0.1641 -0.3267  0.0057
 2776W        W 6827   5.189   2.876   0.933  0.3374  0.0077  0.0735
 2777W        W 6828   5.005  10.002  12.289 -0.2568  0.1087  0.0456
 2778W        W 6829   3.248   2.228  11.273 -0.1658 -0.0475 -0.1735
 2779W        W 6830   9.375   2.556  10.987 -0.1191 -0.0262  0.1913
 2780W        W 6831   3.447   8.947   1.737  0.0792  0.0230 -0.1846
 2781W        W 6832   1.585   6.880   5.409  0.1022  0.1432 -0.1417
 2782W        W 6833   0.919   2.456  12.440  0.1248  0.1408  0.0584
 2783W        W 6834   3.817   3.887   1.876  0.1381  0.1582 -0.1996
 2784W        W 6835   1.154   0.226   4.264 -0.2025  0.0220 -0.1545
 2785W        W 6836   1.467   3.750   0.363  0.3218  0.0387  0.2712
 2786W        W 6837   4.519   9.496   2.557 -0.1154  0.0038 -0.1250
 2787W        W 6838   3.669   9.091   3.036 -0.1987 -0.2214  0.0154
 2788W        W 6839   0.541   5.514   3.581 -0.1717 -0.1073  0.5252
 2789W        W 6840   9.317   2.155  11.889  0.0229 -0.1577 -0.3373
 2790W        W 6841   5.075   4.367  12.126  0.1801 -0.0288 -0.0662
 2791W        W 6842   4.429   4.002  12.130  0.1158  0.3100 -0.1597
 2792W        W 6843   8.927   0.655   2.797 -0.1240 -0.1240 -0.1617
 2793W        W 6844   3.004   1.459   2.356  0.0739  0.0280  0.2860
 2794W        W 6845   1.644   3.828  13.424  0.0081 -0.1042  0.0026
 2795W        W 6846   7.618   6.620  11.397 -0.1126 -0.4438  0.0771
 2796W        W 6847   1.322   9.939   4.467 -0.2545 -0.0240  0.1099
 2797W        W 6848   0.576   1.288  11.493 -0.3289  0.0041  0.2011
 2798W        W 6849   6.153   4.586   1.066  0.2412 -0.0435  0.3632
 2799W        W 6850   7.687   6.197  12.362  0.0260  0.0065 -0.3089
 2800W        W 6851   8.261   9.801  13.232 -0.0325  0.2094 -0.1381
 2801W        W 6852   2.282   3.394   1.771  0.1594  0.1650  0.2827
 2802W        W 6853   0.458   2.444  10.413  0.0313  0.1803 -0.0221
 2803W        W 6854   3.862   0.969  10.441 -0.1401  0.2141 -0.2623
 2804W        W 6855   0.561   2.967   2.918  0.2048  0.1142  0.3901
 2805W        W 6856   6.081   4.784  10.894 -0.1479  0.1920 -0.0236
 2806W        W 6857   9.148  10.163  12.501 -0.1839 -0.0715  0.4643
 2807W        W 6858   0.327   3.611   4.993 -0.0155  0.3019 -0.2642
 2808W        W 6859   9.049   4.165   2.838  0.1100  0.0172  0.0574
 2809W        W 6860   3.513   6.133   1.921 -0.0395  0.2144 -0.0423
 2810W        W 6861   9.511   1.948  10.361 -0.0404 -0.1055 -0.0905
 2811W        W 6862   8.861   8.601  11.997 -0.0804 -0.0943  0.1637
 2812W        W 6863   9.777   3.754  13.069  0.1280  0.0133 -0.0175
 2813W        W 6864   1.589   1.799   4.798 -0.1153 -0.0043 -0.1449
 2814W        W 6865   7.525   4.847   3.784  0.1445 -0.2573 -0.0051
 2815W        W 6866   6.791   4.951  10.450 -0.0201  0.0300 -0.1420
 2816W        W 6867   6.185   5.753   1.581  0.5384  0.0015  0.2386
 2817W        W 6868   2.213   1.166   3.675  0.1275  0.3086 -0.1664
 2818W        W 6869   4.956   1.249   2.662  0.1370  0.3936 -0.0460
 2819W        W 6870   6.555   3.811   0.149  0.0674  0.1051 -0.0002
 2820W        W 6871   4.480   3.307  10.496 -0.3170  0.0203  0.0212
 2821W        W 6872   7.087   5.966  10.489  0.1690  0.1463 -0.3566
 2822W        W 6873   2.760   6.156   3.228 -0.0983  0.0640  0.1867
 2823W        W 6874   6.165   8.717   2.730 -0.1924  0.1041  0.2355
 2824W        W 6875   7.093   3.963  13.338 -0.3266  0.1364 -0.0847
 2825W        W 6876   2.745   5.055   1.231  0.2836  0.0649 -0.2456
 2826W        W 6877   4.282   9.520  10.711 -0.1973  0.1054  0.0848
 2827W        W 6878   1.754   9.381  11.579 -0.2276 -0.3161 -0.3258
 2828W        W 6879   1.167   3.487   2.051  0.1968 -0.0295 -0.0000
 2829W        W 6880   9.593   4.976   1.761  0.1757 -0.1773 -0.4290
 2830W        W 6881   3.278   8.859  13.892  0.0827 -0.1988 -0.1718
 2831W        W 6882   8.901   1.879  13.387 -0.3512 -0.2339 -0.1038
 2832W        W 6883   4.497   3.502   4.111  0.2446  0.2438 -0.0083
 2833W        W 6884   3.038   1.385   0.113 -0.0450  0.0909  0.0106
 2834W        W 6885   5.574   7.631   4.604  0.0677 -0.0110 -0.4837
 2835W        W 6886   6.973   9.526  13.396  0.1719  0.2665  0.0064
 2836W        W 6887   8.479   2.664   1.086  0.1606  0.3725  0.0199
 2837W        W 6888   5.032   9.174   9.249  0.1110 -0.0715 -0.3531
 2838W        W 6889   5.412   8.701  12.402 -0.1424  0.1001 -0.1425
 2839W        W 6890   8.826   3.793  13.024  0.0940 -0.2007 -0.0944
 2840W        W 6891   9.793   2.401   9.580 -0.2905 -0.1211 -0.0418
 2841W        W 6892   2.986   5.249  10.711  0.4421 -0.0726 -0.1150
 2842W        W 6893   8.045   0.117   3.329  0.4324  0.0725 -0.1342
 2843W        W 6894   4.091   8.385   2.120 -0.1530  0.2109 -0.0255
 2844W        W 6895   4.977   5.727   9.903 -0.1995 -0.0661 -0.2039
 2845W        W 6896   9.849   6.538   2.573  0.1508  0.1280 -0.0782
 2846W        W 6897   3.536   5.266   0.642  0.0325 -0.1733 -0.0722
 2847W        W 6898   1.869   1.845  11.194  0.2159  0.4302  0.0212
 2848W        W 6899   2.390   2.846  12.366  0.0388  0.0241  0.0786
 2849W        W 6900   9.897   9.193  13.137  0.1222  0.1427  0.0643
 2850W        W 6901   5.088   0.434   1.558 -0.2542  0.1017  0.2296
 2851W        W 6902   7.037   3.958   0.334  0.1952  0.2192 -0.0386
 2852W        W 6903   4.436   5.432   2.140  0.0583  0.6087 -0.1712
 2853W        W 6904   8.795   8.243   2.766 -0.1385 -0.1089 -0.0236
 2854W        W 6905   0.463   2.167   9.932  0.1674 -0.1149  0.3709
 2855W        W 6906   3.813   6.542  12.444 -0.0754  0.1377  0.0430
 2856W        W 6907   2.509   6.776   0.682 -0.2937  0.1780 -0.4449
 2857W        W 6908   5.111   6.372  13.609  0.6003  0.0201 -0.1032
 2858W        W 6909   5.814   9.516   9.740  0.0941 -0.2730  0.0571
 2859W        W 6910   7.629   3.596   3.489 -0.0282  0.0403 -0.1503
 2860W        W 6911   0.278   2.354   8.856 -0.0640 -0.1782 -0.2694
 2861W        W 6912   2.415   8.060   1.395 -0.0705 -0.1380 -0.2247
 2862W        W 6913   9.880   4.575  10.465 -0.0116 -0.2529  0.0882
 2863W        W 6914   7.780   7.508   2.205 -0.1327 -0.0799  0.0024
 2864W        W 6915   2.254   4.911   0.522 -0.1716  0.1305 -0.0783
 2865W        W 6916   9.768   2.790  12.187  0.0171  0.0868  0.0737
 2866W        W 6917   4.869   9.142  13.052  0.0160 -0.0337  0.1593
 2867W        W 6918  10.065   1.213   1.152 -0.1620 -0.3262  0.0532
 2868W        W 6919   1.771   3.468   2.524 -0.0173  0.0362  0.1498
 2869W        W 6920   1.565   9.236   0.899  0.2082  0.2428 -0.2117
 2870W        W 6921   3.283   1.402   9.456  0.0227 -0.0523 -0.0423
 2871W        W 6922   2.417   3.892   1.845 -0.1862  0.0340  0.4538
 2872W        W 6923   5.445   8.356  13.868  0.3172 -0.0795 -0.2291
 2873W        W 6924   4.062   3.700   9.684  0.0186 -0.2077  0.0629
 2874W        W 6925  10.122   2.565   3.858 -0.2328  0.2418 -0.3775
 2875W        W 6926   8.721   0.556   2.184 -0.0275 -0.1302 -0.0308
 2876W        W 6927   6.487  10.151  12.843 -0.0543  0.0758  0.0397
 2877W        W 6928   3.626   7.725  12.889  0.1340  0.0107  0.0779
 2878W        W 6929  10.141   2.070  11.531  0.0153 -0.0192 -0.3009
 2879W        W 6930   9.669   5.294   4.557 -0.1599  0.4030 -0.1697
 2880W        W 6931  10.039   0.324  13.210 -0.0526 -0.1313 -0.1923
 2881W        W 6932   1.593   6.282  12.950 -0.1908  0.1175 -0.0224
 2882W        W 6933   5.128   4.135  12.940 -0.0064 -0.0358  0.3116
 2883W        W 6934   3.193   9.767   2.291  0.1404 -0.2438 -0.0057
 2884W        W 6935   3.597   1.211   1.561 -0.0578 -0.1752  0.2030
 2885W        W 6936   1.618   4.108   2.626  0.0809  0.3582 -0.0760
 2886W        W 6937   6.867   6.955  11.533 -0.2876  0.1546  0.1269
 2887W        W 6938   9.508   2.051  10.854  0.2138  0.1455  0.2202
 2888W        W 6939   1.185   3.565  10.936 -0.1832 -0.0166  0.2338
 2889W        W 6940   5.686   1.096   1.369 -0.0771  0.3041  0.1022
 2890W        W 6941   5.163   5.115   2.338 -0.1356  0.1164  0.0015
 2891W        W 6942   5.411   7.585   3.286  0.0087  0.1922  0.1330
 2892W        W 6943   0.978   6.488   3.514 -0.1350 -0.1079 -0.1407
 2893W        W 6944   5.868   1.027   9.174 -0.2297  0.0024 -0.0619
 2894W        W 6945   6.603   9.826  13.552 -0.0001  0.0601  0.0313
 2895W        W 6946   9.110   7.740   2.712 -0.0371 -0.3673  0.0129
 2896W        W 6947   6.866   5.094   9.941 -0.1502  0.0033 -0.3277
 2897W        W 6948   7.331   0.418  13.071  0.0943  0.0128  0.1467
 2898W        W 6949   2.796   2.904   3.921 -0.0677 -0.2184 -0.1996
 2899W        W 6950   3.030   6.160  12.500  0.2268 -0.0220  0.2056
 2900W        W 6951   4.042   9.722   2.577  0.3324 -0.1510 -0.2167
 2901W        W 6952   4.429   5.222   3.120 -0.4923  0.0271  0.0378
 2902W        W 6953   4.405   0.021   9.704 -0.0154  0.2206 -0.0551
 2903W        W 6954   4.637   1.933  12.178  0.2701 -0.3019  0.0418
 2904W        W 6955   8.631   6.446  13.742 -0.0337  0.2802  0.0461
 2905W        W 6956   0.633   3.748  11.107 -0.0511 -0.1126 -0.0120
 2906W        W 6957   7.216   1.824   0.844 -0.0708  0.2696  0.1852
 2907W        W 6958   7.193   3.157   1.822 -0.3916 -0.2964  0.2115
 2908W        W 6959   5.491   3.600   3.189 -0.0415  0.0819 -0.1493
 2909W        W 6960  10.005   0.490  12.168  0.1773  0.0921  0.0053
 2910W        W 6961   5.471   0.153   1.565  0.1376  0.0153 -0.1563
 2911W        W 6962   2.469   9.572  12.802  0.1314  0.2699 -0.0102
 2912W        W 6963   6.483   2.582  10.720 -0.3251  0.0423 -0.0145
 2913W        W 6964   3.367   6.612   5.105  0.1453 -0.2718 -0.3189
 2914W        W 6965   2.714   0.043   4.607  0.1310  0.1524 -0.0723
 2915W        W 6966   5.643   4.755   1.559 -0.1827  0.1589 -0.2125
 2916W        W 6967   7.038   2.646   2.557 -0.0263 -0.0501 -0.2749
 2917W        W 6968   8.073   3.170  12.974  0.4206  0.0016 -0.2612
 2918W        W 6969   0.126   8.829   0.317  0.2857  0.0593 -0.0606
 2919W        W 6970   4.150   1.496   4.637 -0.1132 -0.1776 -0.1150
 2920W        W 6971   7.735   2.161   0.653 -0.0679 -0.0733  0.0106
 2921W        W 6972   4.749   6.250   4.899 -0.2528 -0.0711  0.0857
 2922W        W 6973   8.097   6.572   0.449  0.1415  0.0290  0.2956
 2923W        W 6974   5.846  10.118   4.068 -0.5207 -0.0292  0.2905
 2924W        W 6975   0.619   3.294   9.670  0.1993 -0.0214  0.4194
 2925W        W 6976   7.721   1.046  12.566  0.2019  0.2789  0.2241
 2926W        W 6977   3.090   6.117   1.058  0.0112 -0.2134 -0.0802
 2927W        W 6978   3.530   6.530   4.327  0.3208 -0.0532 -0.1562
 2928W        W 6979   0.923   3.323   2.849 -0.1590 -0.0702  0.6998
 2929W        W 6980   3.099   4.591  13.109 -0.1060 -0.0966 -0.1420
 2930W        W 6981   8.444   7.987  10.040  0.1385  0.1046  0.6846
 2931W        W 6982   2.097   6.760  10.985  0.1053 -0.0392 -0.0081
 2932W        W 6983   9.914   6.934   1.214  0.2667  0.4425 -0.1646
 2933W        W 6984   3.724   1.749   2.972 -0.0039 -0.0645 -0.0001
 2934W        W 6985   4.193   3.172   3.898  0.1310  0.1209 -0.1240
 2935W        W 6986   7.207   8.478   4.184  0.1872  0.0393 -0.0617
 2936W        W 6987   5.275   5.727   5.272 -0.4290  0.0515 -0.0541
 2937W        W 6988   8.441   4.460   4.637 -0.2028 -0.0833 -0.2870
 2938W        W 6989   0.477   8.592  12.913  0.3408 -0.0937 -0.0649
 2939W        W 6990   1.224  10.168   9.991  0.2052  0.0410  0.0632
 2940W        W 6991   8.547   3.027   0.026  0.1122 -0.4312 -0.1315
 2941W        W 6992   7.125   5.263  10.714  0.1126 -0.1514 -0.1478
 2942W        W 6993   4.138   5.262   8.860  0.0258  0.1536 -0.1951
 2943W        W 6994   6.341   4.591   1.639 -0.0321 -0.0273  0.3171
 2944W        W 6995   0.956   1.584  12.803 -0.0317 -0.1809  0.1078
 2945W        W 6996   3.900   1.258  13.156 -0.2284 -0.3437  0.0023
 2946W        W 6997   6.789   0.050  10.386 -0.0782 -0.1860 -0.0943
 2947W        W 6998   1.820   6.403  10.275 -0.0168  0.4467 -0.3583
 2948W        W 6999   1.935   5.732   4.164 -0.0546  0.1288  0.2485
 2949W        W 7000   4.138   0.298  11.770 -0.0396  0.1605  0.0449
 2950W        W 7001   7.249   0.315  12.423  0.0942 -0.1649  0.1630
 2951W        W 7002   4.332   4.172   9.663 -0.0756 -0.0766  0.0530
 2952W        W 7003   0.322   4.794   2.044  0.0511 -0.1786 -0.1036
 2953W        W 7004   2.936   6.592  10.287 -0.0389 -0.2672  0.2572
 2954W        W 7005   9.893   9.413  10.854 -0.0443  0.1222  0.1719
 2955W        W 7006   3.637   6.306   0.471 -0.0841  0.1127 -0.0107
 2956W        W 7007   1.136   6.084   4.295  0.2495  0.0250  0.3188
 2957W        W 7008   9.701  10.154   3.028  0.1907  0.1026 -0.2438
 2958W        W 7009   5.622   2.331  12.560 -0.2713 -0.0731  0.1102
 2959W        W 7010   0.934   6.502   1.486 -0.2588 -0.0616 -0.0928
 2960W        W 7011   2.046   9.786   3.786 -0.0027 -0.1726  0.1705
 2961W        W 7012   0.932   3.942   1.631 -0.1532  0.2848 -0.3708
 2962W        W 7013   5.291   3.443   5.260 -0.0358 -0.5708 -0.0114
 2963W        W 7014   2.592   5.745   0.317  0.2724 -0.1637  0.1655
 2964W        W 7015   7.899   9.302  13.448 -0.0823  0.0348  0.1451
 2965W        W 7016   4.908   5.583   4.467 -0.2456 -0.0209  0.1273
 2966W        W 7017   4.556   2.568  13.608 -0.3262 -0.1151  0.3236
 2967W        W 7018   8.962   6.774  13.925  0.4992  0.0886  0.2820
 2968W        W 7019   0.270   1.887   1.314 -0.2635  0.0291 -0.2084
 2969W        W 7020   2.029   8.535   3.458 -0.0612  0.2000 -0.1399
 2970W        W 7021   1.429   4.533   5.909  0.0327 -0.1061 -0.0627
 2971W        W 7022   8.366   6.629  10.908 -0.1301  0.3263 -0.3207
 2972W        W 7023   1.717   8.378   0.900 -0.1170  0.0222 -0.1503
 2973W        W 7024  10.183   1.506  12.039  0.3170 -0.0296 -0.1759
 2974W        W 7025   5.360   4.189   3.367  0.3598 -0.0939 -0.0564
 2975W        W 7026   3.607   7.823   2.674 -0.1258  0.2501 -0.1448
 2976W        W 7027   6.969   6.726   2.784  0.0056  0.0623  0.0719
 2977W        W 7028   4.260   0.801   3.255  0.0757  0.0371 -0.1473
 2978W        W 7029   3.870   8.136  10.778  0.0526 -0.1780 -0.1394
 2979W        W 7030   2.360   3.607   3.787 -0.1226 -0.2328  0.1412
 2980W        W 7031   1.521   7.826  12.052  0.1198 -0.0654  0.0727
 2981W        W 7032   1.470   1.157  10.553  0.1222  0.0456  0.0589
 2982W        W 7033   7.614   5.361   2.991 -0.0692  0.3236 -0.2482
 2983W        W 7034  10.115   4.905  10.013  0.1265 -0.1597 -0.2082
 2984W        W 7035   5.464   3.169  12.016  0.0353  0.4654  0.0807
 2985W        W 7036   4.996   3.542   3.214 -0.0508  0.1992  0.1252
 2986W        W 7037   0.011   7.746  11.878  0.0697  0.0922 -0.3919
 2987W        W 7038   2.581   1.474   3.646  0.0545  0.0470  0.1785
 2988W        W 7039   4.040   1.642  11.205 -0.0843  0.2318  0.2472
 2989W        W 7040   4.406   4.573   1.730  0.5986 -0.2891  0.1237
 2990W        W 7041   3.513   0.631  11.445 -0.0979 -0.1014  0.1230
 2991W        W 7042   0.119   7.464   2.166  0.2109 -0.1714  0.3807
 2992W        W 7043   6.762   6.681  13.908 -0.2343 -0.0215  0.0745
 2993W        W 7044   4.674   3.579   4.637 -0.0285 -0.0571  0.0663
 2994W        W 7045   9.525   9.136   2.640  0.1184 -0.0797  0.2085
 2995W        W 7046   7.973   3.527  10.754  0.0239 -0.0299  0.1129
 2996W        W 7047   3.754   8.504   1.641  0.2303  0.0877  0.0364
 2997W        W 7048   0.775   2.838   0.591 -0.0745 -0.0496  0.1177
 2998W        W 7049   0.859   4.874  13.334  0.1697  0.0007  0.2357
 2999W        W 7050   4.800   4.256   5.406  0.0692  0.0290 -0.0418
 3000W        W 7051   3.533   9.754   1.374  0.3455 -0.1603  0.1514
 3001W        W 7052   8.729   3.219  12.475 -0.0245 -0.0969 -0.2006
 3002W        W 7053   3.005   0.642   3.427  0.0893  0.0317  0.1390
 3003W        W 7054   6.846   8.026  10.644 -0.1410 -0.0524  0.0953
 3004W        W 7055   3.242   0.661  12.827 -0.1022  0.2747 -0.0760
 3005W        W 7056   4.748   1.674   9.563 -0.2233  0.1070 -0.0995
 3006W        W 7057   8.591   7.274  10.946  0.0846 -0.1264 -0.0947
 3007W        W 7058   7.057   9.675  12.273 -0.1592  0.1503  0.1203
 3008W        W 7059   8.245   3.357   0.277  0.1267  0.3773 -0.1351
 3009W        W 7060   6.051   1.023  13.293  0.3725 -0.2830  0.5939
 3010W        W 7061   7.704   2.056  13.510 -0.0378 -0.1944  0.1123
 3011W        W 7062   3.254   7.209   9.683  0.0046 -0.0353  0.4047
 3012W        W 7063   1.765   4.307  10.763 -0.0168 -0.0418  0.0998
 3013W        W 7064   7.646  10.151   2.692 -0.4462 -0.2102  0.2130
 3014W        W 7065   8.879   3.336  13.024  0.0987 -0.1518  0.0872
 3015W        W 7066   4.220   6.172   0.559 -0.0653 -0.1374  0.0223
 3016W        W 7067   1.657   3.183  10.509 -0.1087  0.0737 -0.2193
 3017W        W 7068   6.133   2.274  10.919 -0.2032 -0.2456 -0.3099
 3018W        W 7069   1.259   4.330   8.504 -0.1464  0.1305  0.2792
 3019W        W 7070   7.306   4.382  12.270  0.0261  0.0114  0.1540
 3020W        W 7071   9.341   4.313  10.609 -0.0825  0.0666  0.1393
 3021W        W 7072   9.590   1.209  13.723 -0.2351 -0.0542  0.0002
 3022W        W 7073   8.477   1.326  10.093  0.4346 -0.1336 -0.0642
 3023W        W 7074   9.199   6.234   1.152 -0.1636  0.1105  0.1988
 3024W        W 7075   8.440   7.423   1.518  0.1021 -0.0445 -0.0985
 3025W        W 7076   7.994   4.179  13.381  0.2076 -0.1184  0.0235
 3026W        W 7077   0.923   9.991   4.180 -0.2703  0.1036 -0.0515
 3027W        W 7078   0.698   1.022  10.061  0.0252 -0.0153  0.0716
 3028W        W 7079   8.062   7.574   3.699 -0.1116 -0.1622  0.0303
 3029W        W 7080   6.879   4.866  13.649  0.0429 -0.1140 -0.0536
 3030W        W 7081   1.919   9.789  13.575 -0.0947 -0.0430  0.0001
 3031W        W 7082   7.735   0.993  10.648 -0.2624 -0.1240 -0.0715
 3032W        W 7083   8.723   9.019  13.956 -0.0321 -0.0431 -0.0831
 3033W        W 7084   5.645   8.294   1.571  0.0489  0.0250 -0.3359
 3034W        W 7085   7.430   8.605  10.919 -0.0532 -0.1129  0.0498
 3035W        W 7086   2.539   6.096   2.329  0.3281  0.2050  0.0571
 3036W        W 7087   2.368   8.074  10.394  0.1447 -0.0593 -0.1790
 3037W        W 7088   7.038   0.409   4.080 -0.3770  0.2211  0.0866
 3038W        W 7089   9.518   2.238   8.692  0.0645  0.2072  0.1699
 3039W        W 7090   4.844   1.250  13.935  0.0913 -0.1891 -0.1825
 3040W        W 7091   1.788   4.808  12.868  0.0328 -0.0958 -0.2438
 3041W        W 7092   4.428   6.468  12.433 -0.0357 -0.0339  0.2619
 3042W        W 7093   2.683   0.437   5.254  0.2654 -0.1159 -0.0686
 3043W        W 7094   6.018   9.227   3.664  0.2926  0.0792 -0.2272
 3044W        W 7095   2.302   8.650  13.830 -0.0479  0.1844 -0.1648
 3045W        W 7096   3.330   0.108   4.471  0.1820 -0.3648 -0.0047
 3046W        W 7097   7.297   2.604  12.810  0.1771  0.0447 -0.0987
 3047W        W 7098   0.348   3.246  13.286 -0.1464  0.2010 -0.2178
 3048W        W 7099   8.711   0.988   3.728  0.1180  0.1506 -0.1225
 3049W        W 7100   5.539   2.751   9.487 -0.1786  0.1371 -0.2844
 3050W        W 7101   8.447   4.455  11.660 -0.0532 -0.0357  0.1781
 3051W        W 7102   4.058   9.902   9.440  0.0362 -0.0065 -0.0797
 3052W        W 7103   0.837   8.778   1.183 -0.1840  0.1634 -0.0120
 3053W        W 7104   8.407   1.149  11.935 -0.3501 -0.1112 -0.2290
 3054W        W 7105   5.822   8.241   0.921  0.1154  0.2668 -0.0705
 3055W        W 7106   2.417   0.693   3.061 -0.0630  0.0062 -0.0459
 3056W        W 7107  10.055   1.917   0.914  0.2184 -0.0736  0.1425
 3057W        W 7108   4.732   9.314   9.680 -0.0833 -0.0457  0.0805
 3058W        W 7109   5.404   5.783   9.617 -0.0482 -0.0338  0.0489
 3059W        W 7110   5.606   5.378   3.992 -0.0551  0.1182 -0.0484
 3060W        W 7111   8.522   6.949   0.233 -0.2851 -0.1341  0.0081
 3061W        W 7112   6.345   6.692  11.418 -0.2649  0.2454  0.0300
 3062W        W 7113   5.139   7.100  12.119  0.1398  0.0952 -0.1526
 3063W        W 7114   3.985   6.297   9.769 -0.3491 -0.2717 -0.0882
 3064W        W 7115   4.385   0.792   9.311 -0.2424 -0.2381 -0.0820
 3065W        W 7116   7.902   6.444  10.990  0.0680  0.3506  0.5296
 3066W        W 7117   6.274   5.724  12.540  0.0071 -0.0718 -0.3625
 3067W        W 7118   1.928   4.846   1.980 -0.2954 -0.1413 -0.2255
 3068W        W 7119   7.725   6.742  13.559  0.0016 -0.2403 -0.0763
 3069W        W 7120   7.205   6.036   1.286 -0.1131  0.1127 -0.4076
 3070W        W 7121   5.570   2.604  10.986  0.1150 -0.1511 -0.0930
 3071W        W 7122   8.690   0.886  12.703 -0.3169  0.2363  0.1984
 3072W        W 7123   5.893   6.162   0.696  0.1921  0.1554 -0.2076
 3073W        W 7124   3.114   8.417   2.474  0.5027 -0.3668 -0.3657
 3074W        W 7125   9.637   4.542   9.301  0.1591 -0.1812  0.0498
 3075W        W 7126   8.936   1.660   2.886 -0.3423  0.1825  0.2183
 3076W        W 7127   2.603   4.633   0.037  0.4197 -0.0806 -0.0309
 3077W        W 7128   4.072   3.820   4.673  0.1626 -0.1320 -0.3488
 3078W        W 7129   5.222   0.422   3.590  0.1959 -0.1160 -0.1044
 3079W        W 7130   2.069   4.377   0.646  0.2901 -0.1535  0.0226
 3080W        W 7131   9.963   1.595  13.765 -0.0070 -0.0601  0.1756
 3081W        W 7132   3.362   8.480  11.833 -0.0365 -0.2018  0.0217
 3082W        W 7133   1.095   8.880   2.676  0.2563  0.3376  0.1276
 3083W        W 7134   6.455   4.289   9.930  0.0853  0.1402 -0.1102
 3084W        W 7135   5.749   9.470   2.209 -0.2556  0.1247  0.1164
 3085W        W 7136   5.339   8.190   0.847 -0.0151 -0.1879  0.0624
 3086W        W 7137  10.058   0.106  13.726  0.3554  0.1055 -0.1286
 3087W        W 7138   6.945   7.468  12.283 -0.1669 -0.3387  0.1730
 3088W        W 7139   3.917   6.710   5.128 -0.1211  0.2622 -0.1193
 3089W        W 7140   8.992   2.422   3.532 -0.0126 -0.2341 -0.1517
 3090W        W 7141   2.239   0.118   4.482 -0.0630  0.4959 -0.0034
 3091W        W 7142   4.729   0.295  12.600 -0.1536 -0.1199 -0.1798
 3092W        W 7143   1.044   4.618  13.734  0.0298  0.1865  0.1839
 3093W        W 7144   9.134   3.951   1.970 -0.1414 -0.1424 -0.0131
 3094W        W 7145   1.412   4.733   1.792  0.1115  0.3449  0.0758
 3095W        W 7146   8.986   6.843  11.937  0.3757  0.1619 -0.1212
 3096W        W 7147   5.736   2.021   4.240 -0.2884 -0.2537  0.2050
 3097W        W 7148   3.086   8.539  13.373 -0.2679  0.0304 -0.1789
 3098W        W 7149   2.366   9.537  13.304  0.0973 -0.4052 -0.0751
 3099W        W 7150   2.987  10.114   3.494 -0.3059 -0.1585 -0.1431
 3100W        W 7151  10.024   6.175  10.392  0.0125  0.1641  0.1212
 3101W        W 7152   2.149   4.610  11.892 -0.0498 -0.1883 -0.2359
 3102W        W 7153   4.665   4.208  11.743  0.0521 -0.1763 -0.2587
 3103W        W 7154   3.531   0.926  13.184  0.0666  0.1683 -0.5053
 3104W        W 7155   4.338   7.148   2.053 -0.2142 -0.1612 -0.3206
 3105W        W 7156   8.305   5.811  11.978 -0.1215  0.1001  0.1654
 3106W        W 7157   1.985   6.683   4.051  0.0068 -0.2005 -0.1820
 3107W        W 7158   9.180   4.861   2.145 -0.0772  0.2969 -0.0959
 3108W        W 7159   7.614   5.930   0.843 -0.2947 -0.0216 -0.1112
 3109W        W 7160   7.361   8.523  13.008  0.2890  0.1614  0.0654
 3110W        W 7161   2.624   5.659   3.297  0.2800 -0.1287 -0.1011
 3111W        W 7162   4.982   8.246  12.923  0.2377 -0.0440  0.1948
 3112W        W 7163   5.439   7.459   9.337 -0.2451  0.0012  0.0461
 3113W        W 7164   7.526   2.559   3.544  0.0911 -0.1402 -0.4116
 3114W        W 7165   3.819   0.680  10.918 -0.1518  0.0756 -0.3624
 3115W        W 7166   1.133   1.917   1.318 -0.0444  0.3733 -0.0595
 3116W        W 7167   8.328   9.094  11.286  0.2040  0.3450  0.1485
 3117W        W 7168   0.687   3.636  11.612  0.0031  0.3172 -0.2159
 3118W        W 7169   6.620   2.929   4.705  0.2134  0.0373  0.2867
 3119W        W 7170   1.919   3.829   2.961 -0.1559 -0.5552 -0.0687
 3120W        W 7171   2.515   2.463   3.969 -0.0247  0.0934  0.0652
 3121W        W 7172   6.707   3.293  11.371  0.1308 -0.0956  0.3138
 3122W        W 7173   1.667   3.205  11.876  0.2633  0.2614  0.0194
 3123W        W 7174   2.628   6.261   3.999  0.1157  0.3252 -0.3386
 3124W        W 7175   1.860   9.544  12.557  0.0741  0.1790 -0.2408
 3125W        W 7176   0.326   1.720  11.646  0.1404 -0.0384 -0.1484
 3126W        W 7177   7.878   7.240   1.795 -0.1040 -0.0707  0.3903
 3127W        W 7178   7.498   5.821   4.258 -0.3780  0.0528  0.0662
 3128W        W 7179   2.239   7.194  10.387  0.3208 -0.0265 -0.0764
 3129W        W 7180   2.868   0.695   2.776  0.2024  0.1556  0.2383
 3130W        W 7181   4.740   3.528   0.418 -0.1053  0.1441 -0.2184
 3131W        W 7182   5.491   7.852  13.866  0.1554 -0.3449 -0.0424
 3132W        W 7183   7.120   8.023   2.133  0.0540 -0.3512  0.0820
 3133W        W 7184   5.860   5.422  12.762  0.3830 -0.0929 -0.0440
 3134W        W 7185  10.024   3.716   3.275  0.0228 -0.0092 -0.1458
 3135W        W 7186   9.133   0.368  13.388 -0.0676  0.3014  0.0980
 3136W        W 7187   3.326   6.210   4.713 -0.4018  0.1490 -0.1726
 3137W        W 7188   0.812   1.516   1.384  0.0826 -0.3319  0.1946
 3138W        W 7189   7.751   0.780  13.076  0.1530 -0.1790 -0.1343
 3139W        W 7190   8.804   6.507  10.663 -0.2968  0.0164  0.2331
 3140W        W 7191   1.941   8.382   0.422  0.2632  0.1371 -0.0220
 3141W        W 7192   9.043   1.256  12.584  0.2282 -0.3894 -0.1687
 3142W        W 7193   6.498   6.880  13.071 -0.0165 -0.3327 -0.2726
 3143W        W 7194   4.363   1.106  10.395 -0.2051  0.3348 -0.1217
 3144W        W 7195   9.720   4.156   1.199  0.1184 -0.2770  0.0745
 3145W        W 7196   8.533   8.887   1.283  0.2649 -0.0858  0.1390
 3146W        W 7197   4.082   2.816   9.181 -0.0686 -0.1399 -0.2138
 3147W        W 7198   1.356   5.169   1.433  0.0646  0.1631  0.0779
 3148W        W 7199   4.740   0.770   8.698 -0.2630  0.0439  0.1117
 3149W        W 7200   4.591   5.549   2.648 -0.0266 -0.2748  0.1713
 3150W        W 7201   5.417   6.990  11.511  0.2240  0.1402 -0.0488
 3151W        W 7202   4.338   2.384   9.646  0.0438  0.2964 -0.3247
 3152W        W 7203   5.056   8.494  13.509 -0.0195 -0.0681 -0.2348
 3153W        W 7204   2.865   0.063  13.498 -0.1233  0.0661 -0.0817
 3154W        W 7205   6.988   9.812   9.802 -0.0343 -0.2041  0.0049
 3155W        W 7206   1.373   5.007   0.138 -0.0330 -0.0581  0.2949
 3156W        W 7207   7.590   2.091   0.005 -0.1085 -0.0311  0.0972
 3157W        W 7208   8.426   5.546   3.143 -0.1395  0.2091  0.0150
 3158W        W 7209   4.137   5.701   3.955  0.2400  0.2155  0.2678
 3159W        W 7210   0.198   6.011   8.980 -0.0682 -0.0493  0.0084
 3160W        W 7211   2.569   1.729   2.255 -0.0673 -0.1689  0.4189
 3161W        W 7212   8.920   6.534   3.382 -0.0727 -0.2140  0.2016
 3162W        W 7213   4.089   9.945  10.020 -0.2740 -0.0206 -0.1983
 3163W        W 7214   4.012   0.299   3.212 -0.0682 -0.0349 -0.0760
 3164W        W 7215   5.240   4.532   0.890  0.0302 -0.2177  0.0775
 3165W        W 7216   6.093   5.954  11.260  0.0156 -0.2638  0.5613
 3166W        W 7217   3.660   7.188   2.148  0.0611 -0.1082  0.1084
 3167W        W 7218   8.947   6.757   2.878  0.0137  0.1082 -0.0637
 3168W        W 7219   3.089   4.198   4.348 -0.2113 -0.2718  0.2546
 3169W        W 7220   4.752   3.994  13.790  0.0945 -0.0580  0.1830
 3170W        W 7221   2.061   9.902   9.738  0.1790 -0.1507 -0.0102
 3171W        W 7222   5.283   4.167   2.495  0.2489  0.1611  0.3904
 3172W        W 7223   4.788   3.126  10.937  0.1086 -0.1201 -0.1098
 3173W        W 7224   2.641   4.558   4.587  0.3980 -0.2159 -0.0133
 3174W        W 7225   5.012   8.485   2.516  0.1889  0.1594  0.2016
 3175W        W 7226   4.720   3.611   3.627 -0.4014  0.1750 -0.1319
 3176W        W 7227   2.334   8.300   3.070 -0.3638 -0.1365  0.0022
 3177W        W 7228   1.835   3.580   1.224  0.0199  0.3273 -0.0662
 3178W        W 7229   7.130   7.357  11.801 -0.3945  0.5013  0.0909
 3179W        W 7230   8.436   2.957  13.427 -0.1692 -0.0843  0.1608
 3180W        W 7231   7.918   7.783  13.308  0.0834 -0.0093 -0.0202
 3181W        W 7232   4.129   0.728   4.407 -0.1612 -0.3703 -0.0057
 3182W        W 7233   6.129   7.688   2.275 -0.0666 -0.1271  0.3652
 3183W        W 7234   2.393   0.668   1.505 -0.1593  0.0256  0.3590
 3184W        W 7235   7.221   2.709  10.018 -0.1872 -0.1968  0.0556
 3185W        W 7236   1.565   8.204   0.060  0.0168 -0.2334 -0.5342
 3186W        W 7237   3.839   9.581  12.123 -0.0285  0.1999 -0.1371
 3187W        W 7238   3.539   6.796   0.624 -0.2492 -0.1775  0.1112
 3188W        W 7239   6.715   4.577   0.961  0.0475 -0.1660 -0.0274
 3189W        W 7240   4.907   6.709  13.933 -0.4566  0.2127  0.0660
 3190W        W 7241   9.755   5.187  11.215  0.2270 -0.2908 -0.0112
 3191W        W 7242  10.166   9.988   1.611  0.1438 -0.0995 -0.0923
 3192W        W 7243   7.400   9.965   1.346  0.0491 -0.2478  0.4904
 3193W        W 7244   3.673   9.732   2.034  0.2945 -0.1628  0.1845
 3194W        W 7245   8.139   1.852   3.589 -0.1639  0.3421  0.0135
 3195W        W 7246   4.986   7.460   0.150  0.0970 -0.1647 -0.2809
 3196W        W 7247  10.175   4.142   8.864 -0.1031  0.1254  0.3338
 3197W        W 7248   2.921   1.091   9.387 -0.0431  0.3063  0.0037
 3198W        W 7249   1.362   1.642   2.741  0.3120  0.2658 -0.0063
 3199W        W 7250   0.405   2.299   0.381 -0.3238  0.0358  0.3469
 3200W        W 7251   2.479   0.003   3.955  0.0893  0.0817  0.2326
 3201W        W 7252   2.576   2.074   0.989  0.0917  0.2002 -0.1695
 3202W        W 7253   0.258   0.837   1.683  0.1094 -0.1285 -0.0755
 3203W        W 7254   7.924   1.963   4.192 -0.0252 -0.0231 -0.0308
 3204W        W 7255   9.727   0.489  11.200  0.0179  0.0693 -0.1909
 3205W        W 7256   5.290   4.917   3.877 -0.0057 -0.2569  0.0390
 3206W        W 7257   0.789   2.685   1.087  0.0206  0.1050  0.1051
 3207W        W 7258   2.644   1.428   4.156  0.1073 -0.2149  0.2652
 3208W        W 7259   8.988   8.551   9.806  0.0045  0.2636 -0.3803
 3209W        W 7260   6.683   2.046   4.029 -0.1770 -0.2172 -0.0841
 3210W        W 7261   7.109   9.300   0.751  0.0428 -0.0199  0.0849
 3211W        W 7262   1.653   4.700   4.867  0.1168 -0.0249  0.2019
 3212W        W 7263   8.705   9.043   0.660  0.4018  0.2687 -0.2580
 3213W        W 7264   5.789   5.297   1.519 -0.3316 -0.3157 -0.1225
 3214W        W 7265   9.098   6.239  13.888  0.1074 -0.1047  0.0888
 3215W        W 7266   4.679   8.260  12.300  0.1500 -0.5080 -0.1313
 3216W        W 7267   0.168   5.444  10.290 -0.3659  0.3329  0.0991
 3217W        W 7268   8.608   8.033  13.573  0.0957 -0.1363  0.2221
 3218W        W 7269   9.218   6.857  12.405  0.3813 -0.2908 -0.1441
 3219W        W 7270   5.899   4.775  13.351  0.0040  0.1179 -0.0421
 3220W        W 7271   7.063   1.381  13.536  0.2383 -0.0566  0.0632
 3221W        W 7272   4.003   1.716  12.834 -0.1102 -0.0134 -0.1816
 3222W        W 7273   1.999   6.802  10.521 -0.0311  0.1330 -0.1374
 3223W        W 7274   2.998   2.903   2.465  0.0654 -0.0199  0.1192
 3224W        W 7275   9.346   5.419   4.985 -0.0547 -0.1438 -0.0374
 3225W        W 7276   4.637   5.207  13.033  0.1919 -0.1781 -0.0283
 3226W        W 7277   5.472   0.923  11.546 -0.0225  0.0885 -0.1258
 3227W        W 7278   0.201   8.325   1.776 -0.1446  0.0448  0.1706
 3228W        W 7279   2.735   9.837   4.326 -0.0869 -0.0955 -0.0571
 3229W        W 7280   9.730   3.797  11.081 -0.0303  0.0111  0.0799
 3230W        W 7281   1.030   8.759  11.770  0.0054 -0.1430  0.0183
 3231W        W 7282   8.948   3.011   2.734  0.3971 -0.3849 -0.0835
 3232W        W 7283   0.320   6.431   4.568 -0.0985  0.3930 -0.2933
 3233W        W 7284   6.210   2.883  12.989 -0.0502 -0.0812  0.1483
 3234W        W 7285   6.657   9.629   2.521  0.0864 -0.1793  0.1335
 3235W        W 7286   5.528   0.800   3.671  0.2683  0.1677 -0.2682
 3236W        W 7287   1.949   9.771   1.561  0.0785  0.1585  0.0187
 3237W        W 7288   5.876   2.781  12.585 -0.1646  0.1395  0.0508
 3238W        W 7289   5.078   4.586  12.539  0.0735 -0.0762 -0.1640
 3239W        W 7290   1.959   4.820  12.300  0.0312  0.4145  0.0156
 3240W        W 7291   3.418   7.747  13.687  0.0336 -0.1587 -0.0584
 3241W        W 7292   5.117   3.495   4.398 -0.2707 -0.0093  0.0913
 3242W        W 7293   6.597   4.145   1.426 -0.1480 -0.2098 -0.0108
 3243W        W 7294   8.037   3.911   1.837 -0.1268  0.1869 -0.2152
 3244W        W 7295   8.419   3.544   4.978  0.3260  0.0297 -0.2511
 3245W        W 7296   1.170   4.380  10.168  0.1352  0.2924 -0.3491
 3246W        W 7297   2.281   4.882  10.202 -0.2254  0.0276  0.1115
 3247W        W 7298   3.213   5.928  12.982  0.0867 -0.0916 -0.3746
 3248W        W 7299   7.410   4.042   1.064  0.4486 -0.1853  0.1273
 3249W        W 7300   7.795   0.363  12.267  0.1294  0.1180  0.0934
 3250W        W 7301   3.395   0.249  10.169  0.0450 -0.0228 -0.0158
 3251W        W 7302   5.099   4.312   2.003 -0.0655  0.0635 -0.1584
 3252W        W 7303   7.631   6.794   0.653  0.2466 -0.1579  0.1193
 3253W        W 7304   2.009   9.713   0.119  0.0759 -0.2414 -0.1023
 3254W        W 7305   3.000   3.404   2.103  0.0886 -0.1122  0.1213
 3255W        W 7306   0.158   7.792   1.170  0.0142  0.4749 -0.3735
 3256W        W 7307   1.892   6.107  13.281 -0.0439 -0.1735  0.0382
 3257W        W 7308   0.590   2.076  11.375 -0.0006  0.1792  0.0680
 3258W        W 7309   5.270   5.977   1.221  0.3860  0.0996  0.0554
 3259W        W 7310   6.601   3.042   3.810  0.0264  0.0469 -0.0346
 3260W        W 7311   6.674   4.308   1.939  0.0773 -0.0773 -0.0722
 3261W        W 7312   7.593   5.238   3.523  0.1624  0.0474 -0.0079
 3262W        W 7313   3.704   4.494   1.322 -0.0158 -0.0135 -0.0880
 3263W        W 7314   8.984   7.604   3.189 -0.2791  0.2737  0.1454
 3264W        W 7315   9.563   9.796  12.752 -0.1829  0.1218 -0.2434
 3265W        W 7316   4.553   4.645  10.392 -0.1684 -0.2548  0.0243
 3266W        W 7317   9.563   6.976   2.356  0.3816 -0.2844 -0.1597
 3267W        W 7318   3.175   3.602   3.319  0.1270  0.0145 -0.1290
 3268W        W 7319   1.432   8.697   2.332 -0.0966  0.1118 -0.1028
 3269W        W 7320   6.654   0.503   9.960  0.1279 -0.0002  0.1317
 3270W        W 7321   1.607   3.826   0.818 -0.2134 -0.2519 -0.1380
 3271W        W 7322   5.918   7.426   9.703  0.0134 -0.3325  0.1397
 3272W        W 7323   2.024   4.967  13.631  0.0170 -0.0286 -0.0869
 3273W        W 7324   2.976   9.083   5.593  0.1471  0.2408 -0.1663
 3274W        W 7325   1.118   4.262   9.691 -0.0780 -0.1322  0.2037
 3275W        W 7326   7.884   8.127   2.892  0.0429 -0.0954  0.2868
 3276W        W 7327   5.971   8.921   1.491  0.3031  0.0027  0.2481
 3277W        W 7328   8.578   9.712   2.004 -0.0792 -0.1831  0.1636
 3278W        W 7329   7.505   2.907  13.566  0.1249  0.0934 -0.0558
 3279W        W 7330   6.680   8.503   0.418 -0.0933 -0.1546 -0.3078
 3280W        W 7331   1.837   2.857   9.728  0.1300  0.0595 -0.2518
 3281W        W 7332   3.302   1.044   4.555 -0.0488 -0.0932  0.1786
 3282W        W 7333   0.087   6.540   0.254  0.1638 -0.3590 -0.0223
 3283W        W 7334   2.166   0.968   9.907 -0.2384 -0.0741 -0.2969
 3284W        W 7335   7.068   5.520  11.773 -0.2128 -0.1148  0.2246
 3285W        W 7336   9.676   8.709   1.787  0.1296 -0.0600  0.1539
 3286W        W 7337   4.099   0.627   1.224  0.0306 -0.1105  0.0453
 3287W        W 7338   1.035   4.409   1.586 -0.1518 -0.0417  0.0444
 3288W        W 7339   3.341   7.531   4.969 -0.0974  0.0436  0.0581
 3289W        W 7340   3.281   4.842  13.472 -0.0447  0.0385  0.0339
 3290W        W 7341   4.326   0.654   8.383  0.0091  0.3380  0.1989
 3291W        W 7342   5.954   6.628   9.232  0.0269 -0.3753  0.1726
 3292W        W 7343   9.444   7.152  10.845 -0.0100  0.1440 -0.0562
 3293W        W 7344   2.892   1.255  12.411 -0.2630  0.1950 -0.0069
 3294W        W 7345   1.829   8.543   4.701  0.0750 -0.0636 -0.1109
 3295W        W 7346   1.661   1.931   1.153 -0.1806 -0.1836  0.2171
 3296W        W 7347   7.085   8.384  10.345 -0.2012  0.4490 -0.2581
 3297W        W 7348   1.511   1.211  12.845 -0.0433 -0.1514 -0.2392
 3298W        W 7349   1.551   2.719  11.223 -0.1298  0.4815 -0.0043
 3299W        W 7350   8.035   5.479  13.407  0.1245 -0.1276 -0.2532
 3300W        W 7351   8.766   5.755  11.724  0.2899  0.2102 -0.2400
 3301W        W 7352   4.090   2.197   5.904  0.0517 -0.1861 -0.2452
 3302W        W 7353   0.911   8.738   0.674  0.1059  0.0528  0.1257
 3303W        W 7354   7.627   4.697  12.628  0.2884 -0.1153 -0.1000
 3304W        W 7355   2.201   7.997   0.313  0.2871 -0.0310  0.2450
 3305W        W 7356   3.134   1.916  13.059  0.1662  0.1181  0.0360
 3306W        W 7357   8.892   4.894   8.753 -0.1494  0.0540 -0.1253
 3307W        W 7358   4.635   9.697  12.057 -0.1594 -0.0614  0.2584
 3308W        W 7359   4.482   9.980   2.548 -0.2399 -0.0592  0.0044
 3309W        W 7360   9.193   7.925  11.531  0.2207  0.1542 -0.1011
 3310W        W 7361   8.388   4.579   2.365  0.2299  0.2096 -0.2551
 3311W        W 7362   6.062   0.712   2.557 -0.3800  0.3364  0.1240
 3312W        W 7363   2.425   6.726  13.578 -0.1135  0.0236  0.1166
 3313W        W 7364   9.411   6.234  12.340  0.0049 -0.1239  0.0298
 3314W        W 7365   4.122   6.125  12.092  0.0430 -0.0629 -0.2038
 3315W        W 7366   4.478   5.659   1.138  0.2408  0.0002  0.2762
 3316W        W 7367   5.439   1.050  10.129  0.1666  0.3809 -0.0710
 3317W        W 7368   8.716   3.166   3.530 -0.2153 -0.4707  0.1129
 3318W        W 7369   8.362   8.169   0.109 -0.1239  0.0485 -0.0566
 3319W        W 7370   7.024   0.065   1.850 -0.4123  0.0099 -0.0289
 3320W        W 7371   7.202   7.678  13.134  0.2195 -0.0991 -0.1579
 3321W        W 7372   5.381   4.911   0.567 -0.0193 -0.1546 -0.1539
 3322W        W 7373   7.196   9.050  13.885 -0.1551 -0.0689 -0.1677
 3323W        W 7374   4.467   9.895   0.441  0.3979 -0.0137  0.1673
 3324W        W 7375   0.738   8.891  11.345  0.0030  0.0245 -0.1039
 3325W        W 7376   5.571   7.943  11.891 -0.0147 -0.0168 -0.1067
 3326W        W 7377   3.994   4.398  13.558 -0.0408 -0.0852  0.0418
 3327W        W 7378   9.373   1.890   1.503  0.0202  0.1082 -0.2059
 3328W        W 7379   9.195   8.479  12.982 -0.2580  0.0756  0.0474
 3329W        W 7380   5.670   5.967   1.511  0.0702  0.1685  0.1125
 3330W        W 7381   6.663   0.249  12.308  0.1904  0.2400  0.0640
 3331W        W 7382   1.691   7.652   0.855  0.3344  0.1609 -0.3024
 3332W        W 7383   3.352   7.569   1.163  0.1479 -0.1113  0.2448
 3333W        W 7384   8.093   2.846   2.131  0.0286 -0.1596  0.0236
 3334W        W 7385   6.347   9.968  11.028 -0.5282 -0.2340 -0.0528
 3335W        W 7386   2.005   5.025   0.900 -0.0522  0.0755 -0.1061
 3336W        W 7387   0.705   5.120  10.868  0.0544  0.1314  0.1212
 3337W        W 7388   5.956   7.589  12.358  0.0254 -0.4266 -0.2417
 3338W        W 7389   1.267   7.210  12.873 -0.0856 -0.2695 -0.1131
 3339W        W 7390   8.730   0.820   0.319  0.2894  0.1456  0.0712
 3340W        W 7391   5.348   6.345   0.810  0.1187  0.0528  0.2048
 3341W        W 7392   8.005   2.091   9.630  0.0382  0.1774  0.3338
 3342W        W 7393   1.819   0.469  11.020  0.0085  0.3010  0.1407
 3343W        W 7394   9.560   7.517   2.680 -0.0373  0.0657  0.0578
 3344W        W 7395   8.926   7.693   0.898  0.0981  0.2181  0.0519
 3345W        W 7396   2.333   1.880  13.576 -0.0971 -0.1205  0.0321
 3346W        W 7397   4.868   9.166  12.167  0.1432 -0.3516 -0.2220
 3347W        W 7398   0.951   3.348   1.536 -0.2240 -0.0254  0.0233
 3348W        W 7399   9.781   2.107   1.266 -0.0903 -0.4286 -0.2201
 3349W        W 7400   8.074   4.862   1.179  0.2427  0.3900 -0.2895
 3350W        W 7401   7.822   1.498  10.828  0.1496  0.1454  0.1625
 3351W        W 7402   0.925   4.422   9.240  0.0196  0.1658  0.1807
 3352W        W 7403   5.017   3.170  13.534 -0.2145  0.2886 -0.0957
 3353W        W 7404   9.617   7.963  10.344 -0.3370  0.1203 -0.1545
 3354W        W 7405   5.364   3.315   1.168 -0.0724  0.1168 -0.1949
 3355W        W 7406   3.195   9.952   3.011 -0.1257  0.0296 -0.3038
 3356W        W 7407   0.743   4.156   0.359  0.2003 -0.1708 -0.0144
 3357W        W 7408   6.246   9.148  11.792  0.1172 -0.1580  0.0583
 3358W        W 7409   1.409   5.444   9.779  0.0933  0.1390  0.0679
 3359W        W 7410   1.477   4.268   3.104  0.0171 -0.0667  0.0100
 3360W        W 7411   0.311   2.675   1.281 -0.0786 -0.1522  0.1965
 3361W        W 7412   5.661   0.472  10.062 -0.0598 -0.2614 -0.2878
 3362W        W 7413   1.976   6.730   0.450 -0.1248  0.0792  0.0946
 3363W        W 7414   5.131   4.670   1.375 -0.3708  0.0803 -0.0021
 3364W        W 7415   2.254   9.557  11.497  0.0886  0.0902 -0.0849
 3365W        W 7416   6.291   3.370   3.257 -0.1110  0.0026 -0.0588
 3366W        W 7417   8.920   8.939  13.106 -0.2827 -0.1603  0.3796
 3367W        W 7418   4.559   4.162  10.703 -0.2366  0.0886  0.0935
 3368W        W 7419   1.834   5.828  11.246 -0.2133 -0.1880  0.4450
 3369W        W 7420   2.431   9.930   0.387  0.1892  0.0119  0.2295
 3370W        W 7421   7.030   8.176   3.451  0.1388 -0.0615  0.1143
 3371W        W 7422   2.761   9.018  12.323 -0.0425  0.0771 -0.2222
 3372W        W 7423   6.663   4.739   0.183  0.2780 -0.1638  0.3074
 3373W        W 7424   5.521   5.382   9.938  0.0221 -0.0983  0.0809
 3374W        W 7425   2.810   7.040  13.983 -0.3730 -0.1087 -0.1871
 3375W        W 7426   0.333   3.817   2.267  0.0182  0.1447 -0.2946
 3376W        W 7427   8.165   6.410  13.583 -0.1166  0.1342  0.0124
 3377W        W 7428   4.580   8.328  10.227 -0.0088 -0.1780  0.0085
 3378W        W 7429   9.463   2.791   4.658 -0.4410  0.2971 -0.0129
 3379W        W 7430   0.547   9.107  10.841  0.0443 -0.2988 -0.2589
 3380W        W 7431   1.579   4.492   2.248 -0.3508  0.1013  0.0145
 3381W        W 7432   9.527   8.663   3.799  0.0668 -0.1365 -0.0360
 3382W        W 7433   4.763   0.693   0.261 -0.0651 -0.1592 -0.0454
 3383W        W 7434   4.556   5.939  12.253 -0.1606 -0.0622  0.2275
 3384W        W 7435   6.294   3.536   9.625  0.0431 -0.2129 -0.3013
 3385W        W 7436   6.428   5.304  10.078 -0.1971 -0.2096 -0.1347
 3386W        W 7437   0.403   8.882   9.608 -0.0728  0.0265 -0.2043
 3387W        W 7438   0.501   9.122   0.867  0.1927 -0.2532 -0.1816
 3388W        W 7439   8.788   2.134   2.526  0.4427  0.0599 -0.1641
 3389W        W 7440   8.446  10.011  11.201  0.2694  0.0933 -0.3494
 3390W        W 7441   9.110   3.384   1.311  0.1139  0.1516  0.0919
 3391W        W 7442   8.802   6.213   5.141  0.1004  0.0431 -0.0896
 3392W        W 7443   9.979   2.635   1.895 -0.2029 -0.0922  0.2162
 3393W        W 7444   8.579   3.557   3.177 -0.2877  0.0932  0.2360
 3394W        W 7445   1.834   5.261   3.250 -0.1637 -0.4594  0.0228
 3395W        W 7446   8.863   2.610  10.505 -0.0131 -0.0718  0.0128
 3396W        W 7447   9.039   9.376   0.829 -0.1813  0.1058 -0.2647
 3397W        W 7448   2.042   4.395  10.203  0.1446  0.1284 -0.0833
 3398W        W 7449   7.507   7.999   2.425  0.3460  0.3366 -0.1765
 3399W        W 7450   8.386   3.550   4.349 -0.0484 -0.1926 -0.1620
 3400W        W 7451   5.029   7.059  11.185 -0.1228  0.3413  0.0006
 3401W        W 7452   0.763   6.027  12.678 -0.1587 -0.1383 -0.0755
 3402W        W 7453   5.034   2.411   0.528  0.1131  0.2654  0.2248
 3403W        W 7454   8.454   8.617  13.663  0.1374  0.0529 -0.0956
 3404W        W 7455   4.812   5.899  13.676  0.0812  0.1388 -0.2767
 3405W        W 7456   3.619   1.256   3.923 -0.3518 -0.1948  0.0155
 3406W        W 7457   3.199  10.048   0.417  0.0788 -0.0180 -0.1552
 3407W        W 7458   8.636   1.328  12.928  0.2561 -0.0540 -0.3315
 3408W        W 7459   9.569   5.893   1.058 -0.1145  0.1422 -0.0162
 3409W        W 7460   4.814   5.110   5.717  0.1897  0.2238 -0.0572
 3410W        W 7461   8.398   3.729   1.573 -0.1849 -0.0247  0.3248
 3411W        W 7462   9.764   0.400   0.036 -0.0710 -0.0649 -0.0618
 3412W        W 7463   5.172   4.332  11.623 -0.2581 -0.2052  0.1876
 3413W        W 7464   8.127   7.355   3.048  0.2114  0.0069  0.1333
 3414W        W 7465   5.183   8.760  12.966 -0.2659  0.0891  0.1097
 3415W        W 7466   1.842   3.579  12.528  0.1097  0.1208  0.0950
 3416W        W 7467   6.601   9.847   0.135  0.0575  0.1670 -0.0267
 3417W        W 7468   2.952   5.255   2.724 -0.3219  0.2034 -0.0427
 3418W        W 7469   3.490   5.104   4.301 -0.0765 -0.0474  0.0111
 3419W        W 7470   2.066   7.146  11.279 -0.0969 -0.0291  0.0115
 3420W        W 7471   1.437   5.568  12.092  0.2093 -0.0871  0.0343
 3421W        W 7472   0.600   4.039   3.155 -0.2053 -0.0887 -0.0302
 3422W        W 7473   3.519   9.941   4.791 -0.3525  0.3199 -0.6120
 3423W        W 7474   8.077   6.896   2.153 -0.1686 -0.3066  0.1475
 3424W        W 7475   6.272   5.132   4.042  0.1002  0.1474  0.0733
 3425W        W 7476   4.717   2.214  12.621 -0.2091 -0.1355 -0.2031
 3426W        W 7477   1.803   4.999   2.422  0.0771 -0.2235 -0.1414
 3427W        W 7478   7.404   9.575  11.209  0.0124  0.1177  0.0365
 3428W        W 7479   5.511   4.494   8.781  0.1843 -0.2290 -0.2813
 3429W        W 7480   5.534   5.047  10.307  0.1402 -0.0503  0.2576
 3430W        W 7481   8.937   5.639  10.844  0.3722 -0.1677 -0.0036
 3431W        W 7482   0.944   6.855  10.201  0.0510 -0.0236  0.1066
 3432W        W 7483   8.091   4.358   4.959  0.1048 -0.2296  0.0365
 3433W        W 7484   3.387   8.442   3.482  0.2350  0.6230  0.1182
 3434W        W 7485   6.921   4.590   2.408 -0.1313 -0.0072  0.1594
 3435W        W 7486   6.045   4.292   3.467 -0.1612  0.0760  0.0823
 3436W        W 7487   3.788   1.077  13.596  0.1061  0.0105  0.0653
 3437W        W 7488   6.326   5.541   0.169  0.1108  0.0574 -0.0198
 3438W        W 7489   1.208   2.993  10.485  0.2734 -0.3450  0.0228
 3439W        W 7490   2.907   3.920   4.844  0.1120  0.2036 -0.1282
 3440W        W 7491   8.189   0.449   0.980 -0.1073  0.1025 -0.1494
 3441W        W 7492   3.171   2.151   9.252 -0.2517  0.2596  0.2665
 3442W        W 7493   6.345   1.948  11.900 -0.0423 -0.3536 -0.0866
 3443W        W 7494   5.204   5.720   1.692 -0.0704  0.1334 -0.1114
 3444W        W 7495   6.786   3.762   3.453  0.1417  0.0613  0.0942
 3445W        W 7496   9.147   2.524  12.394  0.1354 -0.0291  0.1077
 3446W        W 7497   6.401   2.647   8.256  0.2687 -0.0180 -0.2986
 3447W        W 7498   6.177   4.984   1.383  0.3870 -0.1710  0.2418
 3448W        W 7499   4.181   2.610   3.967  0.1715  0.1534  0.2464
 3449W        W 7500   3.024   6.478   2.359  0.0715 -0.0471  0.2410
 3450W        W 7501   4.383   3.255   0.646 -0.1602 -0.1234 -0.3877
 3451W        W 7502   4.838   1.930   2.214 -0.1399  0.1760 -0.1221
 3452W        W 7503   2.200   6.522   0.957 -0.2038 -0.0245 -0.2331
 3453W        W 7504   3.383   4.327  13.406  0.2011 -0.1009  0.0377
 3454W        W 7505   6.738   3.322   1.990  0.3711 -0.3157  0.0303
 3455W        W 7506   4.532   6.704   1.885 -0.1845 -0.2518  0.0822
 3456W        W 7507   8.964   6.370   0.695  0.0182  0.0822  0.0873
 3457W        W 7508   4.057   7.485  12.683  0.0630 -0.3360  0.2628
 3458W        W 7509   2.727   6.325  10.741 -0.1232 -0.0964 -0.2576
 3459W        W 7510   3.624   6.725  10.890 -0.0598  0.0590 -0.1474
 3460W        W 7511   6.504   8.970  12.640  0.3263 -0.2045 -0.4425
 3461W        W 7512   8.560   2.672  11.497 -0.1833  0.0121 -0.0778
 3462W        W 7513   5.579   2.481   1.250  0.0316 -0.0168  0.1732
 3463W        W 7514   6.131   3.017   1.494  0.3110 -0.0974  0.0375
 3464W        W 7515   9.371   4.748   1.440  0.2045  0.0104 -0.3086
 3465W        W 7516   5.122   3.710   0.767  0.1666 -0.0442 -0.0602
 3466W        W 7517   7.689   6.506   4.051 -0.1005 -0.4465  0.1144
 3467W        W 7518   8.905   2.329   1.094 -0.1430  0.1912  0.3269
 3468W        W 7519   7.602   0.086  11.779  0.0268  0.1606  0.1433
 3469W        W 7520   0.690   9.832   3.253  0.1989 -0.1041  0.2351
 3470W        W 7521   0.331   2.914  12.009 -0.1967  0.3913 -0.0536
 3471W        W 7522   1.591   3.664   9.480  0.1967 -0.1707 -0.1454
 3472W        W 7523   6.245   1.448  11.437  0.0871 -0.1037 -0.1674
 3473W        W 7524   8.689   4.697   1.957  0.0875 -0.1705 -0.2001
 3474W        W 7525   6.595   5.419  12.846 -0.0225 -0.1357 -0.1692
 3475W        W 7526   5.026   7.693  13.716  0.2564 -0.0827  0.0665
 3476W        W 7527   7.274   0.995  11.780  0.0624 -0.1522  0.0815
 3477W        W 7528   6.839   6.582   0.685  0.0929  0.0750  0.2338
 3478W        W 7529   7.374   7.736  12.137 -0.1236 -0.0293 -0.1386
 3479W        W 7530  10.055   5.582  11.968 -0.3033 -0.1090  0.0940
 3480W        W 7531  10.005   1.381  12.509  0.0348 -0.1894 -0.0273
 3481W        W 7532   2.083   8.392   1.243 -0.2633 -0.2613  0.2021
 3482W        W 7533   3.473   2.062   4.835 -0.1275  0.1946  0.0234
 3483W        W 7534   8.085   7.082  12.216 -0.0734  0.2400 -0.2982
 3484W        W 7535   1.841   3.589  10.157 -0.1606  0.1393  0.1663
 3485W        W 7536   1.840   3.511  10.900 -0.0464 -0.3859 -0.1641
 3486W        W 7537   9.587   0.147  12.711 -0.0347  0.1534  0.0925
 3487W        W 7538   8.998   4.467  10.941 -0.0735 -0.1000  0.1633
 3488W        W 7539   3.274   4.975   1.790  0.0534 -0.0607 -0.2047
 3489W        W 7540   2.966   2.012   3.484  0.1802  0.0138 -0.3158
 3490W        W 7541   0.070   1.199  11.681 -0.1457 -0.3067  0.1300
 3491W        W 7542   7.053   9.334   1.876  0.0738 -0.3670  0.1536
 3492W        W 7543   9.701   7.771  12.558 -0.1447  0.3236  0.2566
 3493W        W 7544   1.226   8.441   1.959  0.0777  0.3505 -0.1679
 3494W        W 7545  10.072   4.817   2.383  0.0931 -0.0773  0.2142
 3495W        W 7546   9.004   1.353  10.169 -0.1574 -0.1923 -0.1986
 3496W        W 7547   5.529   1.708   1.108 -0.2873 -0.2968 -0.0530
 3497W        W 7548   3.160   3.604   9.461  0.0564  0.1873 -0.1580
 3498W        W 7549   6.078   5.494  12.050 -0.1767  0.2268 -0.1604
 3499W        W 7550   7.553   7.323  10.952 -0.2916 -0.1518  0.0500
 3500W        W 7551   2.936   0.458  13.801  0.1271 -0.2637 -0.1475
 3501W        W 7552   7.936   6.059   4.020  0.0339  0.1500  0.2135
 3502W        W 7553   7.258   4.245   4.677 -0.1421  0.0145 -0.1082
 3503W        W 7554   6.600   7.038  13.563  0.0149 -0.1583 -0.1898
 3504W        W 7555   6.383   4.778   0.635  0.3005  0.0844 -0.2025
 3505W        W 7556   2.429   4.223   2.270 -0.0383  0.1313  0.0236
 3506W        W 7557   6.974   6.010  11.008  0.1137 -0.1970  0.0236
 3507W        W 7558   2.598   0.131  10.099 -0.0560  0.1043 -0.0439
 3508W        W 7559   7.203   3.390  11.676 -0.1185 -0.0097 -0.1084
 3509W        W 7560   7.191   5.073   2.287  0.3662  0.1093  0.1561
 3510W        W 7561   3.652   5.551   4.256 -0.1068 -0.0149  0.2296
 3511W        W 7562  10.153   0.517   1.145  0.2666 -0.1227 -0.2240
 3512W        W 7563   7.545   5.615  11.755  0.1568  0.0303 -0.1036
 3513W        W 7564   8.910   1.782   0.837  0.1133  0.0465  0.1730
 3514W        W 7565   5.924   6.325  11.709 -0.1256 -0.1270  0.1276
 3515W        W 7566   4.684   7.733   4.751 -0.0362  0.1887  0.0616
 3516W        W 7567   3.449   2.473  12.709  0.0354 -0.1642 -0.0212
 3517W        W 7568   8.947   0.503   3.829 -0.0196 -0.2075 -0.0340
 3518W        W 7569   9.929   0.662  10.803 -0.0174  0.1162 -0.2620
 3519W        W 7570   5.819   1.470  13.492  0.2149  0.1456 -0.1267
 3520W        W 7571   9.718   5.790   3.726  0.1667  0.0374  0.4349
 3521W        W 7572   4.681   9.328  11.687 -0.1147 -0.0061  0.2089
 3522W        W 7573   6.534   4.246   3.379 -0.0269  0.0823  0.0715
 3523W        W 7574   1.723   4.069   1.306 -0.2712  0.0541 -0.1653
 3524W        W 7575   2.545   7.555  12.749 -0.2220 -0.3018 -0.1865
 3525W        W 7576  10.037   2.951  12.653 -0.1415  0.0155 -0.0489
 3526W        W 7577   8.545   5.649   9.223 -0.1194  0.0453 -0.2067
 3527W        W 7578   6.454   0.971   1.687  0.0984 -0.0372 -0.2886
 3528W        W 7579   8.154   5.622   0.118  0.0178 -0.1019 -0.1321
 3529W        W 7580   8.675   4.095  13.830 -0.0507  0.1795  0.1832
 3530W        W 7581   8.053   3.086  12.056 -0.2322  0.0276  0.1526
 3531W        W 7582   4.261   0.517   9.671  0.0363  0.2437 -0.1373
 3532W        W 7583   5.091   3.920  10.784 -0.1117  0.3383 -0.2265
 3533W        W 7584   5.839   4.872  13.885 -0.4041  0.1303  0.0094
 3534W        W 7585   2.606   3.448  13.181  0.0751 -0.1713  0.2193
 3535W        W 7586   1.116   0.843  10.140  0.0795  0.0264 -0.0918
 3536W        W 7587   5.768   5.139   0.357  0.2003 -0.1916  0.1213
 3537W        W 7588   2.379   3.102   3.611  0.0444 -0.0647  0.0327
 3538W        W 7589   2.574   9.243   1.475  0.0057  0.3363 -0.1526
 3539W        W 7590   8.130   3.393   0.828 -0.0005 -0.2121  0.0803
 3540W        W 7591   3.772   7.847   1.092  0.2312  0.0822 -0.0656
 3541W        W 7592   2.010   0.668   1.835  0.1124 -0.0651 -0.4180
 3542W        W 7593   1.479   4.536   1.316  0.4822 -0.0837 -0.3727
 3543W        W 7594   4.531   1.154   1.838  0.4254  0.1007  0.4416
 3544W        W 7595   1.123   5.160   9.437  0.0025  0.2559 -0.1661
 3545W        W 7596   4.553   3.451   9.744  0.0653  0.0230  0.0781
 3546W        W 7597   8.067   5.169  13.855  0.0292 -0.0757 -0.1953
 3547W        W 7598   0.277   1.396   1.535 -0.0096  0.3377  0.0397
 3548W        W 7599   4.249   5.832  11.011  0.2098  0.2343 -0.1885
 3549W        W 7600   4.500   1.514   4.236  0.1414 -0.2800 -0.1144
 3550W        W 7601   1.790   6.502  11.989 -0.0289  0.0452  0.3225
 3551W        W 7602   1.529   2.513  12.264 -0.2083 -0.2729  0.0985
 3552W        W 7603   4.079   5.613   2.489  0.2182  0.1419  0.2234
 3553W        W 7604   8.052   1.228   9.749  0.2062  0.1425  0.1272
 3554W        W 7605   8.155   6.055  12.369 -0.2665  0.0733  0.1582
 3555W        W 7606   8.354   5.076   2.400  0.2405  0.1671  0.2160
 3556W        W 7607   7.382   9.793   2.780  0.0095 -0.0866 -0.1692
 3557W        W 7608   3.226   5.805   4.424  0.0873  0.1284  0.0586
 3558W        W 7609   1.571   6.267   0.703  0.3767 -0.4251  0.0710
 3559W        W 7610   6.140   6.699  10.179 -0.1657 -0.1132 -0.2558
 3560W        W 7611   0.326   9.671   2.019 -0.1951 -0.0884  0.3848
 3561W        W 7612   6.941   1.119   1.646 -0.4237 -0.0239 -0.7161
 3562W        W 7613   4.171   8.443   0.786  0.0934  0.0835  0.0582
 3563W        W 7614   3.980   2.723   9.666 -0.0905 -0.2459  0.1442
 3564W        W 7615   4.711   5.776   4.076 -0.2188  0.0557  0.4028
 3565W        W 7616   3.073   4.300  13.789 -0.5617 -0.1263  0.0825
 3566W        W 7617   4.563   9.703  11.303  0.0788 -0.1450  0.0543
 3567W        W 7618   8.182   9.376  12.966  0.3680 -0.3651  0.2168
 3568W        W 7619   5.136   1.968   2.674 -0.0077 -0.0546  0.3097
 3569W        W 7620   5.577   5.806   0.805  0.0681  0.3035  0.0673
 3570W        W 7621   9.921   4.774  11.407 -0.0197 -0.1192 -0.0082
 3571W        W 7622   0.469   7.803   2.563  0.1307 -0.0971 -0.1166
 3572W        W 7623   4.959   7.081   9.834  0.1892 -0.3476 -0.1210
 3573W        W 7624   1.527   7.207  11.237  0.1204  0.0978 -0.0572
 3574W        W 7625   2.568   9.014  12.891  0.0829 -0.0365  0.0520
 3575W        W 7626   1.732   2.871   0.375  0.2431 -0.1055  0.0950
 3576W        W 7627   6.875   1.606  10.182  0.1606 -0.0655  0.1244
 3577W        W 7628  10.106   4.482   2.022 -0.1360 -0.1050  0.2326
 3578W        W 7629   8.318   0.481   3.077  0.2622  0.1627 -0.0058
 3579W        W 7630   6.309   5.950  11.780  0.1595 -0.2671  0.1434
 3580W        W 7631   9.297   5.369  13.934 -0.2905 -0.0564  0.1881
 3581W        W 7632   5.388   1.165   3.051 -0.1092  0.0173  0.1882
 3582W        W 7633   2.297   6.081   1.214 -0.0664 -0.2049  0.1232
 3583W        W 7634   4.398   1.565  11.853  0.0064  0.0497  0.0263
 3584W        W 7635   0.413  10.161   1.831 -0.2042 -0.2241 -0.2240
 3585W        W 7636   7.127   4.166   2.002  0.3430  0.0060  0.0180
 3586W        W 7637   4.147   2.960  10.619  0.0048  0.2052 -0.2818
 3587W        W 7638   3.326   2.778   5.550  0.4907 -0.2426  0.1051
 3588W        W 7639   1.505   1.621   1.514  0.0521  0.0539  0.1457
 3589W        W 7640   4.927   3.262   1.415 -0.1216 -0.1684 -0.1513
 3590W        W 7641   2.482   3.237   4.085  0.0090 -0.0417  0.0493
 3591W        W 7642   9.132   4.077  12.730  0.0445 -0.0911 -0.1787
 3592W        W 7643   7.716   3.912   9.556  0.0081 -0.0881 -0.0601
 3593W        W 7644   6.294   7.320   2.680  0.0981 -0.3523 -0.0425
 3594W        W 7645   4.992   3.418  10.629 -0.0460 -0.0779  0.1307
 3595W        W 7646   5.914   8.284   9.095  0.3377  0.3981 -0.0868
 3596W        W 7647   2.190   0.134  11.020 -0.0888  0.0610 -0.2245
 3597W        W 7648   5.157   1.632  11.922 -0.0609  0.0990  0.0482
 3598W        W 7649   5.010   5.824   4.884 -0.1920 -0.0342  0.1411
 3599W        W 7650   3.516   4.729   3.368  0.0778 -0.0454  0.2074
 3600W        W 7651   9.387   5.838   0.008  0.2641  0.0349  0.2781
 3601W        W 7652   7.750   0.647  11.594  0.1601  0.0783  0.2760
 3602W        W 7653   5.625   8.470  13.316  0.1361 -0.0007 -0.3538
 3603W        W 7654   5.089   1.375   9.827 -0.0080 -0.0736 -0.2084
 3604W        W 7655   7.711   5.873   0.298 -0.0250  0.2764  0.1335
 3605W        W 7656   4.414   9.133  10.400 -0.1506  0.0223  0.0287
 3606W        W 7657   2.025   8.747   1.607 -0.3116  0.1272  0.0470
 3607W        W 7658   9.403   8.804   3.352  0.3304  0.0767  0.2200
 3608W        W 7659   5.181   0.122   4.199 -0.0681  0.0385  0.3184
 3609W        W 7660   7.990   1.690   9.985 -0.1483  0.1651 -0.1026
 3610W        W 7661   3.799   3.445   4.895 -0.3424  0.0134  0.0545
 3611W        W 7662   2.780   8.728  10.988  0.2497  0.1594  0.1614
 3612W        W 7663   0.868   3.563  13.066  0.0908  0.0068  0.0885
 3613W        W 7664   8.767   1.193  13.937 -0.3197  0.1443  0.1448
 3614W        W 7665   1.028   2.833   2.907  0.1960  0.4682  0.0642
 3615W        W 7666   3.991  10.110   3.822  0.1226 -0.1673 -0.0390
 3616W        W 7667   8.157   6.556   3.927  0.0021 -0.2336  0.3032
 3617W        W 7668   2.663   6.475  11.576  0.1597 -0.0338  0.1880
 3618W        W 7669   5.160   7.742   9.014  0.1860  0.0740  0.1346
 3619W        W 7670   1.158   7.152  10.530  0.1454  0.1186  0.0455
 3620W        W 7671   1.932   4.767  10.555  0.0368 -0.1252  0.0457
 3621W        W 7672   2.529   4.338   2.824  0.0233 -0.0346 -0.0846
 3622W        W 7673   1.408   0.432   0.876  0.2658  0.1631 -0.2462
 3623W        W 7674   5.310   7.962   1.665 -0.1372  0.2460 -0.0993
 3624W        W 7675   2.797   6.403  13.388  0.1867  0.4102 -0.1118
 3625W        W 7676   7.210   1.674  12.327  0.0371 -0.2937 -0.1163
 3626W        W 7677   1.878   0.843   3.912 -0.1337  0.0205  0.1864
 3627W        W 7678   0.726   5.564  10.383 -0.0424  0.0906  0.0367
 3628W        W 7679   2.900   9.484  11.855 -0.0257 -0.3913  0.0585
 3629W        W 7680   3.088   3.073  11.629  0.0266  0.3267 -0.2898
 3630W        W 7681   8.108   0.382  11.912 -0.2268 -0.2035 -0.0793
 3631W        W 7682   4.415   9.194   0.440  0.0701  0.0565  0.1974
 3632W        W 7683   5.913   2.923  11.609 -0.3366  0.0287  0.2486
 3633W        W 7684   9.617   0.490   3.265 -0.0097  0.2220  0.2451
 3634W        W 7685   2.465   5.321   4.235 -0.0115  0.1181 -0.2395
 3635W        W 7686   5.328   7.106   4.509  0.1131 -0.1684  0.0643
 3636W        W 7687   3.800   4.372   1.905  0.0186 -0.2914 -0.0671
 3637W        W 7688   0.968   5.115  13.765 -0.1369  0.1152 -0.0489
 3638W        W 7689   1.363   6.307   1.215 -0.1548 -0.0189 -0.1392
 3639W        W 7690   5.179   2.214   4.759  0.0183 -0.2457  0.2250
 3640W        W 7691  10.151   2.192   1.646 -0.3500  0.1239  0.1703
 3641W        W 7692   5.201   2.180  13.523  0.0694 -0.0759  0.1670
 3642W        W 7693   7.632   4.485  10.892 -0.1251 -0.3363  0.3284
 3643W        W 7694   0.574   4.893   1.521 -0.0121 -0.0802 -0.4857
 3644W        W 7695   6.815   8.912   1.967  0.1577 -0.2171  0.4700
 3645W        W 7696   9.142   1.211  13.589  0.0221  0.1092  0.4675
 3646W        W 7697   8.894   6.356   2.063  0.0024 -0.2956 -0.0658
 3647W        W 7698   8.263   5.906  10.175 -0.1103  0.0005  0.0470
 3648W        W 7699   1.119   7.085  11.001 -0.0296 -0.1684  0.0898
 3649W        W 7700   9.272   8.745   2.419  0.2507 -0.0519 -0.0125
 3650W        W 7701  10.025  10.073  12.816 -0.0965 -0.0906 -0.1866
 3651W        W 7702   3.822   9.167   3.931 -0.0056 -0.1431  0.2862
 3652W        W 7703   0.262   2.649   2.174 -0.1863  0.1147 -0.2136
 3653W        W 7704   1.789   7.593   9.721 -0.1373  0.1898 -0.1075
 3654W        W 7705   2.345   3.610  12.724  0.1915  0.0819  0.1536
 3655W        W 7706   7.044   9.237   3.617  0.2438 -0.2263 -0.2030
 3656W        W 7707   9.775   2.228   4.072 -0.0008 -0.0926  0.0797
 3657W        W 7708   5.369   2.751   0.394  0.2674 -0.1290 -0.0238
 3658W        W 7709   3.682   3.477  13.644  0.1602 -0.1491  0.3094
 3659W        W 7710   3.160   8.311  12.734  0.0654  0.2530  0.0604
 3660W        W 7711   8.203   0.414  13.410  0.0813  0.1513  0.0117
 3661W        W 7712   0.772   2.781   9.611 -0.0147  0.0878 -0.1902
 3662W        W 7713   8.167   4.220   3.620 -0.0911  0.1717 -0.1790
 3663W        W 7714   6.172   8.919   1.037  0.0354  0.2621  0.2286
 3664W        W 7715   2.083   2.699   8.858 -0.0182 -0.1736 -0.5934
 3665W        W 7716  10.098   6.062  10.934  0.2350  0.0540  0.1771
 3666W        W 7717   8.015   4.648  10.027 -0.0697  0.0528  0.5503
 3667W        W 7718   8.541   1.743  11.393  0.0890  0.2739 -0.0382
 3668W        W 7719   7.986   8.602  10.726  0.1054 -0.0819 -0.0118
 3669W        W 7720   9.906   1.490   3.831 -0.0252  0.1440 -0.2097
 3670W        W 7721   1.309   5.655   9.298 -0.1721 -0.1482  0.3311
 3671W        W 7722   4.905   0.164  11.709  0.0906 -0.2780 -0.1707
 3672W        W 7723   2.454   7.580   0.139 -0.0867  0.0228  0.0242
 3673W        W 7724   1.177   7.107   3.006 -0.0471  0.2207  0.1617
 3674W        W 7725   9.186   2.597   8.649  0.2952  0.0398 -0.1686
 3675W        W 7726   3.730   0.855   2.513  0.0924 -0.0812  0.1226
 3676W        W 7727   7.970   0.461  13.833  0.1939 -0.4826  0.0542
 3677W        W 7728   3.624   6.767   1.480  0.0009  0.2142 -0.1153
 3678W        W 7729   8.635   7.043  13.063 -0.1119 -0.1315  0.3946
 3679W        W 7730   1.953   4.570   1.141 -0.0455 -0.3532 -0.2023
 3680W        W 7731   3.392  10.040   9.830 -0.1883  0.1665  0.0513
 3681W        W 7732   5.499   3.017   9.060 -0.0964 -0.3942  0.0232
 3682W        W 7733   9.638   5.513   4.127  0.1401  0.0564  0.2156
 3683W        W 7734   4.325   9.272  12.119 -0.1520  0.0220 -0.1396
 3684W        W 7735   0.689   9.254   1.311 -0.0161 -0.0435 -0.2212
 3685W        W 7736   5.852   5.422  13.931  0.3232  0.2601  0.1049
 3686W        W 7737   9.677   4.152   3.531  0.0636 -0.4314  0.0961
 3687W        W 7738   2.649   7.776   0.664 -0.0812 -0.0485 -0.0090
 3688W        W 7739   5.545   2.808   2.061 -0.1991  0.0289 -0.3085
 3689W        W 7740   9.845   3.661   1.089  0.3070  0.3071  0.0379
 3690W        W 7741   0.696   3.443   4.330  0.0254  0.4293  0.2255
 3691W        W 7742   2.985   7.341   2.529  0.0500 -0.1663  0.0444
 3692W        W 7743   1.922   7.442  12.106  0.2557  0.2608  0.1848
 3693W        W 7744   6.547   0.020   9.896  0.1118  0.0888 -0.1016
 3694W        W 7745   5.764   6.550  11.298 -0.1184 -0.2031 -0.1824
 3695W        W 7746   3.624   9.476   0.937 -0.0423  0.2045 -0.0332
 3696W        W 7747   7.718   0.840   0.978 -0.1861 -0.1263  0.2176
 3697W        W 7748   9.764   5.118  11.704  0.0539  0.1058 -0.0574
 3698W        W 7749   7.763   5.669   3.777 -0.0973  0.1693  0.3477
 3699W        W 7750   2.724   0.238  11.341 -0.2271 -0.0739  0.2827
 3700W        W 7751   6.036   4.086   0.028 -0.0880 -0.0184  0.2319
 3701W        W 7752   3.901   8.737  11.474  0.1575  0.1170  0.2372
 3702W        W 7753   3.230   5.767   5.558 -0.0153  0.3415  0.1493
 3703W        W 7754   5.612   3.579  11.297 -0.0873 -0.5149  0.0181
 3704W        W 7755   5.196   1.897   9.310  0.2189 -0.1510  0.0812
 3705W        W 7756   4.407   0.765  12.731  0.4195 -0.0814  0.1028
 3706W        W 7757   2.335  10.173   5.507  0.0903  0.1006 -0.3269
 3707W        W 7758   3.317   8.138   1.092 -0.0834  0.1855 -0.0824
 3708W        W 7759   2.124   5.668   9.064  0.3274 -0.0547 -0.0713
 3709W        W 7760   4.070   5.625   4.961 -0.2594  0.0341 -0.2654
 3710W        W 7761   0.628   7.410   2.238 -0.1885 -0.0160 -0.1329
 3711W        W 7762   3.537   2.593  11.135 -0.2683 -0.1091  0.0731
 3712W        W 7763   5.954   0.357  10.547 -0.1095  0.0127 -0.1068
 3713W        W 7764   0.794   4.077   0.919 -0.0037 -0.0339  0.0443
 3714W        W 7765   5.771   5.353  10.626 -0.0342 -0.0567  0.1232
 3715W        W 7766   8.856   7.804   3.721  0.0098 -0.0697 -0.0407
 3716W        W 7767   0.929  10.083   9.641 -0.0514  0.2413  0.1844
 3717W        W 7768   0.362   1.697   3.621  0.1676 -0.1626 -0.1269
 3718W        W 7769   2.415   1.909  12.172  0.1484 -0.2283  0.3018
 3719W        W 7770   3.233   3.748   9.990  0.0350 -0.2438  0.3521
 3720W        W 7771   6.837   2.011   0.573 -0.1772  0.0904  0.5397
 3721W        W 7772   1.948   1.812   4.433 -0.2320 -0.0839  0.2681
 3722W        W 7773   9.936   0.375   2.839  0.2191 -0.2408 -0.1944
 3723W        W 7774   2.685   8.420   1.051 -0.0903 -0.1224  0.1166
 3724W        W 7775   8.496   3.387   1.205 -0.0678  0.0765 -0.2086
 3725W        W 7776   4.798   7.849  11.556  0.0773  0.2975  0.1002
 3726W        W 7777   7.580   4.887   8.640 -0.0483  0.1258  0.0360
 3727W        W 7778   6.974   8.273  12.076 -0.2832 -0.1403  0.0057
 3728W        W 7779   0.918   7.937   2.825  0.4066 -0.1227 -0.0275
 3729W        W 7780   3.948   4.244   2.869  0.2617  0.2108 -0.1887
 3730W        W 7781   1.213   8.476  10.092 -0.0578  0.2235  0.1358
 3731W        W 7782   0.394   3.325   1.384 -0.1683  0.2592  0.1951
 3732W        W 7783   2.086   5.270   9.329  0.3278  0.1315 -0.0234
 3733W        W 7784   6.726   2.367   9.855 -0.2525 -0.1030  0.0344
 3734W        W 7785  10.058   7.022  11.343 -0.4808 -0.0951  0.0667
 3735W        W 7786   6.504   4.923   8.758  0.2434 -0.0881 -0.2571
 3736W        W 7787   6.575   7.509  11.063 -0.0381  0.0351 -0.1369
 3737W        W 7788   0.813   1.672  11.641 -0.5426  0.2094  0.1281
 3738W        W 7789   2.120   3.117   4.479  0.1643  0.0593 -0.3141
 3739W        W 7790   0.336   1.244   4.046 -0.1345  0.0272  0.1595
 3740W        W 7791   5.193   7.631   3.728 -0.1513  0.3013  0.1742
 3741W        W 7792   0.850   6.492  12.587  0.1267 -0.2768 -0.0285
 3742W        W 7793   9.593   9.941   3.988  0.3005 -0.2434  0.1536
 3743W        W 7794   7.493  10.043   9.907 -0.2016 -0.0027  0.0239
 3744W        W 7795   8.341   7.360   2.033  0.2301 -0.2260  0.1932
 3745W        W 7796   7.352   6.934  11.904 -0.1108  0.2836  0.2228
 3746W        W 7797   2.707   6.713   4.777 -0.0381  0.0078 -0.1010
 3747W        W 7798   5.656   5.760  13.071 -0.0803 -0.2550 -0.1077
 3748W        W 7799   0.648   9.760  13.005 -0.1565  0.0088  0.0774
 3749W        W 7800   1.387   7.996   1.084  0.3111 -0.2980  0.2221
 3750W        W 7801   6.708   1.416   2.043 -0.0560 -0.0664  0.1977
 3751W        W 7802   9.703   5.124   9.741 -0.2284 -0.0220 -0.1176
 3752W        W 7803   1.198   9.166   1.333 -0.1473  0.2771 -0.4310
 3753W        W 7804   5.152   7.559   4.286  0.1848 -0.0279  0.1476
 3754W        W 7805   7.702   4.907   4.286 -0.0079 -0.1277 -0.3259
 3755W        W 7806   7.470   8.016  10.268 -0.2519 -0.0503 -0.0704
 3756W        W 7807   9.236   0.805   9.945  0.0976  0.2422 -0.0013
 3757W        W 7808   6.276  10.146  11.887  0.1670 -0.1330  0.1076
 3758W        W 7809   6.911   4.437  10.564  0.2030  0.3565 -0.3037
 3759W        W 7810   5.171   4.648   3.493  0.0411 -0.0851  0.1880
 3760W        W 7811   2.961   2.079  12.086  0.2250 -0.0609  0.0132
 3761W        W 7812   6.351   0.799  11.932 -0.1017 -0.1009  0.4463
 3762W        W 7813   6.667   5.620   2.908  0.2064  0.2639 -0.2178
 3763W        W 7814   7.771   8.913  11.110  0.2518 -0.0721 -0.0919
 3764W        W 7815   2.228   4.223   1.464  0.0202 -0.0965 -0.0162
 3765W        W 7816   2.105   5.840  10.434  0.4538  0.1256 -0.1906
 3766W        W 7817   4.251   0.982   2.736  0.2654  0.2427 -0.4292
 3767W        W 7818   4.370   5.124   1.194 -0.2131 -0.2806  0.2485
 3768W        W 7819   0.140   0.043   2.799 -0.1405  0.2106  0.3973
 3769W        W 7820   3.770   7.531   4.601 -0.1573  0.2337  0.1678
 3770W        W 7821   4.004   5.113   5.007 -0.2898 -0.1144 -0.0504
 3771W        W 7822   6.692   7.297   3.529 -0.3422 -0.0676  0.0783
 3772W        W 7823   7.281   4.881  12.286 -0.0812 -0.0230  0.3248
 3773W        W 7824   9.739   1.300   9.295  0.1096 -0.1800  0.1174
 3774W        W 7825   4.624   4.487   1.150 -0.0017 -0.2675 -0.1320
 3775W        W 7826   2.845   2.490   0.790  0.0723 -0.1274  0.0065
 3776W        W 7827   3.450   0.782   5.543  0.1278 -0.2068 -0.2873
 3777W        W 7828   8.773   4.843   2.475  0.0494 -0.1698  0.1214
 3778W        W 7829   4.611   9.296  10.987 -0.0657 -0.0049  0.0042
 3779W        W 7830   6.726   9.156   3.191 -0.1645  0.0115  0.1576
 3780W        W 7831  10.143   5.389   1.675  0.0817 -0.1220 -0.2406
 3781W        W 7832   8.963   0.031   1.302 -0.0969 -0.0472 -0.1739
 3782W        W 7833   0.107   9.041  13.432  0.2600  0.1035 -0.4024
 3783W        W 7834   6.752   3.437   2.487 -0.2872 -0.0201 -0.0220
 3784W        W 7835   9.305   0.218  10.545 -0.0426 -0.6162 -0.0587
 3785W        W 7836   5.456   4.089   0.820 -0.1259  0.2269 -0.1690
 3786W        W 7837   4.003   0.788  11.392 -0.0137 -0.0327  0.1613
 3787W        W 7838   6.968   5.247   0.810  0.2152  0.1728 -0.0213
 3788W        W 7839   1.015   0.936   3.067 -0.1552  0.0645  0.3841
 3789W        W 7840   1.158   5.921   3.026 -0.0775  0.2382  0.1342
 3790W        W 7841   8.449   1.741   9.667 -0.3136 -0.1709 -0.1713
 3791W        W 7842   0.466   1.606  10.069 -0.0660 -0.2885 -0.0845
 3792W        W 7843   5.937   7.215   5.476 -0.0973 -0.2857  0.0233
 3793W        W 7844   4.844   5.061   2.728 -0.3180  0.1411  0.1883
 3794W        W 7845   4.141   4.052   3.283  0.1201 -0.3557 -0.2139
 3795W        W 7846   8.956   5.018   1.686 -0.0845  0.1736 -0.0352
 3796W        W 7847   7.953   9.386   9.894 -0.1206  0.0112 -0.2163
 3797W        W 7848   6.202   2.879   3.352  0.0687  0.0280 -0.1310
 3798W        W 7849   8.483   0.370   2.607  0.1433  0.2602  0.0315
 3799W        W 7850   0.389   8.206   3.061  0.0792  0.1399  0.0529
 3800W        W 7851   3.439   4.229   3.894 -0.2472  0.0833  0.2609
 3801W        W 7852   4.244   3.671   2.061  0.1839 -0.0749 -0.3250
 3802W        W 7853   5.195   5.961  12.830 -0.0428  0.1372 -0.0702
 3803W        W 7854   8.406   2.439  13.020  0.0738 -0.4995 -0.1550
 3804W        W 7855   7.852   5.662   2.481 -0.1173  0.0007  0.0554
 3805W        W 7856   5.099   2.031   0.204  0.1428 -0.0863 -0.0246
 3806W        W 7857   2.645   6.838   3.912  0.1593 -0.2383  0.0751
 3807W        W 7858   2.912  10.114   1.949 -0.1002 -0.0156 -0.1792
 3808W        W 7859   4.707   8.836   4.717 -0.0059  0.2481 -0.1195
 3809W        W 7860   1.526   6.410  10.756 -0.0054  0.2114  0.0346
 3810W        W 7861   4.399   0.630   5.518  0.1141 -0.0189  0.3716
 3811W        W 7862   3.661   1.001   1.105 -0.0855 -0.2059 -0.0979
 3812W        W 7863   3.218   6.961  10.100 -0.0010  0.3759  0.0504
 3813W        W 7864   0.168   4.064   4.755 -0.0950  0.0692 -0.1316
 3814W        W 7865   0.892   3.957  10.077 -0.2926 -0.5315 -0.0504
 3815W        W 7866   0.863   6.566  13.389 -0.0194 -0.0280 -0.1584
 3816W        W 7867   7.627   5.448   0.773  0.3153  0.0763 -0.1231
 3817W        W 7868   9.081   3.975  11.746  0.0230  0.1773 -0.1196
 3818W        W 7869   3.007   5.651  11.456 -0.1514 -0.3043  0.1331
 3819W        W 7870   0.945   7.814   0.657 -0.2116 -0.4167 -0.2172
 3820W        W 7871   2.089   5.414  11.399 -0.0546 -0.4096 -0.2264
 3821W        W 7872   4.764   6.965  12.818  0.3771  0.0409 -0.1796
 3822W        W 7873   8.214   8.606   3.872  0.1407 -0.1652 -0.3399
 3823W        W 7874   9.553   9.733   3.418  0.0893  0.0342 -0.1393
 3824W        W 7875   8.429   8.496  11.668  0.0399 -0.0304  0.1326
 3825W        W 7876   8.685   2.821   2.298 -0.0561 -0.0933 -0.1849
 3826W        W 7877   7.583   5.078   1.903  0.0053 -0.1609 -0.0116
 3827W        W 7878   2.139   8.857  12.046 -0.1002  0.0516  0.2576
 3828W        W 7879   1.214   2.378   1.092  0.1616 -0.0432  0.2698
 3829W        W 7880   9.768   1.040   3.156  0.1146 -0.1301 -0.0671
 3830W        W 7881   7.591   3.908   3.130  0.1526 -0.2941 -0.0761
 3831W        W 7882   4.593   9.201   2.992  0.0422 -0.1476  0.0007
 3832W        W 7883   8.352   0.136  13.805 -0.2985  0.1126 -0.0786
 3833W        W 7884   2.603   2.832   1.039  0.1336 -0.1023  0.0606
 3834W        W 7885   1.502   3.965  11.054  0.0948 -0.0397 -0.0214
 3835W        W 7886   3.202   2.249  13.814 -0.0580  0.2068 -0.0590
 3836W        W 7887   7.613   3.798  13.247  0.2944 -0.2845  0.0201
 3837W        W 7888   3.299   3.860  13.710 -0.2053  0.1541  0.2918
 3838W        W 7889   5.760  10.115   0.547 -0.0113  0.2460 -0.1420
 3839W        W 7890   2.504   6.037  12.318 -0.2862 -0.3808 -0.2118
 3840W        W 7891   3.492   3.972  10.820  0.2186 -0.1908 -0.4861
 3841W        W 7892   8.476   1.863  13.211  0.4043 -0.0478  0.0316
 3842W        W 7893   2.593   9.445   0.967 -0.2080 -0.2596  0.0934
 3843W        W 7894   0.181   9.751   4.026 -0.0192  0.1824  0.0406
 3844W        W 7895   4.774   3.841  10.400  0.1850  0.0459  0.0227
 3845W        W 7896   4.973   7.106  10.736  0.1120  0.0596 -0.2815
 3846W        W 7897   5.537   3.197   4.603 -0.1542 -0.0539 -0.1032
 3847W        W 7898   6.420   2.503  13.318  0.0309 -0.2159 -0.1392
 3848W        W 7899   0.952   9.858  11.881 -0.1210 -0.0020 -0.0202
 3849W        W 7900   1.861   9.203   1.527  0.3619 -0.0156 -0.1909
 3850W        W 7901   4.550   0.386   1.558 -0.1437  0.1038  0.0815
 3851W        W 7902   2.832   3.821  13.847 -0.1662  0.2330  0.1402
 3852W        W 7903   9.692   1.528   4.656 -0.2786  0.0211 -0.3181
 3853W        W 7904   9.265   6.434  12.849  0.2938  0.1306 -0.1362
 3854W        W 7905   9.595   3.270  12.710 -0.3402 -0.2989  0.1514
 3855W        W 7906   9.479   7.648  11.189  0.0212  0.0678 -0.0730
 3856W        W 7907   6.549   8.306   2.743  0.0516 -0.0029 -0.0053
 3857W        W 7908   2.968   5.172  11.204 -0.1108  0.0896 -0.0675
 3858W        W 7909   1.230   1.663   0.144 -0.0366 -0.1458  0.0154
 3859W        W 7910   6.820   5.981  11.861 -0.2805  0.0275  0.1242
 3860W        W 7911   1.467   6.405   5.473  0.1737 -0.1826  0.1346
 3861W        W 7912   1.162   5.417   0.406  0.0678 -0.1772 -0.1774
 3862W        W 7913   8.981   0.423  12.644 -0.0858 -0.2865 -0.0671
 3863W        W 7914   4.221   1.661   0.371  0.0475  0.2686 -0.0791
 3864W        W 7915   3.680   0.035   3.469  0.1525  0.0537 -0.2721
 3865W        W 7916   3.020   2.796   1.296  0.0965  0.0679 -0.0383
 3866W        W 7917   6.370   5.920   2.563  0.2908 -0.0047 -0.2546
 3867W        W 7918   4.564   1.353  11.174 -0.0361 -0.0481  0.0737
 3868W        W 7919   3.209   9.315  10.325  0.2508  0.1261 -0.0514
 3869W        W 7920   7.010   5.929   2.948 -0.1911 -0.1074  0.2207
 3870W        W 7921   1.174   5.119  12.015 -0.1015  0.0144  0.0458
 3871W        W 7922   7.578   1.160  13.553  0.1008 -0.1001 -0.1084
 3872W        W 7923   4.514   6.024  10.488 -0.1171  0.2445  0.0775
 3873W        W 7924   8.441   4.082   2.287  0.2480  0.1596  0.1564
 3874W        W 7925   5.247   5.505  10.782  0.2777 -0.1253 -0.0731
 3875W        W 7926   7.207   3.918   9.541  0.1292 -0.0473 -0.2447
 3876W        W 7927   3.544   1.965   5.340 -0.2177 -0.2695  0.0319
 3877W        W 7928   3.624   5.360   4.724  0.1068 -0.0356  0.0150
 3878W        W 7929   6.159   3.597   8.858  0.0603  0.1767 -0.0516
 3879W        W 7930   2.639   2.664   9.745  0.0833  0.1387 -0.0816
 3880W        W 7931   4.509   9.736   2.987  0.3681  0.0734 -0.1956
 3881W        W 7932   6.474   6.365  13.207  0.0760  0.0476  0.2122
 3882W        W 7933   9.363   1.683  11.714 -0.0660  0.1282  0.2840
 3883W        W 7934   3.847   0.165   4.619 -0.0538 -0.0480  0.3867
 3884W        W 7935   6.689   5.884  10.131 -0.0259 -0.2279 -0.0863
 3885W        W 7936   4.619   7.435  11.331  0.1497 -0.1087  0.0107
 3886W        W 7937   3.698   3.001  10.356 -0.1307 -0.2703 -0.5369
 3887W        W 7938   1.503   0.899  11.457  0.0925  0.0837 -0.0384
 3888W        W 7939   9.481   1.703   8.855  0.1187  0.2721  0.0280
 3889W        W 7940   8.701   6.005   9.908 -0.3830  0.1580 -0.2765
 3890W        W 7941   1.528   5.768   2.007  0.1482  0.1484 -0.4009
 3891W        W 7942   9.602   2.820   2.334 -0.3020 -0.2630  0.0434
 3892W        W 7943   3.580   6.190   0.966  0.0778  0.1584 -0.2011
 3893W        W 7944   6.806   8.326  11.512 -0.0704 -0.0252 -0.1005
 3894W        W 7945   1.351   5.448  13.773 -0.1237 -0.2724 -0.3333
 3895W        W 7946   8.872   1.031  11.858  0.1091  0.0085  0.1593
 3896W        W 7947   0.129   6.008  11.989  0.2263  0.0906 -0.2741
 3897W        W 7948   1.098   2.577  10.243 -0.3308  0.1178  0.0829
 3898W        W 7949   4.002   1.843  12.132 -0.2511  0.0743 -0.1525
 3899W        W 7950   7.678   4.713  11.358  0.2070 -0.1413 -0.1661
 3900W        W 7951   1.693   7.238  13.688  0.1858 -0.5031  0.0322
 3901W        W 7952   6.012   8.674  11.456 -0.0919 -0.2680 -0.1244
 3902W        W 7953   8.269   2.949  10.087  0.0998 -0.0572 -0.1469
 3903W        W 7954   5.232   6.212   1.649  0.1307  0.2361  0.2635
 3904W        W 7955   7.827   7.663   2.665 -0.1248  0.0676 -0.1898
 3905W        W 7956   8.526   9.225  10.652  0.0166 -0.1554  0.0992
 3906W        W 7957   0.734   4.155  13.828  0.3532 -0.4475  0.2042
 3907W        W 7958   7.624   0.934   1.795  0.2761  0.4511 -0.0683
 3908W        W 7959   6.290   9.089  11.267 -0.0660 -0.2453  0.1563
 3909W        W 7960   4.165   4.143   1.565 -0.1001  0.2879  0.0842
 3910W        W 7961   9.542   3.987  12.017  0.1849  0.0258  0.1184
 3911W        W 7962  10.111   4.085   0.328  0.0531  0.0194 -0.0389
 3912W        W 7963   9.284   4.185  13.785 -0.0298 -0.1998  0.3209
 3913W        W 7964   1.734   2.423   9.446 -0.1774 -0.2305  0.0382
 3914W        W 7965   7.386   0.815  12.243  0.0485 -0.0518  0.0632
 3915W        W 7966   3.720   0.319  12.260 -0.1583 -0.1827  0.2159
 3916W        W 7967   3.433   5.684  13.738 -0.0080 -0.2777  0.1392
 3917W        W 7968   3.164   0.913   9.800 -0.0353  0.0464 -0.1330
 3918W        W 7969   4.848   3.814   4.100 -0.2226 -0.0274  0.0353
 3919W        W 7970   5.672   0.497   1.248  0.0054  0.1280  0.0547
 3920W        W 7971   7.647   1.684  11.823  0.4522  0.1765 -0.0286
 3921W        W 7972   5.789   3.091  11.003  0.1872  0.2550  0.1129
 3922W        W 7973   8.023   5.708  11.562 -0.0530  0.0415 -0.1561
 3923W        W 7974   1.412  10.093  11.894  0.3172 -0.1837  0.4525
 3924W        W 7975   9.279   3.515  13.879  0.3042  0.0111 -0.0863
 3925W        W 7976   2.570   6.836  11.191 -0.0026  0.2420 -0.1474
 3926W        W 7977   9.871   7.924  10.960 -0.1922 -0.1807  0.2059
 3927W        W 7978  10.116   8.085  13.227  0.2466  0.1092 -0.5968
 3928W        W 7979   4.544   5.844   5.190  0.1151 -0.0199  0.0345
 3929W        W 7980   1.713  10.056  13.923  0.1823  0.0616  0.0828
 3930W        W 7981   6.403   8.151  11.038 -0.2035 -0.0664  0.0656
 3931W        W 7982   5.881   1.268   4.846  0.1770 -0.3762 -0.0807
 3932W        W 7983   9.553  10.127  11.362  0.0995 -0.1020  0.3032
 3933W        W 7984   6.461   4.411   9.377 -0.3159 -0.0788  0.0358
 3934W        W 7985   1.293   6.718  11.231  0.0218 -0.2334  0.0485
 3935W        W 7986   0.292   0.418   2.083  0.3201 -0.2093  0.2498
 3936W        W 7987   1.376   4.712  13.170 -0.2192  0.1282 -0.0598
 3937W        W 7988   3.031   1.721  13.551  0.2156  0.0487 -0.2132
 3938W        W 7989   4.053   9.920   4.893  0.2197  0.0937 -0.3539
 3939W        W 7990   6.439   7.804   2.747  0.0427 -0.0526  0.0967
 3940W        W 7991   6.766   1.641  13.880  0.2624 -0.0552 -0.0152
 3941W        W 7992   0.388   6.511  13.797 -0.0245 -0.0992 -0.1125
 3942W        W 7993   4.223   1.567   5.145  0.2359 -0.0160 -0.1086
 3943W        W 7994   0.144   4.090  12.657  0.1282  0.1473 -0.2022
 3944W        W 7995   1.163   4.821  12.672 -0.1514 -0.0159 -0.3235
 3945W        W 7996   6.641   4.358  13.363  0.0480  0.1994 -0.0913
 3946W        W 7997   4.337   4.506  13.062 -0.3718 -0.2707 -0.1282
 3947W        W 7998   5.817   1.346   0.064 -0.0502  0.0497  0.1433
 3948W        W 7999   7.987   9.288   2.541  0.0700  0.3397  0.2012
 3949W        W 8000   4.745   9.925   2.134  0.0744  0.2321 -0.5354
 3950W        W 8001   4.264   5.097   1.786  0.1580 -0.0635  0.0065
 3951W        W 8002   6.589   7.301   0.047 -0.0642  0.1236  0.0534
 3952W        W 8003   2.064   1.753  10.196 -0.2762  0.2473 -0.0516
 3953W        W 8004   4.789   6.126  12.659 -0.2884 -0.3090  0.0612
 3954W        W 8005   0.687   8.763  10.535  0.2598 -0.0524 -0.0752
 3955W        W 8006   3.592   5.728   2.258  0.0301  0.0239  0.1104
 3956W        W 8007   9.634   2.272   0.281  0.2324  0.1731 -0.2099
 3957W        W 8008   5.730   9.817   1.865  0.1087  0.0527  0.0472
 3958W        W 8009   8.428   8.605   9.923 -0.0396  0.0338  0.0027
 3959W        W 8010   3.684   4.001   1.353  0.0366 -0.0486  0.0530
 3960W        W 8011   0.173   3.971   9.695 -0.2746  0.1985  0.0712
 3961W        W 8012   3.621   1.462  12.271 -0.1504 -0.0743  0.0301
 3962W        W 8013   8.477   2.286   9.463  0.1565  0.2710 -0.0233
 3963W        W 8014   2.442   1.237  12.746 -0.1832 -0.1435  0.1256
 3964W        W 8015   7.176   2.847   0.988  0.0968  0.1656  0.1653
 3965W        W 8016   6.038   8.005   1.301  0.1173 -0.0399 -0.0149
 3966W        W 8017   3.390   1.718  13.940 -0.2933  0.2994  0.1536
 3967W        W 8018   4.589   5.055  13.815 -0.0446 -0.0430 -0.1216
 3968W        W 8019   1.187   6.090   1.737 -0.0243  0.0766 -0.2347
 3969W        W 8020   8.122   7.902  11.341 -0.2300  0.2137 -0.1122
 3970W        W 8021   0.326   8.772   2.003  0.1705  0.1986  0.0697
 3971W        W 8022   8.334   5.169  12.879  0.0524  0.0478 -0.1345
 3972W        W 8023   1.684   0.095   4.434 -0.0491 -0.3587 -0.2341
 3973W        W 8024   5.161   2.591  11.886  0.2493 -0.0124 -0.0341
 3974W        W 8025   1.018   1.043   2.129  0.0459  0.1256 -0.0949
 3975W        W 8026   9.955   7.037  12.254  0.1466  0.0068  0.1706
 3976W        W 8027   8.300   7.300   9.550 -0.2162  0.1634  0.1786
 3977W        W 8028   2.419   9.999  10.545 -0.0091  0.3244  0.0462
 3978W        W 8029   1.516   4.537  12.356 -0.2104  0.3312 -0.2567
 3979W        W 8030   3.838   3.010  13.060 -0.1313  0.0377  0.1980
 3980W        W 8031  10.068   1.022   4.029  0.1680  0.0522 -0.1021
 3981W        W 8032   8.734   8.688  12.695  0.1619 -0.1413 -0.2653
 3982W        W 8033   8.198   9.072   0.735 -0.1874 -0.0468 -0.1770
 3983W        W 8034   6.710   9.767   9.378 -0.0121 -0.2003 -0.1639
 3984W        W 8035   4.699   7.491   1.075 -0.0949  0.0564  0.1748
 3985W        W 8036   8.258   4.316  12.222 -0.0723 -0.0991  0.0641
 3986W        W 8037   5.556   6.715  12.875  0.2521 -0.1429 -0.2225
 3987W        W 8038   4.105   5.834  10.146 -0.0963  0.0358 -0.4341
 3988W        W 8039   3.199   7.060   1.265 -0.0606 -0.0688  0.1418
 3989W        W 8040   4.380   1.640   1.928  0.1811  0.1345  0.3408
 3990W        W 8041   3.015   4.753   9.870  0.2218 -0.3480 -0.0265
 3991W        W 8042   5.445   4.194   4.573  0.1471 -0.1675  0.0027
 3992W        W 8043   4.895   7.286  13.292 -0.0383  0.0383 -0.1301
 3993W        W 8044   9.955   4.935   0.390 -0.1474  0.0438 -0.2242
 3994W        W 8045   9.676   1.054   0.638  0.2034 -0.0047  0.0358
 3995W        W 8046   1.398   7.211   0.714 -0.1615  0.1924  0.0692
 3996W        W 8047   5.782   3.953   3.287  0.1791 -0.0509  0.1846
 3997W        W 8048   5.518   7.075   5.714  0.0486 -0.2342 -0.1360
 3998W        W 8049   6.643   8.021   0.532 -0.0762  0.1657  0.0704
 3999W        W 8050   0.887   2.265   3.435  0.1265 -0.2973  0.3433
 4000W        W 8051   8.480   4.905  10.217 -0.2648  0.2233 -0.0461
 4001W        W 8052   4.325   8.084   1.836  0.1800  0.3227  0.3394
 4002W        W 8053   2.627   0.856   5.023 -0.1996 -0.0282 -0.0639
 4003W        W 8054   4.596   6.617  11.849 -0.2056 -0.3901 -0.0856
 4004W        W 8055   0.594   6.047  11.742 -0.1247  0.0693  0.3177
 4005W        W 8056   8.089   3.374   1.828 -0.0129  0.3286 -0.0900
 4006W        W 8057   6.772   2.989   9.922  0.1405  0.1248 -0.1618
 4007W        W 8058   4.946   3.537   2.714 -0.1897 -0.0262 -0.0895
 4008W        W 8059   8.428   5.637   9.725  0.1000  0.0306 -0.1000
 4009W        W 8060   0.315   8.542  11.293 -0.1028 -0.0424  0.0565
 4010W        W 8061   4.084   5.660  12.446 -0.0383 -0.2770  0.0208
 4011W        W 8062   7.302   7.271  10.123 -0.1095  0.0731  0.1186
 4012W        W 8063   8.348   9.073   3.126 -0.0595 -0.4190  0.0849
 4013W        W 8064   0.021   4.739   5.196  0.1503  0.1196  0.2310
 4014W        W 8065   1.536   5.185   1.966 -0.2874  0.1794  0.1818
 4015W        W 8066   1.031   8.392  13.962  0.0498  0.0347  0.5334
 4016W        W 8067   5.006   8.599  12.138  0.0951 -0.2171 -0.1284
 4017W        W 8068   5.402   9.133  12.125 -0.1246  0.0372 -0.2685
 4018W        W 8069   6.181   0.432  11.631  0.2834  0.1322 -0.1480
 4019W        W 8070   1.765   2.436   0.910 -0.1536 -0.0323  0.0973
 4020W        W 8071   2.279   8.462  10.040  0.1248  0.3837  0.3498
 4021W        W 8072   5.023   0.755   0.694 -0.1270 -0.0405 -0.0925
 4022W        W 8073   9.473   8.921  13.048  0.0913  0.1887  0.3982
 4023W        W 8074   7.259   1.123   2.996  0.0628  0.4032  0.2121
 4024W        W 8075   1.148   1.348   1.717 -0.0741  0.1146 -0.0046
 4025W        W 8076   2.346   5.959   2.965  0.1138  0.1560 -0.0099
 4026W        W 8077   4.344   0.948  11.030 -0.0160  0.2475  0.3083
 4027W        W 8078   2.609  10.014   8.946 -0.1618  0.0070 -0.1367
 4028W        W 8079   8.676   9.908   0.442 -0.1604 -0.3661  0.4071
 4029W        W 8080   8.002   5.880   1.600  0.0193  0.2026 -0.3859
 4030W        W 8081   9.391   7.162   1.307 -0.0085 -0.0799  0.2502
 4031W        W 8082   4.685   8.552  13.147 -0.1482  0.0991 -0.1737
 4032W        W 8083   1.942   9.274  10.221  0.3781  0.3114  0.1072
 4033W        W 8084   1.861   8.005   2.792 -0.3896  0.0741 -0.0675
 4034W        W 8085   4.296   7.259   1.373  0.1505 -0.1886 -0.0491
 4035W        W 8086   7.995   2.685  12.778 -0.4685 -0.1754 -0.1167
 4036W        W 8087   5.744   6.215   4.626  0.2150 -0.0168 -0.0465
 4037W        W 8088   9.269   4.619   2.734  0.1705 -0.1558  0.4427
 4038W        W 8089   9.640   7.248  11.335 -0.3288  0.2011 -0.0277
 4039W        W 8090   4.558   7.649  13.579 -0.0639  0.1209 -0.0342
 4040W        W 8091   4.698   9.105   4.244 -0.2496 -0.0948  0.0081
 4041W        W 8092   2.690   5.522  12.155  0.1886  0.0687  0.0818
 4042W        W 8093   9.328   3.552  13.022  0.0420 -0.0457  0.1529
 4043W        W 8094   4.827   7.897   0.668  0.0059  0.1508  0.0035
 4044W        W 8095   5.328   3.223   2.947 -0.0491  0.0419 -0.0116
 4045W        W 8096   2.760   2.094  10.633 -0.1472  0.0618 -0.1613
 4046W        W 8097   1.865   8.825  13.550  0.0139  0.0408  0.1236
 4047W        W 8098   1.633   9.020  10.541  0.0159 -0.0843 -0.0239
 4048W        W 8099   8.268   2.494  10.349  0.0398  0.1169 -0.0715
 4049W        W 8100   4.382   4.411   0.742 -0.1459  0.0188 -0.3714
 4050W        W 8101   4.399   4.168  13.448  0.1301 -0.0474  0.0432
 4051W        W 8102   7.496   2.350   4.020 -0.2913  0.0882 -0.5465
 4052W        W 8103   2.452   4.120  12.552 -0.2225 -0.1588  0.0538
 4053W        W 8104   2.687   2.175  12.848 -0.1115  0.0781 -0.0419
 4054W        W 8105   5.241   3.739   4.802 -0.0661  0.4224  0.2679
 4055W        W 8106   5.105   1.005   5.896 -0.1343  0.2011 -0.1322
 4056W        W 8107   9.480   3.141  11.842 -0.0111  0.1284 -0.1844
 4057W        W 8108   5.679   5.356   9.458  0.2425  0.0460 -0.1414
 4058W        W 8109   7.799   7.340  13.462  0.0900  0.1300  0.2679
 4059W        W 8110   9.347   1.690  13.551 -0.0621  0.1370  0.2240
 4060W        W 8111   0.356   4.364   5.137 -0.1930 -0.0269  0.0043
 4061W        W 8112   1.302  10.066   2.214  0.0670 -0.0722 -0.0580
 4062W        W 8113   4.217   4.671   2.891 -0.1810 -0.0730 -0.0842
 4063W        W 8114  10.101   4.992  12.655 -0.0236 -0.2113  0.1011
 4064W        W 8115   8.065   3.091   1.280  0.0047 -0.5085  0.2714
 4065W        W 8116   3.436   0.205   4.945  0.2026  0.2897  0.2125
 4066W        W 8117   5.958   7.600   1.599 -0.1240 -0.1076  0.0397
 4067W        W 8118   0.201   5.658  10.777 -0.0997 -0.2637  0.0289
 4068W        W 8119   9.053   2.235  10.856 -0.0666  0.1229  0.0813
 4069W        W 8120   1.321   4.518   4.195 -0.3927  0.0966  0.0939
 4070W        W 8121   5.090   9.539  10.966 -0.1912 -0.0064 -0.0025
 4071W        W 8122   8.390   4.389  13.514 -0.2505 -0.1172  0.2606
 4072W        W 8123   1.957   7.652   0.004 -0.0620 -0.0959 -0.0067
 4073W        W 8124   9.172   1.400   4.419 -0.1797  0.2039  0.0995
 4074W        W 8125   2.105   1.931   2.891  0.1258 -0.0381 -0.1756
 4075W        W 8126   3.331   2.563   1.617  0.0501 -0.1358  0.0491
 4076W        W 8127   4.661  10.141   0.004  0.2691  0.1234 -0.0040
 4077W        W 8128   6.320   3.192   9.968  0.1017 -0.2815 -0.1998
 4078W        W 8129   0.470   1.352  11.966 -0.2384  0.0429  0.1506
 4079W        W 8130   8.689   2.705   4.427  0.2892  0.1290  0.1759
 4080W        W 8131   4.881   7.398   2.444  0.0701  0.1746 -0.1735
 4081W        W 8132   1.206   2.908   0.841 -0.2015 -0.0192  0.1774
 4082W        W 8133   3.007   8.352   3.851 -0.0891  0.0603  0.1966
 4083W        W 8134   7.521   2.491  11.749  0.2085  0.4659  0.0357
 4084W        W 8135   1.585   8.035  12.890 -0.1236 -0.1162  0.2529
 4085W        W 8136   2.823   2.248   4.337  0.1544  0.2638 -0.3487
 4086W        W 8137   3.941   9.457   4.825 -0.1967 -0.0078 -0.0772
 4087W        W 8138   9.476   2.614  13.967  0.1090  0.1101  0.1743
 4088W        W 8139   7.100   4.729  12.716 -0.0938  0.2299 -0.0475
 4089W        W 8140   3.857   0.317   9.897 -0.2005  0.2251 -0.1406
 4090W        W 8141   4.096   1.259  11.594 -0.0687 -0.3441  0.1087
 4091W        W 8142   2.774   4.284   1.810 -0.1760 -0.0146  0.0352
 4092W        W 8143   2.734   9.125   3.174 -0.0636  0.1897  0.0915
 4093W        W 8144   6.822   7.984   1.773  0.5038  0.1052  0.1924
 4094W        W 8145   6.293   4.620  12.364  0.0144 -0.0502  0.0175
 4095W        W 8146   2.514   0.239   2.775 -0.0875 -0.1833 -0.0297
 4096W        W 8147   3.321   5.865   0.714 -0.4314 -0.1050  0.3551
 4097W        W 8148   7.500   5.040   4.763  0.1637  0.0001  0.1386
 4098W        W 8149   2.712   3.879   3.527  0.2528 -0.1329  0.0608
 4099W        W 8150   5.967   8.196  12.973  0.1115  0.3544  0.0274
 4100W        W 8151   3.475   1.207  12.660  0.1586 -0.0326  0.1085
 4101W        W 8152   9.045   1.157  10.649  0.0091  0.0565 -0.0275
 4102W        W 8153   5.629   0.030  10.344 -0.0900  0.0401 -0.3257
 4103W        W 8154   7.441   8.966  12.766 -0.1933 -0.1508 -0.3127
 4104W        W 8155   6.936   2.147   0.077  0.1603 -0.5601 -0.0416
 4105W        W 8156   4.109   7.166  13.037  0.0387  0.2450 -0.0624
 4106W        W 8157   9.771   2.399   2.858  0.4144 -0.0975  0.1006
 4107W        W 8158   7.064   6.288   2.363  0.1365 -0.1191 -0.0695
 4108W        W 8159   7.996   0.989   0.002  0.2408  0.0718 -0.0992
 4109W        W 8160   0.323   5.540  13.789  0.1051  0.1572  0.0665
 4110W        W 8161   1.801   4.246   5.044  0.1769 -0.4605  0.0377
 4111W        W 8162   9.257   6.415   9.748  0.0194  0.0064 -0.0625
 4112W        W 8163   4.602   8.161   2.840 -0.0887  0.2481  0.1204
 4113W        W 8164   2.859   5.234   3.299 -0.0054  0.0640 -0.0094
 4114W        W 8165   3.701   6.671  13.630  0.0752  0.0796 -0.4196
 4115W        W 8166   1.770   5.650   9.458 -0.1620 -0.0181 -0.1196
 4116W        W 8167   9.391   7.094  10.320  0.0127 -0.0243  0.3513
 4117W        W 8168   4.814   3.998   2.538  0.0921  0.0235 -0.1253
 4118W        W 8169   1.216   7.283   4.346  0.1348  0.0878 -0.0025
 4119W        W 8170   6.837   4.588  12.298 -0.2164 -0.3068  0.1725
 4120W        W 8171   3.003   0.216   9.791 -0.1414  0.1828 -0.0699
 4121W        W 8172   7.559   1.703  12.857  0.0695  0.2890  0.1233
 4122W        W 8173   5.582   2.508  11.634 -0.0129 -0.0298  0.0249
 4123W        W 8174   2.658   5.399   3.734 -0.3129 -0.2575  0.0788
 4124W        W 8175   5.288   1.607   0.540 -0.0358 -0.0028 -0.0614
 4125W        W 8176   9.438   3.606   4.783  0.1871 -0.2930 -0.0070
 4126W        W 8177   0.577   9.080   3.451  0.1143  0.0978  0.0648
 4127W        W 8178   7.977   9.751   2.706 -0.0355 -0.0566 -0.0392
 4128W        W 8179   3.398   3.922   2.747 -0.0869  0.1855 -0.0592
 4129W        W 8180   8.727   3.159  11.290  0.0089  0.1172  0.3174
 4130W        W 8181   7.546   2.555   9.702  0.1682  0.3507 -0.1245
 4131W        W 8182   8.118   8.641   3.011  0.3660 -0.2159  0.0933
 4132W        W 8183   7.966   5.288   2.210 -0.1213  0.1333 -0.0983
 4133W        W 8184   3.219   3.415  13.403 -0.0845 -0.1569  0.0619
 4134W        W 8185   6.355   5.964   0.984 -0.2460 -0.0859 -0.0637
 4135W        W 8186   5.745   9.972  12.270  0.0201  0.1432 -0.1852
 4136W        W 8187   4.859   5.079  12.501  0.1852 -0.0721 -0.4037
 4137W        W 8188   8.759   2.164   0.573  0.1574  0.1775  0.0083
 4138W        W 8189   2.043   7.561   0.490  0.0109  0.0020  0.0450
 4139W        W 8190   0.997   0.003   3.537  0.0363 -0.1613 -0.1463
 4140W        W 8191   3.123   0.060   1.268 -0.1230 -0.1468  0.0880
 4141W        W 8192   7.765   8.069   1.430  0.1524 -0.2149  0.0914
 4142W        W 8193   8.406   3.351   2.238 -0.3348 -0.4020  0.1543
 4143W        W 8194   7.238   4.779  10.731 -0.1744 -0.1979  0.1235
 4144W        W 8195   2.910   7.178  10.967 -0.0756  0.0527  0.2733
 4145W        W 8196   5.088   9.285   2.823 -0.0478  0.3420 -0.1447
 4146W        W 8197   3.347   0.710   2.049 -0.1036 -0.0533 -0.1233
 4147W        W 8198   4.574   5.700  11.421 -0.1112  0.1928  0.0193
 4148W        W 8199   8.404   6.428   2.157  0.1773  0.1141  0.2737
 4149W        W 8200   5.558   9.225   1.415 -0.1911 -0.0789 -0.0814
 4150W        W 8201   2.354   9.483  10.446  0.0423  0.0898  0.0350
 4151W        W 8202   2.439   5.455   2.146  0.3434 -0.0901 -0.0721
 4152W        W 8203   1.487   6.771   0.472  0.0076 -0.0361 -0.1587
 4153W        W 8204   7.034   7.935   3.987 -0.1270  0.2011  0.1160
 4154W        W 8205   5.123   2.351   4.114  0.1698  0.1584 -0.1555
 4155W        W 8206   4.845   0.149   1.864  0.2908 -0.2529  0.1224
 4156W        W 8207   5.084   6.719  11.779  0.2691 -0.3008 -0.1068
 4157W        W 8208   2.304   7.088   4.275 -0.1289  0.3156 -0.0183
 4158W        W 8209   4.972   4.808   1.915 -0.0736  0.1264 -0.0292
 4159W        W 8210   1.344   6.058   3.799  0.0099  0.0636 -0.2619
 4160W        W 8211   7.663   0.409   3.559 -0.0743 -0.1202  0.2223
 4161W        W 8212   3.309   0.852  11.018  0.1043  0.0250  0.2531
 4162W        W 8213   2.691   6.508  12.624 -0.2080  0.0890  0.0649
 4163W        W 8214   1.974   7.399   4.687  0.3034  0.2722 -0.0447
 4164W        W 8215   3.814   9.745  13.512  0.1267 -0.2728 -0.0627
 4165W        W 8216   2.096   5.271   1.758  0.0686  0.0470 -0.0561
 4166W        W 8217   9.596   3.178   1.293  0.0118 -0.0266 -0.2111
 4167W        W 8218   9.654   1.406   0.187 -0.0343  0.2449  0.0338
 4168W        W 8219   1.566   3.814   2.163 -0.3237  0.3738 -0.0586
 4169W        W 8220   7.443   4.048   2.650 -0.1932 -0.0907  0.0025
 4170W        W 8221   3.182   1.468  11.090 -0.1293  0.2878  0.1678
 4171W        W 8222   5.828   8.637   1.905 -0.0800  0.0794  0.0976
 4172W        W 8223   4.100   6.830  12.151 -0.2880 -0.0983  0.0227
 4173W        W 8224   1.415   5.022   4.098  0.1753  0.1698 -0.0847
 4174W        W 8225   8.078   9.338  10.882 -0.1068 -0.0084 -0.5517
 4175W        W 8226   4.037   1.871   5.496 -0.1126 -0.1255  0.0208
 4176W        W 8227   8.389   7.901   3.659  0.0335 -0.0995  0.0774
 4177W        W 8228   8.698   0.160   4.055 -0.1355  0.2724 -0.1765
 4178W        W 8229   9.970   2.837   9.861 -0.1715 -0.1958 -0.2561
 4179W        W 8230   2.881   1.819   3.951 -0.3476  0.2070  0.0033
 4180W        W 8231   3.615   0.340  12.995 -0.2080  0.0060  0.2821
 4181W        W 8232   2.752   6.848   2.633 -0.1276 -0.1333 -0.0933
 4182W        W 8233   5.747   0.377   4.250  0.0629  0.2331 -0.1023
 4183W        W 8234   0.474   6.267   0.372  0.0140 -0.1136  0.0314
 4184W        W 8235  10.103   6.597   4.254  0.0425  0.2109  0.1023
 4185W        W 8236   5.426   3.905   4.187 -0.3090  0.3838  0.1061
 4186W        W 8237   6.184   4.424  11.343  0.0931  0.0472  0.0078
 4187W        W 8238   1.226   3.374   3.220 -0.1197  0.2422  0.1732
 4188W        W 8239   4.111   7.544  10.067  0.4513  0.1660  0.1329
 4189W        W 8240   3.647   6.225  11.693 -0.0061  0.0735  0.0050
 4190W        W 8241   4.646   6.475   3.834 -0.0077 -0.2389 -0.0923
 4191W        W 8242   4.672   0.000  11.208  0.2337 -0.1621 -0.2665
 4192W        W 8243   9.907   6.891  10.584 -0.0274  0.2407  0.2788
 4193W        W 8244   4.538   9.089   1.793  0.0233 -0.0382 -0.1657
 4194W        W 8245  10.146   5.161  13.651  0.1402  0.3090 -0.0142
 4195W        W 8246   8.206   9.076  13.785  0.0144  0.2116  0.0152
 4196W        W 8247   9.910   8.686   0.035 -0.0273  0.1003  0.1863
 4197W        W 8248   0.925   6.408   4.698  0.1859 -0.0307  0.0177
 4198W        W 8249   3.437   4.486   4.647  0.0781 -0.2806 -0.0522
 4199W        W 8250   4.877   6.334  12.175  0.0142 -0.0189 -0.0560
 4200W        W 8251   5.218   8.069   3.449 -0.0507 -0.1652  0.0252
 4201W        W 8252   0.069   1.125   3.086 -0.0761 -0.1107 -0.4725
 4202W        W 8253   0.404   6.349   1.390  0.2879  0.1154  0.0029
 4203W        W 8254   4.724   1.446   1.399  0.1737  0.1275 -0.0142
 4204W        W 8255   7.663   1.231   1.424  0.0816 -0.2594  0.3059
 4205W        W 8256   9.539   3.786   3.201 -0.1658 -0.2864 -0.3194
 4206W        W 8257   8.881   9.856  12.236  0.1660 -0.0145 -0.1062
 4207W        W 8258   2.759   3.581  10.300  0.0560 -0.1456  0.0250
 4208W        W 8259   9.394   0.903  12.737  0.4684 -0.0335  0.1816
 4209W        W 8260   3.667   7.461   9.865  0.2226 -0.2919  0.0065
 4210W        W 8261   1.193   3.683   4.592  0.3239 -0.1441  0.1309
 4211W        W 8262   9.640   3.370  11.383  0.4645  0.1700  0.3524
 4212W        W 8263   0.963   8.299   0.939  0.2315 -0.2483  0.0331
 4213W        W 8264   3.668   8.113   2.025  0.0329  0.0948 -0.1380
 4214W        W 8265   1.817   0.583  13.907 -0.0873  0.2016 -0.1208
 4215W        W 8266   9.904   7.289  13.347  0.0336 -0.2646 -0.0604
 4216W        W 8267   3.226   1.922   4.373 -0.1029 -0.0010 -0.0467
 4217W        W 8268   5.157   2.059  12.513 -0.0333  0.0483  0.0935
 4218W        W 8269   3.179   7.775   0.689  0.1980 -0.1878 -0.1131
 4219W        W 8270   2.732   9.769   0.038 -0.3740  0.1572  0.0813
 4220W        W 8271   5.391   9.704   0.030  0.1801  0.1762  0.1597
 4221W        W 8272   1.133   7.989  10.168  0.2725  0.1557  0.0198
 4222W        W 8273   3.876   5.429  10.460  0.1151  0.2080 -0.0043
 4223W        W 8274   7.254   4.232  11.573 -0.0425 -0.1098  0.2206
 4224W        W 8275   7.034   2.887   0.275  0.2023 -0.1987 -0.3256
 4225W        W 8276  10.113   3.032   2.174 -0.0186 -0.1324  0.0482
 4226W        W 8277   1.380   1.231  12.323  0.0883 -0.1631 -0.0950
 4227W        W 8278   9.773   8.236   0.384  0.0061  0.2110 -0.1922
 4228W        W 8279   3.787   1.602  13.543  0.1149  0.1323 -0.0667
 4229W        W 8280   3.544   9.967  13.109 -0.1940 -0.0011 -0.2270
 4230W        W 8281   3.637   7.578   3.201 -0.0863  0.2706  0.0965
 4231W        W 8282   5.645   5.747  13.626 -0.0794  0.1166  0.3418
 4232W        W 8283   4.339   5.700   0.577  0.0331 -0.1646 -0.3916
 4233W        W 8284   2.851   9.359   4.583  0.0547 -0.0768  0.0090
 4234W        W 8285   7.646   7.026   2.403 -0.2499  0.1687  0.2672
 4235W        W 8286   6.826   2.112  10.243  0.1027  0.5090 -0.3535
 4236W        W 8287   1.053   4.569   0.890 -0.1137 -0.2690 -0.0786
 4237W        W 8288   0.395   4.728  10.845 -0.0434 -0.1224 -0.1483
 4238W        W 8289   3.611   3.485  11.520 -0.1621  0.0064 -0.3174
 4239W        W 8290   4.750   1.086   4.149  0.1526  0.0249 -0.2023
 4240W        W 8291  10.049   1.556   3.310  0.0856 -0.1211 -0.1957
 4241W        W 8292  10.055   2.767   0.894 -0.1399  0.1584  0.0754
 4242W        W 8293   3.159   9.975  11.139  0.2374  0.2728 -0.0359
 4243W        W 8294   0.250   3.283  12.502  0.0437  0.0745  0.1384
 4244W        W 8295   7.117   1.533  11.859  0.0275  0.1667 -0.0659
 4245W        W 8296   3.807   6.796   3.503 -0.0675  0.1314 -0.1728
 4246W        W 8297   1.196   4.129   0.624  0.1187 -0.0808  0.0490
 4247W        W 8298   5.084   3.263   4.855  0.1694  0.0609 -0.1595
 4248W        W 8299   2.846   1.291   4.917 -0.0322 -0.0157 -0.0658
 4249W        W 8300   3.850   5.060   3.434 -0.2914 -0.3729  0.1822
 4250W        W 8301   3.693   6.877   0.078 -0.3066 -0.1440 -0.0010
 4251W        W 8302   6.823   9.995   2.821 -0.0818  0.0925 -0.1908
 4252W        W 8303   7.351   7.134  12.385  0.0509  0.1540 -0.1592
 4253W        W 8304   3.344   6.303   1.482  0.1553 -0.2091  0.1309
 4254W        W 8305   8.667   8.541   0.306 -0.1327 -0.1581  0.1212
 4255W        W 8306   2.123   7.633  13.416  0.0353  0.2369 -0.0275
 4256W        W 8307   6.390  10.177   1.273  0.1454 -0.1463  0.2958
 4257W        W 8308   9.276   3.582  11.973 -0.0696  0.0299 -0.2698
 4258W        W 8309   6.253   3.158  10.818  0.0730  0.2657  0.0627
 4259W        W 8310   2.345   1.171  11.078 -0.0002 -0.2587  0.0406
 4260W        W 8311   1.097   6.625  10.638 -0.1438 -0.2193  0.1452
 4261W        W 8312  10.154   6.885   9.951  0.1046 -0.0088  0.0810
 4262W        W 8313   5.577   8.775   3.664 -0.2586  0.1417 -0.0639
 4263W        W 8314   2.440   2.074   4.638  0.0044  0.0853  0.3074
 4264W        W 8315   7.147   0.954  10.866  0.1047  0.1062  0.0477
 4265W        W 8316   1.345   5.040   5.106 -0.1153 -0.2136 -0.1684
 4266W        W 8317   4.825   5.887   1.416  0.3620 -0.1440  0.1750
 4267W        W 8318   7.756   5.750  10.210  0.0621 -0.2091 -0.2167
 4268W        W 8319   5.930  10.067   9.966  0.0123  0.1640  0.2108
 4269W        W 8320   4.000   9.864   3.412  0.1793 -0.1376  0.3504
 4270W        W 8321   8.272   1.531   0.126 -0.0911  0.3691  0.0918
 4271W        W 8322   3.892   0.504   5.609 -0.2055 -0.1186 -0.0035
 4272W        W 8323   2.793   4.873   1.724 -0.2570  0.1537 -0.2057
 4273W        W 8324   8.340   5.549   2.447 -0.0726  0.0029  0.2231
 4274W        W 8325   6.641   6.811  10.283 -0.0212 -0.1929 -0.2625
 4275W        W 8326   5.497   6.115   2.606 -0.1335  0.2065 -0.1226
 4276W        W 8327   7.579   9.031  10.659 -0.0825  0.0547  0.2478
 4277W        W 8328   9.758   7.205   9.839 -0.1824 -0.0671  0.1553
 4278W        W 8329   1.769   0.137   1.523 -0.1084 -0.1283 -0.2041
 4279W        W 8330   8.835   9.371  12.365 -0.1476 -0.0485 -0.1991
 4280W        W 8331   2.965   3.857  13.221 -0.1214  0.1450  0.3109
 4281W        W 8332   4.233   9.473   4.382 -0.1613 -0.1291 -0.0562
 4282W        W 8333   1.335   5.780  11.419 -0.1475 -0.0564 -0.1227
 4283W        W 8334   8.869   3.506  10.072 -0.0775 -0.1788  0.0558
 4284W        W 8335   9.647   2.151  13.556 -0.0520 -0.1441 -0.0555
 4285W        W 8336   3.191   7.383   2.089  0.1814 -0.1238 -0.0242
 4286W        W 8337   5.419   2.711  13.319  0.0376 -0.1316 -0.3787
 4287W        W 8338   1.881   0.029   2.677  0.1236 -0.2924  0.1409
 4288W        W 8339   3.955   9.799   1.139  0.2942 -0.2271  0.4716
 4289W        W 8340   7.981   3.378   3.814  0.1641 -0.3544  0.0922
 4290W        W 8341   7.635   4.149  11.238  0.0339 -0.5057 -0.0355
 4291W        W 8342   6.354   4.145   0.947 -0.2626  0.0611 -0.0087
 4292W        W 8343   1.602   2.769   1.825 -0.0508 -0.3798 -0.1876
 4293W        W 8344   3.071   2.086   0.679  0.0400  0.2210 -0.3159
 4294W        W 8345   7.717   8.660   1.478 -0.0071 -0.0008  0.2357
 4295W        W 8346   0.491   7.805   1.517 -0.0562  0.0451 -0.1286
 4296W        W 8347   4.863   1.539  11.548 -0.0416 -0.2008  0.0423
 4297W        W 8348  10.178   6.553   2.196  0.0548  0.0064 -0.0178
 4298W        W 8349   4.467   3.767   9.365 -0.0381 -0.0901 -0.0634
 4299W        W 8350   5.951   1.427   0.850  0.3937  0.0593  0.0422
 4300W        W 8351   5.676   5.655   2.829 -0.2463 -0.0063 -0.0706
 4301W        W 8352   7.417   8.237   3.784  0.1684 -0.1645  0.2769
 4302W        W 8353   1.413   2.327   9.860 -0.0517 -0.3680  0.0185
 4303W        W 8354   2.147   0.562   0.434 -0.0093 -0.3775  0.3450
 4304W        W 8355   9.913   2.509  11.713  0.1597  0.0572 -0.3083
 4305W        W 8356   5.434   2.387   1.853  0.1583  0.3059 -0.1853
 4306W        W 8357   6.050   2.360   0.505  0.1680  0.1028 -0.0005
 4307W        W 8358   3.147   6.758   3.941 -0.0396 -0.3244 -0.1861
 4308W        W 8359   5.388   0.191   0.730  0.1551 -0.2888 -0.0362
 4309W        W 8360   1.362   6.409  13.529  0.0212  0.2367  0.0160
 4310W        W 8361   1.041   2.380   2.627  0.4753  0.3930  0.1489
 4311W        W 8362   2.089   2.953   0.666 -0.5147 -0.3164 -0.1052
 4312W        W 8363   1.405  10.081   0.834 -0.2934  0.0319  0.0749
 4313W        W 8364   4.685   0.537   3.390  0.1912  0.0924 -0.0685
 4314W        W 8365  10.005   7.403  13.841 -0.5932  0.2570  0.2230
 4315W        W 8366   6.549   5.015   1.062 -0.0152  0.1833 -0.0244
 4316W        W 8367   4.370   0.679   4.976  0.0733  0.1716  0.1435
 4317W        W 8368   3.188   0.995   3.931 -0.3621  0.1807 -0.0247
 4318W        W 8369   8.124   6.565  11.475 -0.1243 -0.3729 -0.0666
 4319W        W 8370   9.740   7.748  13.077  0.1565  0.0035  0.0118
 4320W        W 8371   5.046   0.104   4.760 -0.3139 -0.1116  0.1054
 4321W        W 8372   6.413   2.003   1.549  0.1233  0.1381  0.3024
 4322W        W 8373   4.073   0.197  10.730 -0.0884 -0.2547  0.0522
 4323W        W 8374   5.103  10.099  10.811 -0.3209  0.0304  0.0926
 4324W        W 8375   5.346  10.143   1.120  0.1906  0.0688 -0.3488
 4325W        W 8376   3.641   3.859   0.359  0.1284  0.1952 -0.0549
 4326W        W 8377   2.329   7.102   1.619  0.0953  0.1430  0.4234
 4327W        W 8378   3.588   6.040   4.142 -0.5002  0.1497 -0.2781
 4328W        W 8379   9.219   1.846   9.953  0.0101  0.1493 -0.0378
 4329W        W 8380   1.985   5.395  12.875 -0.0172  0.1653  0.0245
 4330W        W 8381   4.280   6.853   3.427 -0.0298  0.1649  0.1375
 4331W        W 8382   0.658   9.065   0.348  0.4299  0.1190 -0.0756
 4332W        W 8383   7.533   9.598  12.008 -0.1253 -0.4329 -0.0072
 4333W        W 8384   1.210   5.308  13.337  0.0269  0.1808  0.1181
 4334W        W 8385   0.346   6.851  11.290  0.1167 -0.2344 -0.0661
 4335W        W 8386   8.016   9.589   0.798  0.2681 -0.4169 -0.2378
 4336W        W 8387   5.214   1.683   8.873  0.2672 -0.5237  0.2105
 4337W        W 8388   0.977   1.173  13.111  0.0798 -0.1380 -0.0834
 4338W        W 8389   4.115   0.379  12.998 -0.0136 -0.4275  0.4881
 4339W        W 8390   7.655   5.739   9.002  0.2089  0.1568 -0.0079
 4340W        W 8391   1.924   7.281   2.061  0.0991 -0.1171 -0.2292
 4341W        W 8392   2.612   4.001  10.513  0.1458  0.0898  0.1744
 4342W        W 8393   3.573   3.447   3.566  0.1563 -0.0123 -0.0345
 4343W        W 8394   0.128   3.124   3.332 -0.0131 -0.1168 -0.0168
 4344W        W 8395   3.056   7.510   5.427 -0.2514 -0.0050 -0.1568
 4345W        W 8396   5.983   0.755   3.894  0.3167  0.3026 -0.1978
 4346W        W 8397   4.328   2.246   3.528 -0.2910  0.0461  0.3576
 4347W        W 8398   8.867   0.533   9.750  0.0447  0.0960 -0.0610
 4348W        W 8399   2.745   4.396   3.423  0.1053  0.0516 -0.3783
 4349W        W 8400   2.796   1.175  11.818  0.0651 -0.2327 -0.0073
 4350W        W 8401   6.230   5.009   0.207 -0.1178  0.1746  0.0673
 4351W        W 8402   7.347  10.028  10.753  0.0610  0.0766  0.0252
 4352W        W 8403   2.395   2.028   3.642 -0.0954 -0.2743  0.1721
 4353W        W 8404   1.905   7.289  10.787  0.0435  0.0726  0.3939
 4354W        W 8405   3.608   7.128  11.287  0.1976 -0.0001  0.2379
 4355W        W 8406   8.117   3.782  10.360  0.1049  0.0196 -0.1176
 4356W        W 8407   7.614   2.942  13.055 -0.1649 -0.1649  0.0348
 4357W        W 8408   9.806   3.229  13.915 -0.1410 -0.0067 -0.2807
 4358W        W 8409   5.929   4.159  10.555 -0.0562 -0.0505  0.1352
 4359W        W 8410  10.043   0.040  11.291 -0.0735 -0.2643 -0.1839
 4360W        W 8411   9.598   6.164  13.670  0.2599  0.0775 -0.2753
 4361W        W 8412   6.113   6.116   1.930 -0.1172 -0.1432 -0.2054
 4362W        W 8413   2.704   8.517  12.441  0.1218 -0.3697 -0.0929
 4363W        W 8414   0.715   4.442   3.561  0.0299  0.4536  0.4099
 4364W        W 8415   5.701   7.170   4.869  0.6073  0.2338  0.1450
 4365W        W 8416   6.674   5.776   1.748 -0.0714 -0.2496  0.1791
 4366W        W 8417   3.672   8.708  12.696  0.0331  0.0632  0.0548
 4367W        W 8418   6.822   3.414   9.622 -0.1061 -0.2460 -0.2260
 4368W        W 8419   2.439   4.602   5.014  0.2080 -0.1081 -0.1326
 4369W        W 8420   8.845   0.032   9.555 -0.1450  0.0984  0.0027
 4370W        W 8421   9.383   4.487   0.230  0.2218 -0.0170  0.2397
 4371W        W 8422   7.222   4.294   0.624  0.0149 -0.0941  0.0715
 4372W        W 8423   8.885   1.967  11.679  0.0261 -0.2450  0.1099
 4373W        W 8424   9.553   9.252  12.705 -0.1758  0.2217  0.2912
 4374W        W 8425   8.311   3.966   9.451  0.3316  0.1842 -0.0089
 4375W        W 8426   4.251   6.328   2.662 -0.0651 -0.0461  0.1596
 4376W        W 8427   4.416   5.251  11.093  0.0262 -0.3242 -0.2275
 4377W        W 8428   1.363   4.630   9.469  0.8136  0.0283  0.3578
 4378W        W 8429   3.178   2.782   4.341 -0.3241 -0.2985  0.2269
 4379W        W 8430   6.688   8.452  13.459 -0.1103 -0.0047  0.0715
 4380W        W 8431   5.135   8.316   5.354 -0.2748  0.0062  0.0598
 4381W        W 8432   2.771   8.834  13.627  0.1738 -0.0002  0.1854
 4382W        W 8433   6.473   6.922  11.845 -0.3215  0.0679  0.0675
 4383W        W 8434   3.447   2.072   0.273 -0.2168 -0.1962  0.0765
 4384W        W 8435   8.866   2.581   9.530 -0.2096  0.1683 -0.1475
 4385W        W 8436   2.592   4.188  10.990 -0.1612  0.0714  0.0274
 4386W        W 8437   7.450   7.133  11.467  0.1164  0.0986 -0.2986
 4387W        W 8438   5.679   7.661  10.603  0.0721 -0.2581  0.2847
 4388W        W 8439   9.933   4.822  10.925  0.0300  0.1548  0.0902
 4389W        W 8440   0.483   8.559   0.906  0.0009  0.0537  0.1799
 4390W        W 8441   2.940   6.067   9.400  0.0917  0.2605 -0.3212
 4391W        W 8442   2.171   0.934   1.040  0.1642  0.1250  0.1464
 4392W        W 8443   9.641   0.471   4.593 -0.0998 -0.1102 -0.1362
 4393W        W 8444   5.358   9.184   2.412 -0.2000 -0.1248 -0.0463
 4394W        W 8445   4.484   6.875  10.795  0.2183 -0.1346 -0.3178
 4395W        W 8446   4.501  10.003   1.685  0.0564 -0.0310 -0.0925
 4396W        W 8447   9.294   4.815   9.571  0.2470 -0.2120 -0.1357
 4397W        W 8448   4.850   0.403   3.946  0.0438  0.0270 -0.0483
 4398W        W 8449   8.816   2.401  11.888 -0.0047 -0.1125  0.1997
 4399W        W 8450   2.357   4.050   3.248 -0.2783  0.0756 -0.0277
 4400W        W 8451   0.820   7.330  12.183 -0.0169  0.2526  0.0108
 4401W        W 8452   7.601   0.325   9.583  0.1054 -0.2043 -0.0233
 4402W        W 8453   3.751   6.495   2.875 -0.1764 -0.0652 -0.2475
 4403W        W 8454   3.959   9.966  11.665 -0.1186  0.2756 -0.0595
 4404W        W 8455   7.067   1.647   0.338 -0.1458 -0.0638  0.1615
 4405W        W 8456   8.115   0.018  12.640  0.3492 -0.1417  0.2436
 4406W        W 8457   2.486   8.158  11.831  0.0598 -0.1799 -0.0457
 4407W        W 8458   5.101   4.989  12.993 -0.0613 -0.3080  0.0727
 4408W        W 8459   0.709   2.530  11.462 -0.0440  0.0783  0.0049
 4409W        W 8460   5.803   6.822   2.036 -0.0901 -0.0228 -0.0341
 4410W        W 8461   9.839   6.966  13.760 -0.1202 -0.1093  0.0422
 4411W        W 8462   7.834   3.266  13.398  0.2540  0.0471  0.1455
 4412W        W 8463   7.310   1.115  13.177  0.0631 -0.1178  0.0241
 4413W        W 8464   5.113   0.650   9.999  0.0769  0.1197 -0.5440
 4414W        W 8465   7.031   9.465   2.932  0.0637  0.2359 -0.2661
 4415W        W 8466   2.557   1.611  13.956  0.2039  0.3170 -0.0489
 4416W        W 8467   0.353   3.777   4.288  0.1170  0.1852  0.1505
 4417W        W 8468   9.274   1.526   1.841  0.1329  0.1384 -0.2766
 4418W        W 8469   6.881   4.623   3.918 -0.2058  0.1835  0.0160
 4419W        W 8470   0.805   2.063  13.069 -0.2065 -0.1104 -0.1337
 4420W        W 8471   0.519   7.284   3.425 -0.1393 -0.1889 -0.4100
 4421W        W 8472   3.288   0.804   2.970 -0.2060 -0.0306 -0.1051
 4422W        W 8473   5.751   8.448   2.864  0.0550  0.1909  0.1357
 4423W        W 8474   8.412   0.858   9.744  0.1689  0.2399  0.1205
 4424W        W 8475   2.584   2.813   0.534 -0.0673  0.1382  0.0040
 4425W        W 8476   3.875   5.769   9.690 -0.2826  0.2393 -0.1218
 4426W        W 8477   3.511   6.481  10.003 -0.2821  0.0363  0.5974
 4427W        W 8478   7.347   0.761  11.307  0.0314 -0.0881  0.0561
 4428W        W 8479   4.895   4.102   3.436  0.3313 -0.0360 -0.0428
 4429W        W 8480   5.082   2.368   1.517 -0.0601  0.0463 -0.2795
 4430W        W 8481   6.191   5.523  11.519 -0.1507 -0.3019 -0.0730
 4431W        W 8482   0.288   7.316  11.015 -0.0282  0.0893  0.1324
 4432W        W 8483   2.065   8.466  13.266  0.0490 -0.3244  0.0299
 4433W        W 8484   1.912   0.884   2.326  0.0289  0.2911  0.1261
 4434W        W 8485   3.278   2.303   9.766  0.3613  0.0568 -0.0394
 4435W        W 8486   5.433   6.798  10.990  0.2237  0.2047 -0.1424
 4436W        W 8487   5.739   7.020  13.856  0.2007 -0.0360  0.2343
 4437W        W 8488   6.095   1.226  11.010  0.3116  0.3794 -0.4022
 4438W        W 8489   5.630   5.904  12.599  0.1590  0.1868  0.1279
 4439W        W 8490   2.049   1.426   2.450 -0.4594  0.1677  0.3946
 4440W        W 8491   3.190   5.383  13.375  0.1306  0.0028 -0.4153
 4441W        W 8492   6.881   4.355   9.637 -0.2934  0.1572  0.0831
 4442W        W 8493   5.940   6.875   2.602 -0.2626  0.1162 -0.1028
 4443W        W 8494   8.504   6.700   0.759  0.0915  0.1165  0.0441
 4444W        W 8495   5.709   7.559  11.515 -0.4381  0.0135  0.2020
 4445W        W 8496   6.497   6.070  13.946 -0.1264 -0.0852  0.1997
 4446W        W 8497   1.411   9.380   9.298  0.1258 -0.3627 -0.0748
 4447W        W 8498   3.972   7.034   1.731 -0.0498 -0.0707  0.0716
 4448W        W 8499   4.797  10.163  10.354 -0.3081 -0.0212 -0.2491
 4449W        W 8500   0.238   2.445  11.263  0.0456 -0.0121  0.0939
 4450W        W 8501   7.700   9.029  13.843  0.0212  0.0016 -0.4686
 4451W        W 8502   5.541   4.078   2.102 -0.2265 -0.2778 -0.2458
 4452W        W 8503   4.619   2.627  10.341 -0.1828 -0.0643 -0.0031
 4453W        W 8504   4.918   5.348   1.840 -0.0372 -0.1696  0.1413
 4454W        W 8505   6.816   7.779   0.064 -0.0024  0.3185  0.1206
 4455W        W 8506   8.713   1.748  10.083 -0.4022  0.0116  0.0181
 4456W        W 8507   5.037   8.377   0.416 -0.0618 -0.1447  0.1201
 4457W        W 8508   8.774   9.402  11.388 -0.0545  0.1446 -0.1106
 4458W        W 8509   3.748   9.375  11.457 -0.0137  0.4646  0.0535
 4459W        W 8510   0.068   1.239   3.605 -0.1642  0.2019 -0.1620
 4460W        W 8511   9.057   7.320  12.145 -0.1973 -0.1145 -0.0509
 4461W        W 8512   5.620   5.947   2.006  0.2149 -0.4813  0.0739
 4462W        W 8513   7.263   4.925  10.217  0.2633 -0.1327 -0.1642
 4463W        W 8514   5.015   5.996   2.847  0.3168 -0.2881 -0.0792
 4464W        W 8515   6.050   1.586  13.016  0.0707  0.0887  0.4367
 4465W        W 8516   3.078   7.536   4.534 -0.0632 -0.3270  0.0980
 4466W        W 8517   3.610   3.588   4.154 -0.1258 -0.0413  0.1171
 4467W        W 8518   3.221   7.845  12.387 -0.0109  0.3657 -0.2087
 4468W        W 8519   3.576   6.631   2.063 -0.1824  0.1306  0.0302
 4469W        W 8520   1.772   3.132   8.718 -0.0014  0.1617  0.2501
 4470W        W 8521   1.675   7.889  10.086 -0.1249  0.0532  0.2280
 4471W        W 8522   0.649   7.670  11.094 -0.0699  0.2476  0.5422
 4472W        W 8523   5.133   3.887   1.694  0.0776  0.0414  0.1928
 4473W        W 8524   9.861   0.840  12.996 -0.0011 -0.2515  0.1397
 4474W        W 8525   6.155   4.026  12.955 -0.0100  0.1253 -0.0186
 4475W        W 8526   6.898   2.910  12.313 -0.2392 -0.0904 -0.1006
 4476W        W 8527   8.347   1.210  13.736 -0.1005  0.3765 -0.0285
 4477W        W 8528   0.592   7.179  11.781 -0.1184 -0.0303  0.3528
 4478W        W 8529   1.431   1.366  11.436 -0.0699 -0.1070 -0.2747
 4479W        W 8530   2.569   7.428   1.961 -0.2592 -0.2929  0.2485
 4480W        W 8531   6.611   0.462   0.312 -0.1949 -0.3165 -0.1391
 4481W        W 8532   1.049   5.964  13.683  0.0746 -0.0528 -0.3528
 4482W        W 8533   7.583   3.684  10.426 -0.1222 -0.2093 -0.1396
 4483W        W 8534   3.926   7.092   4.394  0.0120 -0.0974  0.0214
 4484W        W 8535   2.438   5.886  13.444 -0.3177  0.0399 -0.0741
 4485W        W 8536   6.645   5.249  13.843  0.1293  0.0167  0.1873
 4486W        W 8537   5.193   2.531  12.384 -0.0455  0.0037 -0.0814
 4487W        W 8538   0.922   5.955   3.491 -0.0131  0.0399  0.2361
 4488W        W 8539   5.710   5.665   5.477 -0.1725  0.0892  0.2409
 4489W        W 8540   5.617   9.079   0.317  0.2437 -0.2630 -0.0746
 4490W        W 8541   2.125   7.575   4.196  0.1713  0.2073 -0.3421
 4491W        W 8542   4.027   9.636   3.930  0.0183  0.0435  0.0339
 4492W        W 8543   7.496   5.139  11.910 -0.1083  0.2136 -0.2165
 4493W        W 8544   9.416   3.293  10.044 -0.1286 -0.1785  0.1335
 4494W        W 8545   5.221   6.540  11.337 -0.3242 -0.1493 -0.1965
 4495W        W 8546   4.292   4.675   4.238 -0.0017  0.4478 -0.0017
 4496W        W 8547   7.302   9.165   3.220 -0.0359  0.1695  0.0510
 4497W        W 8548   2.344   8.836   0.308  0.0033 -0.0411  0.1928
 4498W        W 8549   7.457   4.994   0.834 -0.0252 -0.3653 -0.0286
 4499W        W 8550   3.750   3.653  10.079 -0.0728  0.0340 -0.0427
 4500W        W 8551   6.662   1.688  11.604 -0.2002 -0.2068 -0.1225
 4501W        W 8552   5.858   7.291  10.169 -0.1466  0.1312 -0.0049
 4502W        W 8553   9.089   6.054   2.507  0.0301  0.0501 -0.2385
 4503W        W 8554   9.975   6.528  13.762  0.1929 -0.3446 -0.0969
 4504W        W 8555   0.599   6.860   0.197  0.1433 -0.4156  0.1673
 4505W        W 8556   1.348   7.953   9.603  0.0007  0.1068  0.0393
 4506W        W 8557   3.193   8.597   2.927  0.2837 -0.1488 -0.2007
 4507W        W 8558   0.582   3.131  12.871 -0.2322  0.1301 -0.3041
 4508W        W 8559   4.086   5.040  10.777 -0.0827  0.1371  0.0154
 4509W        W 8560   8.036   7.852   3.256  0.1405  0.1612 -0.2523
 4510W        W 8561   6.675   3.241  10.428 -0.1783 -0.1167  0.2775
 4511W        W 8562   9.431   0.676  10.765 -0.0433  0.0262  0.0730
 4512W        W 8563   4.721   9.083   8.855 -0.3460  0.2980  0.2456
 4513W        W 8564   6.767  10.158   2.336 -0.4074  0.3292 -0.1109
 4514W        W 8565   0.424   4.318   4.256 -0.0804 -0.1585  0.0892
 4515W        W 8566   7.012   4.759   0.610 -0.1517 -0.0651  0.1693
 4516W        W 8567   6.214   0.157   0.699 -0.1453  0.1681  0.0487
 4517W        W 8568   4.317   3.730  10.113  0.0234 -0.0958  0.0722
 4518W        W 8569   7.963   9.649  13.870 -0.0501 -0.1528 -0.3238
 4519W        W 8570   7.194   0.603   0.961  0.0398  0.1211 -0.1022
 4520W        W 8571   0.775   5.352  13.050 -0.0761  0.0992 -0.0069
 4521W        W 8572   2.240   2.634   3.547  0.0415 -0.3752  0.0163
 4522W        W 8573   0.414   0.930  13.780  0.2134  0.0803  0.2062
 4523W        W 8574   9.078   1.146   1.564  0.1142 -0.2764  0.0416
 4524W        W 8575   5.176   3.709  13.731  0.0369  0.0013 -0.0828
 4525W        W 8576   4.317   3.280  11.807 -0.1666  0.1796  0.0549
 4526W        W 8577   2.341   7.833   3.601 -0.0325  0.1049 -0.3405
 4527W        W 8578   6.896   4.947   2.797 -0.0883 -0.1588  0.0102
 4528W        W 8579   0.452   1.995  13.496  0.1762  0.1829 -0.1780
 4529W        W 8580   2.530   0.267   3.283 -0.0520 -0.0581  0.0140
 4530W        W 8581   4.019   2.429  10.587 -0.3620  0.3495 -0.0471
 4531W        W 8582   7.450   2.084   4.496 -0.1194  0.1302  0.0260
 4532W        W 8583   9.335   5.602  11.711 -0.1223 -0.1643 -0.0105
 4533W        W 8584   9.501   3.973   2.730 -0.0165 -0.0382  0.3494
 4534W        W 8585   5.958   2.601  11.257  0.3018  0.0581  0.3124
 4535W        W 8586   3.193   7.442   3.526  0.4497  0.0164 -0.0564
 4536W        W 8587   1.394   0.371  12.260 -0.1085  0.2758 -0.2136
 4537W        W 8588   6.849   0.622  11.115  0.0742 -0.0424  0.0259
 4538W        W 8589   1.025   5.332   3.229  0.2275 -0.1130 -0.0970
 4539W        W 8590   0.857   1.616  13.808 -0.1333  0.2673 -0.0058
 4540W        W 8591   0.381   5.691   0.343  0.1043 -0.0939  0.3343
 4541W        W 8592   5.894   1.727  11.750 -0.2592  0.1019 -0.1152
 4542W        W 8593   3.567   2.610  10.651  0.2601  0.1755 -0.2747
 4543W        W 8594   4.582   2.729   2.229 -0.0571 -0.3001  0.0979
 4544W        W 8595   9.688   6.332  10.757 -0.0727  0.1083  0.1567
 4545W        W 8596   3.911   6.380  10.349  0.2530  0.0483  0.0455
 4546W        W 8597   3.958   9.079  11.834 -0.0638 -0.1264  0.1493
 4547W        W 8598   9.948   2.955   4.773  0.0969  0.1792  0.2103
 4548W        W 8599   9.611   0.020   3.564 -0.4149 -0.1077  0.1391
 4549W        W 8600   8.819   1.787   4.838  0.0248  0.0650 -0.2256
 4550W        W 8601   2.285   1.051   1.971  0.0166  0.4435 -0.0863
 4551W        W 8602   8.388   4.663   1.549 -0.0679  0.0301  0.0161
 4552W        W 8603   6.221   4.538  13.028  0.3585  0.1217  0.1101
 4553W        W 8604   6.235   0.039   0.171 -0.0455 -0.1756 -0.0197
 4554W        W 8605   3.239   9.481   9.756  0.0771 -0.1607 -0.1322
 4555W        W 8606   1.804   1.984   3.311 -0.2778 -0.0253  0.1660
 4556W        W 8607   0.190   0.895   0.247 -0.1428 -0.3430  0.0247
 4557W        W 8608   9.588   5.258   3.678 -0.0285  0.2069  0.1068
 4558W        W 8609   3.157   4.582   3.644 -0.0004  0.3300 -0.3128
 4559W        W 8610   3.338   3.881  11.370  0.2617  0.3770  0.0447
 4560W        W 8611   7.298   2.632  12.318 -0.1234 -0.2572 -0.3411
 4561W        W 8612   5.001   5.363  13.728 -0.1521 -0.0022 -0.0895
 4562W        W 8613   7.776   4.892   9.593 -0.4271  0.0793  0.0304
 4563W        W 8614   1.139   8.546   3.662 -0.3106  0.0715  0.0912
 4564W        W 8615  10.059   5.009   3.838  0.0708  0.1088  0.0430
 4565W        W 8616   9.992   6.135  12.389 -0.1300 -0.0322  0.3098
 4566W        W 8617   6.831   6.794   3.489 -0.0984 -0.2539  0.0469
 4567W        W 8618   8.491   1.441   2.549  0.1818  0.0829  0.2649
 4568W        W 8619   3.357   7.265   0.716 -0.1850  0.1893  0.0825
 4569W        W 8620   7.007   8.484   3.029 -0.1001 -0.2166 -0.0147
 4570W        W 8621   2.834   9.765   0.670  0.2628 -0.0790 -0.0518
 4571W        W 8622   5.202   2.693   3.779 -0.0864  0.1854  0.0040
 4572W        W 8623   6.723   4.852   1.934  0.4824  0.2443  0.0480
 4573W        W 8624   3.946   4.622   0.619  0.1560  0.1655  0.1584
 4574W        W 8625   2.786   5.171   2.238  0.1892  0.0666 -0.1193
 4575W        W 8626   6.372   7.292  12.693  0.4433  0.0141  0.0979
 4576W        W 8627   9.706   6.293  12.735 -0.0202  0.0840 -0.2057
 4577W        W 8628   2.087   3.525   8.595  0.0518  0.0454 -0.1306
 4578W        W 8629   4.892   2.493   1.054 -0.2930 -0.2606  0.2614
 4579W        W 8630   8.424   5.621   1.977 -0.2861  0.1785  0.0457
 4580W        W 8631   3.736   9.360   1.569 -0.3624 -0.1735  0.1367
 4581W        W 8632   4.430   9.843  10.374 -0.2286  0.0479 -0.1008
 4582W        W 8633   6.702   3.167  13.947  0.2906 -0.0782 -0.1676
 4583W        W 8634   1.056   9.350  10.652  0.0750 -0.0060 -0.1566
 4584W        W 8635   7.929   8.816  11.559 -0.0959 -0.4075 -0.3632
 4585W        W 8636   1.839   5.787   3.150 -0.0113  0.0630  0.0890
 4586W        W 8637   6.039   5.682   9.685 -0.1877  0.0542 -0.1500
 4587W        W 8638   1.659   7.557   1.702  0.0845 -0.2624  0.0439
 4588W        W 8639   1.943   3.959   9.226 -0.1077 -0.0366  0.2137
 4589W        W 8640   4.159   7.673  13.157  0.3694 -0.2317  0.0194
 4590W        W 8641   3.560   6.799  10.399 -0.2850  0.0504 -0.0927
 4591W        W 8642   9.890   9.568   0.368  0.0679 -0.1046 -0.0201
 4592W        W 8643   9.516   9.593  10.538 -0.0687  0.2088 -0.0423
 4593W        W 8644   7.155   9.664   3.871  0.0267  0.3935 -0.1019
 4594W        W 8645   1.879   5.434  12.424 -0.4181  0.4287 -0.0454
 4595W        W 8646   0.511   6.884  13.222 -0.0620 -0.0075  0.1602
 4596W        W 8647   6.949   8.972   0.313 -0.1537  0.0516 -0.0611
 4597W        W 8648   2.061   3.573   4.875  0.2065 -0.0974  0.2928
 4598W        W 8649   9.129   8.991  11.999  0.0764 -0.2944 -0.1033
 4599W        W 8650   2.664   6.987   1.123  0.1688 -0.0554  0.1008
 4600W        W 8651   7.055   7.125  11.068  0.1813 -0.0325  0.1753
 4601W        W 8652   8.221   7.503   0.864  0.2481  0.4943  0.2566
 4602W        W 8653   9.988   3.460   9.265  0.0855  0.1829  0.3311
 4603W        W 8654   0.917  10.025   2.527  0.3612 -0.1819 -0.1131
 4604W        W 8655   5.001   8.171  13.955 -0.2313 -0.1366  0.3422
 4605W        W 8656   0.216   8.236   0.273 -0.1086 -0.1196 -0.4626
 4606W        W 8657   3.859   1.790   2.486 -0.1398 -0.1749 -0.0231
 4607W        W 8658   4.222   7.970  10.248  0.2157 -0.3384 -0.2884
 4608W        W 8659   1.326   1.445   1.100  0.0379  0.0688 -0.0781
 4609W        W 8660   4.801   7.012   3.603 -0.3907  0.0634  0.0075
 4610W        W 8661   1.278   9.755  13.901  0.4435 -0.4173 -0.2319
 4611W        W 8662   6.623   9.320  12.101  0.3740 -0.3611 -0.0655
 4612W        W 8663   6.291   3.315   0.297 -0.1805 -0.0798  0.2938
 4613W        W 8664   8.129   5.855   1.043  0.3408 -0.2625  0.2833
 4614W        W 8665   6.964   0.343   0.636 -0.3160 -0.2035 -0.0649
 4615W        W 8666   7.333   8.072  13.877 -0.3005 -0.0851  0.0275
 4616W        W 8667   6.059   1.644   4.112  0.0773 -0.4082  0.1578
 4617W        W 8668   5.088   7.473   0.708 -0.1691 -0.1007 -0.0639
 4618W        W 8669   8.326   2.914   2.616  0.1600 -0.1255 -0.0065
 4619W        W 8670   8.754   5.451  10.168  0.0830  0.0288 -0.0146
 4620W        W 8671   6.113   1.732  10.871 -0.1182 -0.1294  0.2368
 4621W        W 8672   2.808   9.576  11.323 -0.0015  0.0667  0.2190
 4622W        W 8673   8.372   8.612  13.056  0.0223  0.2441  0.1023
 4623W        W 8674   1.352   1.182  13.451 -0.0297  0.0197 -0.0375
 4624W        W 8675   4.366   0.186  10.285  0.1031  0.2058  0.0863
 4625W        W 8676   5.798   9.554   0.428  0.2194 -0.0576 -0.1268
 4626W        W 8677   1.865   4.495   1.657  0.0071 -0.1610 -0.0142
 4627W        W 8678   5.637   1.563   4.428  0.3909  0.0719 -0.1228
 4628W        W 8679  10.071   6.736  12.743 -0.1807 -0.2630  0.5685
 4629W        W 8680   1.851   4.282   4.175 -0.3819  0.0971  0.1374
 4630W        W 8681   2.391   7.317  13.717  0.1977 -0.2000 -0.1426
 4631W        W 8682   0.357   2.734   4.108  0.3323  0.1580  0.0228
 4632W        W 8683   2.155   8.060  11.417 -0.0537 -0.0321 -0.1024
 4633W        W 8684   6.305   3.227   4.956 -0.0460 -0.0645  0.0940
 4634W        W 8685   3.285   8.564   0.893 -0.1449  0.0279  0.0523
 4635W        W 8686   3.814   6.089   9.257  0.1865 -0.1361  0.2426
 4636W        W 8687   1.513   8.369   3.319 -0.0270  0.2234 -0.0732
 4637W        W 8688   4.084   4.107  10.932  0.0753  0.1071 -0.1883
 4638W        W 8689   6.379   6.226   1.500 -0.2463 -0.1544 -0.3054
 4639W        W 8690   6.733   2.142   3.312 -0.0075 -0.0818  0.0117
 4640W        W 8691   7.865   6.104  13.341  0.2518  0.1490  0.0015
 4641W        W 8692   1.638   9.481   2.943 -0.4850  0.0310 -0.1585
 4642W        W 8693   2.466   6.625   1.435 -0.0738 -0.1974 -0.2326
 4643W        W 8694   1.188   3.038   1.813 -0.0366  0.0472 -0.2887
 4644W        W 8695   7.454   4.766   1.523 -0.2917  0.0865 -0.2822
 4645W        W 8696   9.173   8.194   3.154 -0.0094  0.0656 -0.2363
 4646W        W 8697   3.143   3.226   1.578 -0.0846 -0.2542 -0.0729
 4647W        W 8698   3.762   3.848   3.725 -0.1495  0.3363  0.2059
 4648W        W 8699   2.511   6.762  10.715  0.0924 -0.2461 -0.1379
 4649W        W 8700   4.041   6.680  12.886  0.1856 -0.1677  0.2038
 4650W        W 8701   0.724   5.095   2.274 -0.2441 -0.1132 -0.1046
 4651W        W 8702   6.200   1.178   3.793  0.0591 -0.1272 -0.2276
 4652W        W 8703   8.469   3.277   3.904 -0.0744  0.0847 -0.2652
 4653W        W 8704   4.577   3.719  11.725 -0.0672  0.0838  0.2572
 4654W        W 8705   4.488   1.845  12.899  0.2611 -0.3974 -0.2483
 4655W        W 8706   6.389   2.992  11.643 -0.0763 -0.0386 -0.1653
 4656W        W 8707   8.820   5.945   1.275  0.1809 -0.2557  0.1687
 4657W        W 8708   3.478   4.180  12.232 -0.1340  0.1206 -0.0588
 4658W        W 8709   9.516   3.833  12.625  0.1573 -0.1089 -0.0702
 4659W        W 8710   1.986   0.180   9.406  0.0169  0.2273  0.1463
 4660W        W 8711   2.478   0.936   5.509  0.0658  0.0557  0.1334
 4661W        W 8712   0.087   4.328   5.980 -0.2499 -0.3611 -0.1697
 4662W        W 8713   3.945   2.036   1.960 -0.1877 -0.0432 -0.1040
 4663W        W 8714   9.146   8.132  13.623 -0.0357  0.3096  0.3964
 4664W        W 8715   0.894   0.460  12.064 -0.0457 -0.1542 -0.2523
 4665W        W 8716   7.530   8.110   4.212  0.1056 -0.1369 -0.0684
 4666W        W 8717   9.914   5.748   0.523  0.0158  0.1615 -0.1979
 4667W        W 8718   1.494   0.243  13.629 -0.2214  0.0474  0.0976
 4668W        W 8719   1.575   2.677   1.297  0.0998 -0.1093 -0.0664
 4669W        W 8720   4.685   3.560  12.190 -0.0578  0.1285 -0.1510
 4670W        W 8721   5.246   7.084  10.284 -0.1481  0.0286  0.1858
 4671W        W 8722   6.937   9.799   1.044  0.0898  0.0472 -0.0600
 4672W        W 8723   5.508   8.216  10.870  0.2066 -0.0987 -0.1531
 4673W        W 8724   7.295   0.320   1.504 -0.1118  0.2135  0.1930
 4674W        W 8725   8.588   4.039   3.246  0.1169 -0.1092 -0.1523
 4675W        W 8726   1.813   4.726   3.321 -0.0881 -0.2053 -0.0870
 4676W        W 8727   1.564   6.367   1.787 -0.3594 -0.0035 -0.1019
 4677W        W 8728   0.660   6.683  10.938 -0.0223  0.3615 -0.2840
 4678W        W 8729   8.382   3.640   9.975 -0.0213 -0.1015  0.2707
 4679W        W 8730   9.345   1.742  12.729  0.0557 -0.1434 -0.0938
 4680W        W 8731   2.350   5.121  12.232 -0.2017 -0.3409  0.3424
 4681W        W 8732   4.837   3.900   5.043  0.2165  0.2427 -0.1880
 4682W        W 8733   8.989   1.817  10.529 -0.1940  0.1045  0.1440
 4683W        W 8734   5.919   3.849  11.558 -0.0311 -0.0107  0.2167
 4684W        W 8735   6.149   5.204   9.514 -0.3551 -0.2262 -0.0764
 4685W        W 8736   2.302   9.802   0.872  0.0164  0.0167  0.1417
 4686W        W 8737   6.650   4.307   0.453  0.0868  0.1569  0.0437
 4687W        W 8738   9.364   4.813  11.137 -0.1300  0.0600  0.2181
 4688W        W 8739   3.196   4.781   1.271  0.1504 -0.3992 -0.1957
 4689W        W 8740   5.683   5.814   4.332 -0.0108 -0.0657  0.3132
 4690W        W 8741   8.895   2.107  12.454 -0.0102 -0.0217 -0.1547
 4691W        W 8742   2.846   9.660   1.717 -0.0155 -0.3001 -0.2442
 4692W        W 8743   5.897   8.692   9.497 -0.1257 -0.1393 -0.0559
 4693W        W 8744   8.289   6.814   3.071  0.1512 -0.1504  0.0352
 4694W        W 8745   6.583   6.368  10.065  0.2692  0.3352  0.2689
 4695W        W 8746   2.122   8.211  12.758 -0.3022  0.3465  0.0165
 4696W        W 8747   8.722   4.393  12.084  0.0523  0.0704 -0.2903
 4697W        W 8748   9.410   2.407   3.244 -0.1432 -0.1057  0.3067
 4698W        W 8749   2.691   5.871   9.819 -0.0958  0.2872 -0.1803
 4699W        W 8750   3.446   2.619  11.676  0.0077  0.1060  0.0422
 4700W        W 8751   2.780   0.725  10.636  0.0323  0.1208 -0.5236
 4701W        W 8752   8.544   5.050   3.397 -0.4365 -0.1605  0.2042
 4702W        W 8753   5.413   8.329   2.106  0.1856  0.0834  0.0410
 4703W        W 8754   0.489   7.872   2.028  0.1791  0.0807  0.3307
 4704W        W 8755   2.025   3.434   9.554 -0.3697  0.0132 -0.2979
 4705W        W 8756   6.279   4.142   4.065 -0.2890 -0.2893 -0.1902
 4706W        W 8757   9.918   3.726   2.037  0.0985  0.0173 -0.0166
 4707W        W 8758   8.237   4.931  11.521  0.0091  0.0337  0.0940
 4708W        W 8759   9.930   5.676  10.379 -0.0421 -0.1425  0.1298
 4709W        W 8760   3.595   2.787   0.510 -0.2305  0.0329 -0.0362
 4710W        W 8761   9.573   8.440   2.902 -0.1280 -0.1591 -0.2150
 4711W        W 8762   4.334   5.080   3.729  0.0349  0.3885  0.0083
 4712W        W 8763   3.615   7.625   5.553 -0.0977 -0.2059 -0.0972
 4713W        W 8764   8.848   2.843  12.149 -0.4924 -0.2302 -0.3328
 4714W        W 8765   8.090   7.728   1.261 -0.0463  0.0291 -0.0981
 4715W        W 8766   7.631   0.480  10.180 -0.3250 -0.0426  0.2523
 4716W        W 8767   4.033   7.075   3.914 -0.0008  0.3136  0.1077
 4717W        W 8768  10.170   5.999   0.893  0.0388 -0.2846 -0.1200
 4718W        W 8769   6.862   2.943   4.242 -0.0331  0.0638 -0.1253
 4719W        W 8770   3.051   4.846   4.564  0.2460  0.0012 -0.1720
 4720W        W 8771   3.439  10.056   1.724 -0.0524  0.1833  0.0395
 4721W        W 8772   8.448   5.138   0.867  0.1372  0.1651 -0.0871
 4722W        W 8773   8.424   3.830  13.507  0.1040  0.1008  0.3803
 4723W        W 8774   0.561   9.221  13.678 -0.2819  0.0495  0.0124
 4724W        W 8775   3.852   9.480   9.246 -0.0461 -0.1424  0.1168
 4725W        W 8776   3.705   8.996   4.749  0.2087  0.0576  0.1035
 4726W        W 8777   9.982   8.597  12.251 -0.0128  0.1469 -0.0531
 4727W        W 8778   1.172   9.024   4.770 -0.1029 -0.1361 -0.2038
 4728W        W 8779   5.069   1.573  10.388 -0.3052  0.0895  0.0859
 4729W        W 8780   8.041   9.376  10.394  0.0116  0.2263 -0.0317
 4730W        W 8781   6.732   6.325  10.526 -0.0829 -0.0162  0.1355
 4731W        W 8782   1.136   5.599   1.648  0.1813  0.0101 -0.0986
 4732W        W 8783   8.870   0.729  13.625 -0.4286  0.0977 -0.2495
 4733W        W 8784   4.009   9.018  13.879 -0.3259 -0.0562  0.3701
 4734W        W 8785   9.961   7.267  11.777 -0.3528 -0.1454 -0.2318
 4735W        W 8786   4.082   8.753  13.359 -0.0005 -0.1459 -0.3095
 4736W        W 8787   1.785   1.455   5.202  0.0624 -0.3178 -0.0892
 4737W        W 8788   1.286   9.721  11.534  0.0764 -0.0849  0.0102
 4738W        W 8789   5.928   3.562   2.924  0.0625  0.1429 -0.0005
 4739W        W 8790   5.158   8.902   3.915 -0.1182  0.1619  0.0504
 4740W        W 8791   2.587   9.990  13.190 -0.1232 -0.0248 -0.0755
 4741W        W 8792   0.191   9.773   0.644 -0.3173  0.1059 -0.0317
 4742W        W 8793   1.736   8.488  12.674 -0.0563 -0.0077  0.1656
 4743W        W 8794   4.990   1.368   3.245 -0.0889  0.1391  0.0891
 4744W        W 8795   6.822   3.115  11.865  0.0655 -0.1335 -0.0937
 4745W        W 8796   2.132   1.370   9.391 -0.1504  0.0475 -0.2849
 4746W        W 8797   3.500   1.283   8.960 -0.0973  0.1768  0.0429
 4747W        W 8798   1.708   5.301   0.562  0.4085  0.1464  0.1375
 4748W        W 8799   3.242   0.781   0.821  0.2146 -0.0803 -0.1585
 4749W        W 8800   1.620   2.501   4.077  0.0690 -0.0398 -0.0708
 4750W        W 8801   9.682   6.572   2.052 -0.0142 -0.3782 -0.1941
 4751W        W 8802   3.591   8.297   2.513 -0.1846  0.1398  0.0190
 4752W        W 8803   4.845   4.056  12.481 -0.0229 -0.0265  0.2077
 4753W        W 8804   3.773   3.821  12.738  0.1770  0.0357  0.0462
 4754W        W 8805   2.038   4.929   2.893 -0.1933 -0.1727  0.0943
 4755W        W 8806   8.474   3.644   8.950 -0.0467  0.1636 -0.1606
 4756W        W 8807   4.472   3.034   0.180 -0.2510 -0.2718 -0.2481
 4757W        W 8808   4.005   6.612   0.891  0.1949  0.3066 -0.3547
 4758W        W 8809   4.821   5.692   9.450 -0.1307 -0.0485  0.2509
 4759W        W 8810   0.414   1.494   0.969  0.0623  0.0433 -0.0076
 4760W        W 8811   0.149   8.054   3.957  0.0378 -0.0781 -0.2163
 4761W        W 8812   1.522   4.379   0.839 -0.0493  0.2341 -0.1033
 4762W        W 8813   4.398   0.428  11.092 -0.0298 -0.0455  0.0745
 4763W        W 8814   8.057   6.988  10.967  0.2008 -0.2029 -0.0266
 4764W        W 8815   9.471   3.777  10.593  0.1823  0.1985  0.1928
 4765W        W 8816   7.465   0.650   0.600 -0.1948 -0.1594 -0.1814
 4766W        W 8817   0.466   5.235  11.334  0.1713  0.3465  0.0206
 4767W        W 8818   7.905   6.892  10.119 -0.0943 -0.0159 -0.1401
 4768W        W 8819   6.086   5.620   4.098  0.0644 -0.0554 -0.2957
 4769W        W 8820   3.818   3.529  10.997 -0.0708  0.2686 -0.3935
 4770W        W 8821   1.657   8.870  11.075 -0.1912 -0.4178  0.2065
 4771W        W 8822   5.916   4.318  12.619 -0.1794 -0.0752 -0.2172
 4772W        W 8823   9.458   9.701   0.768 -0.2995 -0.4535 -0.3001
 4773W        W 8824   7.541   0.217  13.866 -0.1793 -0.6012  0.0896
 4774W        W 8825   8.582   7.315  12.098 -0.0439  0.1185 -0.1363
 4775W        W 8826   7.382   6.193   9.164 -0.0454 -0.3075  0.1339
 4776W        W 8827   8.788   3.100  10.811 -0.0327  0.1867  0.2647
 4777W        W 8828   4.986   8.719   9.479 -0.0001 -0.0399  0.2308
 4778W        W 8829   6.593   8.392  10.217 -0.0389 -0.0425 -0.0854
 4779W        W 8830   0.068   6.823  11.799  0.0673 -0.2860 -0.4847
 4780W        W 8831   6.351   2.818  11.141 -0.1870 -0.0596  0.1435
 4781W        W 8832   3.119   2.448  13.079  0.3029  0.1171 -0.2199
 4782W        W 8833   3.603   2.976   1.485  0.2083 -0.0523  0.0566
 4783W        W 8834   3.259   6.152   3.658  0.0976  0.2275  0.3955
 4784W        W 8835   0.402   4.898   4.390 -0.0884  0.1827 -0.1648
 4785W        W 8836   2.212   6.713  11.503 -0.0008 -0.1590 -0.1537
 4786W        W 8837   4.348   8.730   4.099  0.2233  0.0397  0.1266
 4787W        W 8838   7.214   4.051  10.549 -0.3004 -0.0619 -0.0785
 4788W        W 8839   1.336   2.594  12.749 -0.2043 -0.2196  0.1156
 4789W        W 8840   7.131   3.150  13.723  0.1929  0.0690  0.0221
 4790W        W 8841   0.245   8.433   9.820 -0.0057  0.0356  0.2373
 4791W        W 8842   0.688   3.931   5.173 -0.1129  0.0656 -0.0835
 4792W        W 8843   9.019   5.707  13.659 -0.2131  0.1569 -0.0436
 4793W        W 8844   6.091   6.754   1.409 -0.1573  0.0712  0.0125
 4794W        W 8845   5.022   6.223   3.314 -0.2503  0.2276  0.1536
 4795W        W 8846   5.065   8.020   4.075  0.1604  0.1809 -0.0817
 4796W        W 8847   7.813   4.368  12.300  0.1148 -0.0566  0.2476
 4797W        W 8848   4.516   8.906   1.322 -0.0258 -0.2445 -0.4449
 4798W        W 8849   5.596   3.932   0.340  0.5222 -0.0133  0.1419
 4799W        W 8850   5.335   0.455   0.320  0.1551  0.1057 -0.3124
 4800W        W 8851   1.352   7.391  12.111 -0.1533  0.3813  0.1252
 4801W        W 8852   4.480   6.465  12.946  0.1090  0.2279 -0.1798
 4802W        W 8853   5.443   5.546   2.299  0.1434 -0.5782 -0.0036
 4803W        W 8854   6.357   1.107   2.806  0.2001 -0.0754 -0.3104
 4804W        W 8855   7.752   5.355   0.288 -0.1454  0.1322  0.0114
 4805W        W 8856   4.843   5.700  11.902  0.4160  0.2505  0.0498
 4806W        W 8857   8.468   5.837   0.434  0.0625 -0.1186  0.1128
 4807W        W 8858   6.090   5.450  10.981 -0.1427 -0.2287  0.2336
 4808W        W 8859   9.078   8.689   2.914 -0.0080 -0.0801 -0.2815
 4809W        W 8860   6.817   5.012   9.445  0.0372 -0.0630 -0.3294
 4810W        W 8861   6.740   4.149   3.824  0.1572  0.1191  0.2413
 4811W        W 8862   4.600   5.287  12.084 -0.0273 -0.2334 -0.0463
 4812W        W 8863   3.618   2.171   2.738 -0.1244  0.0292  0.0199
 4813W        W 8864   4.366   6.379  10.111 -0.3463 -0.0709 -0.0047
 4814W        W 8865   6.089   4.998  10.408 -0.1738 -0.2141 -0.0025
 4815W        W 8866   5.990   0.938  13.780 -0.0155  0.1192 -0.0411
 4816W        W 8867   7.039   9.186  11.953  0.1975  0.2771 -0.2046
 4817W        W 8868   5.378   8.844   2.948 -0.3343  0.0161  0.0258
 4818W        W 8869   2.735   8.486   2.820  0.1273  0.0888 -0.3758
 4819W        W 8870   7.771   2.458   2.081  0.0840 -0.0399  0.1555
 4820W        W 8871   4.455  10.069  11.689  0.0436 -0.1466 -0.0904
 4821W        W 8872   2.235   5.341   1.267  0.2065  0.0482 -0.1247
 4822W        W 8873   3.002   8.009  13.714 -0.0182  0.1983  0.2684
 4823W        W 8874   7.793   1.309  13.053  0.0679  0.1879 -0.1271
 4824W        W 8875   0.323   5.397   4.460 -0.1313  0.0253  0.0383
 4825W        W 8876   2.064   1.495   0.308  0.3013  0.1201  0.0984
 4826W        W 8877   5.721   2.351  13.432  0.0916 -0.3585  0.4017
 4827W        W 8878   2.065   3.607  13.169  0.0330  0.2942  0.1086
 4828W        W 8879   8.880   3.599  10.987  0.1473 -0.1543  0.0661
 4829W        W 8880   6.392   6.641   9.657  0.0473 -0.0018 -0.1401
 4830W        W 8881   4.064   3.441   1.631  0.1974  0.2673  0.1216
 4831W        W 8882   5.483   6.092  11.353 -0.0845  0.2848 -0.1978
 4832W        W 8883   5.115   1.318   4.973 -0.2447  0.1387 -0.0103
 4833W        W 8884   4.305   7.907  10.725 -0.1110 -0.0351  0.2742
 4834W        W 8885   5.643   1.855  13.202 -0.3748 -0.0785  0.0051
 4835W        W 8886   1.813   1.338   1.151  0.3365  0.0836 -0.0961
 4836W        W 8887   0.183   5.882   3.232  0.0657  0.1241 -0.1570
 4837W        W 8888   0.931   0.546  11.470 -0.0641 -0.2531  0.0944
 4838W        W 8889   7.983   1.900   0.311 -0.3002 -0.1098  0.1319
 4839W        W 8890   7.747   6.098  11.433  0.0584 -0.0902 -0.0409
 4840W        W 8891   1.669   5.957   4.564 -0.2010  0.0312  0.0248
 4841W        W 8892   6.379   2.136   8.504 -0.0905  0.1287 -0.0820
 4842W        W 8893   1.171   9.640   2.794  0.1381 -0.1797  0.1029
 4843W        W 8894   0.235   9.858   3.425  0.2268 -0.0800  0.1325
 4844W        W 8895   4.757   2.145  13.821  0.1098 -0.4061 -0.0234
 4845W        W 8896   8.386   9.500  13.555 -0.1025 -0.3797 -0.3176
 4846W        W 8897   6.893   8.514   1.504  0.2014  0.1688 -0.2653
 4847W        W 8898   5.774   5.880   3.816 -0.0361 -0.1823  0.3069
 4848W        W 8899   0.395   2.025   0.807 -0.1445  0.0744 -0.2322
 4849W        W 8900   6.240   2.780   2.741  0.2188  0.1063 -0.3824
 4850W        W 8901   2.399   6.600   0.111 -0.1523 -0.3812 -0.1967
 4851W        W 8902   4.545   4.183   3.927 -0.0807 -0.1071 -0.0560
 4852W        W 8903   9.908   5.732   2.302 -0.0424  0.1450 -0.3039
 4853W        W 8904   5.367   7.140   2.474 -0.3802  0.0307  0.4611
 4854W        W 8905   1.342   7.478   3.869 -0.1043 -0.0589 -0.0957
 4855W        W 8906   1.708   1.091   4.291  0.0901 -0.2560 -0.2107
 4856W        W 8907   7.235   4.452  10.214 -0.1278  0.0505 -0.1577
 4857W        W 8908   0.988   9.497  12.692 -0.0861  0.0102  0.1373
 4858W        W 8909   5.888   0.834  10.788 -0.3106  0.1721 -0.1576
 4859W        W 8910   6.021   6.518   0.327 -0.0370 -0.0340  0.2938
 4860W        W 8911   5.193   0.066   3.015 -0.1208  0.0079 -0.1408
 4861W        W 8912   3.691   8.612   2.995  0.1166 -0.0249  0.0384
 4862W        W 8913   5.549   8.416  12.784  0.0142  0.0954  0.1463
 4863W        W 8914   4.994   8.585  10.937 -0.1389  0.3087  0.0988
 4864W        W 8915   4.771   8.366   3.319  0.1293  0.2117 -0.2254
 4865W        W 8916   8.028   7.420  11.282  0.1034 -0.0929 -0.0220
 4866W        W 8917   5.593   9.565   2.663 -0.0718 -0.0894  0.3210
 4867W        W 8918   4.407   7.623   2.407  0.1151 -0.0026  0.0493
 4868W        W 8919   2.316   1.981  10.926  0.0617  0.0886 -0.1039
 4869W        W 8920   9.934   7.592  11.383 -0.0527 -0.0036 -0.0532
 4870W        W 8921   0.682   1.916   3.942 -0.0069 -0.0465  0.3027
 4871W        W 8922   2.815   4.719   4.110 -0.1922 -0.2136 -0.0883
 4872W        W 8923   7.468   3.666   4.597 -0.3078 -0.1621  0.0315
 4873W        W 8924   5.836   3.371  10.018  0.2095 -0.0147 -0.3252
 4874W        W 8925   4.790   2.808   2.995  0.2071 -0.2318  0.0827
 4875W        W 8926   6.042   4.830   3.307  0.0539  0.2354 -0.0327
 4876W        W 8927   1.982   9.959   4.840  0.0323  0.0994 -0.0689
 4877W        W 8928   4.560   9.472   3.948 -0.1940 -0.1096 -0.0510
 4878W        W 8929   8.511   6.011   1.726 -0.0404 -0.2638 -0.4679
 4879W        W 8930   5.674   0.327   3.768  0.1033  0.0757  0.1232
 4880W        W 8931   3.486   5.478   1.776  0.0120 -0.0578  0.1124
 4881W        W 8932   2.173   6.291   9.886  0.0087  0.0687 -0.2259
 4882W        W 8933   1.272   0.369  11.758  0.0011  0.0431  0.1136
 4883W        W 8934   4.531   2.931   1.008 -0.2242 -0.0360  0.0610
 4884W        W 8935   0.362   5.958  10.309 -0.2890  0.5030 -0.0918
 4885W        W 8936   1.389   2.237   1.588 -0.1857  0.1590  0.0239
 4886W        W 8937   2.571   2.825   4.378  0.3169  0.1578  0.2128
 4887W        W 8938  10.109   8.777   1.037 -0.0670  0.1654 -0.0493
 4888W        W 8939   6.078   8.772   0.241 -0.0020  0.1731 -0.2845
 4889W        W 8940   7.573   2.595   2.989  0.2597 -0.2905  0.2117
 4890W        W 8941   3.712   4.083   2.371 -0.1857 -0.1690  0.1289
 4891W        W 8942   8.759   8.401  10.213 -0.3830 -0.0909  0.2261
 4892W        W 8943   6.152   6.402  11.044  0.2740 -0.0228 -0.4251
 4893W        W 8944   9.016   6.098   3.732  0.1032  0.0843 -0.0951
 4894W        W 8945   3.471   1.298   2.959 -0.2678 -0.0817  0.2371
 4895W        W 8946   4.882   0.044  13.292  0.0395  0.2273  0.2070
 4896W        W 8947   4.949   9.867   0.344  0.1471  0.0354 -0.3702
 4897W        W 8948   3.670   6.442   3.847  0.2285 -0.0483  0.0803
 4898W        W 8949   2.855   7.942   1.809  0.0386  0.1640 -0.1028
 4899W        W 8950   0.120   8.844   3.161  0.0318 -0.4820  0.0829
 4900W        W 8951   7.220   1.907   8.944 -0.0580  0.3080  0.2281
 4901W        W 8952   4.395   1.717  13.734 -0.0044 -0.2544 -0.0386
 4902W        W 8953   7.705   2.453  12.458  0.0324 -0.2286  0.2278
 4903W        W 8954   0.739   8.030  12.486 -0.6001  0.0402 -0.0085
 4904W        W 8955   4.731   2.604   0.147  0.0845 -0.4062 -0.5118
 4905W        W 8956   3.622   1.424   3.450  0.1217  0.3356 -0.2529
 4906W        W 8957   3.289   2.098  10.457 -0.2050 -0.1137  0.0397
 4907W        W 8958   0.691   7.005   0.917 -0.4132  0.1383 -0.2354
 4908W        W 8959   7.065   8.140   0.363  0.0552 -0.0234  0.1351
 4909W        W 8960   6.605   5.455  13.392  0.3587  0.2776 -0.0769
 4910W        W 8961   3.857   1.141   4.413 -0.0809  0.4530  0.2104
 4911W        W 8962   5.881   6.350  12.524  0.2195 -0.3831  0.0713
 4912W        W 8963   4.372   4.135   4.367 -0.0597 -0.1012 -0.0020
 4913W        W 8964   1.821   0.173   0.976 -0.4989 -0.2339 -0.2270
 4914W        W 8965   0.264   9.562  10.036 -0.2511  0.0234  0.1594
 4915W        W 8966   6.892   3.670  10.447  0.1642  0.1705 -0.2274
 4916W        W 8967   8.116   4.031  12.650 -0.1178  0.0214 -0.1438
 4917W        W 8968   3.603   0.101  10.780 -0.1220  0.3939  0.2784
 4918W        W 8969  10.102   1.667   2.309 -0.0494  0.2406 -0.0714
 4919W        W 8970   4.517   3.693  12.648  0.2095  0.1028  0.0736
 4920W        W 8971   8.702   1.351  13.421 -0.0024 -0.1159  0.0966
 4921W        W 8972   4.164   6.440   3.648  0.1607 -0.2500 -0.0218
 4922W        W 8973   4.080   8.953   3.585  0.2943 -0.1210 -0.2085
 4923W        W 8974   3.622   7.609   1.827 -0.0770  0.0365  0.2557
 4924W        W 8975   1.734   4.773   4.358  0.0718  0.1812  0.0261
 4925W        W 8976   8.435   1.590   8.936  0.1319 -0.1618 -0.1431
 4926W        W 8977   9.601   8.174  11.275  0.0335  0.0348 -0.0458
 4927W        W 8978   5.062   3.031   0.079  0.0280  0.3283  0.2841
 4928W        W 8979   0.503   9.693   1.511  0.1863 -0.0684 -0.0412
 4929W        W 8980   1.383   7.787   3.405 -0.0728 -0.0631  0.1358
 4930W        W 8981   1.879   8.863  13.000  0.2059 -0.1699  0.1251
 4931W        W 8982   8.861  10.091  10.210  0.3087  0.1775 -0.3240
 4932W        W 8983   8.151   2.021  11.214  0.0150 -0.0126  0.2590
 4933W        W 8984   9.523   3.900  11.488 -0.1749 -0.3729 -0.2610
 4934W        W 8985   5.700   9.759   1.358  0.1069  0.0888 -0.5131
 4935W        W 8986   2.010   3.115  10.131  0.0065  0.0689  0.3530
 4936W        W 8987   8.992   4.478  11.462  0.1881 -0.2145 -0.1985
 4937W        W 8988   7.496   3.571   1.118 -0.0787  0.2636 -0.2963
 4938W        W 8989   3.182   4.228   1.169 -0.1335 -0.3426  0.0568
 4939W        W 8990   0.181   1.252   2.611 -0.3908  0.0843 -0.0060
 4940W        W 8991   3.069   5.151  11.841 -0.1264  0.0456 -0.0666
 4941W        W 8992   2.392   3.737  10.892 -0.0965  0.3556  0.1242
 4942W        W 8993   0.210   6.444  10.200  0.2011  0.0502  0.1379
 4943W        W 8994   2.490   6.974  12.627 -0.2453 -0.3450 -0.1445
 4944W        W 8995   8.488   7.783   2.811 -0.3889  0.1647 -0.0570
 4945W        W 8996   7.463   2.375  10.860  0.0071 -0.2921  0.0081
 4946W        W 8997  10.066   1.854   4.188 -0.0920 -0.3336 -0.1180
 4947W        W 8998   6.213   9.734   2.027 -0.0202 -0.2153 -0.2528
 4948W        W 8999   5.812   7.365   2.561  0.2279  0.2820 -0.0684
 4949W        W 9000   5.369   0.670   4.093  0.2288 -0.0052 -0.1168
 4950W        W 9001   7.162   9.709   2.382 -0.0233  0.1489  0.0910
 4951W        W 9002   3.353   1.111  10.243 -0.2258  0.3268  0.1274
 4952W        W 9003   9.084   0.885   0.704  0.0314 -0.0744  0.0119
 4953W        W 9004   7.195   4.252  10.981  0.0322 -0.1102  0.1789
 4954W        W 9005   7.452   9.116   0.342  0.0544 -0.1746 -0.0678
 4955W        W 9006   6.448   3.522  11.753 -0.3694  0.2510  0.2789
 4956W        W 9007   9.366   4.546   0.979  0.2189  0.3206  0.0976
 4957W        W 9008   7.417   4.011  10.048 -0.0648 -0.0388  0.0818
 4958W        W 9009   5.834   5.137   2.307 -0.1255 -0.0343 -0.0503
 4959W        W 9010   9.715   1.978   9.861  0.0981  0.0357  0.0981
 4960W        W 9011   7.056   2.355   3.795 -0.1492 -0.0822  0.1506
 4961W        W 9012   4.923   6.035   3.736 -0.0782  0.0469 -0.0002
 4962W        W 9013   2.455   0.494  12.373  0.1332  0.0273 -0.1675
 4963W        W 9014   0.220   7.480   0.247 -0.0714  0.2434 -0.1629
 4964W        W 9015   9.413   4.452   5.633  0.1573  0.0624 -0.0309
 4965W        W 9016   3.872   9.476  10.335  0.0183  0.1048 -0.3023
 4966W        W 9017   4.629   1.448  10.021 -0.0113  0.0032  0.1871
 4967W        W 9018   9.620   4.021   0.098  0.1210  0.1759 -0.1913
 4968W        W 9019   3.870   9.141   9.992 -0.3276 -0.1041 -0.1352
 4969W        W 9020   5.460   2.713  12.838  0.2147  0.1664  0.2294
 4970W        W 9021   0.876   9.996   1.610 -0.1444  0.1448  0.0772
 4971W        W 9022   7.125   0.272   4.533 -0.0941 -0.1635 -0.0640
 4972W        W 9023   8.541   2.618   3.356 -0.1709  0.0734  0.2950
 4973W        W 9024   4.456   7.106   2.576 -0.0028 -0.1311  0.0833
 4974W        W 9025   8.955   9.678  13.783 -0.1752 -0.1509  0.1408
 4975W        W 9026   6.153   9.834   0.470  0.4581 -0.2348 -0.0374
 4976W        W 9027   2.656   7.451   9.586 -0.2378 -0.1109  0.1082
 4977W        W 9028   6.673   7.563   2.369  0.0138  0.2520  0.1958
 4978W        W 9029   7.432  10.096  12.177 -0.0990  0.1522  0.1037
 4979W        W 9030   2.367   5.109   3.251 -0.1698 -0.0292  0.0763
 4980W        W 9031   3.520   8.152   0.635  0.0268 -0.0268 -0.1792
 4981W        W 9032   6.039   8.079   4.115  0.0722 -0.1811 -0.1766
 4982W        W 9033   6.092   5.722   4.591  0.0000  0.2535 -0.0409
 4983W        W 9034   7.025   7.482   0.465  0.0769 -0.1322 -0.3303
 4984W        W 9035   1.739   6.744  11.319 -0.2481  0.2284  0.0493
 4985W        W 9036   3.694   9.958   4.364 -0.0111  0.0610  0.1619
 4986W        W 9037   2.979   5.256   4.170  0.3266  0.3310  0.0426
 4987W        W 9038   5.824   5.617   3.372  0.0566  0.1683 -0.1769
 4988W        W 9039   7.170   2.342   4.816  0.1310  0.0883  0.2661
 4989W        W 9040   9.607   8.197  12.314 -0.0221 -0.2219 -0.0536
 4990W        W 9041   6.508   3.092   9.501  0.2374 -0.0719 -0.2182
 4991W        W 9042   7.919   9.045   3.971  0.1227 -0.0032  0.0864
 4992W        W 9043   4.098   2.068  13.508 -0.0677  0.0401  0.0146
 4993W        W 9044   3.778   8.073  13.501  0.0182 -0.1360 -0.2559
 4994W        W 9045   9.607   4.978   4.161 -0.2272 -0.0283  0.0666
 4995W        W 9046   9.011   7.949  13.163 -0.0749 -0.0660 -0.2855
 4996W        W 9047   9.579   4.785  12.049 -0.3191 -0.0470 -0.2832
 4997W        W 9048   8.588   5.715  11.224  0.0265  0.0524  0.0049
 4998W        W 9049   3.764   1.415   9.366 -0.0768 -0.1037 -0.1178
 4999W        W 9050   2.087   9.224   2.985 -0.0970  0.1571  0.1258
 5000W        W 9051   6.031   7.389   0.026  0.2098  0.1449 -0.0022
 5001W        W 9052   1.432   2.110  13.311 -0.0844  0.0695  0.1326
 5002W        W 9053   6.416   3.459   4.068 -0.0089 -0.0921  0.2356
 5003W        W 9054   3.267   6.296  11.064 -0.2089  0.1225  0.0352
 5004W        W 9055   3.207   9.265   3.012  0.1148 -0.1682 -0.0067
 5005W        W 9056   0.104   0.344   1.623 -0.1288  0.0325  0.0783
 5006W        W 9057   3.041   4.774   3.168 -0.3184 -0.2769 -0.0788
 5007W        W 9058   3.429   4.783  11.510  0.0565 -0.2649 -0.1926
 5008W        W 9059   2.189   5.735   1.577  0.0264 -0.1830  0.2651
 5009W        W 9060   1.970   8.013   3.911  0.1853 -0.0216  0.0356
 5010W        W 9061   7.817   2.184  10.062  0.2424 -0.0678  0.1293
 5011W        W 9062   7.271   1.302  12.720 -0.0629  0.0300 -0.3504
 5012W        W 9063   9.185   0.672   2.371 -0.1792 -0.1933  0.0022
 5013W        W 9064   8.843   7.716  11.951 -0.1287  0.2142 -0.2350
 5014W        W 9065   7.168   0.146   2.917 -0.0214 -0.2812 -0.0187
 5015W        W 9066   9.941   8.605  13.471  0.1258  0.2901  0.1538
 5016W        W 9067   2.650   0.151   0.100  0.3352  0.0564  0.3247
 5017W        W 9068   4.981   3.606  12.837  0.0306  0.0029  0.0940
 5018W        W 9069   9.436   9.363   1.118  0.0216  0.2476 -0.2508
 5019W        W 9070   3.423   8.347  13.649  0.2002  0.3365  0.1018
 5020W        W 9071   3.943   2.837   1.918  0.1586  0.2523 -0.1503
 5021W        W 9072   9.453   1.742   4.115 -0.4547  0.0878  0.0937
 5022W        W 9073   0.533   3.212   2.465  0.0706  0.1327  0.0251
 5023W        W 9074   2.302   5.376  13.320  0.1473  0.1317  0.1351
 5024W        W 9075   7.212   8.617  13.517  0.3109 -0.3136  0.0494
 5025W        W 9076   2.879   0.899   2.280 -0.1020 -0.0296 -0.1682
 5026W        W 9077   0.930   3.805   5.584 -0.0286 -0.5581  0.0771
 5027W        W 9078   1.715   8.488   1.918  0.0259  0.0585 -0.1805
 5028W        W 9079   5.869   8.770   0.666  0.2550  0.0612  0.1336
 5029W        W 9080   7.012   4.039  12.404  0.0028 -0.1645  0.0407
 5030W        W 9081   5.857   9.383  10.667  0.2560 -0.2499  0.2662
 5031W        W 9082   9.330   0.714  11.429 -0.1354  0.0391 -0.2443
 5032W        W 9083   4.166   2.173   2.677 -0.1264  0.1094  0.0030
 5033W        W 9084   5.159   5.472   2.730  0.1007  0.1589  0.4828
 5034W        W 9085   9.596   7.070   0.813 -0.2050  0.1009 -0.1091
 5035W        W 9086   2.250   0.179   1.784 -0.0196 -0.1970 -0.1822
 5036W        W 9087   1.919   8.564  10.746  0.2116 -0.1010  0.0025
 5037W        W 9088   8.299   1.604  10.993  0.1859  0.1774  0.0063
 5038W        W 9089   9.883   9.973   0.672 -0.3100  0.2251 -0.1539
 5039W        W 9090   2.313   2.443   0.817 -0.0008  0.3474 -0.0731
 5040W        W 9091   6.936   0.028   1.344  0.2168  0.0408  0.0241
 5041W        W 9092   3.374   1.643   1.458  0.2109  0.2021 -0.0067
 5042W        W 9093   5.715   5.902  10.057 -0.2377 -0.0325  0.1504
 5043W        W 9094   4.709   0.949  13.113 -0.1458 -0.2140  0.0335
 5044W        W 9095   5.280   6.271   9.313 -0.0195 -0.4039  0.2238
 5045W        W 9096   3.255   0.235   0.775 -0.0274  0.3168  0.0902
 5046W        W 9097   0.749   8.055  13.044 -0.4935  0.0446 -0.2994
 5047W        W 9098   5.874   2.849  10.270 -0.2873 -0.0918  0.0449
 5048W        W 9099   3.148   0.291  11.068  0.1514 -0.0938 -0.0446
 5049W        W 9100   9.530   6.501  13.253  0.2424  0.0737  0.0452
 5050W        W 9101   3.009   4.488   4.919  0.1698  0.2572 -0.0467
 5051W        W 9102   6.248   8.445   0.773 -0.1130 -0.1521 -0.1075
 5052W        W 9103   3.962   7.052  11.722  0.0875  0.3458  0.2610
 5053W        W 9104   5.949   8.388  11.948 -0.3312 -0.0423  0.0462
 5054W        W 9105   6.389   1.387  10.092 -0.0570 -0.0376  0.0705
 5055W        W 9106   0.384   1.208   2.072  0.0964 -0.0526  0.1926
 5056W        W 9107   3.462   7.166  13.634 -0.0331  0.0500 -0.2161
 5057W        W 9108   5.398   9.733   3.124  0.0837 -0.2423  0.0878
 5058W        W 9109   0.460   6.127   3.596 -0.1417 -0.1217 -0.4251
 5059W        W 9110   0.778   2.763   2.005 -0.0256  0.2287  0.0833
 5060W        W 9111   5.515   6.666   4.854 -0.0051  0.1623 -0.1941
 5061W        W 9112   6.357   9.743  13.108 -0.3867  0.1503 -0.2302
 5062W        W 9113   7.083   6.928   9.337 -0.1500  0.0380 -0.3043
 5063W        W 9114   6.624   4.126   2.895 -0.1740  0.1586  0.0686
 5064W        W 9115   4.370   7.434  10.506 -0.1653  0.1801  0.1660
 5065W        W 9116   5.671   4.640   3.577  0.1468  0.1309 -0.1750
 5066W        W 9117   0.331   2.634   9.821  0.0257 -0.0957  0.0226
 5067W        W 9118   9.936   5.336   0.815  0.1336 -0.1124 -0.3027
 5068W        W 9119   9.205   0.312  11.062 -0.6748 -0.0064  0.3061
 5069W        W 9120   1.913   8.207  10.368  0.3630 -0.0566 -0.0719
 5070W        W 9121   7.270   1.645  11.412  0.1166  0.1744 -0.1669
 5071W        W 9122   2.983   2.285   5.501 -0.3267 -0.0491  0.1224
 5072W        W 9123   0.541   9.365  11.273  0.2381 -0.1261 -0.0940
 5073W        W 9124   1.526   5.036  12.388  0.2163 -0.0699 -0.3283
 5074W        W 9125   2.571   2.183   3.110 -0.4149 -0.0510  0.0187
 5075W        W 9126   3.859   6.285  11.189  0.1135 -0.2612  0.0318
 5076W        W 9127   4.402   0.132   2.111 -0.2858 -0.2097  0.0418
 5077W        W 9128   1.672   1.209   1.834  0.0551  0.2789 -0.3033
 5078W        W 9129   2.960   2.599   9.404 -0.0407 -0.0698 -0.3643
 5079W        W 9130   4.627   2.033  13.360  0.1388  0.0278  0.1993
 5080W        W 9131   2.272   6.534  12.307  0.1416  0.1197 -0.1085
 5081W        W 9132   6.098   2.469  13.733 -0.0606  0.1619  0.0673
 5082W        W 9133   5.939   5.469  10.133  0.1416 -0.0284 -0.0204
 5083W        W 9134   4.432   7.542  11.767  0.4504 -0.0308 -0.1092
 5084W        W 9135   1.298   4.873   4.584 -0.0524 -0.0226 -0.0094
 5085W        W 9136   0.986   7.379   0.986 -0.1864  0.0660  0.2472
 5086W        W 9137   9.437   5.987  13.046  0.1441  0.1371 -0.0565
 5087W        W 9138   0.996   3.155  13.856  0.0550 -0.0665  0.2456
 5088W        W 9139   1.272   8.507  12.449  0.3394  0.2125 -0.1868
 5089W        W 9140   0.155   1.253  11.152  0.1266  0.0270  0.0416
 5090W        W 9141   3.219   7.887   2.407 -0.2810 -0.0560  0.0468
 5091W        W 9142   3.402   4.457   2.506 -0.2095 -0.1305 -0.2087
 5092W        W 9143   9.527   9.591   1.817 -0.3523  0.3055  0.2526
 5093W        W 9144   9.944   6.130   1.983 -0.0697  0.0186  0.0858
 5094W        W 9145   1.709   3.371   3.007 -0.2068 -0.2457 -0.0923
 5095W        W 9146   0.190   4.571   4.719  0.0435  0.0987  0.3974
 5096W        W 9147   7.290   8.695   0.605  0.0248  0.1257 -0.0574
 5097W        W 9148   1.897   3.470   0.565  0.1154  0.2446 -0.1482
 5098W        W 9149   4.094   6.723   2.190 -0.1209 -0.1135  0.0464
 5099W        W 9150   3.612   7.618  10.875  0.0701  0.2246  0.0121
 5100W        W 9151   9.168   9.401   3.620 -0.1070  0.2548  0.1777
 5101W        W 9152  10.040   8.183  12.619 -0.2278  0.0078  0.3959
 5102W        W 9153   9.910   4.540   3.226  0.2293  0.0996 -0.1284
 5103W        W 9154   3.582   5.401  10.038  0.2766 -0.2532  0.1893
 5104W        W 9155   8.052   5.949   2.124 -0.2654  0.1695 -0.2812
 5105W        W 9156   5.076   0.990   9.464  0.1708  0.2902  0.0450
 5106W        W 9157   6.150   5.142  13.017 -0.1649 -0.1339 -0.1452
 5107W        W 9158   9.791   8.743   2.589  0.0126 -0.0442  0.1263
 5108W        W 9159   2.311   7.716   4.677  0.3189  0.1227 -0.0878
 5109W        W 9160   0.921   7.613   9.793  0.0828 -0.2614 -0.3254
 5110W        W 9161   7.834   5.102  12.843  0.0113 -0.3691  0.0884
 5111W        W 9162   3.679   1.170  11.242 -0.2309  0.2544 -0.2867
 5112W        W 9163   9.093   8.957   1.101  0.1911  0.1956 -0.0454
 5113W        W 9164   7.794  10.075   0.667  0.2045  0.4139 -0.1123
 5114W        W 9165   6.336   6.668  10.663 -0.1150 -0.1560  0.0888
 5115W        W 9166   8.002   2.493   9.251 -0.0331 -0.2778 -0.0790
 5116W        W 9167   8.988   1.143   2.720  0.1137 -0.1217 -0.0572
 5117W        W 9168   6.021   6.647   4.652  0.1889 -0.0481  0.3034
 5118W        W 9169   5.975   3.682   8.362 -0.0982 -0.0304 -0.1041
 5119W        W 9170   2.676   0.236  10.828  0.2529  0.1033  0.0602
 5120W        W 9171   9.922   3.022  11.669  0.0955  0.0884  0.2919
 5121W        W 9172   9.016   4.190   1.072  0.1011  0.1188 -0.2339
 5122W        W 9173   9.953   8.187  10.021  0.0071 -0.1284  0.1839
 5123W        W 9174   3.539   1.183   0.573  0.0997  0.1787 -0.0659
 5124W        W 9175   4.028   6.575   4.172  0.0515 -0.0069  0.2497
 5125W        W 9176   3.332   9.525  11.312  0.2427 -0.0812  0.1853
 5126W        W 9177   6.248   6.645   1.873  0.2435  0.0467  0.1137
 5127W        W 9178   1.190   7.323  13.686 -0.4289  0.0699 -0.0620
 5128W        W 9179   7.956   4.915   3.220  0.0999  0.2677  0.0977
 5129W        W 9180   5.036   7.670  12.977  0.0102  0.1456  0.0785
 5130W        W 9181   8.721   9.752   1.021  0.1800 -0.3685 -0.1290
 5131W        W 9182   3.166   1.585  12.119 -0.0263 -0.1132 -0.0718
 5132W        W 9183   9.683   5.363   0.346 -0.0868  0.1070  0.2062
 5133W        W 9184   5.391   2.401  13.956  0.2247  0.1986  0.1699
 5134W        W 9185   4.035   3.953  10.433 -0.1014  0.0322 -0.3184
 5135W        W 9186   9.974   1.530   2.837  0.0647  0.1301 -0.2226
 5136W        W 9187   1.164   4.165   2.080 -0.0127 -0.2727  0.2435
 5137W        W 9188   3.510   5.053  10.666  0.0916  0.1900 -0.3021
 5138W        W 9189   9.542   9.605  13.734 -0.0150  0.1244  0.1508
 5139W        W 9190   8.381  10.178   1.412  0.0117 -0.0785  0.1695
 5140W        W 9191   2.101   3.984  11.672 -0.3644 -0.1208 -0.2001
 5141W        W 9192   3.370   0.040  12.537 -0.4045 -0.0785  0.2651
 5142W        W 9193   2.971   0.291   3.070 -0.1907  0.0709  0.0155
 5143W        W 9194   3.688   9.412   4.397  0.2955  0.0362  0.3325
 5144W        W 9195   1.533   0.367  10.195  0.2586  0.0946  0.1537
 5145W        W 9196   5.214   4.214  13.916  0.1860  0.5495  0.2693
 5146W        W 9197   9.388   2.390  10.495 -0.1530  0.1799  0.3944
 5147W        W 9198   4.883   1.314   0.569 -0.0336 -0.1648  0.4332
 5148W        W 9199   7.062   2.554   8.970  0.2087  0.2070  0.3054
 5149W        W 9200   9.165   9.488   2.646 -0.2305  0.2694 -0.3143
 5150W        W 9201   0.569   1.926   9.464  0.2170 -0.2198  0.0288
 5151W        W 9202   4.914   2.109   8.909  0.1801 -0.1981 -0.2450
 5152W        W 9203   2.545   8.779   3.654 -0.0751  0.3114  0.1952
 5153W        W 9204   2.308   4.600   3.721 -0.0483  0.1523 -0.0699
 5154W        W 9205   0.929   1.925  11.046  0.0896 -0.4222  0.3134
 5155W        W 9206   9.480   0.259   2.477 -0.0823 -0.1204  0.1869
 5156W        W 9207   5.661   0.813  13.472  0.3110 -0.0347  0.1349
 5157W        W 9208   0.512   3.105   3.636 -0.1350 -0.0321 -0.0062
 5158W        W 9209   6.535   8.010   4.119  0.1544  0.2410  0.0826
 5159W        W 9210   6.362   4.682  13.771  0.1281 -0.3218 -0.0767
 5160W        W 9211   6.926   0.833   3.332  0.1396 -0.2770  0.3303
 5161W        W 9212   8.467   0.768  11.174  0.2412  0.1087  0.4077
 5162W        W 9213   6.312   6.232   3.065 -0.0082  0.2546 -0.0856
 5163W        W 9214   5.930   8.502   4.418  0.0708 -0.1505 -0.2973
 5164W        W 9215   3.154   6.753   0.280 -0.1051  0.1156 -0.0836
 5165W        W 9216   3.783   3.118   4.144 -0.3501  0.2511 -0.1746
 5166W        W 9217   2.302   7.801   3.092 -0.0383  0.0294 -0.3358
 5167W        W 9218   0.630   7.571  12.989 -0.0622 -0.1091 -0.1518
 5168W        W 9219   3.501   5.180   1.288 -0.0872 -0.0183 -0.1461
 5169W        W 9220   3.532   9.019   5.635 -0.0571  0.1365  0.0852
 5170W        W 9221   0.888   6.276   3.924 -0.0188  0.2322  0.1253
 5171W        W 9222   7.628   3.183  10.772  0.3135 -0.2069 -0.0443
 5172W        W 9223   5.688   2.858   3.656 -0.0993 -0.0683  0.3722
 5173W        W 9224   6.486   1.794  12.910 -0.0768 -0.0498 -0.0718
 5174W        W 9225   8.448   9.358   0.182  0.2404 -0.0022 -0.0141
 5175W        W 9226   3.614   3.471   1.429 -0.0920 -0.2831  0.3226
 5176W        W 9227   0.086   7.870   0.540 -0.0830  0.3407  0.2159
 5177W        W 9228   3.077   8.919  11.889  0.2047 -0.1572  0.1289
 5178W        W 9229   5.801   3.729   9.674  0.0479 -0.1773 -0.2426
 5179W        W 9230   9.356   8.092  12.732 -0.0601 -0.0305 -0.1820
 5180W        W 9231   1.138   2.363  11.273 -0.1561 -0.1529 -0.2407
 5181W        W 9232   9.919   6.290   3.296 -0.0263  0.1314  0.2536
 5182W        W 9233   8.170   7.292  13.838 -0.2596 -0.1959  0.1253
 5183W        W 9234   7.544   0.061  12.698 -0.1280 -0.2315 -0.0569
 5184W        W 9235   2.831   7.242  13.027 -0.0237  0.1235  0.0670
 5185W        W 9236   9.453   2.987  13.083 -0.1121 -0.1137  0.1987
 5186W        W 9237   4.047   4.700   9.113  0.1325 -0.1980 -0.2211
 5187W        W 9238   8.398   4.722  13.886 -0.2889 -0.1186 -0.1045
 5188W        W 9239   9.989   0.409   2.378  0.3847  0.2068 -0.0186
 5189W        W 9240   6.608   4.866  12.782  0.0073  0.1205  0.0252
 5190W        W 9241   9.522   0.461  13.073  0.3823 -0.0798 -0.0535
 5191W        W 9242   6.519   8.993   0.694 -0.1787  0.0682 -0.0500
 5192W        W 9243   1.380   0.832   2.366  0.1288  0.0198 -0.1338
 5193W        W 9244   9.239   5.046  12.324 -0.0205 -0.1392 -0.1613
 5194W        W 9245   8.339   5.080   1.875  0.0086 -0.1114 -0.1030
 5195W        W 9246  10.124   5.102  13.117  0.0781  0.1501  0.3244
 5196W        W 9247   7.217   4.491   1.106 -0.0805 -0.1082 -0.1129
 5197W        W 9248   8.441   8.781   2.641  0.6299  0.1448 -0.0724
 5198W        W 9249   4.584   2.823  11.292  0.0046 -0.1355  0.3568
 5199W        W 9250   5.025   8.800   3.435 -0.1588  0.0236  0.1876
 5200W        W 9251  10.153   8.451   0.662 -0.0625 -0.1298  0.0025
 5201W        W 9252   5.119   2.860   2.586 -0.0223 -0.1383  0.2518
 5202W        W 9253   4.861   4.603   0.592  0.4871  0.1298  0.2325
 5203W        W 9254   5.509   0.806   0.656  0.3327 -0.1390  0.2973
 5204W        W 9255   0.476   8.244  13.863 -0.0365 -0.3030 -0.0923
 5205W        W 9256   9.059   7.125   3.246 -0.0570  0.1183  0.0045
 5206W        W 9257   0.704   5.257   8.653 -0.0877  0.0326 -0.0032
 5207W        W 9258   1.630   0.861   4.844  0.0343  0.1227 -0.0226
 5208W        W 9259   3.365   7.257  12.888  0.0431  0.0526  0.0144
 5209W        W 9260   0.505   6.003   2.732  0.1254 -0.1750 -0.0952
 5210W        W 9261   1.860   4.998   1.391 -0.1387  0.1587 -0.1830
 5211W        W 9262   4.840   8.995   2.498  0.0684  0.1101  0.4207
 5212W        W 9263   4.602   0.958   9.830  0.1148 -0.0776 -0.4124
 5213W        W 9264   2.970   5.451   0.563  0.0339 -0.0935  0.1279
 5214W        W 9265   5.223   2.081  10.561 -0.2113 -0.0301 -0.1728
 5215W        W 9266   8.572   2.535   0.158 -0.0070 -0.3611  0.3347
 5216W        W 9267   7.299   6.209   0.092  0.3393  0.1429  0.0639
 5217W        W 9268   1.342   6.632   3.872  0.0386  0.0400 -0.2269
 5218W        W 9269   1.549   8.861   2.858  0.0621  0.0989  0.0665
 5219W        W 9270   7.826   1.559  11.324  0.2490  0.2226 -0.1350
 5220W        W 9271   9.502   0.712   2.772  0.1229  0.1709 -0.2028
 5221W        W 9272   1.503   3.685  10.533 -0.0465 -0.0956 -0.0644
 5222W        W 9273   4.566   6.373   1.502 -0.1028  0.1404  0.0122
 5223W        W 9274   2.923   7.138   3.013  0.0092 -0.0715  0.3160
 5224W        W 9275   6.466   9.282   2.192  0.1044  0.1061  0.0918
 5225W        W 9276   6.272   5.455   1.250 -0.1063  0.0871  0.1382
 5226W        W 9277   0.871   5.235   9.881 -0.1387 -0.0641  0.3815
 5227W        W 9278   3.529   7.465  12.428 -0.1476 -0.1509 -0.1478
 5228W        W 9279   0.156   4.160   3.297  0.0994 -0.0081 -0.1294
 5229W        W 9280   1.299   3.203   8.921 -0.0014  0.0168  0.0491
 5230W        W 9281   3.810   0.886   2.995 -0.1905 -0.2209  0.2505
 5231W        W 9282   2.126   1.508  10.799 -0.2415 -0.0233 -0.2670
 5232W        W 9283   9.907   2.548   4.401 -0.0106  0.0580  0.2835
 5233W        W 9284   0.218   2.876   2.570  0.0464  0.3404 -0.1911
 5234W        W 9285   7.604   3.963   2.193 -0.0199  0.2630 -0.3204
 5235W        W 9286   9.794   6.297  11.894  0.1134 -0.1578  0.3133
 5236W        W 9287   3.499   8.592   9.455 -0.1425  0.0803  0.0360
 5237W        W 9288   9.570   6.366   2.976  0.0544 -0.0360 -0.2653
 5238W        W 9289   5.506   8.115  10.096 -0.3036 -0.2784  0.0170
 5239W        W 9290   2.287   3.188  11.022 -0.1779 -0.0035 -0.3610
 5240W        W 9291   7.063   7.874  11.728 -0.0693  0.0879  0.0268
 5241W        W 9292   2.971   1.873   1.368 -0.1565 -0.2438 -0.0009
 5242W        W 9293   8.167   3.283  11.534 -0.1929  0.0226 -0.0968
 5243W        W 9294   1.892   6.387   1.351 -0.3734 -0.2698 -0.2652
 5244W        W 9295   6.247   1.294   3.311  0.0642 -0.0760  0.0611
 5245W        W 9296   2.610   4.505  12.979  0.0013  0.0728 -0.0249
 5246W        W 9297   6.015   0.115   1.633 -0.0024 -0.2272 -0.1810
 5247W        W 9298   3.271   4.548  10.358  0.1669  0.0886  0.3819
 5248W        W 9299   6.600   2.988   0.494 -0.0457  0.0082 -0.1788
 5249W        W 9300   7.288   7.144  12.869  0.0688  0.0532 -0.0972
 5250W        W 9301   4.368   8.997   2.590 -0.2903  0.1854  0.1530
 5251W        W 9302   8.754   3.161   4.259  0.0554 -0.1077  0.1189
 5252W        W 9303   6.558   2.509   0.257  0.0761  0.2723  0.1614
 5253W        W 9304   7.277   6.294   4.282 -0.1753  0.2122  0.0099
 5254W        W 9305   6.890   2.397  13.015  0.1560  0.1319 -0.1178
 5255W        W 9306   9.489   8.793  12.292 -0.2500  0.3023  0.0918
 5256W        W 9307   8.691   4.875  11.338  0.0321  0.3579  0.1029
 5257W        W 9308   2.826   0.364   1.672 -0.0617 -0.0116  0.0478
 5258W        W 9309   7.707   0.267  10.663 -0.2837  0.0551  0.4109
 5259W        W 9310   0.790   5.525  13.527 -0.3120 -0.3589  0.0459
 5260W        W 9311   8.370   1.105   0.298 -0.1148 -0.1820 -0.1708
 5261W        W 9312   9.768   4.479   9.792 -0.0917  0.1023  0.1150
 5262W        W 9313   1.500   9.521  10.438  0.0974  0.0275 -0.2680
 5263W        W 9314   7.663   9.814  11.579  0.5365  0.0860  0.0087
 5264W        W 9315   4.965   5.736  10.448  0.2582 -0.4566 -0.1825
 5265W        W 9316   5.630   1.739   0.243 -0.0402 -0.1496  0.3223
 5266W        W 9317   8.605   8.104   3.236  0.3247 -0.1649 -0.2161
 5267W        W 9318   6.290   6.407   0.795  0.2068 -0.0866  0.2304
 5268W        W 9319   9.843   9.790  12.373 -0.1980 -0.0374  0.2893
 5269W        W 9320   2.955   2.768  12.219  0.1761 -0.0200 -0.0568
 5270W        W 9321   8.566   5.925  13.920  0.1485 -0.1808  0.0298
 5271W        W 9322   2.216   9.223   0.711 -0.0653  0.0663  0.0994
 5272W        W 9323   4.072   9.518  11.134 -0.1574  0.2186 -0.0023
 5273W        W 9324   7.705   4.364   0.126  0.2480 -0.1028 -0.0590
 5274W        W 9325   4.099   7.397  12.188  0.0929 -0.1945 -0.1500
 5275W        W 9326   8.210   6.270   0.086 -0.1762 -0.1522 -0.0016
 5276W        W 9327   0.189   7.268  12.060  0.0542  0.0747  0.0438
 5277W        W 9328   1.859   7.919   1.315  0.1194 -0.0216 -0.0117
 5278W        W 9329   1.518   3.188  13.931  0.0395  0.3940  0.0472
 5279W        W 9330   4.750   2.462  12.168 -0.0729 -0.2066  0.1962
 5280W        W 9331   2.920   5.566   9.513  0.1899 -0.3133 -0.1528
 5281W        W 9332   8.379   7.265  12.600 -0.0436  0.0354 -0.2683
 5282W        W 9333   1.438   9.236   2.531 -0.1249  0.0643 -0.1496
 5283W        W 9334   0.394   6.065   9.728  0.1220 -0.3074 -0.0187
 5284W        W 9335  10.177   5.355   0.223 -0.0054 -0.4075  0.1559
 5285W        W 9336   1.423   6.743   3.316 -0.0506  0.1259  0.3447
 5286W        W 9337   0.197   0.079   4.534  0.0819  0.1297  0.1249
 5287W        W 9338   4.292   1.576  12.468  0.1083 -0.2735  0.3269
 5288W        W 9339   0.456   9.661   0.046  0.2373 -0.2431 -0.2186
 5289W        W 9340   5.125   9.065  12.569  0.1284 -0.1484 -0.0669
 5290W        W 9341   1.842   1.520   2.862  0.2588  0.2833 -0.2603
 5291W        W 9342   2.542   4.460  10.120  0.1782 -0.3211 -0.2927
 5292W        W 9343   0.203   7.772   2.992  0.1030  0.0991 -0.2791
 5293W        W 9344   7.351   5.667  10.798 -0.0109  0.1041 -0.1503
 5294W        W 9345   0.691  10.112  13.375  0.3869 -0.0367 -0.0516
 5295W        W 9346   2.104   4.563   2.353 -0.2906  0.0095 -0.1289
 5296W        W 9347   0.707   1.484   1.898 -0.2912 -0.0439  0.3048
 5297W        W 9348   8.010   4.936   9.004  0.2398 -0.1852 -0.2397
 5298W        W 9349   1.869   4.127  13.761 -0.0746  0.1266 -0.0650
 5299W        W 9350   4.984   0.822   3.762  0.1937  0.2837  0.2423
 5300W        W 9351   5.173   9.666   3.554 -0.1002  0.3157  0.0370
 5301W        W 9352   8.683   3.809  12.506 -0.1591 -0.3713 -0.0799
 5302W        W 9353   3.059   7.139   4.844  0.1288  0.1858 -0.0759
 5303W        W 9354   1.894   0.234  10.560  0.0765  0.0564 -0.1344
 5304W        W 9355   0.745   4.315  10.461 -0.2922 -0.2396  0.0544
 5305W        W 9356   2.548   3.994  11.458 -0.0171  0.1930  0.1979
 5306W        W 9357   2.720   6.613   5.418  0.1984 -0.1823 -0.0975
 5307W        W 9358   4.102   3.726   1.176 -0.1956  0.2586 -0.1906
 5308W        W 9359   8.800   4.185  13.368 -0.0434 -0.2797 -0.1678
 5309W        W 9360   6.699   5.299   3.768  0.2584  0.2066  0.4109
 5310W        W 9361   7.700   1.315   3.102 -0.1982  0.1254 -0.0024
 5311W        W 9362   0.679   3.857   4.680  0.3070 -0.3001  0.0019
 5312W        W 9363   8.876   4.412   2.298  0.0903  0.0920  0.2033
 5313W        W 9364   9.692   8.055   0.920 -0.0122  0.0125  0.2301
 5314W        W 9365   7.034   6.173  12.540 -0.0507  0.0463  0.0135
 5315W        W 9366   4.731   0.225  10.740  0.2634  0.2116  0.0064
 5316W        W 9367   0.168   5.643   2.535 -0.2323  0.2827  0.1387
 5317W        W 9368   6.042   3.332   4.433  0.1000  0.3819  0.0057
 5318W        W 9369   0.501   5.358   1.856 -0.1364 -0.0906 -0.0782
 5319W        W 9370   3.024   4.743   2.211  0.1542 -0.3240 -0.3047
 5320W        W 9371   8.870   7.307  10.103  0.1044 -0.2811  0.4142
 5321W        W 9372   1.496   1.131   9.130  0.2108  0.1464 -0.0233
 5322W        W 9373   7.107   1.830  10.582  0.0403 -0.4071 -0.0424
 5323W        W 9374   2.675   6.956   9.948  0.1932  0.3234 -0.1006
 5324W        W 9375   6.437   5.947   0.454  0.1801 -0.2297  0.1785
 5325W        W 9376   8.692   0.296  13.537 -0.1292  0.0076 -0.2773
 5326W        W 9377   8.187   2.521   2.880  0.0903 -0.3030 -0.2984
 5327W        W 9378   0.307   4.283  11.269 -0.0142 -0.0338 -0.3050
 5328W        W 9379   4.865   4.962  13.413 -0.0384  0.0624  0.0785
 5329W        W 9380   1.630   4.335  12.898 -0.3878 -0.2101 -0.0025
 5330W        W 9381   5.006   9.967  13.742 -0.2646  0.0338 -0.0606
 5331W        W 9382   8.316   3.511  12.061 -0.0524  0.2000 -0.2115
 5332W        W 9383   4.886   0.867   1.531  0.1580 -0.1781 -0.1587
 5333W        W 9384   2.883   3.817  11.126  0.0126  0.3053 -0.1775
 5334W        W 9385   9.170   5.179   2.557 -0.1017  0.1183  0.2866
 5335W        W 9386   4.207   9.321   9.599  0.0687  0.0065 -0.0600
 5336W        W 9387   4.715   2.750   1.599 -0.2560  0.1890 -0.1648
 5337W        W 9388   2.051   7.431   3.355  0.2411 -0.0106  0.0117
 5338W        W 9389   6.952   9.271  12.546  0.3647  0.2279  0.0566
 5339W        W 9390   8.707   9.983   3.297 -0.1305  0.0073 -0.0969
 5340W        W 9391   4.878   6.374   2.041  0.0057 -0.2572  0.2603
 5341W        W 9392   2.950   1.596   9.191 -0.2614  0.0153 -0.2273
 5342W        W 9393   1.496   8.781   1.580 -0.1336 -0.1725  0.5964
 5343W        W 9394   0.661   2.770  10.131 -0.0606  0.2399 -0.0214
 5344W        W 9395   0.011   7.661  13.429 -0.1959 -0.0296 -0.2014
 5345W        W 9396   8.126   9.752   0.367  0.2300 -0.2403 -0.4559
 5346W        W 9397   9.955   1.899  12.385  0.1180  0.0832 -0.3530
 5347W        W 9398  10.070   1.845   0.193 -0.1919 -0.1368 -0.0945
 5348W        W 9399   0.261   8.231  10.248  0.1462  0.3107  0.2280
 5349W        W 9400   9.213   4.399   3.619  0.0943  0.1427 -0.1049
 5350W        W 9401   2.740   3.803   0.361  0.0459 -0.5956  0.0778
 5351W        W 9402   1.195   5.732  12.894  0.2541  0.2011 -0.0950
 5352W        W 9403   0.596   5.328   9.419  0.3053  0.0702 -0.2297
 5353W        W 9404   5.190   5.952  13.353  0.0567 -0.0645  0.0654
 5354W        W 9405   5.908   7.609   3.145  0.0831  0.4301  0.2825
 5355W        W 9406   1.215   1.978  10.154  0.2452  0.1912 -0.2951
 5356W        W 9407   9.770   0.590  10.365  0.1623  0.0032  0.2640
 5357W        W 9408   4.671   2.154   1.745  0.0025  0.0512 -0.0957
 5358W        W 9409   5.520   7.727   9.726 -0.1063  0.3205 -0.0627
 5359W        W 9410   0.487   2.421   1.734  0.0653 -0.2157 -0.0356
 5360W        W 9411   5.983   6.237   2.728  0.1500  0.1684  0.0412
 5361W        W 9412   6.495   9.137   2.702 -0.0647 -0.1022  0.2072
 5362W        W 9413   9.825   2.878   9.274  0.0330  0.0048 -0.0569
 5363W        W 9414   9.369   4.117   0.648 -0.1423 -0.0148 -0.2483
 5364W        W 9415   9.732   9.127   2.038  0.3239  0.0828  0.0314
 5365W        W 9416   2.168   2.486   3.096 -0.0115  0.1209  0.1817
 5366W        W 9417   1.442   0.613   2.952  0.0506 -0.1800 -0.0094
 5367W        W 9418   7.480   3.441   2.397  0.0657  0.0317 -0.0779
 5368W        W 9419   2.688   3.060   1.974  0.2407 -0.1903  0.1078
 5369W        W 9420   5.585   5.112   2.849  0.2243  0.1334 -0.3917
 5370W        W 9421   1.451   5.686   4.189  0.0695 -0.1973  0.0814
 5371W        W 9422   7.464   8.243  12.279 -0.1002 -0.1885  0.1486
 5372W        W 9423   9.094   3.208   3.838  0.0133  0.1242 -0.0185
 5373W        W 9424   3.345   0.168   2.133  0.0432  0.0533 -0.3190
 5374W        W 9425   1.746   0.511   3.590  0.3032 -0.0457  0.0590
 5375W        W 9426   5.361   0.453  11.703  0.1691  0.3196 -0.0045
 5376W        W 9427   9.836   3.588  11.822 -0.0705 -0.0846  0.0330
 5377W        W 9428   5.785   4.029   2.764 -0.2412  0.1682 -0.2268
 5378W        W 9429   3.755   8.310   1.074  0.2059  0.0460 -0.3204
 5379W        W 9430   4.465   3.010  12.203  0.1869  0.2527 -0.2046
 5380W        W 9431   4.275   2.086  12.492  0.0825 -0.1524  0.0589
 5381W        W 9432   1.171  10.169  11.475  0.0806 -0.0798  0.0293
 5382W        W 9433   6.204   6.167   5.292 -0.0802 -0.1819  0.1030
 5383W        W 9434   6.330   1.837   3.398 -0.1362  0.1698  0.5366
 5384W        W 9435   8.050   7.001   0.829 -0.1842 -0.1144 -0.0967
 5385W        W 9436   1.976   1.229  10.364 -0.1617 -0.1930 -0.1798
 5386W        W 9437  10.019   4.087  13.730  0.1354  0.2391  0.0171
 5387W        W 9438   5.091   8.755  13.971 -0.1259  0.2035 -0.1258
 5388W        W 9439   4.586   0.715   1.117 -0.1459  0.1504  0.2418
 5389W        W 9440   8.628   5.980   2.287  0.1586  0.1824  0.1311
 5390W        W 9441   3.368   3.207  10.053  0.0194 -0.2013 -0.4513
 5391W        W 9442   8.467   0.886  13.230  0.0603  0.1864  0.0848
 5392W        W 9443   3.878   4.115   9.929  0.1554 -0.0886  0.0128
 5393W        W 9444   9.628   9.465  11.854 -0.0753  0.1543  0.0805
 5394W        W 9445   9.638   1.893   3.678  0.4040  0.0186 -0.0341
 5395W        W 9446   1.339   2.548  11.751  0.2007 -0.1620  0.5344
 5396W        W 9447   1.998   8.925   9.763  0.1563 -0.1551 -0.2826
 5397W        W 9448   5.941   4.823  12.683 -0.0116 -0.2494 -0.1453
 5398W        W 9449   7.549   2.749   8.879  0.0671  0.1759 -0.0268
 5399W        W 9450   9.043   5.894  11.294  0.0981 -0.1912  0.2582
 5400W        W 9451   0.285   3.763  13.033 -0.1189 -0.0835  0.0562
 5401W        W 9452  10.115   3.029  13.499  0.2274 -0.3830  0.0766
 5402W        W 9453   5.966   5.166   3.658 -0.1313 -0.0260 -0.0054
 5403W        W 9454   1.406   3.288   0.537 -0.3495  0.2624  0.2604
 5404W        W 9455   3.351   0.459   9.122 -0.3925 -0.0639  0.2141
 5405W        W 9456   3.063   6.812  11.332  0.0799 -0.2459 -0.2096
 5406W        W 9457   3.846   9.889   0.251  0.3207 -0.0900 -0.0555
 5407W        W 9458   6.602   5.794   3.813 -0.0481  0.0137 -0.0704
 5408W        W 9459   4.734   4.735  10.875  0.0398  0.0992 -0.0530
 5409W        W 9460   6.708   1.264  13.110  0.0190 -0.0188 -0.0380
 5410W        W 9461   1.427   9.255   1.813  0.1545 -0.1112 -0.1272
 5411W        W 9462   8.737   7.962   2.372 -0.2401  0.1110 -0.1302
 5412W        W 9463   1.613   6.860   1.959 -0.3422  0.2276  0.0628
 5413W        W 9464   8.571   9.152  12.784  0.0038  0.0665 -0.0630
 5414W        W 9465   1.080   5.298  12.561  0.2871 -0.1489 -0.1553
 5415W        W 9466   3.165   5.552   3.474 -0.1994 -0.0919 -0.1289
 5416W        W 9467   3.229   6.341   2.873 -0.3818  0.1742 -0.0009
 5417W        W 9468   5.288   5.428   0.719  0.1745 -0.3352 -0.2534
 5418W        W 9469   6.611   3.696   0.771 -0.0236 -0.0568 -0.3055
 5419W        W 9470   1.903   9.288   2.520  0.0160 -0.1608 -0.1179
 5420W        W 9471   0.109   8.140   2.605 -0.3120 -0.1131  0.2559
 5421W        W 9472   6.945   9.824  11.215  0.5007  0.0724  0.0438
 5422W        W 9473   3.165   7.473  13.288 -0.0080 -0.0355  0.3483
 5423W        W 9474   9.398   0.683  13.772 -0.0265  0.1488 -0.1160
 5424W        W 9475   0.882   0.109  11.032 -0.4067 -0.1685 -0.2783
 5425W        W 9476   3.868   5.098   2.475  0.1898  0.1587 -0.0499
 5426W        W 9477   0.816   7.057   1.793 -0.0357  0.1794 -0.2931
 5427W        W 9478   4.806   9.626   1.724 -0.1653 -0.0215  0.1959
 5428W        W 9479   8.733   5.875  12.251 -0.1640  0.0517 -0.0873
 5429W        W 9480   3.419   2.560   2.517 -0.2629  0.3878 -0.1029
 5430W        W 9481   9.235   5.608   4.429 -0.0309  0.2695 -0.0204
 5431W        W 9482   0.767   1.394   3.884 -0.0916  0.1966  0.1781
 5432W        W 9483   0.427   2.358  12.249 -0.0993  0.1122 -0.0224
 5433W        W 9484   9.365   6.627   1.485  0.0072  0.0828 -0.1937
 5434W        W 9485   4.462   6.338   5.400 -0.0015  0.3245  0.0122
 5435W        W 9486   5.242   4.708  11.076  0.3453  0.0014  0.0733
 5436W        W 9487   3.362   8.483  10.745 -0.1279  0.1821  0.0536
 5437W        W 9488   6.010   1.231   1.907 -0.2894  0.1141 -0.1050
 5438W        W 9489   1.639   2.968   2.283 -0.2545  0.2918  0.0644
 5439W        W 9490   3.001   8.231   0.690 -0.2773  0.1242 -0.3323
 5440W        W 9491   8.024   3.336  12.461  0.1310 -0.0522 -0.2173
 5441W        W 9492   9.271   9.722   1.372 -0.1043 -0.1422 -0.0270
 5442W        W 9493   2.073   4.317  12.299  0.1559  0.1879  0.0928
 5443W        W 9494   2.419   6.617  10.250 -0.3042  0.6209  0.0621
 5444W        W 9495   4.043   3.523   0.401  0.3215  0.0099  0.1838
 5445W        W 9496   8.614   3.955   8.559 -0.0041  0.4020 -0.2474
 5446W        W 9497   8.119   8.820  12.043 -0.6370 -0.0393 -0.1357
 5447W        W 9498   7.386   5.747  12.593  0.0259  0.1886 -0.2222
 5448W        W 9499   9.669   8.218   3.922 -0.3174  0.0868  0.1634
 5449W        W 9500   5.067   2.381  10.189  0.1059 -0.0800  0.1538
 5450W        W 9501   4.310   4.591  11.869  0.2104  0.0875  0.0848
 5451W        W 9502   7.138   3.635   2.680 -0.0393  0.2089 -0.1276
 5452W        W 9503   9.679   1.040  11.201  0.0113 -0.0626 -0.1867
 5453W        W 9504   4.028   9.035   4.357 -0.1373 -0.1520  0.1461
 5454W        W 9505   9.737   7.973  11.721  0.0354 -0.1022 -0.0259
 5455W        W 9506   6.605   0.335  11.843  0.0911  0.0747  0.1028
 5456W        W 9507   5.335   6.262   9.933 -0.1564  0.0573 -0.1784
 5457W        W 9508   6.749   1.767   3.014  0.3185  0.3255  0.0171
 5458W        W 9509   5.499   9.763  10.770 -0.0776  0.0605 -0.1327
 5459W        W 9510   9.188   6.088  10.735  0.0187  0.3275  0.1615
 5460W        W 9511   9.627   3.633   1.662 -0.0006 -0.3800  0.0970
 5461W        W 9512   0.546   7.654   3.803 -0.0405  0.2662  0.1463
 5462W        W 9513   8.442   5.600  10.571  0.2338  0.0218  0.0973
 5463W        W 9514   4.248   1.412   3.686  0.3848 -0.2394  0.1534
 5464W        W 9515   2.577   1.727   5.048 -0.0631  0.1231 -0.1056
 5465W        W 9516   9.864   8.242   1.834  0.1158 -0.0386 -0.2220
 5466W        W 9517   7.422   2.808   9.335  0.0304  0.0915 -0.0834
 5467W        W 9518   2.754   1.546  10.860  0.0334  0.0796  0.1189
 5468W        W 9519   1.248   5.355   8.583 -0.1709 -0.1164  0.1125
 5469W        W 9520   5.065   0.681   5.050  0.0995 -0.2515  0.1936
 5470W        W 9521   4.909   9.009  13.572 -0.0263  0.0248 -0.4264
 5471W        W 9522   9.057  10.055   0.143  0.1095  0.0487  0.1727
 5472W        W 9523   3.777   9.426  12.593 -0.0671  0.1494  0.0978
 5473W        W 9524   3.520   4.393   0.348  0.2377 -0.0569  0.1645
 5474W        W 9525   1.120   7.554   2.602  0.1029  0.2785 -0.2734
 5475W        W 9526   7.954   2.323   8.801 -0.2590  0.1257 -0.1594
 5476W        W 9527   7.047   0.225  11.500 -0.0580  0.1374  0.5220
 5477W        W 9528   5.629   2.633  12.099  0.1713  0.0805 -0.4402
 5478W        W 9529   9.821   1.976  11.914  0.1855 -0.3060 -0.2714
 5479W        W 9530   2.714   2.136  13.342  0.3193 -0.1149 -0.0312
 5480W        W 9531   7.672   2.064  11.415  0.2232  0.1628 -0.2282
 5481W        W 9532   7.288   5.395   0.385  0.1628  0.1119 -0.1455
 5482W        W 9533   6.826   6.740  10.788 -0.2832  0.0204  0.2963
 5483W        W 9534   8.426   8.551   0.807 -0.1128 -0.2419 -0.3317
 5484W        W 9535   0.565   6.188  11.155  0.0309  0.0883  0.1174
 5485W        W 9536   6.264   8.250   0.273  0.3643  0.0170  0.0287
 5486W        W 9537   4.672   9.800   4.461 -0.0931 -0.1092  0.0680
 5487W        W 9538   6.964   1.042   1.085 -0.0484  0.1052  0.2375
 5488W        W 9539   6.245  10.171  13.310 -0.0171 -0.2413 -0.0173
 5489W        W 9540   8.893   2.815   9.094 -0.0004 -0.1028 -0.0275
 5490W        W 9541   7.195   7.312   4.299 -0.0662 -0.0611 -0.0686
 5491W        W 9542   6.641   7.808  11.533  0.1846 -0.1099  0.2342
 5492W        W 9543  10.058   7.949   2.178  0.1680  0.0480  0.2408
 5493W        W 9544   6.964   3.657   1.201 -0.2939 -0.0868  0.3063
 5494W        W 9545   5.754   9.029  13.151  0.0038  0.1707 -0.0624
 5495W        W 9546   5.397   0.908  12.088  0.4024  0.0701  0.2675
 5496W        W 9547   2.032   7.728  12.938  0.0241  0.1275  0.3062
 5497W        W 9548   0.137   1.327  12.975  0.0808 -0.2337 -0.2871
 5498W        W 9549   8.409   5.396  11.610  0.2992  0.3169 -0.0706
 5499W        W 9550   4.846   2.389   9.364  0.1636 -0.2457 -0.1928
 5500W        W 9551   1.865   8.472  11.345  0.1115  0.1632 -0.5461
 5501W        W 9552   3.672   5.899   1.528 -0.4647 -0.0596  0.1480
 5502W        W 9553   6.921   5.814   2.443  0.0153 -0.0573  0.0145
 5503W        W 9554   1.684   9.659   4.161  0.2742 -0.0055  0.2664
 5504W        W 9555   3.717   0.089   9.490 -0.1096  0.0309  0.3220
 5505W        W 9556   2.304   6.224   1.795  0.0320 -0.1553  0.1461
 5506W        W 9557   1.352   1.903  11.422  0.1339  0.3913  0.0422
 5507W        W 9558   0.283   1.791   1.782 -0.0361 -0.0916  0.1183
 5508W        W 9559   9.320   7.932   0.558  0.1498 -0.0384 -0.2834
 5509W        W 9560   1.174   2.633   3.728 -0.2826 -0.1558  0.0164
 5510W        W 9561   5.486   7.969  12.931  0.0209 -0.1368 -0.0747
 5511W        W 9562   2.084   9.441   1.131  0.4701  0.0130 -0.0284
 5512W        W 9563   6.391   7.541   3.170  0.4135 -0.1659  0.2554
 5513W        W 9564   3.867   8.209  11.473  0.4022  0.1552 -0.0718
 5514W        W 9565   5.224   5.382   3.639  0.2043 -0.1283 -0.1137
 5515W        W 9566   2.361   0.607  11.867  0.4206  0.0375 -0.4710
 5516W        W 9567   8.695   8.895  11.605  0.0791 -0.0244 -0.1587
 5517W        W 9568   0.796   9.628   9.839  0.0286 -0.3403  0.4585
 5518W        W 9569   4.567   8.642  13.646  0.0140 -0.2860  0.0396
 5519W        W 9570   3.031   6.908  12.768  0.0640  0.0049  0.0816
 5520W        W 9571   2.881   7.950  10.279 -0.0336 -0.1614 -0.1432
 5521W        W 9572   8.517   7.738  10.965 -0.2525  0.0543  0.0737
 5522W        W 9573   8.707   3.031   9.766 -0.0770  0.0851  0.1463
 5523W        W 9574   7.061   1.475  10.965  0.0318 -0.0980 -0.4192
 5524W        W 9575   8.198   5.945   3.498  0.0501  0.1770  0.1823
 5525W        W 9576   9.642   6.662  12.315  0.0415  0.2428 -0.0316
 5526W        W 9577   4.823   3.270  11.836  0.0369  0.0913 -0.1420
 5527W        W 9578   7.009   6.857   1.180 -0.2427 -0.2393  0.4040
 5528W        W 9579   7.669   9.383  12.854  0.3555  0.0772  0.0086
 5529W        W 9580   0.323   5.108   1.153 -0.2692  0.1941  0.0889
 5530W        W 9581   3.949   6.129   2.269  0.2981 -0.1849  0.2786
 5531W        W 9582   7.891   0.399   0.552  0.0570  0.4521 -0.0875
 5532W        W 9583   4.784   8.288   9.795 -0.1307 -0.1221 -0.0892
 5533W        W 9584   4.224   4.155   2.090 -0.1847  0.0484  0.2025
 5534W        W 9585   5.774   3.147   3.216 -0.3127 -0.2356  0.0983
 5535W        W 9586   6.032   2.679   1.089 -0.1245  0.0512  0.0951
 5536W        W 9587   2.044   1.077   0.565 -0.1468 -0.0836 -0.2943
 5537W        W 9588   8.606   5.612   0.835  0.0595  0.0647 -0.1028
 5538W        W 9589   7.080   6.258  10.068 -0.1285  0.1710  0.0752
 5539W        W 9590   9.963   9.554   9.966 -0.0687  0.1370 -0.0494
 5540W        W 9591  10.148   1.720  11.185 -0.3433  0.3372 -0.2526
 5541W        W 9592   2.138   7.918   0.840  0.0984  0.1609  0.0381
 5542W        W 9593   4.970   7.771   3.057  0.2047 -0.1820  0.0508
 5543W        W 9594   4.713   0.648   1.984  0.1628  0.2387 -0.1113
 5544W        W 9595   5.504   6.108  12.165  0.0264  0.0717  0.2451
 5545W        W 9596   6.206   5.127  13.635  0.1103  0.0787 -0.1376
 5546W        W 9597   5.798   7.999   0.411  0.2800  0.0183  0.1983
 5547W        W 9598   7.424   7.631   2.894 -0.0116 -0.0925  0.2912
 5548W        W 9599   4.908   2.459   2.033 -0.2484  0.3105  0.1163
 5549W        W 9600   9.785   4.491   1.602 -0.1874  0.1447  0.0722
 5550W        W 9601   0.784   4.535   2.487 -0.0746  0.3266 -0.1030
 5551W        W 9602   5.213   6.354  12.572 -0.3053  0.0557  0.1331
 5552W        W 9603   9.307   7.440  11.668  0.0451 -0.0069 -0.0031
 5553W        W 9604   7.709   7.376   0.678 -0.0426  0.0985 -0.0908
 5554W        W 9605  10.006   9.477  13.519 -0.2533  0.2693 -0.2695
 5555W        W 9606   7.882   3.163   2.467  0.2084 -0.0624  0.0197
 5556W        W 9607   2.561   5.328   1.641  0.0359  0.3705  0.3899
 5557W        W 9608   5.067   9.832   0.833 -0.0250 -0.0216  0.1717
 5558W        W 9609   5.105   4.595   4.525  0.0606 -0.3734 -0.1109
 5559W        W 9610   7.262   6.462   1.012  0.0814  0.4176  0.0192
 5560W        W 9611   2.960   7.457  10.062  0.3977 -0.3277 -0.0734
 5561W        W 9612   6.079   0.302   4.592 -0.0014 -0.1367  0.0899
 5562W        W 9613   0.846   3.799   2.383 -0.1394  0.1349  0.5074
 5563W        W 9614   1.395   5.910  13.378 -0.0402 -0.1449  0.0656
 5564W        W 9615   8.831   5.520   1.642 -0.0512 -0.0157 -0.1909
 5565W        W 9616   4.486   6.467   0.201 -0.2003  0.1262  0.1769
 5566W        W 9617   4.590   7.944   4.343 -0.1133 -0.0778 -0.0341
 5567W        W 9618   7.093   4.087   1.445 -0.2124 -0.0435 -0.0431
 5568W        W 9619   0.643   4.437   4.730  0.0413 -0.5982 -0.1303
 5569W        W 9620   9.555   6.149   1.563  0.3441 -0.1608  0.1495
 5570W        W 9621   4.558   6.585   2.388 -0.1526 -0.0407  0.2608
 5571W        W 9622   4.587   9.959  12.471  0.0359 -0.3190  0.2251
 5572W        W 9623   6.362   8.254   3.660  0.1781 -0.1233 -0.2537
 5573W        W 9624   1.265   3.498   4.105  0.2345  0.2088  0.0987
 5574W        W 9625   0.122   9.284  13.930  0.2197  0.0588 -0.0700
 5575W        W 9626   1.852  10.040   2.065  0.0979 -0.0761  0.3302
 5576W        W 9627   6.081   0.814   0.364 -0.0114  0.2803  0.0916
 5577W        W 9628   0.059   0.051  12.388 -0.4270  0.1857 -0.2996
 5578W        W 9629   2.233   0.146   0.744 -0.0192 -0.0442 -0.2012
 5579W        W 9630   0.871   1.505   5.612 -0.2422 -0.2920  0.2223
 5580W        W 9631   2.418   7.873   5.277 -0.3711 -0.2196 -0.2866
 5581W        W 9632   5.011   1.828   3.545  0.0009  0.0366  0.1608
 5582W        W 9633   4.231  10.010   4.437  0.5021 -0.1533 -0.0217
 5583W        W 9634   8.104   5.902  13.722 -0.0046  0.1800  0.2952
 5584W        W 9635   4.225   5.953   0.029  0.0786  0.0980 -0.1511
 5585W        W 9636   9.596   7.570   9.369 -0.2055 -0.0160  0.1551
 5586W        W 9637  10.055   7.334   0.845 -0.0485 -0.0069  0.1166
 5587W        W 9638   5.038   3.193   9.702  0.0909  0.0623 -0.1183
 5588W        W 9639   5.590   1.730  12.338  0.0411 -0.1604 -0.0070
 5589W        W 9640   7.265   0.046   2.283  0.2784  0.0038 -0.0350
 5590W        W 9641   2.613   1.472   9.547  0.1513 -0.1703  0.1856
 5591W        W 9642   3.737   5.877  12.829 -0.3685 -0.1393  0.1703
 5592W        W 9643   1.821   1.395  13.292  0.1249  0.0215  0.1186
 5593W        W 9644   2.351   3.526   0.461 -0.0911  0.1438 -0.0763
 5594W        W 9645   6.428  10.067   3.771 -0.0247  0.1619  0.0343
 5595W        W 9646   2.605   8.300  13.555  0.0030  0.3006  0.3603
 5596W        W 9647   4.561   4.329   3.104 -0.0323 -0.0610 -0.0352
 5597W        W 9648   1.016   9.663   1.225 -0.1790 -0.1411  0.0964
 5598W        W 9649   3.439   3.855  13.173  0.0362 -0.2925 -0.2856
 5599W        W 9650   1.175   8.882  10.852  0.0154 -0.1173  0.0264
 5600W        W 9651   3.841   3.484   2.592  0.0031 -0.1032  0.2657
 5601W        W 9652   9.937   2.204  10.453 -0.2401 -0.3286  0.0682
 5602W        W 9653   1.117   3.617   3.655  0.1445 -0.1196  0.0681
 5603W        W 9654   5.485   8.644  11.240 -0.1633  0.0354  0.1030
 5604W        W 9655   9.080   6.738   1.071  0.2307 -0.3646  0.0882
 5605W        W 9656   7.975   2.299   1.025  0.1646  0.1155 -0.1827
 5606W        W 9657   8.805   3.519  11.865  0.0204  0.3616 -0.4380
 5607W        W 9658   7.063   8.687  11.839 -0.0601  0.1285  0.1656
 5608W        W 9659   8.996   5.359  11.944  0.6437  0.3790 -0.1077
 5609W        W 9660   0.988   9.203   0.846  0.3187  0.1316 -0.2475
 5610W        W 9661   9.059   9.625   3.218 -0.1867  0.2833 -0.0269
 5611W        W 9662   8.239   0.305   2.114  0.1904  0.3328 -0.1330
 5612W        W 9663   9.173   6.951   0.370 -0.0310 -0.2617  0.0835
 5613W        W 9664   5.285   0.168   9.994 -0.1043  0.0422 -0.3061
 5614W        W 9665   5.984   4.424  10.110 -0.0200 -0.1168  0.1045
 5615W        W 9666   0.964   8.164   3.307 -0.0670 -0.1488 -0.0462
 5616W        W 9667   0.509   2.876  11.126  0.3186 -0.0760 -0.0336
 5617W        W 9668   3.297   8.909  13.170  0.1821  0.0461 -0.0631
 5618W        W 9669   9.984   9.787   3.652  0.1811 -0.1405  0.0510
 5619W        W 9670   1.335   2.234   4.894  0.1406 -0.0131  0.1485
 5620W        W 9671   7.957   7.780   0.509 -0.1255 -0.0635 -0.0681
 5621W        W 9672   4.696   6.077   2.459  0.0575  0.0027 -0.0401
 5622W        W 9673   5.512   2.454  10.343 -0.0920  0.0932 -0.2744
 5623W        W 9674   1.521   6.238  11.329  0.2592  0.0687  0.0656
 5624W        W 9675   7.330   5.495  12.199 -0.1020 -0.0807  0.0775
 5625W        W 9676   6.476   0.820  13.067  0.4229  0.0897  0.4656
 5626W        W 9677   6.286   0.583  13.924  0.0716  0.2951  0.3326
 5627W        W 9678   2.368   7.961   2.634  0.2591  0.1770 -0.1392
 5628W        W 9679   2.926   5.657  10.290  0.2263 -0.0105  0.5019
 5629W        W 9680   4.606   3.811   3.000  0.2032  0.0720 -0.0136
 5630W        W 9681   6.863   2.263   2.258  0.2002  0.1395  0.2997
 5631W        W 9682   8.050   1.102  11.109  0.1416 -0.0818  0.0864
 5632W        W 9683   8.404   2.068  12.698  0.0615  0.3207 -0.0592
 5633W        W 9684   1.754   7.150   0.202  0.0577 -0.0561 -0.1986
 5634W        W 9685   2.403   5.898  11.424  0.2234  0.2840 -0.0431
 5635W        W 9686   7.135   5.783  13.454 -0.1950 -0.2188  0.0040
 5636W        W 9687   1.537   7.190   4.720  0.1570  0.1950  0.2866
 5637W        W 9688   8.800   7.402   0.065 -0.0613 -0.0177 -0.0130
 5638W        W 9689   9.732   8.112   2.555 -0.2345  0.1550  0.1931
 5639W        W 9690   8.257   8.760   1.657  0.0327  0.1729  0.2801
 5640W        W 9691   3.167   9.217  13.544 -0.1334  0.2599  0.4220
 5641W        W 9692   0.132   7.344   1.376  0.0809  0.2021 -0.0535
 5642W        W 9693   1.254   9.775  10.789  0.0787  0.0662  0.3395
 5643W        W 9694   0.605   5.771  12.172 -0.0532 -0.3379  0.1280
 5644W        W 9695   6.577   2.655   3.071  0.0334 -0.2618  0.3330
 5645W        W 9696   7.481   2.730   0.619  0.1180 -0.0794  0.0822
 5646W        W 9697   5.447   5.070  13.550  0.2284 -0.0632  0.0373
 5647W        W 9698   3.406   7.807  11.934 -0.1408 -0.1009  0.0053
 5648W        W 9699  10.105   3.184  12.055 -0.0254  0.0162 -0.1055
 5649W        W 9700   1.414   4.009   3.990  0.2791 -0.0924 -0.0064
 5650W        W 9701   0.109   0.972  10.728  0.2869  0.1373 -0.1232
 5651W        W 9702   1.011   9.909   0.350  0.0601 -0.0194  0.1778
 5652W        W 9703   8.910   4.566   1.464 -0.1297  0.4345 -0.0905
 5653W        W 9704   6.198   4.282  13.514  0.0317  0.0067  0.0970
 5654W        W 9705   6.484   4.669   2.597 -0.1779 -0.0601 -0.1032
 5655W        W 9706   2.118   6.230   3.988  0.0733  0.1611 -0.2231
 5656W        W 9707   1.200   1.070  13.978 -0.0644 -0.1756 -0.1073
 5657W        W 9708   2.263   9.709  12.347  0.1410 -0.0917 -0.0374
 5658W        W 9709   4.455   1.131   0.207  0.1235 -0.5078 -0.1245
 5659W        W 9710   7.719   4.202   8.711 -0.0291 -0.0027 -0.1183
 5660W        W 9711   4.064   1.884  11.634 -0.2651 -0.0147  0.0676
 5661W        W 9712   3.696   1.536   4.945  0.2297  0.2103  0.0625
 5662W        W 9713   1.100   1.185   4.157 -0.1898  0.0687  0.1093
 5663W        W 9714   5.886   2.035   1.812 -0.1999 -0.5093  0.0638
 5664W        W 9715   5.949   6.903   9.746  0.2289 -0.1053 -0.0433
 5665W        W 9716   0.856   7.985  13.737  0.0815  0.0896 -0.0973
 5666W        W 9717   9.915   8.924  12.666 -0.0588 -0.0419 -0.0087
 5667W        W 9718   6.229   6.908   0.622 -0.0650  0.0751  0.1076
 5668W        W 9719   7.952   3.823  12.219 -0.0535  0.1416 -0.0316
 5669W        W 9720   9.373   3.239   2.633 -0.2307  0.0657 -0.0261
 5670W        W 9721   1.608   5.566   5.114  0.5229 -0.4733  0.1117
 5671W        W 9722   3.883   7.197   0.563  0.2216 -0.0949 -0.0168
 5672W        W 9723   3.709   4.576   5.091  0.0800 -0.1615  0.0304
 5673W        W 9724   3.854   7.523   5.130 -0.0658  0.0284  0.0855
 5674W        W 9725   1.816   7.066   1.565  0.0775  0.2640  0.1430
 5675W        W 9726   2.589   4.844  13.514  0.0549  0.0475  0.1443
 5676W        W 9727   4.175   7.728   0.202 -0.3888 -0.3007  0.2442
 5677W        W 9728   1.425   2.991   4.118 -0.0018 -0.0499  0.1451
 5678W        W 9729   2.791   5.531  13.035 -0.0424  0.3796  0.1027
 5679W        W 9730   1.447   9.314  10.943  0.3998 -0.1259  0.2532
 5680W        W 9731   9.213   3.264   3.217  0.0061 -0.2678 -0.0162
 5681W        W 9732   7.410   8.109  13.317 -0.0886 -0.4359 -0.0525
 5682W        W 9733   0.194   6.186   4.107  0.1098 -0.0187  0.0908
 5683W        W 9734   7.808   6.996  12.627  0.0142  0.1237  0.2691
 5684W        W 9735   6.444   4.810   9.777  0.3617  0.2490  0.2349
 5685W        W 9736   8.908   3.792   1.461 -0.2933  0.3344  0.1377
 5686W        W 9737   1.634   6.407   9.823  0.2254 -0.0001 -0.2601
 5687W        W 9738   1.657   8.539   3.810 -0.0240 -0.3987  0.1560
 5688W        W 9739   8.340   2.449   2.401 -0.3037 -0.0771  0.0110
 5689W        W 9740   9.745   6.163   9.779 -0.1510  0.1089 -0.1831
 5690W        W 9741   9.300   5.325   9.575  0.0139 -0.1444  0.1248
 5691W        W 9742   4.933   8.190   2.013 -0.2019  0.3098 -0.0268
 5692W        W 9743   5.009   7.501   9.599  0.1901  0.0688 -0.0882
 5693W        W 9744   1.646   8.449   9.885  0.0967  0.0479 -0.3317
 5694W        W 9745   9.613   3.324  10.529 -0.2630  0.0745  0.4715
 5695W        W 9746   3.373   5.591   0.272 -0.0309  0.2335 -0.2464
 5696W        W 9747   8.395  10.113  12.032  0.0021 -0.0899 -0.1964
 5697W        W 9748   8.577   2.088   8.663 -0.1533  0.0429  0.1378
 5698W        W 9749   1.632   0.934  10.016  0.1786  0.3574  0.1294
 5699W        W 9750   9.019   2.883  12.752 -0.1200  0.3323  0.1211
 5700W        W 9751   2.718   1.011   1.107 -0.0481 -0.1470 -0.4798
 5701W        W 9752   2.495   8.651   1.424  0.0907  0.0629 -0.1833
 5702W        W 9753   5.078   3.427   1.853  0.2885  0.0189 -0.2099
 5703W        W 9754   1.364  10.054   1.352  0.0203 -0.2428  0.0574
 5704W        W 9755   2.504   3.540   4.629  0.0607 -0.0026  0.0635
 5705W        W 9756   2.996   8.432   8.677 -0.1179  0.2236 -0.1233
 5706W        W 9757   1.207  10.048  13.530  0.0498 -0.0092  0.1770
 5707W        W 9758   1.255   2.775   9.710 -0.1444 -0.1198  0.4793
 5708W        W 9759   3.153   1.457   3.683  0.2523  0.0795 -0.1941
 5709W        W 9760   8.620   0.370   1.242  0.0691 -0.3202  0.3892
 5710W        W 9761   6.681   4.204  11.350  0.1993  0.0769 -0.2353
 5711W        W 9762   1.844   2.724   4.550 -0.0666  0.2961 -0.2511
 5712W        W 9763   6.929   0.526  10.604 -0.0745  0.2269  0.2129
 5713W        W 9764   3.159   5.770   4.927 -0.0202 -0.0382 -0.0022
 5714W        W 9765   4.538   9.853   3.551  0.3164  0.2230 -0.3341
 5715W        W 9766   1.208   8.528  11.318 -0.1531  0.1387 -0.0266
 5716W        W 9767   8.544   1.955  10.813 -0.0640 -0.3437  0.0136
 5717W        W 9768   2.336   2.216   1.627 -0.0761  0.0671 -0.1718
 5718W        W 9769  10.166   8.879   1.688 -0.1333 -0.0627  0.0863
 5719W        W 9770   1.810   2.738  12.669 -0.0917 -0.1166  0.0537
 5720W        W 9771   0.416   6.637   4.110  0.1112  0.2066 -0.1055
 5721W        W 9772   9.932   3.299   0.775  0.3983  0.1643 -0.0403
 5722W        W 9773   4.279   4.195  13.952  0.2621 -0.0179 -0.0439
 5723W        W 9774   0.014   3.197   0.364 -0.2152 -0.0978  0.2218
 5724W        W 9775   5.250   1.146  10.586 -0.1937 -0.2011 -0.0510
 5725W        W 9776   2.873   1.012   4.309 -0.0702  0.0029 -0.1324
 5726W        W 9777   1.000   8.867   1.656 -0.0808 -0.0822  0.1354
 5727W        W 9778   2.946   8.893   1.735 -0.0368 -0.0204  0.3928
 5728W        W 9779   5.425   4.326   1.668  0.1594 -0.1956  0.1933
 5729W        W 9780   2.141   7.246   9.481  0.0272 -0.2508 -0.2794
 5730W        W 9781   6.791   2.290   1.219  0.5676 -0.4573  0.0290
 5731W        W 9782   5.370   8.883   4.843 -0.0726  0.0216  0.0199
 5732W        W 9783   9.004   9.493  11.880 -0.1725 -0.0759  0.1835
 5733W        W 9784   5.883   7.792  10.127 -0.1509 -0.1137  0.1006
 5734W        W 9785   0.581   5.890   9.318 -0.1041  0.3328 -0.0219
 5735W        W 9786   8.081   4.177  10.812  0.0525 -0.0493  0.0110
 5736W        W 9787   5.616   4.627  12.298 -0.0431  0.0850  0.0191
 5737W        W 9788   6.945   8.528   9.862  0.0461  0.1321 -0.1317
 5738W        W 9789   5.830   6.956   3.507 -0.0837  0.0048 -0.1538
 5739W        W 9790   0.374   7.607   9.466  0.1092  0.1912 -0.2056
 5740W        W 9791   4.443   1.056   4.563 -0.0849 -0.3365 -0.0435
 5741W        W 9792   5.683   6.127   3.069  0.0941 -0.0632 -0.1013
 5742W        W 9793   5.991   5.670   0.547  0.0008 -0.0849 -0.3256
 5743W        W 9794   9.883   3.814   9.654 -0.0407 -0.1187  0.0947
 5744W        W 9795   2.818   5.790   4.136  0.5632  0.1902  0.0313
 5745W        W 9796   1.898   8.040   3.407  0.0879 -0.0917  0.1243
 5746W        W 9797   5.856   2.445  12.995 -0.1108  0.0641  0.3537
 5747W        W 9798   9.569   8.634  11.419  0.1953 -0.0481  0.2291
 5748W        W 9799   6.556   4.260  13.930  0.0291  0.1821 -0.0591
 5749W        W 9800   3.737   4.856  11.110 -0.0397  0.0865  0.2162
 5750W        W 9801   0.158   1.503  10.732  0.0147 -0.2341  0.1673
 5751W        W 9802   0.549   6.068   0.777  0.2484 -0.0855  0.0488
 5752W        W 9803   7.599   9.214   3.614  0.0547 -0.2437 -0.0362
 5753W        W 9804   4.995   8.748   5.186  0.1025  0.1737  0.1123
 5754W        W 9805   6.447   7.605  12.275 -0.2145 -0.2401  0.0847
 5755W        W 9806   9.213   8.060   1.091 -0.2359  0.4306  0.0893
 5756W        W 9807  10.094   2.416   3.329  0.2272 -0.0301 -0.1874
 5757W        W 9808   5.498   2.898  13.837  0.2231 -0.4309  0.0044
 5758W        W 9809   1.479   1.585  13.675  0.0955 -0.1666  0.2568
 5759W        W 9810   4.984   7.319  12.560  0.1170 -0.0843  0.0922
 5760W        W 9811   9.995   2.524   2.384 -0.0146 -0.0248 -0.0628
 5761W        W 9812   4.674   4.440   2.117  0.4284  0.2013 -0.2048
 5762W        W 9813   0.944   3.850   4.156  0.0103  0.1768 -0.2120
 5763W        W 9814   5.904   1.571   3.593 -0.0348  0.1041 -0.1816
 5764W        W 9815   7.248   8.716  12.325  0.0071  0.0169 -0.1140
 5765W        W 9816   5.667   1.266  13.066  0.0316  0.0042  0.0101
 5766W        W 9817   4.063   2.777   0.846  0.0018  0.0376 -0.0928
 5767W        W 9818   5.147   5.656  11.306  0.1097 -0.0349 -0.0682
 5768W        W 9819   7.247   2.966   3.317 -0.1867  0.1080  0.3669
 5769W        W 9820   3.305   5.918   2.607  0.2674  0.0363  0.0553
 5770W        W 9821   7.397   1.158   0.730 -0.1072  0.0536 -0.0800
 5771W        W 9822   8.572   4.324  12.681 -0.0504  0.2750  0.3066
 5772W        W 9823   5.712   1.567   1.549  0.3407 -0.2702 -0.3508
 5773W        W 9824   3.618   0.177  11.732 -0.0907  0.0703 -0.0149
 5774W        W 9825   2.007   1.423  12.793  0.4446  0.1237  0.3256
 5775W        W 9826  10.173   6.551  12.213 -0.1282 -0.1988 -0.0587
 5776W        W 9827   0.256   3.282   3.992  0.2816  0.0242 -0.0101
 5777W        W 9828   8.676   6.251  11.084 -0.1488 -0.2916  0.0156
 5778W        W 9829   2.424   8.983   4.160  0.0426  0.3046  0.1326
 5779W        W 9830   6.999   1.711   3.527 -0.3457  0.1391 -0.1306
 5780W        W 9831   3.737   3.596   9.220 -0.1039 -0.1163 -0.2345
 5781W        W 9832  10.171   1.782  12.900  0.2242 -0.2820 -0.0832
 5782W        W 9833   8.515   9.301   1.788 -0.1155  0.1566 -0.0010
 5783W        W 9834   4.776   1.417   3.790 -0.1884 -0.0796 -0.4362
 5784W        W 9835   4.839   8.387   1.606 -0.0753  0.0626 -0.0251
 5785W        W 9836   3.960   1.819   3.510 -0.0999 -0.1631 -0.0644
 5786W        W 9837   5.489   6.765   2.733 -0.0182 -0.1118 -0.4266
 5787W        W 9838   3.117   3.153  12.515 -0.1367  0.0430 -0.0938
 5788W        W 9839   2.620   3.514   3.246  0.0321  0.0039 -0.2130
 5789W        W 9840   5.533   6.553   3.361 -0.1500 -0.0950  0.0442
 5790W        W 9841  10.025   3.356   3.691 -0.0772  0.3215 -0.0468
 5791W        W 9842   9.877   9.156   1.340  0.0716  0.2113 -0.1292
 5792W        W 9843   6.289   8.577   2.221 -0.2305  0.2994 -0.2992
 5793W        W 9844   2.904   7.405   0.934  0.1476 -0.0509 -0.0167
 5794W        W 9845   5.845   9.282   4.122 -0.1668 -0.1636 -0.0500
 5795W        W 9846   9.060   4.876   3.446 -0.1640  0.0873  0.3130
 5796W        W 9847   4.887   1.637  10.928 -0.1170 -0.0738  0.1536
 5797W        W 9848   4.407   6.806  13.805 -0.0498  0.0528 -0.0358
 5798W        W 9849   0.832   4.797   4.191  0.1038  0.0412  0.2273
 5799W        W 9850   6.790   2.439  12.538  0.1903  0.1732 -0.2484
 5800W        W 9851   0.194   1.159   9.842 -0.1759  0.0194  0.1512
 5801W        W 9852   6.721   0.099   9.425 -0.1605  0.0231  0.0594
 5802W        W 9853   2.606   7.108  11.596  0.1136  0.0921 -0.0992
 5803W        W 9854   5.734   3.097  13.008 -0.0435 -0.0553  0.0848
 5804W        W 9855   1.126   5.138  10.356 -0.3472  0.0789  0.0924
 5805W        W 9856   6.108   1.731   1.205  0.1519 -0.0005  0.0335
 5806W        W 9857   1.033   5.388  11.194  0.1181  0.1014 -0.4097
 5807W        W 9858   1.438   9.104   3.916  0.2056  0.1071 -0.1606
 5808W        W 9859   4.905   9.858   3.959 -0.0710 -0.1030 -0.2509
 5809W        W 9860   1.728   4.304  11.911 -0.4570  0.2156  0.1251
 5810W        W 9861   8.644   2.195  10.396 -0.1057 -0.1750  0.1389
 5811W        W 9862   5.128   7.104   4.940 -0.1723  0.1870 -0.1547
 5812W        W 9863   1.636   6.977   3.738 -0.0310  0.0219 -0.3978
 5813W        W 9864   8.545   1.280  12.417  0.2250  0.0616  0.0121
 5814W        W 9865   1.976   1.039   1.511  0.1518 -0.0505  0.2035
 5815W        W 9866   2.550   0.815   0.646  0.0107  0.0232  0.1166
 5816W        W 9867   6.531   6.784   1.017 -0.0585  0.1026  0.0933
 5817W        W 9868   7.616   4.018   0.593  0.1638  0.1997 -0.3509
 5818W        W 9869   2.959   9.603   2.720 -0.1868 -0.2030  0.0933
 5819W        W 9870   1.388   3.756   1.519 -0.0151  0.1816 -0.2427
 5820W        W 9871   7.145   4.641  11.260 -0.1739 -0.2365  0.2153
 5821W        W 9872   2.272   5.768  12.987  0.0124 -0.2049 -0.0684
 5822W        W 9873   6.393   1.044   9.301  0.1734  0.1221 -0.0412
 5823W        W 9874   1.514   9.194   4.417 -0.1066 -0.3585  0.1657
 5824W        W 9875   5.379   0.830   1.725  0.1972  0.1823 -0.2322
 5825W        W 9876   5.101   8.696  11.539 -0.2224 -0.1220  0.0353
 5826W        W 9877   1.578   8.375   9.394  0.0846  0.1856  0.1473
 5827W        W 9878   9.255   0.324   0.076 -0.0736  0.0987  0.1028
 5828W        W 9879   3.589   7.418   9.353 -0.1046 -0.1805  0.3583
 5829W        W 9880   9.106   3.320   9.614 -0.2254  0.4021 -0.1264
 5830W        W 9881   0.237   4.365  13.947  0.2713  0.2142  0.1180
 5831W        W 9882   9.789   9.164   0.080  0.0053  0.1530  0.1134
 5832W        W 9883   3.246   8.440   4.281 -0.1594 -0.2198 -0.2540
 5833W        W 9884   1.658   0.681  13.445  0.2200  0.0262  0.0803
 5834W        W 9885   5.059   9.184   1.561  0.2001 -0.3786  0.0947
 5835W        W 9886   2.345   7.951   2.017  0.1348  0.1733 -0.3159
 5836W        W 9887   5.925   1.966   3.134 -0.1370  0.1762 -0.0587
 5837W        W 9888   6.534   4.689   3.134 -0.0556 -0.0351  0.0874
 5838W        W 9889   1.455   8.112   3.790 -0.3134  0.1705  0.1145
 5839W        W 9890   4.345   5.859  12.900 -0.1180  0.1253  0.2523
 5840W        W 9891   6.072   1.220   4.383  0.3558 -0.3929 -0.2855
 5841W        W 9892   6.686   3.814   2.141 -0.1049  0.1914 -0.1288
 5842W        W 9893   5.400   7.582  10.183  0.0775  0.0171 -0.1685
 5843W        W 9894   4.921   4.765   5.288 -0.1351  0.0797 -0.3674
 5844W        W 9895   9.845   2.104   2.118 -0.0159 -0.3048 -0.2156
 5845W        W 9896   1.831   7.960   2.020  0.0422 -0.5698  0.1200
 5846W        W 9897   5.399   9.897   8.907  0.0646 -0.0748  0.1075
 5847W        W 9898   9.643   5.861   3.161  0.1355  0.1377  0.0115
 5848W        W 9899   0.352   4.972   0.652 -0.0484  0.0305  0.0663
 5849W        W 9900   2.780   0.684  11.109 -0.0444 -0.0416  0.0572
 5850W        W 9901   6.651   0.405   2.082 -0.0318 -0.3504 -0.0465
 5851W        W 9902   6.244   6.641  12.696  0.2947 -0.0913  0.1483
 5852W        W 9903   3.787   2.584   4.213 -0.0075 -0.1319  0.2354
 5853W        W 9904   3.818   7.756  10.447 -0.1347  0.1852 -0.0623
 5854W        W 9905   7.014   5.878   4.383  0.1674  0.0067 -0.1315
 5855W        W 9906   4.721   7.568   4.050  0.0057  0.2516 -0.0581
 5856W        W 9907   2.339   5.810   3.874  0.1816 -0.2747 -0.2514
 5857W        W 9908   9.225   9.158  11.560 -0.1139  0.0727  0.2737
 5858W        W 9909   2.409   0.727   2.523 -0.1715 -0.2165  0.0100
 5859W        W 9910   5.128   3.550  11.080  0.2883 -0.0456 -0.0875
 5860W        W 9911   1.712   3.369   1.982  0.1473  0.0324 -0.1159
 5861W        W 9912   1.959   6.016  12.098  0.2092 -0.2552 -0.1246
 5862W        W 9913   0.788   5.731  10.917  0.2038 -0.0489 -0.0595
 5863W        W 9914   3.187   0.189  12.089  0.0712 -0.0353 -0.1822
 5864W        W 9915   5.670   7.991   3.691  0.2362  0.0893 -0.1090
 5865W        W 9916   4.542   6.063   3.062  0.1017  0.0117 -0.2316
 5866W        W 9917   7.546   1.230   2.599 -0.1804 -0.1089  0.2103
 5867W        W 9918   9.038   7.160  13.593 -0.3741 -0.0342 -0.1615
 5868W        W 9919   7.682   2.373  13.011 -0.0841  0.0318  0.1516
 5869W        W 9920   5.893   9.951   2.380 -0.1253  0.2130 -0.0259
 5870W        W 9921   7.298   0.454  10.933 -0.4380  0.3994 -0.0319
 5871W        W 9922   2.378   2.590  11.930  0.0787  0.1107  0.2881
 5872W        W 9923   9.969   4.218  11.379  0.0679 -0.0352  0.2751
 5873W        W 9924   2.266   2.750  11.229 -0.1123 -0.0768  0.1488
 5874W        W 9925   9.756   4.675   3.679  0.0121  0.1402 -0.0080
 5875W        W 9926   4.274   4.022   2.563 -0.1330 -0.1495 -0.2225
 5876W        W 9927   3.112   2.384   8.857  0.3881 -0.2220  0.2334
 5877W        W 9928   3.621   2.138  10.866  0.2950  0.0015  0.0303
 5878W        W 9929   6.185   1.597  12.457 -0.0776 -0.0609 -0.0670
 5879W        W 9930   8.742   5.104  13.867 -0.2264 -0.1086  0.0282
 5880W        W 9931   5.465   8.462   3.291 -0.2544  0.0261  0.3555
 5881W        W 9932   4.715   4.453   9.826 -0.1951  0.1906 -0.0191
 5882W        W 9933   6.903   0.316  12.835 -0.1803 -0.1717 -0.2851
 5883W        W 9934   1.132   5.369   4.341 -0.0575  0.0090 -0.4108
 5884W        W 9935   7.063   6.141  13.044  0.2322 -0.2570  0.0507
 5885W        W 9936   8.210   5.940   4.844  0.0726  0.0393  0.1872
 5886W        W 9937   0.225   5.714   2.030 -0.1855 -0.3403 -0.3203
 5887W        W 9938   8.287   7.755  13.853  0.2926 -0.2884  0.3184
 5888W        W 9939   7.636   0.841   3.363 -0.0213  0.0971  0.0584
 5889W        W 9940   4.130   2.717  10.172 -0.2468 -0.0857  0.3777
 5890W        W 9941   8.292   9.748  10.744  0.0306  0.0768 -0.0247
 5891W        W 9942   7.167   2.016   1.363 -0.1301  0.1367  0.4923
 5892W        W 9943   7.777   6.078  10.624 -0.0112 -0.0348  0.0483
 5893W        W 9944   5.968   3.705   4.082 -0.1354  0.3142 -0.0300
 5894W        W 9945   1.738   5.647  10.699  0.2249 -0.1403 -0.5018
 5895W        W 9946   7.901   6.711  10.576 -0.3258  0.0953 -0.2586
 5896W        W 9947   3.205   1.199   1.904  0.0438  0.1380  0.2818
 5897W        W 9948   5.019   3.875  12.005  0.1333 -0.3966  0.2622
 5898W        W 9949   3.245   8.772   4.684  0.1438  0.3306  0.2437
 5899W        W 9950   1.152   2.936   1.332 -0.1327  0.0724  0.0010
 5900W        W 9951   0.090   2.529  10.825 -0.1433 -0.1026  0.0514
 5901W        W 9952   1.783   6.485   3.632 -0.3093  0.0294 -0.0096
 5902W        W 9953   5.245   9.508  12.959 -0.1568 -0.2676  0.0409
 5903W        W 9954   3.639   8.513   4.886 -0.0846  0.1418 -0.1521
 5904W        W 9955   4.409   1.048  12.344  0.2799 -0.2567 -0.1199
 5905W        W 9956   1.637   1.037   2.776 -0.1802 -0.0350  0.2226
 5906W        W 9957   0.317   4.405   2.315 -0.0978 -0.1143 -0.0570
 5907W        W 9958   2.080   4.995   4.713  0.1541  0.1729  0.2132
 5908W        W 9959   0.060   5.481  12.886  0.0345  0.0031  0.0609
 5909W        W 9960   4.524   0.438  13.921  0.3710  0.0892 -0.3380
 5910W        W 9961   1.469   5.310  11.615  0.3891  0.2030  0.1563
 5911W        W 9962   0.843   2.488   4.753 -0.0877 -0.3249 -0.0238
 5912W        W 9963   8.728   0.467   1.683 -0.1490 -0.2515 -0.1763
 5913W        W 9964   9.135   4.970   0.220 -0.0589 -0.0009  0.2207
 5914W        W 9965   5.748   4.059   3.812  0.1584  0.2012  0.1621
 5915W        W 9966   2.940  10.002  11.659  0.0330 -0.1848 -0.0727
 5916W        W 9967   0.960   0.005   4.721  0.0363 -0.0897  0.0145
 5917W        W 9968   2.659   9.171  10.592 -0.3970  0.0695  0.0124
 5918W        W 9969   0.224   9.501  10.873  0.0947 -0.4094  0.2581
 5919W        W 9970   6.335   8.014   1.690  0.1879 -0.2707  0.0652
 5920W        W 9971   2.511   4.141   0.076  0.1432  0.1036 -0.2018
 5921W        W 9972   5.053   8.051  11.995 -0.2681 -0.1489 -0.0585
 5922W        W 9973   0.974   4.327  13.321 -0.1896  0.1320  0.0185
 5923W        W 9974   1.636   3.976  12.338  0.1186 -0.1552  0.0176
 5924W        W 9975   5.010   1.890  12.995  0.0015 -0.1129 -0.1580
 5925W        W 9976   6.657   1.092  10.942  0.0030  0.0989 -0.2115
 5926W        W 9977   2.238   2.466  12.721 -0.1298 -0.2528  0.4123
 5927W        W 9978   9.609   2.263   1.696 -0.1977  0.0272 -0.3564
 5928W        W 9979   1.248   4.075  11.956  0.1806 -0.1226  0.1654
 5929W        W 9980   6.099   3.303   8.072 -0.4834 -0.0869 -0.0918
 5930W        W 9981   8.935   2.303   8.942 -0.1025  0.2224  0.2063
 5931W        W 9982   4.892   8.532   0.841 -0.0984  0.0033 -0.1869
 5932W        W 9983   8.766   0.513  13.087  0.0550  0.1936  0.1718
 5933W        W 9984   4.925   0.847  11.344  0.0347 -0.1777  0.0081
 5934W        W 9985   6.061   7.337  11.855  0.0611  0.0756 -0.0407
 5935W        W 9986   9.025   8.499  10.664 -0.1447 -0.1859  0.3217
 5936W        W 9987   2.653   5.770   1.297 -0.0888  0.1573 -0.2027
 5937W        W 9988   7.187   2.220   9.867  0.2400  0.2347  0.0054
 5938W        W 9989   3.738   7.928   9.039 -0.0016 -0.4611 -0.3563
 5939W        W 9990   3.325   6.332  13.552  0.1020  0.4279  0.1660
 5940W        W 9991   8.287  10.079   4.040  0.1190  0.1135  0.0615
 5941W        W 9992   1.217   1.854   1.854 -0.3252  0.1069  0.2205
 5942W        W 9993   2.219   5.584  11.952 -0.0315  0.0735 -0.4286
 5943W        W 9994   6.885   0.109  11.010  0.2225  0.0954 -0.0495
 5944W        W 9995   7.603   2.815  11.103 -0.1215  0.1765  0.2325
 5945W        W 9996   5.288   7.114   3.463  0.2644 -0.0504  0.2677
 5946W        W 9997   1.602   5.129  10.588  0.1111  0.1314 -0.2932
 5947W        W 9998   7.966   8.137   2.309 -0.0141  0.3588  0.1480
 5948W        W 9999   5.451   9.560  13.515  0.1775  0.1991 -0.1079
 5949W        W10000   9.823   3.692   0.502  0.0040  0.3243  0.2904
 5950W        W10001   8.397   2.836   9.391 -0.1970  0.1694 -0.0329
 5951W        W10002   6.943   8.849  11.363  0.2287 -0.1191  0.0849
 5952W        W10003   6.753   6.612   2.101 -0.0038 -0.0834  0.0961
 5953W        W10004   9.158   5.831   3.317 -0.0653  0.0175 -0.3301
 5954W        W10005   7.421   3.756  11.448 -0.0778 -0.0853 -0.0901
 5955W        W10006   9.837   3.210   3.119  0.0828 -0.1009 -0.0446
 5956W        W10007   3.819   0.432  10.392  0.0701  0.1196 -0.0699
 5957W        W10008   0.123   7.367  10.317 -0.1493 -0.1580  0.0457
 5958W        W10009   2.646   9.972  11.053 -0.2130 -0.4772 -0.2121
 5959W        W10010   7.706   3.233  11.296 -0.5020  0.1545  0.1533
 5960W        W10011   2.671   2.859  10.969  0.1757 -0.0380  0.2033
 5961W        W10012   5.133   5.024  10.693  0.0043  0.0074 -0.2203
 5962W        W10013   0.523   5.039  10.276  0.1087 -0.1678 -0.1083
 5963W        W10014   3.583   7.592  11.391  0.0528 -0.1273  0.0543
 5964W        W10015   4.993   7.989  10.946 -0.0192 -0.1163  0.1923
 5965W        W10016   4.345   1.243  12.944  0.0980 -0.2184  0.0977
 5966W        W10017   0.653   0.869  12.276 -0.0422 -0.0269 -0.3326
 5967W        W10018   7.808   5.221  11.472 -0.3693 -0.1302 -0.0750
 5968W        W10019   8.851   7.191  12.596  0.1377  0.4795  0.0229
 5969W        W10020   5.059   7.989   4.585 -0.1715 -0.1233 -0.1538
 5970W        W10021   9.679   5.266  13.520  0.5474  0.3123  0.0922
 5971W        W10022   5.122   0.517  13.336  0.0235 -0.1327  0.1146
 5972W        W10023   2.442   1.389  10.025 -0.0027 -0.2522  0.3903
 5973W        W10024   5.399   7.140   3.971 -0.2372  0.1050 -0.2758
 5974W        W10025   1.832   9.560   0.637 -0.1131  0.1873 -0.0526
 5975W        W10026   3.985   5.922   1.076  0.0454 -0.1534  0.2531
 5976W        W10027   3.004   4.070   2.965  0.0062  0.0209 -0.1406
 5977W        W10028   9.353   6.204   2.098 -0.0301  0.1585  0.1086
 5978W        W10029   7.145   8.489   2.557  0.1241  0.0076  0.0252
 5979W        W10030   8.925   3.336   9.155 -0.0177 -0.0342  0.0551
 5980W        W10031   7.535   6.642  12.353 -0.2456 -0.1975 -0.2204
 5981W        W10032   9.491   1.199  11.644 -0.1601 -0.1748  0.3294
 5982W        W10033   9.992   2.560  13.644  0.0828 -0.1730 -0.0719
 5983W        W10034   0.906   4.329   5.375 -0.0609 -0.2360 -0.2387
 5984W        W10035   6.361   7.170   9.593 -0.1694 -0.2026  0.4074
 5985W        W10036   5.180   4.113   9.945  0.2127 -0.3850 -0.1074
 5986W        W10037   4.860   9.319   0.306  0.1395 -0.0814 -0.2803
 5987W        W10038   7.434   6.404  11.827  0.1530 -0.2086 -0.2245
 5988W        W10039   7.708   0.727   2.195  0.0700 -0.3042 -0.2653
 5989W        W10040   2.168   7.683  10.607 -0.1005 -0.0430 -0.0178
 5990W        W10041   3.073   5.997   0.140 -0.0192 -0.1826 -0.1416
 5991W        W10042   7.718   9.170   0.804 -0.0438 -0.1507 -0.1257
 5992W        W10043   0.833   7.621  11.589  0.1808 -0.1369 -0.0153
 5993W        W10044   4.554   8.807   3.299 -0.1941  0.0213  0.3496
 5994W        W10045   3.153   0.558   4.174 -0.2566  0.0938 -0.0123
 5995W        W10046   5.632   1.240   0.503  0.0873 -0.2259  0.2296
 5996W        W10047   7.240   7.569   2.340  0.2177  0.1602 -0.1436
 5997W        W10048   2.989   7.590  10.644 -0.3475  0.0819 -0.1020
 5998W        W10049   9.294   7.560  10.227  0.0127  0.0655  0.1021
 5999W        W10050   9.442   7.815  13.967  0.2318 -0.3714  0.2114
 6000W        W10051   6.501   6.423  11.846  0.2059 -0.0907  0.0039
 6001W        W10052   8.184   0.396  10.361  0.0677  0.0337 -0.0120
 6002W        W10053   2.653   0.281   0.573 -0.0916  0.0802  0.1728
 6003W        W10054   1.862   3.242   4.044  0.3771  0.0288 -0.0122
 6004W        W10055   3.273   5.283   2.277  0.1044 -0.0005 -0.1371
 6005W        W10056   1.647   2.104   0.299  0.1320  0.1116 -0.1719
 6006W        W10057   4.971   3.919  11.485 -0.1536  0.1528 -0.0348
 6007W        W10058   3.008   3.480  12.879  0.1641 -0.1048  0.0990
 6008W        W10059   1.332   9.812  12.510  0.1057  0.0392 -0.2809
 6009W        W10060   8.312   9.723   3.063  0.1000  0.1000  0.1236
 6010W        W10061   6.701   0.979  10.133  0.0642 -0.1972  0.0945
 6011W        W10062   5.994   9.000   2.319  0.0810  0.0911  0.0231
 6012W        W10063   0.325   0.548  12.487  0.2432 -0.1238  0.0648
 6013W        W10064   9.102   3.967   3.335  0.0551 -0.1663 -0.0189
 6014W        W10065   6.815   1.749   1.604 -0.0710 -0.0819  0.2265
 6015W        W10066   8.788   0.185   3.006 -0.1782  0.1769 -0.0436
 6016W        W10067   3.304   8.718  12.358  0.0200  0.0657  0.2775
 6017W        W10068   4.189   9.469   1.679 -0.0766 -0.1238  0.0446
 6018W        W10069   4.861   4.454  13.228 -0.1767 -0.2670 -0.1739
 6019W        W10070   0.942   1.472   3.046  0.0450  0.4769  0.3148
 6020W        W10071   6.615   7.405  10.470 -0.2556 -0.3115  0.0564
 6021W        W10072   2.308   6.562   3.654 -0.1982 -0.0727 -0.2289
 6022W        W10073   5.707   4.676  10.580 -0.1590  0.1346  0.1398
 6023W        W10074   8.867   8.196   0.737  0.3728  0.0313  0.1465
 6024W        W10075   6.464   5.146  10.716  0.3832 -0.0293  0.2857
 6025W        W10076   0.053   3.603  10.283  0.2378  0.1005  0.0003
 6026W        W10077   0.037   1.651  13.388 -0.1610 -0.0953 -0.1718
 6027W        W10078   7.374   8.051  11.276 -0.0823 -0.0309  0.0220
 6028W        W10079   3.496   7.275   2.599  0.2068 -0.1031 -0.1103
 6029W        W10080   6.376   5.118  11.188 -0.0445 -0.2605 -0.0790
 6030W        W10081   5.570   9.094   1.902 -0.2029  0.0975  0.1192
 6031W        W10082   1.228   5.553  10.657  0.2041  0.0829 -0.1420
 6032W        W10083   6.440   7.589  13.669 -0.1131 -0.1290 -0.0889
 6033W        W10084   5.242   7.509  10.769  0.1201  0.0394 -0.0595
 6034W        W10085   9.944   3.245  10.128 -0.0049  0.2758  0.4315
 6035W        W10086   8.495   9.763   9.845  0.0760  0.0230  0.1644
 6036W        W10087   8.589   5.812  12.799 -0.3001  0.0143 -0.0805
 6037W        W10088   5.506  10.033  12.832 -0.2638  0.3416  0.1036
 6038W        W10089   0.399   4.870   2.620  0.2508 -0.0011 -0.0157
 6039W        W10090   7.170   5.187   3.827 -0.0154 -0.1328 -0.0402
 6040W        W10091   0.505   8.137  11.976 -0.0646  0.1492 -0.2908
 6041W        W10092   3.847   7.463   4.091 -0.3065  0.1581 -0.0398
 6042W        W10093   1.015   2.805  11.123  0.0313 -0.2376 -0.1162
 6043W        W10094   1.485   2.556   0.018 -0.0964  0.1958 -0.0638
 6044W        W10095   8.309   7.933  13.103 -0.1222  0.2808 -0.4572
 6045W        W10096   2.417   4.424  10.591  0.2477 -0.1066  0.0970
 6046W        W10097   5.851   4.215  12.105 -0.3298  0.1075  0.0128
 6047W        W10098   3.292   3.826  12.033  0.1606 -0.0470 -0.2117
 6048W        W10099   4.141   5.057  11.977 -0.1570  0.0541 -0.0217
 6049W        W10100   1.415   6.412   4.623 -0.3356 -0.0540 -0.1042
 6050W        W10101   5.376   9.797   2.301 -0.0431 -0.2578 -0.0683
 6051W        W10102   8.119   6.583  12.409  0.2626  0.0906 -0.0166
 6052W        W10103   4.604   7.247   4.946  0.2564  0.1703  0.4758
 6053W        W10104   3.848   5.422  11.003 -0.1515  0.0545 -0.1078
 6054W        W10105   1.321   1.306   4.997 -0.2420 -0.1637  0.0869
 6055W        W10106   8.029   1.647   1.387 -0.1157 -0.2154  0.3133
 6056W        W10107   3.184   1.447   4.156  0.2312  0.3064  0.1349
 6057W        W10108   2.832   3.352   0.594  0.1208  0.1109  0.3996
 6058W        W10109   3.854   6.178  13.628  0.0866 -0.0645  0.1099
 6059W        W10110   6.678   1.332   0.329  0.4898 -0.1924 -0.2187
 6060W        W10111   0.596   0.229   0.045  0.1048 -0.1284  0.3315
 6061W        W10112   5.134   2.403   2.965 -0.2011 -0.0513 -0.2085
 6062W        W10113   5.111   0.854   3.260  0.0345 -0.0180 -0.2229
 6063W        W10114   6.906   0.628   1.649 -0.1973  0.0655 -0.1618
 6064W        W10115   4.207   9.069  11.288  0.0372 -0.0982  0.0792
 6065W        W10116   5.818   2.083   0.885 -0.2013  0.1999  0.2015
 6066W        W10117   6.205   7.924  12.615 -0.0605  0.0719  0.1039
 6067W        W10118   8.862   4.488   4.420 -0.0813  0.0518 -0.2280
 6068W        W10119   7.258   8.752   1.761  0.1904  0.0691  0.2618
 6069W        W10120   9.350   9.164   1.611  0.0148 -0.2945 -0.1643
 6070W        W10121   7.248   7.716   1.724  0.1749  0.0054 -0.1266
 6071W        W10122   7.383   2.176  10.334  0.1208 -0.0522  0.0626
 6072W        W10123   5.387   7.590   2.701  0.2328  0.0103  0.0590
 6073W        W10124   1.857  10.178   4.017  0.2352 -0.2064  0.1708
 6074W        W10125   5.030   4.446   2.904 -0.1270  0.1520 -0.1467
 6075W        W10126   1.979   9.260  11.142 -0.2923 -0.0627  0.1824
 6076W        W10127   7.567   7.629  11.495  0.0203 -0.1456 -0.3046
 6077W        W10128   9.868   0.918  12.493  0.3861 -0.2660  0.0133
 6078W        W10129   9.533   4.382  12.347 -0.2519 -0.0145  0.0998
 6079W        W10130   6.020   2.242   1.353  0.0965  0.1651 -0.0793
 6080W        W10131  10.012   1.163   2.204 -0.0874 -0.0410  0.0228
 6081W        W10132   2.323   4.507   1.879  0.1041 -0.0990 -0.1098
 6082W        W10133   0.049   8.270   1.166  0.2079 -0.0210  0.0868
 6083W        W10134   1.211   4.934  10.838  0.0331 -0.1415  0.1808
 6084W        W10135   2.388   4.138   4.902  0.1411 -0.0986 -0.1393
 6085W        W10136   1.175   8.443   1.367 -0.1885 -0.3063  0.1758
 6086W        W10137   9.970   6.771   0.767  0.4906  0.0531 -0.1013
 6087W        W10138   5.847   1.920  12.752  0.0918  0.0610  0.1036
 6088W        W10139   8.832   6.214  13.049  0.2539 -0.0857 -0.0484
 6089W        W10140   9.783   4.204  12.842  0.0744 -0.3330 -0.0366
 6090W        W10141   1.623   0.274   0.412  0.0733 -0.0922 -0.1778
 6091W        W10142   8.253   7.675   2.394  0.1307  0.1005  0.0134
 6092W        W10143   1.675   1.456   9.483 -0.1382  0.2315 -0.1618
 6093W        W10144   2.913   4.133  12.778 -0.0906 -0.0636  0.1473
 6094W        W10145   2.657   3.701   0.954 -0.0683 -0.0698  0.6141
 6095W        W10146   2.689   0.414   3.764 -0.3179 -0.2710 -0.0889
 6096W        W10147   9.747   7.664   0.493 -0.1763 -0.0245 -0.1695
 6097W        W10148   4.082   4.138  11.830  0.0726  0.2259 -0.1694
 6098W        W10149   5.674   9.693  10.308 -0.2239 -0.0036 -0.0341
 6099W        W10150   0.810   0.101   2.072  0.1210 -0.0469  0.2518
 6100W        W10151   7.983   8.352  13.106 -0.1938 -0.2331 -0.3303
 6101W        W10152   2.989   0.068   4.994 -0.2077 -0.2155 -0.1481
 6102W        W10153   8.748   5.689   3.613 -0.0068  0.2527 -0.2285
 6103W        W10154   9.078   2.270  10.155  0.0112  0.2618 -0.0722
 6104W        W10155   4.887   9.129  10.237  0.3789  0.1369 -0.0656
 6105W        W10156   1.260   9.608   0.771 -0.0137  0.0089  0.0241
 6106W        W10157   6.307   9.430   0.008 -0.1056 -0.1499  0.1435
 6107W        W10158   4.150   5.129   0.541  0.0214 -0.1673  0.0893
 6108W        W10159   3.451   5.011   9.802  0.0575  0.2916 -0.2519
 6109W        W10160   7.293   2.143   0.439  0.0468  0.1872  0.1711
 6110W        W10161   6.149   7.639  10.476 -0.1595 -0.1394 -0.1350
 6111W        W10162   9.196   7.610  12.717 -0.2287 -0.0549 -0.0714
 6112W        W10163   4.966   6.556  10.899  0.3631 -0.1147  0.0495
 6113W        W10164   3.368   8.068   1.555  0.2748 -0.0651 -0.0246
 6114W        W10165   8.247   2.428   1.904 -0.3122 -0.3868  0.0571
 6115W        W10166  10.145   1.319   0.214  0.1409 -0.1001  0.0972
 6116W        W10167   0.796   9.427   3.075 -0.2350  0.6388  0.2225
 6117W        W10168   1.757   5.796   2.525  0.0639  0.3388 -0.0176
 6118W        W10169   8.213   5.262   9.424  0.1558 -0.0678  0.3204
 6119W        W10170   3.238   3.724   3.838 -0.2379 -0.1002 -0.3395
 6120W        W10171   3.937   1.002   3.561 -0.1577  0.1756 -0.0471
 6121W        W10172   7.329   7.583  12.650  0.1354  0.1137 -0.0018
 6122W        W10173   7.924   7.082  11.599 -0.0448 -0.1243  0.0487
 6123W        W10174   5.687   4.557   2.993 -0.2136  0.3754 -0.3258
 6124W        W10175   4.209   9.364   5.294 -0.1208  0.2495  0.0308
 6125W        W10176   1.043   0.384  12.630 -0.1308  0.0482  0.0934
 6126W        W10177   6.897   6.054   0.800  0.1145 -0.1451  0.3672
 6127W        W10178   4.729   3.440  13.947  0.0388 -0.1557  0.1165
 6128W        W10179   4.567   5.505   3.682 -0.2146 -0.1402 -0.1507
 6129W        W10180   9.377   1.108   1.120  0.0899  0.1928  0.0133
 6130W        W10181   6.789   2.196  11.601  0.0135  0.1251 -0.3631
 6131W        W10182   9.564   9.603   2.401 -0.1243 -0.2441  0.3016
 6132W        W10183   7.013   4.379   3.398 -0.3845 -0.1067 -0.3466
 6133W        W10184   3.514   9.687  10.136  0.0958 -0.3185 -0.2320
 6134W        W10185   4.112   6.313   3.135 -0.2879  0.1018  0.0011
 6135W        W10186   1.585   5.894  12.424 -0.0638  0.2187  0.1725
 6136W        W10187   4.479   7.393  12.473 -0.0641 -0.3182  0.0522
 6137W        W10188   8.255   6.721   1.241 -0.0240  0.0498 -0.0970
 6138W        W10189   6.424   2.402   2.430 -0.4482  0.0882  0.0789
 6139W        W10190   0.540   6.539   1.819 -0.0137 -0.2103 -0.1347
 6140W        W10191   0.677   6.443  10.377  0.2911 -0.1169  0.2123
 6141W        W10192   5.560   7.714   4.140  0.2050 -0.0762  0.1679
 6142W        W10193   4.548   4.596  11.406  0.2806 -0.1280 -0.0209
 6143W        W10194   0.968  10.142  10.536  0.2172  0.0625 -0.1495
 6144W        W10195   7.806   2.502  13.730  0.1578  0.1808  0.2453
 6145W        W10196   4.384   1.826   9.854 -0.0185 -0.1478 -0.1783
 6146W        W10197   4.537   5.310   4.243  0.1164  0.0941 -0.0546
 6147W        W10198  10.117   9.025  11.992 -0.1689 -0.1050  0.0376
 6148W        W10199   2.100   0.290   2.258 -0.1998  0.0424 -0.0448
 6149W        W10200   6.662   9.270  13.053 -0.0226  0.0667 -0.1405
 6150W        W10201   8.748   8.148   9.669  0.1721  0.0039 -0.2091
 6151W        W10202   7.989   5.385   1.698 -0.0484 -0.1466  0.4703
 6152W        W10203   4.141   6.777   9.855  0.0812  0.3007  0.0182
 6153W        W10204   2.511   4.178  11.991  0.1487  0.2918 -0.1024
 6154W        W10205   1.092   5.798  12.395  0.0623 -0.1790  0.1763
 6155W        W10206   8.327   0.038   9.926 -0.2265 -0.2088  0.0533
 6156W        W10207   8.889   3.680   0.951 -0.1081 -0.1262 -0.0462
 6157W        W10208   3.030   3.028  13.756 -0.1379  0.1024  0.0859
 6158W        W10209   8.065   2.818   8.893 -0.1903  0.0319 -0.2806
 6159W        W10210   6.110   6.144  12.910  0.1867 -0.0571  0.2370
 6160W        W10211   8.684   9.442   2.870 -0.3112  0.0098  0.2583
 6161W        W10212   4.632   1.227   9.365  0.0190  0.1611 -0.1198
 6162W        W10213   4.902   7.274  11.675 -0.3219 -0.1495  0.1572
 6163W        W10214   5.749   2.515   9.022  0.0600  0.0094  0.0664
 6164W        W10215   7.879   0.206   1.268  0.4419 -0.0694 -0.2585
 6165W        W10216   1.014   9.362  12.165  0.3317  0.1071 -0.1837
 6166W        W10217   0.712   7.143  11.244 -0.1354  0.2032  0.2770
 6167W        W10218   0.662   7.147  10.654 -0.1082  0.0018 -0.0258
 6168W        W10219   4.592   6.231  10.898  0.1932  0.1660 -0.0352
 6169W        W10220   7.635   2.703   1.143 -0.1874 -0.1369  0.3115
 6170W        W10221   3.518   8.973  11.051  0.2484  0.2120  0.0146
 6171W        W10222  10.150   8.128  11.442 -0.2307  0.0831  0.0908
 6172W        W10223   8.190   1.248  10.587  0.0139 -0.2398  0.0251
 6173W        W10224   0.454   0.239   3.454 -0.0456 -0.1600 -0.2690
 6174W        W10225   1.429   4.306  13.522  0.2856  0.3166  0.2072
 6175W        W10226   1.034   6.150   0.815  0.0048  0.3813  0.1871
 6176W        W10227   6.091   6.956  13.501 -0.0529  0.1890  0.2092
 6177W        W10228   2.507   7.545   1.361  0.0844  0.2401 -0.0349
 6178W        W10229   0.224   4.522   9.854  0.0311 -0.3418  0.1812
 6179W        W10230   6.618   8.073  12.333  0.4899  0.3885 -0.2510
 6180W        W10231   1.032   9.015   2.176 -0.1589 -0.0393  0.2658
 6181W        W10232  10.067   8.540   3.896  0.3070 -0.0566  0.2127
 6182W        W10233   3.074   9.304   4.086 -0.0087 -0.1706  0.0791
 6183W        W10234   8.973   7.855  11.095  0.0569 -0.0653 -0.1011
 6184W        W10235   5.468   1.618   3.295 -0.0742  0.0231  0.1367
 6185W        W10236   7.099   4.105   4.222 -0.0287  0.3462  0.0123
 6186W        W10237   6.032   0.751   4.504 -0.0828 -0.1254  0.0248
 6187W        W10238   2.211  10.136   3.130 -0.3179  0.1428 -0.2967
 6188W        W10239   1.833   5.148   5.141 -0.1963  0.1224  0.1563
 6189W        W10240   3.418   8.488  11.235  0.1338  0.1504  0.2659
 6190W        W10241   1.879   1.957  13.522 -0.0949  0.1047 -0.0823
 6191W        W10242   9.281   5.735   1.454  0.0573 -0.0834 -0.2055
 6192W        W10243  10.072   9.461   1.687 -0.2284 -0.2496  0.0760
 6193W        W10244   0.557   9.757   1.015  0.1091 -0.2260  0.0238
 6194W        W10245   1.288   2.048   2.372  0.0312  0.2244 -0.2765
 6195W        W10246   9.593   2.869  13.588 -0.1811  0.0087 -0.2275
 6196W        W10247   6.097   3.162   3.755 -0.3413 -0.2587 -0.1844
 6197W        W10248   0.719   3.313   5.779  0.0465 -0.1292 -0.0840
 6198W        W10249   6.001   7.410  10.952  0.0235  0.0398 -0.1813
 6199W        W10250   1.454   5.295  12.901 -0.0781 -0.0332  0.0928
 6200W        W10251   5.581   2.027   2.360 -0.0446  0.3047  0.0609
 6201W        W10252   0.385   1.434  13.791  0.0190  0.1066  0.3052
 6202W        W10253   1.085   2.202   3.932 -0.3426 -0.2667  0.2224
 6203W        W10254   2.994   9.612   3.338  0.1102  0.2630  0.0137
 6204W        W10255   8.491   3.410  13.289 -0.0654  0.0121  0.1564
 6205W        W10256   4.730   1.387   2.245 -0.0460  0.0290 -0.3141
 6206W        W10257   3.249   0.617  12.369  0.2182 -0.0764  0.0137
 6207W        W10258   6.123   1.256   1.308 -0.1975  0.1288 -0.1632
 6208W        W10259   6.753   9.757   1.485 -0.0887 -0.0568 -0.2464
 6209W        W10260   2.220   1.104   2.841  0.0624  0.3480 -0.1517
 6210W        W10261   7.453   9.322   4.136 -0.0611 -0.2360 -0.1748
 6211W        W10262   2.079   7.094   3.818  0.0063 -0.1378 -0.2492
 6212W        W10263   8.162   0.869   1.848  0.0123  0.0476  0.2091
 6213W        W10264   4.230   2.068   1.535  0.2603 -0.1808 -0.1419
 6214W        W10265   2.910   8.073  13.139 -0.1536  0.1197  0.1491
 6215W        W10266   7.921   2.470  11.179 -0.0832 -0.1660  0.0387
 6216W        W10267   8.500   1.911   4.001  0.0129  0.0836  0.1301
 6217W        W10268   0.606   6.287   8.891 -0.2542 -0.1849  0.0942
 6218W        W10269   7.106   6.557  11.179 -0.0704 -0.1499 -0.3011
 6219W        W10270   5.313   6.556   2.021 -0.0421  0.2263  0.2035
 6220W        W10271   8.004   9.648  11.884 -0.0902  0.3213  0.1620
 6221W        W10272   7.476   6.094   3.821  0.0576  0.2610  0.1311
 6222W        W10273   3.773   8.586   4.440 -0.0632 -0.0453 -0.1547
 6223W        W10274   9.486   6.133   9.338  0.2525  0.1925 -0.2979
 6224W        W10275   0.234   7.343  11.499 -0.1238 -0.3623  0.2202
 6225W        W10276   7.983   1.767   0.864 -0.0705 -0.4496 -0.2243
 6226W        W10277   5.313   5.744   5.823  0.2508 -0.1268  0.3316
 6227W        W10278   8.395   2.040   1.605 -0.2552 -0.0568  0.1018
 6228W        W10279   1.592   2.083  11.886 -0.0217 -0.2142  0.1368
 6229W        W10280   8.985   1.017  13.068  0.0301  0.1626  0.0386
 6230W        W10281   4.982   9.980  12.798 -0.4779 -0.3147  0.1004
 6231W        W10282   3.642   7.372  11.925  0.1822 -0.1199  0.2252
 6232W        W10283   7.646   5.679   1.900 -0.0001  0.0098 -0.2531
 6233W        W10284   4.689   7.081  10.355  0.2074 -0.1576 -0.0996
 6234W        W10285   0.245   6.526   0.740  0.2899  0.1405  0.0844
 6235W        W10286   5.735   2.012  10.648  0.0451 -0.2043  0.3071
 6236W        W10287   6.270   7.086  12.282  0.0531 -0.0663 -0.1709
 6237W        W10288   1.765   6.642  13.493 -0.3096 -0.0997  0.2833
 6238W        W10289   6.355   8.073  10.572 -0.1342  0.0883 -0.1218
 6239W        W10290   1.942   5.840   5.453 -0.2159 -0.1570  0.0583
 6240W        W10291   4.235   0.277   4.113  0.0474 -0.0424 -0.1227
 6241W        W10292   6.953   3.246   4.859 -0.1996  0.4927 -0.1471
 6242W        W10293   7.947   3.274  10.295 -0.1211  0.0155  0.0798
 6243W        W10294   4.709   0.895   2.993 -0.0572 -0.0501 -0.1513
 6244W        W10295   3.997   9.082   0.680 -0.0638 -0.0463 -0.1656
 6245W        W10296   1.464   8.986  13.357  0.1760  0.0381 -0.2140
 6246W        W10297   7.830   3.122   4.278 -0.0067  0.1224  0.3274
 6247W        W10298   0.698   8.926  13.317 -0.1905  0.0443 -0.1270
 6248W        W10299   0.510   0.017  12.879  0.2439  0.1683  0.3662
 6249W        W10300   2.386   1.430  12.288  0.1585  0.0110  0.0762
 6250W        W10301   4.171  10.128   0.796  0.0609 -0.3771 -0.1401
 6251W        W10302   0.932   7.975   2.098  0.0011  0.4363 -0.1466
 6252W        W10303   8.210   6.226   1.380 -0.3015 -0.1961  0.4016
 6253W        W10304   0.189   3.019   9.552 -0.3007 -0.2333  0.0546
 6254W        W10305   6.232   4.534   0.233  0.2792  0.1111 -0.0316
 6255W        W10306   8.247   7.660  12.200  0.5423  0.1667 -0.0113
 6256W        W10307   0.674   8.780   2.389 -0.0004  0.0497  0.0676
 6257W        W10308   2.167   3.829  12.246 -0.1252 -0.0004  0.1732
 6258W        W10309   3.308   6.137   5.221 -0.2392  0.0263  0.0274
 6259W        W10310   2.958   8.600  10.540  0.1271  0.1837  0.2322
 6260W        W10311   1.856   8.699   0.068 -0.0898 -0.0487  0.0690
 6261W        W10312   8.192   5.830  13.109  0.1632  0.0419  0.0331
 6262W        W10313   1.011   4.322   3.016  0.1917 -0.2041 -0.0803
 6263W        W10314   7.285   0.795   1.396 -0.1848 -0.3854 -0.1720
 6264W        W10315   0.690   7.822   4.596 -0.2435 -0.0039 -0.3339
 6265W        W10316   6.455   9.567  12.623 -0.2036 -0.0742 -0.3584
 6266W        W10317   4.359   7.119   9.072 -0.0328 -0.1566  0.0576
 6267W        W10318   9.708   3.196   4.004  0.2632  0.1456  0.0817
 6268W        W10319   6.224   1.603   2.810 -0.2629 -0.1757 -0.1682
 6269W        W10320   5.609   6.238  12.930  0.1995  0.0252 -0.2717
 6270W        W10321  10.055   1.650  10.251 -0.1314 -0.1860 -0.0481
 6271W        W10322   7.320   0.085   0.960  0.0762  0.0460 -0.1778
 6272W        W10323   6.589   2.641   9.245 -0.0782 -0.1197 -0.0197
 6273W        W10324   7.473   1.312  12.197 -0.0536 -0.4900  0.1620
 6274W        W10325   7.955   4.296  11.644 -0.2417  0.1986 -0.2192
 6275W        W10326   6.816   5.671   0.359  0.0865 -0.2121  0.2487
 6276W        W10327   5.878   2.138   0.051 -0.0073 -0.1352 -0.1459
 6277W        W10328   9.171   7.387   3.688  0.0832 -0.4186 -0.1428
 6278W        W10329   9.919   3.715   5.074 -0.1357  0.1324 -0.0796
 6279W        W10330   7.235   3.567   9.908 -0.0409  0.1616  0.1930
 6280W        W10331   1.549   2.119   4.413  0.3413  0.2248  0.1787
 6281W        W10332   7.736   2.139   2.966  0.1772  0.0243  0.1178
 6282W        W10333   0.529   6.555  11.853 -0.1236 -0.1165  0.0942
 6283W        W10334   7.181   3.190   1.310 -0.1142 -0.2571  0.2919
 6284W        W10335   9.651   2.311  12.277 -0.1730  0.1135  0.2396
 6285W        W10336   7.714   5.317  12.414  0.0243  0.1622 -0.0083
 6286W        W10337   1.377   3.514  12.279 -0.3133 -0.1070  0.1020
 6287W        W10338   0.830   6.662   2.255 -0.0271  0.2115  0.0203
 6288W        W10339   7.950   0.916   0.535  0.1643 -0.1463 -0.3416
 6289W        W10340   7.355   8.422   1.185 -0.2823 -0.0184 -0.0364
 6290W        W10341   1.485   4.973   3.599  0.0213  0.2860  0.1128
 6291W        W10342   0.532   0.194  10.629 -0.2877 -0.0388  0.0748
 6292W        W10343   4.493   8.097   2.275  0.0908 -0.2059  0.1335
 6293W        W10344   6.365   9.568  11.466 -0.1418 -0.3126  0.0001
 6294W        W10345   9.603   1.933   0.594 -0.0054 -0.2178  0.2558
 6295W        W10346   2.588   7.860   9.899  0.0367 -0.1158  0.0680
 6296W        W10347   7.499   1.218  11.115  0.1210 -0.0088  0.1334
 6297W        W10348   6.092   2.869   0.597 -0.0733  0.0777  0.3277
 6298W        W10349   2.683   8.169   0.059 -0.1444  0.0930  0.0639
 6299W        W10350   9.858   5.173   8.721  0.1238 -0.0755  0.2904
 6300W        W10351   4.987   3.284   3.969  0.1484 -0.0126 -0.0803
 6301W        W10352   7.383   3.176   9.039 -0.1371 -0.1284 -0.0328
 6302W        W10353   7.377   2.836  10.553  0.1261  0.0356  0.0278
 6303W        W10354   2.385   7.667  11.649 -0.0247 -0.1668  0.2644
 6304W        W10355   5.553   6.310  10.908  0.0490 -0.6956  0.1965
 6305W        W10356   0.193   2.145   5.080  0.0304  0.3141 -0.1906
 6306W        W10357   1.481   6.248   3.304  0.0366  0.0974 -0.2673
 6307W        W10358   6.166   3.520   1.664  0.1457 -0.0632 -0.0379
 6308W        W10359   9.032   4.291   9.723 -0.4598  0.0323 -0.2332
 6309W        W10360   9.175   3.475  12.520  0.0472 -0.1732  0.0143
 6310W        W10361   5.326   6.622  10.516 -0.3601  0.0488 -0.1427
 6311W        W10362   5.861   0.673  11.280  0.0559 -0.2669 -0.1234
 6312W        W10363   2.486   1.627   2.762  0.1284  0.0986 -0.1422
 6313W        W10364   4.038   3.045  12.453 -0.3037 -0.0747  0.1485
 6314W        W10365   4.791   0.500   4.683 -0.0576  0.1492 -0.1810
 6315W        W10366   7.883   2.647  12.048 -0.0398  0.1364  0.0796
 6316W        W10367   2.684   0.006   0.980 -0.0185 -0.0328 -0.0143
 6317W        W10368   8.975   5.863   1.968 -0.1750  0.2491 -0.1369
 6318W        W10369   3.087   2.209  12.584 -0.2252  0.2736  0.1503
 6319W        W10370   6.308   1.427   2.294  0.3070  0.0673 -0.1368
 6320W        W10371   4.514   3.257   1.789 -0.0616 -0.1183 -0.0680
 6321W        W10372   8.557   3.061  11.803 -0.2015  0.0052  0.3279
 6322W        W10373   0.135   1.959   3.166 -0.2293 -0.2301 -0.0267
 6323W        W10374   3.672   8.905  10.520  0.4694 -0.1523 -0.0467
 6324W        W10375   8.319   4.730   9.354  0.2189  0.2620  0.2790
 6325W        W10376   3.550   2.946   2.820 -0.1401 -0.1705  0.0644
 6326W        W10377   0.678   8.422   0.388 -0.2669  0.0304  0.1889
 6327W        W10378   1.681   2.273  11.395 -0.0904  0.1140 -0.0549
 6328W        W10379   6.605   3.663  10.014 -0.2552  0.0952  0.0582
 6329W        W10380   4.209   8.068   4.672  0.0824  0.1709 -0.0137
 6330W        W10381   3.825   5.117  12.504 -0.0906 -0.1195  0.1520
 6331W        W10382   2.034   6.678   1.752 -0.1143  0.2567 -0.1120
 6332W        W10383   4.173   4.698   1.333  0.1889  0.1613  0.3375
 6333W        W10384   8.022   0.891  13.480  0.1367 -0.1895  0.1643
 6334W        W10385   2.146   9.144  13.854 -0.1254 -0.0683  0.0005
 6335W        W10386   3.428   9.855  11.776 -0.1951 -0.0829  0.1355
 6336W        W10387   0.417   8.035  13.417 -0.0406 -0.0751 -0.3876
 6337W        W10388   5.902   1.124  11.553  0.1546 -0.1139 -0.0029
 6338W        W10389   1.276   4.169   4.965 -0.1322 -0.4413 -0.1970
 6339W        W10390   2.917   5.650  12.546 -0.1002 -0.0528  0.2993
 6340W        W10391   0.647   8.463  11.659 -0.1596 -0.1549 -0.1147
 6341W        W10392   2.272   5.462   4.762  0.0280 -0.1715  0.1838
 6342W        W10393   2.985   0.064   4.059  0.0964 -0.0644 -0.4223
 6343W        W10394   0.662   5.903   1.843  0.1841 -0.1246 -0.1675
 6344W        W10395   3.379   4.936   4.916  0.1515  0.2269 -0.1079
 6345W        W10396   1.845   1.009   9.534 -0.2091 -0.0225  0.1242
 6346W        W10397   3.972   0.038  13.385 -0.2152 -0.0446 -0.2484
 6347W        W10398   5.288   3.042  11.034 -0.0803 -0.1837  0.1826
 6348W        W10399   4.535   9.079  13.921  0.2524 -0.0893 -0.2688
 6349W        W10400   5.776   9.836   9.207 -0.1689  0.0548 -0.0523
 6350W        W10401   5.174   1.207  12.908 -0.0317  0.1981  0.1406
 6351W        W10402   7.540   6.012   2.294 -0.1480 -0.2445  0.0863
 6352W        W10403   7.157   3.579  12.574 -0.0980 -0.3919 -0.0139
 6353W        W10404   1.076   0.494  10.553 -0.0196  0.3441 -0.0380
 6354W        W10405   3.128   9.891  12.227  0.1007  0.2236 -0.0692
 6355W        W10406   0.434   5.961  13.481 -0.0711  0.1345  0.0936
 6356W        W10407   4.595   7.932  13.127  0.0869 -0.6631  0.0521
 6357W        W10408   2.973   1.183   0.639 -0.0349  0.2919 -0.1082
 6358W        W10409   0.446   7.593  10.663  0.0971 -0.0260 -0.1204
 6359W        W10410   8.545   6.841  12.384  0.3441  0.1698  0.1217
 6360W        W10411   4.733   7.909   9.397 -0.1438  0.0366  0.3089
 6361W        W10412   8.669   5.082   9.484 -0.1536  0.1315  0.0955
 6362W        W10413   7.538   6.127   9.813 -0.2183  0.0616 -0.3152
 6363W        W10414   3.611   1.271   9.842  0.1009 -0.1072  0.0262
 6364W        W10415   9.980   9.095   0.673  0.1288  0.0417  0.1470
 6365W        W10416   1.244   9.520   2.176  0.1403 -0.3623 -0.0104
 6366W        W10417   4.612   6.935   0.317 -0.2818 -0.2056 -0.1193
 6367W        W10418   4.015   8.744   1.166  0.1886 -0.1446 -0.1565
 6368W        W10419   5.259   9.966  13.243 -0.4056  0.3609  0.0638
 6369W        W10420   8.180   7.021  13.308  0.2199 -0.0724 -0.0952
 6370W        W10421   9.084   9.050   9.761 -0.1939 -0.0164 -0.0048
 6371W        W10422   0.044   7.266   9.602 -0.1285 -0.0627  0.1951
 6372W        W10423   8.184   1.363  11.598  0.0609  0.3686  0.0362
 6373W        W10424   3.697   7.452  13.321 -0.3529 -0.2735  0.0182
 6374W        W10425   5.816   7.857   2.672 -0.3752 -0.3335 -0.0174
 6375W        W10426   2.437   1.232   1.487  0.0255 -0.0149 -0.1157
 6376W        W10427  10.040   0.084   0.316  0.0117  0.0943 -0.0725
 6377W        W10428   5.286   4.404  10.709 -0.1862  0.0243  0.2006
 6378W        W10429   0.991   0.999  11.416 -0.0310 -0.4196 -0.3906
 6379W        W10430   3.632   4.415  10.705 -0.3990  0.1369 -0.3467
 6380W        W10431   9.545   6.124  10.302 -0.0714 -0.2707 -0.1202
 6381W        W10432   0.957   1.520  10.237  0.0834  0.1499  0.0619
 6382W        W10433   9.370   3.777   1.243  0.0984  0.1943  0.0755
 6383W        W10434   3.126   0.124  10.628 -0.2529  0.2201 -0.0105
 6384W        W10435   0.685   3.936   3.679  0.3064  0.0136 -0.0760
 6385W        W10436   0.999   4.231   4.494  0.1956 -0.0819  0.0389
 6386W        W10437   6.245   6.471   2.355  0.0817 -0.0325  0.2284
 6387W        W10438  10.179   0.957   0.749 -0.0146 -0.3222  0.1423
 6388W        W10439   5.659   7.111  10.597  0.1720 -0.2160 -0.1419
 6389W        W10440   1.768   1.751   0.012  0.6198 -0.0897 -0.1278
 6390W        W10441   2.648   9.777   2.273 -0.4051  0.2115 -0.0955
 6391W        W10442   9.270   8.182  11.927 -0.3076 -0.1629 -0.0930
 6392W        W10443   9.923   8.652   9.749  0.0539  0.1991  0.1065
 6393W        W10444   8.241   6.182   2.552  0.1988  0.0859 -0.0366
 6394W        W10445   8.318   4.028  11.284 -0.0289 -0.2028  0.0169
 6395W        W10446   5.922   1.295   2.549  0.1224  0.1137  0.3016
 6396W        W10447   0.058   0.514  13.890  0.1410 -0.1399 -0.0085
 6397W        W10448   2.641   0.910  13.643 -0.1747 -0.1188 -0.1637
 6398W        W10449   5.824   9.583   5.258  0.2919  0.3359 -0.2989
 6399W        W10450   0.363   7.753  13.849 -0.2293 -0.0001 -0.1238
 6400W        W10451   2.879   3.291   1.158  0.0297 -0.1398 -0.0695
 6401W        W10452   3.947   9.922   1.645 -0.1078 -0.0885 -0.0277
 6402W        W10453   8.162   5.791   2.843 -0.2014 -0.2618 -0.0880
 6403W        W10454   8.124   1.848  11.766 -0.2827 -0.2448 -0.0892
 6404W        W10455   6.778   9.898  10.729 -0.0460 -0.0415 -0.1494
 6405W        W10456   7.730   6.694   2.852  0.0807  0.1469  0.2399
 6406W        W10457   4.689   8.748   0.426  0.1877 -0.1552  0.1698
 6407W        W10458   0.347   6.275  10.732 -0.6542  0.1020  0.3025
 6408W        W10459   5.056   4.691   8.928  0.2284 -0.1382 -0.1575
 6409W        W10460   2.913   4.959   5.098 -0.2201  0.1257  0.2402
 6410W        W10461   1.153   3.541  10.202 -0.1898  0.3505  0.0376
 6411W        W10462   7.230   5.797  10.013 -0.1728  0.2930  0.0269
 6412W        W10463   3.010   4.254  10.732 -0.1276 -0.0854  0.2397
 6413W        W10464   6.175   0.494   2.989  0.2463  0.0057 -0.0543
 6414W        W10465   6.336   3.499  13.786  0.0559  0.2562 -0.2010
 6415W        W10466   2.702   0.471   4.278 -0.1580 -0.1911  0.0277
 6416W        W10467   6.939   0.740   4.664 -0.4419 -0.0389 -0.0927
 6417W        W10468   2.530   4.885   2.859 -0.5055  0.1077  0.0846
 6418W        W10469   0.082   0.920  12.126  0.1069  0.0211  0.0232
 6419W        W10470   1.850   0.893  13.000 -0.2618  0.1288 -0.0377
 6420W        W10471   3.069   8.162  11.557 -0.1504  0.3061  0.1774
 6421W        W10472   9.190   5.064   4.408  0.1929 -0.2976 -0.1462
 6422W        W10473   6.284   2.344   1.949  0.1489  0.0719 -0.0774
 6423W        W10474   4.815   5.694  12.979  0.1499 -0.0764 -0.1069
 6424W        W10475   3.975   0.929   9.563  0.2392  0.0085  0.1006
 6425W        W10476   8.722   8.699  11.124 -0.0663 -0.4314  0.1805
 6426W        W10477   0.693   9.711  10.833 -0.3260 -0.0483 -0.1225
 6427W        W10478   1.229   6.360   0.289 -0.1477  0.3492 -0.4776
 6428W        W10479   4.646   6.538  10.453 -0.1727 -0.1413 -0.2088
 6429W        W10480   6.743   8.817   3.961 -0.4046 -0.1542 -0.4850
 6430W        W10481   9.596   1.258   2.626  0.2376 -0.0288  0.0335
 6431W        W10482   3.659   5.844   4.652 -0.2115 -0.0053 -0.4005
 6432W        W10483   3.417   1.979  12.309 -0.0694  0.0828 -0.0814
 6433W        W10484   0.158   6.994   4.411  0.2196 -0.0558 -0.0097
 6434W        W10485   0.672   2.879  12.393 -0.2616 -0.3286  0.0186
 6435W        W10486   4.740   0.399   2.458 -0.3410 -0.0030  0.1780
 6436W        W10487   0.989   7.584  10.650 -0.3962 -0.1350  0.1962
 6437W        W10488   1.879   0.223  11.531 -0.1244  0.0700  0.0193
 6438W        W10489   6.233   5.251   0.617 -0.0141  0.2533  0.1811
 6439W        W10490   5.765   8.789   9.026  0.0167  0.1539  0.1923
 6440W        W10491   9.120   9.989   1.838 -0.0969 -0.2160  0.0995
 6441W        W10492   1.190   9.398   9.967 -0.1229 -0.1076 -0.0295
 6442W        W10493   7.739   4.197  12.909 -0.3427  0.2402 -0.1731
 6443W        W10494   2.041   6.810   9.965 -0.0244  0.0023 -0.0602
 6444W        W10495   8.182   4.990  13.405 -0.1458 -0.0892 -0.0321
 6445W        W10496   7.560   3.928  12.471 -0.0231 -0.1446 -0.0190
 6446W        W10497   7.448   5.722   9.479  0.0780 -0.1429  0.0450
 6447W        W10498   0.579   5.008  11.780  0.0113  0.1669  0.0799
 6448W        W10499   9.345   4.241   1.494  0.2130 -0.1894  0.2564
 6449W        W10500   8.013  10.172  13.536  0.1391  0.0630  0.0425
 6450W        W10501   6.784   2.758  11.397  0.0494  0.3445 -0.0967
 6451W        W10502   0.180   4.562   0.470  0.0480  0.0787 -0.0783
 6452W        W10503   2.415   2.725   2.378 -0.3101  0.3401 -0.1832
 6453W        W10504   0.803   1.926   2.152  0.1440  0.2066  0.0322
 6454W        W10505   3.452   8.905  11.590 -0.0142 -0.0783 -0.0537
 6455W        W10506   5.445   3.600   2.624 -0.0770  0.0941  0.0408
 6456W        W10507   1.433   7.787  13.845 -0.0352  0.0526  0.1932
 6457W        W10508   1.891   9.478  10.681 -0.1857 -0.0731  0.0878
 6458W        W10509   2.832   0.494   1.196  0.1781  0.4173  0.3712
 6459W        W10510   2.951   6.882   8.824  0.2628 -0.4445  0.0933
 6460W        W10511   8.263   7.077   4.165  0.1846  0.1627  0.0891
 6461W        W10512   9.220   3.029  13.957  0.1107  0.0549 -0.2033
 6462W        W10513   1.210   3.020  12.072 -0.2421 -0.1869 -0.2672
 6463W        W10514   5.942   0.963   0.864  0.1973  0.1800  0.4506
 6464W        W10515   5.415   4.018  11.243  0.1145 -0.1554 -0.0244
 6465W        W10516   4.472   2.153  10.679 -0.1406  0.0751  0.0664
 6466W        W10517   2.959   2.222   1.709 -0.3517  0.3359 -0.0380
 6467W        W10518   8.322   7.452  10.105  0.1455  0.0560  0.0718
 6468W        W10519   6.510   3.980  10.429  0.0221 -0.0151 -0.2670
 6469W        W10520   9.371   1.964   2.103  0.1895 -0.0236 -0.1939
 6470W        W10521   3.973   3.795  13.935 -0.2167  0.1213 -0.0117
 6471W        W10522   3.375   2.993   2.026  0.2725 -0.2017  0.1834
 6472W        W10523   9.087   4.062   5.206 -0.2096 -0.0934 -0.0264
 6473W        W10524   1.753   5.826  12.879  0.0952 -0.2328  0.2006
 6474W        W10525   7.545   6.908   1.109  0.0296  0.1109 -0.0589
 6475W        W10526   6.614   7.034   3.075  0.0112  0.2703  0.0482
 6476W        W10527   4.197   0.645   8.886  0.0713  0.3859 -0.1146
 6477W        W10528   3.084   7.746  12.838  0.1836  0.0425 -0.1451
 6478W        W10529   8.227   6.205  10.655 -0.2228  0.0252 -0.0089
 6479W        W10530   4.384   8.872  10.841 -0.0699  0.1993  0.0776
 6480W        W10531   7.467   3.809   5.094  0.0246  0.2578 -0.0593
 6481W        W10532   3.404   2.787   3.878  0.0730  0.0932  0.0705
 6482W        W10533  10.163   4.115  13.239 -0.0125  0.1738  0.0243
 6483W        W10534   4.184   2.907   1.494  0.2654 -0.2370  0.0314
 6484W        W10535   6.802   3.430  13.481  0.1956  0.2983 -0.1287
 6485W        W10536   7.499   6.937  10.520  0.0107 -0.0878  0.0706
 6486W        W10537   5.931   6.567   3.050  0.1640  0.1500 -0.2500
 6487W        W10538   2.750   2.051   9.066 -0.1038 -0.2316  0.2482
 6488W        W10539   9.645   2.713   3.981  0.2536  0.3096  0.0372
 6489W        W10540   6.465   2.591   0.762 -0.2186 -0.2575 -0.1193
 6490W        W10541   2.939   1.239   2.890  0.4086  0.1100  0.3731
 6491W        W10542   3.696   1.436   5.448  0.1075 -0.0301  0.0934
 6492W        W10543   3.383   2.450  12.212 -0.0626 -0.1498 -0.1335
 6493W        W10544   2.965   4.591   2.699 -0.1109 -0.1421  0.3438
 6494W        W10545   4.975   1.529   1.850 -0.0654  0.0417 -0.0606
 6495W        W10546   8.894   1.637  12.246 -0.3018  0.0240  0.4432
 6496W        W10547   1.054   5.362   2.749 -0.0871 -0.2714 -0.1149
 6497W        W10548   0.905   3.346   4.864 -0.3565 -0.0595  0.2388
 6498W        W10549   7.223   3.612   1.654  0.2158 -0.1689  0.3405
 6499W        W10550   6.915   5.456   2.000  0.0841 -0.2901 -0.1064
 6500W        W10551   6.772   1.842   1.053  0.2731 -0.1782  0.0725
 6501W        W10552   8.450   9.764   2.553  0.1837 -0.1661 -0.3021
 6502W        W10553   5.603   6.730   4.348 -0.0869  0.2546  0.2222
 6503W        W10554   1.763   5.402   0.057 -0.1180  0.2224 -0.0235
 6504W        W10555   4.080   8.480  13.821 -0.1572 -0.0469 -0.0340
 6505W        W10556   3.239   5.953   3.208 -0.3330 -0.1951  0.0217
 6506W        W10557   6.373   2.548   1.497 -0.0485  0.2921 -0.1191
 6507W        W10558   1.007   0.183   1.205 -0.2177 -0.2056 -0.2166
 6508W        W10559   2.905   3.227   4.480  0.3728 -0.0519  0.0669
 6509W        W10560   2.624  10.182  12.239  0.0965 -0.0858  0.0348
 6510W        W10561   6.429   1.893   0.199  0.2103  0.0336  0.1329
 6511W        W10562   4.195  10.022  11.149 -0.1111 -0.0469  0.1446
 6512W        W10563   4.406   2.163   2.192 -0.1901 -0.0217 -0.1345
 6513W        W10564   4.598   1.899   2.776 -0.0004 -0.3953  0.3068
 6514W        W10565   7.910   6.447   2.308  0.0362 -0.1965 -0.1217
 6515W        W10566   3.795   7.370   1.394  0.0847 -0.1304  0.4601
 6516W        W10567   6.788   1.263   3.099  0.0193 -0.0446 -0.2003
 6517W        W10568   0.291   4.688   3.896  0.0634 -0.2613 -0.1230
 6518W        W10569   6.205   3.963   0.458 -0.4397 -0.0522 -0.0115
 6519W        W10570   8.604   2.493   1.569 -0.0207  0.0513 -0.1293
 6520W        W10571   5.124   1.278  11.200  0.0796 -0.0103 -0.2279
 6521W        W10572   1.943   5.313   4.351 -0.1032  0.2776 -0.1747
 6522W        W10573   5.184   3.729   2.215 -0.0970 -0.3276 -0.0567
 6523W        W10574   6.838   6.616   3.951 -0.2739 -0.5266 -0.2634
 6524W        W10575   6.701   8.735   2.452 -0.1996 -0.0396 -0.0017
 6525W        W10576   8.358   3.205   9.047 -0.0743 -0.2937  0.1548
 6526W        W10577   2.054   2.464   0.415  0.1532 -0.0459  0.2784
 6527W        W10578   1.827   9.905   1.091 -0.3924 -0.0934 -0.2781
 6528W        W10579   9.267   3.679   0.438 -0.1220  0.1466  0.0676
 6529W        W10580   3.278   9.848  13.544 -0.0948 -0.1101 -0.0306
 6530W        W10581   3.678   2.559  10.038 -0.1603 -0.1856  0.0448
 6531W        W10582   1.612   8.034  11.552 -0.2302 -0.0557 -0.0893
 6532W        W10583  10.182   5.783   3.726 -0.0068 -0.0762 -0.1087
 6533W        W10584   1.940   3.025   3.240 -0.1604  0.3613 -0.0117
 6534W        W10585   1.152   8.700   3.109  0.0437  0.0821 -0.0285
 6535W        W10586   2.500   0.966  12.201 -0.3313 -0.0717  0.1389
 6536W        W10587   0.248   3.465  11.815 -0.2369  0.0705 -0.0630
 6537W        W10588   9.035   0.259   0.461  0.2285 -0.4037 -0.0637
 6538W        W10589   6.390   0.436   1.601  0.0587 -0.2871 -0.5208
 6539W        W10590   2.751   7.558   3.325  0.0258  0.2327  0.1420
 6540W        W10591   2.361   4.425  11.418 -0.0908  0.1574  0.0851
 6541W        W10592   8.028   6.908   9.552 -0.0373  0.2593 -0.2071
 6542W        W10593   7.147   5.274  13.518  0.0837  0.0259 -0.1220
 6543W        W10594   6.098   1.941   2.438  0.0353 -0.1802 -0.0949
 6544W        W10595   1.626   2.092  12.590  0.2961 -0.4194  0.3103
 6545W        W10596   4.786   2.063   4.478 -0.0844  0.2586  0.2041
 6546W        W10597   9.754   3.324  13.447  0.0038 -0.4217  0.2611
 6547W        W10598   8.272   7.979  11.802  0.0260  0.0738 -0.0925
 6548W        W10599   6.375   1.543   1.688 -0.4171 -0.3961  0.1913
 6549W        W10600   1.864   3.929   9.809 -0.1359 -0.0756 -0.1611
 6550W        W10601   3.741   4.968   0.277 -0.1581  0.0201 -0.1956
 6551W        W10602   7.190   1.213  10.099  0.0774  0.1875  0.1859
 6552W        W10603   7.107   2.217   9.370  0.3711  0.1612  0.3270
 6553W        W10604   5.985   3.565  10.912 -0.1237 -0.2154  0.1404
 6554W        W10605   0.622   4.597   0.091  0.0029  0.0296  0.1606
 6555W        W10606   6.708   2.592   3.562  0.2241 -0.0865 -0.2044
 6556W        W10607   9.624   2.879  10.257  0.0444  0.1147 -0.1028
 6557W        W10608   7.449   4.879  13.064  0.1114  0.1206 -0.2530
 6558W        W10609   3.987   2.408   2.300 -0.1808  0.0023  0.0688
 6559W        W10610   1.647   8.317   1.431 -0.1673 -0.2315 -0.1404
 6560W        W10611   6.317   1.401  13.840  0.1022  0.4798 -0.0932
 6561W        W10612   2.632   0.845  13.164  0.0051  0.1656 -0.0665
 6562W        W10613   7.063   4.481   2.882 -0.0004 -0.0594  0.2935
 6563W        W10614   8.606   8.222  11.237 -0.0880  0.0659  0.0889
 6564W        W10615   9.062   0.652  10.379 -0.0858 -0.1704 -0.2147
 6565W        W10616   6.553   8.722   3.062 -0.1858  0.1677  0.1108
 6566W        W10617   4.104   7.539   1.872  0.1711  0.4985 -0.0690
 6567W        W10618   0.832   4.931   9.097  0.2208  0.1879  0.0701
 6568W        W10619   0.419   8.340   2.297 -0.1558 -0.3221 -0.0010
 6569W        W10620   2.067   5.912   4.941  0.5686 -0.2014  0.1612
 6570W        W10621   9.625   8.668  10.353 -0.1924  0.3695  0.0197
 6571W        W10622   7.332   1.392   1.827  0.0434 -0.0267 -0.2155
 6572W        W10623   5.380   1.701  12.786 -0.2747  0.0085 -0.0558
 6573W        W10624   0.354   3.709   1.058  0.1327 -0.1333 -0.0635
 6574W        W10625   5.208   9.048  11.178  0.4168  0.0173 -0.1719
 6575W        W10626   2.074   3.572   3.401  0.0124  0.1268 -0.1842
 6576W        W10627   3.947   2.630  12.734 -0.1541 -0.0591 -0.1691
 6577W        W10628   4.141   8.324   4.211  0.1485  0.0770 -0.1047
 6578W        W10629   3.043   1.167  12.909 -0.0657 -0.2806  0.1995
 6579W        W10630   2.060   1.848   4.950  0.3039 -0.0978  0.0137
 6580W        W10631   2.748   5.132  12.559 -0.2413 -0.0749  0.1887
 6581W        W10632   4.109   9.490   3.005 -0.0733 -0.3134 -0.1784
 6582W        W10633   9.560   2.897   0.872 -0.0405 -0.2573  0.1330
 6583W        W10634   3.899   8.012   1.531 -0.1723 -0.4536 -0.2261
 6584W        W10635   7.099   4.950   1.211 -0.3216  0.2782  0.0822
 6585W        W10636   1.888   2.639  11.631 -0.2095  0.2357 -0.0278
 6586W        W10637   2.829   2.304  10.096  0.1790 -0.0740 -0.1865
 6587W        W10638   4.293   5.642  11.902 -0.0163 -0.2053  0.0685
 6588W        W10639   3.191   6.191  10.505  0.2609 -0.3122  0.0234
 6589W        W10640   9.992   5.937  11.575 -0.1126 -0.0093 -0.1547
 6590W        W10641   8.611   9.771  11.702 -0.0550 -0.4433 -0.2293
 6591W        W10642   4.772   1.372  12.136  0.1175 -0.1002  0.4102
 6592W        W10643   2.761   3.524   1.644  0.2084  0.0663  0.0563
 6593W        W10644   6.600   6.088   2.089 -0.3739 -0.0790 -0.2351
 6594W        W10645   0.706   1.535  13.312 -0.3461  0.0029 -0.2612
 6595W        W10646   5.246   2.851   3.282 -0.1788 -0.0934 -0.0273
 6596W        W10647   7.770   1.337  10.278 -0.2034 -0.1604 -0.1220
 6597W        W10648   3.407   4.659  13.942 -0.0252  0.1961 -0.0278
 6598W        W10649   0.607   3.375  12.145  0.0316  0.2790 -0.2772
 6599W        W10650   7.757   6.285  13.797  0.1341  0.2260  0.1840
 6600W        W10651   8.278   8.854   0.306 -0.0458 -0.3116  0.0239
 6601W        W10652   6.617   4.682  10.871 -0.3671  0.0634 -0.0940
 6602W        W10653   8.335   2.454   0.596 -0.0160 -0.0916  0.1181
 6603W        W10654   7.975   5.283  11.991  0.3314  0.1329  0.1615
 6604W        W10655   4.019   1.552   4.099 -0.2687  0.1652  0.2362
 6605W        W10656   0.095   4.988  11.767 -0.0144  0.1708 -0.1499
 6606W        W10657   3.910   9.219   2.603 -0.2989  0.3212  0.1100
 6607W        W10658   3.785   1.814   0.722  0.0594 -0.1127  0.2265
 6608W        W10659   8.904   4.565  13.037  0.0912 -0.3049  0.2885
 6609W        W10660   9.780   8.887   3.078  0.3330  0.0602  0.0490
 6610W        W10661   3.114   7.615  11.118 -0.1492 -0.0555 -0.2426
 6611W        W10662   8.632   4.009   9.842 -0.1365 -0.0804 -0.2661
 6612W        W10663   7.517   7.119  13.833 -0.2984 -0.2010  0.3149
 6613W        W10664   0.782   6.978   2.638 -0.2396 -0.0750  0.0834
 6614W        W10665   3.249   1.649   0.511 -0.2876  0.0609  0.0960
 6615W        W10666   0.307   8.141  12.915  0.0896 -0.1584 -0.4501
 6616W        W10667  10.096   4.533  11.787  0.2131 -0.0576 -0.1269
 6617W        W10668   5.458   9.293   3.833  0.2722 -0.1460 -0.1805
 6618W        W10669   6.418   3.768  11.302  0.4316 -0.0731  0.0253
 6619W        W10670   5.894   2.292   8.548 -0.0090 -0.2512  0.0884
 6620W        W10671   2.567   9.026   4.777  0.1513  0.3458 -0.0949
 6621W        W10672   9.774   7.854  13.583  0.0968 -0.0938 -0.1654
 6622W        W10673   2.225   5.732   2.538  0.0229 -0.0091 -0.2610
 6623W        W10674   3.011   4.260  11.277 -0.0126  0.0795  0.1612
 6624W        W10675   6.242   0.250   3.482 -0.0945  0.2035  0.2627
 6625W        W10676   2.156   1.979  12.672  0.0204  0.0334 -0.0489
 6626W        W10677   8.621   7.220   2.977 -0.1440  0.1612  0.0691
 6627W        W10678   7.942   7.090   0.320 -0.1243 -0.0458  0.1454
 6628W        W10679   4.354   5.110   2.604  0.0832  0.0657 -0.0892
 6629W        W10680   4.323   3.694  13.601 -0.0544 -0.1006 -0.0505
 6630W        W10681   8.916   9.317   1.352  0.0450  0.1096 -0.2349
 6631W        W10682   1.969   4.900  11.519  0.0951 -0.0128  0.0019
 6632W        W10683   0.683   2.369  10.960 -0.1901 -0.0632  0.3495
 6633W        W10684   5.374   1.231   0.912 -0.1234 -0.1900  0.1231
 6634W        W10685   4.010   5.598  13.145  0.1406 -0.1616  0.0661
 6635W        W10686   0.780   7.346   0.477  0.0027 -0.2430  0.0101
 6636W        W10687   4.538   7.422  12.978  0.1051 -0.1327 -0.1341
 6637W        W10688   1.711   9.888  11.563  0.1006 -0.0783 -0.0891
 6638W        W10689   9.778   1.213  12.097  0.1124  0.0362 -0.4221
 6639W        W10690   5.978   0.825  10.263  0.1848  0.3639 -0.4040
 6640W        W10691   3.879   0.005   2.020 -0.1569  0.3617  0.0841
 6641W        W10692   3.181   6.900  13.254 -0.0193  0.0590 -0.0476
 6642W        W10693   0.275   9.702  13.565 -0.0953  0.4912  0.1378
 6643W        W10694   8.728   9.755   1.544 -0.1388  0.1180 -0.0901
 6644W        W10695   1.457   4.620  10.508  0.3504 -0.0194  0.0743
 6645W        W10696   2.673   4.329  13.431 -0.1912 -0.0268  0.2830
 6646W        W10697   7.423   1.691  10.113 -0.0719 -0.0451 -0.1371
 6647W        W10698   5.859   8.763   3.235  0.1737 -0.2885 -0.2034
 6648W        W10699   3.728   4.826   2.916  0.0077 -0.0885  0.0799
 6649W        W10700   4.129   1.324   3.183  0.1593  0.2455 -0.1229
 6650W        W10701   2.452   6.221   9.487 -0.1000  0.2807  0.0409
 6651W        W10702   7.388   2.461  13.433 -0.0736  0.3985 -0.2922
 6652W        W10703   5.232   8.444   3.747  0.0039 -0.1580 -0.0527
 6653W        W10704   0.209   8.505  12.512  0.1187 -0.0414 -0.0014
 6654W        W10705   7.773   7.361  10.073 -0.0087 -0.0470  0.2848
 6655W        W10706   8.574   7.610  10.471 -0.0189  0.0446  0.3299
 6656W        W10707   9.208   2.822   4.178 -0.0184 -0.0446 -0.0884
 6657W        W10708   5.145   9.605   9.665 -0.0391  0.0997 -0.0501
 6658W        W10709   9.253   8.239   2.549 -0.1348 -0.4034 -0.1699
 6659W        W10710   1.918   0.664  10.311 -0.0045  0.1038 -0.3275
 6660W        W10711   3.388   7.154   1.718 -0.2474  0.3265 -0.3073
 6661W        W10712   5.881   3.262  10.511  0.1449 -0.1293 -0.1918
 6662W        W10713   7.795   8.705   0.456  0.1646 -0.0377  0.1755
 6663W        W10714   1.440   6.930  13.306 -0.1463 -0.0431 -0.2390
 6664W        W10715   2.130  10.109  13.160 -0.1173  0.1365 -0.2565
 6665W        W10716   0.674   3.483  13.544 -0.2754  0.0529  0.0611
 6666W        W10717   8.082   1.213   2.757  0.1004 -0.4169  0.3281
 6667W        W10718   1.914   1.942   1.586  0.0605  0.1124 -0.3348
 6668W        W10719   4.750   8.681   2.877 -0.0871 -0.3683 -0.1430
 6669W        W10720   3.645   2.982   9.315  0.1334 -0.1970 -0.0558
 6670W        W10721   9.067   7.330  11.179 -0.0457  0.2197  0.0050
 6671W        W10722   1.245   2.087  12.297 -0.1576  0.0906  0.1578
 6672W        W10723   9.368   0.829  11.916 -0.1415  0.1378 -0.1722
 6673W        W10724   5.554   5.322   5.000  0.2066  0.0421 -0.1527
 6674W        W10725   0.406   7.901  11.523  0.0801  0.0902 -0.0936
 6675W        W10726   1.073   0.688   4.184 -0.2675  0.2613  0.1652
 6676W        W10727   6.815   2.247   1.725 -0.1787  0.1371  0.0109
 6677W        W10728   1.199   0.210   1.716 -0.1065  0.1382  0.0069
 6678W        W10729   4.985   2.958  11.519 -0.3992 -0.1333 -0.2270
 6679W        W10730   5.948   1.655  10.348 -0.1796 -0.0411  0.1459
 6680W        W10731   1.465   0.041  12.727 -0.1006  0.2856  0.0377
 6681W        W10732   5.865   8.933  10.380 -0.3027 -0.0009  0.1139
 6682W        W10733   9.255   1.892  11.220  0.4466  0.1042 -0.2896
 6683W        W10734   1.752   7.164  10.196  0.0443  0.1537 -0.3636
 6684W        W10735   0.276   9.918  10.555  0.1761 -0.3768 -0.0963
 6685W        W10736   3.153   7.594   2.893  0.1175  0.0244 -0.1714
 6686W        W10737   7.241   3.523   8.732  0.0050 -0.0386 -0.2111
 6687W        W10738   2.051   3.675   2.141  0.1847 -0.1011 -0.0778
 6688W        W10739   7.092   1.759   9.695 -0.0476 -0.0396 -0.2508
 6689W        W10740   9.619   8.904   0.946 -0.1861  0.1672  0.0548
 6690W        W10741   2.552   9.154  11.129 -0.0477 -0.2640  0.1790
 6691W        W10742   4.408   6.220   2.018 -0.0318 -0.2782  0.3653
 6692W        W10743   2.121   2.113   1.159  0.1796 -0.1377 -0.0490
 6693W        W10744   7.452   8.963   9.635 -0.0616  0.0047 -0.2820
 6694W        W10745   1.521   6.000  10.404 -0.1881 -0.0392 -0.0895
 6695W        W10746   3.331   1.802   0.989 -0.2207 -0.0084 -0.0107
 6696W        W10747   0.820   3.658   1.187  0.0300 -0.0601  0.1348
 6697W        W10748   7.637   9.636   0.489  0.1239  0.0545 -0.1991
 6698W        W10749   1.310   7.596   2.089 -0.3075 -0.1117  0.2947
 6699W        W10750   8.315   3.117   4.497  0.0436 -0.2108 -0.1518
 6700W        W10751   3.420   4.261  12.831 -0.3403 -0.2592 -0.0521
 6701W        W10752   6.890   1.187  10.514  0.2685  0.2186  0.0229
 6702W        W10753   0.144   9.013  12.960 -0.1167 -0.1113  0.1197
 6703W        W10754   2.290   9.206  12.498 -0.1791  0.1283 -0.0582
 6704W        W10755   8.699   6.617  11.626 -0.0118 -0.0021  0.4552
 6705W        W10756   2.470   7.843  13.719  0.2861  0.1181 -0.0893
 6706W        W10757   6.639   9.004  13.818  0.1973 -0.1845  0.0527
 6707W        W10758   3.401   2.725  13.927  0.0157  0.3582  0.0161
 6708W        W10759   4.060   0.842   0.778  0.3386  0.2146  0.1029
 6709W        W10760   7.755   4.451   1.147  0.2834 -0.1710  0.1450
 6710W        W10761   6.660   8.660   1.107 -0.1095 -0.2126  0.1707
 6711W        W10762   0.706   1.059   1.616  0.1148  0.2154 -0.0404
 6712W        W10763   2.391   8.984  10.187  0.0002  0.1520 -0.0023
 6713W        W10764   9.449   2.296   4.843  0.0879  0.1742  0.2440
 6714W        W10765   5.199   0.250  12.889 -0.1127  0.0527  0.1129
 6715W        W10766   3.173   0.903  13.792  0.1912 -0.2123  0.2223
 6716W        W10767   3.687  10.059   0.776  0.4053  0.0087  0.0520
 6717W        W10768   9.697   9.648  11.343  0.1622  0.0650 -0.0683
 6718W        W10769   6.789   7.206   2.044  0.3227 -0.0746 -0.0502
 6719W        W10770  10.160   1.387   4.340 -0.0515 -0.4027  0.0331
 6720W        W10771   9.035   4.601  12.459  0.1026  0.1802 -0.2638
 6721W        W10772   0.839   5.940  13.193  0.1338 -0.0738 -0.1860
 6722W        W10773   7.136   4.698   4.772 -0.1931  0.1995  0.1237
 6723W        W10774   2.187   6.249  13.707  0.0606 -0.2032 -0.1750
 6724W        W10775   4.118   5.958  11.509  0.3605 -0.1867  0.0649
 6725W        W10776   1.407   5.801   0.713 -0.1340 -0.2627 -0.0913
 6726W        W10777   8.063   2.613   9.760  0.0771  0.0117 -0.1391
 6727W        W10778   9.827   8.007   9.504  0.0266 -0.1833 -0.1313
 6728W        W10779   7.942   1.411   0.556  0.0762 -0.3082  0.0836
 6729W        W10780   3.834   7.188   2.961  0.2070 -0.0657 -0.0695
 6730W        W10781   5.458   6.171  10.436 -0.2468  0.0300 -0.3596
 6731W        W10782   5.572   1.139  11.103  0.3002 -0.1579 -0.0660
 6732W        W10783   5.215   1.055   0.264 -0.1541 -0.0784  0.0134
 6733W        W10784   3.250   5.106  10.257 -0.0487 -0.0037  0.0547
 6734W        W10785   8.908   4.430   3.248 -0.0039  0.0380 -0.2884
 6735W        W10786   4.088   4.769   2.057  0.0713  0.4999 -0.5179
 6736W        W10787   2.611   7.489  11.215  0.1108 -0.2105 -0.2022
 6737W        W10788   3.804   9.350   3.461  0.3202 -0.0850  0.0395
 6738W        W10789   6.934   0.754  13.137  0.0599  0.0170 -0.2414
 6739W        W10790   8.706   0.796   3.295  0.0784  0.1541 -0.0178
 6740W        W10791   2.494   4.648  12.421 -0.0423  0.0859 -0.0778
 6741W        W10792   7.418   7.069   3.579 -0.1713 -0.0242  0.1813
 6742W        W10793   4.902   5.348   1.312 -0.2763 -0.0314 -0.0876
 6743W        W10794   6.102   0.536  13.390 -0.0694 -0.0856 -0.0418
 6744W        W10795   4.231   9.357   1.022  0.0557  0.0469 -0.1841
 6745W        W10796   9.880   0.775  11.720 -0.2376 -0.0353  0.2221
 6746W        W10797   5.952   5.008   9.907 -0.2997  0.0527 -0.0730
 6747W        W10798   6.513   2.027  10.742  0.3224 -0.0705  0.2653
 6748W        W10799   4.597   5.503  12.573  0.2707 -0.0623 -0.0735
 6749W        W10800   5.100   0.739   2.561 -0.1967  0.0745 -0.1701
 6750W        W10801   5.226   7.251   1.138 -0.4768 -0.1316 -0.3355
 6751W        W10802   7.433   8.413   2.087 -0.0482 -0.1901 -0.3997
 6752W        W10803   4.692   9.636  12.965  0.0037 -0.0190  0.1349
 6753W        W10804   1.270   4.907   9.913  0.1214 -0.0975  0.1914
 6754W        W10805   9.231   3.228  13.470 -0.0453 -0.1510 -0.2254
 6755W        W10806   8.611   1.159  10.886 -0.2056  0.0222 -0.1525
 6756W        W10807   6.530   8.360  11.939  0.1886 -0.1554  0.0595
 6757W        W10808   0.671   2.236   1.220 -0.1539  0.1774  0.0505
 6758W        W10809   4.472   7.887  11.202  0.0408 -0.0587  0.1620
 6759W        W10810   6.385   3.649   1.242  0.0352  0.0983  0.0588
 6760W        W10811   1.706   7.103   9.727  0.1532 -0.2449  0.1940
 6761W        W10812   0.325   3.843   0.222  0.2780 -0.1443  0.0887
 6762W        W10813   5.772  10.011   0.061 -0.2201 -0.0688 -0.0441
 6763W        W10814   5.840   6.130   9.502 -0.1999  0.2042  0.1824
 6764W        W10815   1.089   0.363   2.683 -0.0885  0.4091 -0.1584
 6765W        W10816   9.040   2.376   0.170  0.1933 -0.2521  0.1482
 6766W        W10817   8.551   7.926   1.040 -0.0092  0.2175 -0.2947
 6767W        W10818   2.109   1.524   1.701 -0.1884 -0.0577 -0.0457
 6768W        W10819   5.051   7.915  10.018  0.2880  0.1773 -0.2095
 6769W        W10820   7.118   2.708  11.018 -0.0654  0.0127  0.4174
 6770W        W10821   8.835   1.343   0.442 -0.0713  0.2011  0.2742
 6771W        W10822   3.150   9.551   0.081  0.3979  0.2716 -0.3483
 6772W        W10823   1.441   6.778  10.257 -0.0175  0.4386  0.0604
 6773W        W10824   4.799   7.869  12.568  0.1763  0.0733  0.2113
 6774W        W10825   2.300   8.473   2.537  0.1319 -0.2500  0.1732
 6775W        W10826   7.480   1.854   8.517  0.0060 -0.1842 -0.0150
 6776W        W10827   1.136   1.483   9.443 -0.0916  0.0571  0.0252
 6777W        W10828   1.635   5.421   3.731 -0.0242  0.0868 -0.1125
 6778W        W10829   2.923   9.896   9.738 -0.3463  0.2048 -0.2808
 6779W        W10830   0.687   1.003   4.298 -0.1125  0.0434 -0.3476
 6780W        W10831   3.934   4.494   9.592  0.0938 -0.0102  0.0739
 6781W        W10832   8.206   0.796   2.338 -0.0845 -0.2620 -0.2322
 6782W        W10833   2.381   3.275   0.901  0.4918  0.2024 -0.0002
 6783W        W10834   3.788   0.449   2.750 -0.0084  0.1910  0.3206
 6784W        W10835   4.957   4.267  10.386 -0.0549 -0.1503  0.1389
 6785W        W10836   2.711   9.481  12.331 -0.1162 -0.6629  0.3915
 6786W        W10837   6.257   6.297   9.147  0.1687  0.2103  0.0527
 6787W        W10838   7.136   1.800   2.632 -0.0739 -0.2003 -0.1958
 6788W        W10839   8.479   6.185   9.404  0.1581  0.1198 -0.0079
 6789W        W10840   1.316   1.673  11.989  0.0855  0.0289 -0.1664
 6790W        W10841   3.467   2.072   3.475 -0.0902  0.0533  0.1721
 6791W        W10842   7.105   6.687  12.606 -0.0957  0.0789 -0.2424
 6792W        W10843   7.749   1.866  10.442  0.0429 -0.0364 -0.0050
 6793W        W10844   4.624   5.350   0.813  0.0033 -0.0100  0.0365
 6794W        W10845   2.801   0.777  12.570  0.0626  0.1505  0.0493
 6795W        W10846   9.936   5.843  12.823  0.1310 -0.0410 -0.0375
 6796W        W10847   4.887   8.007   5.074 -0.1437 -0.0791 -0.0284
 6797W        W10848   2.565   2.178  13.881 -0.0573 -0.0278 -0.1604
 6798W        W10849   2.117   4.472  12.791 -0.4302 -0.0817  0.2167
 6799W        W10850   0.887   1.628   4.319 -0.1765 -0.3148 -0.0733
 6800W        W10851   6.150   0.672   2.021  0.0427 -0.0450  0.0341
 6801W        W10852   3.379   3.733   5.098  0.0553  0.1085  0.0670
 6802W        W10853   1.540   4.789  11.808  0.0889  0.0891  0.1456
 6803W        W10854   6.187   9.222  12.933  0.0304 -0.2461  0.2850
 6804W        W10855   4.664   0.131   4.378  0.0727 -0.1011 -0.1510
 6805W        W10856   7.795   9.173  12.012  0.1861 -0.0424 -0.1619
 6806W        W10857   4.763   8.277  11.302  0.2194 -0.1424 -0.3355
 6807W        W10858   4.020   7.492   9.110 -0.0851  0.2455  0.0733
 6808W        W10859   6.330   9.134  10.748  0.1506  0.2478 -0.1419
 6809W        W10860   7.763   8.843  12.417 -0.1082 -0.1639 -0.0506
 6810W        W10861   0.714   2.457   3.011 -0.1097 -0.2414  0.1121
 6811W        W10862   5.822   4.444   2.486 -0.2144  0.0118 -0.2341
 6812W        W10863   3.630   8.831  13.565 -0.0914  0.1335 -0.3092
 6813W        W10864   4.362   2.996  12.888 -0.1334  0.3003  0.0094
 6814W        W10865   5.183   3.472  12.242 -0.0681 -0.0411  0.0367
 6815W        W10866   2.042   6.941  12.270 -0.3535 -0.1368  0.1843
 6816W        W10867   7.837   6.703   1.486  0.3164 -0.2205  0.2932
 6817W        W10868   4.332   2.512   1.836  0.2327  0.1430 -0.2258
 6818W        W10869   4.667   5.150  10.555  0.0665  0.3515  0.0782
 6819W        W10870   2.490   9.768  11.905  0.2480  0.0349  0.1127
 6820W        W10871   8.228   5.394  10.140  0.0119 -0.1100  0.1830
 6821W        W10872   2.340   8.977   2.308 -0.1929  0.2872  0.0531
 6822W        W10873   2.171   5.544   3.512  0.0534  0.1157  0.0423
 6823W        W10874   2.702   5.006  13.062  0.0655 -0.0898 -0.4003
 6824W        W10875   1.918  10.000  12.700 -0.3022  0.1084  0.1473
 6825W        W10876   4.746   3.883   9.871  0.0614 -0.1620  0.0468
 6826W        W10877   8.542   4.446   0.302 -0.2439  0.2544 -0.1623
 6827W        W10878   2.658   8.246   2.330 -0.0865 -0.1529  0.3162
 6828W        W10879   9.352   1.572  10.824 -0.1808  0.1819 -0.0041
 6829W        W10880   3.069   6.625   9.766 -0.2918 -0.2603  0.1513
 6830W        W10881   8.454   1.330   9.378  0.0410  0.0291  0.0326
 6831W        W10882   5.155   6.290   0.150 -0.0968  0.1254 -0.3687
 6832W        W10883   3.254   4.470   1.688  0.0573  0.0520  0.1271
 6833W        W10884   9.867   4.046   2.434 -0.0166  0.0544 -0.2969
 6834W        W10885   5.203   4.174  13.438 -0.5459 -0.0726 -0.1162
 6835W        W10886   9.546   6.876   2.874  0.3888 -0.1950 -0.1549
 6836W        W10887   2.124   9.035  10.604  0.3234  0.4374  0.1909
 6837W        W10888   0.576   6.905  12.264  0.0633  0.1837 -0.0222
 6838W        W10889   1.488   5.495   2.971  0.1913  0.1425 -0.1888
 6839W        W10890   9.671   1.375  12.975  0.2227  0.0698  0.2173
 6840W        W10891   0.129   2.183   9.309  0.1206  0.0651 -0.0701
 6841W        W10892   3.663   5.813  11.323  0.2090  0.4728  0.1531
 6842W        W10893   2.646   7.436   3.790 -0.0240 -0.0127 -0.1654
 6843W        W10894   3.952   6.457   1.798 -0.3265 -0.0455 -0.1026
 6844W        W10895   0.006   4.587  13.550 -0.3941 -0.3159  0.3844
 6845W        W10896   3.587   2.403   9.398 -0.0283  0.1056 -0.0780
 6846W        W10897   4.852  10.038   9.606  0.1326  0.0146 -0.0672
 6847W        W10898   1.789   7.595   3.779  0.2166 -0.0077 -0.0760
 6848W        W10899   0.798   2.971   4.051  0.0027 -0.0486  0.1788
 6849W        W10900   8.633   3.716   1.994 -0.1568  0.3498  0.0635
 6850W        W10901   2.804   8.053   3.207  0.1170 -0.0515 -0.0986
 6851W        W10902   5.394   3.420   0.097  0.4131  0.1788  0.0415
 6852W        W10903   8.508   5.480  13.208  0.2048  0.0497 -0.1263
 6853W        W10904   2.802   3.539   8.984  0.2247 -0.0756 -0.2967
 6854W        W10905   4.949   6.115   9.608  0.1708  0.0625  0.2556
 6855W        W10906   7.864   9.702  12.451 -0.0408 -0.1637 -0.0039
 6856W        W10907   1.231   4.978   0.639 -0.4152  0.0404  0.1490
 6857W        W10908   8.531   6.268  12.584  0.0348 -0.1597 -0.1091
 6858W        W10909   1.534   7.312   3.398  0.2317 -0.0253 -0.0152
 6859W        W10910   4.517   6.461   9.638 -0.0553 -0.2203  0.2089
 6860W        W10911   2.933   7.112   6.055 -0.1536 -0.1482 -0.0300
 6861W        W10912   7.792   8.139  10.636  0.0186 -0.0666 -0.2917
 6862W        W10913   2.937   2.425  11.753 -0.0899  0.1063 -0.1657
 6863W        W10914   3.998   7.829  11.206 -0.0216  0.1561 -0.0518
 6864W        W10915   5.611   8.790  13.756  0.2248  0.1273 -0.0084
 6865W        W10916   4.826   3.123   3.400 -0.1047 -0.2433 -0.2558
 6866W        W10917   8.522   3.608  11.492  0.0850 -0.1285  0.1336
 6867W        W10918   4.768   0.564  10.370 -0.1961  0.4471 -0.0313
 6868W        W10919   2.435   5.349   9.642  0.0559  0.3107 -0.1007
 6869W        W10920   7.419   9.109  13.388 -0.0355 -0.1310 -0.4357
 6870W        W10921   2.648  10.155   1.509  0.0067 -0.2630  0.2932
 6871W        W10922   1.676   7.813   4.245 -0.0780  0.0559  0.1386
 6872W        W10923   7.024   5.651  12.969 -0.1747 -0.1699 -0.0973
 6873W        W10924   9.358   3.498  10.959  0.0210  0.1117  0.1776
 6874W        W10925   4.484   6.777   8.737 -0.2835 -0.0619  0.0626
 6875W        W10926  10.039   4.019   0.851  0.2327 -0.2306  0.1144
 6876W        W10927   2.100   8.231   1.717  0.1119  0.2401 -0.0617
 6877W        W10928   5.847   6.341   4.135  0.2834 -0.0664  0.0354
 6878W        W10929   9.037   0.951   4.162 -0.4265 -0.2500  0.2660
 6879W        W10930   4.381   7.030   0.899 -0.3306  0.0714 -0.0677
 6880W        W10931   0.679   8.026  10.687 -0.4987  0.0253  0.1154
 6881W        W10932   1.361  10.103   2.799 -0.2552  0.4855 -0.2332
 6882W        W10933   3.082   9.338   0.906 -0.0954 -0.3525 -0.2634
 6883W        W10934   0.772   1.877   0.404 -0.0496  0.0771 -0.1348
 6884W        W10935   1.968   0.368   4.807 -0.0430 -0.0969 -0.1618
 6885W        W10936   2.342   0.379  10.477  0.3473  0.1001 -0.4965
 6886W        W10937   2.169   1.084  11.843  0.0436 -0.0018 -0.0591
 6887W        W10938   0.117   6.543   3.486 -0.0853 -0.4345 -0.1587
 6888W        W10939   7.572   8.004   3.390  0.0658  0.1057  0.1802
 6889W        W10940   3.753   1.519   1.157  0.0895 -0.2350  0.0294
 6890W        W10941   9.992   0.859   1.486  0.0351 -0.2708  0.0458
 6891W        W10942   1.952   4.679   5.291 -0.0804  0.1904 -0.2936
 6892W        W10943   9.969   2.420  12.670 -0.1146 -0.0699 -0.0998
 6893W        W10944   5.551   4.658   2.070  0.0659 -0.2776 -0.0594
 6894W        W10945   9.266   6.246   8.903 -0.0996 -0.0802 -0.1159
 6895W        W10946   1.738   5.462   1.065  0.0058 -0.1515 -0.2276
 6896W        W10947   9.587   0.363  11.685 -0.2632 -0.1169 -0.2091
 6897W        W10948   8.226   4.880   4.218  0.1072  0.0032  0.1517
 6898W        W10949   2.953   3.680   5.408 -0.2393 -0.0882 -0.3212
 6899W        W10950   7.811   3.383   0.053  0.0665  0.1314 -0.0388
 6900W        W10951   9.922   6.190   3.920  0.2076  0.0432  0.0805
 6901W        W10952   4.436   1.896   4.775 -0.0737 -0.0083 -0.2605
 6902W        W10953   5.434   9.590  12.533 -0.4495 -0.0779  0.1671
 6903W        W10954   5.982   3.388  11.846  0.0909  0.1301  0.0635
 6904W        W10955   3.569   7.425   8.859 -0.1682 -0.1915 -0.1536
 6905W        W10956   1.697   1.896   3.987  0.2511 -0.1866  0.0660
 6906W        W10957   9.993   5.512   3.349 -0.1362  0.0232 -0.0312
 6907W        W10958   2.205   4.302   9.713  0.1527 -0.1897 -0.4937
 6908W        W10959   3.669  10.106  13.813  0.3122  0.0626  0.2499
 6909W        W10960   2.239   1.141  13.276 -0.4750 -0.2780  0.2116
 6910W        W10961   4.980   2.968  10.362 -0.3772  0.0618 -0.0804
 6911W        W10962   3.752   6.251   4.979  0.1826 -0.0324  0.0433
 6912W        W10963   1.851   6.536   4.967  0.2819 -0.0434  0.0365
 6913W        W10964   8.548   6.573   1.677  0.1091 -0.0486 -0.3051
 6914W        W10965   2.233   6.309  10.617  0.3403 -0.1570 -0.0341
 6915W        W10966   5.656   4.254   9.752  0.0716  0.1538 -0.2116
 6916W        W10967   8.421   3.027   3.081  0.1606  0.3035 -0.1664
 6917W        W10968   1.209   0.085   0.039 -0.2118  0.2663  0.0194
 6918W        W10969   1.122   3.643   0.765  0.0398 -0.1115  0.0100
 6919W        W10970   4.005   1.345   0.794 -0.2253 -0.1728  0.0426
 6920W        W10971   3.641   4.092   4.867 -0.1342 -0.1736  0.1732
 6921W        W10972   6.986   0.421   2.523  0.1545  0.1843  0.1669
 6922W        W10973   1.708   7.462   5.136  0.1626  0.0174  0.0580
 6923W        W10974   7.106   5.556  11.261  0.2885 -0.1673  0.5116
 6924W        W10975   3.070   3.745  10.669 -0.3549 -0.1439 -0.2948
 6925W        W10976   1.411   3.967   5.433  0.3212  0.1434  0.0310
 6926W        W10977   0.205   2.409   5.484 -0.0930 -0.0767  0.1635
 6927W        W10978   5.576   3.902  10.797 -0.0198  0.3291 -0.3503
 6928W        W10979   3.850   3.953  11.339  0.4385 -0.0341  0.0248
 6929W        W10980   4.041   4.448   4.645 -0.3669  0.1430 -0.1648
 6930W        W10981   7.477   7.065   1.540 -0.1173 -0.1574  0.1752
 6931W        W10982   7.490   5.795   2.801  0.1796 -0.0551  0.1536
 6932W        W10983   4.783   9.391   1.190 -0.0644 -0.0201  0.0194
 6933W        W10984   7.663   3.487  12.806  0.0608 -0.1252  0.0099
 6934W        W10985   1.632   6.078   5.104 -0.0767 -0.1992  0.2633
 6935W        W10986  10.131   2.799   2.990  0.3199 -0.1702  0.1578
 6936W        W10987   5.611   0.532   2.502  0.1699  0.2885 -0.2034
 6937W        W10988   7.435   6.827  10.972 -0.1876  0.2452  0.1351
 6938W        W10989   0.334   2.368  11.761 -0.1566 -0.0047 -0.1652
 6939W        W10990   9.684   6.381   1.140  0.1499  0.0672  0.1959
 6940W        W10991   5.909   4.112   4.370  0.0330 -0.1099 -0.0816
 6941W        W10992   5.532   1.716   9.643 -0.1004 -0.2709  0.1146
 6942W        W10993   1.062   1.422   0.612  0.3114 -0.0577  0.1743
 6943W        W10994   9.227  10.130   3.324 -0.0701  0.0449  0.0631
 6944W        W10995   5.818   3.230   8.654  0.0122 -0.0525 -0.0996
 6945W        W10996   1.524   1.127   0.787  0.2169 -0.1803  0.0180
 6946W        W10997   3.573   3.893   9.613 -0.0735  0.1429  0.3380
 6947W        W10998   0.362   3.301  11.222 -0.1569 -0.1653  0.2313
 6948W        W10999   6.833   5.088  11.058 -0.1606 -0.2975 -0.1327
 6949W        W11000   0.954   3.375   0.399  0.2207  0.2065  0.1046
 6950W        W11001   9.460   6.014   0.520  0.2049 -0.1440  0.3155
 6951W        W11002   3.862   2.717  12.117 -0.1845  0.1986  0.2866
 6952W        W11003   1.805   0.285   3.153 -0.2306  0.3108  0.0903
 6953W        W11004   3.507   1.030   5.028  0.0410 -0.0049 -0.4209
 6954W        W11005   5.097   7.801   1.115  0.1720  0.1231  0.0283
 6955W        W11006   4.521   1.001   0.668 -0.0713 -0.0740  0.0500
 6956W        W11007   7.313   1.218   3.587  0.2056 -0.0135 -0.3536
 6957W        W11008   7.871   3.852   0.188  0.0442  0.1036 -0.0479
 6958W        W11009   5.085   5.277  10.178  0.1286 -0.3531 -0.0541
 6959W        W11010   2.976   8.632  11.456 -0.0777 -0.3843 -0.1703
 6960W        W11011   9.088   5.826   0.821 -0.4724  0.1787 -0.0156
 6961W        W11012   6.271   3.884   3.691  0.1772  0.0995  0.0723
 6962W        W11013   1.589   1.305   0.223  0.2661  0.0381  0.2375
 6963W        W11014   8.606   0.932  10.469  0.1717  0.0675  0.1901
 6964W        W11015   3.240   6.576  12.375  0.1233 -0.1147 -0.1583
 6965W        W11016   3.388   0.157   2.758 -0.0546  0.0239  0.2086
 6966W        W11017   3.268   1.725   3.145 -0.0972  0.2444 -0.0460
 6967W        W11018   7.934   0.048   0.126  0.0004 -0.2515  0.0791
 6968W        W11019   7.892   0.844   2.964 -0.3448  0.2736  0.0744
 6969W        W11020   7.684   9.683   1.769  0.1633 -0.1946 -0.0476
 6970W        W11021   2.757   8.809   0.714  0.2038  0.1412  0.2863
 6971W        W11022  10.130   9.607  10.455  0.1090  0.2525 -0.3704
 6972W        W11023   6.211   3.954   1.882  0.1873  0.1474 -0.0008
 6973W        W11024   7.008   8.948   2.802 -0.2115 -0.3755  0.1235
 6974W        W11025   9.414   6.634   0.752 -0.2116 -0.1961  0.1676
 6975W        W11026   0.063   0.155   0.762 -0.0191 -0.1767 -0.1431
 6976W        W11027   8.810   5.495   4.142  0.2136  0.3660 -0.1410
 6977W        W11028   2.610   2.668   2.887  0.1051  0.0961  0.2911
 6978W        W11029   2.698   0.298  13.000 -0.0519  0.0570 -0.4546
 6979W        W11030   1.985   2.266  13.961 -0.0010  0.2107  0.2114
 6980W        W11031   0.736   1.162   0.169  0.0762 -0.3060 -0.0572
 6981W        W11032   3.817   3.932  13.509  0.0344 -0.0919 -0.0770
 6982W        W11033   0.597   5.934  13.919  0.0201 -0.1870 -0.0618
 6983W        W11034   1.362   9.815   1.747  0.0166 -0.0036 -0.0460
 6984W        W11035   7.227   9.693   9.342  0.0696 -0.1272  0.0652
 6985W        W11036  10.083   3.217   1.251 -0.0944 -0.0854 -0.1470
 6986W        W11037   1.302   8.472   0.505  0.0419  0.1195  0.0313
 6987W        W11038   1.905   1.262   4.716 -0.5006  0.2876 -0.1847
 6988W        W11039   0.576   6.539   2.676  0.1148  0.2771 -0.5769
 6989W        W11040   5.281   5.768   4.015  0.2093  0.0085  0.1600
 6990W        W11041   3.932   2.205   3.134  0.2112  0.3659  0.0458
 6991W        W11042   5.870   2.425   2.208  0.2057 -0.0708  0.0786
 6992W        W11043   6.729   5.280   2.445 -0.1996 -0.1566 -0.0260
 6993W        W11044   8.787   6.687  12.752  0.0159  0.1722 -0.2296
 6994W        W11045   1.148   3.534   9.670  0.1043  0.0021 -0.1214
 6995W        W11046   8.284   2.643  13.756  0.0175  0.0530 -0.2047
 6996W        W11047   2.772   2.303  11.153 -0.1440  0.1455 -0.0650
 6997W        W11048   1.349   1.083   9.650 -0.0366 -0.1649  0.1597
 6998W        W11049   2.279   2.676  10.106  0.0352  0.3442  0.0270
 6999W        W11050   3.222   3.271   4.093 -0.4167  0.1973  0.3647
 7000W        W11051   2.802   6.237   4.525 -0.2120 -0.1439  0.3836
 7001W        W11052   5.018   5.237  11.693  0.1407 -0.1010 -0.1242
 7002W        W11053   1.936   1.963  10.609 -0.1964 -0.1665 -0.3369
 7003W        W11054   0.912   0.357   9.323 -0.4304  0.3072  0.0215
 7004W        W11055   4.313   0.162   3.539 -0.1587  0.2432 -0.1135
 7005W        W11056   3.507   4.343  11.202  0.0964  0.0798  0.0972
 7006W        W11057   0.561   3.640   2.816  0.3357 -0.2456 -0.0484
 7007W        W11058   7.236   0.458  11.877  0.1039 -0.0790  0.1772
 7008W        W11059   4.506   9.940  13.411  0.2950  0.2649  0.0590
 7009W        W11060   5.466   4.724   2.585  0.1319 -0.3251 -0.0248
 7010W        W11061   0.486   1.691  12.935  0.2076  0.2822  0.1337
 7011W        W11062   7.234  10.170   9.355 -0.2316  0.1284 -0.2053
 7012W        W11063   4.831   1.690  12.605  0.0503  0.1783  0.0760
 7013W        W11064   3.520   0.559   4.632  0.1171 -0.1142 -0.2525
 7014W        W11065   7.045   0.127   9.876  0.1399 -0.1788  0.1692
 7015W        W11066   5.972   7.623  12.933  0.0355 -0.2226  0.1254
 7016W        W11067   1.462   7.474  10.736 -0.0309  0.0896 -0.0250
 7017W        W11068   4.385   0.250  13.438 -0.1530  0.0434  0.1810
 7018W        W11069   4.188   8.610  10.459  0.0116  0.0701  0.1756
 7019W        W11070   0.548   2.243   2.531 -0.0246 -0.0742 -0.0091
 7020W        W11071   2.904   0.290  12.507  0.2707 -0.1965  0.1975
 7021W        W11072   3.349   3.072   3.286 -0.4698 -0.0984 -0.1399
 7022W        W11073   9.666   0.792   2.279  0.0490  0.2923 -0.3049
 7023W        W11074   2.516   2.264   5.100  0.3917 -0.5845  0.1461
 7024W        W11075   1.470   4.938  13.603  0.0416 -0.6396 -0.0160
 7025W        W11076   2.798   9.974  12.675 -0.1802 -0.1321  0.1230
 7026W        W11077   4.403   1.235  13.555 -0.0240  0.2866  0.0005
 7027W        W11078   7.743   9.749  13.428  0.1109  0.0748  0.2670
 7028W        W11079   0.381   1.901   8.979 -0.1158 -0.1947 -0.2960
 7029W        W11080   6.453   8.964   1.473  0.1030 -0.1453  0.1830
 7030W        W11081   4.701   3.465   2.238  0.1184  0.1546 -0.0918
 7031W        W11082   5.320   0.002   0.127 -0.3315 -0.2119 -0.0521
 7032W        W11083   3.906   2.943   4.560 -0.1006  0.2137  0.0750
 7033W        W11084   2.805   6.409  12.092 -0.3469  0.1761  0.3953
 7034W        W11085   6.217   8.640  10.559 -0.1484 -0.0646  0.4171
 7035W        W11086   1.556   8.435  13.200 -0.2101  0.2639 -0.0330
 7036W        W11087   9.492   0.808   1.531  0.0733  0.1463  0.1690
 7037W        W11088   8.180   1.071  12.835  0.0982  0.1874  0.0786
 7038W        W11089   5.187   6.018  10.981 -0.2365 -0.0131 -0.2231
 7039W        W11090   4.756   3.932   2.015 -0.0578 -0.0149  0.0670
 7040W        W11091   3.787   4.372   4.222  0.0193  0.0701 -0.2133
 7041W        W11092   9.733   6.773  11.658 -0.0420 -0.0241  0.1106
 7042W        W11093   7.394   3.031   2.768 -0.1827 -0.5285  0.0657
 7043W        W11094   4.028   4.357  12.260 -0.0267 -0.1254  0.3257
 7044W        W11095   9.697   1.999   3.128  0.2904  0.0865 -0.1213
 7045W        W11096   1.509   0.710  10.715 -0.1876 -0.2457  0.1512
 7046W        W11097   9.354   6.506   2.506  0.4373 -0.0864 -0.3298
 7047W        W11098   4.401   4.200  10.187  0.1185  0.0771  0.0427
 7048W        W11099   5.540   0.009   4.554 -0.1233  0.0532 -0.4032
 7049W        W11100   3.645   6.691  12.003 -0.3003  0.1437  0.0476
 7050W        W11101   9.123   1.886   0.288 -0.2209 -0.0279 -0.1410
 7051W        W11102   8.397   6.856  11.910  0.2302  0.2435 -0.2435
 7052W        W11103   7.425   3.987  13.818  0.2003 -0.4314  0.1389
 7053W        W11104   3.007   4.603  12.627 -0.0867  0.0241  0.0360
 7054W        W11105   8.309   2.327   4.226  0.1757  0.1213 -0.1736
 7055W        W11106  10.084   7.544  12.324 -0.2904  0.0161  0.0777
 7056W        W11107   2.741   2.400   1.293 -0.0462 -0.0268 -0.0274
 7057W        W11108   7.417   6.165  11.077 -0.1733 -0.0076  0.2310
 7058W        W11109   7.705   2.660  10.214 -0.0330 -0.1828  0.1318
 7059W        W11110   8.413   9.287  11.766 -0.0590 -0.1495 -0.1539
 7060W        W11111   4.385   6.268   1.063 -0.0106 -0.1211 -0.2727
 7061W        W11112   3.370   7.369  10.348  0.0584  0.0848 -0.3959
 7062W        W11113   3.523   4.013   4.379 -0.3546  0.3423 -0.2384
 7063W        W11114   4.359   6.005   3.504 -0.2762  0.1723  0.0515
 7064W        W11115   3.514   3.028  11.378  0.1339 -0.0366  0.1188
 7065W        W11116   8.726   6.504   2.482  0.1421 -0.0016 -0.2003
 7066W        W11117   6.972   6.221   8.967  0.0930  0.1198 -0.0834
 7067W        W11118   7.452   4.322  13.388 -0.3413  0.0242 -0.0020
 7068W        W11119   8.195   4.846   3.673  0.3087  0.3005 -0.0327
 7069W        W11120  10.007   6.750   2.985 -0.1256 -0.0334  0.1735
 7070W        W11121   9.713   4.790  13.324 -0.0392 -0.1682 -0.1128
 7071W        W11122   2.148   2.364   4.334 -0.2963  0.0222  0.3035
 7072W        W11123   6.764   9.652  11.756  0.1979 -0.2696 -0.3223
 7073W        W11124   3.968   8.684   2.572 -0.1911  0.2917 -0.0791
 7074W        W11125   1.393   3.141  11.020 -0.0277 -0.1325  0.0734
 7075W        W11126   2.718   1.690  12.914 -0.0383  0.0819 -0.3042
 7076W        W11127   3.332   4.941   2.656 -0.0923 -0.0227 -0.1382
 7077W        W11128   8.743  10.110  10.791 -0.0730  0.1409  0.4556
 7078W        W11129   2.315   7.354   9.942 -0.1439 -0.0480 -0.3257
 7079W        W11130   4.555   8.305  10.799  0.1193  0.2327  0.0170
 7080W        W11131   1.003   7.513   3.282  0.1146 -0.1254 -0.3468
 7081W        W11132   1.283   6.288  12.502 -0.4004  0.1632  0.2091
 7082W        W11133   5.611   1.459   5.193 -0.0224 -0.0552  0.0159
 7083W        W11134   2.973   0.492   4.696 -0.3005  0.4086 -0.0931
 7084W        W11135   6.280   2.931   4.205 -0.0415  0.0467 -0.0913
 7085W        W11136  10.176   7.870  10.512  0.2120  0.0363 -0.2884
 7086W        W11137   6.014   4.579   9.560  0.0040 -0.2365  0.2045
 7087W        W11138   9.992   8.552  11.138 -0.2581 -0.1782  0.1128
 7088W        W11139   6.628   2.961   2.461 -0.0875 -0.1467  0.0469
 7089W        W11140   7.913   8.281  11.629 -0.3390 -0.4101 -0.0012
 7090W        W11141   8.558   7.053  13.679  0.1158  0.2531  0.1268
 7091W        W11142   2.544   3.138   2.652 -0.1923  0.2142  0.1079
 7092W        W11143   1.114   2.264   0.231  0.2340  0.0954  0.0901
 7093W        W11144   2.980   8.845  12.751  0.1019  0.0040 -0.4926
 7094W        W11145   6.903   7.034  12.084 -0.0775  0.1194 -0.0437
 7095W        W11146   0.638   5.630   3.090 -0.3525 -0.2290 -0.2763
 7096W        W11147   3.103   2.769   2.925  0.1500  0.1465 -0.0030
 7097W        W11148   0.854   4.640   2.038  0.1093 -0.1478  0.1163
 7098W        W11149   9.429   1.593   3.073  0.2367 -0.4369 -0.0938
 7099W        W11150   4.209   3.456  12.250  0.0673 -0.0340  0.0151
 7100W        W11151   1.937   4.180   3.552  0.1887 -0.1773  0.2706
 7101W        W11152   4.826   8.657  12.660  0.0514 -0.4385 -0.2447
 7102W        W11153   7.150   3.668   2.143  0.0499  0.0480  0.0472
 7103W        W11154   7.268   5.711  13.974  0.0576  0.3145 -0.1107
 7104W        W11155   2.208   5.545  13.766 -0.0512  0.1051 -0.0766
 7105W        W11156   6.010   0.218  13.747 -0.2656 -0.2215 -0.1207
 7106W        W11157   4.272   1.633  13.285 -0.1878 -0.1153  0.0084
 7107W        W11158   1.139   3.856   3.024  0.0784  0.2674 -0.0867
 7108W        W11159   7.643   7.526   3.426 -0.1428 -0.0194 -0.0183
 7109W        W11160   2.097   4.488   4.664  0.2113  0.0015  0.1768
 7110W        W11161   9.386   6.077  11.628  0.2095  0.0096 -0.0695
 7111W        W11162   7.213   0.634   3.012 -0.1490  0.1789 -0.1992
 7112W        W11163   2.958   5.010  13.846  0.0061  0.0267 -0.2335
 7113W        W11164   7.519   2.921   0.081  0.0504  0.0880 -0.1564
 7114W        W11165   3.909   1.907  13.953 -0.0416  0.1881  0.0201
 7115W        W11166   8.087   2.580   1.427 -0.5833 -0.1583 -0.2100
 7116W        W11167   2.304   6.953   2.078 -0.0771  0.0202  0.2189
 7117W        W11168   5.193   0.282  10.477  0.0120 -0.1325  0.0908
 7118W        W11169   7.715   8.488   3.234  0.0084  0.2231  0.1947
 7119W        W11170   8.656   0.007  12.629  0.0701  0.2958  0.1075
 7120W        W11171   0.753   6.045  10.039  0.2179 -0.0625 -0.4424
 7121W        W11172   3.306   8.425  10.195 -0.3250 -0.2241  0.1392
 7122W        W11173   6.149   2.066  13.234  0.0233  0.0022  0.2784
 7123W        W11174   1.583   2.095   2.868 -0.0500  0.0270 -0.1362
 7124W        W11175   9.836   6.652   3.673 -0.1004 -0.1760 -0.0880
 7125W        W11176   4.259   8.409   3.051  0.1044 -0.2727 -0.2649
 7126W        W11177   7.324   4.687  13.768 -0.1158  0.0891 -0.1003
 7127W        W11178   9.079   6.624  13.479  0.3732  0.1205  0.2731
 7128W        W11179   5.529   4.901   9.554 -0.0553  0.1267  0.0049
 7129W        W11180   6.545   8.030   2.207  0.0826  0.1207  0.0901
 7130W        W11181   6.287   7.739   9.794  0.2385  0.0108  0.2585
 7131W        W11182   6.726   1.255   3.600 -0.0895  0.0460  0.0813
 7132W        W11183   4.215   8.276   1.250 -0.0372  0.0230  0.0729
 7133W        W11184  10.057   3.488  10.810  0.0093 -0.0472 -0.1584
 7134W        W11185   3.117   6.362  11.552 -0.2515 -0.1251  0.1902
 7135W        W11186   6.742   1.476  12.589 -0.2192  0.0827  0.0182
 7136W        W11187   1.567   4.179  10.277 -0.1589  0.1419 -0.0248
 7137W        W11188   6.673   7.834  13.250 -0.1892 -0.1711 -0.1699
 7138W        W11189   0.143   3.430   4.568 -0.0011  0.0416 -0.0133
 7139W        W11190   1.304   9.045   0.477 -0.1055  0.0597 -0.0212
 7140W        W11191   7.885   2.626   2.542 -0.0612 -0.0938 -0.2202
 7141W        W11192   3.230   3.592   0.684 -0.0142 -0.0537  0.0278
 7142W        W11193   1.058   3.086   2.338  0.0070 -0.3249 -0.1513
 7143W        W11194  10.074   0.605   3.366 -0.0712  0.2608  0.0157
 7144W        W11195   1.297   0.578  11.122  0.1797 -0.1710  0.2226
 7145W        W11196   3.420   0.463  13.848  0.1860 -0.0036 -0.1043
 7146W        W11197   2.139   3.070   1.305  0.1889  0.1441  0.0351
 7147W        W11198   7.849   0.063  10.197  0.0287  0.0531 -0.0294
 7148W        W11199   9.540   4.653  13.761  0.1079  0.0426  0.0093
 7149W        W11200   2.113   3.208   2.271 -0.0006  0.1208 -0.2634
 7150W        W11201   6.082   2.583   3.790  0.2681  0.0958  0.1810
 7151W        W11202   5.979   2.743  10.743 -0.1514 -0.1042 -0.2405
 7152W        W11203   5.456   2.889  10.587 -0.2425 -0.0201 -0.2697
 7153W        W11204   2.176   3.287  11.682  0.0045 -0.0477  0.2556
 7154W        W11205   1.468   4.197   1.713  0.2692  0.0924  0.2671
 7155W        W11206   3.974   5.639  13.674 -0.0669 -0.2559 -0.2007
 7156W        W11207   1.213   6.744   9.817 -0.3227 -0.4032  0.1911
 7157W        W11208   9.163   8.899  11.143 -0.1956 -0.1236 -0.1286
 7158W        W11209   1.620   3.367   3.608  0.3942 -0.1815 -0.0455
 7159W        W11210   9.855   1.245  10.790 -0.1727  0.0258  0.1292
 7160W        W11211   2.791   9.273   3.652 -0.3868  0.1395 -0.0112
 7161W        W11212   0.770   5.673   4.495 -0.2962  0.2263 -0.1340
 7162W        W11213   9.987   3.654   0.017 -0.2088  0.0677  0.2457
 7163W        W11214   9.158   8.164  10.337 -0.1880  0.1465 -0.1318
 7164W        W11215   7.682   5.098  10.586 -0.0128 -0.1278  0.0961
 7165W        W11216   2.729   2.032   5.998  0.1406  0.4195 -0.1156
 7166W        W11217   2.115   0.102  12.089  0.0592 -0.0223  0.0465
 7167W        W11218   1.504   9.911   0.361  0.2964  0.2449  0.0050
 7168W        W11219   6.209   1.418  11.940  0.0611  0.0636  0.1210
 7169W        W11220   6.896   9.026  13.372  0.0554 -0.1548 -0.1157
 7170W        W11221   1.206   9.131   3.450  0.0542  0.0019  0.0433
 7171W        W11222   7.570   1.718   1.590  0.1162 -0.2807 -0.2933
 7172W        W11223   5.739   1.254  12.570 -0.1885 -0.0695  0.0660
 7173W        W11224   0.382   2.948  10.641  0.1964 -0.4896 -0.2460
 7174W        W11225   7.656   4.584   0.648  0.3819 -0.0903  0.0376
 7175W        W11226   2.862   2.628   0.030  0.1327 -0.0978  0.2190
 7176W        W11227   8.593   6.947   2.156 -0.1159 -0.0153  0.0923
 7177W        W11228   1.104   6.289  12.973  0.2119 -0.0843 -0.1774
 7178W        W11229   4.679   8.437   4.418  0.1319 -0.0727  0.1414
 7179W        W11230   5.684   9.099  12.657 -0.2599 -0.1238 -0.1878
 7180W        W11231   1.843   5.914   3.674 -0.1851  0.0793 -0.1555
 7181W        W11232   4.748   5.974   0.152  0.2102 -0.2494 -0.2204
 7182W        W11233   2.024   3.999  12.769 -0.3075  0.1426  0.2151
 7183W        W11234   7.901   3.686  11.196  0.5854 -0.1845 -0.0540
 7184W        W11235   9.675   3.358  12.220 -0.0250 -0.2151  0.0376
 7185W        W11236   6.930   7.749   0.909 -0.2145  0.0902  0.2904
 7186W        W11237   0.111   4.808   5.691  0.0036  0.0137 -0.1417
 7187W        W11238   5.733   3.832   1.765 -0.0828 -0.0609  0.0322
 7188W        W11239   5.103   8.306   2.953 -0.1604 -0.2358  0.1043
 7189W        W11240   2.197   0.441  13.080 -0.1274  0.1340  0.1580
 7190W        W11241   4.624   6.939   9.473  0.0274 -0.1685  0.1583
 7191W        W11242   0.561   9.112  12.045  0.2965  0.2098 -0.0706
 7192W        W11243   0.562  10.008   3.835  0.0388  0.0902 -0.0539
 7193W        W11244   2.625   2.228   2.101  0.2194 -0.0718  0.0341
 7194W        W11245   7.530   5.383  13.153  0.2869  0.2816 -0.1758
 7195W        W11246   0.386   5.820  12.979  0.0488 -0.0522  0.0325
 7196W        W11247   4.891   0.648  11.796 -0.0731 -0.0578 -0.5429
 7197W        W11248   8.051   8.893   3.486  0.1300 -0.0707  0.0372
 7198W        W11249   4.902   7.899   2.472 -0.0309 -0.2111  0.4228
 7199W        W11250   4.182   0.700  10.108  0.1776 -0.0845  0.1898
 7200W        W11251   0.980   3.258  12.451 -0.1905 -0.1362  0.2076
 7201W        W11252   9.295   1.444   0.544  0.1243  0.2805 -0.0407
 7202W        W11253   4.176   2.177  11.068 -0.2178  0.2252  0.0939
 7203W        W11254   0.505   3.768   1.612 -0.2410 -0.0259 -0.0433
 7204W        W11255   9.407   5.731   2.311 -0.1165  0.0855 -0.2094
 7205W        W11256   2.881   5.817   2.879  0.0834  0.0877  0.1260
 7206W        W11257   6.042   6.442   3.644 -0.1007 -0.3065  0.0983
 7207W        W11258   2.467   5.394   2.852 -0.0269 -0.3153  0.1724
 7208W        W11259   3.749   8.597   0.568  0.1294 -0.0051 -0.0814
 7209W        W11260   3.065   2.232   3.064 -0.0800  0.1018  0.1506
 7210W        W11261   7.674   8.614  11.973 -0.0954  0.1584 -0.2094
 7211W        W11262   7.173   5.576   1.534  0.1576  0.2395 -0.0007
 7212W        W11263   1.232   0.439   9.821 -0.3926 -0.1213 -0.0230
 7213W        W11264   9.659   5.416  12.997 -0.0306  0.0667 -0.1003
 7214W        W11265   4.471   1.502   0.849  0.2445 -0.0740  0.0217
 7215W        W11266   2.515   1.236   2.441 -0.0950  0.0580  0.1151
 7216W        W11267   8.263   9.112   2.178  0.1155 -0.0150 -0.1456
 7217W        W11268   9.695   6.672   0.245 -0.1323  0.3212  0.0268
 7218W        W11269   4.467   1.596  10.665 -0.1293  0.0391  0.4103
 7219W        W11270   2.960   5.453   0.061  0.0613 -0.2407 -0.0698
 7220W        W11271   1.902   5.354   9.889 -0.3058 -0.1726 -0.1800
 7221W        W11272   2.290   2.226  10.369 -0.1606  0.0899  0.2276
 7222W        W11273   1.234   2.873   0.305 -0.0718 -0.0049 -0.0759
 7223W        W11274   4.635   2.735  11.792 -0.1460 -0.2082 -0.1261
 7224W        W11275   2.366   9.928   1.880 -0.0244  0.0232  0.1762
 7225W        W11276   2.843   7.951   2.725  0.0674  0.2364 -0.2707
 7226W        W11277   4.191   7.896   3.904 -0.4657 -0.0564 -0.2713
 7227W        W11278   2.178   9.017  11.557 -0.0048  0.1226  0.3874
 7228W        W11279   2.613   2.565  13.149  0.0944 -0.1658  0.1547
 7229W        W11280   7.850   3.102   9.267 -0.0671 -0.3145 -0.1441
 7230W        W11281   0.245   2.627  12.640  0.1019  0.0194  0.2643
 7231W        W11282   7.465   8.160  11.777  0.2283  0.0428  0.0451
 7232W        W11283   9.547   5.790  12.511  0.2586 -0.4964 -0.1133
 7233W        W11284   0.346   9.312   2.641 -0.3236 -0.1871  0.0258
 7234W        W11285   3.276   6.929   2.300 -0.2137  0.0069  0.2166
 7235W        W11286   3.179   3.533   0.157  0.1040  0.4103 -0.0364
 7236W        W11287   5.546   8.095   4.441 -0.1304 -0.0359  0.2111
 7237W        W11288  10.084   4.120   4.205 -0.4010 -0.2373  0.2365
 7238W        W11289   0.625   2.929   4.589 -0.0840 -0.2765  0.2786
 7239W        W11290   9.877   4.355   4.608 -0.2787 -0.3351  0.0757
 7240W        W11291   0.742   6.534   1.028  0.0880  0.1558  0.1233
 7241W        W11292   5.123   7.575  11.316 -0.1412  0.0042 -0.0342
 7242W        W11293   7.865   9.816  11.156 -0.2363  0.1827 -0.0672
 7243W        W11294   1.777   7.040   2.942 -0.5023 -0.0414  0.0665
 7244W        W11295   8.084   4.637  10.622 -0.2108 -0.4424  0.2163
 7245W        W11296   1.817   4.610  13.400 -0.2334 -0.0439 -0.0017
 7246W        W11297   8.702   1.531   1.664  0.0532  0.2300  0.0440
 7247W        W11298   0.807   6.623  11.424 -0.0858 -0.2966  0.1376
 7248W        W11299   3.806   2.067  10.253 -0.2263 -0.3534 -0.0609
 7249W        W11300   9.322   8.445   0.688 -0.4144  0.0094  0.0478
 7250W        W11301   0.936   8.932   3.926 -0.0518  0.0146 -0.0681
 7251W        W11302   8.063   4.307   0.447  0.0150  0.2480 -0.2833
 7252W        W11303   3.760   2.020   1.320 -0.1441  0.0417  0.2508
 7253W        W11304   0.622   5.562  12.607  0.0950  0.1309 -0.3000
 7254W        W11305   7.573   0.000   1.773 -0.2801 -0.1431 -0.0194
 7255W        W11306   2.415   7.294  10.841  0.0035 -0.0999 -0.1319
 7256W        W11307   4.471   2.470  12.975  0.0350  0.0076 -0.0820
 7257W        W11308   8.452   1.995   0.190 -0.2324  0.0256 -0.0502
 7258W        W11309   5.908   8.355   3.544 -0.1229  0.1845 -0.0375
 7259W        W11310   3.510   9.561   0.441  0.4295  0.0289 -0.1532
 7260W        W11311   8.700   2.524  12.578  0.0443  0.1016 -0.0788
 7261W        W11312   1.184   1.697   3.910 -0.0917  0.0801 -0.1700
 7262W        W11313   7.868   9.056   2.965 -0.0625 -0.2255 -0.0663
 7263W        W11314   2.227  10.052  11.502 -0.1133  0.0601 -0.2020
 7264W        W11315   9.647   5.038  10.227  0.2420 -0.1862 -0.0138
 7265W        W11316   0.146   2.162   2.168  0.3678 -0.0117 -0.0880
 7266W        W11317   0.874   7.773   9.288  0.1687 -0.0072 -0.0435
 7267W        W11318   8.136   3.381   3.304  0.0072  0.0406 -0.0020
 7268W        W11319   5.450   8.739  10.710 -0.3405  0.0573 -0.0001
 7269W        W11320   7.419   7.159   0.316 -0.2778 -0.1423 -0.4161
 7270W        W11321   2.282   1.655  13.132 -0.0988  0.1875 -0.0618
 7271W        W11322   1.285   0.310  13.170  0.2465  0.3169 -0.1940
 7272W        W11323   4.477   4.700   0.169 -0.3516 -0.0496 -0.0754
 7273W        W11324   2.859   7.650  11.714  0.1304 -0.2954  0.1737
 7274W        W11325   5.950  10.025  10.722  0.0946  0.0008 -0.1898
 7275W        W11326   2.909   1.863   2.780  0.0429 -0.0963  0.2267
 7276W        W11327   3.291   7.190   0.188 -0.0422  0.1395  0.2384
 7277W        W11328   5.720   0.973   2.164  0.2092 -0.0276  0.2113
 7278W        W11329   5.757   9.006   9.852  0.1391 -0.1440  0.2358
 7279W        W11330   9.998   3.546  12.577 -0.3623  0.2668  0.3996
 7280W        W11331   1.437   9.564  13.429  0.1164 -0.2058 -0.1073
 7281W        W11332   0.143   4.550   1.502 -0.0840 -0.0577 -0.0665
 7282W        W11333   4.179   7.980   0.750 -0.1180 -0.2559  0.2065
 7283W        W11334   7.263   7.569   0.053  0.0406  0.3502  0.2359
 7284W        W11335   5.982   8.476  10.968  0.0827  0.1506  0.2067
 7285W        W11336   0.230   5.347   3.945 -0.1558 -0.3166 -0.1922
 7286W        W11337   6.719   0.740   2.864 -0.0228  0.4173  0.0657
 7287W        W11338   1.603   6.274   4.144 -0.0037 -0.1584  0.0951
 7288W        W11339   6.418   0.585   0.751 -0.2433  0.1703  0.1261
 7289W        W11340   4.067   7.384  11.369  0.0250 -0.4000 -0.1247
 7290W        W11341   1.571   9.300  12.929  0.1003  0.2803 -0.3548
 7291W        W11342   0.356   5.707  11.280 -0.4269 -0.2180  0.1293
 7292W        W11343   0.155   3.613   0.615  0.1411  0.2180 -0.1567
 7293W        W11344   8.752   2.373   2.078 -0.0578 -0.1150 -0.2579
 7294W        W11345   4.723   6.614  13.398  0.0980 -0.0756 -0.0781
 7295W        W11346   3.728   3.068  10.919 -0.0991 -0.1023 -0.2107
 7296W        W11347   8.422   6.093  11.516  0.0173 -0.1246  0.3375
 7297W        W11348   5.696   0.338  12.792 -0.0471 -0.0543 -0.2960
 7298W        W11349   1.986   3.617  11.382 -0.0139 -0.1656  0.1996
 7299W        W11350   8.107   7.235   2.579 -0.3175  0.0645 -0.2115
 7300W        W11351   5.783   8.204   9.656  0.0515  0.1940 -0.1107
 7301W        W11352   5.102   6.889  13.529  0.0917  0.0035 -0.2447
 7302W        W11353   2.613   3.658  11.879  0.0664  0.0545  0.0744
 7303W        W11354   1.954   3.080   5.048 -0.2881 -0.1759  0.0011
 7304W        W11355   0.028   9.611  11.316 -0.2398 -0.0331 -0.1609
 7305W        W11356   5.538   1.610   2.687 -0.1288 -0.3280  0.2284
 7306W        W11357   9.740   3.741   3.739 -0.4374  0.2222 -0.3806
 7307W        W11358   5.476   3.963  11.772 -0.2946  0.2730  0.1699
 7308W        W11359   6.140   9.205   0.470 -0.0976 -0.0218 -0.0812
 7309W        W11360   6.181   5.639  13.634  0.0471  0.1836 -0.3462
 7310W        W11361   3.862   3.117   5.284 -0.2734 -0.2036  0.1640
 7311W        W11362   7.267   6.153   4.782 -0.0209  0.1281  0.1713
 7312W        W11363   7.306   7.466   0.930 -0.4626 -0.2757  0.1460
 7313W        W11364   6.862   2.224   2.795 -0.0306 -0.1856 -0.1456
 7314W        W11365   5.215   1.334   1.369 -0.1635  0.0423 -0.0178
 7315W        W11366   8.202   1.175   4.604 -0.0916 -0.0662 -0.1898
 7316W        W11367   9.407   9.851  10.964 -0.0311 -0.1007  0.0573
 7317W        W11368   9.613   0.384   1.935  0.2436  0.1022  0.1002
 7318W        W11369   1.122   9.758  10.277  0.1806  0.4525 -0.1760
 7319W        W11370   4.693   6.516   2.849  0.0907 -0.1919  0.0382
 7320W        W11371   9.186   1.530   1.210  0.0952  0.2094 -0.3534
 7321W        W11372   9.677   6.021   2.631 -0.2220 -0.1977 -0.0330
 7322W        W11373   2.796   4.815  10.297 -0.1692  0.0280 -0.1578
 7323W        W11374   3.885   4.215  13.069 -0.0783 -0.1412  0.2273
 7324W        W11375   5.497   0.674   9.352 -0.4180  0.0718 -0.0275
 7325W        W11376   2.168   0.743  13.530  0.1190  0.1510  0.0892
 7326W        W11377   6.362   4.854   9.282 -0.1740 -0.2646  0.3239
 7327W        W11378   4.102   7.641   2.862 -0.3985  0.1448  0.3755
 7328W        W11379   7.036   7.070   0.027  0.3699  0.4420  0.2509
 7329W        W11380   5.341   5.637  11.765  0.1720  0.0076 -0.2968
 7330W        W11381   5.545   8.638   1.115  0.2982 -0.2152  0.1799
 7331W        W11382   3.547   4.816   2.161  0.0139 -0.1221  0.3369
 7332W        W11383   2.843   6.866  12.321  0.0742 -0.2107  0.1977
 7333W        W11384   1.062   8.875   0.100  0.1028 -0.1797  0.1894
 7334W        W11385   5.584   3.412  13.572 -0.0964  0.1857 -0.0051
 7335W        W11386   3.782   8.185  11.990 -0.1807  0.1111 -0.2143
 7336W        W11387   1.721   1.949   9.886  0.0589  0.1578 -0.0648
 7337W        W11388   4.467   2.445   1.307  0.0757 -0.1563  0.6203
 7338W        W11389   4.389   3.145   4.788 -0.3830 -0.0037  0.0966
 7339W        W11390   5.538   0.181  10.833 -0.0876  0.2829  0.1952
 7340W        W11391   5.724   2.083  10.084 -0.1415  0.1021 -0.0267
 7341W        W11392   4.497   9.802   1.162  0.1516  0.0446 -0.0412
 7342W        W11393   4.526   1.853  11.375 -0.2367  0.1212  0.0031
 7343W        W11394  10.107   9.598   2.581  0.0409  0.1035  0.1144
 7344W        W11395   7.864   3.644   4.213  0.5770 -0.1240 -0.1100
 7345W        W11396   7.559   1.702   0.496  0.1894  0.0992 -0.1480
 7346W        W11397   8.484   2.146  12.097 -0.0439 -0.0219  0.5630
 7347W        W11398   0.009   0.442  11.547  0.0777 -0.0746  0.0755
 7348W        W11399   0.994  10.108  12.762  0.1550 -0.0921 -0.0925
 7349W        W11400  10.112   9.400  12.663  0.0584 -0.3214  0.2568
 7350W        W11401   9.919   3.205   1.688 -0.2189 -0.3234 -0.0361
 7351W        W11402   3.601   3.319   0.600 -0.1920 -0.0020  0.0294
 7352W        W11403   3.536   5.629   1.150  0.0544  0.0206 -0.1046
 7353W        W11404   3.924   7.165  10.698 -0.2067 -0.0183  0.1289
 7354W        W11405   1.009   8.359   2.425 -0.0108 -0.1739 -0.2255
 7355W        W11406   3.962   9.109  10.852 -0.0627  0.0274 -0.0484
 7356W        W11407   0.310   3.838  13.734 -0.1880  0.2376 -0.0444
 7357W        W11408   1.499   7.600   2.960 -0.4391 -0.3680  0.0795
 7358W        W11409   8.306   6.503   9.768  0.0973  0.0750  0.0463
 7359W        W11410   9.175   5.759  10.286  0.3353 -0.0867  0.3329
 7360W        W11411   7.354   5.290   9.799  0.1571  0.0927  0.2990
 7361W        W11412   5.640   4.858   4.575  0.1741 -0.3046  0.0666
 7362W        W11413   2.717   3.385  13.669 -0.1995  0.1095 -0.0254
 7363W        W11414   3.115   0.010  13.939 -0.1775  0.0709  0.1392
 7364W        W11415   4.332   9.334   3.420 -0.3390 -0.0460  0.4008
 7365W        W11416   5.576   5.105   3.388  0.1168 -0.2069 -0.0139
 7366W        W11417   6.761   8.870  12.241 -0.0703  0.1248  0.0240
 7367W        W11418   9.114   8.456  12.419  0.2422  0.0063  0.1587
 7368W        W11419   6.336   6.180   4.031  0.0254 -0.3799  0.1381
 7369W        W11420   1.432   9.306  12.470 -0.1671  0.0323  0.0640
 7370W        W11421   8.597   0.048   0.820 -0.0983 -0.1457  0.1245
 7371W        W11422   5.140   4.203   1.232 -0.0043 -0.2161  0.2299
 7372W        W11423   0.813   9.766   2.036 -0.1205  0.2168 -0.1453
 7373W        W11424   4.500   5.887   4.539  0.2898  0.1168 -0.1255
 7374W        W11425   5.127   6.987   0.273 -0.4897 -0.1307  0.1355
 7375W        W11426   4.717   7.987   3.722 -0.0305  0.0905 -0.1056
 7376W        W11427   8.641   3.561   0.529  0.2155 -0.0148  0.0960
 7377W        W11428   5.644   8.569  10.192  0.0082 -0.1104 -0.1159
 7378W        W11429   9.728   0.994   3.651 -0.1778  0.0188  0.2572
 7379W        W11430   5.539   7.792  11.119 -0.3205  0.1928  0.1837
 7380W        W11431   8.168   3.804   0.580 -0.1071 -0.0873  0.2436
 7381W        W11432   6.762   2.971  10.864 -0.2481  0.2591 -0.0566
 7382W        W11433   3.657   0.914  12.265 -0.0298  0.1104 -0.1191
 7383W        W11434   9.339   6.525  11.858  0.0056 -0.1810 -0.0852
 7384W        W11435   4.011   6.895  11.171 -0.0966  0.1044  0.0593
 7385W        W11436   5.042   0.367  12.208  0.0531 -0.0833 -0.2527
 7386W        W11437   6.388   2.031  11.281  0.3941  0.2023  0.0935
 7387W        W11438   5.924   3.782  12.547 -0.1444 -0.1582  0.0217
 7388W        W11439   4.198   8.249  13.369 -0.1525  0.1766  0.3855
 7389W        W11440   0.422   9.803   2.638 -0.0208  0.1356 -0.0028
 7390W        W11441   1.634   8.876   3.406  0.0087  0.0711 -0.1276
 7391W        W11442   4.243   5.967   1.509  0.1406 -0.0792  0.2563
 7392W        W11443   4.128   0.848  11.910 -0.0838 -0.2006  0.1646
 7393W        W11444   1.514   8.556  13.711  0.0439  0.0587 -0.1034
 7394W        W11445   5.371   5.502   1.254 -0.0384  0.0377 -0.1911
 7395W        W11446   0.430   0.531   1.258  0.0163 -0.0514 -0.0508
 7396W        W11447   7.456   9.562  13.796 -0.0552  0.0533  0.0215
 7397W        W11448   2.871   5.232   9.929 -0.2028  0.1576 -0.2341
 7398W        W11449   3.931   9.251  13.390  0.1615 -0.1811 -0.0165
 7399W        W11450   3.903   3.199   3.124 -0.3973  0.1343  0.0126
 7400W        W11451   1.576   2.796  10.195  0.1338  0.0322  0.3260
 7401W        W11452   0.469   5.764   3.989  0.0625  0.1727 -0.1212
 7402W        W11453   7.998   2.553   3.302 -0.2111 -0.7130 -0.1821
 7403W        W11454   3.554   1.751   3.891 -0.0006  0.2391 -0.3882
 7404W        W11455   5.281   3.741   3.664 -0.1567 -0.0192  0.3035
 7405W        W11456   9.901   4.101   2.995  0.1632 -0.0406 -0.0784
 7406W        W11457   1.112   1.514   2.204  0.0121  0.1623 -0.0963
 7407W        W11458   0.607   1.953   3.175  0.1527 -0.2411  0.1453
 7408W        W11459   1.898   9.953  10.654 -0.1373 -0.1833  0.0954
 7409W        W11460   7.926   3.959   9.078  0.1524  0.0017 -0.0484
 7410W        W11461   0.810   0.321  13.069  0.1233 -0.3527 -0.0600
 7411W        W11462   4.250   0.102   1.271 -0.0993  0.3030 -0.1130
 7412W        W11463   3.215   1.086  12.053 -0.2590 -0.2186 -0.1537
 7413W        W11464   2.530   1.233   0.356 -0.0886  0.0978 -0.1325
 7414W        W11465   2.943   9.329   6.140  0.2034 -0.0230 -0.0090
 7415W        W11466   5.487   4.486  12.825 -0.0652  0.0478  0.2702
 7416W        W11467   5.390   3.056  12.502 -0.0539  0.0582 -0.1009
 7417W        W11468   1.717   3.274  13.471  0.2011 -0.3079  0.3396
 7418W        W11469   3.988   5.342   1.464 -0.1889  0.1967  0.0971
 7419W        W11470   4.032   8.992   1.639  0.0737 -0.0920 -0.0419
 7420W        W11471   4.978   6.211  10.561 -0.0414  0.0744 -0.0384
 7421W        W11472   0.359   2.488  13.919 -0.1475 -0.2115  0.1243
 7422W        W11473   6.747   5.630  10.735  0.2777 -0.0470  0.3746
 7423W        W11474   1.842   5.223  11.953 -0.0315 -0.2541  0.0899
 7424W        W11475   9.914   3.988  12.379 -0.1277  0.1238  0.1407
 7425W        W11476   6.071   1.731   9.824 -0.0258 -0.2524  0.1338
 7426W        W11477   9.736   6.904   4.243  0.0691 -0.2040 -0.2070
 7427W        W11478   1.544   0.389   2.489 -0.2350 -0.3350  0.0650
 7428W        W11479   1.560   1.337   3.869 -0.0998  0.2581 -0.0756
 7429W        W11480   2.374   5.515  12.609  0.1165 -0.0637 -0.4161
 7430W        W11481   6.566   0.366  13.262  0.1998 -0.0352 -0.2328
 7431W        W11482   6.985   7.910   2.588  0.2493  0.1086 -0.1851
 7432W        W11483   9.633   1.471   2.185  0.1574 -0.2163  0.1703
 7433W        W11484   5.096   7.545   4.835 -0.0094 -0.5143  0.0585
 7434W        W11485   8.880   5.292   0.623 -0.0684 -0.0568 -0.0335
 7435W        W11486   1.324   8.743   0.940  0.1069  0.0732  0.0300
 7436W        W11487   5.031   5.276   3.191 -0.1387  0.2359 -0.1306
 7437W        W11488   1.017   0.937  12.546 -0.2525 -0.1262  0.0202
 7438W        W11489   8.579   8.955  12.279 -0.0224 -0.3005 -0.0534
 7439W        W11490   3.718   2.174  11.878 -0.3383  0.0206  0.0067
 7440W        W11491   7.656   6.722   0.157  0.3087 -0.2085 -0.3296
 7441W        W11492   2.007   6.826  12.819  0.3976 -0.0066  0.3159
 7442W        W11493   1.999   3.146   0.106 -0.1715 -0.2695  0.0492
 7443W        W11494   6.403   2.978  13.611 -0.0685 -0.1249 -0.0297
 7444W        W11495   4.097   6.473  11.782  0.2220  0.0350 -0.0945
 7445W        W11496   5.232   7.922   0.348 -0.2270  0.1923  0.1002
 7446W        W11497   4.860  10.175   1.343  0.0650 -0.0081  0.1581
 7447W        W11498   9.891   9.398   3.297  0.0414  0.2351 -0.0688
 7448W        W11499   5.362   3.520   9.070 -0.0074  0.1342 -0.0763
 7449W        W11500   0.745   2.173  13.889  0.1116  0.0958  0.0790
 7450W        W11501   2.633   0.625   9.827  0.0197  0.1855 -0.1342
 7451W        W11502   5.951   6.125  13.432  0.0292 -0.2710 -0.0311
 7452W        W11503   1.157   3.038  12.923  0.2036 -0.2455 -0.0040
 7453W        W11504   5.229   7.731  12.353  0.0723  0.2060  0.2983
 7454W        W11505   2.302   8.810   3.166  0.3142 -0.2752  0.1257
 7455W        W11506   2.345   0.494  13.906 -0.0311 -0.0394  0.1197
 7456W        W11507   0.387   5.880   1.262 -0.0222 -0.0230  0.1611
 7457W        W11508   8.124   3.777  11.669 -0.1119 -0.0016 -0.0841
 7458W        W11509   2.364   8.047  13.192  0.2735  0.1519  0.1544
 7459W        W11510   5.288   1.322  12.345 -0.1793  0.1559 -0.0899
 7460W        W11511   4.581   7.140  12.050  0.2652  0.0480 -0.0834
 7461W        W11512   8.777   3.253  13.641  0.0052  0.5450  0.1291
 7462W        W11513   5.376   7.542  13.334  0.4682 -0.2163 -0.1901
 7463W        W11514   4.666   0.951   2.410  0.1118  0.0377  0.0426
 7464W        W11515   1.749   3.697  11.942 -0.2808  0.2751  0.0336
 7465W        W11516   6.238   3.373  12.722  0.0902 -0.1151  0.4124
 7466W        W11517   6.595   4.395   4.350 -0.0152 -0.1055  0.0390
 7467W        W11518   6.521   2.034  12.383 -0.0550  0.0618  0.3129
 7468W        W11519   9.080   7.721  10.614 -0.3514  0.1990  0.0356
 7469W        W11520   3.407   6.391   0.057  0.0160  0.1692  0.0653
 7470W        W11521   6.262   9.265  10.267 -0.1363 -0.0907  0.0525
 7471W        W11522   5.605   5.212  11.916  0.2476  0.2680  0.1500
 7472W        W11523   3.750   5.743  11.880 -0.1197  0.0873  0.1265
 7473W        W11524   4.742   7.604  12.101 -0.1102  0.3166 -0.1709
 7474W        W11525   5.390   0.789  13.049 -0.0014 -0.1428  0.1827
 7475W        W11526   0.285   8.995  11.610  0.0889  0.1618  0.0861
 7476W        W11527   8.223   8.742  12.566  0.0516 -0.0670  0.1493
 7477W        W11528   5.367   2.243  12.987 -0.1338  0.0921 -0.1489
 7478W        W11529   5.047   7.284   3.024  0.1093 -0.0162  0.1887
 7479W        W11530   5.790   5.811  11.679 -0.4407  0.2205 -0.1300
 7480W        W11531   8.040   2.200   4.680  0.2458 -0.0160 -0.1510
 7481W        W11532   0.110   1.815   9.814  0.2410  0.0981  0.0667
 7482W        W11533   9.117   2.079  13.735  0.1764 -0.1010 -0.0937
 7483W        W11534   5.068   1.920  11.270  0.3328  0.0167 -0.2695
 7484W        W11535   4.131   7.121   4.970  0.0255 -0.1362  0.2020
 7485W        W11536   1.451   3.071   2.754 -0.0018 -0.0221 -0.0309
 7486W        W11537   4.240   9.324   2.206 -0.2831  0.1599  0.1395
 7487W        W11538   5.620   0.827   0.135 -0.0357  0.0178 -0.2270
 7488W        W11539   1.290   7.178   5.150 -0.1211  0.0491 -0.3221
 7489W        W11540   1.584   7.066  11.763  0.1243  0.0291  0.3370
 7490W        W11541   3.183   4.020   0.254 -0.1067 -0.0619  0.0266
 7491W        W11542   4.315   5.523  10.612  0.2259 -0.2204  0.0036
 7492W        W11543   3.619   3.168   0.063  0.1681 -0.1751  0.0559
 7493W        W11544   4.258   1.937   0.863  0.0831  0.0126 -0.3512
 7494W        W11545   1.465   6.746  12.818  0.2538 -0.0412 -0.1810
 7495W        W11546   2.458   7.094   3.456  0.0558 -0.1079 -0.1442
 7496W        W11547   8.182   3.652   8.205  0.1396 -0.0222  0.1395
 7497W        W11548   2.745   4.944   0.456 -0.0162 -0.4266 -0.0587
 7498W        W11549   7.652   4.409   2.917  0.3109  0.1853  0.1441
 7499W        W11550   0.878   4.922   2.853  0.3933 -0.2364  0.0759
 7500W        W11551   1.794   8.367   2.475  0.2148  0.3233  0.1673
 7501W        W11552   2.568   5.334   0.825  0.1598  0.1244  0.0781
 7502W        W11553   5.359   2.820   9.947  0.0798 -0.1611  0.0112
 7503W        W11554   2.157   8.162   9.173  0.3098 -0.0008 -0.0321
 7504W        W11555   6.052   5.996  12.180 -0.1615 -0.2029 -0.1082
 7505W        W11556   3.000   6.092   2.018  0.3476 -0.0066 -0.1804
 7506W        W11557   8.368   5.589   1.406  0.2328  0.1058 -0.0674
 7507W        W11558   8.654   9.530  13.161  0.1210  0.0675 -0.1105
 7508W        W11559   0.827   3.217   0.996  0.2464  0.1915  0.0239
 7509W        W11560   1.337   7.567  10.284 -0.1098 -0.0091 -0.0412
 7510W        W11561   8.428   8.471  12.154 -0.1095 -0.0130 -0.2019
 7511W        W11562   2.261   2.250  11.336 -0.0797  0.2654 -0.1711
 7512W        W11563   8.448   2.204  11.608 -0.1142 -0.1340  0.1790
 7513W        W11564   0.763   1.518  12.299 -0.2376  0.0373  0.1092
 7514W        W11565   4.575   0.649   4.272 -0.0483 -0.0107  0.1056
 7515W        W11566   7.271   0.811  12.772 -0.0878  0.0903 -0.2616
 7516W        W11567   1.505   5.364   2.531  0.2311 -0.0506 -0.0222
 7517W        W11568   9.589   5.345   3.106  0.4655 -0.3078 -0.4586
 7518W        W11569   9.562   7.614  10.673  0.0077 -0.1120 -0.0376
 7519W        W11570   8.924   9.461   0.300 -0.1678  0.0231 -0.2171
 7520W        W11571   5.931   4.332   0.704 -0.1867  0.1342  0.1620
 7521W        W11572   9.229   1.029   0.213  0.2369  0.2252  0.1774
 7522W        W11573   2.405   9.594  10.919  0.1130 -0.0903 -0.1253
 7523W        W11574   2.487   3.970  13.008 -0.1058 -0.0768  0.1929
 7524W        W11575   8.151   8.415   1.320 -0.1616 -0.0822  0.0229
 7525W        W11576   0.473   4.144  10.039  0.1593  0.3240  0.0288
 7526W        W11577   5.185   0.200   2.534 -0.1564 -0.0262 -0.1328
 7527W        W11578   2.363   0.499   1.006  0.3877 -0.3528 -0.1841
 7528W        W11579   2.599   5.939  13.882  0.1706  0.0849 -0.1220
 7529W        W11580   1.697   4.408  11.366  0.0387  0.0642  0.0974
 7530W        W11581   5.397   1.904   1.914  0.1706  0.0500  0.3574
 7531W        W11582   8.583   4.372  11.113 -0.0342 -0.2524  0.0548
 7532W        W11583   7.886   3.873   2.723  0.2274 -0.0536  0.0336
 7533W        W11584   8.345   2.808   4.065  0.3963 -0.0733 -0.1081
 7534W        W11585   8.680   5.379  12.526 -0.1550  0.1585 -0.2505
 7535W        W11586   0.885   6.083   1.283  0.3523  0.0561  0.2821
 7536W        W11587   3.572   9.383  10.780  0.2084  0.0418  0.3172
 7537W        W11588   7.668   3.652   8.452  0.2760 -0.0272 -0.0076
 7538W        W11589   6.481   6.538   0.304 -0.1334 -0.0994 -0.1042
 7539W        W11590   8.669   8.444   1.742 -0.2534 -0.2518  0.0711
 7540W        W11591   0.537   0.230   2.512  0.2131  0.0139 -0.3564
 7541W        W11592   6.562   0.171  13.743 -0.0471  0.0281 -0.2386
 7542W        W11593   0.737   9.851  11.420  0.0454 -0.0225 -0.1278
 7543W        W11594   6.688   1.167  11.824 -0.1688 -0.0518 -0.2016
 7544W        W11595   3.500   8.941   4.277  0.0255 -0.1608  0.1221
 7545W        W11596   8.176  10.120   0.919  0.0799  0.2498 -0.1740
 7546W        W11597   7.627   0.401   3.055 -0.2438  0.2547 -0.0410
 7547W        W11598   2.056   3.948   0.318 -0.4277  0.0879  0.1009
 7548W        W11599   0.161   7.140  12.599  0.0940  0.0481  0.2206
 7549W        W11600   3.615   2.687   1.018  0.1858  0.1332  0.0898
 7550W        W11601   4.264   6.851  10.358 -0.1019  0.1091 -0.0142
 7551W        W11602   6.981  10.170   0.165 -0.0454 -0.0565  0.0613
 7552W        W11603   7.789   7.463  12.444 -0.1942  0.3010 -0.0158
 7553W        W11604   5.812   7.224   4.378  0.1708 -0.0775 -0.2902
 7554W        W11605   8.865   5.518   9.578 -0.1063  0.1621 -0.1736
 7555W        W11606   5.363   3.681  13.186 -0.2886  0.1257  0.2858
 7556W        W11607   8.695   4.110   3.744 -0.2442  0.1304  0.0419
 7557W        W11608   5.315   9.231  13.864  0.0428  0.1266  0.2656
 7558W        W11609   3.485   6.274  12.717 -0.0715  0.1896 -0.2107
 7559W        W11610   9.566   8.168  13.225  0.0489 -0.0196  0.0063
 7560W        W11611   6.248   8.924   1.905 -0.0425 -0.0950 -0.5095
 7561W        W11612   0.702   4.850  12.407  0.1342 -0.0994 -0.1554
 7562W        W11613   2.299   8.933  13.406  0.0081 -0.0473 -0.2245
 7563W        W11614   7.411   2.832   4.222  0.2060 -0.0845 -0.1717
 7564W        W11615   8.767   1.698  13.859 -0.2202  0.1108  0.1095
 7565W        W11616   0.475   7.489   0.838  0.0621 -0.1013 -0.0611
 7566W        W11617   4.293   0.329   4.624  0.0311 -0.0988 -0.0741
 7567W        W11618   9.721   0.097  12.256 -0.2024  0.5215 -0.2123
 7568W        W11619   3.397   8.962  10.007 -0.0832 -0.2185 -0.1333
 7569W        W11620   2.302   3.854   9.536  0.0519 -0.2741  0.1262
 7570W        W11621   8.847   6.994   1.486  0.1085  0.1837  0.0914
 7571W        W11622   6.305   5.168  12.470 -0.0648 -0.0156  0.0678
 7572W        W11623   7.310   8.230   1.652  0.0798  0.1244  0.3409
 7573W        W11624   9.295   2.911  10.613  0.1917 -0.1528  0.0930
 7574W        W11625   7.950   4.340   2.386  0.1799  0.0878 -0.2296
 7575W        W11626   6.951   8.284   0.851  0.2722 -0.0731 -0.4566
 7576W        W11627   2.459   4.999  10.743  0.0645  0.4814  0.0312
 7577W        W11628   7.676   2.953  12.448  0.1036 -0.0887 -0.4020
 7578W        W11629   4.191   0.087   0.248 -0.1984  0.1138 -0.1801
 7579W        W11630   8.014   8.582   0.011  0.4332 -0.0742 -0.0805
 7580W        W11631   3.916   2.172   9.696  0.0023 -0.1072  0.1842
 7581W        W11632   9.388   7.707   1.388  0.1368  0.1781  0.0910
 7582W        W11633   9.275   2.280   3.878 -0.0148 -0.1625 -0.0765
 7583W        W11634   9.228   4.704   3.984 -0.3314  0.1127 -0.2654
 7584W        W11635   6.004   4.906   1.866  0.1478 -0.0829  0.0511
 7585W        W11636   2.951   6.600   1.340  0.2010  0.0465  0.0320
 7586W        W11637   8.997   7.258  10.669  0.1000  0.0938 -0.1239
 7587W        W11638   5.736   9.626   3.586 -0.3732  0.2666 -0.3195
 7588W        W11639   2.122   0.104   3.604  0.0968  0.1147 -0.0318
 7589W        W11640   9.452   8.618  13.449 -0.1463 -0.0959 -0.1800
 7590W        W11641   9.163   6.779  10.963 -0.2183  0.3503  0.1527
 7591W        W11642   8.751   8.340   3.886  0.0830 -0.1298  0.2985
 7592W        W11643   3.779   7.990   4.854  0.5383  0.1492 -0.1469
 7593W        W11644   9.444   9.492  10.062 -0.1984 -0.1794  0.0625
 7594W        W11645   2.378   0.009  12.667  0.3616  0.0753 -0.0481
 7595W        W11646   7.585   3.439   9.502  0.2288 -0.1634 -0.0498
 7596W        W11647   2.468   1.726  10.500  0.0386 -0.0542  0.2533
 7597W        W11648   8.240   8.583  11.243 -0.2493 -0.2619  0.2948
 7598W        W11649   1.166   1.980   3.138  0.1126 -0.1028 -0.0499
 7599W        W11650   9.442   9.090  10.689 -0.2866  0.1776  0.0967
 7600W        W11651   9.087   3.680   2.884 -0.2489 -0.2101 -0.1018
 7601W        W11652   5.703   0.472   1.875 -0.1185 -0.2916  0.1523
 7602W        W11653   0.723   7.131  12.800 -0.0468  0.1051  0.2095
 7603W        W11654   6.440   1.509  13.416  0.0204  0.0893  0.4347
 7604W        W11655   5.469   9.325   4.519 -0.0368  0.6585 -0.1769
 7605W        W11656   0.524   8.309   1.360  0.1145  0.0387  0.1860
 7606W        W11657   5.235   9.913  10.381  0.0174 -0.1656  0.1893
 7607W        W11658   5.893   8.219  10.480 -0.1524  0.1897 -0.2771
 7608W        W11659   5.068   2.679  13.688  0.1142 -0.2583  0.3097
 7609W        W11660   2.478   9.694   9.551 -0.0993 -0.0300  0.3865
 7610W        W11661   0.959   6.622   3.029 -0.1422 -0.1104  0.0549
 7611W        W11662   6.201   2.697   4.707  0.0942 -0.2827  0.1027
 7612W        W11663   4.181   3.277   9.387 -0.0627 -0.1354 -0.2100
 7613W        W11664   8.807   8.120  11.679 -0.1516 -0.3110 -0.1287
 7614W        W11665   8.784   7.709  12.451  0.0078  0.1343 -0.1089
 7615W        W11666   6.522   7.542   0.628 -0.2542  0.0741  0.0615
 7616W        W11667   7.940   8.319   1.830  0.0856  0.2814  0.1748
 7617W        W11668   6.465   8.250  13.012  0.3843  0.0233 -0.0614
 7618W        W11669   6.566   2.163   9.421  0.2350  0.0540 -0.0364
 7619W        W11670   5.558   7.689   0.784  0.1170 -0.2492  0.1964
 7620W        W11671   3.835   8.086   3.620  0.0505  0.0080  0.2722
 7621W        W11672   5.832   0.429   0.719  0.0492  0.2426  0.2249
 7622W        W11673   5.753   1.643  11.264 -0.0057  0.1639  0.1945
 7623W        W11674   8.199   0.746  10.707  0.1570 -0.0888  0.1281
 7624W        W11675   9.084   8.308  11.145  0.1174 -0.0845  0.0187
 7625W        W11676   5.199   5.462  12.707 -0.0364 -0.1114 -0.0259
 7626W        W11677   0.807   4.212  11.035  0.0950 -0.0531 -0.1816
 7627W        W11678   2.403   5.042  11.233 -0.3150 -0.1302  0.4494
 7628W        W11679   7.633   0.528  12.683 -0.1467  0.0228  0.1300
 7629W        W11680   6.011   0.993  12.195 -0.3764 -0.4172 -0.0192
 7630W        W11681   5.976   7.026  12.975 -0.1011 -0.3091 -0.1733
 7631W        W11682   5.521   6.444   1.272  0.3975  0.1945 -0.2120
 7632W        W11683   9.671   9.363   3.739  0.0741 -0.1398  0.0124
 7633W        W11684   2.839   0.651  11.974  0.1588  0.0277 -0.0113
 7634W        W11685   0.019   2.343   1.148  0.0867 -0.1103  0.2048
 7635W        W11686   8.905   9.899   2.791  0.2415  0.0627 -0.1273
 7636W        W11687   5.918   5.782   1.128  0.0147  0.2732 -0.2984
 7637W        W11688  10.114   5.428   9.795  0.0330 -0.0732 -0.1714
 7638W        W11689   6.066   9.814   1.046  0.0151 -0.0855 -0.0714
 7639W        W11690   7.146   1.981  13.656 -0.1540 -0.0754 -0.0494
 7640W        W11691   3.822   0.521   3.639  0.3092  0.2579 -0.2906
 7641W        W11692   4.480   2.411   0.797 -0.0696  0.0519  0.1204
 7642W        W11693   0.404   0.768   3.342 -0.2304 -0.1423 -0.3572
 7643W        W11694   4.813   2.561   4.489 -0.0150 -0.1908 -0.1950
 7644W        W11695   5.508   3.295   9.476  0.0654  0.0205  0.1845
 7645W        W11696   4.307   2.279  10.114 -0.3538 -0.0002  0.1439
 7646W        W11697   7.964   4.434   4.369 -0.0634  0.2902 -0.0957
 7647W        W11698   3.620   4.681  12.327  0.1181 -0.2469  0.0304
 7648W        W11699   1.085   3.894  13.530 -0.0218 -0.0182  0.1206
 7649W        W11700   9.463   1.820  12.199 -0.2132  0.4950 -0.1498
 7650W        W11701   9.086   0.415   3.355 -0.2944 -0.1337 -0.0955
 7651W        W11702   0.101   3.463   9.771 -0.4290 -0.2447  0.1479
 7652W        W11703   2.563   4.752   2.382  0.0689  0.1756 -0.2305
 7653W        W11704   1.664   1.660   2.029 -0.0591 -0.1765  0.1408
 7654W        W11705   6.586   3.576   9.186  0.1776  0.5405 -0.2605
 7655W        W11706   0.758   2.599   0.163 -0.3894 -0.5277 -0.2043
 7656W        W11707   5.634   7.126  13.329  0.2432  0.0493  0.0195
 7657W        W11708   6.231   5.672   5.466 -0.1247  0.1250  0.2114
 7658W        W11709   3.488   1.248   0.008  0.0370  0.3924  0.3632
 7659W        W11710   9.281   4.174   9.276  0.3069 -0.1855  0.1138
 7660W        W11711   0.847   5.829  11.397 -0.0477  0.1967  0.0583
 7661W        W11712   9.694   6.795  11.094 -0.1179 -0.0123 -0.2683
 7662W        W11713   8.163   6.756  13.915 -0.1897  0.3137  0.1749
 7663W        W11714   5.499   1.565  10.160 -0.1937  0.0489  0.1544
 7664W        W11715   5.227   1.406   9.344 -0.0368 -0.0985  0.1055
 7665W        W11716   8.203   4.296   0.971  0.0152  0.2012  0.1312
 7666W        W11717   3.162   6.708   1.804 -0.2173  0.0860 -0.3045
 7667W        W11718   1.077   4.089   3.473  0.0033 -0.1093  0.0817
 7668W        W11719   3.800   2.539   0.178 -0.3799  0.0863  0.1320
 7669W        W11720   0.081   4.993  10.523  0.0629 -0.2595  0.0891
 7670W        W11721   7.639   1.972   1.141 -0.0700  0.2115  0.1277
 7671W        W11722   8.003   9.240   1.775  0.1066  0.0730  0.0992
 7672W        W11723   3.316   9.283   9.139  0.2599  0.1434  0.0233
 7673W        W11724   4.907   9.480  13.403  0.0330 -0.0201  0.1124
 7674W        W11725   1.432   2.172   3.608 -0.0799  0.1674  0.0995
 7675W        W11726   6.612   6.967   2.512 -0.1484 -0.0710 -0.0862
 7676W        W11727   3.865   2.578   2.782 -0.0690 -0.0681  0.4361
 7677W        W11728   5.764   7.495   3.627  0.1045 -0.0049 -0.2545
 7678W        W11729   4.192   0.656   1.788 -0.3330  0.2909 -0.0181
 7679W        W11730   3.379   3.918   9.106  0.1854 -0.1020 -0.1821
 7680W        W11731   7.993   2.097  12.188 -0.0421 -0.0655  0.3390
 7681W        W11732   3.052   1.383   9.877 -0.0018  0.0329  0.3144
 7682W        W11733   7.135   0.895   2.593 -0.1474  0.2450 -0.0708
 7683W        W11734   0.804   9.475   3.912 -0.0762  0.1426 -0.1481
 7684W        W11735   6.928   6.446  11.622  0.0542 -0.1646 -0.0182
 7685W        W11736   7.996   7.881  12.719  0.3456  0.0849 -0.1147
 7686W        W11737   6.507   4.190   2.388 -0.3346  0.0162 -0.2540
 7687W        W11738   4.256   2.247  12.008  0.1699  0.2137 -0.0029
 7688W        W11739   4.650   9.589  13.916 -0.1252  0.2485 -0.4138
 7689W        W11740   3.373   7.044  12.273  0.0534 -0.0339 -0.3060
 7690W        W11741   9.528   2.837   2.861  0.1406 -0.0264 -0.2372
 7691W        W11742   5.250   3.281   0.511  0.0546 -0.0706  0.0086
 7692W        W11743   1.598   7.102  12.460 -0.1356 -0.4537 -0.1200
 7693W        W11744   3.831   7.378   3.584  0.2843 -0.0893 -0.1191
 7694W        W11745   1.149   0.733  13.430  0.4124 -0.0208 -0.0239
 7695W        W11746   4.369   3.549   2.614 -0.0671 -0.0910  0.1830
 7696W        W11747   9.357   4.247   2.355  0.0703  0.2394 -0.3162
 7697W        W11748   8.144   3.276   9.734 -0.1104  0.2912 -0.0886
 7698W        W11749   6.525   5.171   3.015 -0.0040  0.0300 -0.4691
 7699W        W11750   2.135   6.963   1.196 -0.0065  0.0055  0.1242
 7700W        W11751   8.500   6.427  10.243  0.2142 -0.2921 -0.2218
 7701W        W11752   3.890   7.840  12.364  0.1080 -0.0734 -0.3170
 7702W        W11753   7.924   4.791   2.234  0.1169 -0.1308 -0.0314
 7703W        W11754   3.802   2.257  11.380 -0.2003 -0.0510 -0.1981
 7704W        W11755  10.060   4.564  12.950 -0.1310  0.2739 -0.3447
 7705W        W11756   7.167   3.421   3.184  0.1177 -0.0580 -0.1773
 7706W        W11757   1.605   0.763  12.525  0.1672  0.0355 -0.2765
 7707W        W11758   6.362   6.690   2.851 -0.1865 -0.0842  0.2719
 7708W        W11759   7.210   5.925   1.870  0.2438 -0.0799 -0.4072
 7709W        W11760   0.332   1.750  12.401 -0.1233  0.3316  0.3447
 7710W        W11761   4.448   4.031   1.149  0.0499 -0.0468  0.0323
 7711W        W11762   7.345   5.548   2.259  0.1363 -0.5006  0.0006
 7712W        W11763   2.492   1.158   3.247  0.2990  0.1089 -0.3464
 7713W        W11764   6.676   2.850   8.777  0.2276 -0.1927 -0.2798
 7714W        W11765   6.713   5.167   0.405 -0.0785 -0.0680  0.0117
 7715W        W11766   1.791   5.881   9.998  0.0586 -0.1017 -0.0610
 7716W        W11767   4.183   6.815   2.918 -0.0809  0.0260  0.2099
 7717W        W11768   7.600   9.880   2.259 -0.2033  0.0808  0.4394
 7718W        W11769   7.177   7.578  10.817 -0.0032  0.2247  0.3432
 7719W        W11770   4.370   9.324   8.482 -0.2954 -0.2768 -0.0456
 7720W        W11771   4.740   2.238  11.075 -0.1362 -0.1406  0.0304
 7721W        W11772   3.900   1.659   9.845 -0.0542  0.0206 -0.1007
 7722W        W11773   4.005   7.271   2.481  0.2176  0.0508  0.0806
 7723W        W11774   7.814   6.847   3.363 -0.1300 -0.2008  0.1647
 7724W        W11775   4.635   1.087   3.451 -0.0295 -0.1780 -0.3046
 7725W        W11776   9.988   4.431   5.600  0.2072  0.3347  0.2572
 7726W        W11777   5.264   8.161  11.467 -0.1988 -0.1438  0.3493
 7727W        W11778   8.349   1.683  12.256  0.0546 -0.0712 -0.3184
 7728W        W11779   2.504   3.815   2.780 -0.2011  0.3036  0.2010
 7729W        W11780   4.714   5.659   3.224  0.0866  0.0196  0.0601
 7730W        W11781   4.528  10.092   4.889 -0.0753  0.1956  0.0998
 7731W        W11782   4.082   7.556  13.734  0.1069  0.1351  0.0481
 7732W        W11783   6.497   4.187  12.185  0.1544  0.0900 -0.2661
 7733W        W11784   5.536   6.536  13.364 -0.1101 -0.1337 -0.1756
 7734W        W11785   4.034   5.762   1.956 -0.1642 -0.1102 -0.3050
 7735W        W11786   2.410   7.328  12.211  0.1015 -0.0311  0.0030
 7736W        W11787   0.108   6.289  12.880  0.0750  0.1779 -0.1007
 7737W        W11788   0.888   7.547   1.780  0.2828 -0.0900 -0.0940
 7738W        W11789   5.832   1.427   3.024  0.0814  0.0014 -0.2724
 7739W        W11790   5.945   2.113  11.473 -0.1069 -0.0976 -0.1901
 7740W        W11791  10.040   1.022  10.297 -0.1557 -0.0268  0.0264
 7741W        W11792   9.662   8.991  11.796  0.1039  0.1916 -0.4132
 7742W        W11793   4.041   9.793  13.081  0.0365 -0.1212 -0.0013
 7743W        W11794   3.623   8.527   0.072 -0.1401  0.1694 -0.1959
 7744W        W11795   5.285   1.519  13.322 -0.1212 -0.1127  0.2291
 7745W        W11796   9.336   4.551  10.080 -0.0858  0.0753  0.0248
 7746W        W11797   0.888   4.370   4.006  0.0593 -0.1335 -0.1832
 7747W        W11798   4.751   6.710  11.359  0.0225  0.3837  0.3168
 7748W        W11799   0.383   4.362  13.121 -0.3742 -0.2841 -0.0630
 7749W        W11800   7.897   1.632   4.579 -0.1777  0.1889  0.1735
 7750W        W11801   8.479   6.606   4.285  0.0333 -0.1564  0.0503
 7751W        W11802   2.723   7.213   0.469 -0.0992  0.0292 -0.0933
 7752W        W11803   6.590   6.663   1.514  0.1879  0.1241 -0.1029
 7753W        W11804   1.678   2.528  13.495 -0.0766  0.0353  0.1216
 7754W        W11805   2.458   6.606   4.350 -0.0845  0.0560 -0.2381
 7755W        W11806   6.551   6.170  12.327  0.0060  0.0423 -0.2541
 7756W        W11807   2.543   8.253   9.507  0.1154  0.2265  0.3327
 7757W        W11808   0.576   1.962   4.764 -0.1494 -0.3091 -0.0996
 7758W        W11809   4.543   2.258   4.098 -0.2120 -0.0821  0.0105
 7759W        W11810   0.126   6.964   0.033 -0.1513 -0.0614 -0.0207
 7760W        W11811   5.072   2.640   8.816 -0.2033  0.0073  0.2844
 7761W        W11812   8.422   5.372   4.380  0.3932 -0.4106 -0.1381
 7762W        W11813   8.586   7.602  12.880 -0.2046 -0.0959  0.2630
 7763W        W11814   0.646   4.283  12.408 -0.4171  0.1958  0.1491
 7764W        W11815   8.451   0.871   2.788  0.3334  0.1538  0.0784
 7765W        W11816   2.813   7.003   2.178 -0.0047  0.1818 -0.1005
 7766W        W11817   2.945   5.798  10.799  0.3460  0.3172 -0.0791
 7767W        W11818   2.677   7.659  13.280 -0.0030  0.0420 -0.1341
 7768W        W11819   4.663   9.560   0.742  0.4501 -0.1971  0.1095
 7769W        W11820   8.277   8.141   4.071  0.0138  0.2871  0.0892
 7770W        W11821   0.618   7.919   0.317  0.1455 -0.1278 -0.1494
 7771W        W11822   8.664   2.554   2.806  0.2132  0.0535 -0.0441
 7772W        W11823   6.027   0.786   1.531 -0.2132 -0.2110 -0.1157
 7773W        W11824   5.561   8.502   0.384  0.2553 -0.0148 -0.3493
 7774W        W11825   9.870   2.753   1.371 -0.0509 -0.1713 -0.2876
 7775W        W11826   8.583   2.186  13.728  0.2513  0.0913 -0.1849
 7776W        W11827   1.554   3.838   3.377 -0.0620 -0.0503 -0.2180
 7777W        W11828   3.598   9.452  13.887  0.0582  0.0456  0.0964
 7778W        W11829   8.423   4.697   5.100 -0.2137 -0.3113 -0.1949
 7779W        W11830   8.421   4.587   3.276 -0.2536 -0.2591 -0.0047
 7780W        W11831   8.666   6.425   1.228 -0.1045  0.0186 -0.0525
 7781W        W11832   3.793   8.651   3.926 -0.2663 -0.1122  0.0973
 7782W        W11833   3.065   8.916   9.525 -0.1448  0.2228 -0.1517
 7783W        W11834   9.677   4.967   1.022  0.0986  0.1416  0.2608
 7784W        W11835   6.758   3.165   3.372 -0.0442  0.2254  0.1033
 7785W        W11836   6.005   1.789   0.536  0.2582 -0.1045  0.3997
 7786W        W11837   9.264   4.516  13.391 -0.2294  0.2222 -0.1596
 7787W        W11838   9.712   0.918   0.144  0.3114  0.0838 -0.0347
 7788W        W11839   3.765   5.957   2.772  0.1161 -0.2044  0.0074
 7789W        W11840   1.849   5.562  13.475  0.0368  0.2031 -0.0050
 7790W        W11841   6.169   9.920  13.815 -0.3456 -0.1869  0.2745
 7791W        W11842   1.187   4.361  11.488 -0.3250  0.2031  0.1463
 7792W        W11843   4.320   9.134   4.766 -0.0912 -0.0306 -0.2121
 7793W        W11844   8.776   0.355   0.023  0.1050  0.1467 -0.0402
 7794W        W11845   4.602   1.595   3.396 -0.1596 -0.0533  0.1829
 7795W        W11846  10.005   5.100  12.156 -0.2520  0.1807  0.1885
 7796W        W11847   1.417   6.732   1.449 -0.1273 -0.0611  0.0047
 7797W        W11848   7.566   3.974   1.548  0.0006 -0.0072  0.0706
 7798W        W11849   3.105   2.450  10.698  0.5079  0.0906  0.1988
 7799W        W11850   3.210   8.844   8.921 -0.1174 -0.2652  0.0992
 7800W        W11851   4.004   3.466  10.461  0.1699  0.1069 -0.4661
 7801W        W11852   0.431   5.044  13.644  0.1494  0.2405 -0.0028
 7802W        W11853   9.647   5.184  12.576  0.0581 -0.1307  0.0024
 7803W        W11854   3.755   9.181   2.018 -0.1530  0.1232 -0.1223
 7804W        W11855   1.704   5.464   1.592 -0.0874  0.0212 -0.0411
 7805W        W11856   0.729   5.286  12.105 -0.0535 -0.4294 -0.3066
 7806W        W11857   0.952   5.722   4.003 -0.0763  0.1878 -0.0463
 7807W        W11858   8.289   6.952   1.659 -0.0089  0.1493 -0.0492
 7808W        W11859   2.909   8.321   1.470  0.1085 -0.1603  0.1946
 7809W        W11860   8.554   7.464   3.959  0.2426 -0.1476 -0.0568
 7810W        W11861   7.265   3.249   0.548 -0.1099  0.0840  0.0562
 7811W        W11862   9.550   5.717  13.480 -0.2644  0.2687 -0.1929
 7812W        W11863   9.057   6.901   2.339 -0.1268 -0.0122  0.2733
 7813W        W11864   6.714   7.750  12.755  0.0444  0.0879 -0.2590
 7814W        W11865   8.830   4.875  12.028 -0.1644  0.1394  0.0849
 7815W        W11866   5.756   3.066   0.856  0.3007  0.1963 -0.0410
 7816W        W11867   2.425   6.584   2.400  0.3801 -0.0255  0.1036
 7817W        W11868  10.036   1.294   1.754 -0.2701 -0.0863  0.1059
 7818W        W11869   9.798   7.450   1.317  0.1134 -0.2426  0.2016
 7819W        W11870   3.752   0.765   4.089  0.1834  0.0315  0.3274
 7820W        W11871   3.169   1.933  10.886  0.0125  0.2988  0.0925
 7821W        W11872  10.112   5.297   9.299  0.0988  0.1198  0.0757
 7822W        W11873   0.686  10.021  10.132  0.3790  0.3969  0.2198
 7823W        W11874   8.556   6.195   3.969 -0.1482  0.0547 -0.1517
 7824W        W11875   3.002   8.126  12.039  0.0432  0.0031  0.0419
 7825W        W11876   8.030   5.304   4.003 -0.1133  0.1536 -0.1248
 7826W        W11877   0.678   4.143   2.058 -0.2255  0.1772  0.2350
 7827W        W11878   7.933   3.004   2.922 -0.3548  0.0892 -0.3235
 7828W        W11879   2.273   7.125   0.276  0.0277 -0.0083 -0.0865
 7829W        W11880   5.356   7.070   1.982  0.0811  0.0366  0.4469
 7830W        W11881   1.991   1.269  11.423  0.1285  0.0337  0.1963
 7831W        W11882   4.441   8.860   0.844 -0.2621  0.1364  0.1461
 7832W        W11883   0.093   7.128   3.161 -0.2835 -0.1208  0.0857
 7833W        W11884   7.352   9.790  13.193  0.1735  0.1940 -0.0268
 7834W        W11885   5.462   0.870  12.571  0.3044  0.4132 -0.3937
 7835W        W11886   7.364   0.007   3.685 -0.1735 -0.2677 -0.2522
 7836W        W11887   6.730  10.082   0.594 -0.1363 -0.0772 -0.3571
 7837W        W11888   5.750   6.421   2.301 -0.4034  0.3152  0.0572
 7838W        W11889   9.557   5.521  10.065 -0.3603 -0.2405  0.0251
 7839W        W11890   5.388   3.256  10.260  0.1602 -0.1936  0.3008
 7840W        W11891   4.669   5.838   1.958  0.0135 -0.2431 -0.1168
 7841W        W11892   5.394   5.215  11.388 -0.0110  0.1544 -0.0564
 7842W        W11893   1.463  10.008   4.953  0.1905 -0.1089 -0.1373
 7843W        W11894   7.244   3.791  12.040  0.2103  0.0182 -0.0342
 7844W        W11895   8.811   2.702   0.713 -0.1450 -0.0169  0.1781
 7845W        W11896   8.888   7.934   0.057  0.2260 -0.1076 -0.2977
 7846W        W11897   3.365   6.629   1.048 -0.0624  0.2157 -0.1608
 7847W        W11898   2.757   1.589   3.203 -0.0077  0.1616  0.1340
 7848W        W11899   4.386   8.863  12.959  0.2011 -0.0628 -0.1678
 7849W        W11900   3.226   5.692  12.174 -0.1648 -0.0895  0.1144
 7850W        W11901   0.791   9.195   4.388 -0.0873 -0.3691 -0.0336
 7851W        W11902   4.239   1.082   4.090 -0.0442 -0.2854 -0.3604
 7852W        W11903   2.113   1.356   4.118 -0.0110  0.1269  0.0526
 7853W        W11904   5.166   1.017  13.419  0.0277  0.0443  0.1694
 7854W        W11905   7.328   5.971  12.052 -0.2016  0.0299  0.0736
 7855W        W11906   4.917   4.319  11.166  0.0083 -0.1453  0.0839
 7856W        W11907   1.211   2.058  12.847  0.0914 -0.0064  0.1234
 7857W        W11908   1.907   1.878   9.323 -0.0277  0.0203 -0.0077
 7858W        W11909   7.172   6.669   0.339  0.0065  0.2531 -0.1630
 7859W        W11910   6.801   3.441   0.346 -0.3969 -0.2516 -0.1283
 7860W        W11911   2.043   0.489   2.743  0.0279  0.1789  0.1488
 7861W        W11912   8.780   2.680  11.028 -0.1533 -0.0193  0.1578
 7862W        W11913   0.888   2.394   9.853  0.1340  0.2362  0.0514
 7863W        W11914   1.773   7.287  13.010  0.2041 -0.1021 -0.1636
 7864W        W11915   9.188   3.083  11.135  0.1888 -0.2412 -0.1859
 7865W        W11916   5.363  10.107   3.558 -0.1304 -0.2382 -0.1763
 7866W        W11917   6.542   2.076  13.767  0.1561 -0.0294  0.4099
 7867W        W11918   6.100   7.127   3.049 -0.1915  0.0552  0.2528
 7868W        W11919   5.668   4.529   0.228 -0.1295  0.0577  0.0104
 7869W        W11920   5.545   5.148   1.934  0.0399 -0.3659 -0.0031
 7870W        W11921   2.657   1.398   5.458 -0.0637 -0.1431  0.2209
 7871W        W11922   1.454   2.738   8.555  0.2637 -0.2548  0.0187
 7872W        W11923   8.288   7.445   0.344  0.1995  0.0057 -0.0461
 7873W        W11924   9.738   1.991  12.844 -0.0821 -0.3643 -0.3425
 7874W        W11925   1.219   8.116  13.319  0.0944  0.2350  0.1977
 7875W        W11926   1.410   8.287   2.817  0.1578 -0.0725  0.0906
 7876W        W11927   8.228   4.066   7.876 -0.0813 -0.0137 -0.2129
 7877W        W11928   5.508   9.639   4.876 -0.0688  0.4106 -0.0730
 7878W        W11929   2.857   8.432   4.622  0.0962  0.1311 -0.0257
 7879W        W11930   5.866   2.573   9.885  0.3413 -0.1209 -0.1557
 7880W        W11931   4.503   8.934   9.361 -0.1945 -0.2649 -0.4200
 7881W        W11932   9.142   8.966  12.535  0.3831  0.2322 -0.0466
 7882W        W11933   3.863   4.877  13.652 -0.0473  0.1540 -0.0066
 7883W        W11934   1.452   8.515  10.508  0.2108 -0.2801  0.1209
 7884W        W11935   3.788   0.769   1.578  0.1784  0.0551 -0.0455
 7885W        W11936   2.999   3.862   2.003  0.2801  0.0070  0.1713
 7886W        W11937   6.683   1.639  12.111  0.4188 -0.0279 -0.1022
 7887W        W11938   9.069   3.092   5.109  0.0113 -0.0682  0.1308
 7888W        W11939   6.765   0.631  13.855  0.1276  0.0921 -0.1186
 7889W        W11940   5.746   2.038   9.049 -0.1065 -0.1321  0.4528
 7890W        W11941   8.674   3.450   2.705  0.0735 -0.1232 -0.0110
 7891W        W11942   4.948   6.475   0.533 -0.3802 -0.0720 -0.1074
 7892W        W11943   8.446   4.675  13.046 -0.2308  0.0027  0.0854
 7893W        W11944   6.012   6.912  11.067  0.1829 -0.0112 -0.1972
 7894W        W11945   9.193   7.212   2.809  0.0772  0.1468  0.0979
 7895W        W11946   9.953   3.995  10.649 -0.1823 -0.2607 -0.0784
 7896W        W11947   6.090   2.326  10.465  0.2194 -0.0339  0.0332
 7897W        W11948   3.739   4.283   3.426  0.0856  0.0441 -0.0285
 7898W        W11949   2.570   1.750   1.759  0.0638 -0.0327 -0.2693
 7899W        W11950   8.050   5.494  11.117  0.0786  0.1328  0.0361
 7900W        W11951   4.429   3.790   0.154  0.1533 -0.1371 -0.1847
 7901W        W11952   1.801   5.823   0.444 -0.0074 -0.0416 -0.3152
 7902W        W11953   4.218   4.610   9.991 -0.2416  0.0294 -0.1069
 7903W        W11954   1.984   8.383  11.844 -0.2789  0.4176 -0.3456
 7904W        W11955   5.648   4.378  11.508 -0.0216 -0.0193  0.0113
 7905W        W11956   0.894   1.297   4.682  0.2254  0.0383  0.1376
 7906W        W11957   2.384   2.442  10.810  0.3149  0.1192  0.1244
 7907W        W11958   1.874   8.981   2.035 -0.1798 -0.2564 -0.0119
 7908W        W11959   2.078   3.899   0.804  0.1470  0.2006  0.2293
 7909W        W11960   8.978   6.067   4.270  0.4401  0.1170  0.1922
 7910W        W11961   9.166   0.892   3.614  0.0125 -0.1138  0.0258
 7911W        W11962   5.389   4.643  13.299  0.0117 -0.2094 -0.0996
 7912W        W11963   2.086   6.960  13.839  0.0559 -0.0585 -0.1937
 7913W        W11964   2.411   0.885   4.174  0.1946  0.2110  0.2174
 7914W        W11965   7.911   8.774   9.670  0.0541 -0.1428 -0.0888
 7915W        W11966   5.271   5.444  13.216 -0.4878  0.2636  0.0514
 7916W        W11967   0.354   5.403  13.287 -0.0683  0.3083  0.0103
 7917W        W11968   9.581   5.644   8.704 -0.1912 -0.0408 -0.3823
 7918W        W11969   5.164   9.075   9.766  0.3575 -0.2858  0.1981
 7919W        W11970   8.047   3.747  13.097 -0.0104  0.1806  0.1954
 7920W        W11971   4.611   5.472  10.137  0.2869 -0.1321 -0.2017
 7921W        W11972   5.983   7.907  10.894 -0.1903 -0.0563 -0.0862
 7922W        W11973   2.524   9.548   3.077 -0.0768 -0.1160 -0.3524
 7923W        W11974   7.666   3.198   1.525  0.0135  0.2983 -0.1036
 7924W        W11975   8.085   8.092   0.937  0.0171 -0.4295  0.0340
 7925W        W11976   5.787   8.120  11.446  0.0875  0.0930 -0.0916
 7926W        W11977   7.364   3.722   4.079 -0.0509  0.0911 -0.3107
 7927W        W11978   4.751   2.145   9.786 -0.0370 -0.2607 -0.0949
 7928W        W11979   3.414   0.653  11.910  0.0835  0.0475  0.0967
 7929W        W11980   2.471   7.197   2.473  0.0240 -0.1901 -0.0409
 7930W        W11981   7.414   3.926   9.119  0.1611  0.3053  0.0990
 7931W        W11982   3.016   0.600  10.173  0.0123  0.0569  0.1155
 7932W        W11983   0.283   1.250  12.436 -0.0776 -0.1309  0.1462
 7933W        W11984   0.480   5.477   4.897  0.0419 -0.3421  0.1808
 7934W        W11985   4.023   0.117   2.490 -0.4392  0.2337 -0.3248
 7935W        W11986   1.520   5.004   2.931  0.1392 -0.1503 -0.0591
 7936W        W11987   2.221   0.602   9.478 -0.1934  0.1155  0.0433
 7937W        W11988   8.019   5.693   5.266 -0.1621 -0.0510  0.0330
 7938W        W11989   9.720   4.295  13.386  0.1839  0.2936  0.2818
 7939W        W11990   2.789   1.757  12.428 -0.1328 -0.3761 -0.2793
 7940W        W11991   7.783   5.769  12.147 -0.2335  0.1681 -0.1293
 7941W        W11992   9.206   5.230  10.037  0.2574 -0.0886 -0.0676
 7942W        W11993   0.960   1.895   9.197  0.1123  0.2027 -0.0882
 7943W        W11994   5.654   0.499  12.332  0.4891 -0.3013  0.2996
 7944W        W11995   3.246   4.120   3.387  0.1381 -0.0071  0.1835
 7945W        W11996   2.363   6.375  11.147  0.0636 -0.0690 -0.2313
 7946W        W11997   1.270   3.957  13.049  0.1211 -0.0959  0.2861
 7947W        W11998   2.607   7.841  10.822 -0.2605 -0.0280  0.2823
 7948W        W11999   7.773   6.206   4.488 -0.2126  0.1357  0.1390
 7949W        W12000   8.742   6.049  10.513  0.0043 -0.0433  0.2673
 7950W        W12001   0.795   1.957  12.523 -0.1977 -0.0731 -0.1328
 7951W        W12002   1.008   1.962  13.509 -0.0310  0.0969  0.1145
 7952W        W12003   1.729   7.608   2.407  0.0004 -0.0132 -0.1129
 7953W        W12004   9.671   5.839  11.984  0.3754  0.0335  0.0765
 7954W        W12005   3.268   9.937   5.248  0.2318 -0.0493  0.0834
 7955W        W12006   9.818   1.731   1.787 -0.0928 -0.0038  0.1983
 7956W        W12007   3.780   3.204  11.927 -0.4266  0.1444  0.0148
 7957W        W12008   9.803   3.513   5.532 -0.0458  0.1050 -0.0807
 7958W        W12009   9.009   4.957  10.427 -0.0349 -0.1495  0.1868
 7959W        W12010   4.840   5.063   3.608  0.0033  0.3436 -0.0070
 7960W        W12011   4.765   1.200  12.665  0.1935  0.0876 -0.0509
 7961W        W12012   2.382   4.121   3.744  0.0299  0.3995  0.0789
 7962W        W12013   6.362   9.336  13.463 -0.0189 -0.1513  0.0025
 7963W        W12014   3.536   7.099   3.843  0.4066  0.1906  0.1234
 7964W        W12015   2.224   2.841   4.049  0.4089  0.1598  0.0593
 7965W        W12016   9.620   6.869  12.815 -0.0222  0.0814 -0.1599
 7966W        W12017   3.730   0.813   0.050  0.0685  0.0279  0.0056
 7967W        W12018   2.950   9.358  12.830 -0.2318 -0.2189 -0.0215
 7968W        W12019   6.964   6.416  12.110 -0.5487  0.0134 -0.0521
 7969W        W12020   2.134   0.106   0.165  0.1254  0.3683 -0.0509
 7970W        W12021   3.670   7.946   4.360 -0.0565 -0.0711 -0.1158
 7971W        W12022   7.736   4.155   5.296 -0.0470 -0.1673 -0.0371
 7972W        W12023   6.958   9.080   1.459  0.4207  0.1727  0.3078
 7973W        W12024   3.074   9.417  10.902 -0.1200 -0.2558  0.1009
 7974W        W12025   9.677   2.385   0.873  0.1095 -0.0388 -0.1617
 7975W        W12026   9.973   0.072   1.975 -0.0328 -0.2138 -0.3053
 7976W        W12027   9.316   2.279   9.644 -0.1137  0.0414  0.1532
 7977W        W12028   3.600   5.996  12.258  0.0636  0.4013  0.0275
 7978W        W12029   9.914   3.092   2.620 -0.1230 -0.0345 -0.1130
 7979W        W12030   7.702   7.022  13.142 -0.0942 -0.0244  0.0594
 7980W        W12031   0.549   4.524   3.013  0.0383  0.1616  0.0871
 7981W        W12032   5.509   6.213  13.799 -0.1016  0.3757  0.3355
 7982W        W12033   2.789   8.782   2.226 -0.1890 -0.0954 -0.0509
 7983W        W12034   2.185   1.407  13.688 -0.0851 -0.1702  0.1273
 7984W        W12035   1.413   6.836   4.344 -0.1287  0.0707 -0.1695
 7985W        W12036   3.807   7.024  12.525 -0.2224 -0.1447  0.1467
 7986W        W12037   6.630   5.466  12.027 -0.2229  0.0148 -0.0801
 7987W        W12038   3.546   1.919   9.436  0.0800  0.1132 -0.0794
 7988W        W12039   8.758   7.407   2.394 -0.3208  0.2413 -0.0816
 7989W        W12040   2.994   4.180  10.177 -0.0133 -0.0178  0.0856
 7990W        W12041   8.589   0.615  11.943  0.0432 -0.0353  0.2218
 7991W        W12042   1.459   1.032   1.385 -0.2715  0.1049  0.1406
 7992W        W12043   7.940   2.218  10.727 -0.0944  0.1101  0.0723
 7993W        W12044   3.304   2.406   5.108  0.2848  0.0245  0.4147
 7994W        W12045   1.813   8.848   1.108  0.1585 -0.0062 -0.1181
 7995W        W12046   8.718   0.165  11.689 -0.0664  0.2148 -0.1577
 7996W        W12047   1.728   4.785   0.546 -0.0098  0.2919  0.0669
 7997W        W12048   2.401   7.071   2.948 -0.2432 -0.1539  0.2922
 7998W        W12049   3.581   8.930   3.520 -0.2223 -0.0516  0.0049
 7999W        W12050   5.584   2.442   3.959  0.0048 -0.1539 -0.1309
 8000W        W12051   4.272   9.836   2.094 -0.3152  0.1440 -0.0351
 8001W        W12052   6.075   3.508   0.717  0.1195  0.0856 -0.3239
 8002W        W12053   6.768   9.013  10.935 -0.1371  0.1767  0.3360
 8003W        W12054   9.285   6.923  11.450 -0.0038  0.1355  0.0797
 8004W        W12055   9.217   2.072   2.776 -0.3518 -0.1103  0.1406
 8005W        W12056   6.278   8.198   4.550  0.4259 -0.0406  0.2251
 8006W        W12057   1.590   6.139   2.830 -0.1535  0.1353 -0.2035
 8007W        W12058   3.537   4.229  11.677 -0.1752  0.2124  0.0269
 8008W        W12059   5.247   5.999   4.429 -0.1046 -0.0677  0.1769
 8009W        W12060  10.004   8.564   2.192  0.1130 -0.1131 -0.2782
 8010W        W12061  10.177   0.167  10.677 -0.0532 -0.0478 -0.0747
 8011W        W12062   1.767   0.489  11.942  0.1464 -0.0012 -0.3184
 8012W        W12063   0.437   0.996   9.398 -0.0118 -0.4125 -0.1784
 8013W        W12064   5.766   5.887  10.814 -0.0673 -0.1794  0.2136
 8014W        W12065   8.362   6.302  13.071 -0.4065  0.0637  0.1125
 8015W        W12066  10.027   7.689   2.602  0.0920  0.0207 -0.0591
 8016W        W12067   6.034   4.022   2.323  0.2203 -0.0641 -0.0383
 8017W        W12068   6.153   9.207  12.339  0.1135 -0.1570 -0.1603
 8018W        W12069   5.891   6.860  11.685 -0.0451  0.1373 -0.1417
 8019W        W12070   0.682   2.869   1.542 -0.4398  0.1271 -0.5592
 8020W        W12071   0.098   6.094   2.395 -0.0223 -0.0153  0.2461
 8021W        W12072   2.081   9.657   3.294 -0.2771 -0.0305  0.0995
 8022W        W12073   0.795   5.058   0.925 -0.1474 -0.1651  0.0199
 8023W        W12074   6.262   2.836   0.087  0.1038 -0.0309  0.2382
 8024W        W12075   1.944   4.132  13.225 -0.0602 -0.0599 -0.2371
 8025W        W12076   4.226  10.164   2.898 -0.3295 -0.2031 -0.1535
 8026W        W12077   1.153   2.505  13.223  0.0615  0.1492  0.2685
 8027W        W12078   4.521   2.145   0.353  0.0620 -0.2441  0.2515
 8028W        W12079   9.243   7.801  12.276  0.1740 -0.2195 -0.0496
 8029W        W12080   7.553   1.909  10.905 -0.0485  0.1086 -0.3216
 8030W        W12081   0.345   4.865  13.202 -0.1803  0.2521 -0.1658
 8031W        W12082   0.890   0.555   0.839  0.0261 -0.2986 -0.2986
 8032W        W12083   3.658   8.617   2.114  0.1774 -0.1620  0.5309
 8033W        W12084   1.366   6.653  12.205 -0.1216 -0.1296 -0.2647
 8034W        W12085   3.619   2.050  12.845  0.0819  0.4543 -0.2315
 8035W        W12086   7.390   6.890   4.105 -0.0459  0.0877 -0.2931
 8036W        W12087   9.762   9.700   1.307  0.1963 -0.0184 -0.1768
 8037W        W12088   3.531   1.587  13.095  0.4258 -0.2347  0.0653
 8038W        W12089   0.103   3.846   2.834  0.1687  0.0065 -0.1378
 8039W        W12090   3.894   6.314   1.349 -0.1715  0.2080  0.2055
 8040W        W12091   6.889   1.312   4.579  0.1072 -0.3187 -0.2168
 8041W        W12092   0.065   4.811   0.016 -0.3941  0.0288 -0.0137
 8042W        W12093   3.356   4.655   4.170  0.2093 -0.0563  0.3326
 8043W        W12094   0.169   9.511  12.197 -0.1649 -0.1367 -0.1584
 8044W        W12095   5.227   9.996   1.792 -0.0299  0.1937  0.0286
 8045W        W12096   7.345   5.748   3.407  0.1427 -0.0333  0.2577
 8046W        W12097   1.851   2.361  10.947  0.2900 -0.0805 -0.0498
 8047W        W12098   5.108   6.481   2.466  0.1478 -0.0221 -0.0590
 8048W        W12099   4.219   3.608  11.284  0.2742  0.1744  0.0404
 8049W        W12100   4.076   0.548   0.321  0.0629  0.0439  0.0654
 8050W        W12101   1.068   2.596   4.250 -0.2825  0.1562  0.2918
 8051W        W12102   9.195   9.191   0.006  0.0024 -0.1168 -0.2181
 8052W        W12103   4.251   7.747   1.321  0.1413  0.1119 -0.1973
 8053W        W12104   2.435   9.349   0.260  0.0837 -0.2027 -0.1671
 8054W        W12105   2.068   3.166  12.696 -0.0623 -0.0076 -0.1154
 8055W        W12106   1.970   9.828  11.120 -0.2468 -0.3502 -0.0294
 8056W        W12107   8.908   4.044   0.293 -0.2601  0.2257 -0.2845
 8057W        W12108   6.178   5.314   2.615  0.1920 -0.0014  0.1208
 8058W        W12109   9.123   2.772   5.465  0.1573  0.1227 -0.0389
 8059W        W12110  10.006   7.996   3.370 -0.0441  0.1583  0.0506
 8060W        W12111   3.559   2.076   2.263 -0.0079  0.2890  0.0147
 8061W        W12112  10.140   4.655   4.250  0.5055  0.2944  0.0366
 8062W        W12113   6.445   1.538   9.446 -0.2043 -0.0478 -0.0320
 8063W        W12114   3.912   2.083   4.510  0.1026 -0.1020 -0.0334
 8064W        W12115   8.099   4.254   1.456  0.0031 -0.3443  0.2829
 8065W        W12116   3.334   1.941  11.675 -0.3632  0.0807 -0.0548
 8066W        W12117   4.483   8.419   9.419 -0.1599 -0.1053 -0.0535
 8067W        W12118   1.233   5.846   2.519 -0.1558  0.3043  0.0987
 8068W        W12119   8.191   0.525  12.827 -0.1030  0.1134  0.2157
 8069W        W12120   6.216   5.944   3.516 -0.2263  0.2329  0.0135
 8070W        W12121   9.023   0.332  12.119 -0.1156  0.2886 -0.1401
 8071W        W12122   7.580   2.740   1.695 -0.1597 -0.0978  0.2630
 8072W        W12123   6.480   0.979   0.066  0.2200 -0.0279 -0.0950
 8073W        W12124   3.308   3.016  12.962 -0.1070  0.2755 -0.3021
 8074W        W12125   0.871   1.806   0.904 -0.1785  0.2464  0.2697
 8075W        W12126   6.234   5.991  10.093  0.0132 -0.0772  0.0643
 8076W        W12127   9.362   7.860   2.268 -0.0915  0.1761 -0.0236
 8077W        W12128   3.013   4.552   0.279  0.2105  0.1918  0.1903
 8078W        W12129   3.455   4.485   9.839 -0.0302 -0.0250  0.4201
 8079W        W12130   1.352   8.004   1.695 -0.1314 -0.1637  0.0630
 8080W        W12131   5.613   8.699   2.434  0.2236  0.1735  0.1345
 8081W        W12132   6.537   1.145   0.784 -0.0178  0.1470 -0.1265
 8082W        W12133   6.485   3.583  13.149  0.0037 -0.0777 -0.0760
 8083W        W12134   8.342   9.370   1.131 -0.1164  0.1526 -0.2050
 8084W        W12135   0.411   5.100  12.766 -0.1117 -0.2991  0.1197
 8085W        W12136   4.558   5.467   4.870 -0.1484 -0.1217 -0.0045
 8086W        W12137   7.730   3.568   0.629  0.3802 -0.0478 -0.1344
 8087W        W12138   5.579   3.983  12.843 -0.0468  0.0968 -0.0629
 8088W        W12139   4.676   0.071   3.067 -0.1602  0.0383 -0.0757
 8089W        W12140   0.794   2.732  10.630 -0.0623  0.0820 -0.2858
 8090W        W12141   0.160  10.103  13.258 -0.0064 -0.3577 -0.0135
 8091W        W12142   5.408   1.459  11.571 -0.2588  0.2893  0.2591
 8092W        W12143   6.052   6.075   0.096  0.1530 -0.1149 -0.0616
 8093W        W12144   0.032   9.093  11.080 -0.0039  0.0180 -0.0922
 8094W        W12145   5.170   7.996  13.310  0.1242  0.0695  0.0336
 8095W        W12146   8.923   2.791   1.790  0.0879  0.1113  0.0565
 8096W        W12147   7.095   8.012  12.529 -0.2655  0.1110  0.1567
 8097W        W12148   0.921   7.151  13.303  0.2351  0.2396  0.2190
 8098W        W12149   4.853   1.050  10.273 -0.3616 -0.2860 -0.1115
 8099W        W12150   7.113   1.808   2.122 -0.1609  0.0616  0.2272
 8100W        W12151   9.235   9.429  11.076 -0.3623 -0.0976  0.0259
 8101W        W12152   4.544   9.175  12.620 -0.0361 -0.2387  0.0414
 8102W        W12153   9.339   5.508  11.111 -0.0607 -0.2716  0.2230
 8103W        W12154   9.660   8.455  11.897  0.0596 -0.1257  0.1451
 8104W        W12155   8.876   2.371  13.226 -0.3594  0.0596 -0.1182
 8105W        W12156   8.480   9.469   0.688  0.0171  0.0734  0.1210
 8106W        W12157   3.652   3.686   0.940  0.2354 -0.0503  0.2230
 8107W        W12158   7.252   6.830   3.167 -0.1928 -0.0220  0.3356
 8108W        W12159   4.786   2.869   0.563 -0.2426  0.2867 -0.0357
 8109W        W12160   3.868   7.140  10.166  0.1185  0.1659 -0.2475
 8110W        W12161   5.616   7.078  12.035 -0.2624  0.0359  0.2559
 8111W        W12162   1.366   3.087   4.884  0.0970 -0.0517  0.0802
 8112W        W12163   7.354   5.166  13.932 -0.2132  0.1760  0.0166
 8113W        W12164   4.597   7.694   9.968 -0.3153  0.1157 -0.1703
 8114W        W12165   3.285   8.591   1.397  0.1796  0.4398 -0.1305
 8115W        W12166   6.394   8.621  13.849  0.4009  0.3302 -0.1959
 8116W        W12167   6.587   9.894  12.281  0.1102 -0.2525 -0.0058
 8117W        W12168   3.676   0.014   1.235 -0.2881 -0.0029  0.0364
 8118W        W12169   2.605   2.594   1.770 -0.1393 -0.0867 -0.1864
 8119W        W12170   6.271  10.138  10.314  0.1162 -0.2535 -0.1797
 8120W        W12171   1.223   4.737   3.237  0.2622 -0.0145  0.1645
 8121W        W12172   0.571   4.267   1.584  0.1120  0.0191 -0.0645
 8122W        W12173   8.099   6.330   3.017  0.1467  0.2778 -0.0459
 8123W        W12174   2.852   9.648  10.539 -0.0084 -0.0478  0.0892
 8124W        W12175   4.560   1.111  11.671  0.2770 -0.0238  0.3585
 8125W        W12176   8.077   2.126  13.881  0.0896 -0.1014  0.2365
 8126W        W12177   4.024   1.876  10.676  0.2408 -0.0207 -0.0558
 8127W        W12178   8.218   2.456  12.438  0.3345  0.0485  0.1950
 8128W        W12179   8.734   3.242   1.802  0.0181 -0.0367  0.1736
 8129W        W12180  10.049   8.089   4.326 -0.1370 -0.2733  0.3366
 8130W        W12181   5.404   1.734   3.833  0.0176  0.1572 -0.0458
 8131W        W12182   3.302   4.251   2.086  0.0899  0.0481 -0.1860
 8132W        W12183   0.390   3.527  10.687  0.1780  0.3571  0.0291
 8133W        W12184   5.343   5.486   8.651 -0.1980 -0.3241  0.0653
 8134W        W12185   6.282   4.226   4.688  0.3995  0.0652  0.0988
 8135W        W12186   8.078   1.831   8.677  0.0219  0.0051 -0.1609
 8136W        W12187   1.303   0.582  13.946 -0.4073  0.2870  0.0264
 8137W        W12188   9.619   5.753  10.727  0.1190 -0.0045 -0.1570
 8138W        W12189   9.503   8.609  10.852  0.0834 -0.3153 -0.1750
 8139W        W12190   0.930   9.997   0.800 -0.1059 -0.1111 -0.1327
 8140W        W12191   9.123   3.430  10.532 -0.0561 -0.0238  0.2232
 8141W        W12192   5.378   5.188   0.063 -0.0225 -0.0761  0.1881
 8142W        W12193   7.786   8.299  11.120 -0.2114  0.1574  0.2734
 8143W        W12194   0.679   4.607   0.559 -0.0490  0.3306 -0.2209
 8144W        W12195   2.370   7.091   4.780  0.1279  0.2128 -0.0943
 8145W        W12196   0.970   6.039  10.547 -0.0594  0.2820  0.1287
 8146W        W12197   5.190   2.477   5.256  0.2433  0.2394  0.1510
 8147W        W12198   7.983   1.363  12.124  0.0276  0.0307  0.0898
 8148W        W12199   0.955   4.593  11.982  0.0404 -0.0290 -0.3606
 8149W        W12200   9.137   8.781  10.215  0.0217 -0.0943 -0.1955
 8150W        W12201   6.969   9.235   2.365 -0.4319 -0.0380 -0.3399
 8151W        W12202   6.807   4.568  10.050  0.1033 -0.0403  0.3107
 8152W        W12203   6.266   2.258   9.946 -0.0575 -0.0694 -0.1200
 8153W        W12204   1.167   1.753  10.622  0.0655 -0.2099 -0.0150
 8154W        W12205   8.835   2.070   9.724  0.0952 -0.2530 -0.1464
 8155W        W12206   3.626   0.197   0.283 -0.2181  0.2934 -0.1319
 8156W        W12207   3.011   7.533   1.517  0.1037  0.0469 -0.1451
 8157W        W12208   6.275   3.123   0.974 -0.1024  0.0580  0.0091
 8158W        W12209   9.826   0.298   1.485 -0.3305  0.1415  0.0566
 8159W        W12210   5.591   0.093   2.129  0.0487 -0.1975 -0.2987
 8160W        W12211   7.659   7.176   2.955  0.1045  0.0577  0.0285
 8161W        W12212   0.118   7.631   3.494  0.0653  0.1831  0.0040
 8162W        W12213  10.109   3.654  13.459  0.3152  0.2182 -0.0876
 8163W        W12214   8.080   1.530  12.707  0.0477  0.0731  0.1608
 8164W        W12215   8.467   2.067   1.045  0.0916  0.2677  0.0558
 8165W        W12216   9.421   7.550  13.500 -0.0151 -0.2905 -0.0642
 8166W        W12217  10.154   2.307   0.618  0.0329 -0.1557  0.1977
 8167W        W12218   4.939   0.710  12.731  0.1324 -0.2472  0.0061
 8168W        W12219   2.295   6.414  13.166  0.2183 -0.1154  0.1656
 8169W        W12220   2.414   9.693   1.395 -0.0271 -0.1447 -0.0214
 8170W        W12221   0.493   3.591  10.057 -0.0173 -0.0948  0.0022
 8171W        W12222   4.770   3.140   4.477  0.2264  0.2027  0.0486
 8172W        W12223   3.297   1.294  13.437 -0.0073 -0.1450  0.2584
 8173W        W12224   3.737  10.081   3.010  0.2170 -0.0860  0.2592
 8174W        W12225   8.478   5.204  12.055  0.0588  0.2244  0.2519
 8175W        W12226   4.129   1.211   9.982  0.1168 -0.0492 -0.0893
 8176W        W12227   8.857   2.244   4.078  0.2844 -0.3658 -0.1486
 8177W        W12228   0.352   1.205  10.374  0.1377  0.0917 -0.0630
 8178W        W12229   7.497   9.667   0.958 -0.1774 -0.1938  0.1399
 8179W        W12230   1.022   9.490  11.165  0.1173  0.0412  0.0679
 8180W        W12231   5.071   8.882   1.190 -0.2150  0.1757  0.0430
 8181W        W12232   4.240   7.978   9.200 -0.0653  0.2016  0.0066
 8182W        W12233   3.989   4.960   9.791 -0.1807 -0.2023 -0.3401
 8183W        W12234   0.906   4.990   0.279  0.1023 -0.3294 -0.0325
 8184W        W12235   1.817   3.434   9.103 -0.3186  0.1622  0.1673
 8185W        W12236   7.539   6.309   0.542  0.0264  0.0833  0.1094
 8186W        W12237   1.785   8.099  12.360 -0.1867 -0.4319  0.4677
 8187W        W12238   4.440   8.961   9.910  0.1840  0.2271  0.0683
 8188W        W12239   6.867   4.588   1.486 -0.0510 -0.0718 -0.1610
 8189W        W12240   4.829   6.155  10.092 -0.2074  0.0607  0.2989
 8190W        W12241   4.285   6.524  11.280 -0.1619  0.0787 -0.1216
 8191W        W12242   8.954   6.460  12.291  0.0522  0.0163 -0.0353
 8192W        W12243   8.952   1.436  11.523 -0.0700 -0.0045  0.2659
 8193W        W12244   1.111   1.170   2.611 -0.0831 -0.2266 -0.2848
 8194W        W12245   9.153   8.545  11.595  0.1977 -0.1199 -0.1428
 8195W        W12246   5.719   4.260  13.224 -0.0967 -0.0996  0.1740
 8196W        W12247   3.767   8.624   9.921 -0.0981  0.0366  0.2009
 8197W        W12248   9.241   5.554   0.404 -0.1031 -0.0526  0.1595
 8198W        W12249   2.853   6.096   5.947 -0.0301 -0.2227  0.2183
 8199W        W12250   8.758   2.147   3.040 -0.3461  0.1202 -0.0309
 8200W        W12251   4.640   4.591   3.653 -0.1149 -0.1639 -0.4551
 8201W        W12252   4.986   6.377   1.184 -0.1398  0.1236  0.0187
 8202W        W12253   2.028   5.175  10.946 -0.1363 -0.0268  0.2096
 8203W        W12254   7.089   0.331  13.562  0.1309 -0.1219  0.0132
 8204W        W12255   0.251   5.194   2.307  0.0106  0.1133  0.0832
 8205W        W12256   2.285   0.729  10.842  0.0946 -0.3932 -0.0466
 8206W        W12257   4.129   3.559   3.543 -0.0237  0.3599  0.1360
 8207W        W12258   7.302   2.908  11.477 -0.1260 -0.1501 -0.2179
 8208W        W12259   8.146   8.243  13.587  0.2612  0.2357  0.0836
 8209W        W12260   1.917   6.837   4.571  0.0504 -0.0244  0.3388
 8210W        W12261   2.876   6.471   3.597  0.0582  0.1655 -0.2468
 8211W        W12262   2.362   1.875   4.150  0.1110 -0.1337  0.1747
 8212W        W12263   7.796   5.888   3.205  0.0195 -0.1020  0.0700
 8213W        W12264   5.394   6.676  13.918 -0.0404 -0.0766  0.2670
 8214W        W12265   8.324   2.938  12.429 -0.2290  0.1860  0.2186
 8215W        W12266   8.503   1.510   1.200  0.2007 -0.3939 -0.0700
 8216W        W12267  10.085   2.199  13.200 -0.0157  0.1747 -0.0324
 8217W        W12268   0.613   6.365  13.016  0.0993 -0.3249  0.0877
 8218W        W12269   7.503   9.179   1.750 -0.0184 -0.0949  0.0494
 8219W        W12270   4.692   6.009   0.652 -0.1204 -0.0842  0.0076
 8220W        W12271   3.471   3.221   4.534  0.0964  0.0176 -0.3819
 8221W        W12272   9.729   5.614   9.604  0.0789 -0.2734 -0.2071
 8222W        W12273   1.884   8.712  10.270 -0.3926  0.1065  0.2958
 8223W        W12274   6.100   3.255  13.313 -0.1440 -0.1259 -0.0357
 8224W        W12275   1.913   4.959   0.131  0.0222  0.2051  0.2985
 8225W        W12276   4.029   3.016   0.335  0.1897  0.0576  0.2894
 8226W        W12277   2.510   5.655  10.565 -0.3237 -0.2449  0.0055
 8227W        W12278   9.434   0.994  10.382  0.0015 -0.2367  0.4641
 8228W        W12279   3.014   9.760  13.122 -0.1103  0.0973 -0.0916
 8229W        W12280   9.168   4.968  13.647 -0.2472  0.2213  0.0398
 8230W        W12281   4.995   4.391   4.984  0.1911 -0.2032 -0.0669
 8231W        W12282   4.338   4.998   4.597  0.0135 -0.0433 -0.4044
 8232W        W12283   8.460   5.232  11.111  0.0790  0.2411  0.3220
 8233W        W12284   0.459   6.950   2.191 -0.0214 -0.2234 -0.0928
 8234W        W12285   6.794   7.254   0.965 -0.0077  0.2882 -0.2680
 8235W        W12286   4.299   3.234  10.994 -0.0256  0.2002  0.0633
 8236W        W12287   9.343   0.273   2.958 -0.2567  0.0718  0.2092
 8237W        W12288   4.347   7.418   3.765 -0.2064 -0.1555  0.2022
 8238W        W12289   8.269   8.835  10.327  0.2133 -0.0933  0.0550
 8239W        W12290   9.636   8.520  12.718 -0.3354 -0.0035  0.2050
 8240W        W12291   1.139   9.533   4.284 -0.1831  0.1848 -0.1216
 8241W        W12292   0.673   9.519   0.581 -0.0787  0.1525  0.0691
 8242W        W12293   6.971   4.061   2.507 -0.0238  0.1255 -0.3461
 8243W        W12294   5.786   0.236   3.186  0.2420  0.0504  0.0559
 8244W        W12295   4.596   7.556   1.917 -0.0525  0.0174 -0.2251
 8245W        W12296   1.401   8.797  12.849  0.0834  0.1692  0.2834
 8246W        W12297   5.519   3.466  12.698 -0.1802  0.0514 -0.0483
 8247W        W12298   5.962   3.137   1.967  0.0370  0.3269  0.2868
 8248W        W12299   0.386   0.292  13.583 -0.4122 -0.3423  0.1377
 8249W        W12300   7.095   2.827  13.262  0.2010 -0.2207 -0.2728
 8250W        W12301   3.738   0.455   2.174  0.1194 -0.1261  0.0583
 8251W        W12302   0.543   9.257   2.200 -0.2652  0.1848 -0.1044
 8252W        W12303   9.522  10.040   2.174 -0.1458  0.1263 -0.0415
 8253W        W12304  10.125   2.057   2.640 -0.2333  0.0142  0.0517
 8254W        W12305  10.085   3.036   4.285 -0.0501 -0.0291  0.0126
 8255W        W12306   4.195   6.593   9.191 -0.0554 -0.0011  0.0378
 8256W        W12307   8.415   8.637   2.117  0.0679  0.0840  0.1299
 8257W        W12308   0.084   6.954   1.743 -0.0545  0.0482 -0.1703
 8258W        W12309   5.508   3.127  11.461 -0.0498  0.0081  0.2145
 8259W        W12310   2.989   3.564  11.611 -0.1847  0.0656  0.1187
 8260W        W12311   6.651   2.679   2.023  0.1927 -0.0631 -0.0411
 8261W        W12312   0.767   0.449  10.122 -0.0668  0.0129 -0.0624
 8262W        W12313   2.033   9.702   2.789 -0.0346 -0.2210 -0.0484
 8263W        W12314   7.129   2.012  11.084  0.2621  0.0009  0.2214
 8264W        W12315   0.126   6.927  13.552  0.0387  0.2571  0.0284
 8265W        W12316   8.901   4.995  12.748 -0.1423 -0.0248  0.1362
 8266W        W12317   4.776   7.203   4.448  0.1809 -0.0205 -0.0799
 8267W        W12318   9.718   0.780   1.030  0.0391 -0.0177 -0.0848
 8268W        W12319   8.087  10.167  11.604  0.0775  0.2730  0.0396
 8269W        W12320   0.505   5.609   9.933  0.0633 -0.1933  0.2364
 8270W        W12321   2.266   5.761   9.510 -0.2554 -0.0369 -0.0465
 8271W        W12322   0.217   4.663   3.436 -0.2363 -0.0134  0.3628
 8272W        W12323   7.691   4.270   3.436 -0.3470 -0.0513  0.2028
 8273W        W12324   9.610   1.401   1.500 -0.0759  0.2148 -0.1139
 8274W        W12325   4.402   7.000  11.550 -0.0792 -0.1964  0.1800
 8275W        W12326   0.769   2.027   1.657 -0.1655 -0.0244 -0.2180
 8276W        W12327   4.685   1.682   0.159  0.2215  0.0364 -0.2760
 8277W        W12328   0.108   1.746   4.739 -0.2514 -0.0645 -0.1021
 8278W        W12329   6.531  10.120   1.785  0.2225 -0.1884  0.1586
 8279W        W12330   7.627   9.634  10.273  0.0462  0.0307  0.2911
 8280W        W12331   8.089  10.109   2.382  0.0358 -0.0068  0.1134
 8281W        W12332   0.858   9.325   2.595 -0.1904  0.0531  0.2919
 8282W        W12333   5.409   4.991  12.551  0.2109  0.1065 -0.1293
 8283W        W12334   7.192   8.963   4.484 -0.2394 -0.2312 -0.3107
 8284W        W12335   7.500   2.083  12.150  0.1505  0.1262 -0.0606
 8285W        W12336   8.955   9.025  10.751  0.1624 -0.2061  0.0568
 8286W        W12337   3.325   2.811   9.711  0.0394 -0.0120 -0.0389
 8287W        W12338   1.031   8.086  11.544 -0.2820  0.0243 -0.0284
 8288W        W12339   1.395   1.603   4.367 -0.2030 -0.2378  0.4248
 8289W        W12340   6.199   9.681   3.420 -0.0312  0.1754  0.3429
 8290W        W12341   5.089   1.015   2.124  0.3121 -0.1206  0.1343
 8291W        W12342   4.706   3.219  12.621 -0.1176 -0.2847  0.1887
 8292W        W12343   9.396   7.336   1.809  0.2089  0.3237 -0.1653
 8293W        W12344   3.109   6.658   4.531 -0.1839 -0.0402 -0.1024
 8294W        W12345   1.882   1.258  12.341  0.0562 -0.0433  0.3395
 8295W        W12346   7.386   1.854   3.975 -0.2508  0.0809  0.1132
 8296W        W12347   1.744   9.366   3.614  0.1659  0.0349  0.3213
 8297W        W12348   5.137   7.368   5.755  0.2777 -0.1796 -0.0809
 8298W        W12349   2.536   2.127  11.746 -0.0999 -0.0175  0.1005
 8299W        W12350   9.361   7.021   9.462 -0.1838 -0.1453 -0.0399
 8300W        W12351   2.773   9.671  13.558  0.0747 -0.1506 -0.2463
 8301W        W12352   3.899   3.888  12.175  0.0667  0.2351 -0.1604
 8302W        W12353   8.329   9.752  12.737 -0.1097 -0.1845 -0.2330
 8303W        W12354   5.967   9.596  12.602  0.3263  0.1891 -0.1438
 8304W        W12355   5.823   5.156  12.359  0.3860  0.1450 -0.0988
 8305W        W12356   3.345   9.824  10.614  0.0155  0.1115 -0.2905
 8306W        W12357   3.610   6.272  10.743 -0.3828 -0.0669  0.1472
 8307W        W12358   2.448   5.152   0.021  0.0310 -0.1805 -0.2045
 8308W        W12359   8.007   3.650   2.263 -0.0542 -0.1756 -0.2708
 8309W        W12360   5.073   3.854   0.247 -0.2914  0.0085 -0.1238
 8310W        W12361   9.479   6.628  13.804  0.0158  0.0550 -0.0891
 8311W        W12362   6.305   9.686  10.585  0.1177  0.2118 -0.0798
 8312W        W12363   9.793   3.582   2.783 -0.4838  0.1956 -0.0242
 8313W        W12364   4.572   7.457   0.512  0.0327 -0.5317 -0.1197
 8314W        W12365   0.418   9.982  12.030 -0.1356 -0.0693  0.2444
 8315W        W12366   1.574   7.696  11.153  0.1347 -0.1591  0.1041
 8316W        W12367   6.721   4.329  12.874 -0.2323  0.0960 -0.3928
 8317W        W12368   7.427   0.209   0.428 -0.2963 -0.0923 -0.0014
 8318W        W12369   4.258   1.786   3.130  0.0759 -0.2353  0.1937
 8319W        W12370   5.949   4.019  11.114  0.0912 -0.1784  0.0849
 8320W        W12371   4.417   9.110  13.444 -0.3680  0.0643  0.1068
 8321W        W12372   6.269   8.241  11.506  0.3268  0.0413 -0.1728
 8322W        W12373   5.985   9.644  13.502 -0.0191 -0.2300 -0.2560
 8323W        W12374   8.525   8.581  10.639 -0.1599 -0.0776 -0.0387
 8324W        W12375   4.738   4.797  11.881  0.5024  0.2263 -0.1618
 8325W        W12376   6.387   0.655  10.418 -0.0628  0.0018 -0.0451
 8326W        W12377   7.588   1.588   2.244  0.2297 -0.1245 -0.0238
 8327W        W12378   9.994   2.720  13.124  0.1580 -0.1771  0.3475
 8328W        W12379   9.614   3.799  13.564 -0.2594  0.4774  0.0658
 8329W        W12380   3.243   9.848   0.871 -0.0499 -0.0605  0.1415
 8330W        W12381   7.514   8.590  10.420 -0.1223 -0.0021 -0.0084
 8331W        W12382   6.658   3.903   9.590 -0.2711 -0.3484  0.0718
 8332W        W12383   8.478   4.865   2.894  0.4556  0.1257  0.0827
 8333W        W12384   2.308   0.462  11.349  0.2401  0.1833  0.1230
 8334W        W12385   4.382   6.644   4.963  0.0796  0.1082  0.0724
 8335W        W12386   0.645   8.605   3.373  0.1232  0.3417 -0.0856
 8336W        W12387   0.308   4.575  12.635 -0.0756 -0.1219 -0.0629
 8337W        W12388   6.301   9.428   0.855  0.0551  0.3847  0.1730
 8338W        W12389   9.903   1.574  11.650 -0.1089  0.0993 -0.2939
 8339W        W12390   8.256   1.258   3.426 -0.2378  0.3224  0.0479
 8340W        W12391   8.892   3.889   9.064 -0.2075 -0.0502 -0.0271
 8341W        W12392   8.418   0.103  13.062 -0.0728  0.2403 -0.0377
 8342W        W12393   2.932   3.299   2.889 -0.2612  0.2481 -0.0499
 8343W        W12394   4.018   0.314  13.829  0.0834 -0.0679 -0.0078
 8344W        W12395   2.043   6.183   2.605 -0.3255  0.2518 -0.0074
 8345W        W12396   7.695   6.173   1.316 -0.0205  0.2453 -0.2300
 8346W        W12397  10.016   5.512  12.455 -0.2392  0.0125 -0.2244
 8347W        W12398   5.452   0.360  13.681 -0.1293 -0.1132  0.1271
 8348W        W12399   3.622   5.275   3.806  0.3667  0.0428 -0.0860
 8349W        W12400   0.162   0.888  12.779 -0.1332  0.0835  0.2505
 8350W        W12401   3.878   5.537   0.212  0.2408  0.0088  0.2449
 8351W        W12402   1.896   0.806   3.236 -0.0190 -0.1151  0.0113
 8352W        W12403   4.775   6.816  12.352 -0.1112  0.0757 -0.0351
 8353W        W12404   8.775   4.661  13.513  0.1283 -0.1345 -0.1529
 8354W        W12405   9.295   4.998  13.068 -0.1034  0.1952 -0.2157
 8355W        W12406   2.456   0.452   4.788 -0.1486  0.1556 -0.2814
 8356W        W12407   5.164   2.485  11.331 -0.0977  0.1722 -0.1727
 8357W        W12408   2.663   6.230   0.415 -0.1806  0.0156  0.0948
 8358W        W12409  10.003   0.444  12.682 -0.0628 -0.0435  0.1431
 8359W        W12410   7.314   1.005   9.555  0.3478 -0.0447 -0.1704
 8360W        W12411   9.867   9.969  13.398  0.1107  0.0757 -0.0752
 8361W        W12412   5.510  10.057  13.639  0.0761  0.0739 -0.3270
 8362W        W12413   7.280   7.381   9.601  0.5059  0.1046  0.0789
 8363W        W12414   4.817   4.779   4.096  0.0413 -0.3080  0.0362
 8364W        W12415   0.822   6.366  13.983  0.0640 -0.3013  0.0788
 8365W        W12416   0.222   6.984   1.068 -0.1169  0.3921 -0.0433
 8366W        W12417   1.703   7.611  12.534  0.0108  0.4795 -0.5228
 8367W        W12418   1.459   9.624  12.062 -0.1761  0.0512  0.2918
 8368W        W12419   1.961   4.736   9.835 -0.1180  0.1932 -0.3160
 8369W        W12420   4.874   9.334   3.397 -0.0714  0.1227  0.0259
 8370W        W12421   9.872   0.683  13.563 -0.0569  0.0475 -0.2883
 8371W        W12422   9.150   0.239  11.508  0.0262  0.1471 -0.0804
 8372W        W12423   4.845   6.139  11.311 -0.0527 -0.3388  0.0103
 8373W        W12424   5.394   2.249   8.753 -0.0954  0.1277 -0.2214
 8374W        W12425   6.034   6.583  13.154  0.1978 -0.2566 -0.1593
 8375W        W12426   4.100   4.031   0.408 -0.1063 -0.3956  0.1737
 8376W        W12427   4.630   8.632   2.102 -0.2857  0.2122  0.0268
 8377W        W12428   7.559   5.248   1.394  0.0744  0.0709 -0.1431
 8378W        W12429   6.485   1.124  12.324  0.0635 -0.0874  0.1593
 8379W        W12430   9.302   9.228  13.430  0.4103 -0.2233  0.1156
 8380W        W12431   5.280   2.381   9.758  0.3685 -0.1389  0.2089
 8381W        W12432   7.773   8.781   1.965 -0.2068  0.0539  0.2790
 8382W        W12433   8.586  10.155   2.359  0.2239  0.0353  0.0073
 8383W        W12434   4.794   5.335   0.269  0.1509  0.0475 -0.0318
 8384W        W12435   3.407   0.649  10.481  0.0970  0.1228  0.0491
 8385W        W12436   5.278   2.386   9.194 -0.1271  0.0833  0.1405
 8386W        W12437   6.242   4.182  11.772 -0.1373 -0.3496  0.3337
 8387W        W12438   9.282   3.869   3.831 -0.4869 -0.0216 -0.0142
 8388W        W12439   6.743   3.362  12.701 -0.0076  0.2085  0.4706
 8389W        W12440   4.159   5.542   3.476  0.3459  0.2745 -0.0236
 8390W        W12441   3.008   9.814   4.768  0.3724  0.1374  0.0803
 8391W        W12442   1.702   3.359  12.970 -0.2728 -0.0756 -0.1953
 8392W        W12443   0.249   0.556   3.757  0.1799 -0.2460  0.1610
 8393W        W12444   5.327   6.835  12.497  0.2169 -0.0217 -0.1251
 8394W        W12445   2.650   6.418   9.895  0.1513  0.3509 -0.2811
 8395W        W12446   4.079   1.845   9.392  0.0191  0.2096  0.1977
 8396W        W12447   5.835   6.668   0.847  0.2013 -0.3763  0.0984
 8397W        W12448   9.349   2.605   9.163 -0.0256  0.0819  0.3159
 8398W        W12449   1.309   6.668   2.346 -0.3688 -0.1132 -0.2329
 8399W        W12450   0.953   1.216  11.960  0.1999  0.1386  0.1401
 8400W        W12451   4.204   6.661  13.346  0.1929  0.1610 -0.2448
 8401W        W12452   0.967   6.713   0.578  0.0850  0.3248  0.0874
 8402W        W12453   6.562   0.730   4.274 -0.1953  0.1106  0.2748
 8403W        W12454   2.007   9.327   4.121 -0.4111  0.4211  0.1619
 8404W        W12455   9.971   6.245  13.235  0.1062  0.1982  0.1332
 8405W        W12456   6.743   3.727  12.155 -0.1444  0.0024 -0.0240
 8406W        W12457   2.814   9.293   2.156  0.1388 -0.0129 -0.1042
 8407W        W12458   8.604   5.063   1.302  0.0133 -0.1291  0.2459
 8408W        W12459   0.097   4.377   2.733  0.2131 -0.0827 -0.1335
 8409W        W12460   6.443   7.566   1.871 -0.4243 -0.1593  0.1660
 8410W        W12461   2.122   0.018  10.191  0.4731  0.1328 -0.1919
 8411W        W12462   1.263   3.612   2.536  0.5568  0.0970  0.2254
 8412W        W12463   1.550   6.893  10.824  0.1302 -0.2501  0.0514
 8413W        W12464   2.782   3.951   9.324  0.0796 -0.1751  0.0445
 8414W        W12465   9.893   5.612  11.092 -0.1139 -0.3418 -0.2535
 8415W        W12466   8.485   4.519   9.826  0.0255  0.1591 -0.3359
 8416W        W12467   6.938   7.002   9.822 -0.3651  0.1344 -0.2374
 8417W        W12468   1.636   0.828   0.353 -0.1066  0.1906  0.1313
 8418W        W12469   6.123   8.137   3.023  0.2911  0.0223 -0.1741
 8419W        W12470   6.923   5.021  11.958  0.0237 -0.0834 -0.0913
 8420W        W12471   4.094   3.299  13.882 -0.0982 -0.0244  0.2503
 8421W        W12472   3.580   5.965  10.118 -0.1036 -0.1626 -0.1866
 8422W        W12473   8.050   1.655   3.146 -0.1582  0.0614  0.2698
 8423W        W12474   3.960   0.248  11.321  0.2504 -0.3704 -0.3210
 8424W        W12475  10.074   4.298   9.474  0.0762 -0.2766 -0.3033
 8425W        W12476   3.314   2.840  13.421  0.3094  0.4086 -0.0598
 8426W        W12477   0.981   3.875  12.304  0.0102 -0.0299  0.1388
 8427W        W12478   9.832   5.266  10.640 -0.0836 -0.0597  0.0051
 8428W        W12479   4.720   8.132   1.119  0.0802 -0.0052  0.0011
 8429W        W12480   2.806   5.442   5.115  0.2198  0.1684  0.1970
 8430W        W12481   1.940   6.338   4.478  0.0432 -0.2137  0.0261
 8431W        W12482   0.577   6.857   4.731  0.1678  0.4940 -0.2407
 8432W        W12483   5.589   4.490   4.165 -0.1311  0.0135 -0.0339
 8433W        W12484   7.030   8.430  11.086 -0.1732 -0.2084 -0.0161
 8434W        W12485   9.529   0.070   0.474  0.4181  0.1079 -0.0556
 8435W        W12486   0.203   3.430   1.921 -0.0007 -0.1263 -0.0406
 8436W        W12487   6.768   9.698   2.053  0.3042  0.1419  0.4981
 8437W        W12488   1.602   1.331   2.389  0.1968  0.0046 -0.1633
 8438W        W12489   9.392   5.364   0.839 -0.2095  0.3024  0.1546
 8439W        W12490   1.574   5.502  10.246 -0.0645  0.0092 -0.1717
 8440W        W12491   5.088   6.482  13.074  0.0569 -0.4463 -0.2117
 8441W        W12492   1.133   7.536  11.176 -0.1710 -0.0124 -0.0587
 8442W        W12493   2.969   4.089  11.723 -0.0568 -0.0226 -0.0816
 8443W        W12494   6.194   5.761   3.038  0.0751 -0.0069 -0.4586
 8444W        W12495   0.831   4.558   8.737  0.0001 -0.2195  0.0238
 8445W        W12496   8.406   1.724   0.619  0.0883  0.1840 -0.5476
 8446W        W12497   8.727   3.053  10.293  0.1019 -0.1844 -0.1373
 8447W        W12498   4.958   4.963   0.968  0.0865 -0.0116 -0.0326
 8448ION    NA+12499   7.624   4.110   4.270 -0.1557 -0.2615 -0.0856
 8449ION    NA+12500   8.148   2.919  11.159  0.0659  0.2388  0.1173
 8450ION    NA+12501   6.054   0.214  11.064  0.1437  0.3097 -0.1365
 8451ION    NA+12502   5.934   0.795  12.870 -0.4191  0.3800 -0.3788
 8452ION    NA+12503   2.825   7.090   1.659  0.3587  0.0038  0.3330
 8453ION    NA+12504   0.090   9.707   1.148 -0.0580 -0.0500 -0.2398
 8454ION    NA+12505   8.681   4.608   0.957  0.1219  0.1082 -0.0773
 8455ION    NA+12506   9.631  10.056  13.953 -0.0566  0.1100  0.0545
 8456ION    NA+12507   7.337   3.408  13.145  0.1452  0.0109 -0.0523
 8457ION    NA+12508   0.721   4.590  10.053 -0.1821  0.0333 -0.1048
 8458ION    NA+12509   8.648   3.873  10.332  0.1642  0.0446  0.0707
 8459ION    NA+12510   6.135   7.744  11.294  0.1762 -0.1302 -0.0838
 8460ION    NA+12511   3.054   7.998   4.193 -0.2296 -0.1615  0.0803
 8461ION    NA+12512   8.894   3.934   2.415  0.0868  0.4391  0.3785
 8462ION    NA+12513   8.640   8.625   3.145  0.0218  0.1749  0.2061
 8463ION    NA+12514   7.172   5.641   0.963 -0.0308 -0.2361 -0.2576
 8464ION    NA+12515   6.055   4.848   2.751 -0.0603  0.2303  0.0273
 8465ION    NA+12516   1.210   7.518   0.351 -0.0361 -0.1412  0.2270
 8466ION    NA+12517   0.948   8.856   9.809  0.3041  0.2256  0.0450
 8467ION    NA+12518   0.554   1.595   5.165 -0.1837 -0.1206  0.1675
 8468ION    NA+12519   2.998   9.764   3.848 -0.1300  0.0633  0.1406
 8469ION    NA+12520   1.013   6.998   1.327 -0.1836  0.1872 -0.0559
 8470ION    NA+12521   9.429   9.288   0.541 -0.2774 -0.0467 -0.1463
 8471ION    NA+12522   6.945   6.226  13.673  0.3213  0.0795 -0.2862
 8472ION    NA+12523   5.367   1.704   4.836  0.0228 -0.1046  0.0931
 8473ION    NA+12524   1.981   4.746   5.798 -0.1770 -0.1069  0.2356
 8474ION    NA+12525   0.192   9.311   0.468 -0.4009  0.1257  0.0552
 8475ION    NA+12526   4.088   2.739   3.201  0.3791 -0.0510 -0.0145
 8476ION    NA+12527   7.528   0.362   4.100 -0.2758 -0.0191 -0.3580
 8477ION    NA+12528   0.665   9.482  10.401 -0.0497  0.1838  0.1107
 8478ION    NA+12529   0.714   8.511   3.989 -0.0825  0.2362  0.0610
 8479ION    NA+12530   5.089   1.852   1.500  0.1675 -0.3851 -0.3025
 8480ION    NA+12531   8.232   4.371   1.950 -0.2685 -0.1705 -0.4799
 8481ION    NA+12532   1.861   3.763   3.846 -0.0197 -0.3729  0.0936
 8482ION    NA+12533   6.804   9.895   4.355 -0.3206  0.0338  0.2201
 8483ION    NA+12534   4.419   1.099   8.833 -0.1640 -0.0112 -0.1945
 8484ION    NA+12535   3.523   3.420   2.940  0.0265 -0.0456 -0.0933
 8485ION    NA+12536   9.556   1.463  10.257 -0.0908  0.2892 -0.1887
 8486ION    NA+12537   5.558   9.431  11.169 -0.1803 -0.2211  0.1062
 8487ION    NA+12538   7.705   9.405   1.338  0.3219  0.1213 -0.0850
 8488ION    NA+12539   5.623   8.380   4.032 -0.3364  0.0128 -0.1722
 8489ION    NA+12540   1.368   1.539   9.969  0.0915 -0.1028  0.0667
 8490ION    NA+12541   0.389   2.185   3.518  0.0203  0.2627  0.0428
 8491ION    NA+12542   9.472   8.434   9.961 -0.1278  0.1736  0.1228
 8492ION    NA+12543   7.811   8.402  12.631  0.0626  0.0580 -0.2888
 8493ION    NA+12544   3.102   5.043   0.869  0.1610 -0.0273  0.0134
 8494ION    NA+12545   0.197   8.192  10.945 -0.2442  0.3752 -0.2720
 8495ION    NA+12546   3.388   7.032   3.269 -0.2389  0.2800  0.0877
 8496ION    NA+12547   0.236   4.236  12.183 -0.1344  0.0817 -0.0815
 8497ION    NA+12548   9.694   9.058  11.180 -0.0734 -0.2668 -0.0027
 8498ION    NA+12549   4.269   6.163   4.911  0.2003  0.3842 -0.1617
 8499ION    NA+12550   6.043   5.396   5.029  0.0224  0.0112 -0.0068
 8500ION    NA+12551   5.979   9.911   2.896 -0.0472  0.0502 -0.1342
 8501ION    NA+12552   0.930   6.330  12.056  0.0720  0.1935 -0.1243
 8502ION    NA+12553   1.950   2.811  12.096 -0.0190  0.0055  0.0703
 8503ION    NA+12554   4.601   2.859   8.892 -0.0417 -0.1665 -0.2140
 8504ION    NA+12555   2.418   1.678   1.278  0.0413  0.1301  0.1275
 8505ION    NA+12556   4.433   5.718   5.674 -0.0680  0.2753 -0.0348
 8506ION    NA+12557   8.675   5.331   2.765  0.0973  0.0439 -0.2062
 8507ION    NA+12558   4.885   0.673  10.858  0.0418 -0.0097 -0.1095
 8508ION    NA+12559   3.731   6.940  13.196  0.0126  0.4407 -0.0903
 8509ION    NA+12560   6.137   1.401   9.004 -0.2902 -0.2758  0.1648
 8510ION    NA+12561   1.886   9.314  13.426 -0.0638  0.0300 -0.2270
 8511ION    NA+12562   3.080   6.445  12.971  0.3701 -0.0825 -0.1165
 8512ION    NA+12563   7.186   2.383  11.407 -0.0257  0.1265  0.1270
 8513ION    NA+12564   2.265   2.736   5.276 -0.3212  0.0480 -0.2739
 8514ION    NA+12565   5.261   6.351   4.065 -0.2433  0.0496  0.0914
 8515ION    NA+12566   3.490   4.146   0.806 -0.3831 -0.2918  0.0161
 8516ION    NA+12567   1.109   9.247  13.106 -0.0746 -0.0212 -0.0496
 8517ION    NA+12568   6.580   5.909  12.875 -0.0603 -0.0889 -0.0086
 8518ION    NA+12569   6.694   5.915   3.327 -0.5225 -0.1727  0.0033
 8519ION    NA+12570   5.960   8.799   3.991  0.1988 -0.2396  0.1483
 8520ION    NA+12571   9.462  10.147   1.199  0.2103  0.1015  0.2555
 8521ION    NA+12572   5.535   0.922   5.065  0.1890 -0.0787  0.0201
 8522ION    NA+12573   0.111   3.747   3.788 -0.3514  0.4417 -0.0058
 8523ION    NA+12574   1.191   3.123   3.709 -0.0726  0.2967 -0.2776
 8524ION    NA+12575  10.148   8.230  11.948 -0.0636 -0.1028  0.0181
 8525ION    NA+12576   7.029   2.445   4.274 -0.1891  0.1382  0.0443
 8526ION    NA+12577   7.239   7.911   1.236 -0.0800 -0.0282  0.0054
 8527ION    NA+12578   2.893   0.329   8.973 -0.1388 -0.0957  0.0381
 8528ION    NA+12579  10.159   8.199  13.738  0.2210 -0.0444 -0.1088
 8529ION    NA+12580   6.678   8.056   9.736 -0.1355 -0.0107  0.0123
 8530ION    NA+12581   0.795   8.581  10.967  0.0037  0.0443 -0.3383
 8531ION    NA+12582   9.970   2.192  11.002 -0.2993  0.2081 -0.1382
 8532ION    NA+12583   1.608   4.225   0.350  0.1757 -0.0971  0.3735
 8533ION    NA+12584   6.280   3.756   2.677 -0.1503 -0.2436  0.1265
 8534ION    NA+12585   2.809   7.101  10.464  0.1621 -0.0474 -0.1986
 8535ION    NA+12586   2.366   3.834   5.571 -0.0519  0.3530 -0.1747
 8536ION    NA+12587   2.571   8.460  12.959  0.0564 -0.0416  0.4198
 8537ION    CL-12588   6.429   5.472   3.403  0.1821 -0.1989 -0.2018
 8538ION    CL-12589   3.229   0.847   1.455  0.2898  0.0962  0.1406
 8539ION    CL-12590   6.142   4.551   4.372  0.3012  0.0748  0.1397
 8540ION    CL-12591   6.938   4.612   9.125  0.0182  0.1652 -0.2400
 8541ION    CL-12592   3.873   6.668   4.656  0.1588  0.1841 -0.2375
 8542ION    CL-12593   3.327   7.912  10.027  0.2598 -0.1745  0.1696
 8543ION    CL-12594   9.921   1.747  10.721 -0.0025 -0.2804 -0.2351
 8544ION    CL-12595   0.259   4.013  10.470  0.1914 -0.2026 -0.2845
 8545ION    CL-12596   0.150   8.632  13.801 -0.1074 -0.2529 -0.0080
 8546ION    CL-12597   0.433   6.741  12.771  0.1290 -0.0660  0.0765
 8547ION    CL-12598   2.512   9.815  10.060 -0.0344 -0.2071  0.0468
 8548ION    CL-12599   6.222   0.376  12.886  0.0088  0.2668 -0.2133
 8549ION    CL-12600   3.393   7.144  10.783 -0.0633  0.0467  0.0140
 8550ION    CL-12601   1.085   7.036   0.229  0.0562  0.0874  0.0844
 8551ION    CL-12602   5.179   8.426  10.433  0.1266  0.1571 -0.0115
 8552ION    CL-12603   7.792   3.985   3.835  0.2486 -0.1102  0.1218
 8553ION    CL-12604   2.633   7.798  12.192  0.0101  0.1622  0.0950
 8554ION    CL-12605   1.654   3.699   4.352  0.3206 -0.0351  0.2780
 8555ION    CL-12606   6.911   4.260  11.903 -0.0512 -0.0858  0.3305
 8556ION    CL-12607   8.126   5.237   2.809  0.1308 -0.5536  0.1236
 8557ION    CL-12608   9.801   6.198   0.141  0.1216 -0.2924 -0.0895
 8558ION    CL-12609   4.440   3.207   3.020  0.1180  0.1383 -0.1776
 8559ION    CL-12610   4.447   7.188   9.981  0.1377 -0.3863  0.0333
 8560ION    CL-12611   1.822   9.668  13.086 -0.1237 -0.2793  0.1351
 8561ION    CL-12612   3.483   6.752  12.819  0.2295 -0.0439  0.3544
 8562ION    CL-12613   7.164   5.703   3.949 -0.0363  0.3902 -0.2613
 8563ION    CL-12614   3.660   1.647   4.413 -0.0569 -0.2648 -0.2557
 8564ION    CL-12615   5.336   7.306  13.766  0.0401  0.2578 -0.0206
 8565ION    CL-12616   2.537   9.578   3.956  0.2363  0.2257  0.0224
 8566ION    CL-12617   9.309   5.853   9.748  0.2736 -0.0594 -0.3179
 8567ION    CL-12618   3.503   8.141   3.951  0.1094  0.1060 -0.1893
 8568ION    CL-12619   9.378   9.702   0.242 -0.0151  0.0701  0.0077
 8569ION    CL-12620   0.509   7.768  10.165  0.0663 -0.0434 -0.1690
 8570ION    CL-12621   3.011   4.559   0.805  0.1400 -0.1272 -0.0466
 8571ION    CL-12622   1.310   3.383   1.154  0.0944 -0.2768  0.2477
 8572ION    CL-12623   9.068   9.743  13.320 -0.0835 -0.1509  0.2514
 8573ION    CL-12624   9.972  10.136   1.168 -0.1762 -0.1052 -0.0839
 8574ION    CL-12625   6.149   4.336   2.916 -0.1373 -0.1463 -0.1942
 8575ION    CL-12626   6.639   5.932  13.386  0.0718 -0.1398 -0.1573
 8576ION    CL-12627   6.903   0.842   0.611 -0.0256  0.1072  0.6740
 8577ION    CL-12628   7.230   2.027  11.745  0.1828 -0.0579  0.1349
 8578ION    CL-12629   3.488   9.623   3.962  0.1214  0.2330  0.3557
 8579ION    CL-12630   2.052   2.929   2.694 -0.0497  0.2500 -0.2207
 8580ION    CL-12631   6.518   1.242   4.153  0.0904 -0.2660 -0.3390
 8581ION    CL-12632   0.125   3.729  12.232 -0.0501 -0.1082 -0.3456
 8582ION    CL-12633   2.787   5.925  11.815 -0.0212 -0.2166  0.1006
 8583ION    CL-12634   9.910   9.528   0.912 -0.0290 -0.0016  0.2524
 8584ION    CL-12635   4.768   9.689  10.033 -0.0669 -0.0559 -0.0773
 8585ION    CL-12636   4.824   1.164  10.781  0.1010  0.2718  0.1669
 8586ION    CL-12637   4.127   6.177  13.198  0.0197  0.1688  0.1786
 8587ION    CL-12638   1.617   1.648  10.381  0.3976  0.1586 -0.0274
 8588ION    CL-12639   1.240   9.031  11.360  0.0759 -0.1379 -0.2719
 8589ION    CL-12640   4.650   1.964   1.192 -0.3094 -0.2653 -0.1809
 8590ION    CL-12641  10.131   1.973   3.693  0.2903 -0.4137 -0.1184
 8591ION    CL-12642   7.214   3.118  12.704 -0.1083  0.0321  0.1317
 8592ION    CL-12643   0.533   6.846   1.422 -0.1062  0.1538 -0.0506
 8593ION    CL-12644   9.438   8.795  13.943 -0.0370  0.2077  0.3394
 8594ION    CL-12645   4.763   4.794   3.217 -0.0937  0.3359  0.2065
 8595ION    CL-12646   1.737   7.229   4.220 -0.0639  0.0541  0.3330
 8596ION    CL-12647   7.878   9.829   1.238 -0.1377 -0.0295  0.0540
 8597ION    CL-12648   5.571   8.844   4.268 -0.0852 -0.3914 -0.3212
 8598ION    CL-12649   5.058   6.786   4.193 -0.1111  0.1845  0.2635
 8599ION    CL-12650   8.002   8.166  12.182  0.4249 -0.1670 -0.0166
 8600ION    CL-12651   0.232   8.691  10.777 -0.1373  0.2743  0.4431
 8601ION    CL-12652   5.375   8.750   1.605 -0.0821 -0.4633  0.0753
 8602ION    CL-12653   0.843   9.610  13.453  0.0103 -0.0097  0.1690
 8603ION    CL-12654   2.074   3.286  12.172  0.0342  0.0517 -0.1719
 8604ION    CL-12655   2.795   1.724   4.554  0.2150 -0.3167 -0.1310
 8605ION    CL-12656   0.668   8.178  11.182 -0.2025  0.4774 -0.2415
 8606ION    CL-12657   3.393   3.695   2.278 -0.0351  0.2621  0.2502
 8607ION    CL-12658   5.455   2.009   3.013  0.0608 -0.0659 -0.1866
 8608ION    CL-12659   5.753   9.888  11.207 -0.1890  0.1502  0.2013
 8609ION    CL-12660   1.402   3.907   9.922  0.1718  0.1032  0.0662
 8610ION    CL-12661   0.887   2.861   3.400  0.2373 -0.1640  0.0917
 8611ION    CL-12662   8.573   4.255   1.340 -0.2269  0.2255 -0.1467
 8612ION    CL-12663  10.030   9.226  11.534 -0.0036 -0.0886  0.1270
 8613ION    CL-12664   6.352   8.817  13.195 -0.0532 -0.2942  0.1372
 8614ION    CL-12665   9.146   3.885  10.166  0.3130 -0.1775 -0.3805
 8615ION    CL-12666   6.348   0.694  10.932 -0.0155  0.1295 -0.1174
 8616ION    CL-12667   5.091   8.411   4.861  0.2132 -0.0416 -0.3381
 8617ION    CL-12668   7.680   5.059  13.511  0.0679 -0.0718  0.0822
 8618ION    CL-12669   8.183   0.064  10.902  0.4720 -0.0813 -0.1100
 8619ION    CL-12670   1.601  10.090   3.600  0.2732  0.0729  0.3390
 8620ION    CL-12671   6.809   6.416   3.142  0.0447  0.0485 -0.0661
 8621ION    CL-12672   1.255   7.595   1.387  0.1238 -0.1408  0.2486
 8622ION    CL-12673   4.782   2.448   3.632 -0.2452  0.0316 -0.2183
 8623ION    CL-12674   7.254   5.917   0.488 -0.2175  0.1456 -0.1798
 8624ION    CL-12675   8.098   9.251  12.495 -0.1039 -0.3259  0.1156
 8625ION    CL-12676   9.661   6.967   1.701 -0.1229 -0.0055 -0.1279
  10.18384  10.18384  13.98496
